<event>
12    6  0.1462228E-007  0.1210182E+04  0.7818608E-02  0.9103990E-01
          2   -1    0    0  501    0  0.00000000000E+00  0.00000000000E+00  0.13113020716E+04  0.13113020716E+04  0.00000000000E+00 0. -1.
         -1   -1    0    0    0  501 -0.00000000000E+00 -0.00000000000E+00 -0.27921501663E+03  0.27921501663E+03  0.00000000000E+00 0.  1.
         24    2    1    2    0    0 -0.12080701147E+03  0.23219997040E+03  0.20890895816E+03  0.34376144340E+03  0.77574589265E+02 0.  0.
        254    2    1    2    0    0  0.12080701147E+03 -0.23219997040E+03  0.82317809683E+03  0.12467556448E+04  0.89903631662E+03 0.  0.
         23    2    4    4    0    0  0.30519550463E+03  0.41103300109E+02  0.84507572459E+03  0.90437890068E+03  0.94416303541E+02 0.  0.
         23    2    4    4    0    0 -0.18438849317E+03 -0.27330327051E+03 -0.21897627764E+02  0.34237674417E+03  0.89713626411E+02 0.  0.
          2    1    3    3  502    0 -0.69135362477E+02  0.56034205526E+02  0.77265045747E+02  0.11785337427E+03  0.00000000000E+00 0. -1.
         -1    1    3    3    0  502 -0.51671648989E+02  0.17616576487E+03  0.13164391241E+03  0.22590806913E+03  0.00000000000E+00 0.  1.
         11    1    5    5    0    0  0.26848967035E+03  0.62868531455E+02  0.67780291153E+03  0.73174855122E+03  0.00000000000E+00 0.  1.
        -11    1    5    5    0    0  0.36705834285E+02 -0.21765231346E+02  0.16727281306E+03  0.17263034946E+03  0.00000000000E+00 0. -1.
          3    1    6    6  503    0 -0.13031809665E+03 -0.11772324049E+03 -0.26491964238E+02  0.17760459407E+03  0.00000000000E+00 0. -1.
         -3    1    6    6    0  503 -0.54070396515E+02 -0.15558003002E+03  0.45943364740E+01  0.16477215010E+03  0.00000000000E+00 0.  1.
<mgrwt>
<rscale>  0 0.12101822E+04</rscale>
<asrwt>0</asrwt>
<pdfrwt beam="1">  1        2 0.20173878E+00 0.12101822E+04</pdfrwt>
<pdfrwt beam="2">  1       -1 0.42956157E-01 0.12101822E+04</pdfrwt>
<totfact> 0.97678906E+01</totfact>
</mgrwt>
</event>
<event>
12    6  0.1462228E-007  0.1674521E+04  0.7818608E-02  0.8776031E-01
          2   -1    0    0  501    0  0.00000000000E+00  0.00000000000E+00  0.24083041688E+04  0.24083041688E+04  0.00000000000E+00 0. -1.
         -1   -1    0    0    0  501 -0.00000000000E+00 -0.00000000000E+00 -0.29107840724E+03  0.29107840724E+03  0.00000000000E+00 0.  1.
         24    2    1    2    0    0 -0.65758315076E+02  0.42624249795E+03  0.14608423967E+04  0.15252031190E+04  0.78595312990E+02 0.  0.
        254    2    1    2    0    0  0.65758315076E+02 -0.42624249795E+03  0.65638336487E+03  0.11741794570E+04  0.87284102366E+03 0.  0.
         23    2    4    4    0    0  0.39928933318E+03  0.18054518216E+02  0.25242913815E+03  0.48148506580E+03  0.91375388271E+02 0.  0.
         23    2    4    4    0    0 -0.33353101810E+03 -0.44429701617E+03  0.40395422672E+03  0.69269439123E+03  0.89463533087E+02 0.  0.
          2    1    3    3  502    0  0.74417306774E+01  0.20127890451E+03  0.70429829790E+03  0.73253304989E+03  0.00000000000E+00 0. -1.
         -1    1    3    3    0  502 -0.73200045753E+02  0.22496359344E+03  0.75654409877E+03  0.79267006910E+03  0.00000000000E+00 0.  1.
         11    1    5    5    0    0  0.16045373820E+03  0.47540827031E+02  0.80326466308E+02  0.18562832092E+03  0.00000000000E+00 0. -1.
        -11    1    5    5    0    0  0.23883559498E+03 -0.29486308815E+02  0.17210267184E+03  0.29585674488E+03  0.00000000000E+00 0.  1.
          1    1    6    6  503    0 -0.27513856028E+03 -0.41092376210E+03  0.34215411704E+03  0.60135597230E+03  0.00000000000E+00 0. -1.
         -1    1    6    6    0  503 -0.58392457818E+02 -0.33373254066E+02  0.61800109679E+02  0.91338418934E+02  0.00000000000E+00 0.  1.
<mgrwt>
<rscale>  0 0.16745212E+04</rscale>
<asrwt>0</asrwt>
<pdfrwt beam="1">  1        2 0.37050832E+00 0.16745212E+04</pdfrwt>
<pdfrwt beam="2">  1       -1 0.44781295E-01 0.16745212E+04</pdfrwt>
<totfact> 0.21127961E+01</totfact>
</mgrwt>
</event>
<event>
12    6  0.1462228E-007  0.1571474E+04  0.7818608E-02  0.8838267E-01
          2   -1    0    0  501    0  0.00000000000E+00  0.00000000000E+00  0.10631733146E+04  0.10631733146E+04  0.00000000000E+00 0. -1.
         -1   -1    0    0    0  501 -0.00000000000E+00 -0.00000000000E+00 -0.58069808950E+03  0.58069808950E+03  0.00000000000E+00 0.  1.
         24    2    1    2    0    0 -0.76129203406E+02  0.40973362781E+03 -0.17730372438E+03  0.46149938711E+03  0.88700463704E+02 0.  0.
        254    2    1    2    0    0  0.76129203406E+02 -0.40973362781E+03  0.65977894950E+03  0.11823720170E+04  0.88826686477E+03 0.  0.
         23    2    4    4    0    0 -0.25667048763E+03 -0.44426327392E+03  0.65318617381E+03  0.83557582661E+03  0.91023011228E+02 0.  0.
         23    2    4    4    0    0  0.33279969104E+03  0.34529646118E+02  0.65927756852E+01  0.34679619040E+03  0.90973634469E+02 0.  0.
          2    1    3    3  502    0 -0.10151362314E+02 -0.82652897532E+00 -0.55307654119E+01  0.11589765874E+02  0.00000000000E+00 0. -1.
         -1    1    3    3    0  502 -0.65977841092E+02  0.41056015678E+03 -0.17177295896E+03  0.44990962124E+03  0.00000000000E+00 0.  1.
         11    1    5    5    0    0 -0.23713442116E+03 -0.43718904802E+03  0.64155812663E+03  0.81176586973E+03  0.00000000000E+00 0. -1.
        -11    1    5    5    0    0 -0.19536066472E+02 -0.70742259024E+01  0.11628047178E+02  0.23809956877E+02  0.00000000000E+00 0.  1.
          4    1    6    6  503    0  0.13649085965E+03 -0.26301687040E+02 -0.16531187247E+02  0.13998147613E+03  0.00000000000E+00 0. -1.
         -4    1    6    6    0  503  0.19630883139E+03  0.60831333158E+02  0.23123962932E+02  0.20681471427E+03  0.00000000000E+00 0.  1.
<mgrwt>
<rscale>  0 0.15714741E+04</rscale>
<asrwt>0</asrwt>
<pdfrwt beam="1">  1        2 0.16356513E+00 0.15714741E+04</pdfrwt>
<pdfrwt beam="2">  1       -1 0.89338168E-01 0.15714741E+04</pdfrwt>
<totfact> 0.30917853E+01</totfact>
</mgrwt>
</event>
<event>
12    6  0.1462228E-007  0.1432897E+04  0.7818608E-02  0.8930344E-01
          2   -1    0    0  501    0  0.00000000000E+00  0.00000000000E+00  0.65812098999E+03  0.65812098999E+03  0.00000000000E+00 0. -1.
         -1   -1    0    0    0  501 -0.00000000000E+00 -0.00000000000E+00 -0.77994549628E+03  0.77994549628E+03  0.00000000000E+00 0.  1.
         24    2    1    2    0    0 -0.33021982864E+03 -0.16014195760E+03  0.17097880331E+03  0.41313521387E+03  0.82197152920E+02 0.  0.
        254    2    1    2    0    0  0.33021982864E+03  0.16014195760E+03 -0.29280330959E+03  0.10249312724E+04  0.91107615117E+03 0.  0.
         23    2    4    4    0    0  0.17092913788E+03 -0.18930662934E+03  0.24039863771E+03  0.36234398456E+03  0.91912393299E+02 0.  0.
         23    2    4    4    0    0  0.15929069076E+03  0.34944858694E+03 -0.53320194730E+03  0.66258728785E+03  0.85027985619E+02 0.  0.
          2    1    3    3  502    0 -0.20166946202E+03 -0.10294488338E+03  0.14817259401E+03  0.27059811260E+03  0.00000000000E+00 0. -1.
         -1    1    3    3    0  502 -0.12855036662E+03 -0.57197074217E+02  0.22806209302E+02  0.14253710127E+03  0.00000000000E+00 0.  1.
         11    1    5    5    0    0  0.62181977757E+02 -0.12749785344E+03  0.95912002283E+02  0.17123496480E+03  0.00000000000E+00 0.  1.
        -11    1    5    5    0    0  0.10874716012E+03 -0.61808775900E+02  0.14448663543E+03  0.19110901975E+03  0.00000000000E+00 0. -1.
          3    1    6    6  503    0  0.33402584354E+02  0.16371740167E+03 -0.25994138847E+03  0.30901237142E+03  0.00000000000E+00 0. -1.
         -3    1    6    6    0  503  0.12588810640E+03  0.18573118527E+03 -0.27326055883E+03  0.35357491643E+03  0.00000000000E+00 0.  1.
<mgrwt>
<rscale>  0 0.14328971E+04</rscale>
<asrwt>0</asrwt>
<pdfrwt beam="1">  1        2 0.10124938E+00 0.14328971E+04</pdfrwt>
<pdfrwt beam="2">  1       -1 0.11999161E+00 0.14328971E+04</pdfrwt>
<totfact> 0.30420366E+01</totfact>
</mgrwt>
</event>
<event>
12    6  0.1462228E-007  0.1283529E+04  0.7818608E-02  0.9042730E-01
         -1   -1    0    0    0  501 -0.00000000000E+00  0.00000000000E+00  0.18222598523E+03  0.18222598523E+03  0.00000000000E+00 0.  1.
          2   -1    0    0  501    0  0.00000000000E+00 -0.00000000000E+00 -0.22601696794E+04  0.22601696794E+04  0.00000000000E+00 0. -1.
         24    2    1    2    0    0 -0.30053424687E+03 -0.39863827858E+02 -0.24021838728E+03  0.39514219343E+03  0.80762126822E+02 0.  0.
        254    2    1    2    0    0  0.30053424687E+03  0.39863827858E+02 -0.18377253069E+04  0.20472534712E+04  0.84976615222E+03 0.  0.
         23    2    4    4    0    0  0.19690572999E+03 -0.23248019531E+03 -0.18510013425E+03  0.36663588375E+03  0.85679074699E+02 0.  0.
         23    2    4    4    0    0  0.10362851688E+03  0.27234402316E+03 -0.16526251726E+04  0.16806175874E+04  0.91626292908E+02 0.  0.
          2    1    3    3  502    0 -0.15463395558E+03 -0.28663177558E+02 -0.17395922676E+03  0.23451023547E+03  0.00000000000E+00 0. -1.
         -1    1    3    3    0  502 -0.14590029128E+03 -0.11200650300E+02 -0.66259160521E+02  0.16063195796E+03  0.00000000000E+00 0.  1.
         11    1    5    5    0    0  0.20094010752E+03 -0.23046165758E+03 -0.16784338207E+03  0.34879923070E+03  0.00000000000E+00 0.  1.
        -11    1    5    5    0    0 -0.40343775290E+01 -0.20185377208E+01 -0.17256752175E+02  0.17836653055E+02  0.00000000000E+00 0. -1.
          1    1    6    6  503    0 -0.34897866646E+01  0.68344385393E+01 -0.19444462966E+03  0.19459599729E+03  0.00000000000E+00 0. -1.
         -1    1    6    6    0  503  0.10711830354E+03  0.26550958462E+03 -0.14581805430E+04  0.14860215901E+04  0.00000000000E+00 0.  1.
<mgrwt>
<rscale>  0 0.12835290E+04</rscale>
<asrwt>0</asrwt>
<pdfrwt beam="1">  1        2 0.34771840E+00 0.12835290E+04</pdfrwt>
<pdfrwt beam="2">  1       -1 0.28034768E-01 0.12835290E+04</pdfrwt>
<totfact> 0.61486856E+01</totfact>
</mgrwt>
</event>
<event>
12    6  0.1462228E-007  0.3676875E+04  0.7818608E-02  0.8073106E-01
          2   -1    0    0  501    0  0.00000000000E+00  0.00000000000E+00  0.26484110654E+04  0.26484110654E+04  0.00000000000E+00 0. -1.
         -1   -1    0    0    0  501 -0.00000000000E+00 -0.00000000000E+00 -0.12761810584E+04  0.12761810584E+04  0.00000000000E+00 0.  1.
         24    2    1    2    0    0  0.33803173667E+03 -0.10810302261E+04 -0.74619423205E+03  0.13584365360E+04  0.75181018045E+02 0.  0.
        254    2    1    2    0    0 -0.33803173667E+03  0.10810302261E+04  0.21184242391E+04  0.25661555878E+04  0.90251949528E+03 0.  0.
         23    2    4    4    0    0 -0.25045612927E+03  0.33178349371E+03  0.15738130098E+04  0.16303297233E+04  0.90989325632E+02 0.  0.
         23    2    4    4    0    0 -0.87575607400E+02  0.74924673242E+03  0.54461122927E+03  0.93582586454E+03  0.10064047210E+03 0.  0.
          2    1    3    3  502    0  0.69271503191E+02 -0.29278968943E+03 -0.22899854946E+03  0.37810670326E+03  0.00000000000E+00 0. -1.
         -1    1    3    3    0  502  0.26876023348E+03 -0.78824053669E+03 -0.51719568259E+03  0.98032983270E+03  0.00000000000E+00 0.  1.
         11    1    5    5    0    0 -0.13482558938E+03  0.24846988781E+03  0.10763264068E+04  0.11128314152E+04  0.00000000000E+00 0. -1.
        -11    1    5    5    0    0 -0.11563053989E+03  0.83313605898E+02  0.49748660303E+03  0.51749830809E+03  0.00000000000E+00 0.  1.
          1    1    6    6  503    0 -0.10870111881E+03  0.56284587466E+03  0.41929344258E+03  0.71022419196E+03  0.00000000000E+00 0. -1.
         -1    1    6    6    0  503  0.21125511414E+02  0.18640085777E+03  0.12531778670E+03  0.22560167258E+03  0.00000000000E+00 0.  1.
<mgrwt>
<rscale>  0 0.36768748E+04</rscale>
<asrwt>0</asrwt>
<pdfrwt beam="1">  1        2 0.40744786E+00 0.36768748E+04</pdfrwt>
<pdfrwt beam="2">  1       -1 0.19633555E+00 0.36768748E+04</pdfrwt>
<totfact> 0.41833758E-01</totfact>
</mgrwt>
</event>
<event>
12    6  0.1462228E-007  0.1650429E+04  0.7818608E-02  0.8790153E-01
          2   -1    0    0  501    0  0.00000000000E+00  0.00000000000E+00  0.22946835561E+04  0.22946835561E+04  0.00000000000E+00 0. -1.
         -1   -1    0    0    0  501 -0.00000000000E+00 -0.00000000000E+00 -0.29676373975E+03  0.29676373975E+03  0.00000000000E+00 0.  1.
         24    2    1    2    0    0  0.36755901374E+03 -0.14310099023E+03  0.44175332112E+02  0.40515951919E+03  0.81395663511E+02 0.  0.
        254    2    1    2    0    0 -0.36755901374E+03  0.14310099023E+03  0.19537444842E+04  0.21862877767E+04  0.89842039755E+03 0.  0.
         23    2    4    4    0    0 -0.44807812542E+03  0.45314166320E+03  0.11906394625E+04  0.13535237720E+04  0.91065352424E+02 0.  0.
         23    2    4    4    0    0  0.80519111679E+02 -0.31004067297E+03  0.76310502175E+03  0.83276400464E+03  0.92509820858E+02 0.  0.
          4    1    3    3  502    0  0.11056477721E+03 -0.23459369389E+02  0.45066360623E+02  0.12167945114E+03  0.00000000000E+00 0. -1.
         -3    1    3    3    0  502  0.25699423653E+03 -0.11964162084E+03 -0.89102851064E+00  0.28348006805E+03  0.00000000000E+00 0.  1.
         11    1    5    5    0    0 -0.26009804183E+03  0.20787760748E+03  0.66743131131E+03  0.74587441729E+03  0.00000000000E+00 0.  1.
        -11    1    5    5    0    0 -0.18798008359E+03  0.24526405572E+03  0.52320815119E+03  0.60764935475E+03  0.00000000000E+00 0. -1.
          1    1    6    6  503    0  0.56790648753E+02 -0.27948910435E+03  0.58903667037E+03  0.65444903261E+03  0.00000000000E+00 0. -1.
         -1    1    6    6    0  503  0.23728462926E+02 -0.30551568617E+02  0.17406835138E+03  0.17831497203E+03  0.00000000000E+00 0.  1.
<mgrwt>
<rscale>  0 0.16504289E+04</rscale>
<asrwt>0</asrwt>
<pdfrwt beam="1">  1        2 0.35302823E+00 0.16504289E+04</pdfrwt>
<pdfrwt beam="2">  1       -1 0.45655961E-01 0.16504289E+04</pdfrwt>
<totfact> 0.23694197E+01</totfact>
</mgrwt>
</event>
<event>
12    6  0.1462228E-007  0.1813861E+04  0.7818608E-02  0.8698963E-01
         -1   -1    0    0    0  501 -0.00000000000E+00  0.00000000000E+00  0.57691071777E+03  0.57691071777E+03  0.00000000000E+00 0.  1.
          2   -1    0    0  501    0  0.00000000000E+00 -0.00000000000E+00 -0.14257366203E+04  0.14257366203E+04  0.00000000000E+00 0. -1.
         24    2    1    2    0    0 -0.58764554398E+02  0.57527611017E+03 -0.73779028129E+03  0.94093747076E+03  0.81442918175E+02 0.  0.
        254    2    1    2    0    0  0.58764554398E+02 -0.57527611017E+03 -0.11103562120E+03  0.10617098673E+04  0.88346084084E+03 0.  0.
         23    2    4    4    0    0  0.35312533538E+03 -0.64300787325E+03 -0.10167613107E+03  0.74620030752E+03  0.91215326416E+02 0.  0.
         23    2    4    4    0    0 -0.29436078098E+03  0.67731763082E+02 -0.93594901237E+01  0.31550955974E+03  0.90679772420E+02 0.  0.
          4    1    3    3  502    0 -0.56630526538E+02  0.57620065910E+03 -0.73859563494E+03  0.93847627996E+03  0.00000000000E+00 0. -1.
         -3    1    3    3    0  502 -0.21340278596E+01 -0.92454893714E+00  0.80535364997E+00  0.24611907980E+01  0.00000000000E+00 0.  1.
         11    1    5    5    0    0  0.32303808394E+02 -0.11058790811E+03  0.58600645915E+01  0.11535840591E+03  0.00000000000E+00 0.  1.
        -11    1    5    5    0    0  0.32082152698E+03 -0.53241996514E+03 -0.10753619567E+03  0.63084190161E+03  0.00000000000E+00 0. -1.
          3    1    6    6  503    0 -0.20413716950E+03  0.86488875426E+02  0.74871033515E+01  0.22182958834E+03  0.00000000000E+00 0. -1.
         -3    1    6    6    0  503 -0.90223611476E+02 -0.18757112344E+02 -0.16846593475E+02  0.93679971408E+02  0.00000000000E+00 0.  1.
<mgrwt>
<rscale>  0 0.18138608E+04</rscale>
<asrwt>0</asrwt>
<pdfrwt beam="1">  1        2 0.21934409E+00 0.18138608E+04</pdfrwt>
<pdfrwt beam="2">  1       -1 0.88755496E-01 0.18138608E+04</pdfrwt>
<totfact> 0.18726341E+01</totfact>
</mgrwt>
</event>
<event>
12    6  0.1462228E-007  0.1618922E+04  0.7818608E-02  0.8809007E-01
         -1   -1    0    0    0  501 -0.00000000000E+00  0.00000000000E+00  0.91292964595E+03  0.91292964595E+03  0.00000000000E+00 0.  1.
          2   -1    0    0  501    0  0.00000000000E+00 -0.00000000000E+00 -0.71771950799E+03  0.71771950799E+03  0.00000000000E+00 0. -1.
         24    2    1    2    0    0  0.28731013244E+03  0.33485280674E+03  0.42837889177E+03  0.62007959816E+03  0.79477787776E+02 0.  0.
        254    2    1    2    0    0 -0.28731013244E+03 -0.33485280674E+03 -0.23316875381E+03  0.10105695558E+04  0.87875459881E+03 0.  0.
         23    2    4    4    0    0 -0.59311512545E+03 -0.20097533897E+03 -0.99960393039E+02  0.63985968530E+03  0.85156900978E+02 0.  0.
         23    2    4    4    0    0  0.30580499301E+03 -0.13387746777E+03 -0.13320836077E+03  0.37070987048E+03  0.90782545487E+02 0.  0.
          4    1    3    3  502    0 -0.28226134094E+01  0.16672719593E+02  0.24082750949E+02  0.29426614116E+02  0.00000000000E+00 0. -1.
         -3    1    3    3    0  502  0.29013274585E+03  0.31818008714E+03  0.40429614082E+03  0.59065298404E+03  0.00000000000E+00 0.  1.
         11    1    5    5    0    0 -0.44312860208E+03 -0.11000379664E+03 -0.73484918881E+02  0.46245413455E+03  0.00000000000E+00 0. -1.
        -11    1    5    5    0    0 -0.14998652337E+03 -0.90971542325E+02 -0.26475474158E+02  0.17740555075E+03  0.00000000000E+00 0.  1.
          3    1    6    6  503    0  0.31227285757E+03 -0.12935630342E+03 -0.13112453604E+03  0.36254797581E+03  0.00000000000E+00 0. -1.
         -3    1    6    6    0  503 -0.64678645644E+01 -0.45211643475E+01 -0.20838247377E+01  0.81618946709E+01  0.00000000000E+00 0.  1.
<mgrwt>
<rscale>  0 0.16189224E+04</rscale>
<asrwt>0</asrwt>
<pdfrwt beam="1">  1        2 0.11041839E+00 0.16189224E+04</pdfrwt>
<pdfrwt beam="2">  1       -1 0.14045072E+00 0.16189224E+04</pdfrwt>
<totfact> 0.18041284E+01</totfact>
</mgrwt>
</event>
<event>
12    6  0.1462228E-007  0.1604293E+04  0.7818608E-02  0.8817915E-01
         -1   -1    0    0    0  501 -0.00000000000E+00  0.00000000000E+00  0.11760321187E+04  0.11760321187E+04  0.00000000000E+00 0.  1.
          2   -1    0    0  501    0  0.00000000000E+00 -0.00000000000E+00 -0.54712674874E+03  0.54712674874E+03  0.00000000000E+00 0. -1.
         24    2    1    2    0    0  0.15403157805E+03 -0.33697940606E+02  0.77942455533E+03  0.79916395474E+03  0.79366938123E+02 0.  0.
        254    2    1    2    0    0 -0.15403157805E+03  0.33697940606E+02 -0.15051918535E+03  0.92399491273E+03  0.89791385742E+03 0.  0.
         23    2    4    4    0    0  0.35956449223E+03  0.10030763479E+03 -0.90523745770E+02  0.39485462767E+03  0.91473399281E+02 0.  0.
         23    2    4    4    0    0 -0.51359607027E+03 -0.66609694182E+02 -0.59995439581E+02  0.52914028506E+03  0.90400297263E+02 0.  0.
          4    1    3    3  502    0  0.60872551834E+02  0.15416473669E+02  0.18200159988E+03  0.19252978363E+03  0.00000000000E+00 0. -1.
         -3    1    3    3    0  502  0.93159026212E+02 -0.49114414275E+02  0.59742295545E+03  0.60663417111E+03  0.00000000000E+00 0.  1.
         11    1    5    5    0    0  0.24063666248E+03  0.34003122063E+02 -0.26741269583E+02  0.24449398999E+03  0.00000000000E+00 0.  1.
        -11    1    5    5    0    0  0.11892782974E+03  0.66304512726E+02 -0.63782476187E+02  0.15036063768E+03  0.00000000000E+00 0. -1.
          3    1    6    6  503    0 -0.46275524334E+03 -0.79374621951E+02 -0.34306041621E+02  0.47076496295E+03  0.00000000000E+00 0. -1.
         -3    1    6    6    0  503 -0.50840826930E+02  0.12764927769E+02 -0.25689397960E+02  0.58375322110E+02  0.00000000000E+00 0.  1.
<mgrwt>
<rscale>  0 0.16042925E+04</rscale>
<asrwt>0</asrwt>
<pdfrwt beam="1">  1        2 0.84173346E-01 0.16042925E+04</pdfrwt>
<pdfrwt beam="2">  1       -1 0.18092802E+00 0.16042925E+04</pdfrwt>
<totfact> 0.12435609E+01</totfact>
</mgrwt>
</event>
<event>
12    6  0.1462228E-007  0.2008036E+04  0.7818608E-02  0.8602873E-01
          2   -1    0    0  501    0  0.00000000000E+00  0.00000000000E+00  0.65919801794E+03  0.65919801794E+03  0.00000000000E+00 0. -1.
         -1   -1    0    0    0  501 -0.00000000000E+00 -0.00000000000E+00 -0.15292094458E+04  0.15292094458E+04  0.00000000000E+00 0.  1.
         24    2    1    2    0    0  0.24070245600E+03 -0.22953028936E+03 -0.11528052783E+04  0.12023043887E+04  0.77162214484E+02 0.  0.
        254    2    1    2    0    0 -0.24070245600E+03  0.22953028936E+03  0.28279385051E+03  0.98610307497E+03  0.88419742508E+03 0.  0.
         23    2    4    4    0    0 -0.53520172843E+03  0.31201907271E+03  0.17786927972E+03  0.65099158227E+03  0.91409888302E+02 0.  0.
         23    2    4    4    0    0  0.29449927243E+03 -0.82488783346E+02  0.10492457079E+03  0.33511149269E+03  0.88070007059E+02 0.  0.
          4    1    3    3  502    0  0.12652911259E+03 -0.83927230106E+02 -0.42355539835E+03  0.44994729887E+03  0.00000000000E+00 0. -1.
         -3    1    3    3    0  502  0.11417334341E+03 -0.14560305926E+03 -0.72924987998E+03  0.75235708986E+03  0.00000000000E+00 0.  1.
         11    1    5    5    0    0 -0.38251474182E+03  0.20350650927E+03  0.16356954535E+03  0.46312786916E+03  0.00000000000E+00 0.  1.
        -11    1    5    5    0    0 -0.15268698661E+03  0.10851256343E+03  0.14299734370E+02  0.18786371312E+03  0.00000000000E+00 0. -1.
          4    1    6    6  503    0 -0.55796990519E+01 -0.37529179607E+01  0.71895205253E+01  0.98441170307E+01  0.00000000000E+00 0. -1.
         -4    1    6    6    0  503  0.30007897148E+03 -0.78735865385E+02  0.97735050265E+02  0.32526737566E+03  0.00000000000E+00 0.  1.
<mgrwt>
<rscale>  0 0.20080357E+04</rscale>
<asrwt>0</asrwt>
<pdfrwt beam="1">  1        2 0.10141508E+00 0.20080357E+04</pdfrwt>
<pdfrwt beam="2">  1       -1 0.23526299E+00 0.20080357E+04</pdfrwt>
<totfact> 0.40798375E+00</totfact>
</mgrwt>
</event>
<event>
12    6  0.1462228E-007  0.1530292E+04  0.7818608E-02  0.8864555E-01
         -1   -1    0    0    0  501 -0.00000000000E+00  0.00000000000E+00  0.15069438682E+04  0.15069438682E+04  0.00000000000E+00 0.  1.
          2   -1    0    0  501    0  0.00000000000E+00 -0.00000000000E+00 -0.38850052613E+03  0.38850052613E+03  0.00000000000E+00 0. -1.
         24    2    1    2    0    0 -0.48209470116E+03  0.55517767123E+02  0.47438160925E+03  0.68337081456E+03  0.80375591166E+02 0.  0.
        254    2    1    2    0    0  0.48209470116E+03 -0.55517767123E+02  0.64406173280E+03  0.12120735798E+04  0.90488083399E+03 0.  0.
         23    2    4    4    0    0 -0.39935572721E+02 -0.38836193129E+03  0.23919739322E+03  0.46688538366E+03  0.91360434051E+02 0.  0.
         23    2    4    4    0    0  0.52203027388E+03  0.33284416417E+03  0.40486433958E+03  0.74518819609E+03  0.89941479048E+02 0.  0.
          2    1    3    3  502    0 -0.24781352198E+03  0.47688731678E+02  0.19661874168E+03  0.31991356080E+03  0.00000000000E+00 0. -1.
         -1    1    3    3    0  502 -0.23428117918E+03  0.78290354457E+01  0.27776286757E+03  0.36345725376E+03  0.00000000000E+00 0.  1.
         11    1    5    5    0    0 -0.16415485235E+02 -0.37132508832E+03  0.22582620959E+03  0.43491294107E+03  0.00000000000E+00 0.  1.
        -11    1    5    5    0    0 -0.23520087486E+02 -0.17036842972E+02  0.13371183634E+02  0.31972442597E+02  0.00000000000E+00 0. -1.
          3    1    6    6  503    0  0.25280678065E+03  0.12063855984E+03  0.21660968605E+03  0.35409700162E+03  0.00000000000E+00 0. -1.
         -3    1    6    6    0  503  0.26922349322E+03  0.21220560433E+03  0.18825465353E+03  0.39109119447E+03  0.00000000000E+00 0.  1.
<mgrwt>
<rscale>  0 0.15302921E+04</rscale>
<asrwt>0</asrwt>
<pdfrwt beam="1">  1        2 0.59769312E-01 0.15302921E+04</pdfrwt>
<pdfrwt beam="2">  1       -1 0.23183752E+00 0.15302921E+04</pdfrwt>
<totfact> 0.83199540E+00</totfact>
</mgrwt>
</event>
<event>
12    6  0.1462228E-007  0.1482071E+04  0.7818608E-02  0.8896464E-01
          2   -1    0    0  501    0  0.00000000000E+00  0.00000000000E+00  0.10486688030E+04  0.10486688030E+04  0.00000000000E+00 0. -1.
         -1   -1    0    0    0  501 -0.00000000000E+00 -0.00000000000E+00 -0.52364830898E+03  0.52364830898E+03  0.00000000000E+00 0.  1.
         24    2    1    2    0    0  0.41823404453E+03 -0.16366269144E+03  0.27760626025E+03  0.53403028778E+03  0.80111921441E+02 0.  0.
        254    2    1    2    0    0 -0.41823404453E+03  0.16366269144E+03  0.24741423374E+03  0.10382868242E+04  0.90284025920E+03 0.  0.
         23    2    4    4    0    0 -0.53338374755E+03  0.31791021009E+03  0.42761320432E+03  0.75963131095E+03  0.92852314053E+02 0.  0.
         23    2    4    4    0    0  0.11514970301E+03 -0.15424751866E+03 -0.18019897058E+03  0.27865551323E+03  0.90141416337E+02 0.  0.
          4    1    3    3  502    0  0.36617972449E+02  0.43592887402E+01  0.87534183641E+01  0.37901208920E+02  0.00000000000E+00 0. -1.
         -3    1    3    3    0  502  0.38161607209E+03 -0.16802198018E+03  0.26885284189E+03  0.49612907886E+03  0.00000000000E+00 0.  1.
         11    1    5    5    0    0 -0.37771106861E+03  0.26350511647E+03  0.34332907324E+03  0.57443489648E+03  0.00000000000E+00 0. -1.
        -11    1    5    5    0    0 -0.15567267893E+03  0.54405093621E+02  0.84284131085E+02  0.18519641447E+03  0.00000000000E+00 0.  1.
          4    1    6    6  503    0  0.34948159382E+02 -0.12017897551E+03 -0.11290233491E+03  0.16855651048E+03  0.00000000000E+00 0. -1.
         -4    1    6    6    0  503  0.80201543632E+02 -0.34068543150E+02 -0.67296635673E+02  0.11009900275E+03  0.00000000000E+00 0.  1.
<mgrwt>
<rscale>  0 0.14820710E+04</rscale>
<asrwt>0</asrwt>
<pdfrwt beam="1">  1        2 0.16133366E+00 0.14820710E+04</pdfrwt>
<pdfrwt beam="2">  1       -1 0.80561278E-01 0.14820710E+04</pdfrwt>
<totfact> 0.39787175E+01</totfact>
</mgrwt>
</event>
<event>
12    6  0.1462228E-007  0.1931787E+04  0.7818608E-02  0.8639194E-01
         -1   -1    0    0    0  501 -0.00000000000E+00  0.00000000000E+00  0.28441591257E+03  0.28441591257E+03  0.00000000000E+00 0.  1.
          2   -1    0    0  501    0  0.00000000000E+00 -0.00000000000E+00 -0.32802326837E+04  0.32802326837E+04  0.00000000000E+00 0. -1.
         24    2    1    2    0    0  0.60547599909E+03  0.20848439549E+03 -0.42608498647E+03  0.77334658168E+03  0.80309346071E+02 0.  0.
        254    2    1    2    0    0 -0.60547599909E+03 -0.20848439549E+03 -0.25697317847E+04  0.27913020146E+04  0.88191754884E+03 0.  0.
         23    2    4    4    0    0 -0.34429198536E+03 -0.37257211864E+03 -0.23408129521E+04  0.23969460155E+04  0.92725235636E+02 0.  0.
         23    2    4    4    0    0 -0.26118401373E+03  0.16408772314E+03 -0.22891883255E+03  0.39435599917E+03  0.89280189688E+02 0.  0.
          4    1    3    3  502    0  0.14248294915E+03  0.64142555614E+02 -0.67534491016E+02  0.17022504432E+03  0.00000000000E+00 0. -1.
         -3    1    3    3    0  502  0.46299304994E+03  0.14434183988E+03 -0.35855049545E+03  0.60312153735E+03  0.00000000000E+00 0.  1.
         11    1    5    5    0    0 -0.18274697279E+03 -0.21665190588E+03 -0.10964986657E+04  0.11325386653E+04  0.00000000000E+00 0. -1.
        -11    1    5    5    0    0 -0.16154501257E+03 -0.15592021275E+03 -0.12443142864E+04  0.12644073502E+04  0.00000000000E+00 0.  1.
          1    1    6    6  503    0 -0.11260373063E+03  0.11386465310E+03 -0.14715330039E+03  0.21748299518E+03  0.00000000000E+00 0. -1.
         -1    1    6    6    0  503 -0.14858028310E+03  0.50223070044E+02 -0.81765532168E+02  0.17687300400E+03  0.00000000000E+00 0.  1.
<mgrwt>
<rscale>  0 0.19317871E+04</rscale>
<asrwt>0</asrwt>
<pdfrwt beam="1">  1        2 0.50465116E+00 0.19317871E+04</pdfrwt>
<pdfrwt beam="2">  1       -1 0.43756296E-01 0.19317871E+04</pdfrwt>
<totfact> 0.63297454E+00</totfact>
</mgrwt>
</event>
<event>
12    6  0.1462228E-007  0.1705863E+04  0.7818608E-02  0.8758028E-01
          2   -1    0    0  501    0  0.00000000000E+00  0.00000000000E+00  0.47457287728E+03  0.47457287728E+03  0.00000000000E+00 0. -1.
         -1   -1    0    0    0  501 -0.00000000000E+00 -0.00000000000E+00 -0.15329408353E+04  0.15329408353E+04  0.00000000000E+00 0.  1.
         24    2    1    2    0    0 -0.38661272156E+02  0.54549253975E+03 -0.11820344070E+03  0.56534237084E+03  0.81136539169E+02 0.  0.
        254    2    1    2    0    0  0.38661272156E+02 -0.54549253975E+03 -0.94016451731E+03  0.14421713417E+04  0.94704385031E+03 0.  0.
         23    2    4    4    0    0 -0.30118631953E+03 -0.64000382838E+03 -0.50061584975E+03  0.87109280927E+03  0.88703742395E+02 0.  0.
         23    2    4    4    0    0  0.33984759168E+03  0.94511288639E+02 -0.43954866755E+03  0.57107853246E+03  0.92189423645E+02 0.  0.
          4    1    3    3  502    0 -0.45168433730E+01  0.28246498722E+03 -0.99261650546E+02  0.29943237325E+03  0.00000000000E+00 0. -1.
         -3    1    3    3    0  502 -0.34144428783E+02  0.26302755252E+03 -0.18941790155E+02  0.26590999759E+03  0.00000000000E+00 0.  1.
         11    1    5    5    0    0 -0.37055120468E+02 -0.37449285325E+02 -0.56892723527E+02  0.77539105712E+02  0.00000000000E+00 0.  1.
        -11    1    5    5    0    0 -0.26413119906E+03 -0.60255454306E+03 -0.44372312623E+03  0.79355370356E+03  0.00000000000E+00 0. -1.
          1    1    6    6  503    0  0.33997329290E+03  0.82879836167E+02 -0.40830407265E+03  0.53773889841E+03  0.00000000000E+00 0. -1.
         -1    1    6    6    0  503 -0.12570121249E+00  0.11631452473E+02 -0.31244594902E+02  0.33339634041E+02  0.00000000000E+00 0.  1.
<mgrwt>
<rscale>  0 0.17058630E+04</rscale>
<asrwt>0</asrwt>
<pdfrwt beam="1">  1        2 0.73011213E-01 0.17058630E+04</pdfrwt>
<pdfrwt beam="2">  1       -1 0.23583705E+00 0.17058630E+04</pdfrwt>
<totfact> 0.61426466E+00</totfact>
</mgrwt>
</event>
<event>
12    6  0.1462228E-007  0.1655338E+04  0.7818608E-02  0.8787255E-01
          2   -1    0    0  501    0  0.00000000000E+00  0.00000000000E+00  0.48084182861E+03  0.48084182861E+03  0.00000000000E+00 0. -1.
         -1   -1    0    0    0  501 -0.00000000000E+00 -0.00000000000E+00 -0.14246589577E+04  0.14246589577E+04  0.00000000000E+00 0.  1.
         24    2    1    2    0    0 -0.97955459965E+02 -0.55521497598E+03 -0.17288482367E+03  0.59526775216E+03  0.81213255191E+02 0.  0.
        254    2    1    2    0    0  0.97955459965E+02  0.55521497598E+03 -0.77093230545E+03  0.13102330342E+04  0.89694762532E+03 0.  0.
         23    2    4    4    0    0  0.15327386709E+03 -0.19110535655E+03 -0.48954604110E+02  0.26637858387E+03  0.92449234977E+02 0.  0.
         23    2    4    4    0    0 -0.55318407127E+02  0.74632033253E+03 -0.72197770134E+03  0.10438544503E+04  0.91247724694E+02 0.  0.
          2    1    3    3  502    0 -0.94636210041E+02 -0.40355430970E+03 -0.97235896179E+02  0.42575452156E+03  0.00000000000E+00 0. -1.
         -1    1    3    3    0  502 -0.33192499243E+01 -0.15166066628E+03 -0.75648927489E+02  0.16951323060E+03  0.00000000000E+00 0.  1.
         11    1    5    5    0    0 -0.80835887168E+01 -0.13472856206E+02  0.10808751484E+02  0.19070693997E+02  0.00000000000E+00 0.  1.
        -11    1    5    5    0    0  0.16135745581E+03 -0.17763250034E+03 -0.59763355594E+02  0.24730788988E+03  0.00000000000E+00 0. -1.
          1    1    6    6  503    0 -0.51898708306E+02  0.59963317157E+03 -0.52810205021E+03  0.80071542499E+03  0.00000000000E+00 0. -1.
         -1    1    6    6    0  503 -0.34196988209E+01  0.14668716096E+03 -0.19387565112E+03  0.24313902531E+03  0.00000000000E+00 0.  1.
<mgrwt>
<rscale>  0 0.16553376E+04</rscale>
<asrwt>0</asrwt>
<pdfrwt beam="1">  1        2 0.73975668E-01 0.16553376E+04</pdfrwt>
<pdfrwt beam="2">  1       -1 0.21917829E+00 0.16553376E+04</pdfrwt>
<totfact> 0.78386085E+00</totfact>
</mgrwt>
</event>
<event>
12    6  0.1462228E-007  0.2668534E+04  0.7818608E-02  0.8345287E-01
         -1   -1    0    0    0  501 -0.00000000000E+00  0.00000000000E+00  0.81442161147E+03  0.81442161147E+03  0.00000000000E+00 0.  1.
          2   -1    0    0  501    0  0.00000000000E+00 -0.00000000000E+00 -0.21859304337E+04  0.21859304337E+04  0.00000000000E+00 0. -1.
         24    2    1    2    0    0 -0.62741506908E+03  0.94703090625E+03 -0.96638320135E+03  0.14935643840E+04  0.79503905177E+02 0.  0.
        254    2    1    2    0    0  0.62741506908E+03 -0.94703090625E+03 -0.40512562092E+03  0.15067876612E+04  0.90319714405E+03 0.  0.
         23    2    4    4    0    0  0.41595147792E+03 -0.19596943980E+03  0.20505934020E+03  0.51180775344E+03  0.92077088163E+02 0.  0.
         23    2    4    4    0    0  0.21146359115E+03 -0.75106146646E+03 -0.61018496111E+03  0.99497990779E+03  0.94069938616E+02 0.  0.
          4    1    3    3  502    0 -0.33123593728E+03  0.52038074641E+03 -0.47466326679E+03  0.77834348730E+03  0.00000000000E+00 0. -1.
         -3    1    3    3    0  502 -0.29617913179E+03  0.42665015984E+03 -0.49171993456E+03  0.71522089668E+03  0.00000000000E+00 0.  1.
         11    1    5    5    0    0  0.10835453433E+03 -0.51261700521E+02  0.10979303697E+02  0.12037031261E+03  0.00000000000E+00 0. -1.
        -11    1    5    5    0    0  0.30759694360E+03 -0.14470773927E+03  0.19408003650E+03  0.39143744083E+03  0.00000000000E+00 0.  1.
          4    1    6    6  503    0  0.41982326687E+02 -0.24780758426E+03 -0.15287648883E+03  0.29418078695E+03  0.00000000000E+00 0. -1.
         -4    1    6    6    0  503  0.16948126447E+03 -0.50325388220E+03 -0.45730847228E+03  0.70079912084E+03  0.00000000000E+00 0.  1.
<mgrwt>
<rscale>  0 0.26685344E+04</rscale>
<asrwt>0</asrwt>
<pdfrwt beam="1">  1        2 0.33629698E+00 0.26685344E+04</pdfrwt>
<pdfrwt beam="2">  1       -1 0.12529563E+00 0.26685344E+04</pdfrwt>
<totfact> 0.29265870E+00</totfact>
</mgrwt>
</event>
<event>
12    6  0.1462228E-007  0.2480320E+04  0.7818608E-02  0.8410030E-01
          2   -1    0    0  501    0  0.00000000000E+00  0.00000000000E+00  0.17431314201E+04  0.17431314201E+04  0.00000000000E+00 0. -1.
         -1   -1    0    0    0  501 -0.00000000000E+00 -0.00000000000E+00 -0.88231820045E+03  0.88231820045E+03  0.00000000000E+00 0.  1.
         24    2    1    2    0    0  0.52385219324E+03 -0.86958645318E+03  0.17387542252E+02  0.10184943570E+04  0.80166755292E+02 0.  0.
        254    2    1    2    0    0 -0.52385219324E+03  0.86958645318E+03  0.84342567735E+03  0.16069552635E+04  0.91669876507E+03 0.  0.
         23    2    4    4    0    0  0.12191570316E+03  0.61992016861E+03  0.57394491654E+03  0.85843903970E+03  0.91325590879E+02 0.  0.
         23    2    4    4    0    0 -0.64576789640E+03  0.24966628457E+03  0.26948076081E+03  0.74851622383E+03  0.91143991655E+02 0.  0.
          2    1    3    3  502    0  0.10939879776E+03 -0.24675628062E+03 -0.63425168837E+01  0.26999441939E+03  0.00000000000E+00 0. -1.
         -1    1    3    3    0  502  0.41445339547E+03 -0.62283017255E+03  0.23730059136E+02  0.74849993759E+03  0.00000000000E+00 0.  1.
         11    1    5    5    0    0  0.85264423226E+02  0.55842792273E+03  0.52895099713E+03  0.77388689362E+03  0.00000000000E+00 0.  1.
        -11    1    5    5    0    0  0.36651279938E+02  0.61492245872E+02  0.44993919406E+02  0.84552146082E+02  0.00000000000E+00 0. -1.
          2    1    6    6  503    0 -0.23288290018E+03  0.13378745799E+03  0.12244327774E+03  0.29517094263E+03  0.00000000000E+00 0. -1.
         -2    1    6    6    0  503 -0.41288499622E+03  0.11587882658E+03  0.14703748307E+03  0.45334528119E+03  0.00000000000E+00 0.  1.
<mgrwt>
<rscale>  0 0.24803198E+04</rscale>
<asrwt>0</asrwt>
<pdfrwt beam="1">  1        2 0.26817406E+00 0.24803198E+04</pdfrwt>
<pdfrwt beam="2">  1       -1 0.13574126E+00 0.24803198E+04</pdfrwt>
<totfact> 0.42865749E+00</totfact>
</mgrwt>
</event>
<event>
12    6  0.1462228E-007  0.1164512E+04  0.7818608E-02  0.9144499E-01
         -1   -1    0    0    0  501 -0.00000000000E+00  0.00000000000E+00  0.24644584287E+03  0.24644584287E+03  0.00000000000E+00 0.  1.
          2   -1    0    0  501    0  0.00000000000E+00 -0.00000000000E+00 -0.13756445158E+04  0.13756445158E+04  0.00000000000E+00 0. -1.
         24    2    1    2    0    0  0.21449769339E+02  0.17178064581E+03 -0.25542243405E+02  0.19295183859E+03  0.81297742502E+02 0.  0.
        254    2    1    2    0    0 -0.21449769339E+02 -0.17178064581E+03 -0.11036564296E+04  0.14291385201E+04  0.89129720761E+03 0.  0.
         23    2    4    4    0    0 -0.13326843437E+03  0.16576536602E+03  0.34006800910E+02  0.23406299406E+03  0.91599074834E+02 0.  0.
         23    2    4    4    0    0  0.11181866503E+03 -0.33754601183E+03 -0.11376632305E+04  0.11950755261E+04  0.86528394551E+02 0.  0.
          4    1    3    3  502    0  0.11969174940E+02  0.93070874738E+01 -0.26119162636E+02  0.30200888775E+02  0.00000000000E+00 0. -1.
         -3    1    3    3    0  502  0.94805943994E+01  0.16247355834E+03  0.57691923093E+00  0.16275094981E+03  0.00000000000E+00 0.  1.
         11    1    5    5    0    0 -0.99197738101E+02  0.14440200862E+03 -0.86932103770E+01  0.17540724969E+03  0.00000000000E+00 0. -1.
        -11    1    5    5    0    0 -0.34070696268E+02  0.21363357396E+02  0.42700011287E+02  0.58655744368E+02  0.00000000000E+00 0.  1.
          2    1    6    6  503    0  0.15118083960E+02 -0.13661559417E+02 -0.25270318707E+02  0.32462034377E+02  0.00000000000E+00 0. -1.
         -2    1    6    6    0  503  0.96700581070E+02 -0.32388445241E+03 -0.11123929118E+04  0.11626134917E+04  0.00000000000E+00 0.  1.
<mgrwt>
<rscale>  0 0.11645117E+04</rscale>
<asrwt>0</asrwt>
<pdfrwt beam="1">  1        2 0.21163762E+00 0.11645117E+04</pdfrwt>
<pdfrwt beam="2">  1       -1 0.37914745E-01 0.11645117E+04</pdfrwt>
<totfact> 0.11303921E+02</totfact>
</mgrwt>
</event>
<event>
12    6  0.1462228E-007  0.1699940E+04  0.7818608E-02  0.8761398E-01
         -1   -1    0    0    0  501 -0.00000000000E+00  0.00000000000E+00  0.68139229356E+03  0.68139229356E+03  0.00000000000E+00 0.  1.
          2   -1    0    0  501    0  0.00000000000E+00 -0.00000000000E+00 -0.10602544876E+04  0.10602544876E+04  0.00000000000E+00 0. -1.
         24    2    1    2    0    0 -0.54999867151E+03 -0.22520632781E+03 -0.63607507164E+01  0.59966605168E+03  0.79639724037E+02 0.  0.
        254    2    1    2    0    0  0.54999867151E+03  0.22520632781E+03 -0.37250144330E+03  0.11419807294E+04  0.90119156255E+03 0.  0.
         23    2    4    4    0    0 -0.25417956640E+02 -0.22987156873E+03 -0.31543690402E+03  0.40044809344E+03  0.85855835557E+02 0.  0.
         23    2    4    4    0    0  0.57541662815E+03  0.45507789654E+03 -0.57064539281E+02  0.74153263600E+03  0.91728407484E+02 0.  0.
          2    1    3    3  502    0 -0.13121566052E+03 -0.27148498694E+02  0.20870676723E+02  0.13561038195E+03  0.00000000000E+00 0. -1.
         -1    1    3    3    0  502 -0.41878301099E+03 -0.19805782911E+03 -0.27231427439E+02  0.46405566973E+03  0.00000000000E+00 0.  1.
         11    1    5    5    0    0  0.14448748756E+02 -0.17667930824E+03 -0.25529597703E+03  0.31080601697E+03  0.00000000000E+00 0. -1.
        -11    1    5    5    0    0 -0.39866705396E+02 -0.53192260490E+02 -0.60140926987E+02  0.89642076471E+02  0.00000000000E+00 0.  1.
          4    1    6    6  503    0  0.44722539608E+03  0.39585332365E+03 -0.31955268312E+02  0.59810663591E+03  0.00000000000E+00 0. -1.
         -4    1    6    6    0  503  0.12819123207E+03  0.59224572884E+02 -0.25109270969E+02  0.14342600009E+03  0.00000000000E+00 0.  1.
<mgrwt>
<rscale>  0 0.16999403E+04</rscale>
<asrwt>0</asrwt>
<pdfrwt beam="1">  1        2 0.16311607E+00 0.16999403E+04</pdfrwt>
<pdfrwt beam="2">  1       -1 0.10482958E+00 0.16999403E+04</pdfrwt>
<totfact> 0.21397715E+01</totfact>
</mgrwt>
</event>
<event>
12    6  0.1462228E-007  0.1670262E+04  0.7818608E-02  0.8778509E-01
         -1   -1    0    0    0  501 -0.00000000000E+00  0.00000000000E+00  0.59957500057E+03  0.59957500057E+03  0.00000000000E+00 0.  1.
          2   -1    0    0  501    0  0.00000000000E+00 -0.00000000000E+00 -0.11632302634E+04  0.11632302634E+04  0.00000000000E+00 0. -1.
         24    2    1    2    0    0  0.46921894905E+03 -0.62310933548E+02 -0.57389455848E+03  0.74780327591E+03  0.76195148230E+02 0.  0.
        254    2    1    2    0    0 -0.46921894905E+03  0.62310933548E+02  0.10239295615E+02  0.10150019881E+04  0.89781686221E+03 0.  0.
         23    2    4    4    0    0 -0.29018727950E+03 -0.97889253936E+02  0.42239242881E+03  0.53010268570E+03  0.93821800536E+02 0.  0.
         23    2    4    4    0    0 -0.17903166956E+03  0.16020018748E+03 -0.41215313319E+03  0.48489930239E+03  0.86837143480E+02 0.  0.
          4    1    3    3  502    0  0.14969789074E+03 -0.13074489185E+02 -0.23906441337E+03  0.28236889790E+03  0.00000000000E+00 0. -1.
         -3    1    3    3    0  502  0.31952105831E+03 -0.49236444363E+02 -0.33483014511E+03  0.46543437801E+03  0.00000000000E+00 0.  1.
         11    1    5    5    0    0 -0.12695304120E+03 -0.78889995264E+02  0.25465185269E+03  0.29527660270E+03  0.00000000000E+00 0.  1.
        -11    1    5    5    0    0 -0.16323423829E+03 -0.18999258672E+02  0.16774057611E+03  0.23482608300E+03  0.00000000000E+00 0. -1.
          1    1    6    6  503    0 -0.18122450808E+03  0.15702103263E+03 -0.35966578659E+03  0.43227006033E+03  0.00000000000E+00 0. -1.
         -1    1    6    6    0  503  0.21928385267E+01  0.31791548554E+01 -0.52487346606E+02  0.52629242063E+02  0.00000000000E+00 0.  1.
<mgrwt>
<rscale>  0 0.16702620E+04</rscale>
<asrwt>0</asrwt>
<pdfrwt beam="1">  1        2 0.17895850E+00 0.16702620E+04</pdfrwt>
<pdfrwt beam="2">  1       -1 0.92242307E-01 0.16702620E+04</pdfrwt>
<totfact> 0.24797435E+01</totfact>
</mgrwt>
</event>
<event>
12    6  0.1462228E-007  0.1902210E+04  0.7818608E-02  0.8653757E-01
         -1   -1    0    0    0  501 -0.00000000000E+00  0.00000000000E+00  0.12673167194E+04  0.12673167194E+04  0.00000000000E+00 0.  1.
          2   -1    0    0  501    0  0.00000000000E+00 -0.00000000000E+00 -0.71379183950E+03  0.71379183950E+03  0.00000000000E+00 0. -1.
         24    2    1    2    0    0  0.91773275237E+01 -0.20849075951E+03 -0.51752713036E+03  0.56388145236E+03  0.81088479581E+02 0.  0.
        254    2    1    2    0    0 -0.91773275237E+01  0.20849075951E+03  0.10710520103E+04  0.14172271065E+04  0.90433823467E+03 0.  0.
         23    2    4    4    0    0  0.20544392403E+03  0.21771991059E+02  0.10944823734E+04  0.11175014652E+04  0.90755900800E+02 0.  0.
         23    2    4    4    0    0 -0.21462125155E+03  0.18671876845E+03 -0.23430363116E+02  0.29972564136E+03  0.91434665565E+02 0.  0.
          2    1    3    3  502    0  0.38779110452E+02 -0.17226871781E+03 -0.42427786309E+03  0.45955634655E+03  0.00000000000E+00 0. -1.
         -1    1    3    3    0  502 -0.29601782929E+02 -0.36222041695E+02 -0.93249267270E+02  0.10432510582E+03  0.00000000000E+00 0.  1.
         11    1    5    5    0    0 -0.91542134815E+01 -0.29774818971E+01  0.45540520261E+02  0.46546793752E+02  0.00000000000E+00 0.  1.
        -11    1    5    5    0    0  0.21459813751E+03  0.24749472956E+02  0.10489418531E+04  0.10709546714E+04  0.00000000000E+00 0. -1.
          1    1    6    6  503    0 -0.20907102013E+03  0.19689178199E+03 -0.21676586058E+02  0.28800510353E+03  0.00000000000E+00 0. -1.
         -1    1    6    6    0  503 -0.55502314169E+01 -0.10173013539E+02 -0.17537770582E+01  0.11720537838E+02  0.00000000000E+00 0.  1.
<mgrwt>
<rscale>  0 0.19022096E+04</rscale>
<asrwt>0</asrwt>
<pdfrwt beam="1">  1        2 0.10981413E+00 0.19022096E+04</pdfrwt>
<pdfrwt beam="2">  1       -1 0.19497180E+00 0.19022096E+04</pdfrwt>
<totfact> 0.69676654E+00</totfact>
</mgrwt>
</event>
<event>
12    6  0.1462228E-007  0.1823978E+04  0.7818608E-02  0.8693651E-01
         -1   -1    0    0    0  501 -0.00000000000E+00  0.00000000000E+00  0.99919442034E+03  0.99919442034E+03  0.00000000000E+00 0.  1.
          2   -1    0    0  501    0  0.00000000000E+00 -0.00000000000E+00 -0.83239414185E+03  0.83239414185E+03  0.00000000000E+00 0. -1.
         24    2    1    2    0    0 -0.44312418620E+03 -0.53652122403E+03  0.46345037474E+02  0.70181085233E+03  0.78590977300E+02 0.  0.
        254    2    1    2    0    0  0.44312418620E+03  0.53652122403E+03  0.12045524101E+03  0.11297777099E+04  0.88185834485E+03 0.  0.
         23    2    4    4    0    0  0.64161871194E+03  0.49567745434E+03 -0.93154246179E+02  0.82137937556E+03  0.92820551385E+02 0.  0.
         23    2    4    4    0    0 -0.19849452575E+03  0.40843769696E+02  0.21360948719E+03  0.30839833430E+03  0.91718205981E+02 0.  0.
          4    1    3    3  502    0 -0.86837355771E+02 -0.89166581108E+02 -0.20062113269E+02  0.12607098767E+03  0.00000000000E+00 0. -1.
         -3    1    3    3    0  502 -0.35628683042E+03 -0.44735464293E+03  0.66407150742E+02  0.57573986465E+03  0.00000000000E+00 0.  1.
         11    1    5    5    0    0  0.44564817747E+03  0.38307335353E+03 -0.38947465521E+02  0.58895194824E+03  0.00000000000E+00 0.  1.
        -11    1    5    5    0    0  0.19597053448E+03  0.11260410081E+03 -0.54206780657E+02  0.23242742732E+03  0.00000000000E+00 0. -1.
          3    1    6    6  503    0 -0.14130455820E+03  0.67122231314E+02  0.12792339431E+03  0.20208108995E+03  0.00000000000E+00 0. -1.
         -3    1    6    6    0  503 -0.57189967549E+02 -0.26278461617E+02  0.85686092883E+02  0.10631724435E+03  0.00000000000E+00 0.  1.
<mgrwt>
<rscale>  0 0.18239776E+04</rscale>
<asrwt>0</asrwt>
<pdfrwt beam="1">  1        2 0.12806064E+00 0.18239776E+04</pdfrwt>
<pdfrwt beam="2">  1       -1 0.15372222E+00 0.18239776E+04</pdfrwt>
<totfact> 0.11465174E+01</totfact>
</mgrwt>
</event>
<event>
12    6  0.1462228E-007  0.1183079E+04  0.7818608E-02  0.9127798E-01
          2   -1    0    0  501    0  0.00000000000E+00  0.00000000000E+00  0.96710916067E+03  0.96710916067E+03  0.00000000000E+00 0. -1.
         -1   -1    0    0    0  501 -0.00000000000E+00 -0.00000000000E+00 -0.36181941476E+03  0.36181941476E+03  0.00000000000E+00 0.  1.
         24    2    1    2    0    0  0.19408396221E+03  0.36687392632E+02  0.26270167269E+03  0.33731504273E+03  0.75859871144E+02 0.  0.
        254    2    1    2    0    0 -0.19408396221E+03 -0.36687392632E+02  0.34258807322E+03  0.99161353269E+03  0.90934936143E+03 0.  0.
         23    2    4    4    0    0 -0.31333013473E+03 -0.18385142199E+03 -0.18874680078E+03  0.41971435568E+03  0.92507658405E+02 0.  0.
         23    2    4    4    0    0  0.11924617252E+03  0.14716402936E+03  0.53133487400E+03  0.57189917701E+03  0.94207319973E+02 0.  0.
          2    1    3    3  502    0  0.18384027477E+03  0.23778169196E+02  0.20090873059E+03  0.27336233461E+03  0.00000000000E+00 0. -1.
         -1    1    3    3    0  502  0.10243687447E+02  0.12909223436E+02  0.61792942097E+02  0.63952708115E+02  0.00000000000E+00 0.  1.
         11    1    5    5    0    0 -0.13626263794E+03 -0.11215148891E+03 -0.13214578840E+03  0.22047215778E+03  0.00000000000E+00 0. -1.
        -11    1    5    5    0    0 -0.17706749680E+03 -0.71699933074E+02 -0.56601012383E+02  0.19924219791E+03  0.00000000000E+00 0.  1.
          1    1    6    6  503    0  0.57565112134E+01  0.13460655311E+02  0.26399752571E+01  0.14876025414E+02  0.00000000000E+00 0.  1.
         -1    1    6    6    0  503  0.11348966130E+03  0.13370337405E+03  0.52869489875E+03  0.55702315160E+03  0.00000000000E+00 0. -1.
<mgrwt>
<rscale>  0 0.11830788E+04</rscale>
<asrwt>0</asrwt>
<pdfrwt beam="1">  1        2 0.14878602E+00 0.11830788E+04</pdfrwt>
<pdfrwt beam="2">  1       -1 0.55664525E-01 0.11830788E+04</pdfrwt>
<totfact> 0.97299676E+01</totfact>
</mgrwt>
</event>
<event>
12    6  0.1462228E-007  0.3596615E+04  0.7818608E-02  0.8091267E-01
         -1   -1    0    0    0  501 -0.00000000000E+00  0.00000000000E+00  0.11595360519E+04  0.11595360519E+04  0.00000000000E+00 0.  1.
          2   -1    0    0  501    0  0.00000000000E+00 -0.00000000000E+00 -0.27889689516E+04  0.27889689516E+04  0.00000000000E+00 0. -1.
         24    2    1    2    0    0 -0.13106740472E+04 -0.73630157058E+02  0.39475199777E+03  0.13732707362E+04  0.82191952717E+02 0.  0.
        254    2    1    2    0    0  0.13106740472E+04  0.73630157058E+02 -0.20241848975E+04  0.25752342673E+04  0.90067706431E+03 0.  0.
         23    2    4    4    0    0  0.45238980159E+01 -0.21855482431E+03 -0.19674209687E+03  0.30834645651E+03  0.92646681945E+02 0.  0.
         23    2    4    4    0    0  0.13061501492E+04  0.29218498137E+03 -0.18274428006E+04  0.22668878107E+04  0.88503568318E+02 0.  0.
          2    1    3    3  502    0 -0.27902724705E+03  0.17214357630E+02  0.91342103450E+02  0.29410188467E+03  0.00000000000E+00 0. -1.
         -1    1    3    3    0  502 -0.10316468001E+04 -0.90844514688E+02  0.30340989432E+03  0.10791688515E+04  0.00000000000E+00 0.  1.
         11    1    5    5    0    0  0.44477527471E+02 -0.15085799349E+03 -0.14728657957E+03  0.21547556978E+03  0.00000000000E+00 0. -1.
        -11    1    5    5    0    0 -0.39953629455E+02 -0.67696830825E+02 -0.49455517296E+02  0.92870886727E+02  0.00000000000E+00 0.  1.
          4    1    6    6  503    0  0.11809525380E+04  0.29024873176E+03 -0.16514062799E+04  0.20508622393E+04  0.00000000000E+00 0. -1.
         -4    1    6    6    0  503  0.12519761113E+03  0.19362496101E+01 -0.17603652073E+03  0.21602557146E+03  0.00000000000E+00 0.  1.
<mgrwt>
<rscale>  0 0.35966151E+04</rscale>
<asrwt>0</asrwt>
<pdfrwt beam="1">  1        2 0.42907214E+00 0.35966151E+04</pdfrwt>
<pdfrwt beam="2">  1       -1 0.17839016E+00 0.35966151E+04</pdfrwt>
<totfact> 0.46462599E-01</totfact>
</mgrwt>
</event>
<event>
12    6  0.1462228E-007  0.1423687E+04  0.7818608E-02  0.8936849E-01
          2   -1    0    0  501    0  0.00000000000E+00  0.00000000000E+00  0.64409179374E+03  0.64409179374E+03  0.00000000000E+00 0. -1.
         -3   -1    0    0    0  501 -0.00000000000E+00 -0.00000000000E+00 -0.78672169182E+03  0.78672169182E+03  0.00000000000E+00 0.  1.
         24    2    1    2    0    0 -0.43583890267E+02 -0.28803097467E+03  0.27091927278E+03  0.40566849680E+03  0.79424675492E+02 0.  0.
        254    2    1    2    0    0  0.43583890267E+02  0.28803097467E+03 -0.41354917086E+03  0.10251449888E+04  0.89164899674E+03 0.  0.
         23    2    4    4    0    0 -0.16744312301E+03  0.28526857419E+03  0.17993106099E+03  0.38864740165E+03  0.96209444649E+02 0.  0.
         23    2    4    4    0    0  0.21102701328E+03  0.27624004759E+01 -0.59348023186E+03  0.63649758710E+03  0.91489680274E+02 0.  0.
          2    1    3    3  502    0 -0.65289013820E+02 -0.20201613052E+03  0.20523153781E+03  0.29528487335E+03  0.00000000000E+00 0. -1.
         -1    1    3    3    0  502  0.21705123553E+02 -0.86014844143E+02  0.65687734976E+02  0.11038362346E+03  0.00000000000E+00 0.  1.
         11    1    5    5    0    0 -0.80205913673E+01 -0.89223263289E-01 -0.82265544228E+01  0.11489736478E+02  0.00000000000E+00 0.  1.
        -11    1    5    5    0    0 -0.15942253164E+03  0.28535779745E+03  0.18815761541E+03  0.37715766518E+03  0.00000000000E+00 0. -1.
          2    1    6    6  503    0  0.18832796012E+03  0.30631668577E+02 -0.45409535410E+03  0.49255285026E+03  0.00000000000E+00 0. -1.
         -2    1    6    6    0  503  0.22699053160E+02 -0.27869268101E+02 -0.13938487775E+03  0.14394473685E+03  0.00000000000E+00 0.  1.
<mgrwt>
<rscale>  0 0.14236867E+04</rscale>
<asrwt>0</asrwt>
<pdfrwt beam="1">  1        2 0.99091046E-01 0.14236867E+04</pdfrwt>
<pdfrwt beam="2">  1       -3 0.12103411E+00 0.14236867E+04</pdfrwt>
<totfact> 0.15415599E+01</totfact>
</mgrwt>
</event>
<event>
12    6  0.1462228E-007  0.1178891E+04  0.7818608E-02  0.9131537E-01
          2   -1    0    0  501    0  0.00000000000E+00  0.00000000000E+00  0.13000073979E+04  0.13000073979E+04  0.00000000000E+00 0. -1.
         -1   -1    0    0    0  501 -0.00000000000E+00 -0.00000000000E+00 -0.26726456246E+03  0.26726456246E+03  0.00000000000E+00 0.  1.
         24    2    1    2    0    0 -0.19608006545E+02 -0.32856764274E+02 -0.89455795762E+02  0.12528868767E+03  0.78935891610E+02 0.  0.
        254    2    1    2    0    0  0.19608006545E+02  0.32856764274E+02  0.11221986312E+04  0.14419832727E+04  0.90472202913E+03 0.  0.
         23    2    4    4    0    0 -0.73394684665E+02  0.45187995079E+03  0.57113597572E+03  0.73752202877E+03  0.90333662063E+02 0.  0.
         23    2    4    4    0    0  0.93002691210E+02 -0.41902318651E+03  0.55106265553E+03  0.70446124396E+03  0.91463995784E+02 0.  0.
          2    1    3    3  502    0 -0.27396471277E+02  0.13471837321E+02 -0.85024754532E+01  0.31691467748E+02  0.00000000000E+00 0. -1.
         -1    1    3    3    0  502  0.77884647316E+01 -0.46328601596E+02 -0.80953320309E+02  0.93597219925E+02  0.00000000000E+00 0.  1.
         11    1    5    5    0    0 -0.58950972456E+02  0.37678242994E+03  0.52256666084E+03  0.64692822762E+03  0.00000000000E+00 0. -1.
        -11    1    5    5    0    0 -0.14443712209E+02  0.75097520848E+02  0.48569314878E+02  0.90593801155E+02  0.00000000000E+00 0.  1.
          3    1    6    6  503    0  0.76696886520E+02 -0.27095721705E+03  0.29227092281E+03  0.40586022002E+03  0.00000000000E+00 0. -1.
         -3    1    6    6    0  503  0.16305804690E+02 -0.14806596946E+03  0.25879173271E+03  0.29860102394E+03  0.00000000000E+00 0.  1.
<mgrwt>
<rscale>  0 0.11788908E+04</rscale>
<asrwt>0</asrwt>
<pdfrwt beam="1">  1        2 0.20000113E+00 0.11788908E+04</pdfrwt>
<pdfrwt beam="2">  1       -1 0.41117626E-01 0.11788908E+04</pdfrwt>
<totfact> 0.10772918E+02</totfact>
</mgrwt>
</event>
<event>
12    6  0.1462228E-007  0.1320791E+04  0.7818608E-02  0.9013238E-01
         -1   -1    0    0    0  501 -0.00000000000E+00  0.00000000000E+00  0.24496233101E+03  0.24496233101E+03  0.00000000000E+00 0.  1.
          2   -1    0    0  501    0  0.00000000000E+00 -0.00000000000E+00 -0.17803645096E+04  0.17803645096E+04  0.00000000000E+00 0. -1.
         24    2    1    2    0    0  0.14016680843E+03  0.28369486788E+03 -0.65906363165E+03  0.73534937690E+03  0.79021030741E+02 0.  0.
        254    2    1    2    0    0 -0.14016680843E+03 -0.28369486788E+03 -0.87633854695E+03  0.12899774637E+04  0.89215643011E+03 0.  0.
         23    2    4    4    0    0 -0.55381726259E+02 -0.23910998562E+03  0.11779653461E+03  0.28710960302E+03  0.91187607459E+02 0.  0.
         23    2    4    4    0    0 -0.84785082173E+02 -0.44584882257E+02 -0.99413508156E+03  0.10028678607E+04  0.90901395740E+02 0.  0.
          2    1    3    3  502    0  0.10166688113E+03  0.26279262133E+03 -0.55470233990E+03  0.62216621769E+03  0.00000000000E+00 0. -1.
         -1    1    3    3    0  502  0.38499927303E+02  0.20902246542E+02 -0.10436129175E+03  0.11318315921E+03  0.00000000000E+00 0.  1.
         11    1    5    5    0    0 -0.43645778325E+02 -0.39474826382E+02  0.45775775884E+02  0.74556270972E+02  0.00000000000E+00 0. -1.
        -11    1    5    5    0    0 -0.11735947935E+02 -0.19963515924E+03  0.72020758727E+02  0.21255333205E+03  0.00000000000E+00 0.  1.
          3    1    6    6  503    0 -0.63938745689E+00 -0.34606939077E+02 -0.12798504962E+03  0.13258288719E+03  0.00000000000E+00 0. -1.
         -3    1    6    6    0  503 -0.84145694716E+02 -0.99779431809E+01 -0.86615003194E+03  0.87028497351E+03  0.00000000000E+00 0.  1.
<mgrwt>
<rscale>  0 0.13207910E+04</rscale>
<asrwt>0</asrwt>
<pdfrwt beam="1">  1        2 0.27390224E+00 0.13207910E+04</pdfrwt>
<pdfrwt beam="2">  1       -1 0.37686512E-01 0.13207910E+04</pdfrwt>
<totfact> 0.66996279E+01</totfact>
</mgrwt>
</event>
<event>
12    6  0.1462228E-007  0.2060690E+04  0.7818608E-02  0.8578760E-01
          2   -1    0    0  501    0  0.00000000000E+00  0.00000000000E+00  0.25089873229E+04  0.25089873229E+04  0.00000000000E+00 0. -1.
         -1   -1    0    0    0  501 -0.00000000000E+00 -0.00000000000E+00 -0.42312337151E+03  0.42312337151E+03  0.00000000000E+00 0.  1.
         24    2    1    2    0    0 -0.68137500225E+03  0.25964576370E+03  0.25150807607E+03  0.77631708668E+03  0.87886804754E+02 0.  0.
        254    2    1    2    0    0  0.68137500225E+03 -0.25964576370E+03  0.18343558753E+04  0.21557936077E+04  0.86654300845E+03 0.  0.
         23    2    4    4    0    0  0.85258142646E+03 -0.19988114027E+03  0.16947303988E+04  0.19098857523E+04  0.93300072841E+02 0.  0.
         23    2    4    4    0    0 -0.17120642421E+03 -0.59764623430E+02  0.13962547658E+03  0.24590785538E+03  0.89955265122E+02 0.  0.
          4    1    3    3  502    0 -0.39498852575E+03  0.16527027490E+03  0.19066537954E+03  0.46870404969E+03  0.00000000000E+00 0. -1.
         -3    1    3    3    0  502 -0.28638647650E+03  0.94375488801E+02  0.60842696533E+02  0.30761303700E+03  0.00000000000E+00 0.  1.
         11    1    5    5    0    0  0.60460709547E+03 -0.16019233896E+03  0.12887512630E+04  0.14325121791E+04  0.00000000000E+00 0. -1.
        -11    1    5    5    0    0  0.24797433100E+03 -0.39688801311E+02  0.40597913572E+03  0.47737357323E+03  0.00000000000E+00 0.  1.
          1    1    6    6  503    0 -0.17105207284E+03 -0.32357022269E+02  0.11205298277E+03  0.20703057615E+03  0.00000000000E+00 0. -1.
         -1    1    6    6    0  503 -0.15435137349E+00 -0.27407601160E+02  0.27572493809E+02  0.38877279233E+02  0.00000000000E+00 0.  1.
<mgrwt>
<rscale>  0 0.20606903E+04</rscale>
<asrwt>0</asrwt>
<pdfrwt beam="1">  1        2 0.38599804E+00 0.20606903E+04</pdfrwt>
<pdfrwt beam="2">  1       -1 0.65095905E-01 0.20606903E+04</pdfrwt>
<totfact> 0.86632312E+00</totfact>
</mgrwt>
</event>
<event>
12    6  0.1462228E-007  0.2989081E+04  0.7818608E-02  0.8246856E-01
          2   -1    0    0  501    0  0.00000000000E+00  0.00000000000E+00  0.10976318909E+04  0.10976318909E+04  0.00000000000E+00 0. -1.
         -1   -1    0    0    0  501 -0.00000000000E+00 -0.00000000000E+00 -0.20349726525E+04  0.20349726525E+04  0.00000000000E+00 0.  1.
         24    2    1    2    0    0 -0.69410506730E+03 -0.73889504325E+03  0.51880377103E+03  0.11416207024E+04  0.79954648613E+02 0.  0.
        254    2    1    2    0    0  0.69410506730E+03  0.73889504325E+03 -0.14561445326E+04  0.19909838410E+04  0.90327848754E+03 0.  0.
         23    2    4    4    0    0  0.49295038910E+03 -0.38897969108E+02 -0.81996195615E+03  0.96202120009E+03  0.92919544724E+02 0.  0.
         23    2    4    4    0    0  0.20115467820E+03  0.77779301235E+03 -0.63618257644E+03  0.10289626409E+04  0.92793702529E+02 0.  0.
          2    1    3    3  502    0 -0.54741866063E+03 -0.56472814124E+03  0.43639923548E+03  0.89946059182E+03  0.00000000000E+00 0. -1.
         -1    1    3    3    0  502 -0.14668640667E+03 -0.17416690200E+03  0.82404535553E+02  0.24216011054E+03  0.00000000000E+00 0.  1.
         11    1    5    5    0    0  0.16425972669E+02 -0.14992568086E+02 -0.67229474991E+02  0.70812371684E+02  0.00000000000E+00 0. -1.
        -11    1    5    5    0    0  0.47652441643E+03 -0.23905401022E+02 -0.75273248115E+03  0.89120882841E+03  0.00000000000E+00 0.  1.
          3    1    6    6  503    0  0.49502625632E+02  0.10369006942E+03 -0.61908713105E+02  0.13051754364E+03  0.00000000000E+00 0. -1.
         -3    1    6    6    0  503  0.15165205256E+03  0.67410294294E+03 -0.57427386334E+03  0.89844509728E+03  0.00000000000E+00 0.  1.
<mgrwt>
<rscale>  0 0.29890807E+04</rscale>
<asrwt>0</asrwt>
<pdfrwt beam="1">  1        2 0.16886645E+00 0.29890807E+04</pdfrwt>
<pdfrwt beam="2">  1       -1 0.31307271E+00 0.29890807E+04</pdfrwt>
<totfact> 0.57948277E-01</totfact>
</mgrwt>
</event>
<event>
12    6  0.1462228E-007  0.1447056E+04  0.7818608E-02  0.8920444E-01
          2   -1    0    0  501    0  0.00000000000E+00  0.00000000000E+00  0.46181127190E+03  0.46181127190E+03  0.00000000000E+00 0. -1.
         -1   -1    0    0    0  501 -0.00000000000E+00 -0.00000000000E+00 -0.11335644808E+04  0.11335644808E+04  0.00000000000E+00 0.  1.
         24    2    1    2    0    0 -0.27753706886E+03  0.30175472142E+03 -0.37629119843E+03  0.56274251132E+03  0.83673959748E+02 0.  0.
        254    2    1    2    0    0  0.27753706886E+03 -0.30175472142E+03 -0.29546201046E+03  0.10326332414E+04  0.90052810897E+03 0.  0.
         23    2    4    4    0    0  0.27745747271E+03  0.11450716722E+03 -0.47616120515E+03  0.56999634727E+03  0.89843208454E+02 0.  0.
         23    2    4    4    0    0  0.79596155679E-01 -0.41626188864E+03  0.18069919469E+03  0.46263689410E+03  0.90037384175E+02 0.  0.
          4    1    3    3  502    0 -0.15455063834E+03  0.17276256624E+03 -0.26738932676E+03  0.35387830700E+03  0.00000000000E+00 0. -1.
         -3    1    3    3    0  502 -0.12298643053E+03  0.12899215518E+03 -0.10890187167E+03  0.20886420432E+03  0.00000000000E+00 0.  1.
         11    1    5    5    0    0  0.25623026396E+03  0.96593733492E+02 -0.37028873554E+03  0.46054103530E+03  0.00000000000E+00 0. -1.
        -11    1    5    5    0    0  0.21227208744E+02  0.17913433729E+02 -0.10587246960E+03  0.10945531197E+03  0.00000000000E+00 0.  1.
          4    1    6    6  503    0  0.97970225647E+01 -0.34252197956E+03  0.18251288304E+03  0.38823735086E+03  0.00000000000E+00 0. -1.
         -4    1    6    6    0  503 -0.97174264091E+01 -0.73739909087E+02 -0.18136883538E+01  0.74399543235E+02  0.00000000000E+00 0.  1.
<mgrwt>
<rscale>  0 0.14470561E+04</rscale>
<asrwt>0</asrwt>
<pdfrwt beam="1">  1        2 0.71047889E-01 0.14470561E+04</pdfrwt>
<pdfrwt beam="2">  1       -1 0.17439453E+00 0.14470561E+04</pdfrwt>
<totfact> 0.17110363E+01</totfact>
</mgrwt>
</event>
<event>
12    6  0.1462228E-007  0.1463432E+04  0.7818608E-02  0.8909141E-01
         -1   -1    0    0    0  501 -0.00000000000E+00  0.00000000000E+00  0.38258328510E+03  0.38258328510E+03  0.00000000000E+00 0.  1.
          2   -1    0    0  501    0  0.00000000000E+00 -0.00000000000E+00 -0.13994565012E+04  0.13994565012E+04  0.00000000000E+00 0. -1.
         24    2    1    2    0    0  0.24150042581E+03  0.25128531509E+03  0.30379117074E+02  0.35871745447E+03  0.79300417026E+02 0.  0.
        254    2    1    2    0    0 -0.24150042581E+03 -0.25128531509E+03 -0.10472523332E+04  0.14233223318E+04  0.89868918193E+03 0.  0.
         23    2    4    4    0    0  0.66781000102E+02  0.24116679775E+03 -0.67893891049E+03  0.72924545054E+03  0.90662873580E+02 0.  0.
         23    2    4    4    0    0 -0.30828142591E+03 -0.49245211284E+03 -0.36831342266E+03  0.69407688128E+03  0.92419796608E+02 0.  0.
          2    1    3    3  502    0  0.46382369437E+02  0.41395221560E+02  0.36474362005E+02  0.72078205071E+02  0.00000000000E+00 0. -1.
         -1    1    3    3    0  502  0.19511805637E+03  0.20989009353E+03 -0.60952449314E+01  0.28663924940E+03  0.00000000000E+00 0.  1.
         11    1    5    5    0    0  0.74152330258E+02  0.17684345366E+03 -0.58111279399E+03  0.61193484500E+03  0.00000000000E+00 0.  1.
        -11    1    5    5    0    0 -0.73713301565E+01  0.64323344092E+02 -0.97826116505E+02  0.11731060555E+03  0.00000000000E+00 0. -1.
          4    1    6    6  503    0 -0.15194256660E+03 -0.24175061895E+03 -0.12658197871E+03  0.31233460046E+03  0.00000000000E+00 0. -1.
         -4    1    6    6    0  503 -0.15633885931E+03 -0.25070149389E+03 -0.24173144395E+03  0.38174228082E+03  0.00000000000E+00 0.  1.
<mgrwt>
<rscale>  0 0.14634325E+04</rscale>
<asrwt>0</asrwt>
<pdfrwt beam="1">  1        2 0.21530100E+00 0.14634325E+04</pdfrwt>
<pdfrwt beam="2">  1       -1 0.58858967E-01 0.14634325E+04</pdfrwt>
<totfact> 0.46775623E+01</totfact>
</mgrwt>
</event>
<event>
12    6  0.1462228E-007  0.2170649E+04  0.7818608E-02  0.8530745E-01
          2   -1    0    0  501    0  0.00000000000E+00  0.00000000000E+00  0.14281151746E+04  0.14281151746E+04  0.00000000000E+00 0. -1.
         -1   -1    0    0    0  501 -0.00000000000E+00 -0.00000000000E+00 -0.82481388750E+03  0.82481388750E+03  0.00000000000E+00 0.  1.
         24    2    1    2    0    0 -0.70852242118E+03 -0.36404985985E+02 -0.32140865065E+03  0.78300991839E+03  0.80446673445E+02 0.  0.
        254    2    1    2    0    0  0.70852242118E+03  0.36404985985E+02  0.92470993770E+03  0.14699191437E+04  0.89568101226E+03 0.  0.
         23    2    4    4    0    0 -0.12815510557E+03  0.21254793982E+03  0.11327172533E+03  0.28748477096E+03  0.90645749890E+02 0.  0.
         23    2    4    4    0    0  0.83667752675E+03 -0.17614295383E+03  0.81143821237E+03  0.11824343727E+04  0.93077652057E+02 0.  0.
          2    1    3    3  502    0 -0.68522246330E+03 -0.20651481084E+02 -0.31334119206E+03  0.75374996552E+03  0.00000000000E+00 0. -1.
         -1    1    3    3    0  502 -0.23299957880E+02 -0.15753504901E+02 -0.80674585882E+01  0.29259952870E+02  0.00000000000E+00 0.  1.
         11    1    5    5    0    0 -0.12414134212E+03  0.20269722601E+03  0.77256555746E+02  0.24993161797E+03  0.00000000000E+00 0.  1.
        -11    1    5    5    0    0 -0.40137634449E+01  0.98507138071E+01  0.36015169583E+02  0.37553152992E+02  0.00000000000E+00 0. -1.
          3    1    6    6  503    0  0.23398437709E+02 -0.20182019676E+02  0.41196891532E+02  0.51497423987E+02  0.00000000000E+00 0. -1.
         -3    1    6    6    0  503  0.81327908904E+03 -0.15596093416E+03  0.77024132083E+03  0.11309369487E+04  0.00000000000E+00 0.  1.
<mgrwt>
<rscale>  0 0.21706490E+04</rscale>
<asrwt>0</asrwt>
<pdfrwt beam="1">  1        2 0.21971003E+00 0.21706490E+04</pdfrwt>
<pdfrwt beam="2">  1       -1 0.12689444E+00 0.21706490E+04</pdfrwt>
<totfact> 0.78469612E+00</totfact>
</mgrwt>
</event>
<event>
12    6  0.1663041E-007  0.2720511E+04  0.7818608E-02  0.8328381E-01
         -1   -1    0    0    0  501 -0.00000000000E+00  0.00000000000E+00  0.10415432631E+04  0.10415432631E+04  0.00000000000E+00 0.  1.
          2   -1    0    0  501    0  0.00000000000E+00 -0.00000000000E+00 -0.17764931294E+04  0.17764931294E+04  0.00000000000E+00 0. -1.
         24    2    1    2    0    0 -0.96963650034E+03  0.95729059950E+02 -0.10680925099E+04  0.14479516346E+04  0.79895748593E+02 0.  0.
        254    2    1    2    0    0  0.96963650034E+03 -0.95729059950E+02  0.33314264363E+03  0.13700847578E+04  0.90376392215E+03 0.  0.
         23    2    4    4    0    0  0.81156236186E+03 -0.41993433728E+03  0.38203032664E+03  0.99457074661E+03  0.90804651488E+02 0.  0.
         23    2    4    4    0    0  0.15807413848E+03  0.32420527733E+03 -0.48887683006E+02  0.37551401124E+03  0.92326984056E+02 0.  0.
          4    1    3    3  502    0 -0.90106547195E+03  0.85656445595E+02 -0.95884896808E+03  0.13185777774E+04  0.00000000000E+00 0. -1.
         -3    1    3    3    0  502 -0.68571028389E+02  0.10072614355E+02 -0.10924354185E+03  0.12937385721E+03  0.00000000000E+00 0.  1.
         11    1    5    5    0    0  0.44430547706E+03 -0.27618491798E+03  0.19808086755E+03  0.55939386478E+03  0.00000000000E+00 0. -1.
        -11    1    5    5    0    0  0.36725688479E+03 -0.14374941930E+03  0.18394945909E+03  0.43517688183E+03  0.00000000000E+00 0.  1.
          1    1    6    6  503    0  0.54511837338E+02  0.68042927834E+02  0.22687125439E+02  0.90089322891E+02  0.00000000000E+00 0. -1.
         -1    1    6    6    0  503  0.10356230114E+03  0.25616234949E+03 -0.71574808444E+02  0.28542468835E+03  0.00000000000E+00 0.  1.
<mgrwt>
<rscale>  0 0.27205106E+04</rscale>
<asrwt>0</asrwt>
<pdfrwt beam="1">  1        2 0.27330663E+00 0.27205106E+04</pdfrwt>
<pdfrwt beam="2">  1       -1 0.16023743E+00 0.27205106E+04</pdfrwt>
<totfact> 0.25797982E+00</totfact>
</mgrwt>
</event>
<event>
12    6  0.1462228E-007  0.2755710E+04  0.7818608E-02  0.8317152E-01
         -1   -1    0    0    0  501 -0.00000000000E+00  0.00000000000E+00  0.70965648395E+03  0.70965648395E+03  0.00000000000E+00 0.  1.
          2   -1    0    0  501    0  0.00000000000E+00 -0.00000000000E+00 -0.26752167960E+04  0.26752167960E+04  0.00000000000E+00 0. -1.
         24    2    1    2    0    0  0.94568902244E+02  0.62431910745E+03  0.41707099054E+03  0.76085362134E+03  0.78945530356E+02 0.  0.
        254    2    1    2    0    0 -0.94568902244E+02 -0.62431910745E+03 -0.23826313026E+04  0.26240196586E+04  0.89990533915E+03 0.  0.
         23    2    4    4    0    0  0.12667974823E+02  0.48177307471E+02 -0.15098103751E+04  0.15134469394E+04  0.92264506135E+02 0.  0.
         23    2    4    4    0    0 -0.10723687707E+03 -0.67249641492E+03 -0.87282092755E+03  0.11105727193E+04  0.88341481173E+02 0.  0.
          2    1    3    3  502    0  0.69249098220E+02  0.29994894862E+03  0.16496640022E+03  0.34925452407E+03  0.00000000000E+00 0. -1.
         -1    1    3    3    0  502  0.25319804024E+02  0.32437015883E+03  0.25210459032E+03  0.41159909728E+03  0.00000000000E+00 0.  1.
         11    1    5    5    0    0  0.28259980729E+02  0.31991176994E+02 -0.26358589983E+03  0.26701982793E+03  0.00000000000E+00 0. -1.
        -11    1    5    5    0    0 -0.15592005906E+02  0.16186130477E+02 -0.12462244752E+04  0.12464271114E+04  0.00000000000E+00 0.  1.
          3    1    6    6  503    0 -0.11519269746E+03 -0.58901793195E+03 -0.79549552951E+03  0.99650620630E+03  0.00000000000E+00 0. -1.
         -3    1    6    6    0  503  0.79558203940E+01 -0.83478482970E+02 -0.77325398040E+02  0.11406651296E+03  0.00000000000E+00 0.  1.
<mgrwt>
<rscale>  0 0.27557104E+04</rscale>
<asrwt>0</asrwt>
<pdfrwt beam="1">  1        2 0.41157181E+00 0.27557104E+04</pdfrwt>
<pdfrwt beam="2">  1       -1 0.10917792E+00 0.27557104E+04</pdfrwt>
<totfact> 0.21180505E+00</totfact>
</mgrwt>
</event>
<event>
12    6  0.1462228E-007  0.2743529E+04  0.7818608E-02  0.8321018E-01
          2   -1    0    0  501    0  0.00000000000E+00  0.00000000000E+00  0.12466895986E+04  0.12466895986E+04  0.00000000000E+00 0. -1.
         -1   -1    0    0    0  501 -0.00000000000E+00 -0.00000000000E+00 -0.15093874345E+04  0.15093874345E+04  0.00000000000E+00 0.  1.
         24    2    1    2    0    0  0.36436446546E+03  0.21472944363E+03 -0.12684185042E+04  0.13394384253E+04  0.79621578073E+02 0.  0.
        254    2    1    2    0    0 -0.36436446546E+03 -0.21472944363E+03  0.10057206683E+04  0.14166386078E+04  0.90361534117E+03 0.  0.
         23    2    4    4    0    0 -0.56142845099E+03 -0.23248679761E+03  0.10281403540E+04  0.11974603860E+04  0.87102077000E+02 0.  0.
         23    2    4    4    0    0  0.19706398553E+03  0.17757353979E+02 -0.22419685701E+02  0.21917822181E+03  0.91580088438E+02 0.  0.
          2    1    3    3  502    0  0.67753688615E+02  0.68464638733E+02 -0.22178270836E+03  0.24179648220E+03  0.00000000000E+00 0. -1.
         -1    1    3    3    0  502  0.29661077685E+03  0.14626480489E+03 -0.10466357958E+04  0.10976419431E+04  0.00000000000E+00 0.  1.
         11    1    5    5    0    0 -0.51924809506E+03 -0.18842861460E+03  0.91079072807E+03  0.10652059319E+04  0.00000000000E+00 0.  1.
        -11    1    5    5    0    0 -0.42180355930E+02 -0.44058183002E+02  0.11734962597E+03  0.13225445411E+03  0.00000000000E+00 0. -1.
          3    1    6    6  503    0  0.76081503062E+02  0.45546302839E+02 -0.32955978876E+02  0.94598928927E+02  0.00000000000E+00 0. -1.
         -3    1    6    6    0  503  0.12098248247E+03 -0.27788948860E+02  0.10536293175E+02  0.12457929289E+03  0.00000000000E+00 0.  1.
<mgrwt>
<rscale>  0 0.27435288E+04</rscale>
<asrwt>0</asrwt>
<pdfrwt beam="1">  1        2 0.19179840E+00 0.27435288E+04</pdfrwt>
<pdfrwt beam="2">  1       -1 0.23221345E+00 0.27435288E+04</pdfrwt>
<totfact> 0.16149028E+00</totfact>
</mgrwt>
</event>
<event>
12    6  0.1462228E-007  0.2984287E+04  0.7818608E-02  0.8248232E-01
         -1   -1    0    0    0  501 -0.00000000000E+00  0.00000000000E+00  0.12619470288E+04  0.12619470288E+04  0.00000000000E+00 0.  1.
          2   -1    0    0  501    0  0.00000000000E+00 -0.00000000000E+00 -0.17643305550E+04  0.17643305550E+04  0.00000000000E+00 0. -1.
         24    2    1    2    0    0  0.53838203196E+02 -0.70206846918E+03  0.94692497496E+03  0.11826946275E+04  0.79378751273E+02 0.  0.
        254    2    1    2    0    0 -0.53838203196E+02  0.70206846918E+03 -0.14493085011E+04  0.18435829564E+04  0.89582604222E+03 0.  0.
         23    2    4    4    0    0 -0.31581659172E+03  0.21917013712E+02 -0.17364853078E+03  0.37158085063E+03  0.87738481979E+02 0.  0.
         23    2    4    4    0    0  0.26197838852E+03  0.68015145547E+03 -0.12756599704E+04  0.14720021057E+04  0.90791854413E+02 0.  0.
          2    1    3    3  502    0  0.15774009167E+02 -0.47008398371E+03  0.57738134622E+03  0.74471268961E+03  0.00000000000E+00 0. -1.
         -1    1    3    3    0  502  0.38064194030E+02 -0.23198448546E+03  0.36954362874E+03  0.43798193788E+03  0.00000000000E+00 0.  1.
         11    1    5    5    0    0 -0.23037650105E+03 -0.17562731107E+02 -0.14668047861E+03  0.27367306145E+03  0.00000000000E+00 0.  1.
        -11    1    5    5    0    0 -0.85440090667E+02  0.39479744819E+02 -0.26968052176E+02  0.97907789181E+02  0.00000000000E+00 0. -1.
          4    1    6    6  503    0  0.25437755570E+03  0.57158775727E+03 -0.10819771297E+04  0.12498379952E+04  0.00000000000E+00 0. -1.
         -4    1    6    6    0  503  0.76008328214E+01  0.10856369819E+03 -0.19368284070E+03  0.22216411053E+03  0.00000000000E+00 0.  1.
<mgrwt>
<rscale>  0 0.29842866E+04</rscale>
<asrwt>0</asrwt>
<pdfrwt beam="1">  1        2 0.27143547E+00 0.29842866E+04</pdfrwt>
<pdfrwt beam="2">  1       -1 0.19414570E+00 0.29842866E+04</pdfrwt>
<totfact> 0.14560681E+00</totfact>
</mgrwt>
</event>
<event>
12    6  0.1462228E-007  0.1713019E+04  0.7818608E-02  0.8753974E-01
         -1   -1    0    0    0  501 -0.00000000000E+00  0.00000000000E+00  0.42474649480E+03  0.42474649480E+03  0.00000000000E+00 0.  1.
          2   -1    0    0  501    0  0.00000000000E+00 -0.00000000000E+00 -0.17271669845E+04  0.17271669845E+04  0.00000000000E+00 0. -1.
         24    2    1    2    0    0 -0.57384004166E+03  0.22240759620E+03 -0.52774776847E+03  0.81454566898E+03  0.78799793594E+02 0.  0.
        254    2    1    2    0    0  0.57384004166E+03 -0.22240759620E+03 -0.77467272125E+03  0.13373678103E+04  0.89982070593E+03 0.  0.
         23    2    4    4    0    0  0.62388987472E+03 -0.46170735388E+03 -0.39428433083E+03  0.87539399806E+03  0.91881782224E+02 0.  0.
         23    2    4    4    0    0 -0.50049833058E+02  0.23929975768E+03 -0.38038839042E+03  0.46197381228E+03  0.94631473854E+02 0.  0.
          4    1    3    3  502    0 -0.50171671883E+03  0.19606512095E+03 -0.42424286179E+03  0.68566989389E+03  0.00000000000E+00 0. -1.
         -3    1    3    3    0  502 -0.72123322829E+02  0.26342475245E+02 -0.10350490668E+03  0.12887577509E+03  0.00000000000E+00 0.  1.
         11    1    5    5    0    0  0.43370508087E+03 -0.26877104224E+03 -0.27119864406E+03  0.57782927830E+03  0.00000000000E+00 0.  1.
        -11    1    5    5    0    0  0.19018479384E+03 -0.19293631164E+03 -0.12308568677E+03  0.29756471976E+03  0.00000000000E+00 0. -1.
          2    1    6    6  503    0 -0.74077036249E+01 -0.28676083045E+01 -0.47261627279E+02  0.47924510049E+02  0.00000000000E+00 0. -1.
         -2    1    6    6    0  503 -0.42642129434E+02  0.24216736598E+03 -0.33312676315E+03  0.41404930223E+03  0.00000000000E+00 0.  1.
<mgrwt>
<rscale>  0 0.17130185E+04</rscale>
<asrwt>0</asrwt>
<pdfrwt beam="1">  1        2 0.26571800E+00 0.17130185E+04</pdfrwt>
<pdfrwt beam="2">  1       -1 0.65345614E-01 0.17130185E+04</pdfrwt>
<totfact> 0.24347763E+01</totfact>
</mgrwt>
</event>
<event>
12    6  0.1462228E-007  0.2746194E+04  0.7818608E-02  0.8320170E-01
         -1   -1    0    0    0  501 -0.00000000000E+00  0.00000000000E+00  0.25918545745E+04  0.25918545745E+04  0.00000000000E+00 0.  1.
          2   -1    0    0  501    0  0.00000000000E+00 -0.00000000000E+00 -0.72743124177E+03  0.72743124177E+03  0.00000000000E+00 0. -1.
         24    2    1    2    0    0 -0.21213862521E+03  0.55417358184E+03 -0.46022541337E+03  0.75622661345E+03  0.89219418609E+02 0.  0.
        254    2    1    2    0    0  0.21213862521E+03 -0.55417358184E+03  0.23246487461E+04  0.25630592028E+04  0.90175913041E+03 0.  0.
         23    2    4    4    0    0  0.27755600988E+03 -0.30350756606E+02  0.17609295342E+04  0.17853672172E+04  0.93299351079E+02 0.  0.
         23    2    4    4    0    0 -0.65417384675E+02 -0.52382282524E+03  0.56371921196E+03  0.77769198564E+03  0.91409453184E+02 0.  0.
          4    1    3    3  502    0 -0.12964515955E+03  0.39584450007E+03 -0.27593395846E+03  0.49964015558E+03  0.00000000000E+00 0. -1.
         -1    1    3    3    0  502 -0.82493465656E+02  0.15832908177E+03 -0.18429145491E+03  0.25658645787E+03  0.00000000000E+00 0.  1.
         11    1    5    5    0    0  0.10128573791E+03  0.58962297244E+01  0.40345561661E+03  0.41601682755E+03  0.00000000000E+00 0. -1.
        -11    1    5    5    0    0  0.17627027197E+03 -0.36246986330E+02  0.13574739176E+04  0.13693503897E+04  0.00000000000E+00 0.  1.
          4    1    6    6  503    0 -0.17602061416E+02 -0.59857134669E+02  0.31099119627E+02  0.69712727521E+02  0.00000000000E+00 0. -1.
         -4    1    6    6    0  503 -0.47815323259E+02 -0.46396569057E+03  0.53262009233E+03  0.70797925812E+03  0.00000000000E+00 0.  1.
<mgrwt>
<rscale>  0 0.27461945E+04</rscale>
<asrwt>0</asrwt>
<pdfrwt beam="1">  1        2 0.11191250E+00 0.27461945E+04</pdfrwt>
<pdfrwt beam="2">  1       -1 0.39874685E+00 0.27461945E+04</pdfrwt>
<totfact> 0.28357157E-01</totfact>
</mgrwt>
</event>
<event>
12    6  0.1462228E-007  0.2430680E+04  0.7818608E-02  0.8428106E-01
         -1   -1    0    0    0  501 -0.00000000000E+00  0.00000000000E+00  0.46832656788E+03  0.46832656788E+03  0.00000000000E+00 0.  1.
          2   -1    0    0  501    0  0.00000000000E+00 -0.00000000000E+00 -0.31538921208E+04  0.31538921208E+04  0.00000000000E+00 0. -1.
         24    2    1    2    0    0 -0.71144200128E+03  0.45929510820E+03 -0.21084510198E+04  0.22735726071E+04  0.80405096178E+02 0.  0.
        254    2    1    2    0    0  0.71144200128E+03 -0.45929510820E+03 -0.57711453312E+03  0.13486460815E+04  0.87674588751E+03 0.  0.
         23    2    4    4    0    0  0.68285892431E+03 -0.15722952318E+03 -0.71307320546E+03  0.10039045747E+04  0.91288363589E+02 0.  0.
         23    2    4    4    0    0  0.28583076970E+02 -0.30206558503E+03  0.13595867234E+03  0.34474150681E+03  0.91111667667E+02 0.  0.
          2    1    3    3  502    0 -0.61785666324E+03  0.42570824743E+03 -0.18933715581E+04  0.20366222589E+04  0.00000000000E+00 0. -1.
         -1    1    3    3    0  502 -0.93585338043E+02  0.33586860772E+02 -0.21507946167E+03  0.23695034827E+03  0.00000000000E+00 0.  1.
         11    1    5    5    0    0  0.68350361413E+02 -0.14491890536E+02 -0.11524488662E+03  0.13477080800E+03  0.00000000000E+00 0.  1.
        -11    1    5    5    0    0  0.61450856290E+03 -0.14273763264E+03 -0.59782831885E+03  0.86913376672E+03  0.00000000000E+00 0. -1.
          2    1    6    6  503    0  0.19300320563E+02 -0.21231149769E+03  0.13892846588E+03  0.25445980637E+03  0.00000000000E+00 0. -1.
         -2    1    6    6    0  503  0.92827564075E+01 -0.89754087339E+02 -0.29697935438E+01  0.90281700440E+02  0.00000000000E+00 0.  1.
<mgrwt>
<rscale>  0 0.24306801E+04</rscale>
<asrwt>0</asrwt>
<pdfrwt beam="1">  1        2 0.48521415E+00 0.24306801E+04</pdfrwt>
<pdfrwt beam="2">  1       -1 0.72050244E-01 0.24306801E+04</pdfrwt>
<totfact> 0.27572148E+00</totfact>
</mgrwt>
</event>
<event>
12    6  0.1462228E-007  0.1192537E+04  0.7818608E-02  0.9119414E-01
          2   -1    0    0  501    0  0.00000000000E+00  0.00000000000E+00  0.23167006122E+04  0.23167006122E+04  0.00000000000E+00 0. -1.
         -1   -1    0    0    0  501 -0.00000000000E+00 -0.00000000000E+00 -0.15346666892E+03  0.15346666892E+03  0.00000000000E+00 0.  1.
         24    2    1    2    0    0 -0.97551678993E+02 -0.19995200311E+03  0.66940851623E+03  0.70998329105E+03  0.80444877680E+02 0.  0.
        254    2    1    2    0    0  0.97551678993E+02  0.19995200311E+03  0.14938254271E+04  0.17601839901E+04  0.90401113865E+03 0.  0.
         23    2    4    4    0    0  0.76722051365E+02 -0.35170646035E+03  0.58858211330E+03  0.69611091725E+03  0.92508365041E+02 0.  0.
         23    2    4    4    0    0  0.20829627628E+02  0.55165846346E+03  0.90524331377E+03  0.10640730728E+04  0.89582997995E+02 0.  0.
          2    1    3    3  502    0 -0.76961494616E+02 -0.18008110850E+03  0.47980526562E+03  0.51823293046E+03  0.00000000000E+00 0. -1.
         -1    1    3    3    0  502 -0.20590184377E+02 -0.19870894607E+02  0.18960325061E+03  0.19175036059E+03  0.00000000000E+00 0.  1.
         11    1    5    5    0    0  0.95637106962E+02 -0.30419970294E+03  0.52814065548E+03  0.61694121881E+03  0.00000000000E+00 0. -1.
        -11    1    5    5    0    0 -0.18915055597E+02 -0.47506757406E+02  0.60441457821E+02  0.79169698439E+02  0.00000000000E+00 0.  1.
          1    1    6    6  503    0  0.30131987165E+02  0.49383779271E+03  0.85032892433E+03  0.98379011060E+03  0.00000000000E+00 0. -1.
         -1    1    6    6    0  503 -0.93023595371E+01  0.57820670753E+02  0.54914389436E+02  0.80282962242E+02  0.00000000000E+00 0.  1.
<mgrwt>
<rscale>  0 0.11925373E+04</rscale>
<asrwt>0</asrwt>
<pdfrwt beam="1">  1        2 0.35641545E+00 0.11925373E+04</pdfrwt>
<pdfrwt beam="2">  1       -1 0.23610258E-01 0.11925373E+04</pdfrwt>
<totfact> 0.77386162E+01</totfact>
</mgrwt>
</event>
<event>
12    6  0.1462228E-007  0.1549418E+04  0.7818608E-02  0.8852239E-01
          2   -1    0    0  501    0  0.00000000000E+00  0.00000000000E+00  0.20833126820E+04  0.20833126820E+04  0.00000000000E+00 0. -1.
         -1   -1    0    0    0  501 -0.00000000000E+00 -0.00000000000E+00 -0.28808653897E+03  0.28808653897E+03  0.00000000000E+00 0.  1.
         24    2    1    2    0    0  0.81598587351E+01  0.22236844859E+03  0.12881955963E+04  0.13097105787E+04  0.79872368932E+02 0.  0.
        254    2    1    2    0    0 -0.81598587351E+01 -0.22236844859E+03  0.50703054665E+03  0.10616886422E+04  0.90586339345E+03 0.  0.
         23    2    4    4    0    0 -0.26134121691E+03  0.23909463258E+03  0.34714688438E+03  0.50399931786E+03  0.89659790759E+02 0.  0.
         23    2    4    4    0    0  0.25318135818E+03 -0.46146308116E+03  0.15988366226E+03  0.55768932437E+03  0.91682177410E+02 0.  0.
          4    1    3    3  502    0 -0.48322002794E+01  0.86301412004E+02  0.72646884140E+03  0.73159296155E+03  0.00000000000E+00 0. -1.
         -3    1    3    3    0  502  0.12992059015E+02  0.13606703658E+03  0.56172675494E+03  0.57811761715E+03  0.00000000000E+00 0.  1.
         11    1    5    5    0    0  0.26323751465E+01 -0.44746846959E+01  0.10530042160E+02  0.11740272141E+02  0.00000000000E+00 0.  1.
        -11    1    5    5    0    0 -0.26397359206E+03  0.24356931728E+03  0.33661684222E+03  0.49225904572E+03  0.00000000000E+00 0. -1.
          3    1    6    6  503    0  0.22789063930E+03 -0.36509017778E+03  0.15665167631E+03  0.45800079594E+03  0.00000000000E+00 0. -1.
         -3    1    6    6    0  503  0.25290718882E+02 -0.96372903385E+02  0.32319859561E+01  0.99688528436E+02  0.00000000000E+00 0.  1.
<mgrwt>
<rscale>  0 0.15494184E+04</rscale>
<asrwt>0</asrwt>
<pdfrwt beam="1">  1        2 0.32050963E+00 0.15494184E+04</pdfrwt>
<pdfrwt beam="2">  1       -1 0.44321007E-01 0.15494184E+04</pdfrwt>
<totfact> 0.33182163E+01</totfact>
</mgrwt>
</event>
<event>
12    6  0.1462228E-007  0.1388061E+04  0.7818608E-02  0.8962506E-01
          2   -1    0    0  501    0  0.00000000000E+00  0.00000000000E+00  0.11383494062E+04  0.11383494062E+04  0.00000000000E+00 0. -1.
         -1   -1    0    0    0  501 -0.00000000000E+00 -0.00000000000E+00 -0.42313759268E+03  0.42313759268E+03  0.00000000000E+00 0.  1.
         24    2    1    2    0    0  0.70618456409E+02 -0.69517398048E+02 -0.22462525043E+03  0.25496638879E+03  0.68787508054E+02 0.  0.
        254    2    1    2    0    0 -0.70618456409E+02  0.69517398048E+02  0.93983706391E+03  0.13065206100E+04  0.90215451159E+03 0.  0.
         23    2    4    4    0    0  0.22730406645E+02 -0.19466616773E+03 -0.90794393052E+02  0.23434303635E+03  0.90892511434E+02 0.  0.
         23    2    4    4    0    0 -0.93348863054E+02  0.26418356577E+03  0.10306314570E+04  0.10721775737E+04  0.94109419312E+02 0.  0.
          2    1    3    3  502    0  0.68013789040E+02 -0.55869127578E+02 -0.11680946648E+03  0.14625897024E+03  0.00000000000E+00 0. -1.
         -1    1    3    3    0  502  0.26046673695E+01 -0.13648270470E+02 -0.10781578396E+03  0.10870741856E+03  0.00000000000E+00 0.  1.
         11    1    5    5    0    0 -0.67183917564E+01  0.83152620760E+01 -0.21684003177E+01  0.10907902233E+02  0.00000000000E+00 0. -1.
        -11    1    5    5    0    0  0.29448798401E+02 -0.20298142980E+03 -0.88625992734E+02  0.22343513412E+03  0.00000000000E+00 0.  1.
          4    1    6    6  503    0 -0.27470088197E+02  0.15219311232E+03  0.41249316116E+03  0.44053144858E+03  0.00000000000E+00 0. -1.
         -4    1    6    6    0  503 -0.65878774857E+02  0.11199045345E+03  0.61813829580E+03  0.63164612512E+03  0.00000000000E+00 0.  1.
<mgrwt>
<rscale>  0 0.13880611E+04</rscale>
<asrwt>0</asrwt>
<pdfrwt beam="1">  1        2 0.17513068E+00 0.13880611E+04</pdfrwt>
<pdfrwt beam="2">  1       -1 0.65098092E-01 0.13880611E+04</pdfrwt>
<totfact> 0.54849296E+01</totfact>
</mgrwt>
</event>
<event>
12    6  0.1462228E-007  0.1729595E+04  0.7818608E-02  0.8744663E-01
         -1   -1    0    0    0  501 -0.00000000000E+00  0.00000000000E+00  0.43192010681E+03  0.43192010681E+03  0.00000000000E+00 0.  1.
          2   -1    0    0  501    0  0.00000000000E+00 -0.00000000000E+00 -0.17315122010E+04  0.17315122010E+04  0.00000000000E+00 0. -1.
         24    2    1    2    0    0 -0.59927336157E+03 -0.16078689972E+03 -0.53752668113E+03  0.82480675613E+03  0.79939120727E+02 0.  0.
        254    2    1    2    0    0  0.59927336157E+03  0.16078689972E+03 -0.76206541303E+03  0.13386255516E+04  0.90895197056E+03 0.  0.
         23    2    4    4    0    0  0.57311357887E+03  0.45846205630E+03 -0.34059877780E+03  0.81385994403E+03  0.87828524480E+02 0.  0.
         23    2    4    4    0    0  0.26159782703E+02 -0.29767515658E+03 -0.42146663523E+03  0.52476560762E+03  0.91923801311E+02 0.  0.
          2    1    3    3  502    0 -0.54789850170E+03 -0.16943500929E+03 -0.49292416692E+03  0.75622432179E+03  0.00000000000E+00 0. -1.
         -1    1    3    3    0  502 -0.51374859868E+02  0.86481095684E+01 -0.44602514208E+02  0.68582434334E+02  0.00000000000E+00 0.  1.
         11    1    5    5    0    0  0.13778966292E+03  0.15729128594E+03 -0.11258788264E+03  0.23749225495E+03  0.00000000000E+00 0.  1.
        -11    1    5    5    0    0  0.43532391594E+03  0.30117077036E+03 -0.22801089516E+03  0.57636768908E+03  0.00000000000E+00 0. -1.
          1    1    6    6  503    0  0.45060109107E+02 -0.19997836217E+03 -0.22398245050E+03  0.30362789217E+03  0.00000000000E+00 0. -1.
         -1    1    6    6    0  503 -0.18900326404E+02 -0.97696794414E+02 -0.19748418473E+03  0.22113771545E+03  0.00000000000E+00 0.  1.
<mgrwt>
<rscale>  0 0.17295953E+04</rscale>
<asrwt>0</asrwt>
<pdfrwt beam="1">  1        2 0.26638650E+00 0.17295953E+04</pdfrwt>
<pdfrwt beam="2">  1       -1 0.66449246E-01 0.17295953E+04</pdfrwt>
<totfact> 0.23373818E+01</totfact>
</mgrwt>
</event>
<event>
12    6  0.1462228E-007  0.2060827E+04  0.7818608E-02  0.8578698E-01
         -1   -1    0    0    0  501 -0.00000000000E+00  0.00000000000E+00  0.75169219156E+03  0.75169219156E+03  0.00000000000E+00 0.  1.
          2   -1    0    0  501    0  0.00000000000E+00 -0.00000000000E+00 -0.14124823287E+04  0.14124823287E+04  0.00000000000E+00 0. -1.
         24    2    1    2    0    0 -0.57188591343E+03 -0.60686035623E+03 -0.18029936243E+03  0.85672101284E+03  0.78294596248E+02 0.  0.
        254    2    1    2    0    0  0.57188591343E+03  0.60686035623E+03 -0.48049077469E+03  0.13074535074E+04  0.88500299408E+03 0.  0.
         23    2    4    4    0    0  0.53840223306E+03  0.51412343360E+03  0.58193789517E+02  0.75224519517E+03  0.91029923547E+02 0.  0.
         23    2    4    4    0    0  0.33483680373E+02  0.92736922635E+02 -0.53868456421E+03  0.55520831224E+03  0.91399762545E+02 0.  0.
          2    1    3    3  502    0 -0.48417248352E+03 -0.46872037653E+03 -0.14313069060E+03  0.68891812269E+03  0.00000000000E+00 0. -1.
         -1    1    3    3    0  502 -0.87713429911E+02 -0.13813997970E+03 -0.37168671835E+02  0.16780289015E+03  0.00000000000E+00 0.  1.
         11    1    5    5    0    0  0.52369861740E+03  0.49746451228E+03  0.72310893083E+02  0.72592013893E+03  0.00000000000E+00 0. -1.
        -11    1    5    5    0    0  0.14703615652E+02  0.16658921320E+02 -0.14117103567E+02  0.26325056237E+02  0.00000000000E+00 0.  1.
          1    1    6    6  503    0  0.50720840644E+02  0.62542478558E+02 -0.48222652342E+03  0.48890345181E+03  0.00000000000E+00 0. -1.
         -1    1    6    6    0  503 -0.17237160271E+02  0.30194444077E+02 -0.56458040787E+02  0.66304860431E+02  0.00000000000E+00 0.  1.
<mgrwt>
<rscale>  0 0.20608270E+04</rscale>
<asrwt>0</asrwt>
<pdfrwt beam="1">  1        2 0.21730497E+00 0.20608270E+04</pdfrwt>
<pdfrwt beam="2">  1       -1 0.11564495E+00 0.20608270E+04</pdfrwt>
<totfact> 0.10156318E+01</totfact>
</mgrwt>
</event>
<event>
12    6  0.1462228E-007  0.1089749E+04  0.7818608E-02  0.9215241E-01
         -1   -1    0    0    0  501 -0.00000000000E+00  0.00000000000E+00  0.13379337975E+03  0.13379337975E+03  0.00000000000E+00 0.  1.
          2   -1    0    0  501    0  0.00000000000E+00 -0.00000000000E+00 -0.22190071962E+04  0.22190071962E+04  0.00000000000E+00 0. -1.
         24    2    1    2    0    0 -0.10891072216E+03  0.11382196301E+03 -0.29038118307E+03  0.33915771155E+03  0.76744622981E+02 0.  0.
        254    2    1    2    0    0  0.10891072216E+03 -0.11382196301E+03 -0.17948326334E+04  0.20136428644E+04  0.89917541048E+03 0.  0.
         23    2    4    4    0    0  0.45079449609E+03  0.11709512196E+03 -0.11392693923E+04  0.12341963045E+04  0.91535919066E+02 0.  0.
         23    2    4    4    0    0 -0.34188377394E+03 -0.23091708496E+03 -0.65556324105E+03  0.77944655988E+03  0.86985985568E+02 0.  0.
          2    1    3    3  502    0  0.73273786806E+01  0.22801862517E+01 -0.44797380259E+02  0.45449917555E+02  0.00000000000E+00 0. -1.
         -1    1    3    3    0  502 -0.11623810084E+03  0.11154177675E+03 -0.24558380281E+03  0.29370779399E+03  0.00000000000E+00 0.  1.
         11    1    5    5    0    0  0.43706131190E+03  0.12461084850E+03 -0.10588077078E+04  0.11522257661E+04  0.00000000000E+00 0. -1.
        -11    1    5    5    0    0  0.13733184196E+02 -0.75157265415E+01 -0.80461684534E+02  0.81970538437E+02  0.00000000000E+00 0.  1.
          3    1    6    6  503    0 -0.26391580004E+03 -0.17358229251E+03 -0.42617804295E+03  0.53048099502E+03  0.00000000000E+00 0. -1.
         -3    1    6    6    0  503 -0.77967973897E+02 -0.57334792452E+02 -0.22938519811E+03  0.24896556487E+03  0.00000000000E+00 0.  1.
<mgrwt>
<rscale>  0 0.10897495E+04</rscale>
<asrwt>0</asrwt>
<pdfrwt beam="1">  1        2 0.34138570E+00 0.10897495E+04</pdfrwt>
<pdfrwt beam="2">  1       -1 0.20583598E-01 0.10897495E+04</pdfrwt>
<totfact> 0.11165971E+02</totfact>
</mgrwt>
</event>
<event>
12    6  0.1462228E-007  0.1827271E+04  0.7818608E-02  0.8691930E-01
         -1   -1    0    0    0  501 -0.00000000000E+00  0.00000000000E+00  0.62572346139E+03  0.62572346139E+03  0.00000000000E+00 0.  1.
          2   -1    0    0  501    0  0.00000000000E+00 -0.00000000000E+00 -0.13340240933E+04  0.13340240933E+04  0.00000000000E+00 0. -1.
         24    2    1    2    0    0 -0.18373632098E+03 -0.52623231089E+03 -0.71173392039E+03  0.90752271423E+03  0.79704596745E+02 0.  0.
        254    2    1    2    0    0  0.18373632098E+03  0.52623231089E+03  0.34332885236E+01  0.10522248404E+04  0.89246055746E+03 0.  0.
         23    2    4    4    0    0  0.50118178270E+03  0.49878918478E+03 -0.59105580089E+02  0.71534463008E+03  0.90833033734E+02 0.  0.
         23    2    4    4    0    0 -0.31744546172E+03  0.27443126110E+02  0.62538868612E+02  0.33688021033E+03  0.89735275597E+02 0.  0.
          2    1    3    3  502    0 -0.17321297029E+03 -0.50860934731E+03 -0.65493106071E+03  0.84712507667E+03  0.00000000000E+00 0. -1.
         -1    1    3    3    0  502 -0.10523350688E+02 -0.17622963585E+02 -0.56802859674E+02  0.60397637556E+02  0.00000000000E+00 0.  1.
         11    1    5    5    0    0  0.46934587128E+03  0.43357331947E+03 -0.39547886492E+02  0.64018388418E+03  0.00000000000E+00 0.  1.
        -11    1    5    5    0    0  0.31835911421E+02  0.65215865314E+02 -0.19557693597E+02  0.75160745895E+02  0.00000000000E+00 0. -1.
          3    1    6    6  503    0 -0.65661289368E+02 -0.25874356019E+02  0.32719227029E+02  0.77790970158E+02  0.00000000000E+00 0. -1.
         -3    1    6    6    0  503 -0.25178417235E+03  0.53317482130E+02  0.29819641584E+02  0.25908924017E+03  0.00000000000E+00 0.  1.
<mgrwt>
<rscale>  0 0.18272714E+04</rscale>
<asrwt>0</asrwt>
<pdfrwt beam="1">  1        2 0.20523447E+00 0.18272714E+04</pdfrwt>
<pdfrwt beam="2">  1       -1 0.96265149E-01 0.18272714E+04</pdfrwt>
<totfact> 0.17627537E+01</totfact>
</mgrwt>
</event>
<event>
12    6  0.1462228E-007  0.1238833E+04  0.7818608E-02  0.9079529E-01
         -1   -1    0    0    0  501 -0.00000000000E+00  0.00000000000E+00  0.32126466797E+03  0.32126466797E+03  0.00000000000E+00 0.  1.
          2   -1    0    0  501    0  0.00000000000E+00 -0.00000000000E+00 -0.11942691862E+04  0.11942691862E+04  0.00000000000E+00 0. -1.
         24    2    1    2    0    0  0.83943784254E+02 -0.25438872447E+03 -0.33045902160E+03  0.43292326126E+03  0.80369167765E+02 0.  0.
        254    2    1    2    0    0 -0.83943784254E+02  0.25438872447E+03 -0.54254549666E+03  0.10826105929E+04  0.89773598454E+03 0.  0.
         23    2    4    4    0    0 -0.48080605626E+03  0.88407986453E+02 -0.28712422590E+03  0.57423396398E+03  0.91180526892E+02 0.  0.
         23    2    4    4    0    0  0.39686227201E+03  0.16598073802E+03 -0.25542127076E+03  0.50837662896E+03  0.90318896038E+02 0.  0.
          4    1    3    3  502    0  0.72697050042E+02 -0.25767337641E+03 -0.31987949717E+03  0.41713705506E+03  0.00000000000E+00 0. -1.
         -3    1    3    3    0  502  0.11246734212E+02  0.32846519425E+01 -0.10579524436E+02  0.15786206197E+02  0.00000000000E+00 0.  1.
         11    1    5    5    0    0 -0.10105358791E+03  0.41092569296E+02 -0.10107574797E+03  0.14871695838E+03  0.00000000000E+00 0. -1.
        -11    1    5    5    0    0 -0.37975246835E+03  0.47315417157E+02 -0.18604847793E+03  0.42551700560E+03  0.00000000000E+00 0.  1.
          2    1    6    6  503    0  0.28321993814E+03  0.88566529574E+02 -0.13672707772E+03  0.32672902734E+03  0.00000000000E+00 0. -1.
         -2    1    6    6    0  503  0.11364233387E+03  0.77414208444E+02 -0.11869419303E+03  0.18164760162E+03  0.00000000000E+00 0.  1.
<mgrwt>
<rscale>  0 0.12388325E+04</rscale>
<asrwt>0</asrwt>
<pdfrwt beam="1">  1        2 0.18373372E+00 0.12388325E+04</pdfrwt>
<pdfrwt beam="2">  1       -1 0.49425335E-01 0.12388325E+04</pdfrwt>
<totfact> 0.87873671E+01</totfact>
</mgrwt>
</event>
<event>
12    6  0.1462228E-007  0.1573228E+04  0.7818608E-02  0.8837166E-01
          2   -1    0    0  501    0  0.00000000000E+00  0.00000000000E+00  0.18953635379E+04  0.18953635379E+04  0.00000000000E+00 0. -1.
         -1   -1    0    0    0  501 -0.00000000000E+00 -0.00000000000E+00 -0.32646059056E+03  0.32646059056E+03  0.00000000000E+00 0.  1.
         24    2    1    2    0    0 -0.18463342412E+03  0.41685585474E+03  0.54525769723E+03  0.71524902064E+03  0.80105556590E+02 0.  0.
        254    2    1    2    0    0  0.18463342412E+03 -0.41685585474E+03  0.10236452501E+04  0.15065751078E+04  0.10070057857E+04 0.  0.
         23    2    4    4    0    0  0.50502771621E+03 -0.51655192610E+03  0.52264110368E+03  0.89634100223E+03  0.91621954349E+02 0.  0.
         23    2    4    4    0    0 -0.32039429209E+03  0.99696071359E+02  0.50100414642E+03  0.61023410558E+03  0.93748065794E+02 0.  0.
          4    1    3    3  502    0 -0.17935932800E+03  0.41379743625E+03  0.54696201109E+03  0.70891856257E+03  0.00000000000E+00 0. -1.
         -3    1    3    3    0  502 -0.52740961208E+01  0.30584184946E+01 -0.17043138574E+01  0.63304580643E+01  0.00000000000E+00 0.  1.
         11    1    5    5    0    0  0.14630869769E+03 -0.18538044585E+03  0.21436916952E+03  0.31894558401E+03  0.00000000000E+00 0. -1.
        -11    1    5    5    0    0  0.35871901852E+03 -0.33117148025E+03  0.30827193417E+03  0.57739541821E+03  0.00000000000E+00 0.  1.
          3    1    6    6  503    0 -0.28459850615E+03  0.11800420940E+03  0.44768878693E+03  0.54345795889E+03  0.00000000000E+00 0. -1.
         -3    1    6    6    0  503 -0.35795785937E+02 -0.18308138043E+02  0.53315359488E+02  0.66776146690E+02  0.00000000000E+00 0.  1.
<mgrwt>
<rscale>  0 0.15732279E+04</rscale>
<asrwt>0</asrwt>
<pdfrwt beam="1">  1        2 0.29159438E+00 0.15732279E+04</pdfrwt>
<pdfrwt beam="2">  1       -1 0.50224707E-01 0.15732279E+04</pdfrwt>
<totfact> 0.33276376E+01</totfact>
</mgrwt>
</event>
<event>
12    6  0.1462228E-007  0.3027770E+04  0.7818608E-02  0.8235845E-01
          2   -1    0    0  501    0  0.00000000000E+00  0.00000000000E+00  0.32934267228E+04  0.32934267228E+04  0.00000000000E+00 0. -1.
         -1   -1    0    0    0  501 -0.00000000000E+00 -0.00000000000E+00 -0.69588540231E+03  0.69588540231E+03  0.00000000000E+00 0.  1.
         24    2    1    2    0    0  0.13230359180E+04  0.13468183846E+03  0.76110409087E+03  0.15343111089E+04  0.79170093330E+02 0.  0.
        254    2    1    2    0    0 -0.13230359180E+04 -0.13468183846E+03  0.18364372296E+04  0.24550010162E+04  0.94125716636E+03 0.  0.
         23    2    4    4    0    0 -0.87755155667E+03 -0.87996362562E+02  0.44814056870E+03  0.99339473446E+03  0.90349514131E+02 0.  0.
         23    2    4    4    0    0 -0.44548436138E+03 -0.46685475896E+02  0.13882966609E+04  0.14616062817E+04  0.91046440245E+02 0.  0.
          4    1    3    3  502    0  0.34487509491E+03  0.83909163209E+00  0.20426256951E+03  0.40082755951E+03  0.00000000000E+00 0. -1.
         -3    1    3    3    0  502  0.97816082314E+03  0.13384274683E+03  0.55684152136E+03  0.11334835494E+04  0.00000000000E+00 0.  1.
         11    1    5    5    0    0 -0.85577272258E+03 -0.78394359591E+02  0.41988326231E+03  0.95644894391E+03  0.00000000000E+00 0. -1.
        -11    1    5    5    0    0 -0.21778834084E+02 -0.96020029714E+01  0.28257306390E+02  0.36945790552E+02  0.00000000000E+00 0.  1.
          4    1    6    6  503    0 -0.25575015528E+03  0.18220268262E+02  0.76000160602E+03  0.80208638017E+03  0.00000000000E+00 0. -1.
         -4    1    6    6    0  503 -0.18973420610E+03 -0.64905744159E+02  0.62829505484E+03  0.65951990154E+03  0.00000000000E+00 0.  1.
<mgrwt>
<rscale>  0 0.30277699E+04</rscale>
<asrwt>0</asrwt>
<pdfrwt beam="1">  1        2 0.50668103E+00 0.30277699E+04</pdfrwt>
<pdfrwt beam="2">  1       -1 0.10705929E+00 0.30277699E+04</pdfrwt>
<totfact> 0.88738311E-01</totfact>
</mgrwt>
</event>
<event>
12    6  0.1462228E-007  0.1456386E+04  0.7818608E-02  0.8913985E-01
          2   -1    0    0  501    0  0.00000000000E+00  0.00000000000E+00  0.16086614801E+04  0.16086614801E+04  0.00000000000E+00 0. -1.
         -1   -1    0    0    0  501 -0.00000000000E+00 -0.00000000000E+00 -0.32963127863E+03  0.32963127863E+03  0.00000000000E+00 0.  1.
         24    2    1    2    0    0  0.44172383033E+03  0.53517955809E+02  0.40480928797E+03  0.60710410525E+03  0.81980004323E+02 0.  0.
        254    2    1    2    0    0 -0.44172383033E+03 -0.53517955809E+02  0.87422091354E+03  0.13311886535E+04  0.89989827853E+03 0.  0.
         23    2    4    4    0    0 -0.63698776701E+03  0.19734781585E+03  0.59145946625E+03  0.89599813739E+03  0.91042771516E+02 0.  0.
         23    2    4    4    0    0  0.19526393668E+03 -0.25086577166E+03  0.28276144729E+03  0.43519051613E+03  0.91515621068E+02 0.  0.
          4    1    3    3  502    0  0.17388661502E+02  0.98491659925E+00  0.45099004134E+02  0.48345173320E+02  0.00000000000E+00 0. -1.
         -3    1    3    3    0  502  0.42433516883E+03  0.52533039209E+02  0.35971028384E+03  0.55875893193E+03  0.00000000000E+00 0.  1.
         11    1    5    5    0    0 -0.42421527686E+02 -0.94856389862E+01  0.41191479784E+02  0.59885735906E+02  0.00000000000E+00 0. -1.
        -11    1    5    5    0    0 -0.59456623932E+03  0.20683345484E+03  0.55026798647E+03  0.83611240148E+03  0.00000000000E+00 0.  1.
          4    1    6    6  503    0  0.26284401144E+02  0.85843781029E+00  0.12849090311E+02  0.29269536737E+02  0.00000000000E+00 0. -1.
         -4    1    6    6    0  503  0.16897953554E+03 -0.25172420947E+03  0.26991235698E+03  0.40592097940E+03  0.00000000000E+00 0.  1.
<mgrwt>
<rscale>  0 0.14563861E+04</rscale>
<asrwt>0</asrwt>
<pdfrwt beam="1">  1        2 0.24748638E+00 0.14563861E+04</pdfrwt>
<pdfrwt beam="2">  1       -1 0.50712505E-01 0.14563861E+04</pdfrwt>
<totfact> 0.47579493E+01</totfact>
</mgrwt>
</event>
<event>
12    6  0.1462228E-007  0.2654416E+04  0.7818608E-02  0.8349949E-01
          2   -1    0    0  501    0  0.00000000000E+00  0.00000000000E+00  0.12581708656E+04  0.12581708656E+04  0.00000000000E+00 0. -1.
         -1   -1    0    0    0  501 -0.00000000000E+00 -0.00000000000E+00 -0.14000334990E+04  0.14000334990E+04  0.00000000000E+00 0.  1.
         24    2    1    2    0    0  0.50857791330E+03 -0.22080160395E+03 -0.10909337293E+04  0.12270627191E+04  0.90231217411E+02 0.  0.
        254    2    1    2    0    0 -0.50857791330E+03  0.22080160395E+03  0.94907109594E+03  0.14311416455E+04  0.91652911692E+03 0.  0.
         23    2    4    4    0    0  0.10093496561E+03  0.24760384864E+03  0.71927153802E+03  0.77272754608E+03  0.90888843821E+02 0.  0.
         23    2    4    4    0    0 -0.60951287890E+03 -0.26802244685E+02  0.22979955792E+03  0.65841409942E+03  0.92070514448E+02 0.  0.
          2    1    3    3  502    0  0.82422106427E+02 -0.74233512127E+02 -0.22716529496E+03  0.25280049285E+03  0.00000000000E+00 0. -1.
         -1    1    3    3    0  502  0.42615580687E+03 -0.14656809183E+03 -0.86376843435E+03  0.97426222622E+03  0.00000000000E+00 0.  1.
         11    1    5    5    0    0  0.19339660557E+02  0.16338955764E+03  0.44496143701E+03  0.47440578669E+03  0.00000000000E+00 0. -1.
        -11    1    5    5    0    0  0.81595305048E+02  0.84214290999E+02  0.27431010101E+03  0.29832175940E+03  0.00000000000E+00 0.  1.
          1    1    6    6  503    0 -0.27346214802E+03 -0.25665403765E+02  0.56917508609E+02  0.28049930862E+03  0.00000000000E+00 0. -1.
         -1    1    6    6    0  503 -0.33605073088E+03 -0.11368409200E+01  0.17288204931E+03  0.37791479080E+03  0.00000000000E+00 0.  1.
<mgrwt>
<rscale>  0 0.26544162E+04</rscale>
<asrwt>0</asrwt>
<pdfrwt beam="1">  1        2 0.19356475E+00 0.26544162E+04</pdfrwt>
<pdfrwt beam="2">  1       -1 0.21538977E+00 0.26544162E+04</pdfrwt>
<totfact> 0.20744745E+00</totfact>
</mgrwt>
</event>
<event>
12    6  0.1462228E-007  0.1194769E+04  0.7818608E-02  0.9117448E-01
          2   -1    0    0  501    0  0.00000000000E+00  0.00000000000E+00  0.10949629317E+04  0.10949629317E+04  0.00000000000E+00 0. -1.
         -1   -1    0    0    0  501 -0.00000000000E+00 -0.00000000000E+00 -0.32591793389E+03  0.32591793389E+03  0.00000000000E+00 0.  1.
         24    2    1    2    0    0 -0.12515753190E+03  0.46729201342E+02  0.33815151237E+03  0.36960622179E+03  0.66440107003E+02 0.  0.
        254    2    1    2    0    0  0.12515753190E+03 -0.46729201342E+02  0.43089348543E+03  0.10512746438E+04  0.94955839990E+03 0.  0.
         23    2    4    4    0    0  0.53070306849E+03 -0.60706918179E+02  0.21636265755E+03  0.58343282885E+03  0.90829452125E+02 0.  0.
         23    2    4    4    0    0 -0.40554553659E+03  0.13977716836E+02  0.21453082788E+03  0.46784181494E+03  0.90498225819E+02 0.  0.
          4    1    3    3  502    0 -0.79583370513E+02  0.46337309792E+02  0.14999795231E+03  0.17601149065E+03  0.00000000000E+00 0. -1.
         -3    1    3    3    0  502 -0.45574161388E+02  0.39189155052E+00  0.18815356006E+03  0.19359473115E+03  0.00000000000E+00 0.  1.
         11    1    5    5    0    0  0.12870163484E+03 -0.16243375934E+02  0.96221730241E+02  0.16151340329E+03  0.00000000000E+00 0.  1.
        -11    1    5    5    0    0  0.40200143365E+03 -0.44463542245E+02  0.12014092731E+03  0.42191942555E+03  0.00000000000E+00 0. -1.
          4    1    6    6  503    0 -0.19069790058E+03 -0.19159612313E+02  0.14250843752E+03  0.23883348759E+03  0.00000000000E+00 0. -1.
         -4    1    6    6    0  503 -0.21484763601E+03  0.33137329149E+02  0.72022390367E+02  0.22900832735E+03  0.00000000000E+00 0.  1.
<mgrwt>
<rscale>  0 0.11947687E+04</rscale>
<asrwt>0</asrwt>
<pdfrwt beam="1">  1        2 0.16845583E+00 0.11947687E+04</pdfrwt>
<pdfrwt beam="2">  1       -1 0.50141221E-01 0.11947687E+04</pdfrwt>
<totfact> 0.98576182E+01</totfact>
</mgrwt>
</event>
<event>
12    6  0.1462228E-007  0.1683733E+04  0.7818608E-02  0.8770697E-01
         -1   -1    0    0    0  501 -0.00000000000E+00  0.00000000000E+00  0.11892020622E+04  0.11892020622E+04  0.00000000000E+00 0.  1.
          2   -1    0    0  501    0  0.00000000000E+00 -0.00000000000E+00 -0.59597908197E+03  0.59597908197E+03  0.00000000000E+00 0. -1.
         24    2    1    2    0    0  0.36889932911E+03  0.36224397138E+02  0.72994998477E+03  0.82263595742E+03  0.80647481100E+02 0.  0.
        254    2    1    2    0    0 -0.36889932911E+03 -0.36224397138E+02 -0.13672700450E+03  0.96254518679E+03  0.87772435359E+03 0.  0.
         23    2    4    4    0    0  0.42204869147E+02  0.27531232076E+03 -0.29458176956E+03  0.41549920964E+03  0.91011259261E+02 0.  0.
         23    2    4    4    0    0 -0.41110419825E+03 -0.31153671790E+03  0.15785476506E+03  0.54704597714E+03  0.90991130531E+02 0.  0.
          2    1    3    3  502    0  0.20678209937E+02 -0.17047510285E+02  0.44033748501E+02  0.51547812564E+02  0.00000000000E+00 0. -1.
         -1    1    3    3    0  502  0.34822111917E+03  0.53271907423E+02  0.68591623627E+03  0.77108814485E+03  0.00000000000E+00 0.  1.
         11    1    5    5    0    0 -0.12564733560E+02  0.12362815116E+03 -0.82878209259E+02  0.14936729849E+03  0.00000000000E+00 0. -1.
        -11    1    5    5    0    0  0.54769602707E+02  0.15168416961E+03 -0.21170356030E+03  0.26613191116E+03  0.00000000000E+00 0.  1.
          1    1    6    6  503    0 -0.42808825658E+01  0.61168396272E+01  0.67877243066E+00  0.74968269674E+01  0.00000000000E+00 0. -1.
         -1    1    6    6    0  503 -0.40682331569E+03 -0.31765355753E+03  0.15717599263E+03  0.53954915018E+03  0.00000000000E+00 0.  1.
<mgrwt>
<rscale>  0 0.16837334E+04</rscale>
<asrwt>0</asrwt>
<pdfrwt beam="1">  1        2 0.91689090E-01 0.16837334E+04</pdfrwt>
<pdfrwt beam="2">  1       -1 0.18295416E+00 0.16837334E+04</pdfrwt>
<totfact> 0.10786485E+01</totfact>
</mgrwt>
</event>
<event>
12    6  0.1462228E-007  0.1485349E+04  0.7818608E-02  0.8894255E-01
         -1   -1    0    0    0  501 -0.00000000000E+00  0.00000000000E+00  0.44854049426E+03  0.44854049426E+03  0.00000000000E+00 0.  1.
          2   -1    0    0  501    0  0.00000000000E+00 -0.00000000000E+00 -0.12296883995E+04  0.12296883995E+04  0.00000000000E+00 0. -1.
         24    2    1    2    0    0 -0.19226229674E+03 -0.28014724784E+03 -0.61339297986E+03  0.70558314809E+03  0.78417854479E+02 0.  0.
        254    2    1    2    0    0  0.19226229674E+03  0.28014724784E+03 -0.16775492537E+03  0.97264574566E+03  0.89579616005E+03 0.  0.
         23    2    4    4    0    0 -0.95262151776E+02 -0.22202633882E+03 -0.27464290484E+03  0.37704621198E+03  0.91457903420E+02 0.  0.
         23    2    4    4    0    0  0.28752444852E+03  0.50217358665E+03  0.10688797948E+03  0.59559953368E+03  0.92006221186E+02 0.  0.
          4    1    3    3  502    0 -0.12639881913E+03 -0.23821824870E+03 -0.49655020422E+03  0.56505459984E+03  0.00000000000E+00 0. -1.
         -3    1    3    3    0  502 -0.65863477616E+02 -0.41928999133E+02 -0.11684277564E+03  0.14052854824E+03  0.00000000000E+00 0.  1.
         11    1    5    5    0    0 -0.22430580906E+02 -0.42041794926E+02 -0.97889989713E+01  0.48646356300E+02  0.00000000000E+00 0.  1.
        -11    1    5    5    0    0 -0.72831570871E+02 -0.17998454389E+03 -0.26485390587E+03  0.32839985568E+03  0.00000000000E+00 0. -1.
          3    1    6    6  503    0  0.28738295509E+03  0.49078718405E+03  0.11667914080E+03  0.58058164353E+03  0.00000000000E+00 0. -1.
         -3    1    6    6    0  503  0.14149342984E+00  0.11386402606E+02 -0.97911613230E+01  0.15017890156E+02  0.00000000000E+00 0.  1.
<mgrwt>
<rscale>  0 0.14853485E+04</rscale>
<asrwt>0</asrwt>
<pdfrwt beam="1">  1        2 0.18918283E+00 0.14853485E+04</pdfrwt>
<pdfrwt beam="2">  1       -1 0.69006231E-01 0.14853485E+04</pdfrwt>
<totfact> 0.42611653E+01</totfact>
</mgrwt>
</event>
<event>
12    6  0.1462228E-007  0.1972936E+04  0.7818608E-02  0.8619379E-01
          2   -1    0    0  501    0  0.00000000000E+00  0.00000000000E+00  0.23679357671E+04  0.23679357671E+04  0.00000000000E+00 0. -1.
         -1   -1    0    0    0  501 -0.00000000000E+00 -0.00000000000E+00 -0.41095675988E+03  0.41095675988E+03  0.00000000000E+00 0.  1.
         24    2    1    2    0    0 -0.64903234123E+03 -0.35006542377E+03  0.44518262905E+03  0.86674142771E+03  0.96251485230E+02 0.  0.
        254    2    1    2    0    0  0.64903234123E+03  0.35006542377E+03  0.15117963782E+04  0.19121510993E+04  0.90939801877E+03 0.  0.
         23    2    4    4    0    0  0.64547899981E+03  0.61470380163E+02  0.14665715752E+04  0.16061051480E+04  0.91213016669E+02 0.  0.
         23    2    4    4    0    0  0.35533414227E+01  0.28859504360E+03  0.45224802916E+02  0.30604595123E+03  0.91209188344E+02 0.  0.
          2    1    3    3  502    0 -0.12214055993E+03 -0.86558979671E+02  0.13185037518E+03  0.19948758051E+03  0.00000000000E+00 0. -1.
         -1    1    3    3    0  502 -0.52689178130E+03 -0.26350644410E+03  0.31333225387E+03  0.66725384720E+03  0.00000000000E+00 0.  1.
         11    1    5    5    0    0  0.59311202170E+03  0.37224556801E+02  0.13741162454E+04  0.14971182297E+04  0.00000000000E+00 0.  1.
        -11    1    5    5    0    0  0.52366978108E+02  0.24245823363E+02  0.92455329891E+02  0.10898691835E+03  0.00000000000E+00 0. -1.
          1    1    6    6  503    0 -0.39707870892E+02  0.12993791651E+03  0.39507892497E+02  0.14149717569E+03  0.00000000000E+00 0. -1.
         -1    1    6    6    0  503  0.43261212315E+02  0.15865712709E+03  0.57169104197E+01  0.16454877554E+03  0.00000000000E+00 0.  1.
<mgrwt>
<rscale>  0 0.19729361E+04</rscale>
<asrwt>0</asrwt>
<pdfrwt beam="1">  1        2 0.36429780E+00 0.19729361E+04</pdfrwt>
<pdfrwt beam="2">  1       -1 0.63224118E-01 0.19729361E+04</pdfrwt>
<totfact> 0.11157224E+01</totfact>
</mgrwt>
</event>
<event>
12    6  0.1462228E-007  0.1212170E+04  0.7818608E-02  0.9102270E-01
         -1   -1    0    0    0  501 -0.00000000000E+00  0.00000000000E+00  0.34360690656E+03  0.34360690656E+03  0.00000000000E+00 0.  1.
          2   -1    0    0  501    0  0.00000000000E+00 -0.00000000000E+00 -0.10690675938E+04  0.10690675938E+04  0.00000000000E+00 0. -1.
         24    2    1    2    0    0 -0.27755002979E+03 -0.38240189788E+02 -0.18272162539E+03  0.34381447019E+03  0.79529028463E+02 0.  0.
        254    2    1    2    0    0  0.27755002979E+03  0.38240189788E+02 -0.54273906186E+03  0.10688600302E+04  0.87715434430E+03 0.  0.
         23    2    4    4    0    0  0.24181746707E+03  0.13648819229E+03 -0.75867361677E+03  0.81308978983E+03  0.91785813295E+02 0.  0.
         23    2    4    4    0    0  0.35732562728E+02 -0.98248002497E+02  0.21593455491E+03  0.25577024036E+03  0.88663396146E+02 0.  0.
          4    1    3    3  502    0 -0.21464939678E+03 -0.11310005439E+02 -0.17038759320E+03  0.27428855550E+03  0.00000000000E+00 0. -1.
         -3    1    3    3    0  502 -0.62900633014E+02 -0.26930184349E+02 -0.12334032191E+02  0.69525914684E+02  0.00000000000E+00 0.  1.
         11    1    5    5    0    0 -0.62922848014E+01  0.35703735165E-02 -0.42540530194E+02  0.43003366961E+02  0.00000000000E+00 0.  1.
        -11    1    5    5    0    0  0.24810975187E+03  0.13648462191E+03 -0.71613308658E+03  0.77008642287E+03  0.00000000000E+00 0. -1.
          4    1    6    6  503    0  0.51791849698E+02 -0.17436857145E+02  0.83120099921E+02  0.99475578375E+02  0.00000000000E+00 0.  1.
         -4    1    6    6    0  503 -0.16059286970E+02 -0.80811145352E+02  0.13281445499E+03  0.15629466199E+03  0.00000000000E+00 0. -1.
<mgrwt>
<rscale>  0 0.12121700E+04</rscale>
<asrwt>0</asrwt>
<pdfrwt beam="1">  1        2 0.16447193E+00 0.12121700E+04</pdfrwt>
<pdfrwt beam="2">  1       -1 0.52862602E-01 0.12121700E+04</pdfrwt>
<totfact> 0.92354732E+01</totfact>
</mgrwt>
</event>
<event>
12    6  0.1462228E-007  0.2999475E+04  0.7818608E-02  0.8243881E-01
          2   -1    0    0  501    0  0.00000000000E+00  0.00000000000E+00  0.24251081003E+04  0.24251081003E+04  0.00000000000E+00 0. -1.
         -1   -1    0    0    0  501 -0.00000000000E+00 -0.00000000000E+00 -0.92746914137E+03  0.92746914137E+03  0.00000000000E+00 0.  1.
         24    2    1    2    0    0 -0.10293308542E+04 -0.34257966042E+03  0.16019700845E+04  0.19364353522E+04  0.81184297544E+02 0.  0.
        254    2    1    2    0    0  0.10293308542E+04  0.34257966042E+03 -0.10433112557E+03  0.14161418895E+04  0.90426215026E+03 0.  0.
         23    2    4    4    0    0  0.10196498494E+04  0.70741210158E+02  0.14378529523E+03  0.10361392891E+04  0.90665765753E+02 0.  0.
         23    2    4    4    0    0  0.96810047941E+01  0.27183845026E+03 -0.24811642080E+03  0.38000260043E+03  0.94076315656E+02 0.  0.
          4    1    3    3  502    0 -0.73126006206E+03 -0.25655194554E+03  0.12037269834E+04  0.14316140645E+04  0.00000000000E+00 0. -1.
         -3    1    3    3    0  502 -0.29807079216E+03 -0.86027714886E+02  0.39824310110E+03  0.50482128763E+03  0.00000000000E+00 0.  1.
         11    1    5    5    0    0  0.12027218122E+03 -0.14206435755E+02 -0.16924594186E+01  0.12112012555E+03  0.00000000000E+00 0.  1.
        -11    1    5    5    0    0  0.89937766820E+03  0.84947645913E+02  0.14547775465E+03  0.91501916357E+03  0.00000000000E+00 0. -1.
          4    1    6    6  503    0  0.23699871289E+02  0.13794988995E+03 -0.18318837661E+03  0.23054248494E+03  0.00000000000E+00 0. -1.
         -4    1    6    6    0  503 -0.14018866494E+02  0.13388856031E+03 -0.64928044189E+02  0.14946011549E+03  0.00000000000E+00 0.  1.
<mgrwt>
<rscale>  0 0.29994752E+04</rscale>
<asrwt>0</asrwt>
<pdfrwt beam="1">  1        2 0.37309355E+00 0.29994752E+04</pdfrwt>
<pdfrwt beam="2">  1       -1 0.14268756E+00 0.29994752E+04</pdfrwt>
<totfact> 0.14917989E+00</totfact>
</mgrwt>
</event>
<event>
12    6  0.1462228E-007  0.2576349E+04  0.7818608E-02  0.8376280E-01
         -1   -1    0    0    0  501 -0.00000000000E+00  0.00000000000E+00  0.17191272360E+04  0.17191272360E+04  0.00000000000E+00 0.  1.
          2   -1    0    0  501    0  0.00000000000E+00 -0.00000000000E+00 -0.96525343650E+03  0.96525343650E+03  0.00000000000E+00 0. -1.
         24    2    1    2    0    0 -0.50957865097E+03 -0.17467967109E+03  0.13503994959E+04  0.14560968216E+04  0.80347783071E+02 0.  0.
        254    2    1    2    0    0  0.50957865097E+03  0.17467967109E+03 -0.59652569640E+03  0.12282838509E+04  0.92879218501E+03 0.  0.
         23    2    4    4    0    0  0.36809659859E+03  0.14704308237E+03  0.17371755671E+03  0.44033405949E+03  0.81237432693E+02 0.  0.
         23    2    4    4    0    0  0.14148205238E+03  0.27636588719E+02 -0.77024325312E+03  0.78794979143E+03  0.82518195911E+02 0.  0.
          2    1    3    3  502    0 -0.28185493095E+02 -0.84219440316E+01  0.36082279336E+02  0.46554076560E+02  0.00000000000E+00 0. -1.
         -1    1    3    3    0  502 -0.48139315788E+03 -0.16625772706E+03  0.13143172165E+04  0.14095427450E+04  0.00000000000E+00 0.  1.
         11    1    5    5    0    0  0.32619060296E+03  0.10040221528E+03  0.13770606554E+03  0.36802700279E+03  0.00000000000E+00 0. -1.
        -11    1    5    5    0    0  0.41905995631E+02  0.46640867096E+02  0.36011491171E+02  0.72307056707E+02  0.00000000000E+00 0.  1.
          1    1    6    6  503    0  0.45820192904E+02  0.32925798102E+02 -0.45455166957E+03  0.45804019318E+03  0.00000000000E+00 0. -1.
         -1    1    6    6    0  503  0.95661859473E+02 -0.52892093832E+01 -0.31569158355E+03  0.32990959825E+03  0.00000000000E+00 0.  1.
<mgrwt>
<rscale>  0 0.25763489E+04</rscale>
<asrwt>0</asrwt>
<pdfrwt beam="1">  1        2 0.14850053E+00 0.25763489E+04</pdfrwt>
<pdfrwt beam="2">  1       -1 0.26448111E+00 0.25763489E+04</pdfrwt>
<totfact> 0.15041914E+00</totfact>
</mgrwt>
</event>
<event>
12    6  0.1462228E-007  0.2173156E+04  0.7818608E-02  0.8529685E-01
          2   -1    0    0  501    0  0.00000000000E+00  0.00000000000E+00  0.32009716492E+04  0.32009716492E+04  0.00000000000E+00 0. -1.
         -1   -1    0    0    0  501 -0.00000000000E+00 -0.00000000000E+00 -0.36884176304E+03  0.36884176304E+03  0.00000000000E+00 0.  1.
         24    2    1    2    0    0 -0.13071624238E+03 -0.23002417004E+03 -0.23588009425E+03  0.36267804818E+03  0.76799042597E+02 0.  0.
        254    2    1    2    0    0  0.13071624238E+03  0.23002417004E+03  0.30680099805E+04  0.32071353641E+04  0.89612172647E+03 0.  0.
         23    2    4    4    0    0 -0.37495201746E+03  0.70727355003E+02  0.14387262548E+04  0.14913063508E+04  0.92032719913E+02 0.  0.
         23    2    4    4    0    0  0.50566825984E+03  0.15929681504E+03  0.16292837257E+04  0.17158290133E+04  0.91803485253E+02 0.  0.
          4    1    3    3  502    0 -0.24199539911E+01  0.36532971007E+01 -0.17587118636E+02  0.18124831005E+02  0.00000000000E+00 0. -1.
         -3    1    3    3    0  502 -0.12829628839E+03 -0.23367746714E+03 -0.21829297561E+03  0.34455321718E+03  0.00000000000E+00 0.  1.
         11    1    5    5    0    0 -0.11272753674E+03  0.35411639893E+02  0.30437338702E+03  0.32650366078E+03  0.00000000000E+00 0. -1.
        -11    1    5    5    0    0 -0.26222448073E+03  0.35315715110E+02  0.11343528678E+04  0.11648026900E+04  0.00000000000E+00 0.  1.
          1    1    6    6  503    0  0.16970704611E+03  0.77892966751E+02  0.45810263751E+03  0.49469770796E+03  0.00000000000E+00 0. -1.
         -1    1    6    6    0  503  0.33596121373E+03  0.81403848288E+02  0.11711810882E+04  0.12211313053E+04  0.00000000000E+00 0.  1.
<mgrwt>
<rscale>  0 0.21731563E+04</rscale>
<asrwt>0</asrwt>
<pdfrwt beam="1">  1        2 0.49245716E+00 0.21731563E+04</pdfrwt>
<pdfrwt beam="2">  1       -1 0.56744889E-01 0.21731563E+04</pdfrwt>
<totfact> 0.42524879E+00</totfact>
</mgrwt>
</event>
<event>
12    6  0.1462228E-007  0.2389681E+04  0.7818608E-02  0.8443377E-01
         -1   -1    0    0    0  501 -0.00000000000E+00  0.00000000000E+00  0.17467234187E+04  0.17467234187E+04  0.00000000000E+00 0.  1.
          2   -1    0    0  501    0  0.00000000000E+00 -0.00000000000E+00 -0.81732659593E+03  0.81732659593E+03  0.00000000000E+00 0. -1.
         24    2    1    2    0    0 -0.14773793850E+03  0.25440777341E+03  0.14424158818E+04  0.14740072456E+04  0.74725967712E+02 0.  0.
        254    2    1    2    0    0  0.14773793850E+03 -0.25440777341E+03 -0.51301905907E+03  0.10900427690E+04  0.91567181332E+03 0.  0.
         23    2    4    4    0    0 -0.25819350878E+03 -0.21635175284E+03 -0.57001246072E+03  0.66839286333E+03  0.91448594517E+02 0.  0.
         23    2    4    4    0    0  0.40593144728E+03 -0.38056020575E+02  0.56993401652E+02  0.42164990570E+03  0.91169043849E+02 0.  0.
          4    1    3    3  502    0 -0.44988653554E+02  0.77893151126E+02  0.28992562607E+03  0.30355920443E+03  0.00000000000E+00 0. -1.
         -3    1    3    3    0  502 -0.10274928494E+03  0.17651462229E+03  0.11524902557E+04  0.11704480411E+04  0.00000000000E+00 0.  1.
         11    1    5    5    0    0 -0.21744457546E+03 -0.21693751160E+03 -0.48437628184E+03  0.57355419077E+03  0.00000000000E+00 0. -1.
        -11    1    5    5    0    0 -0.40748933319E+02  0.58575876190E+00 -0.85636178883E+02  0.94838672564E+02  0.00000000000E+00 0.  1.
          2    1    6    6  503    0  0.28840441057E+03  0.14606021064E+02  0.45723915786E+02  0.29237153822E+03  0.00000000000E+00 0. -1.
         -2    1    6    6    0  503  0.11752703671E+03 -0.52662041638E+02  0.11269485867E+02  0.12927836748E+03  0.00000000000E+00 0.  1.
<mgrwt>
<rscale>  0 0.23896807E+04</rscale>
<asrwt>0</asrwt>
<pdfrwt beam="1">  1        2 0.12574255E+00 0.23896807E+04</pdfrwt>
<pdfrwt beam="2">  1       -1 0.26872668E+00 0.23896807E+04</pdfrwt>
<totfact> 0.18095454E+00</totfact>
</mgrwt>
</event>
<event>
12    6  0.1462228E-007  0.2191194E+04  0.7818608E-02  0.8522102E-01
         -1   -1    0    0    0  501 -0.00000000000E+00  0.00000000000E+00  0.38155892931E+03  0.38155892931E+03  0.00000000000E+00 0.  1.
          2   -1    0    0  501    0  0.00000000000E+00 -0.00000000000E+00 -0.31458659646E+04  0.31458659646E+04  0.00000000000E+00 0. -1.
         24    2    1    2    0    0 -0.17055973211E+03  0.10131920345E+03 -0.25457362931E+04  0.25547114332E+04  0.80131328730E+02 0.  0.
        254    2    1    2    0    0  0.17055973211E+03 -0.10131920345E+03 -0.21857074217E+03  0.97271346066E+03  0.92684524275E+03 0.  0.
         23    2    4    4    0    0  0.27028699764E+03 -0.40279057021E+03  0.11005797396E+03  0.50661533214E+03  0.96182288289E+02 0.  0.
         23    2    4    4    0    0 -0.99727265539E+02  0.30147136677E+03 -0.32862871613E+03  0.46609812852E+03  0.91761211140E+02 0.  0.
          2    1    3    3  502    0 -0.13003992048E+03  0.10704648164E+03 -0.18035427633E+04  0.18113905788E+04  0.00000000000E+00 0. -1.
         -1    1    3    3    0  502 -0.40519811625E+02 -0.57272781939E+01 -0.74219352985E+03  0.74332085441E+03  0.00000000000E+00 0.  1.
         11    1    5    5    0    0  0.25694980726E+03 -0.32420929577E+03  0.10471220610E+03  0.42673119996E+03  0.00000000000E+00 0.  1.
        -11    1    5    5    0    0  0.13337190388E+02 -0.78581274442E+02  0.53457678629E+01  0.79884132182E+02  0.00000000000E+00 0. -1.
          1    1    6    6  503    0 -0.69915045618E+02  0.15174098900E+03 -0.23024025373E+03  0.28447146743E+03  0.00000000000E+00 0. -1.
         -1    1    6    6    0  503 -0.29812219920E+02  0.14973037777E+03 -0.98388462404E+02  0.18162666109E+03  0.00000000000E+00 0.  1.
<mgrwt>
<rscale>  0 0.21911944E+04</rscale>
<asrwt>0</asrwt>
<pdfrwt beam="1">  1        2 0.48397938E+00 0.21911944E+04</pdfrwt>
<pdfrwt beam="2">  1       -1 0.58701374E-01 0.21911944E+04</pdfrwt>
<totfact> 0.43121299E+00</totfact>
</mgrwt>
</event>
<event>
12    6  0.1462228E-007  0.1201595E+04  0.7818608E-02  0.9111461E-01
          2   -1    0    0  501    0  0.00000000000E+00  0.00000000000E+00  0.15185744074E+04  0.15185744074E+04  0.00000000000E+00 0. -1.
         -1   -1    0    0    0  501 -0.00000000000E+00 -0.00000000000E+00 -0.23769524076E+03  0.23769524076E+03  0.00000000000E+00 0.  1.
         24    2    1    2    0    0 -0.19860490863E+03 -0.21029667035E+03  0.19498550899E+03  0.35756978246E+03  0.78537897354E+02 0.  0.
        254    2    1    2    0    0  0.19860490863E+03  0.21029667035E+03  0.10858936577E+04  0.13986998657E+04  0.83278309258E+03 0.  0.
         23    2    4    4    0    0  0.31447976178E+03 -0.23403658739E+03  0.39665391885E+03  0.56513496740E+03  0.91501667957E+02 0.  0.
         23    2    4    4    0    0 -0.11587485314E+03  0.44433325774E+03  0.68923973884E+03  0.83356489832E+03  0.94445733600E+02 0.  0.
          2    1    3    3  502    0 -0.11468750065E+03 -0.94109675373E+02  0.14023104713E+03  0.20414357786E+03  0.00000000000E+00 0. -1.
         -1    1    3    3    0  502 -0.83917407985E+02 -0.11618699498E+03  0.54754461866E+02  0.15342620460E+03  0.00000000000E+00 0.  1.
         11    1    5    5    0    0  0.29252955963E+03 -0.19112105508E+03  0.37412105043E+03  0.51192515208E+03  0.00000000000E+00 0. -1.
        -11    1    5    5    0    0  0.21950202143E+02 -0.42915532314E+02  0.22532868417E+02  0.53209815326E+02  0.00000000000E+00 0.  1.
          2    1    6    6  503    0 -0.66564522379E+02  0.38486936213E+03  0.55450669787E+03  0.67825728122E+03  0.00000000000E+00 0. -1.
         -2    1    6    6    0  503 -0.49310330762E+02  0.59463895610E+02  0.13473304097E+03  0.15530761710E+03  0.00000000000E+00 0.  1.
<mgrwt>
<rscale>  0 0.12015955E+04</rscale>
<asrwt>0</asrwt>
<pdfrwt beam="1">  1        2 0.23362683E+00 0.12015955E+04</pdfrwt>
<pdfrwt beam="2">  1       -1 0.36568499E-01 0.12015955E+04</pdfrwt>
<totfact> 0.99838323E+01</totfact>
</mgrwt>
</event>
<event>
12    6  0.1462228E-007  0.1672393E+04  0.7818608E-02  0.8777268E-01
          2   -1    0    0  501    0  0.00000000000E+00  0.00000000000E+00  0.10099324019E+04  0.10099324019E+04  0.00000000000E+00 0. -1.
         -1   -1    0    0    0  501 -0.00000000000E+00 -0.00000000000E+00 -0.69234808567E+03  0.69234808567E+03  0.00000000000E+00 0.  1.
         24    2    1    2    0    0  0.41903251906E+03  0.39609623949E+03  0.45754760356E+02  0.58395553883E+03  0.80187843589E+02 0.  0.
        254    2    1    2    0    0 -0.41903251906E+03 -0.39609623949E+03  0.27182955584E+03  0.11183249487E+04  0.91884650542E+03 0.  0.
         23    2    4    4    0    0 -0.39277960775E+03 -0.45468004637E+03  0.54975058818E+03  0.81985340696E+03  0.94467639213E+02 0.  0.
         23    2    4    4    0    0 -0.26252911307E+02  0.58583806874E+02 -0.27792103235E+03  0.29847154176E+03  0.87885625900E+02 0.  0.
          4    1    3    3  502    0  0.30009063529E+03  0.28159220321E+03  0.68874389789E+02  0.41724362172E+03  0.00000000000E+00 0. -1.
         -3    1    3    3    0  502  0.11894188377E+03  0.11450403628E+03 -0.23119629433E+02  0.16671191710E+03  0.00000000000E+00 0.  1.
         11    1    5    5    0    0 -0.13709788899E+03 -0.11932331950E+03  0.12023728146E+03  0.21792404548E+03  0.00000000000E+00 0. -1.
        -11    1    5    5    0    0 -0.25568171876E+03 -0.33535672686E+03  0.42951330672E+03  0.60192936148E+03  0.00000000000E+00 0.  1.
          4    1    6    6  503    0  0.27509908290E+02  0.45630365732E+02 -0.12622730670E+03  0.13701189105E+03  0.00000000000E+00 0. -1.
         -4    1    6    6    0  503 -0.53762819597E+02  0.12953441142E+02 -0.15169372564E+03  0.16145965071E+03  0.00000000000E+00 0.  1.
<mgrwt>
<rscale>  0 0.16723932E+04</rscale>
<asrwt>0</asrwt>
<pdfrwt beam="1">  1        2 0.15537422E+00 0.16723932E+04</pdfrwt>
<pdfrwt beam="2">  1       -1 0.10651509E+00 0.16723932E+04</pdfrwt>
<totfact> 0.22237163E+01</totfact>
</mgrwt>
</event>
<event>
12    6  0.1462228E-007  0.1663635E+04  0.7818608E-02  0.8782381E-01
         -1   -1    0    0    0  501 -0.00000000000E+00  0.00000000000E+00  0.12802712087E+04  0.12802712087E+04  0.00000000000E+00 0.  1.
          2   -1    0    0  501    0  0.00000000000E+00 -0.00000000000E+00 -0.54044836697E+03  0.54044836697E+03  0.00000000000E+00 0. -1.
         24    2    1    2    0    0  0.24925642274E+03 -0.47828095338E+03  0.52553250730E+01  0.54468080925E+03  0.75948211797E+02 0.  0.
        254    2    1    2    0    0 -0.24925642274E+03  0.47828095338E+03  0.73456751666E+03  0.12760387664E+04  0.89319878093E+03 0.  0.
         23    2    4    4    0    0 -0.31414772359E+03 -0.17558094650E+03  0.34090895772E+03  0.50463739019E+03  0.94459076389E+02 0.  0.
         23    2    4    4    0    0  0.64891300845E+02  0.65386189989E+03  0.39365855893E+03  0.77140137623E+03  0.91360588807E+02 0.  0.
          2    1    3    3  502    0  0.24236386562E+03 -0.46222755344E+03 -0.92152226551E+01  0.52199566554E+03  0.00000000000E+00 0. -1.
         -1    1    3    3    0  502  0.68925571264E+01 -0.16053399942E+02  0.14470547728E+02  0.22685143707E+02  0.00000000000E+00 0.  1.
         11    1    5    5    0    0 -0.61750960092E+02 -0.79077693660E+02  0.11326253798E+03  0.15131049275E+03  0.00000000000E+00 0. -1.
        -11    1    5    5    0    0 -0.25239676350E+03 -0.96503252845E+02  0.22764641974E+03  0.35332689744E+03  0.00000000000E+00 0.  1.
          3    1    6    6  503    0  0.45453245893E+01  0.44447621959E+03  0.28372949003E+03  0.52733499150E+03  0.00000000000E+00 0. -1.
         -3    1    6    6    0  503  0.60345976256E+02  0.20938568030E+03  0.10992906890E+03  0.24406638473E+03  0.00000000000E+00 0.  1.
<mgrwt>
<rscale>  0 0.16636352E+04</rscale>
<asrwt>0</asrwt>
<pdfrwt beam="1">  1        2 0.83145903E-01 0.16636352E+04</pdfrwt>
<pdfrwt beam="2">  1       -1 0.19696480E+00 0.16636352E+04</pdfrwt>
<totfact> 0.96805162E+00</totfact>
</mgrwt>
</event>
<event>
12    6  0.1462228E-007  0.1758607E+04  0.7818608E-02  0.8728627E-01
         -1   -1    0    0    0  501 -0.00000000000E+00  0.00000000000E+00  0.51036782878E+03  0.51036782878E+03  0.00000000000E+00 0.  1.
          2   -1    0    0  501    0  0.00000000000E+00 -0.00000000000E+00 -0.15149354461E+04  0.15149354461E+04  0.00000000000E+00 0. -1.
         24    2    1    2    0    0 -0.13361780473E+03 -0.63882734627E+03 -0.29445356986E+03  0.71785341856E+03  0.51541533328E+02 0.  0.
        254    2    1    2    0    0  0.13361780473E+03  0.63882734627E+03 -0.71011404749E+03  0.13074498563E+04  0.88272819731E+03 0.  0.
         23    2    4    4    0    0  0.43538655377E+02  0.52860677433E+03  0.38971239269E+02  0.53952285259E+03  0.90804265325E+02 0.  0.
         23    2    4    4    0    0  0.90079149349E+02  0.11022057194E+03 -0.74908528676E+03  0.76792700375E+03  0.91215616128E+02 0.  0.
          2    1    3    3  502    0 -0.21899949805E+02 -0.51305285747E+02 -0.15192368144E+02  0.57815639725E+02  0.00000000000E+00 0. -1.
         -1    1    3    3    0  502 -0.11171785492E+03 -0.58752206052E+03 -0.27926120172E+03  0.66003777883E+03  0.00000000000E+00 0.  1.
         11    1    5    5    0    0 -0.19630498615E+02  0.11339834477E+03  0.32110508374E+02  0.11948065040E+03  0.00000000000E+00 0. -1.
        -11    1    5    5    0    0  0.63169153992E+02  0.41520842955E+03  0.68607308953E+01  0.42004220218E+03  0.00000000000E+00 0.  1.
          3    1    6    6  503    0  0.19665670705E+02  0.23146663119E+01 -0.22358600591E+02  0.29866424373E+02  0.00000000000E+00 0. -1.
         -3    1    6    6    0  503  0.70413478644E+02  0.10790590563E+03 -0.72672668617E+03  0.73806057938E+03  0.00000000000E+00 0.  1.
<mgrwt>
<rscale>  0 0.17586066E+04</rscale>
<asrwt>0</asrwt>
<pdfrwt beam="1">  1        2 0.23306699E+00 0.17586066E+04</pdfrwt>
<pdfrwt beam="2">  1       -1 0.78518128E-01 0.17586066E+04</pdfrwt>
<totfact> 0.21809740E+01</totfact>
</mgrwt>
</event>
<event>
12    6  0.1462228E-007  0.1606043E+04  0.7818608E-02  0.8816844E-01
          2   -1    0    0  501    0  0.00000000000E+00  0.00000000000E+00  0.10533736873E+04  0.10533736873E+04  0.00000000000E+00 0. -1.
         -3   -1    0    0    0  501 -0.00000000000E+00 -0.00000000000E+00 -0.61216958648E+03  0.61216958648E+03  0.00000000000E+00 0.  1.
         24    2    1    2    0    0  0.36924120700E+03 -0.83970387765E+02 -0.25862720006E+03  0.46580325919E+03  0.81820246218E+02 0.  0.
        254    2    1    2    0    0 -0.36924120700E+03  0.83970387765E+02  0.69983130093E+03  0.11997400146E+04  0.89789874596E+03 0.  0.
         23    2    4    4    0    0  0.28939515334E+03  0.46857879186E+02  0.23606397851E+03  0.38820992450E+03  0.95055393917E+02 0.  0.
         23    2    4    4    0    0 -0.65863636034E+03  0.37112508579E+02  0.46376732242E+03  0.81153009014E+03  0.91223705280E+02 0.  0.
          2    1    3    3  502    0  0.62277168716E+02 -0.34414336748E+02 -0.80573195340E+02  0.10749340503E+03  0.00000000000E+00 0. -1.
         -1    1    3    3    0  502  0.30696403828E+03 -0.49556051018E+02 -0.17805400472E+03  0.35830985416E+03  0.00000000000E+00 0.  1.
         11    1    5    5    0    0  0.84635610855E+02 -0.29537118186E+02  0.68196045910E+02  0.11263360357E+03  0.00000000000E+00 0.  1.
        -11    1    5    5    0    0  0.20475954248E+03  0.76394997372E+02  0.16786793260E+03  0.27557632093E+03  0.00000000000E+00 0. -1.
          4    1    6    6  503    0 -0.52763156693E+03  0.30338718576E+02  0.32432618235E+03  0.62008304349E+03  0.00000000000E+00 0. -1.
         -4    1    6    6    0  503 -0.13100479340E+03  0.67737900036E+01  0.13944114007E+03  0.19144704665E+03  0.00000000000E+00 0.  1.
<mgrwt>
<rscale>  0 0.16060428E+04</rscale>
<asrwt>0</asrwt>
<pdfrwt beam="1">  1        2 0.16205749E+00 0.16060428E+04</pdfrwt>
<pdfrwt beam="2">  1       -3 0.94179936E-01 0.16060428E+04</pdfrwt>
<totfact> 0.14230687E+01</totfact>
</mgrwt>
</event>
<event>
12    6  0.1462228E-007  0.1245730E+04  0.7818608E-02  0.9073745E-01
         -1   -1    0    0    0  501 -0.00000000000E+00  0.00000000000E+00  0.83356134935E+02  0.83356134935E+02  0.00000000000E+00 0.  1.
          2   -1    0    0  501    0  0.00000000000E+00 -0.00000000000E+00 -0.46542566979E+04  0.46542566979E+04  0.00000000000E+00 0. -1.
         24    2    1    2    0    0 -0.17612948402E+03  0.92357883803E+01 -0.21953558880E+03  0.29233216185E+03  0.78455867675E+02 0.  0.
        254    2    1    2    0    0  0.17612948402E+03 -0.92357883803E+01 -0.43513649742E+04  0.44452806710E+04  0.89164803064E+03 0.  0.
         23    2    4    4    0    0  0.13136336628E+03 -0.24837097977E+03 -0.47099250544E+03  0.55625609304E+03  0.92964634544E+02 0.  0.
         23    2    4    4    0    0  0.44766117743E+02  0.23913519139E+03 -0.38803724688E+04  0.38890245780E+04  0.89621575175E+02 0.  0.
          2    1    3    3  502    0 -0.36904826594E+02  0.35425382680E+02 -0.52309082714E+02  0.73165320326E+02  0.00000000000E+00 0. -1.
         -1    1    3    3    0  502 -0.13922465743E+03 -0.26189594300E+02 -0.16722650608E+03  0.21916684152E+03  0.00000000000E+00 0.  1.
         11    1    5    5    0    0  0.16444020281E+02 -0.10370506092E+03 -0.11884911306E+03  0.15858832599E+03  0.00000000000E+00 0. -1.
        -11    1    5    5    0    0  0.11491934600E+03 -0.14466591885E+03 -0.35214339238E+03  0.39766776706E+03  0.00000000000E+00 0.  1.
          4    1    6    6  503    0  0.74559512514E+01  0.84082317734E+02 -0.78025481900E+03  0.78480762607E+03  0.00000000000E+00 0. -1.
         -4    1    6    6    0  503  0.37310166491E+02  0.15505287366E+03 -0.31001176498E+04  0.31042169519E+04  0.00000000000E+00 0.  1.
<mgrwt>
<rscale>  0 0.12457301E+04</rscale>
<asrwt>0</asrwt>
<pdfrwt beam="1">  1        2 0.71603937E+00 0.12457301E+04</pdfrwt>
<pdfrwt beam="2">  1       -1 0.12824023E-01 0.12457301E+04</pdfrwt>
<totfact> 0.43287706E+00</totfact>
</mgrwt>
</event>
<event>
12    6  0.1462228E-007  0.1357379E+04  0.7818608E-02  0.8985261E-01
         -1   -1    0    0    0  501 -0.00000000000E+00  0.00000000000E+00  0.18901519314E+03  0.18901519314E+03  0.00000000000E+00 0.  1.
          2   -1    0    0  501    0  0.00000000000E+00 -0.00000000000E+00 -0.24369434479E+04  0.24369434479E+04  0.00000000000E+00 0. -1.
         24    2    1    2    0    0 -0.75538770607E+02  0.17603400278E+03  0.41464356328E+01  0.19858807952E+03  0.52210692377E+02 0.  0.
        254    2    1    2    0    0  0.75538770607E+02 -0.17603400278E+03 -0.22520746904E+04  0.24273705615E+04  0.88520808619E+03 0.  0.
         23    2    4    4    0    0 -0.14106919608E+03  0.30909509204E+03 -0.11113815703E+04  0.11656984763E+04  0.90794540718E+02 0.  0.
         23    2    4    4    0    0  0.21660796669E+03 -0.48512909482E+03 -0.11406931200E+04  0.12616720852E+04  0.91468064197E+02 0.  0.
          2    1    3    3  502    0 -0.39106220602E+02  0.84234401194E+02 -0.23943517732E+02  0.95906323440E+02  0.00000000000E+00 0. -1.
         -1    1    3    3    0  502 -0.36432550005E+02  0.91799601589E+02  0.28089953365E+02  0.10268175608E+03  0.00000000000E+00 0.  1.
         11    1    5    5    0    0 -0.11635716450E+03  0.20057245012E+03 -0.86130061540E+03  0.89196807542E+03  0.00000000000E+00 0. -1.
        -11    1    5    5    0    0 -0.24712031579E+02  0.10852264191E+03 -0.25008095495E+03  0.27373040083E+03  0.00000000000E+00 0.  1.
          3    1    6    6  503    0  0.49847885025E+02 -0.17525652942E+03 -0.47388453843E+03  0.50770682338E+03  0.00000000000E+00 0. -1.
         -3    1    6    6    0  503  0.16676008166E+03 -0.30987256539E+03 -0.66680858158E+03  0.75396526186E+03  0.00000000000E+00 0.  1.
<mgrwt>
<rscale>  0 0.13573789E+04</rscale>
<asrwt>0</asrwt>
<pdfrwt beam="1">  1        2 0.37491434E+00 0.13573789E+04</pdfrwt>
<pdfrwt beam="2">  1       -1 0.29079263E-01 0.13573789E+04</pdfrwt>
<totfact> 0.45529197E+01</totfact>
</mgrwt>
</event>
<event>
12    6  0.1462228E-007  0.1555361E+04  0.7818608E-02  0.8848450E-01
          2   -1    0    0  501    0  0.00000000000E+00  0.00000000000E+00  0.55699292943E+03  0.55699292943E+03  0.00000000000E+00 0. -1.
         -1   -1    0    0    0  501 -0.00000000000E+00 -0.00000000000E+00 -0.10858077592E+04  0.10858077592E+04  0.00000000000E+00 0.  1.
         24    2    1    2    0    0 -0.26541445933E+03 -0.43711866505E+03 -0.10709192698E+03  0.52854868418E+03  0.79859051878E+02 0.  0.
        254    2    1    2    0    0  0.26541445933E+03  0.43711866505E+03 -0.42172290281E+03  0.11142520045E+04  0.89565046762E+03 0.  0.
         23    2    4    4    0    0  0.28324703527E+03  0.27442321119E+03 -0.68280161447E+03  0.79353009041E+03  0.89078492537E+02 0.  0.
         23    2    4    4    0    0 -0.17832575940E+02  0.16269545386E+03  0.26107871166E+03  0.32072191406E+03  0.88953026959E+02 0.  0.
          4    1    3    3  502    0 -0.15865881443E+03 -0.32506610402E+03 -0.59121131714E+02  0.36651862108E+03  0.00000000000E+00 0. -1.
         -3    1    3    3    0  502 -0.10675564490E+03 -0.11205256103E+03 -0.47970795263E+02  0.16203006311E+03  0.00000000000E+00 0.  1.
         11    1    5    5    0    0  0.27233677542E+03  0.27976381477E+03 -0.67242499899E+03  0.77755417211E+03  0.00000000000E+00 0.  1.
        -11    1    5    5    0    0  0.10910259855E+02 -0.53406035800E+01 -0.10376615480E+02  0.15975918300E+02  0.00000000000E+00 0. -1.
          1    1    6    6  503    0 -0.22775036512E+02  0.16656073811E+02  0.94747388167E+01  0.29764034649E+02  0.00000000000E+00 0. -1.
         -1    1    6    6    0  503  0.49424605717E+01  0.14603938005E+03  0.25160397284E+03  0.29095787941E+03  0.00000000000E+00 0.  1.
<mgrwt>
<rscale>  0 0.15553614E+04</rscale>
<asrwt>0</asrwt>
<pdfrwt beam="1">  1        2 0.85691221E-01 0.15553614E+04</pdfrwt>
<pdfrwt beam="2">  1       -1 0.16704735E+00 0.15553614E+04</pdfrwt>
<totfact> 0.15428934E+01</totfact>
</mgrwt>
</event>
<event>
12    6  0.1462228E-007  0.1095845E+04  0.7818608E-02  0.9209251E-01
         -3   -1    0    0    0  501 -0.00000000000E+00  0.00000000000E+00  0.10017203158E+04  0.10017203158E+04  0.00000000000E+00 0.  1.
          4   -1    0    0  501    0  0.00000000000E+00 -0.00000000000E+00 -0.29970359999E+03  0.29970359999E+03  0.00000000000E+00 0. -1.
         24    2    1    2    0    0  0.10044149080E+03 -0.12382938514E+03  0.15400987719E+03  0.23610936622E+03  0.81279645967E+02 0.  0.
        254    2    1    2    0    0 -0.10044149080E+03  0.12382938514E+03  0.54800683860E+03  0.10653145495E+04  0.89953398191E+03 0.  0.
         23    2    4    4    0    0 -0.18776190679E+03  0.24660147914E+03 -0.14219480161E+03  0.35301466998E+03  0.91286211802E+02 0.  0.
         23    2    4    4    0    0  0.87320415985E+02 -0.12277209400E+03  0.69020164021E+03  0.71229987956E+03  0.91076737727E+02 0.  0.
          2    1    3    3  502    0  0.50866724239E+01 -0.83861065249E+01 -0.10016195294E+02  0.14018744136E+02  0.00000000000E+00 0. -1.
         -1    1    3    3    0  502  0.95354818377E+02 -0.11544327861E+03  0.16402607248E+03  0.22209062208E+03  0.00000000000E+00 0.  1.
         11    1    5    5    0    0 -0.43762598321E+02  0.96496875900E+01 -0.10374081040E+02  0.45998946073E+02  0.00000000000E+00 0.  1.
        -11    1    5    5    0    0 -0.14399930846E+03  0.23695179155E+03 -0.13182072057E+03  0.30701572391E+03  0.00000000000E+00 0. -1.
          2    1    6    6  503    0  0.10018597697E+03 -0.10536237481E+03  0.65525867052E+03  0.67119474469E+03  0.00000000000E+00 0. -1.
         -2    1    6    6    0  503 -0.12865560985E+02 -0.17409719190E+02  0.34942969694E+02  0.41105134872E+02  0.00000000000E+00 0.  1.
<mgrwt>
<rscale>  0 0.10958452E+04</rscale>
<asrwt>0</asrwt>
<pdfrwt beam="1">  1        4 0.46108247E-01 0.10958452E+04</pdfrwt>
<pdfrwt beam="2">  1       -3 0.15411082E+00 0.10958452E+04</pdfrwt>
<totfact> 0.31152824E+00</totfact>
</mgrwt>
</event>
<event>
12    6  0.1462228E-007  0.1093127E+04  0.7818608E-02  0.9211917E-01
         -1   -1    0    0    0  501 -0.00000000000E+00  0.00000000000E+00  0.15338999931E+03  0.15338999931E+03  0.00000000000E+00 0.  1.
          2   -1    0    0  501    0  0.00000000000E+00 -0.00000000000E+00 -0.19475299076E+04  0.19475299076E+04  0.00000000000E+00 0. -1.
         24    2    1    2    0    0  0.13373481403E+03  0.41057719885E+02 -0.45133761908E+03  0.47938146703E+03  0.80809700441E+02 0.  0.
        254    2    1    2    0    0 -0.13373481403E+03 -0.41057719885E+02 -0.13428022892E+04  0.16215384398E+04  0.89816378641E+03 0.  0.
         23    2    4    4    0    0  0.34924570546E+03 -0.10391362259E+03 -0.35548167440E+03  0.51696883224E+03  0.90105210315E+02 0.  0.
         23    2    4    4    0    0 -0.48298051949E+03  0.62855902709E+02 -0.98732061478E+03  0.11045696076E+04  0.89727225405E+02 0.  0.
          2    1    3    3  502    0  0.69454468111E+02  0.31254734310E+02 -0.35550167923E+03  0.36356873558E+03  0.00000000000E+00 0. -1.
         -1    1    3    3    0  502  0.64280345917E+02  0.98029855751E+01 -0.95835939849E+02  0.11581273144E+03  0.00000000000E+00 0.  1.
         11    1    5    5    0    0 -0.23934731412E+01 -0.85032018048E+01 -0.19256516204E+02  0.21185999408E+02  0.00000000000E+00 0.  1.
        -11    1    5    5    0    0  0.35163917860E+03 -0.95410420789E+02 -0.33622515820E+03  0.49578283283E+03  0.00000000000E+00 0. -1.
          1    1    6    6  503    0 -0.28396509904E+03  0.12081186252E-01 -0.51261818776E+03  0.58601500325E+03  0.00000000000E+00 0. -1.
         -1    1    6    6    0  503 -0.19901542045E+03  0.62843821523E+02 -0.47470242702E+03  0.51855460435E+03  0.00000000000E+00 0.  1.
<mgrwt>
<rscale>  0 0.10931269E+04</rscale>
<asrwt>0</asrwt>
<pdfrwt beam="1">  1        2 0.29961998E+00 0.10931269E+04</pdfrwt>
<pdfrwt beam="2">  1       -1 0.23598462E-01 0.10931269E+04</pdfrwt>
<totfact> 0.12523345E+02</totfact>
</mgrwt>
</event>
<event>
12    6  0.1462228E-007  0.1965989E+04  0.7818608E-02  0.8622689E-01
          2   -1    0    0  501    0  0.00000000000E+00  0.00000000000E+00  0.19098309583E+04  0.19098309583E+04  0.00000000000E+00 0. -1.
         -1   -1    0    0    0  501 -0.00000000000E+00 -0.00000000000E+00 -0.50594979958E+03  0.50594979958E+03  0.00000000000E+00 0.  1.
         24    2    1    2    0    0 -0.64974817691E+03 -0.41022957177E+03  0.65934841713E+03  0.10156723064E+04  0.79930619425E+02 0.  0.
        254    2    1    2    0    0  0.64974817691E+03  0.41022957177E+03  0.74453274162E+03  0.14001084515E+04  0.90305795918E+03 0.  0.
         23    2    4    4    0    0 -0.82621660382E+02 -0.19511176885E+03  0.15877948230E+03  0.28021923340E+03  0.91743957092E+02 0.  0.
         23    2    4    4    0    0  0.73236983729E+03  0.60534134062E+03  0.58575325933E+03  0.11198892181E+04  0.90781400841E+02 0.  0.
          2    1    3    3  502    0 -0.20761916926E+03 -0.13521116860E+03  0.16489188120E+03  0.29761907205E+03  0.00000000000E+00 0. -1.
         -1    1    3    3    0  502 -0.44212900764E+03 -0.27501840317E+03  0.49445653592E+03  0.71805323438E+03  0.00000000000E+00 0.  1.
         11    1    5    5    0    0 -0.78610357355E+01  0.37865785696E+01 -0.66167265067E+01  0.10950576686E+02  0.00000000000E+00 0. -1.
        -11    1    5    5    0    0 -0.74760624646E+02 -0.19889834742E+03  0.16539620880E+03  0.26926865672E+03  0.00000000000E+00 0.  1.
          3    1    6    6  503    0  0.31391410392E+02  0.99177890020E+01  0.84461088874E+01  0.33987055483E+02  0.00000000000E+00 0. -1.
         -3    1    6    6    0  503  0.70097842690E+03  0.59542355162E+03  0.57730715044E+03  0.10859021626E+04  0.00000000000E+00 0.  1.
<mgrwt>
<rscale>  0 0.19659894E+04</rscale>
<asrwt>0</asrwt>
<pdfrwt beam="1">  1        2 0.29382014E+00 0.19659894E+04</pdfrwt>
<pdfrwt beam="2">  1       -1 0.77838432E-01 0.19659894E+04</pdfrwt>
<totfact> 0.13151338E+01</totfact>
</mgrwt>
</event>
<event>
12    6  0.1462228E-007  0.3979395E+04  0.7818608E-02  0.8008716E-01
          2   -1    0    0  501    0  0.00000000000E+00  0.00000000000E+00  0.18628183744E+04  0.18628183744E+04  0.00000000000E+00 0. -1.
         -1   -1    0    0    0  501 -0.00000000000E+00 -0.00000000000E+00 -0.21252180936E+04  0.21252180936E+04  0.00000000000E+00 0.  1.
         24    2    1    2    0    0 -0.18360597039E+04 -0.11709247920E+03  0.29619639421E+03  0.18651824349E+04  0.79670110842E+02 0.  0.
        254    2    1    2    0    0  0.18360597039E+04  0.11709247920E+03 -0.55859611344E+03  0.21228540331E+04  0.89980761435E+03 0.  0.
         23    2    4    4    0    0  0.40139673532E+03  0.30704958045E+03 -0.42510600741E+03  0.66660380790E+03  0.90811536656E+02 0.  0.
         23    2    4    4    0    0  0.14346629686E+04 -0.18995710125E+03 -0.13349010602E+03  0.14562502252E+04  0.92214837103E+02 0.  0.
          2    1    3    3  502    0 -0.84334148564E+03 -0.73814072246E+02  0.10152709078E+03  0.85263188354E+03  0.00000000000E+00 0. -1.
         -1    1    3    3    0  502 -0.99271821828E+03 -0.43278406957E+02  0.19466930344E+03  0.10125505514E+04  0.00000000000E+00 0.  1.
         11    1    5    5    0    0  0.27988112865E+03  0.20775445874E+03 -0.34494423230E+03  0.49038952344E+03  0.00000000000E+00 0.  1.
        -11    1    5    5    0    0  0.12151560667E+03  0.99295121708E+02 -0.80161775113E+02  0.17621428446E+03  0.00000000000E+00 0. -1.
          1    1    6    6  503    0  0.97834417377E+03 -0.16880782228E+03 -0.73472351856E+02  0.99551574056E+03  0.00000000000E+00 0. -1.
         -1    1    6    6    0  503  0.45631879483E+03 -0.21149278967E+02 -0.60017754168E+02  0.46073448464E+03  0.00000000000E+00 0.  1.
<mgrwt>
<rscale>  0 0.39793946E+04</rscale>
<asrwt>0</asrwt>
<pdfrwt beam="1">  1        2 0.28658744E+00 0.39793946E+04</pdfrwt>
<pdfrwt beam="2">  1       -1 0.32695663E+00 0.39793946E+04</pdfrwt>
<totfact> 0.15780741E-01</totfact>
</mgrwt>
</event>
<event>
12    6  0.1462228E-007  0.2034426E+04  0.7818608E-02  0.8590692E-01
         -1   -1    0    0    0  501 -0.00000000000E+00  0.00000000000E+00  0.20837465074E+03  0.20837465074E+03  0.00000000000E+00 0.  1.
          2   -1    0    0  501    0  0.00000000000E+00 -0.00000000000E+00 -0.49656829708E+04  0.49656829708E+04  0.00000000000E+00 0. -1.
         24    2    1    2    0    0 -0.38066950746E+03 -0.64100984316E+03 -0.26861512658E+04  0.27889016004E+04  0.82222995481E+02 0.  0.
        254    2    1    2    0    0  0.38066950746E+03  0.64100984316E+03 -0.20711570543E+04  0.23851560211E+04  0.91840884625E+03 0.  0.
         23    2    4    4    0    0  0.30249335635E+03 -0.11733838497E+03 -0.28612152731E+03  0.44176235392E+03  0.89542848549E+02 0.  0.
         23    2    4    4    0    0  0.78176151107E+02  0.75834822813E+03 -0.17850355269E+04  0.19433936672E+04  0.96039406704E+02 0.  0.
          4    1    3    3  502    0 -0.80876165106E+02 -0.18818057731E+03 -0.83313603838E+03  0.85794437012E+03  0.00000000000E+00 0. -1.
         -3    1    3    3    0  502 -0.29979334235E+03 -0.45282926585E+03 -0.18530152274E+04  0.19309572302E+04  0.00000000000E+00 0.  1.
         11    1    5    5    0    0  0.27886597740E+03 -0.10610822359E+03 -0.22016432491E+03  0.37080657819E+03  0.00000000000E+00 0. -1.
        -11    1    5    5    0    0  0.23627378950E+02 -0.11230161376E+02 -0.65957202406E+02  0.70955775733E+02  0.00000000000E+00 0.  1.
          3    1    6    6  503    0  0.96633023620E+02  0.67193958526E+03 -0.16118214572E+04  0.17489451556E+04  0.00000000000E+00 0. -1.
         -3    1    6    6    0  503 -0.18456872513E+02  0.86408642874E+02 -0.17321406977E+03  0.19444851162E+03  0.00000000000E+00 0.  1.
<mgrwt>
<rscale>  0 0.20344262E+04</rscale>
<asrwt>0</asrwt>
<pdfrwt beam="1">  1        2 0.76395121E+00 0.20344262E+04</pdfrwt>
<pdfrwt beam="2">  1       -1 0.32057639E-01 0.20344262E+04</pdfrwt>
<totfact> 0.37129838E-01</totfact>
</mgrwt>
</event>
<event>
12    6  0.1462228E-007  0.2390008E+04  0.7818608E-02  0.8443254E-01
         -1   -1    0    0    0  501 -0.00000000000E+00  0.00000000000E+00  0.80855137206E+03  0.80855137206E+03  0.00000000000E+00 0.  1.
          2   -1    0    0  501    0  0.00000000000E+00 -0.00000000000E+00 -0.17661640080E+04  0.17661640080E+04  0.00000000000E+00 0. -1.
         24    2    1    2    0    0 -0.65243017444E+03  0.48041279427E+03 -0.10865679586E+04  0.13577606491E+04  0.80140289456E+02 0.  0.
        254    2    1    2    0    0  0.65243017444E+03 -0.48041279427E+03  0.12895532268E+03  0.12169547310E+04  0.89882576545E+03 0.  0.
         23    2    4    4    0    0  0.57019477241E+02 -0.34768014466E+03  0.40199184513E+03  0.54230099896E+03  0.91434272253E+02 0.  0.
         23    2    4    4    0    0  0.59541069720E+03 -0.13273264961E+03 -0.27303652245E+03  0.67465373204E+03  0.92069869960E+02 0.  0.
          2    1    3    3  502    0 -0.49090628545E+03  0.32089046918E+03 -0.75809638890E+03  0.95847264393E+03  0.00000000000E+00 0. -1.
         -1    1    3    3    0  502 -0.16152388899E+03  0.15952232509E+03 -0.32847156973E+03  0.39928800513E+03  0.00000000000E+00 0.  1.
         11    1    5    5    0    0  0.36842731375E+02 -0.57347872996E+02  0.11425423269E+03  0.13304208011E+03  0.00000000000E+00 0.  1.
        -11    1    5    5    0    0  0.20176745865E+02 -0.29033227167E+03  0.28773761245E+03  0.40925891885E+03  0.00000000000E+00 0. -1.
          3    1    6    6  503    0  0.35506144943E+03 -0.36152947164E+02 -0.17718847553E+03  0.39846132098E+03  0.00000000000E+00 0. -1.
         -3    1    6    6    0  503  0.24034924777E+03 -0.96579702442E+02 -0.95848046923E+02  0.27619241106E+03  0.00000000000E+00 0.  1.
<mgrwt>
<rscale>  0 0.23900078E+04</rscale>
<asrwt>0</asrwt>
<pdfrwt beam="1">  1        2 0.27171754E+00 0.23900078E+04</pdfrwt>
<pdfrwt beam="2">  1       -1 0.12439252E+00 0.23900078E+04</pdfrwt>
<totfact> 0.52293609E+00</totfact>
</mgrwt>
</event>
<event>
12    6  0.1462228E-007  0.1660303E+04  0.7818608E-02  0.8784335E-01
          2   -1    0    0  501    0  0.00000000000E+00  0.00000000000E+00  0.32345552902E+04  0.32345552902E+04  0.00000000000E+00 0. -1.
         -1   -1    0    0    0  501 -0.00000000000E+00 -0.00000000000E+00 -0.21305903888E+03  0.21305903888E+03  0.00000000000E+00 0.  1.
         24    2    1    2    0    0  0.16023126932E+03  0.39298511307E+01 -0.91028432169E+02  0.20219828604E+03  0.83117194483E+02 0.  0.
        254    2    1    2    0    0 -0.16023126932E+03 -0.39298511307E+01  0.31125246835E+04  0.32454160431E+04  0.90511097867E+03 0.  0.
         23    2    4    4    0    0 -0.46403950104E+02 -0.43294690706E+03  0.18771820723E+04  0.19291721153E+04  0.91083297187E+02 0.  0.
         23    2    4    4    0    0 -0.11382731921E+03  0.42901705593E+03  0.12353426112E+04  0.13162439278E+04  0.97027920613E+02 0.  0.
          2    1    3    3  502    0  0.28827342687E+02  0.28827601048E+02 -0.45087467332E+02  0.60785902798E+02  0.00000000000E+00 0. -1.
         -1    1    3    3    0  502  0.13140392663E+03 -0.24897749917E+02 -0.45940964837E+02  0.14141238324E+03  0.00000000000E+00 0.  1.
         11    1    5    5    0    0 -0.55383472301E+02 -0.42029858643E+03  0.18492693119E+04  0.18972388407E+04  0.00000000000E+00 0. -1.
        -11    1    5    5    0    0  0.89795221964E+01 -0.12648320631E+02  0.27912760356E+02  0.31933274563E+02  0.00000000000E+00 0.  1.
          4    1    6    6  503    0 -0.17720832869E+02  0.22448336510E+03  0.53894535260E+03  0.58409665485E+03  0.00000000000E+00 0. -1.
         -4    1    6    6    0  503 -0.96106486342E+02  0.20453369084E+03  0.69639725862E+03  0.73214727290E+03  0.00000000000E+00 0.  1.
<mgrwt>
<rscale>  0 0.16603027E+04</rscale>
<asrwt>0</asrwt>
<pdfrwt beam="1">  1        2 0.49762386E+00 0.16603027E+04</pdfrwt>
<pdfrwt beam="2">  1       -1 0.32778316E-01 0.16603027E+04</pdfrwt>
<totfact> 0.11759239E+01</totfact>
</mgrwt>
</event>
<event>
12    6  0.1462228E-007  0.1614939E+04  0.7818608E-02  0.8811423E-01
         -1   -1    0    0    0  501 -0.00000000000E+00  0.00000000000E+00  0.68848153441E+03  0.68848153441E+03  0.00000000000E+00 0.  1.
          2   -1    0    0  501    0  0.00000000000E+00 -0.00000000000E+00 -0.94702157579E+03  0.94702157579E+03  0.00000000000E+00 0. -1.
         24    2    1    2    0    0  0.20855788494E+03  0.47949099754E+03 -0.27358665294E+03  0.59543592406E+03  0.79286032179E+02 0.  0.
        254    2    1    2    0    0 -0.20855788494E+03 -0.47949099754E+03  0.15046611555E+02  0.10400671861E+04  0.89894679658E+03 0.  0.
         23    2    4    4    0    0 -0.12259419471E+03 -0.65681175064E+03 -0.23130531460E+03  0.71300896710E+03  0.91916408980E+02 0.  0.
         23    2    4    4    0    0 -0.85963690229E+02  0.17732075310E+03  0.24635192615E+03  0.32705821905E+03  0.86286740657E+02 0.  0.
          4    1    3    3  502    0  0.17855614769E+01 -0.29782040031E+01 -0.41549470103E+01  0.54149343053E+01  0.00000000000E+00 0. -1.
         -3    1    3    3    0  502  0.20677232346E+03  0.48246920154E+03 -0.26943170593E+03  0.59002098975E+03  0.00000000000E+00 0.  1.
         11    1    5    5    0    0 -0.10060613349E+03 -0.52240593737E+03 -0.22210240861E+03  0.57650588670E+03  0.00000000000E+00 0.  1.
        -11    1    5    5    0    0 -0.21988061219E+02 -0.13440581327E+03 -0.92029059884E+01  0.13650308039E+03  0.00000000000E+00 0. -1.
          1    1    6    6  503    0 -0.19358323728E+02  0.10943724674E+03  0.85596865244E+02  0.14027857645E+03  0.00000000000E+00 0. -1.
         -1    1    6    6    0  503 -0.66605366501E+02  0.67883506358E+02  0.16075506091E+03  0.18677964260E+03  0.00000000000E+00 0.  1.
<mgrwt>
<rscale>  0 0.16149388E+04</rscale>
<asrwt>0</asrwt>
<pdfrwt beam="1">  1        2 0.14569563E+00 0.16149388E+04</pdfrwt>
<pdfrwt beam="2">  1       -1 0.10592024E+00 0.16149388E+04</pdfrwt>
<totfact> 0.24872385E+01</totfact>
</mgrwt>
</event>
<event>
12    6  0.1462228E-007  0.1277739E+04  0.7818608E-02  0.9047407E-01
         -1   -1    0    0    0  501 -0.00000000000E+00  0.00000000000E+00  0.30809472565E+03  0.30809472565E+03  0.00000000000E+00 0.  1.
          2   -1    0    0  501    0  0.00000000000E+00 -0.00000000000E+00 -0.13247678674E+04  0.13247678674E+04  0.00000000000E+00 0. -1.
         24    2    1    2    0    0 -0.96892088213E+02 -0.28632442566E+03 -0.29508093544E+03  0.42981998623E+03  0.79389600140E+02 0.  0.
        254    2    1    2    0    0  0.96892088213E+02  0.28632442566E+03 -0.72159220631E+03  0.12030426068E+04  0.91391818460E+03 0.  0.
         23    2    4    4    0    0 -0.93734781906E+02  0.53282855863E+03 -0.19194071439E+03  0.58146105201E+03  0.92537748708E+02 0.  0.
         23    2    4    4    0    0  0.19062687012E+03 -0.24650413297E+03 -0.52965149193E+03  0.62158155482E+03  0.93434657436E+02 0.  0.
          2    1    3    3  502    0 -0.10376429040E+03 -0.28141825460E+03 -0.27074942884E+03  0.40406498884E+03  0.00000000000E+00 0. -1.
         -1    1    3    3    0  502  0.68722021835E+01 -0.49061710618E+01 -0.24331506596E+02  0.25754997390E+02  0.00000000000E+00 0.  1.
         11    1    5    5    0    0 -0.57742163752E+02  0.12639173687E+03 -0.70058215781E+02  0.15561870782E+03  0.00000000000E+00 0.  1.
        -11    1    5    5    0    0 -0.35992618154E+02  0.40643682176E+03 -0.12188249861E+03  0.42584234419E+03  0.00000000000E+00 0. -1.
          3    1    6    6  503    0  0.18844410234E+03 -0.20089156614E+03 -0.41416358797E+03  0.49739328368E+03  0.00000000000E+00 0. -1.
         -3    1    6    6    0  503  0.21827677809E+01 -0.45612566829E+02 -0.11548790395E+03  0.12418827114E+03  0.00000000000E+00 0.  1.
<mgrwt>
<rscale>  0 0.12777386E+04</rscale>
<asrwt>0</asrwt>
<pdfrwt beam="1">  1        2 0.20381044E+00 0.12777386E+04</pdfrwt>
<pdfrwt beam="2">  1       -1 0.47399189E-01 0.12777386E+04</pdfrwt>
<totfact> 0.79453180E+01</totfact>
</mgrwt>
</event>
<event>
12    6  0.1462228E-007  0.2100764E+04  0.7818608E-02  0.8560907E-01
         -1   -1    0    0    0  501 -0.00000000000E+00  0.00000000000E+00  0.28092886541E+03  0.28092886541E+03  0.00000000000E+00 0.  1.
          2   -1    0    0  501    0  0.00000000000E+00 -0.00000000000E+00 -0.39273362661E+04  0.39273362661E+04  0.00000000000E+00 0. -1.
         24    2    1    2    0    0 -0.21036413117E+03  0.42013730805E+03 -0.29238606610E+04  0.29623570556E+04  0.76352702089E+02 0.  0.
        254    2    1    2    0    0  0.21036413117E+03 -0.42013730805E+03 -0.72254673969E+03  0.12459080758E+04  0.89969145661E+03 0.  0.
         23    2    4    4    0    0 -0.15435247075E+03 -0.27387412651E+03 -0.77296537933E+03  0.83929115117E+03  0.90013534514E+02 0.  0.
         23    2    4    4    0    0  0.36471660192E+03 -0.14626318154E+03  0.50418639638E+02  0.40661692466E+03  0.91565092767E+02 0.  0.
          2    1    3    3  502    0 -0.18610955474E+03  0.29998511672E+03 -0.21145688299E+04  0.21438351553E+04  0.00000000000E+00 0. -1.
         -3    1    3    3    0  502 -0.24254576427E+02  0.12015219133E+03 -0.80929183102E+03  0.81852190033E+03  0.00000000000E+00 0.  1.
         11    1    5    5    0    0 -0.12474285238E+01  0.57053291461E+01 -0.46101508973E+01  0.74404536073E+01  0.00000000000E+00 0. -1.
        -11    1    5    5    0    0 -0.15310504222E+03 -0.27957945566E+03 -0.76835522844E+03  0.83185069757E+03  0.00000000000E+00 0.  1.
          1    1    6    6  503    0  0.13616395103E+02 -0.23019161720E+02 -0.12002898457E+02  0.29314801607E+02  0.00000000000E+00 0. -1.
         -1    1    6    6    0  503  0.35110020681E+03 -0.12324401982E+03  0.62421538095E+02  0.37730212306E+03  0.00000000000E+00 0.  1.
<mgrwt>
<rscale>  0 0.21007638E+04</rscale>
<asrwt>0</asrwt>
<pdfrwt beam="1">  1        2 0.60420559E+00 0.21007638E+04</pdfrwt>
<pdfrwt beam="2">  1       -1 0.43219824E-01 0.21007638E+04</pdfrwt>
<totfact> 0.21835725E+00</totfact>
</mgrwt>
</event>
<event>
12    6  0.1462228E-007  0.2197169E+04  0.7818608E-02  0.8519607E-01
          2   -1    0    0  501    0  0.00000000000E+00  0.00000000000E+00  0.21201782060E+04  0.21201782060E+04  0.00000000000E+00 0. -1.
         -1   -1    0    0    0  501 -0.00000000000E+00 -0.00000000000E+00 -0.56923908426E+03  0.56923908426E+03  0.00000000000E+00 0.  1.
         24    2    1    2    0    0 -0.32414259089E+03  0.77822114627E+03  0.19360182888E+03  0.86865740370E+03  0.79921493508E+02 0.  0.
        254    2    1    2    0    0  0.32414259089E+03 -0.77822114627E+03  0.13573372929E+04  0.18207598866E+04  0.87298652124E+03 0.  0.
         23    2    4    4    0    0 -0.20787819410E+03 -0.40834323494E+03  0.92510087848E+03  0.10365285400E+04  0.92856005040E+02 0.  0.
         23    2    4    4    0    0  0.53202078499E+03 -0.36987791133E+03  0.43223641443E+03  0.78423134666E+03  0.91294590092E+02 0.  0.
          4    1    3    3  502    0 -0.75520319676E+02  0.27650618109E+03  0.75270244120E+02  0.29635214950E+03  0.00000000000E+00 0. -1.
         -3    1    3    3    0  502 -0.24862227121E+03  0.50171496518E+03  0.11833158476E+03  0.57230525420E+03  0.00000000000E+00 0.  1.
         11    1    5    5    0    0 -0.95846209146E+02 -0.24558999869E+03  0.44300139949E+03  0.51551060437E+03  0.00000000000E+00 0. -1.
        -11    1    5    5    0    0 -0.11203198495E+03 -0.16275323625E+03  0.48209947898E+03  0.52101793558E+03  0.00000000000E+00 0.  1.
          4    1    6    6  503    0  0.28372976551E+03 -0.25023664712E+03  0.23587291118E+03  0.44582170161E+03  0.00000000000E+00 0. -1.
         -4    1    6    6    0  503  0.24829101948E+03 -0.11964126420E+03  0.19636350325E+03  0.33840964505E+03  0.00000000000E+00 0.  1.
<mgrwt>
<rscale>  0 0.21971694E+04</rscale>
<asrwt>0</asrwt>
<pdfrwt beam="1">  1        2 0.32618126E+00 0.21971694E+04</pdfrwt>
<pdfrwt beam="2">  1       -1 0.87575245E-01 0.21971694E+04</pdfrwt>
<totfact> 0.76411045E+00</totfact>
</mgrwt>
</event>
<event>
12    6  0.1462228E-007  0.1478546E+04  0.7818608E-02  0.8898846E-01
         -1   -1    0    0    0  501 -0.00000000000E+00  0.00000000000E+00  0.12342298402E+04  0.12342298402E+04  0.00000000000E+00 0.  1.
          2   -1    0    0  501    0  0.00000000000E+00 -0.00000000000E+00 -0.44280627568E+03  0.44280627568E+03  0.00000000000E+00 0. -1.
         24    2    1    2    0    0 -0.39343404811E+03  0.25070583152E+03  0.19646460466E+03  0.51215707187E+03  0.77863734918E+02 0.  0.
        254    2    1    2    0    0  0.39343404811E+03 -0.25070583152E+03  0.59495895987E+03  0.11648790440E+04  0.88618466421E+03 0.  0.
         23    2    4    4    0    0  0.24532006756E+03 -0.54108946444E+03  0.17516579627E+03  0.62523474357E+03  0.85297621937E+02 0.  0.
         23    2    4    4    0    0  0.14811398055E+03  0.29038363292E+03  0.41979316360E+03  0.53964430044E+03  0.93430537224E+02 0.  0.
          4    1    3    3  502    0 -0.38604624308E+03  0.22818105743E+03  0.19296638333E+03  0.48819496296E+03  0.00000000000E+00 0. -1.
         -3    1    3    3    0  502 -0.73878050286E+01  0.22524774088E+02  0.34982213268E+01  0.23962108908E+02  0.00000000000E+00 0.  1.
         11    1    5    5    0    0  0.72264119446E+01 -0.75460300074E+02  0.36816555134E+02  0.84272988845E+02  0.00000000000E+00 0.  1.
        -11    1    5    5    0    0  0.23809365561E+03 -0.46562916437E+03  0.13834924114E+03  0.54096175473E+03  0.00000000000E+00 0. -1.
          2    1    6    6  503    0  0.36976478348E+02  0.14369521948E+02  0.69595088366E+02  0.80107549186E+02  0.00000000000E+00 0.  1.
         -2    1    6    6    0  503  0.11113750220E+03  0.27601411098E+03  0.35019807524E+03  0.45953675125E+03  0.00000000000E+00 0. -1.
<mgrwt>
<rscale>  0 0.14785462E+04</rscale>
<asrwt>0</asrwt>
<pdfrwt beam="1">  1        2 0.68124043E-01 0.14785462E+04</pdfrwt>
<pdfrwt beam="2">  1       -1 0.18988151E+00 0.14785462E+04</pdfrwt>
<totfact> 0.13879587E+01</totfact>
</mgrwt>
</event>
<event>
12    6  0.1462228E-007  0.1685919E+04  0.7818608E-02  0.8769436E-01
          2   -1    0    0  501    0  0.00000000000E+00  0.00000000000E+00  0.84984008213E+03  0.84984008213E+03  0.00000000000E+00 0. -1.
         -1   -1    0    0    0  501 -0.00000000000E+00 -0.00000000000E+00 -0.83613476007E+03  0.83613476007E+03  0.00000000000E+00 0.  1.
         24    2    1    2    0    0 -0.56905292936E+03 -0.15411996664E+03  0.84554629720E+02  0.60134974702E+03  0.83053189665E+02 0.  0.
        254    2    1    2    0    0  0.56905292936E+03  0.15411996664E+03 -0.70849307661E+02  0.10846250952E+04  0.90764407790E+03 0.  0.
         23    2    4    4    0    0  0.30529863084E+03 -0.91099056069E+02  0.37779095873E+03  0.50217251746E+03  0.89134374839E+02 0.  0.
         23    2    4    4    0    0  0.26375429851E+03  0.24521902271E+03 -0.44864026639E+03  0.58245257771E+03  0.90962726288E+02 0.  0.
          4    1    3    3  502    0 -0.54865916472E+03 -0.15764696761E+03  0.68093816238E+02  0.57490539503E+03  0.00000000000E+00 0. -1.
         -3    1    3    3    0  502 -0.20393764639E+02  0.35270009678E+01  0.16460813481E+02  0.26444351995E+02  0.00000000000E+00 0.  1.
         11    1    5    5    0    0  0.28468796187E+03 -0.77766919378E+02  0.30094243873E+03  0.42149885031E+03  0.00000000000E+00 0. -1.
        -11    1    5    5    0    0  0.20610668971E+02 -0.13332136691E+02  0.76848520004E+02  0.80673667148E+02  0.00000000000E+00 0.  1.
          2    1    6    6  503    0  0.12016670124E+03  0.17103622819E+03 -0.23395552925E+03  0.31373335351E+03  0.00000000000E+00 0. -1.
         -2    1    6    6    0  503  0.14358759727E+03  0.74182794525E+02 -0.21468473714E+03  0.26871922420E+03  0.00000000000E+00 0.  1.
<mgrwt>
<rscale>  0 0.16859191E+04</rscale>
<asrwt>0</asrwt>
<pdfrwt beam="1">  1        2 0.13074463E+00 0.16859191E+04</pdfrwt>
<pdfrwt beam="2">  1       -1 0.12863612E+00 0.16859191E+04</pdfrwt>
<totfact> 0.17981632E+01</totfact>
</mgrwt>
</event>
<event>
12    6  0.1462228E-007  0.1297822E+04  0.7818608E-02  0.9031294E-01
         -1   -1    0    0    0  501 -0.00000000000E+00  0.00000000000E+00  0.33238733671E+03  0.33238733671E+03  0.00000000000E+00 0.  1.
          2   -1    0    0  501    0  0.00000000000E+00 -0.00000000000E+00 -0.12668509379E+04  0.12668509379E+04  0.00000000000E+00 0. -1.
         24    2    1    2    0    0 -0.52692427736E+02 -0.19933712046E+03 -0.57218053016E+03  0.61349535893E+03  0.80462517992E+02 0.  0.
        254    2    1    2    0    0  0.52692427736E+02  0.19933712046E+03 -0.36228307106E+03  0.98574291570E+03  0.89326832069E+03 0.  0.
         23    2    4    4    0    0  0.38892028050E+03 -0.45427122975E+02 -0.38772387514E+03  0.55877016790E+03  0.92583416962E+02 0.  0.
         23    2    4    4    0    0 -0.33622785277E+03  0.24476424344E+03  0.25440804072E+02  0.42697274780E+03  0.93272659510E+02 0.  0.
          2    1    3    3  502    0 -0.40627132467E+02 -0.99795728186E+02 -0.19046811916E+03  0.21883294010E+03  0.00000000000E+00 0. -1.
         -1    1    3    3    0  502 -0.12065295269E+02 -0.99541392274E+02 -0.38171241100E+03  0.39466241883E+03  0.00000000000E+00 0.  1.
         11    1    5    5    0    0  0.14224700332E+03 -0.61335332345E+02 -0.15935469763E+03  0.22223895384E+03  0.00000000000E+00 0. -1.
        -11    1    5    5    0    0  0.24667327718E+03  0.15908209370E+02 -0.22836917751E+03  0.33653121406E+03  0.00000000000E+00 0.  1.
          2    1    6    6  503    0 -0.23667272877E+03  0.19111381254E+03  0.57143808993E+02  0.30952202635E+03  0.00000000000E+00 0. -1.
         -2    1    6    6    0  503 -0.99555123994E+02  0.53650430895E+02 -0.31703004922E+02  0.11745072145E+03  0.00000000000E+00 0.  1.
<mgrwt>
<rscale>  0 0.12978216E+04</rscale>
<asrwt>0</asrwt>
<pdfrwt beam="1">  1        2 0.19490015E+00 0.12978216E+04</pdfrwt>
<pdfrwt beam="2">  1       -1 0.51136513E-01 0.12978216E+04</pdfrwt>
<totfact> 0.74267883E+01</totfact>
</mgrwt>
</event>
<event>
12    6  0.1462228E-007  0.1486186E+04  0.7818608E-02  0.8893692E-01
          2   -1    0    0  501    0  0.00000000000E+00  0.00000000000E+00  0.79442219673E+03  0.79442219673E+03  0.00000000000E+00 0. -1.
         -1   -1    0    0    0  501 -0.00000000000E+00 -0.00000000000E+00 -0.69507990013E+03  0.69507990013E+03  0.00000000000E+00 0.  1.
         24    2    1    2    0    0  0.11485380691E+03 -0.30533381054E+03  0.36903527970E+03  0.49923154139E+03  0.81393866022E+02 0.  0.
        254    2    1    2    0    0 -0.11485380691E+03  0.30533381054E+03 -0.26969298311E+03  0.99027055548E+03  0.89525489951E+03 0.  0.
         23    2    4    4    0    0  0.37174967589E+03  0.53263352782E+02 -0.40025763257E+02  0.38917093968E+03  0.93899692731E+02 0.  0.
         23    2    4    4    0    0 -0.48660348280E+03  0.25207045776E+03 -0.22966721985E+03  0.60109961580E+03  0.90836397404E+02 0.  0.
          4    1    3    3  502    0  0.94526626496E+02 -0.29137005547E+03  0.36065607991E+03  0.47318558760E+03  0.00000000000E+00 0. -1.
         -1    1    3    3    0  502  0.20327180409E+02 -0.13963755076E+02  0.83791997950E+01  0.26045953782E+02  0.00000000000E+00 0.  1.
         11    1    5    5    0    0  0.20362197185E+03 -0.13916277304E+02 -0.16882497564E+01  0.20410394504E+03  0.00000000000E+00 0. -1.
        -11    1    5    5    0    0  0.16812770404E+03  0.67179630086E+02 -0.38337513500E+02  0.18506699464E+03  0.00000000000E+00 0.  1.
          3    1    6    6  503    0 -0.33814419774E+03  0.12700401112E+03 -0.14232074461E+03  0.38823538176E+03  0.00000000000E+00 0. -1.
         -3    1    6    6    0  503 -0.14845928506E+03  0.12506644664E+03 -0.87346475239E+02  0.21286423404E+03  0.00000000000E+00 0.  1.
<mgrwt>
<rscale>  0 0.14861856E+04</rscale>
<asrwt>0</asrwt>
<pdfrwt beam="1">  1        2 0.12221880E+00 0.14861856E+04</pdfrwt>
<pdfrwt beam="2">  1       -1 0.10693537E+00 0.14861856E+04</pdfrwt>
<totfact> 0.31330897E+01</totfact>
</mgrwt>
</event>
<event>
12    6  0.1462228E-007  0.1957604E+04  0.7818608E-02  0.8626703E-01
          2   -1    0    0  501    0  0.00000000000E+00  0.00000000000E+00  0.39163968466E+04  0.39163968466E+04  0.00000000000E+00 0. -1.
         -1   -1    0    0    0  501 -0.00000000000E+00 -0.00000000000E+00 -0.24462626924E+03  0.24462626924E+03  0.00000000000E+00 0.  1.
         24    2    1    2    0    0  0.38745715212E+03 -0.61793355716E+03  0.19794775901E+04  0.21109031366E+04  0.74937285647E+02 0.  0.
        254    2    1    2    0    0 -0.38745715212E+03  0.61793355716E+03  0.16922929873E+04  0.20501199792E+04  0.89842720828E+03 0.  0.
         23    2    4    4    0    0 -0.32201700677E+03 -0.90693389430E+02  0.21561937584E+03  0.40835250261E+03  0.91322547140E+02 0.  0.
         23    2    4    4    0    0 -0.65440145358E+02  0.70862694659E+03  0.14766736114E+04  0.16417674766E+04  0.91656589886E+02 0.  0.
          2    1    3    3  502    0  0.36315581183E+03 -0.54784337907E+03  0.17309665716E+04  0.18515560438E+04  0.00000000000E+00 0. -1.
         -1    1    3    3    0  502  0.24301340298E+02 -0.70090178093E+02  0.24851101851E+03  0.25934709276E+03  0.00000000000E+00 0.  1.
         11    1    5    5    0    0 -0.12394166864E+02 -0.15207175426E+02  0.39815134458E+02  0.44386016814E+02  0.00000000000E+00 0.  1.
        -11    1    5    5    0    0 -0.30962283990E+03 -0.75486214004E+02  0.17580424138E+03  0.36396648580E+03  0.00000000000E+00 0. -1.
          1    1    6    6  503    0 -0.34039698555E+02  0.64996750169E+03  0.13484701319E+04  0.14973270020E+04  0.00000000000E+00 0. -1.
         -1    1    6    6    0  503 -0.31400446803E+02  0.58659444900E+02  0.12820347957E+03  0.14444047462E+03  0.00000000000E+00 0.  1.
<mgrwt>
<rscale>  0 0.19576042E+04</rscale>
<asrwt>0</asrwt>
<pdfrwt beam="1">  1        2 0.60252255E+00 0.19576042E+04</pdfrwt>
<pdfrwt beam="2">  1       -1 0.37634813E-01 0.19576042E+04</pdfrwt>
<totfact> 0.29122677E+00</totfact>
</mgrwt>
</event>
<event>
12    6  0.1462228E-007  0.1735674E+04  0.7818608E-02  0.8741276E-01
         -1   -1    0    0    0  501 -0.00000000000E+00  0.00000000000E+00  0.99098049612E+03  0.99098049612E+03  0.00000000000E+00 0.  1.
          2   -1    0    0  501    0  0.00000000000E+00 -0.00000000000E+00 -0.75999607436E+03  0.75999607436E+03  0.00000000000E+00 0. -1.
         24    2    1    2    0    0  0.25342088989E+03  0.28950053511E+03  0.58274333567E+03  0.70281337361E+03  0.79524433978E+02 0.  0.
        254    2    1    2    0    0 -0.25342088989E+03 -0.28950053511E+03 -0.35175891390E+03  0.10481631969E+04  0.90932889896E+03 0.  0.
         23    2    4    4    0    0  0.26793759748E+03 -0.34520819873E+02 -0.36198649957E+03  0.46058197069E+03  0.90107062435E+02 0.  0.
         23    2    4    4    0    0 -0.52135848737E+03 -0.25497971524E+03  0.10227585670E+02  0.58758122618E+03  0.91201788966E+02 0.  0.
          4    1    3    3  502    0  0.88314235912E+02  0.15195136462E+03  0.22525651623E+03  0.28570810205E+03  0.00000000000E+00 0. -1.
         -3    1    3    3    0  502  0.16510665398E+03  0.13754917049E+03  0.35748681944E+03  0.41710527156E+03  0.00000000000E+00 0.  1.
         11    1    5    5    0    0  0.92871085529E+02  0.57575592860E+00 -0.62615993784E+02  0.11200952058E+03  0.00000000000E+00 0. -1.
        -11    1    5    5    0    0  0.17506651195E+03 -0.35096575802E+02 -0.29937050579E+03  0.34857245011E+03  0.00000000000E+00 0.  1.
          2    1    6    6  503    0 -0.88997282875E+02 -0.51997538421E+02 -0.32396196168E+02  0.10804524000E+03  0.00000000000E+00 0. -1.
         -2    1    6    6    0  503 -0.43236120450E+03 -0.20298217682E+03  0.42623781838E+02  0.47953598618E+03  0.00000000000E+00 0.  1.
<mgrwt>
<rscale>  0 0.17356743E+04</rscale>
<asrwt>0</asrwt>
<pdfrwt beam="1">  1        2 0.11692247E+00 0.17356743E+04</pdfrwt>
<pdfrwt beam="2">  1       -1 0.15245854E+00 0.17356743E+04</pdfrwt>
<totfact> 0.13332153E+01</totfact>
</mgrwt>
</event>
<event>
12    6  0.1462228E-007  0.2779782E+04  0.7818608E-02  0.8309573E-01
          2   -1    0    0  501    0  0.00000000000E+00  0.00000000000E+00  0.19162005159E+04  0.19162005159E+04  0.00000000000E+00 0. -1.
         -1   -1    0    0    0  501 -0.00000000000E+00 -0.00000000000E+00 -0.10081391755E+04  0.10081391755E+04  0.00000000000E+00 0.  1.
         24    2    1    2    0    0 -0.81410285662E+03  0.44520209567E+03 -0.45883677319E+03  0.10381948014E+04  0.79679947564E+02 0.  0.
        254    2    1    2    0    0  0.81410285662E+03 -0.44520209567E+03  0.13668981136E+04  0.18861448900E+04  0.91003501359E+03 0.  0.
         23    2    4    4    0    0  0.48671329139E+03 -0.71093703412E+03  0.85829690496E+03  0.12191954085E+04  0.86270346117E+02 0.  0.
         23    2    4    4    0    0  0.32738956523E+03  0.26573493845E+03  0.50860120869E+03  0.66694948150E+03  0.91364306275E+02 0.  0.
          2    1    3    3  502    0 -0.34735764912E+03  0.16592093237E+03 -0.15345114866E+03  0.41440843045E+03  0.00000000000E+00 0. -1.
         -1    1    3    3    0  502 -0.46674520751E+03  0.27928116330E+03 -0.30538562452E+03  0.62378637094E+03  0.00000000000E+00 0.  1.
         11    1    5    5    0    0  0.40347354842E+03 -0.53900408460E+03  0.63717513233E+03  0.92698891943E+03  0.00000000000E+00 0.  1.
        -11    1    5    5    0    0  0.83239742969E+02 -0.17193294953E+03  0.22112177263E+03  0.29220648910E+03  0.00000000000E+00 0. -1.
          4    1    6    6  503    0  0.79054364217E+02  0.19596040721E+02  0.10687465342E+03  0.13437183059E+03  0.00000000000E+00 0. -1.
         -4    1    6    6    0  503  0.24833520102E+03  0.24613889773E+03  0.40172655527E+03  0.53257765091E+03  0.00000000000E+00 0.  1.
<mgrwt>
<rscale>  0 0.27797819E+04</rscale>
<asrwt>0</asrwt>
<pdfrwt beam="1">  1        2 0.29480008E+00 0.27797819E+04</pdfrwt>
<pdfrwt beam="2">  1       -1 0.15509833E+00 0.27797819E+04</pdfrwt>
<totfact> 0.23498774E+00</totfact>
</mgrwt>
</event>
<event>
12    6  0.1462228E-007  0.2993918E+04  0.7818608E-02  0.8245470E-01
         -3   -1    0    0    0  501 -0.00000000000E+00  0.00000000000E+00  0.23973493482E+04  0.23973493482E+04  0.00000000000E+00 0.  1.
          2   -1    0    0  501    0  0.00000000000E+00 -0.00000000000E+00 -0.93473516365E+03  0.93473516365E+03  0.00000000000E+00 0. -1.
         24    2    1    2    0    0  0.71574433165E+03 -0.11462593336E+04  0.55943902669E+03  0.14662892190E+04  0.10407517008E+03 0.  0.
        254    2    1    2    0    0 -0.71574433165E+03  0.11462593336E+04  0.90317515788E+03  0.18657952929E+04  0.91611478598E+03 0.  0.
         23    2    4    4    0    0 -0.61465032839E+03  0.11450086871E+04  0.43067510676E+03  0.13720830920E+04  0.91055170248E+02 0.  0.
         23    2    4    4    0    0 -0.10109400326E+03  0.12506464831E+01  0.47250005112E+03  0.49371220091E+03  0.10136013715E+03 0.  0.
          4    1    3    3  502    0  0.70781762866E+02 -0.16660493403E+03  0.98357081192E+02  0.20601305157E+03  0.00000000000E+00 0. -1.
         -3    1    3    3    0  502  0.64496256878E+03 -0.97965439954E+03  0.46108194550E+03  0.12602761674E+04  0.00000000000E+00 0.  1.
         11    1    5    5    0    0 -0.43949661212E+03  0.89981766259E+03  0.33087237791E+03  0.10546590105E+04  0.00000000000E+00 0. -1.
        -11    1    5    5    0    0 -0.17515371627E+03  0.24519102450E+03  0.99802728843E+02  0.31742408148E+03  0.00000000000E+00 0.  1.
          4    1    6    6  503    0 -0.72984174211E+02 -0.19746987458E+01  0.12276867675E+03  0.14283815006E+03  0.00000000000E+00 0. -1.
         -4    1    6    6    0  503 -0.28109829045E+02  0.32253452290E+01  0.34973137437E+03  0.35087405085E+03  0.00000000000E+00 0.  1.
<mgrwt>
<rscale>  0 0.29939183E+04</rscale>
<asrwt>0</asrwt>
<pdfrwt beam="1">  1        2 0.14380541E+00 0.29939183E+04</pdfrwt>
<pdfrwt beam="2">  1       -3 0.36882297E+00 0.29939183E+04</pdfrwt>
<totfact> 0.23357122E-01</totfact>
</mgrwt>
</event>
<event>
12    6  0.1462228E-007  0.2362941E+04  0.7818608E-02  0.8453510E-01
          2   -1    0    0  501    0  0.00000000000E+00  0.00000000000E+00  0.74138246616E+03  0.74138246616E+03  0.00000000000E+00 0. -1.
         -1   -1    0    0    0  501 -0.00000000000E+00 -0.00000000000E+00 -0.18827970300E+04  0.18827970300E+04  0.00000000000E+00 0.  1.
         24    2    1    2    0    0  0.36091505363E+03  0.57103240791E+03  0.34184954608E+03  0.76202402877E+03  0.86497522735E+02 0.  0.
        254    2    1    2    0    0 -0.36091505363E+03 -0.57103240791E+03 -0.14832641099E+04  0.18621554674E+04  0.90067356913E+03 0.  0.
         23    2    4    4    0    0 -0.58566562113E+03 -0.22745378391E+03 -0.11924970663E+04  0.13510187279E+04  0.91994056859E+02 0.  0.
         23    2    4    4    0    0  0.22475056751E+03 -0.34357862400E+03 -0.29076704363E+03  0.51113673947E+03  0.90311706354E+02 0.  0.
          4    1    3    3  502    0  0.16216071017E+03  0.22107914201E+03  0.18146227479E+03  0.32878661792E+03  0.00000000000E+00 0. -1.
         -3    1    3    3    0  502  0.19875434346E+03  0.34995326591E+03  0.16038727129E+03  0.43323741084E+03  0.00000000000E+00 0.  1.
         11    1    5    5    0    0 -0.21896738077E+03 -0.12299385290E+03 -0.41534506223E+03  0.48537173631E+03  0.00000000000E+00 0. -1.
        -11    1    5    5    0    0 -0.36669824037E+03 -0.10445993101E+03 -0.77715200403E+03  0.86564699159E+03  0.00000000000E+00 0.  1.
          1    1    6    6  503    0  0.64886781756E+02 -0.43466612426E+02 -0.75887131187E+02  0.10889672870E+03  0.00000000000E+00 0. -1.
         -1    1    6    6    0  503  0.15986378575E+03 -0.30011201158E+03 -0.21487991244E+03  0.40224001076E+03  0.00000000000E+00 0.  1.
<mgrwt>
<rscale>  0 0.23629411E+04</rscale>
<asrwt>0</asrwt>
<pdfrwt beam="1">  1        2 0.11405884E+00 0.23629411E+04</pdfrwt>
<pdfrwt beam="2">  1       -1 0.28966108E+00 0.23629411E+04</pdfrwt>
<totfact> 0.15096749E+00</totfact>
</mgrwt>
</event>
<event>
12    6  0.1462228E-007  0.1340631E+04  0.7818608E-02  0.8997950E-01
          2   -1    0    0  501    0  0.00000000000E+00  0.00000000000E+00  0.26688728838E+04  0.26688728838E+04  0.00000000000E+00 0. -1.
         -1   -1    0    0    0  501 -0.00000000000E+00 -0.00000000000E+00 -0.16835687592E+03  0.16835687592E+03  0.00000000000E+00 0.  1.
         24    2    1    2    0    0  0.12016923372E+03  0.64571342718E+02  0.14039013644E+04  0.14128218477E+04  0.80724403901E+02 0.  0.
        254    2    1    2    0    0 -0.12016923372E+03 -0.64571342718E+02  0.10966146436E+04  0.14244079121E+04  0.89875698633E+03 0.  0.
         23    2    4    4    0    0 -0.46614147963E+03 -0.14084999119E+03  0.84886205059E+03  0.98290287601E+03  0.91677061927E+02 0.  0.
         23    2    4    4    0    0  0.34597224591E+03  0.76278648469E+02  0.24775259296E+03  0.44150503606E+03  0.89610950213E+02 0.  0.
          2    1    3    3  502    0  0.12841830957E+03  0.72092168831E+02  0.12928496538E+04  0.13012105020E+04  0.00000000000E+00 0. -1.
         -3    1    3    3    0  502 -0.82490758472E+01 -0.75208261133E+01  0.11105171054E+03  0.11161134571E+03  0.00000000000E+00 0.  1.
         11    1    5    5    0    0 -0.32723525811E+03 -0.10794124609E+03  0.67567792007E+03  0.75846877222E+03  0.00000000000E+00 0.  1.
        -11    1    5    5    0    0 -0.13890622151E+03 -0.32908745098E+02  0.17318413052E+03  0.22443410379E+03  0.00000000000E+00 0. -1.
          2    1    6    6  503    0  0.29949346011E+03  0.38496157153E+02  0.22822679232E+03  0.37850463074E+03  0.00000000000E+00 0. -1.
         -2    1    6    6    0  503  0.46478785803E+02  0.37782491316E+02  0.19525800644E+02  0.63000405321E+02  0.00000000000E+00 0.  1.
<mgrwt>
<rscale>  0 0.13406313E+04</rscale>
<asrwt>0</asrwt>
<pdfrwt beam="1">  1        2 0.41059580E+00 0.13406313E+04</pdfrwt>
<pdfrwt beam="2">  1       -1 0.25901060E-01 0.13406313E+04</pdfrwt>
<totfact> 0.40902397E+01</totfact>
</mgrwt>
</event>
<event>
12    6  0.1462228E-007  0.1730945E+04  0.7818608E-02  0.8743910E-01
          2   -1    0    0  501    0  0.00000000000E+00  0.00000000000E+00  0.12732406719E+04  0.12732406719E+04  0.00000000000E+00 0. -1.
         -1   -1    0    0    0  501 -0.00000000000E+00 -0.00000000000E+00 -0.58829603640E+03  0.58829603640E+03  0.00000000000E+00 0.  1.
         24    2    1    2    0    0 -0.11014781575E+03 -0.54854104297E+03  0.57093053105E+03  0.80339279322E+03  0.80302501628E+02 0.  0.
        254    2    1    2    0    0  0.11014781575E+03  0.54854104297E+03  0.11401410449E+03  0.10581439151E+04  0.89086447452E+03 0.  0.
         23    2    4    4    0    0  0.27004556907E+03  0.10831394503E+03  0.39967578133E+03  0.50214701402E+03  0.88058920307E+02 0.  0.
         23    2    4    4    0    0 -0.15989775332E+03  0.44022709794E+03 -0.28566167684E+03  0.55599690111E+03  0.90348055605E+02 0.  0.
          4    1    3    3  502    0 -0.77596833023E+02 -0.30236625104E+03  0.36903342552E+03  0.48335523936E+03  0.00000000000E+00 0. -1.
         -3    1    3    3    0  502 -0.32550982728E+02 -0.24617479193E+03  0.20189710553E+03  0.32003755386E+03  0.00000000000E+00 0.  1.
         11    1    5    5    0    0  0.25010843022E+03  0.78745460070E+02  0.37918691453E+03  0.46101821059E+03  0.00000000000E+00 0. -1.
        -11    1    5    5    0    0  0.19937138852E+02  0.29568484965E+02  0.20488866801E+02  0.41128803429E+02  0.00000000000E+00 0.  1.
          2    1    6    6  503    0 -0.12402586041E+03  0.38665005984E+03 -0.27557299895E+03  0.49073532640E+03  0.00000000000E+00 0. -1.
         -2    1    6    6    0  503 -0.35871892909E+02  0.53577038094E+02 -0.10088677892E+02  0.65261574708E+02  0.00000000000E+00 0.  1.
<mgrwt>
<rscale>  0 0.17309448E+04</rscale>
<asrwt>0</asrwt>
<pdfrwt beam="1">  1        2 0.19588318E+00 0.17309448E+04</pdfrwt>
<pdfrwt beam="2">  1       -1 0.90507083E-01 0.17309448E+04</pdfrwt>
<totfact> 0.22129553E+01</totfact>
</mgrwt>
</event>
<event>
12    6  0.1462228E-007  0.1877171E+04  0.7818608E-02  0.8666304E-01
          2   -1    0    0  501    0  0.00000000000E+00  0.00000000000E+00  0.95382650314E+03  0.95382650314E+03  0.00000000000E+00 0. -1.
         -1   -1    0    0    0  501 -0.00000000000E+00 -0.00000000000E+00 -0.92358845974E+03  0.92358845974E+03  0.00000000000E+00 0.  1.
         24    2    1    2    0    0  0.33698354626E+03 -0.33647291043E+03 -0.52786701392E+03  0.71510505304E+03  0.77199239592E+02 0.  0.
        254    2    1    2    0    0 -0.33698354626E+03  0.33647291043E+03  0.55810505731E+03  0.11623099098E+04  0.90150493156E+03 0.  0.
         23    2    4    4    0    0 -0.76384785124E+02 -0.24182838903E+03 -0.55883120872E+02  0.27468179181E+03  0.89507309255E+02 0.  0.
         23    2    4    4    0    0 -0.26059876114E+03  0.57830129946E+03  0.61398817818E+03  0.88762811804E+03  0.92509922261E+02 0.  0.
          2    1    3    3  502    0  0.50247830498E+02 -0.43957607865E+02 -0.11841802537E+03  0.13594095958E+03  0.00000000000E+00 0. -1.
         -1    1    3    3    0  502  0.28673571576E+03 -0.29251530256E+03 -0.40944898855E+03  0.57916409346E+03  0.00000000000E+00 0.  1.
         11    1    5    5    0    0 -0.44967319360E+01 -0.10380738132E+03 -0.58100554467E+02  0.11904565277E+03  0.00000000000E+00 0. -1.
        -11    1    5    5    0    0 -0.71888053188E+02 -0.13802100772E+03  0.22174335952E+01  0.15563613903E+03  0.00000000000E+00 0.  1.
          4    1    6    6  503    0 -0.26106202613E+03  0.56681626609E+03  0.61490803237E+03  0.87609699764E+03  0.00000000000E+00 0. -1.
         -4    1    6    6    0  503  0.46326499118E+00  0.11485033370E+02 -0.91985418918E+00  0.11531120401E+02  0.00000000000E+00 0.  1.
<mgrwt>
<rscale>  0 0.18771714E+04</rscale>
<asrwt>0</asrwt>
<pdfrwt beam="1">  1        2 0.14674254E+00 0.18771714E+04</pdfrwt>
<pdfrwt beam="2">  1       -1 0.14209053E+00 0.18771714E+04</pdfrwt>
<totfact> 0.11650422E+01</totfact>
</mgrwt>
</event>
<event>
12    6  0.1462228E-007  0.1976801E+04  0.7818608E-02  0.8617545E-01
         -1   -1    0    0    0  501 -0.00000000000E+00  0.00000000000E+00  0.60363234744E+03  0.60363234744E+03  0.00000000000E+00 0.  1.
          2   -1    0    0  501    0  0.00000000000E+00 -0.00000000000E+00 -0.16184274785E+04  0.16184274785E+04  0.00000000000E+00 0. -1.
         24    2    1    2    0    0  0.26776205816E+03 -0.66655602088E+03 -0.61477416922E+02  0.72601614917E+03  0.85595135947E+02 0.  0.
        254    2    1    2    0    0 -0.26776205816E+03  0.66655602088E+03 -0.95331771409E+03  0.14960436767E+04  0.90185285381E+03 0.  0.
         23    2    4    4    0    0 -0.13109452862E+02  0.70751930309E+03 -0.98984203495E+03  0.12201052668E+04  0.90078776686E+02 0.  0.
         23    2    4    4    0    0 -0.25465260530E+03 -0.40963282216E+02  0.36524320854E+02  0.27593840990E+03  0.91005715014E+02 0.  0.
          2    1    3    3  502    0  0.81983611872E+02 -0.16926093426E+03  0.19235903096E+02  0.18905183535E+03  0.00000000000E+00 0. -1.
         -1    1    3    3    0  502  0.18577844629E+03 -0.49729508662E+03 -0.80713320019E+02  0.53696431382E+03  0.00000000000E+00 0.  1.
         11    1    5    5    0    0 -0.99807644367E+01  0.28812653326E+02 -0.20386920189E+02  0.36679846854E+02  0.00000000000E+00 0.  1.
        -11    1    5    5    0    0 -0.31286884253E+01  0.67870664977E+03 -0.96945511476E+03  0.11834254200E+04  0.00000000000E+00 0. -1.
          4    1    6    6  503    0 -0.16253021060E+03 -0.62152648704E+02 -0.15895196492E+01  0.17401594086E+03  0.00000000000E+00 0. -1.
         -4    1    6    6    0  503 -0.92122394701E+02  0.21189366488E+02  0.38113840504E+02  0.10192246904E+03  0.00000000000E+00 0.  1.
<mgrwt>
<rscale>  0 0.19768006E+04</rscale>
<asrwt>0</asrwt>
<pdfrwt beam="1">  1        2 0.24898884E+00 0.19768006E+04</pdfrwt>
<pdfrwt beam="2">  1       -1 0.92866515E-01 0.19768006E+04</pdfrwt>
<totfact> 0.13009406E+01</totfact>
</mgrwt>
</event>
<event>
12    6  0.1462228E-007  0.1250762E+04  0.7818608E-02  0.9069549E-01
          2   -1    0    0  501    0  0.00000000000E+00  0.00000000000E+00  0.48458446409E+04  0.48458446409E+04  0.00000000000E+00 0. -1.
         -1   -1    0    0    0  501 -0.00000000000E+00 -0.00000000000E+00 -0.80708597212E+02  0.80708597212E+02  0.00000000000E+00 0.  1.
         24    2    1    2    0    0  0.78743483987E+02  0.29113231510E+02  0.23195897413E+04  0.23224543569E+04  0.79054128924E+02 0.  0.
        254    2    1    2    0    0 -0.78743483987E+02 -0.29113231510E+02  0.24455463024E+04  0.26040988813E+04  0.89083452427E+03 0.  0.
         23    2    4    4    0    0  0.54002207045E+01 -0.43539980929E+03  0.15560934955E+04  0.16184414047E+04  0.91232984082E+02 0.  0.
         23    2    4    4    0    0 -0.84143704692E+02  0.40628657778E+03  0.88945280697E+03  0.98565747662E+03  0.90804289931E+02 0.  0.
          2    1    3    3  502    0  0.51964430009E+02  0.12154814100E+02  0.20906222214E+04  0.20913032573E+04  0.00000000000E+00 0. -1.
         -3    1    3    3    0  502  0.26779053978E+02  0.16958417409E+02  0.22896751989E+03  0.23115109954E+03  0.00000000000E+00 0.  1.
         11    1    5    5    0    0  0.10943291199E+02 -0.68128079138E+01  0.91927291122E+02  0.92826703200E+02  0.00000000000E+00 0.  1.
        -11    1    5    5    0    0 -0.55430704943E+01 -0.42858700137E+03  0.14641662043E+04  0.15256147015E+04  0.00000000000E+00 0. -1.
          3    1    6    6  503    0 -0.39498718642E+02  0.31842418540E+03  0.74078504974E+03  0.80728966334E+03  0.00000000000E+00 0. -1.
         -3    1    6    6    0  503 -0.44644986050E+02  0.87862392377E+02  0.14866775723E+03  0.17836781328E+03  0.00000000000E+00 0.  1.
<mgrwt>
<rscale>  0 0.12507619E+04</rscale>
<asrwt>0</asrwt>
<pdfrwt beam="1">  1        2 0.74551433E+00 0.12507619E+04</pdfrwt>
<pdfrwt beam="2">  1       -1 0.12416711E-01 0.12507619E+04</pdfrwt>
<totfact> 0.28223470E+00</totfact>
</mgrwt>
</event>
<event>
12    6  0.1462228E-007  0.1773109E+04  0.7818608E-02  0.8720732E-01
          2   -1    0    0  501    0  0.00000000000E+00  0.00000000000E+00  0.73016529261E+03  0.73016529261E+03  0.00000000000E+00 0. -1.
         -1   -1    0    0    0  501 -0.00000000000E+00 -0.00000000000E+00 -0.10764393382E+04  0.10764393382E+04  0.00000000000E+00 0.  1.
         24    2    1    2    0    0 -0.38382119404E+03 -0.14002678506E+03 -0.65737686317E+03  0.77915031152E+03  0.89468755351E+02 0.  0.
        254    2    1    2    0    0  0.38382119404E+03  0.14002678506E+03  0.31110281755E+03  0.10274543193E+04  0.88991640376E+03 0.  0.
         23    2    4    4    0    0 -0.62049416964E+02 -0.18956088317E+03 -0.17822403676E+03  0.28218134759E+03  0.89883519508E+02 0.  0.
         23    2    4    4    0    0  0.44587061101E+03  0.32958766823E+03  0.48932685430E+03  0.74527297173E+03  0.92533233193E+02 0.  0.
          4    1    3    3  502    0 -0.17535076372E+03 -0.19727039871E+02 -0.30624119759E+03  0.35344125048E+03  0.00000000000E+00 0. -1.
         -3    1    3    3    0  502 -0.20847043033E+03 -0.12029974519E+03 -0.35113566558E+03  0.42570906104E+03  0.00000000000E+00 0.  1.
         11    1    5    5    0    0 -0.46172042014E+01  0.89836558954E+01 -0.14352630062E+01  0.10202187402E+02  0.00000000000E+00 0. -1.
        -11    1    5    5    0    0 -0.57432212762E+02 -0.19854453906E+03 -0.17678877375E+03  0.27197916019E+03  0.00000000000E+00 0.  1.
          4    1    6    6  503    0  0.11815079141E+03  0.11973653353E+03  0.10479729479E+03  0.19818910154E+03  0.00000000000E+00 0. -1.
         -4    1    6    6    0  503  0.32771981960E+03  0.20985113470E+03  0.38452955951E+03  0.54708387020E+03  0.00000000000E+00 0.  1.
<mgrwt>
<rscale>  0 0.17731087E+04</rscale>
<asrwt>0</asrwt>
<pdfrwt beam="1">  1        2 0.11233312E+00 0.17731087E+04</pdfrwt>
<pdfrwt beam="2">  1       -1 0.16560605E+00 0.17731087E+04</pdfrwt>
<totfact> 0.11121854E+01</totfact>
</mgrwt>
</event>
<event>
12    6  0.1462228E-007  0.1827403E+04  0.7818608E-02  0.8691861E-01
         -1   -1    0    0    0  501 -0.00000000000E+00  0.00000000000E+00  0.15432459667E+04  0.15432459667E+04  0.00000000000E+00 0.  1.
          2   -1    0    0  501    0  0.00000000000E+00 -0.00000000000E+00 -0.54097051260E+03  0.54097051260E+03  0.00000000000E+00 0. -1.
         24    2    1    2    0    0 -0.32027170150E+02  0.70870406369E+03  0.41869706991E+03  0.82760219971E+03  0.79567424858E+02 0.  0.
        254    2    1    2    0    0  0.32027170150E+02 -0.70870406369E+03  0.58357838422E+03  0.12566142796E+04  0.85745467967E+03 0.  0.
         23    2    4    4    0    0 -0.29025081674E+03 -0.69935301222E+03  0.48547026851E+03  0.90418411685E+03  0.92343723380E+02 0.  0.
         23    2    4    4    0    0  0.32227798689E+03 -0.93510514717E+01  0.98108115713E+02  0.35243016276E+03  0.10310807076E+03 0.  0.
          4    1    3    3  502    0 -0.14946935539E+02  0.45702624458E+03  0.22542291467E+03  0.50981554465E+03  0.00000000000E+00 0. -1.
         -3    1    3    3    0  502 -0.17080234610E+02  0.25167781911E+03  0.19327415525E+03  0.31778665506E+03  0.00000000000E+00 0.  1.
         11    1    5    5    0    0 -0.18618629998E+03 -0.36505486635E+03  0.30083662374E+03  0.50836312605E+03  0.00000000000E+00 0.  1.
        -11    1    5    5    0    0 -0.10406451676E+03 -0.33429814587E+03  0.18463364477E+03  0.39582099080E+03  0.00000000000E+00 0. -1.
          3    1    6    6  503    0  0.26305364881E+03 -0.37344535741E+02  0.48084434277E+02  0.27000731346E+03  0.00000000000E+00 0. -1.
         -3    1    6    6    0  503  0.59224338084E+02  0.27993484269E+02  0.50023681436E+02  0.82422849304E+02  0.00000000000E+00 0.  1.
<mgrwt>
<rscale>  0 0.18274031E+04</rscale>
<asrwt>0</asrwt>
<pdfrwt beam="1">  1        2 0.83226233E-01 0.18274031E+04</pdfrwt>
<pdfrwt beam="2">  1       -1 0.23742245E+00 0.18274031E+04</pdfrwt>
<totfact> 0.50936430E+00</totfact>
</mgrwt>
</event>
<event>
12    6  0.1462228E-007  0.2412174E+04  0.7818608E-02  0.8434960E-01
          2   -1    0    0  501    0  0.00000000000E+00  0.00000000000E+00  0.18168523399E+04  0.18168523399E+04  0.00000000000E+00 0. -1.
         -1   -1    0    0    0  501 -0.00000000000E+00 -0.00000000000E+00 -0.80064037007E+03  0.80064037007E+03  0.00000000000E+00 0.  1.
         24    2    1    2    0    0  0.10081262903E+04  0.22209046738E+03  0.33095703549E+03  0.10859199843E+04  0.63614936752E+02 0.  0.
        254    2    1    2    0    0 -0.10081262903E+04 -0.22209046738E+03  0.68525493431E+03  0.15315727256E+04  0.90027656642E+03 0.  0.
         23    2    4    4    0    0 -0.47777260297E+03 -0.42963079026E+03  0.70032249078E+03  0.95460290771E+03  0.89251578271E+02 0.  0.
         23    2    4    4    0    0 -0.53035368729E+03  0.20754032288E+03 -0.15067556475E+02  0.57696981791E+03  0.91209211569E+02 0.  0.
          4    1    3    3  502    0  0.28489384065E+03  0.65381746612E+02  0.12396465896E+03  0.31750040929E+03  0.00000000000E+00 0. -1.
         -3    1    3    3    0  502  0.72323244961E+03  0.15670872077E+03  0.20699237653E+03  0.76841957502E+03  0.00000000000E+00 0.  1.
         11    1    5    5    0    0 -0.35462536536E+03 -0.26340328375E+03  0.48398669656E+03  0.65527365436E+03  0.00000000000E+00 0. -1.
        -11    1    5    5    0    0 -0.12314723761E+03 -0.16622750651E+03  0.21633579422E+03  0.29932925335E+03  0.00000000000E+00 0.  1.
          4    1    6    6  503    0 -0.41664099119E+03  0.16134469038E+03  0.25992284317E+02  0.44754600155E+03  0.00000000000E+00 0.  1.
         -4    1    6    6    0  503 -0.11371269610E+03  0.46195632500E+02 -0.41059840791E+02  0.12942381636E+03  0.00000000000E+00 0. -1.
<mgrwt>
<rscale>  0 0.24121736E+04</rscale>
<asrwt>0</asrwt>
<pdfrwt beam="1">  1        2 0.27951574E+00 0.24121736E+04</pdfrwt>
<pdfrwt beam="2">  1       -1 0.12317544E+00 0.24121736E+04</pdfrwt>
<totfact> 0.50126115E+00</totfact>
</mgrwt>
</event>
<event>
12    6  0.1462228E-007  0.1313193E+04  0.7818608E-02  0.9019168E-01
          2   -1    0    0  501    0  0.00000000000E+00  0.00000000000E+00  0.21223767933E+04  0.21223767933E+04  0.00000000000E+00 0. -1.
         -1   -1    0    0    0  501 -0.00000000000E+00 -0.00000000000E+00 -0.20313032398E+03  0.20313032398E+03  0.00000000000E+00 0.  1.
         24    2    1    2    0    0 -0.17487321729E+03 -0.93518660527E+02  0.15042048435E+02  0.21513606651E+03  0.82041952072E+02 0.  0.
        254    2    1    2    0    0  0.17487321729E+03  0.93518660527E+02  0.19042044209E+04  0.21103710508E+04  0.88788800725E+03 0.  0.
         23    2    4    4    0    0  0.29918429226E+03  0.29067318401E+03  0.17810503135E+04  0.18315668270E+04  0.92166599565E+02 0.  0.
         23    2    4    4    0    0 -0.12431107497E+03 -0.19715452348E+03  0.12315410741E+03  0.27880422375E+03  0.90783872580E+02 0.  0.
          4    1    3    3  502    0 -0.68185487624E+02 -0.38887344173E+02  0.46474308841E+02  0.91221420958E+02  0.00000000000E+00 0. -1.
         -3    1    3    3    0  502 -0.10668772967E+03 -0.54631316354E+02 -0.31432260406E+02  0.12391464555E+03  0.00000000000E+00 0.  1.
         11    1    5    5    0    0  0.10957433378E+02  0.40582092800E+02  0.11699116268E+03  0.12431373113E+03  0.00000000000E+00 0.  1.
        -11    1    5    5    0    0  0.28822685888E+03  0.25009109121E+03  0.16640591508E+04  0.17072530959E+04  0.00000000000E+00 0. -1.
          4    1    6    6  503    0 -0.11777460248E+03 -0.17125869595E+03  0.70001041161E+02  0.21931836150E+03  0.00000000000E+00 0. -1.
         -4    1    6    6    0  503 -0.65364724891E+01 -0.25895827530E+02  0.53153066247E+02  0.59485862250E+02  0.00000000000E+00 0.  1.
<mgrwt>
<rscale>  0 0.13131932E+04</rscale>
<asrwt>0</asrwt>
<pdfrwt beam="1">  1        2 0.32651949E+00 0.13131932E+04</pdfrwt>
<pdfrwt beam="2">  1       -1 0.31250821E-01 0.13131932E+04</pdfrwt>
<totfact> 0.60557164E+01</totfact>
</mgrwt>
</event>
<event>
12    6  0.1462228E-007  0.2583598E+04  0.7818608E-02  0.8373794E-01
          2   -1    0    0  501    0  0.00000000000E+00  0.00000000000E+00  0.10712618847E+04  0.10712618847E+04  0.00000000000E+00 0. -1.
         -1   -1    0    0    0  501 -0.00000000000E+00 -0.00000000000E+00 -0.15577369364E+04  0.15577369364E+04  0.00000000000E+00 0.  1.
         24    2    1    2    0    0 -0.29787345029E+03 -0.74390347254E+03 -0.10313599314E+04  0.13094785407E+04  0.94391586833E+02 0.  0.
        254    2    1    2    0    0  0.29787345029E+03  0.74390347254E+03  0.54488487971E+03  0.13195202804E+04  0.89560776541E+03 0.  0.
         23    2    4    4    0    0  0.29590459384E+03 -0.12004313351E+03  0.14290342437E+03  0.36150143847E+03  0.91060522542E+02 0.  0.
         23    2    4    4    0    0  0.19688564473E+01  0.86394660605E+03  0.40198145534E+03  0.95801884194E+03  0.99012103213E+02 0.  0.
          4    1    3    3  502    0 -0.12418600056E+03 -0.36656402475E+03 -0.56621358961E+03  0.68584923710E+03  0.00000000000E+00 0. -1.
         -3    1    3    3    0  502 -0.17368744973E+03 -0.37733944779E+03 -0.46514634183E+03  0.62362930365E+03  0.00000000000E+00 0.  1.
         11    1    5    5    0    0  0.46757664061E+02  0.44911493469E+01  0.48204400618E+02  0.67306120152E+02  0.00000000000E+00 0. -1.
        -11    1    5    5    0    0  0.24914692978E+03 -0.12453428285E+03  0.94699023748E+02  0.29419531832E+03  0.00000000000E+00 0.  1.
          4    1    6    6  503    0 -0.35474080538E+02  0.13152024359E+03  0.63433376667E+02  0.15026569182E+03  0.00000000000E+00 0. -1.
         -4    1    6    6    0  503  0.37442936985E+02  0.73242636246E+03  0.33854807867E+03  0.80775315012E+03  0.00000000000E+00 0.  1.
<mgrwt>
<rscale>  0 0.25835977E+04</rscale>
<asrwt>0</asrwt>
<pdfrwt beam="1">  1        2 0.16480952E+00 0.25835977E+04</pdfrwt>
<pdfrwt beam="2">  1       -1 0.23965184E+00 0.25835977E+04</pdfrwt>
<totfact> 0.18679219E+00</totfact>
</mgrwt>
</event>
<event>
12    6  0.1462228E-007  0.1686894E+04  0.7818608E-02  0.8768875E-01
          2   -1    0    0  501    0  0.00000000000E+00  0.00000000000E+00  0.81966565787E+03  0.81966565787E+03  0.00000000000E+00 0. -1.
         -1   -1    0    0    0  501 -0.00000000000E+00 -0.00000000000E+00 -0.86791791506E+03  0.86791791506E+03  0.00000000000E+00 0.  1.
         24    2    1    2    0    0 -0.32728586031E+03  0.28398506165E+03  0.40202097142E+03  0.59745374234E+03  0.86985994153E+02 0.  0.
        254    2    1    2    0    0  0.32728586031E+03 -0.28398506165E+03 -0.45027322861E+03  0.10901298306E+04  0.89323766016E+03 0.  0.
         23    2    4    4    0    0  0.39684278534E+03 -0.10642093111E+03  0.15541778974E+03  0.44876586861E+03  0.91795994480E+02 0.  0.
         23    2    4    4    0    0 -0.69556925034E+02 -0.17756413054E+03 -0.60569101835E+03  0.64136396197E+03  0.90105137079E+02 0.  0.
          2    1    3    3  502    0 -0.26736312271E+03  0.18181105969E+03  0.28642216609E+03  0.43194439230E+03  0.00000000000E+00 0. -1.
         -1    1    3    3    0  502 -0.59922737598E+02  0.10217400196E+03  0.11559880533E+03  0.16550935004E+03  0.00000000000E+00 0.  1.
         11    1    5    5    0    0  0.12318083235E+03 -0.20972341370E+02  0.91932620400E+02  0.15512886016E+03  0.00000000000E+00 0. -1.
        -11    1    5    5    0    0  0.27366195299E+03 -0.85448589740E+02  0.63485169344E+02  0.29363700845E+03  0.00000000000E+00 0.  1.
          4    1    6    6  503    0  0.21847549398E+02 -0.26465144744E+02 -0.96975319464E+02  0.10286851747E+03  0.00000000000E+00 0. -1.
         -4    1    6    6    0  503 -0.91404474432E+02 -0.15109898580E+03 -0.50871569889E+03  0.53849544451E+03  0.00000000000E+00 0.  1.
<mgrwt>
<rscale>  0 0.16868936E+04</rscale>
<asrwt>0</asrwt>
<pdfrwt beam="1">  1        2 0.12610241E+00 0.16868936E+04</pdfrwt>
<pdfrwt beam="2">  1       -1 0.13352583E+00 0.16868936E+04</pdfrwt>
<totfact> 0.17179909E+01</totfact>
</mgrwt>
</event>
<event>
12    6  0.1462228E-007  0.2398767E+04  0.7818608E-02  0.8439965E-01
          2   -1    0    0  501    0  0.00000000000E+00  0.00000000000E+00  0.14282238717E+04  0.14282238717E+04  0.00000000000E+00 0. -1.
         -1   -1    0    0    0  501 -0.00000000000E+00 -0.00000000000E+00 -0.10072099133E+04  0.10072099133E+04  0.00000000000E+00 0.  1.
         24    2    1    2    0    0  0.23450279392E+03 -0.92972398829E+03 -0.20004178881E+03  0.98272434309E+03  0.79700454760E+02 0.  0.
        254    2    1    2    0    0 -0.23450279392E+03  0.92972398829E+03  0.62105574723E+03  0.14527094420E+04  0.89737184425E+03 0.  0.
         23    2    4    4    0    0 -0.42331355541E+03  0.92030956415E+03  0.28513957657E+03  0.10564261352E+04  0.92561011609E+02 0.  0.
         23    2    4    4    0    0  0.18881076150E+03  0.94144241396E+01  0.33591617065E+03  0.39628330680E+03  0.91992665495E+02 0.  0.
          2    1    3    3  502    0  0.14043532313E+02 -0.16438322396E+03 -0.20217103809E+02  0.16621611356E+03  0.00000000000E+00 0. -1.
         -1    1    3    3    0  502  0.22045926160E+03 -0.76534076433E+03 -0.17982468500E+03  0.81650822954E+03  0.00000000000E+00 0.  1.
         11    1    5    5    0    0 -0.20810564135E+03  0.46162911025E+03  0.94630994350E+02  0.51513533996E+03  0.00000000000E+00 0.  1.
        -11    1    5    5    0    0 -0.21520791406E+03  0.45868045390E+03  0.19050858222E+03  0.54129079520E+03  0.00000000000E+00 0. -1.
          1    1    6    6  503    0  0.19467835292E+03 -0.15826475059E+01  0.32827518486E+03  0.38166315367E+03  0.00000000000E+00 0. -1.
         -1    1    6    6    0  503 -0.58675914238E+01  0.10997071645E+02  0.76409857896E+01  0.14620153136E+02  0.00000000000E+00 0.  1.
<mgrwt>
<rscale>  0 0.23987674E+04</rscale>
<asrwt>0</asrwt>
<pdfrwt beam="1">  1        2 0.21972675E+00 0.23987674E+04</pdfrwt>
<pdfrwt beam="2">  1       -1 0.15495537E+00 0.23987674E+04</pdfrwt>
<totfact> 0.45625685E+00</totfact>
</mgrwt>
</event>
<event>
12    6  0.1462228E-007  0.1461271E+04  0.7818608E-02  0.8910624E-01
         -1   -1    0    0    0  501 -0.00000000000E+00  0.00000000000E+00  0.17119124696E+03  0.17119124696E+03  0.00000000000E+00 0.  1.
          2   -1    0    0  501    0  0.00000000000E+00 -0.00000000000E+00 -0.31183150709E+04  0.31183150709E+04  0.00000000000E+00 0. -1.
         24    2    1    2    0    0  0.46293219226E+03  0.21101146252E+03 -0.12261827366E+04  0.13316358769E+04  0.10439326250E+03 0.  0.
        254    2    1    2    0    0 -0.46293219226E+03 -0.21101146252E+03 -0.17209410874E+04  0.19578704409E+04  0.78280673567E+03 0.  0.
         23    2    4    4    0    0  0.12245499492E+03 -0.68153586694E+01 -0.96013780302E+03  0.97250707414E+03  0.94147403344E+02 0.  0.
         23    2    4    4    0    0 -0.58538718718E+03 -0.20419610385E+03 -0.76080328433E+03  0.98536336680E+03  0.88006360241E+02 0.  0.
          4    1    3    3  502    0  0.11121785369E+03  0.82197833169E+02 -0.43117484603E+03  0.45281082430E+03  0.00000000000E+00 0. -1.
         -3    1    3    3    0  502  0.35171433857E+03  0.12881362935E+03 -0.79500789057E+03  0.87882505263E+03  0.00000000000E+00 0.  1.
         11    1    5    5    0    0  0.60608150501E+00  0.26802608745E+02 -0.22363560331E+03  0.22523683145E+03  0.00000000000E+00 0. -1.
        -11    1    5    5    0    0  0.12184891342E+03 -0.33617967415E+02 -0.73650219971E+03  0.74727024269E+03  0.00000000000E+00 0.  1.
          4    1    6    6  503    0 -0.43944893128E+03 -0.19149027988E+03 -0.56862585745E+03  0.74371987754E+03  0.00000000000E+00 0.  1.
         -4    1    6    6    0  503 -0.14593825590E+03 -0.12705823966E+02 -0.19217742688E+03  0.24164348926E+03  0.00000000000E+00 0. -1.
<mgrwt>
<rscale>  0 0.14612710E+04</rscale>
<asrwt>0</asrwt>
<pdfrwt beam="1">  1        2 0.47974079E+00 0.14612710E+04</pdfrwt>
<pdfrwt beam="2">  1       -1 0.26337115E-01 0.14612710E+04</pdfrwt>
<totfact> 0.20892413E+01</totfact>
</mgrwt>
</event>
<event>
12    6  0.1462228E-007  0.1703505E+04  0.7818608E-02  0.8759368E-01
          2   -1    0    0  501    0  0.00000000000E+00  0.00000000000E+00  0.46765488402E+03  0.46765488402E+03  0.00000000000E+00 0. -1.
         -1   -1    0    0    0  501 -0.00000000000E+00 -0.00000000000E+00 -0.15513202657E+04  0.15513202657E+04  0.00000000000E+00 0.  1.
         24    2    1    2    0    0 -0.51826260405E+03 -0.29814221311E+03 -0.51554642644E+03  0.79434910475E+03  0.87849168513E+02 0.  0.
        254    2    1    2    0    0  0.51826260405E+03  0.29814221311E+03 -0.56811895524E+03  0.12246260450E+04  0.90524300423E+03 0.  0.
         23    2    4    4    0    0  0.34409688598E+03 -0.18930094907E+03  0.57105648516E+02  0.40785744750E+03  0.94069793929E+02 0.  0.
         23    2    4    4    0    0  0.17416571806E+03  0.48744316218E+03 -0.62522460376E+03  0.81676859747E+03  0.90942855463E+02 0.  0.
          2    1    3    3  502    0 -0.95274318847E+02 -0.85024467302E+02 -0.14323659041E+03  0.19189339932E+03  0.00000000000E+00 0. -1.
         -1    1    3    3    0  502 -0.42298828520E+03 -0.21311774581E+03 -0.37230983603E+03  0.60245570542E+03  0.00000000000E+00 0.  1.
         11    1    5    5    0    0  0.87569108028E+02 -0.13484344476E+02  0.37605675711E+02  0.96251561403E+02  0.00000000000E+00 0.  1.
        -11    1    5    5    0    0  0.25652777795E+03 -0.17581660459E+03  0.19499972805E+02  0.31160588610E+03  0.00000000000E+00 0. -1.
          3    1    6    6  503    0  0.17053695664E+03  0.44355794828E+03 -0.60207076861E+03  0.76701741667E+03  0.00000000000E+00 0. -1.
         -3    1    6    6    0  503  0.36287614289E+01  0.43885213903E+02 -0.23153835148E+02  0.49751180799E+02  0.00000000000E+00 0.  1.
<mgrwt>
<rscale>  0 0.17035052E+04</rscale>
<asrwt>0</asrwt>
<pdfrwt beam="1">  1        2 0.71946904E-01 0.17035052E+04</pdfrwt>
<pdfrwt beam="2">  1       -1 0.23866466E+00 0.17035052E+04</pdfrwt>
<totfact> 0.59867178E+00</totfact>
</mgrwt>
</event>
<event>
12    6  0.1462228E-007  0.1403034E+04  0.7818608E-02  0.8951626E-01
          2   -1    0    0  501    0  0.00000000000E+00  0.00000000000E+00  0.49712812538E+03  0.49712812538E+03  0.00000000000E+00 0. -1.
         -1   -1    0    0    0  501 -0.00000000000E+00 -0.00000000000E+00 -0.98993761896E+03  0.98993761896E+03  0.00000000000E+00 0.  1.
         24    2    1    2    0    0 -0.54741886561E+02  0.33389020058E+03  0.61309992182E+02  0.35278994373E+03  0.78882755211E+02 0.  0.
        254    2    1    2    0    0  0.54741886561E+02 -0.33389020058E+03 -0.55411948576E+03  0.11342758006E+04  0.93008270984E+03 0.  0.
         23    2    4    4    0    0 -0.11147599185E+03 -0.18736223208E+03  0.22036886190E+03  0.32359772419E+03  0.92852296899E+02 0.  0.
         23    2    4    4    0    0  0.16621787841E+03 -0.14652796850E+03 -0.77448834766E+03  0.81067807641E+03  0.90928071831E+02 0.  0.
          4    1    3    3  502    0 -0.59390269342E+02  0.30590406836E+03  0.76132804526E+02  0.32078140074E+03  0.00000000000E+00 0. -1.
         -3    1    3    3    0  502  0.46483827804E+01  0.27986132219E+02 -0.14822812344E+02  0.32008542998E+02  0.00000000000E+00 0.  1.
         11    1    5    5    0    0 -0.94321177051E+02 -0.15307585225E+03  0.22143976830E+03  0.28524423213E+03  0.00000000000E+00 0.  1.
        -11    1    5    5    0    0 -0.17154814796E+02 -0.34286379833E+02 -0.10709063967E+01  0.38353492061E+02  0.00000000000E+00 0. -1.
          1    1    6    6  503    0  0.72757876001E+01  0.99619607467E+01 -0.16813978375E+02  0.20853959238E+02  0.00000000000E+00 0. -1.
         -1    1    6    6    0  503  0.15894209081E+03 -0.15648992925E+03 -0.75767436929E+03  0.78982411717E+03  0.00000000000E+00 0.  1.
<mgrwt>
<rscale>  0 0.14030336E+04</rscale>
<asrwt>0</asrwt>
<pdfrwt beam="1">  1        2 0.76481250E-01 0.14030336E+04</pdfrwt>
<pdfrwt beam="2">  1       -1 0.15229810E+00 0.14030336E+04</pdfrwt>
<totfact> 0.23097063E+01</totfact>
</mgrwt>
</event>
<event>
12    6  0.1462228E-007  0.1140315E+04  0.7818608E-02  0.9166766E-01
          2   -1    0    0  501    0  0.00000000000E+00  0.00000000000E+00  0.99506674145E+03  0.99506674145E+03  0.00000000000E+00 0. -1.
         -1   -1    0    0    0  501 -0.00000000000E+00 -0.00000000000E+00 -0.32669098464E+03  0.32669098464E+03  0.00000000000E+00 0.  1.
         24    2    1    2    0    0  0.97229176875E+02 -0.15169575065E+03  0.21245625379E+03  0.28972099802E+03  0.79595749380E+02 0.  0.
        254    2    1    2    0    0 -0.97229176875E+02  0.15169575065E+03  0.45591950302E+03  0.10320367281E+04  0.90816964343E+03 0.  0.
         23    2    4    4    0    0 -0.60891277351E+02 -0.37103796962E+03  0.12941735647E+03  0.40793783614E+03  0.91035726189E+02 0.  0.
         23    2    4    4    0    0 -0.36337899524E+02  0.52273372027E+03  0.32650214655E+03  0.62409889193E+03  0.91240286879E+02 0.  0.
          4    1    3    3  502    0  0.49592977736E+02 -0.55774095075E+02  0.14519174935E+03  0.16325090261E+03  0.00000000000E+00 0. -1.
         -3    1    3    3    0  502  0.47636199139E+02 -0.95921655577E+02  0.67264504434E+02  0.12647009541E+03  0.00000000000E+00 0.  1.
         11    1    5    5    0    0 -0.49328328250E+02 -0.79392744839E+02  0.47166553088E+02  0.10469563330E+03  0.00000000000E+00 0. -1.
        -11    1    5    5    0    0 -0.11562949101E+02 -0.29164522478E+03  0.82250803385E+02  0.30324220285E+03  0.00000000000E+00 0.  1.
          1    1    6    6  503    0  0.19036653565E+02  0.26767204440E+03  0.19587928720E+03  0.33223397280E+03  0.00000000000E+00 0. -1.
         -1    1    6    6    0  503 -0.55374553088E+02  0.25506167587E+03  0.13062285935E+03  0.29186491912E+03  0.00000000000E+00 0.  1.
<mgrwt>
<rscale>  0 0.11403146E+04</rscale>
<asrwt>0</asrwt>
<pdfrwt beam="1">  1        2 0.15308719E+00 0.11403146E+04</pdfrwt>
<pdfrwt beam="2">  1       -1 0.50260152E-01 0.11403146E+04</pdfrwt>
<totfact> 0.11388852E+02</totfact>
</mgrwt>
</event>
<event>
12    6  0.1462228E-007  0.1634250E+04  0.7818608E-02  0.8799779E-01
          2   -1    0    0  501    0  0.00000000000E+00  0.00000000000E+00  0.29360750202E+04  0.29360750202E+04  0.00000000000E+00 0. -1.
         -1   -1    0    0    0  501 -0.00000000000E+00 -0.00000000000E+00 -0.22741026697E+03  0.22741026697E+03  0.00000000000E+00 0.  1.
         24    2    1    2    0    0 -0.31534515021E+03  0.83890634037E+02  0.55868754363E+02  0.34129609067E+03  0.82954816331E+02 0.  0.
        254    2    1    2    0    0  0.31534515021E+03 -0.83890634037E+02  0.26527959989E+04  0.28221891965E+04  0.90606017849E+03 0.  0.
         23    2    4    4    0    0 -0.77766886980E+02 -0.83534353299E+02  0.22401983884E+04  0.22449528635E+04  0.91098096559E+02 0.  0.
         23    2    4    4    0    0  0.39311203719E+03 -0.35628073893E+00  0.41259761051E+03  0.57723633301E+03  0.91803024132E+02 0.  0.
          2    1    3    3  502    0 -0.16504270456E+03  0.74556664775E+02  0.59603706311E+02  0.19065778871E+03  0.00000000000E+00 0. -1.
         -1    1    3    3    0  502 -0.15030244565E+03  0.93339692629E+01 -0.37349519480E+01  0.15063830196E+03  0.00000000000E+00 0.  1.
         11    1    5    5    0    0 -0.24018298413E+02 -0.38335852058E+02  0.29149651386E+03  0.29498598917E+03  0.00000000000E+00 0. -1.
        -11    1    5    5    0    0 -0.53748588568E+02 -0.45198501240E+02  0.19487018745E+04  0.19499668743E+04  0.00000000000E+00 0.  1.
          1    1    6    6  503    0  0.10077414806E+03  0.37641984478E+02  0.90293861493E+02  0.14044689151E+03  0.00000000000E+00 0. -1.
         -1    1    6    6    0  503  0.29233788913E+03 -0.37998265216E+02  0.32230374901E+03  0.43678944150E+03  0.00000000000E+00 0.  1.
<mgrwt>
<rscale>  0 0.16342504E+04</rscale>
<asrwt>0</asrwt>
<pdfrwt beam="1">  1        2 0.45170382E+00 0.16342504E+04</pdfrwt>
<pdfrwt beam="2">  1       -1 0.34986197E-01 0.16342504E+04</pdfrwt>
<totfact> 0.16220841E+01</totfact>
</mgrwt>
</event>
<event>
12    6  0.1462228E-007  0.1323302E+04  0.7818608E-02  0.9011288E-01
         -1   -1    0    0    0  501 -0.00000000000E+00  0.00000000000E+00  0.38357925116E+03  0.38357925116E+03  0.00000000000E+00 0.  1.
          2   -1    0    0  501    0  0.00000000000E+00 -0.00000000000E+00 -0.11413073463E+04  0.11413073463E+04  0.00000000000E+00 0. -1.
         24    2    1    2    0    0  0.62464131836E+02 -0.23867302243E+01 -0.59019940857E+03  0.59858530466E+03  0.77856026252E+02 0.  0.
        254    2    1    2    0    0 -0.62464131836E+02  0.23867302243E+01 -0.16752868652E+03  0.92630129275E+03  0.90887884776E+03 0.  0.
         23    2    4    4    0    0 -0.10090371403E+03  0.27815957504E+02 -0.53089522624E+03  0.54871049696E+03  0.90984510949E+02 0.  0.
         23    2    4    4    0    0  0.38439582193E+02 -0.25429227280E+02  0.36336653972E+03  0.37759079580E+03  0.91735052209E+02 0.  0.
          2    1    3    3  502    0  0.67365992102E+02  0.12179983324E+02 -0.56453599253E+03  0.56867162383E+03  0.00000000000E+00 0. -1.
         -1    1    3    3    0  502 -0.49018602656E+01 -0.14566713549E+02 -0.25663416040E+02  0.29913680825E+02  0.00000000000E+00 0.  1.
         11    1    5    5    0    0 -0.42614135614E+02  0.47681687730E+02 -0.15294223894E+03  0.16577344887E+03  0.00000000000E+00 0. -1.
        -11    1    5    5    0    0 -0.58289578415E+02 -0.19865730225E+02 -0.37795298730E+03  0.38293704809E+03  0.00000000000E+00 0.  1.
          1    1    6    6  503    0  0.54398606694E+02 -0.29111028909E+01  0.11025639575E+03  0.12298030628E+03  0.00000000000E+00 0. -1.
         -1    1    6    6    0  503 -0.15959024500E+02 -0.22518124389E+02  0.25311014397E+03  0.25461048951E+03  0.00000000000E+00 0.  1.
<mgrwt>
<rscale>  0 0.13233017E+04</rscale>
<asrwt>0</asrwt>
<pdfrwt beam="1">  1        2 0.17558574E+00 0.13233017E+04</pdfrwt>
<pdfrwt beam="2">  1       -1 0.59012193E-01 0.13233017E+04</pdfrwt>
<totfact> 0.66747487E+01</totfact>
</mgrwt>
</event>
<event>
12    6  0.1462228E-007  0.1594059E+04  0.7818608E-02  0.8824206E-01
         -1   -1    0    0    0  501 -0.00000000000E+00  0.00000000000E+00  0.49510056898E+03  0.49510056898E+03  0.00000000000E+00 0.  1.
          2   -1    0    0  501    0  0.00000000000E+00 -0.00000000000E+00 -0.12830848009E+04  0.12830848009E+04  0.00000000000E+00 0. -1.
         24    2    1    2    0    0 -0.78703909349E+02  0.51162367330E+03 -0.10074867231E+03  0.53325084336E+03  0.79076409518E+02 0.  0.
        254    2    1    2    0    0  0.78703909349E+02 -0.51162367330E+03 -0.68723555964E+03  0.12449345266E+04  0.89978673725E+03 0.  0.
         23    2    4    4    0    0 -0.13002766208E+03 -0.70892791220E+03 -0.56304547790E+03  0.91910120294E+03  0.90779036520E+02 0.  0.
         23    2    4    4    0    0  0.20873157143E+03  0.19730423890E+03 -0.12419008174E+03  0.32583332361E+03  0.90809398038E+02 0.  0.
          2    1    3    3  502    0  0.13246562432E+02  0.46257168751E+02  0.87216467337E+00  0.48124398680E+02  0.00000000000E+00 0. -1.
         -1    1    3    3    0  502 -0.91950471780E+02  0.46536650455E+03 -0.10162083698E+03  0.48512644468E+03  0.00000000000E+00 0.  1.
         11    1    5    5    0    0 -0.79243565882E+02 -0.31212950910E+03 -0.20137118064E+03  0.37980880135E+03  0.00000000000E+00 0. -1.
        -11    1    5    5    0    0 -0.50784096198E+02 -0.39679840310E+03 -0.36167429726E+03  0.53929240160E+03  0.00000000000E+00 0.  1.
          3    1    6    6  503    0  0.17650738331E+02 -0.25604873365E+01 -0.27750882061E+02  0.32988120804E+02  0.00000000000E+00 0. -1.
         -3    1    6    6    0  503  0.19108083310E+03  0.19986472623E+03 -0.96439199680E+02  0.29284520280E+03  0.00000000000E+00 0.  1.
<mgrwt>
<rscale>  0 0.15940590E+04</rscale>
<asrwt>0</asrwt>
<pdfrwt beam="1">  1        2 0.19739766E+00 0.15940590E+04</pdfrwt>
<pdfrwt beam="2">  1       -1 0.76169319E-01 0.15940590E+04</pdfrwt>
<totfact> 0.32016493E+01</totfact>
</mgrwt>
</event>
<event>
12    6  0.1462228E-007  0.2015067E+04  0.7818608E-02  0.8599609E-01
          2   -1    0    0  501    0  0.00000000000E+00  0.00000000000E+00  0.69853775676E+03  0.69853775676E+03  0.00000000000E+00 0. -1.
         -1   -1    0    0    0  501 -0.00000000000E+00 -0.00000000000E+00 -0.14532126239E+04  0.14532126239E+04  0.00000000000E+00 0.  1.
         24    2    1    2    0    0 -0.21665944159E+03  0.46870011858E+03 -0.96030452283E+03  0.10932732849E+04  0.80253249416E+02 0.  0.
        254    2    1    2    0    0  0.21665944159E+03 -0.46870011858E+03  0.20562965568E+03  0.10584770958E+04  0.90081579263E+03 0.  0.
         23    2    4    4    0    0  0.14971522820E+03 -0.60101683436E+03  0.44132561624E+03  0.76598451671E+03  0.91258399921E+02 0.  0.
         23    2    4    4    0    0  0.66944213386E+02  0.13231671577E+03 -0.23569596056E+03  0.29249257909E+03  0.89499061551E+02 0.  0.
          4    1    3    3  502    0 -0.12368626467E+03  0.32312936597E+03 -0.57584335113E+03  0.67179345357E+03  0.00000000000E+00 0. -1.
         -3    1    3    3    0  502 -0.92973176917E+02  0.14557075261E+03 -0.38446117169E+03  0.42147983129E+03  0.00000000000E+00 0.  1.
         11    1    5    5    0    0  0.40054911873E+02 -0.17122544499E+03  0.76939359236E+02  0.19194325718E+03  0.00000000000E+00 0. -1.
        -11    1    5    5    0    0  0.10966031633E+03 -0.42979138937E+03  0.36438625700E+03  0.57404125953E+03  0.00000000000E+00 0.  1.
          2    1    6    6  503    0  0.68573174087E+02  0.12068893315E+03 -0.14386141651E+03  0.19991049485E+03  0.00000000000E+00 0. -1.
         -2    1    6    6    0  503 -0.16289607007E+01  0.11627782621E+02 -0.91834544048E+02  0.92582084240E+02  0.00000000000E+00 0.  1.
<mgrwt>
<rscale>  0 0.20150671E+04</rscale>
<asrwt>0</asrwt>
<pdfrwt beam="1">  1        2 0.10746735E+00 0.20150671E+04</pdfrwt>
<pdfrwt beam="2">  1       -1 0.22357117E+00 0.20150671E+04</pdfrwt>
<totfact> 0.45322319E+00</totfact>
</mgrwt>
</event>
<event>
12    6  0.1462228E-007  0.1725238E+04  0.7818608E-02  0.8747100E-01
          2   -1    0    0  501    0  0.00000000000E+00  0.00000000000E+00  0.13122027181E+04  0.13122027181E+04  0.00000000000E+00 0. -1.
         -1   -1    0    0    0  501 -0.00000000000E+00 -0.00000000000E+00 -0.56707025429E+03  0.56707025429E+03  0.00000000000E+00 0.  1.
         24    2    1    2    0    0 -0.33650256394E+03  0.48619771634E+03  0.57543938464E+02  0.59949091243E+03  0.80348331206E+02 0.  0.
        254    2    1    2    0    0  0.33650256394E+03 -0.48619771634E+03  0.68758852536E+03  0.12797820600E+04  0.90301824230E+03 0.  0.
         23    2    4    4    0    0  0.74867937118E+02 -0.66893919389E+03  0.66205740962E+03  0.94869200240E+03  0.92798968964E+02 0.  0.
         23    2    4    4    0    0  0.26163462682E+03  0.18274147756E+03  0.25531115742E+02  0.33109005759E+03  0.84389944841E+02 0.  0.
          2    1    3    3  502    0 -0.27159439931E+03  0.39841247782E+03  0.77909330979E+02  0.48843206700E+03  0.00000000000E+00 0. -1.
         -1    1    3    3    0  502 -0.64908164625E+02  0.87785238516E+02 -0.20365392515E+02  0.11105884543E+03  0.00000000000E+00 0.  1.
         11    1    5    5    0    0  0.35421641727E+02 -0.37731153486E+03  0.30832845167E+03  0.48855411282E+03  0.00000000000E+00 0. -1.
        -11    1    5    5    0    0  0.39446295391E+02 -0.29162765903E+03  0.35372895795E+03  0.46013788957E+03  0.00000000000E+00 0.  1.
          1    1    6    6  503    0  0.48672470035E+02  0.23538706859E+02 -0.26412249422E+02  0.60172144548E+02  0.00000000000E+00 0. -1.
         -1    1    6    6    0  503  0.21296215679E+03  0.15920277070E+03  0.51943365165E+02  0.27091791304E+03  0.00000000000E+00 0.  1.
<mgrwt>
<rscale>  0 0.17252375E+04</rscale>
<asrwt>0</asrwt>
<pdfrwt beam="1">  1        2 0.20187734E+00 0.17252375E+04</pdfrwt>
<pdfrwt beam="2">  1       -1 0.87241578E-01 0.17252375E+04</pdfrwt>
<totfact> 0.22775441E+01</totfact>
</mgrwt>
</event>
<event>
12    6  0.1462228E-007  0.1614583E+04  0.7818608E-02  0.8811639E-01
         -1   -1    0    0    0  501 -0.00000000000E+00  0.00000000000E+00  0.49358298822E+03  0.49358298822E+03  0.00000000000E+00 0.  1.
          2   -1    0    0  501    0  0.00000000000E+00 -0.00000000000E+00 -0.13203855199E+04  0.13203855199E+04  0.00000000000E+00 0. -1.
         24    2    1    2    0    0  0.10264673272E+03  0.41396902561E+03 -0.66083159716E+03  0.79022866470E+03  0.76526053062E+02 0.  0.
        254    2    1    2    0    0 -0.10264673272E+03 -0.41396902561E+03 -0.16597093454E+03  0.10237398434E+04  0.91574571254E+03 0.  0.
         23    2    4    4    0    0 -0.16652689413E+03 -0.65656479681E+03 -0.27281004284E+03  0.73611727083E+03  0.92923506548E+02 0.  0.
         23    2    4    4    0    0  0.63880161408E+02  0.24259577120E+03  0.10683910830E+03  0.28762257261E+03  0.91535599557E+02 0.  0.
          2    1    3    3  502    0  0.78139761717E+02  0.39385464717E+03 -0.61633401582E+03  0.73559154734E+03  0.00000000000E+00 0. -1.
         -1    1    3    3    0  502  0.24506971008E+02  0.20114378442E+02 -0.44497581341E+02  0.54637117359E+02  0.00000000000E+00 0.  1.
         11    1    5    5    0    0 -0.14002501575E+03 -0.56769500698E+03 -0.26814642043E+03  0.64326287688E+03  0.00000000000E+00 0. -1.
        -11    1    5    5    0    0 -0.26501878385E+02 -0.88869789829E+02 -0.46636224065E+01  0.92854393952E+02  0.00000000000E+00 0.  1.
          1    1    6    6  503    0  0.91588638452E+00  0.67324509690E+02  0.71220794627E+02  0.98009336494E+02  0.00000000000E+00 0. -1.
         -1    1    6    6    0  503  0.62964275024E+02  0.17527126151E+03  0.35618313671E+02  0.18961323611E+03  0.00000000000E+00 0.  1.
<mgrwt>
<rscale>  0 0.16145833E+04</rscale>
<asrwt>0</asrwt>
<pdfrwt beam="1">  1        2 0.20313623E+00 0.16145833E+04</pdfrwt>
<pdfrwt beam="2">  1       -1 0.75935846E-01 0.16145833E+04</pdfrwt>
<totfact> 0.30596976E+01</totfact>
</mgrwt>
</event>
<event>
12    6  0.1462228E-007  0.1096750E+04  0.7818608E-02  0.9208365E-01
          2   -1    0    0  501    0  0.00000000000E+00  0.00000000000E+00  0.22668374112E+04  0.22668374112E+04  0.00000000000E+00 0. -1.
         -1   -1    0    0    0  501 -0.00000000000E+00 -0.00000000000E+00 -0.13265850497E+03  0.13265850497E+03  0.00000000000E+00 0.  1.
         24    2    1    2    0    0 -0.77560311543E+02  0.45555265035E+02  0.34123852851E+02  0.12107500695E+03  0.73510787477E+02 0.  0.
        254    2    1    2    0    0  0.77560311543E+02 -0.45555265035E+02  0.21000550533E+04  0.22784209092E+04  0.87913578489E+03 0.  0.
         23    2    4    4    0    0 -0.25557791390E+03  0.27854892137E+03  0.11839877231E+04  0.12465477814E+04  0.95628820098E+02 0.  0.
         23    2    4    4    0    0  0.33313822544E+03 -0.32410418641E+03  0.91606733028E+03  0.10318731278E+04  0.97766033984E+02 0.  0.
          4    1    3    3  502    0 -0.12205798745E+01  0.82746001764E+01  0.35130594948E+02  0.36112567406E+02  0.00000000000E+00 0. -1.
         -3    1    3    3    0  502 -0.76339731668E+02  0.37280664858E+02 -0.10067420964E+01  0.84962439543E+02  0.00000000000E+00 0.  1.
         11    1    5    5    0    0 -0.20735599317E+03  0.16056745979E+03  0.81658059723E+03  0.85766094048E+03  0.00000000000E+00 0. -1.
        -11    1    5    5    0    0 -0.48221920723E+02  0.11798146158E+03  0.36740712582E+03  0.38888684089E+03  0.00000000000E+00 0.  1.
          2    1    6    6  503    0  0.15132378909E+03 -0.81787195751E+02  0.33305031901E+03  0.37484736831E+03  0.00000000000E+00 0. -1.
         -2    1    6    6    0  503  0.18181443635E+03 -0.24231699066E+03  0.58301701127E+03  0.65702575951E+03  0.00000000000E+00 0.  1.
<mgrwt>
<rscale>  0 0.10967502E+04</rscale>
<asrwt>0</asrwt>
<pdfrwt beam="1">  1        2 0.34874419E+00 0.10967502E+04</pdfrwt>
<pdfrwt beam="2">  1       -1 0.20409002E-01 0.10967502E+04</pdfrwt>
<totfact> 0.10644685E+02</totfact>
</mgrwt>
</event>
<event>
12    6  0.1462228E-007  0.1036909E+04  0.7818608E-02  0.9268965E-01
          2   -1    0    0  501    0  0.00000000000E+00  0.00000000000E+00  0.12635641344E+04  0.12635641344E+04  0.00000000000E+00 0. -1.
         -1   -1    0    0    0  501 -0.00000000000E+00 -0.00000000000E+00 -0.21272754396E+03  0.21272754396E+03  0.00000000000E+00 0.  1.
         24    2    1    2    0    0 -0.14555198905E+02  0.70030244017E+02  0.24599519768E+03  0.26849994492E+03  0.80389640170E+02 0.  0.
        254    2    1    2    0    0  0.14555198905E+02 -0.70030244017E+02  0.80484139278E+03  0.12077917335E+04  0.89770547229E+03 0.  0.
         23    2    4    4    0    0 -0.39439654026E+03  0.57587288734E+02  0.18400736694E+03  0.44818677045E+03  0.90264850990E+02 0.  0.
         23    2    4    4    0    0  0.40895173917E+03 -0.12761753275E+03  0.62083402585E+03  0.75960496301E+03  0.89649609827E+02 0.  0.
          4    1    3    3  502    0 -0.14007698739E+02 -0.13741983278E+02  0.82379146407E+02  0.84684009654E+02  0.00000000000E+00 0. -1.
         -3    1    3    3    0  502 -0.54750016619E+00  0.83772227295E+02  0.16361605127E+03  0.18381593526E+03  0.00000000000E+00 0.  1.
         11    1    5    5    0    0 -0.35279100758E+03  0.46061316036E+02  0.19199185656E+03  0.40428209563E+03  0.00000000000E+00 0. -1.
        -11    1    5    5    0    0 -0.41605532680E+02  0.11525972698E+02 -0.79844896193E+01  0.43904674816E+02  0.00000000000E+00 0.  1.
          1    1    6    6  503    0  0.39192874834E+03 -0.13837762238E+03  0.57454716570E+03  0.70912689680E+03  0.00000000000E+00 0. -1.
         -1    1    6    6    0  503  0.17022990823E+02  0.10760089633E+02  0.46286860144E+02  0.50478066202E+02  0.00000000000E+00 0.  1.
<mgrwt>
<rscale>  0 0.10369087E+04</rscale>
<asrwt>0</asrwt>
<pdfrwt beam="1">  1        2 0.19439448E+00 0.10369087E+04</pdfrwt>
<pdfrwt beam="2">  1       -1 0.32727315E-01 0.10369087E+04</pdfrwt>
<totfact> 0.17231001E+02</totfact>
</mgrwt>
</event>
<event>
12    6  0.1462228E-007  0.1713875E+04  0.7818608E-02  0.8753490E-01
         -1   -1    0    0    0  501 -0.00000000000E+00  0.00000000000E+00  0.11768146420E+04  0.11768146420E+04  0.00000000000E+00 0.  1.
          2   -1    0    0  501    0  0.00000000000E+00 -0.00000000000E+00 -0.62400834917E+03  0.62400834917E+03  0.00000000000E+00 0. -1.
         24    2    1    2    0    0 -0.17897283517E+03 -0.31372636030E+03 -0.32331424645E+03  0.49123237344E+03  0.79508728347E+02 0.  0.
        254    2    1    2    0    0  0.17897283517E+03  0.31372636030E+03  0.87612053931E+03  0.13095906178E+04  0.90387216014E+03 0.  0.
         23    2    4    4    0    0 -0.28045506198E+03 -0.10062573967E+03  0.13386118835E+03  0.33907822191E+03  0.90965056792E+02 0.  0.
         23    2    4    4    0    0  0.45942789715E+03  0.41435209997E+03  0.74225935096E+03  0.97051239585E+03  0.90463865664E+02 0.  0.
          2    1    3    3  502    0 -0.89389461605E+02 -0.23044501252E+03 -0.22615466428E+03  0.33502434511E+03  0.00000000000E+00 0. -1.
         -1    1    3    3    0  502 -0.89583373565E+02 -0.83281347777E+02 -0.97159582167E+02  0.15620802833E+03  0.00000000000E+00 0.  1.
         11    1    5    5    0    0 -0.49093252355E+02 -0.21992373145E+02  0.66637288793E+02  0.85640762263E+02  0.00000000000E+00 0. -1.
        -11    1    5    5    0    0 -0.23136180962E+03 -0.78633366527E+02  0.67223899556E+02  0.25343745965E+03  0.00000000000E+00 0.  1.
          4    1    6    6  503    0  0.38826690736E+03  0.35607696743E+03  0.57659479167E+03  0.78102724144E+03  0.00000000000E+00 0. -1.
         -4    1    6    6    0  503  0.71160989789E+02  0.58275132542E+02  0.16566455929E+03  0.18948515442E+03  0.00000000000E+00 0.  1.
<mgrwt>
<rscale>  0 0.17138753E+04</rscale>
<asrwt>0</asrwt>
<pdfrwt beam="1">  1        2 0.96001285E-01 0.17138753E+04</pdfrwt>
<pdfrwt beam="2">  1       -1 0.18104841E+00 0.17138753E+04</pdfrwt>
<totfact> 0.10498657E+01</totfact>
</mgrwt>
</event>
<event>
12    6  0.1462228E-007  0.1339081E+04  0.7818608E-02  0.8999135E-01
          2   -1    0    0  501    0  0.00000000000E+00  0.00000000000E+00  0.19993260757E+04  0.19993260757E+04  0.00000000000E+00 0. -1.
         -1   -1    0    0    0  501 -0.00000000000E+00 -0.00000000000E+00 -0.22421786749E+03  0.22421786749E+03  0.00000000000E+00 0.  1.
         24    2    1    2    0    0  0.32229533074E+03  0.65325688038E+02  0.71516528567E+03  0.79121640842E+03  0.80126733265E+02 0.  0.
        254    2    1    2    0    0 -0.32229533074E+03 -0.65325688038E+02  0.10599429225E+04  0.14323275347E+04  0.90550618002E+03 0.  0.
         23    2    4    4    0    0 -0.43982331314E+03  0.12112563663E+03  0.14588816115E+03  0.48771499615E+03  0.92014103679E+02 0.  0.
         23    2    4    4    0    0  0.11752798240E+03 -0.18645132466E+03  0.91405476134E+03  0.94461253858E+03  0.90663213002E+02 0.  0.
          4    1    3    3  502    0  0.25775460488E+03  0.61034489147E+02  0.63620928839E+03  0.68914795497E+03  0.00000000000E+00 0. -1.
         -3    1    3    3    0  502  0.64540725864E+02  0.42911988908E+01  0.78955997277E+02  0.10206845345E+03  0.00000000000E+00 0.  1.
         11    1    5    5    0    0 -0.26192328226E+03  0.84713721136E+02  0.41879457825E+02  0.27844947356E+03  0.00000000000E+00 0. -1.
        -11    1    5    5    0    0 -0.17790003088E+03  0.36411915490E+02  0.10400870333E+03  0.20926552259E+03  0.00000000000E+00 0.  1.
          1    1    6    6  503    0  0.10915233147E+03 -0.98820092180E+02  0.49616125667E+03  0.51754771249E+03  0.00000000000E+00 0. -1.
         -1    1    6    6    0  503  0.83756509326E+01 -0.87631232484E+02  0.41789350467E+03  0.42706482609E+03  0.00000000000E+00 0.  1.
<mgrwt>
<rscale>  0 0.13390812E+04</rscale>
<asrwt>0</asrwt>
<pdfrwt beam="1">  1        2 0.30758862E+00 0.13390812E+04</pdfrwt>
<pdfrwt beam="2">  1       -1 0.34495058E-01 0.13390812E+04</pdfrwt>
<totfact> 0.59351995E+01</totfact>
</mgrwt>
</event>
<event>
12    6  0.1462228E-007  0.1291801E+04  0.7818608E-02  0.9036093E-01
          2   -1    0    0  501    0  0.00000000000E+00  0.00000000000E+00  0.21939658721E+04  0.21939658721E+04  0.00000000000E+00 0. -1.
         -1   -1    0    0    0  501 -0.00000000000E+00 -0.00000000000E+00 -0.19015207654E+03  0.19015207654E+03  0.00000000000E+00 0.  1.
         24    2    1    2    0    0  0.12509920011E+03 -0.17344963050E+03  0.93387163186E+03  0.96266944494E+03  0.94242512917E+02 0.  0.
        254    2    1    2    0    0 -0.12509920011E+03  0.17344963050E+03  0.10699421637E+04  0.14214485037E+04  0.91104611894E+03 0.  0.
         23    2    4    4    0    0 -0.85079948003E+02 -0.35064811345E+03  0.61889200858E+03  0.72254679578E+03  0.94094934977E+02 0.  0.
         23    2    4    4    0    0 -0.40019252108E+02  0.52409774395E+03  0.45105015514E+03  0.69890170794E+03  0.93473895607E+02 0.  0.
          2    1    3    3  502    0  0.13461456662E+02 -0.73759721387E+01  0.24077000885E+03  0.24125880904E+03  0.00000000000E+00 0. -1.
         -1    1    3    3    0  502  0.11163774345E+03 -0.16607365836E+03  0.69310162301E+03  0.72141063590E+03  0.00000000000E+00 0.  1.
         11    1    5    5    0    0 -0.28987994715E+02 -0.51381015425E+02  0.50144413173E+02  0.77425930774E+02  0.00000000000E+00 0.  1.
        -11    1    5    5    0    0 -0.56091953288E+02 -0.29926709802E+03  0.56874759541E+03  0.64512086501E+03  0.00000000000E+00 0. -1.
          1    1    6    6  503    0 -0.69957341257E+02  0.38619777091E+03  0.32176342315E+03  0.50751792907E+03  0.00000000000E+00 0. -1.
         -1    1    6    6    0  503  0.29938089149E+02  0.13789997304E+03  0.12928673199E+03  0.19138377887E+03  0.00000000000E+00 0.  1.
<mgrwt>
<rscale>  0 0.12918006E+04</rscale>
<asrwt>0</asrwt>
<pdfrwt beam="1">  1        2 0.33753319E+00 0.12918006E+04</pdfrwt>
<pdfrwt beam="2">  1       -1 0.29254167E-01 0.12918006E+04</pdfrwt>
<totfact> 0.62134453E+01</totfact>
</mgrwt>
</event>
<event>
12    6  0.1462228E-007  0.1151004E+04  0.7818608E-02  0.9156858E-01
          2   -1    0    0  501    0  0.00000000000E+00  0.00000000000E+00  0.14715201769E+04  0.14715201769E+04  0.00000000000E+00 0. -1.
         -1   -1    0    0    0  501 -0.00000000000E+00 -0.00000000000E+00 -0.22507500776E+03  0.22507500776E+03  0.00000000000E+00 0.  1.
         24    2    1    2    0    0 -0.61208592774E+02  0.19044363083E+02 -0.49895949940E+02  0.11570560666E+03  0.82395400340E+02 0.  0.
        254    2    1    2    0    0  0.61208592774E+02 -0.19044363083E+02  0.12963411191E+04  0.15808895780E+04  0.90255325673E+03 0.  0.
         23    2    4    4    0    0 -0.88338209217E+02  0.20719857784E+03  0.12669910382E+04  0.12902307183E+04  0.93242295351E+02 0.  0.
         23    2    4    4    0    0  0.14954680199E+03 -0.22624294092E+03  0.29350080899E+02  0.29065885975E+03  0.10035452754E+03 0.  0.
          4    1    3    3  502    0 -0.46514620339E+02  0.31884077460E+02  0.57995146904E+01  0.56690728266E+02  0.00000000000E+00 0. -1.
         -1    1    3    3    0  502 -0.14693972435E+02 -0.12839714376E+02 -0.55695464631E+02  0.59014878392E+02  0.00000000000E+00 0.  1.
         11    1    5    5    0    0 -0.86423237359E+02  0.15849035230E+03  0.11400158556E+04  0.11542202210E+04  0.00000000000E+00 0.  1.
        -11    1    5    5    0    0 -0.19149718587E+01  0.48708225539E+02  0.12697518262E+03  0.13601049722E+03  0.00000000000E+00 0. -1.
          1    1    6    6  503    0  0.25867940661E+02 -0.54318113805E+02 -0.34628580171E+02  0.69417190998E+02  0.00000000000E+00 0. -1.
         -1    1    6    6    0  503  0.12367886133E+03 -0.17192482712E+03  0.63978661070E+02  0.22124166875E+03  0.00000000000E+00 0.  1.
<mgrwt>
<rscale>  0 0.11510038E+04</rscale>
<asrwt>0</asrwt>
<pdfrwt beam="1">  1        2 0.22638771E+00 0.11510038E+04</pdfrwt>
<pdfrwt beam="2">  1       -1 0.34626925E-01 0.11510038E+04</pdfrwt>
<totfact> 0.11745798E+02</totfact>
</mgrwt>
</event>
<event>
12    6  0.1665954E-007  0.3101303E+04  0.7818608E-02  0.8215381E-01
         -1   -1    0    0    0  501 -0.00000000000E+00  0.00000000000E+00  0.82670445620E+03  0.82670445620E+03  0.00000000000E+00 0.  1.
          2   -1    0    0  501    0  0.00000000000E+00 -0.00000000000E+00 -0.29085599185E+04  0.29085599185E+04  0.00000000000E+00 0. -1.
         24    2    1    2    0    0 -0.75453159770E+03 -0.25009169260E+03 -0.23433726323E+04  0.24755762214E+04  0.72239512119E+02 0.  0.
        254    2    1    2    0    0  0.75453159770E+03  0.25009169260E+03  0.26151717008E+03  0.12596881533E+04  0.94157274105E+03 0.  0.
         23    2    4    4    0    0  0.19970121507E+03  0.20792294696E+03  0.54889751128E+03  0.62671238133E+03  0.91473514451E+02 0.  0.
         23    2    4    4    0    0  0.55483038264E+03  0.42168745641E+02 -0.28738034120E+03  0.63297577198E+03  0.91956026432E+02 0.  0.
          4    1    3    3  502    0 -0.71698523654E+03 -0.22799350621E+03 -0.21665799661E+04  0.22934946300E+04  0.00000000000E+00 0. -1.
         -3    1    3    3    0  502 -0.37546361162E+02 -0.22098186388E+02 -0.17679266625E+03  0.18208159138E+03  0.00000000000E+00 0.  1.
         11    1    5    5    0    0  0.79293338105E+02  0.11343512074E+03  0.17799543990E+03  0.22547136561E+03  0.00000000000E+00 0.  1.
        -11    1    5    5    0    0  0.12040787696E+03  0.94487826222E+02  0.37090207138E+03  0.40124101572E+03  0.00000000000E+00 0. -1.
          1    1    6    6  503    0  0.54813338405E+03  0.28756057660E+02 -0.28160187466E+03  0.61690901548E+03  0.00000000000E+00 0. -1.
         -1    1    6    6    0  503  0.66969985842E+01  0.13412687981E+02 -0.57784665453E+01  0.16066756503E+02  0.00000000000E+00 0.  1.
<mgrwt>
<rscale>  0 0.31013026E+04</rscale>
<asrwt>0</asrwt>
<pdfrwt beam="1">  1        2 0.44747076E+00 0.31013026E+04</pdfrwt>
<pdfrwt beam="2">  1       -1 0.12718530E+00 0.31013026E+04</pdfrwt>
<totfact> 0.10252333E+00</totfact>
</mgrwt>
</event>
<event>
12    6  0.1462228E-007  0.1953351E+04  0.7818608E-02  0.8628747E-01
          2   -1    0    0  501    0  0.00000000000E+00  0.00000000000E+00  0.16728544593E+04  0.16728544593E+04  0.00000000000E+00 0. -1.
         -1   -1    0    0    0  501 -0.00000000000E+00 -0.00000000000E+00 -0.57021981353E+03  0.57021981353E+03  0.00000000000E+00 0.  1.
         24    2    1    2    0    0  0.26126435038E+03  0.18757100930E+03 -0.36421243199E+03  0.49251070666E+03  0.80462141749E+02 0.  0.
        254    2    1    2    0    0 -0.26126435038E+03 -0.18757100930E+03  0.14668470777E+04  0.17505635661E+04  0.89966132812E+03 0.  0.
         23    2    4    4    0    0  0.92506841660E+02 -0.44405654775E+03  0.10122314794E+04  0.11130669242E+04  0.92529327329E+02 0.  0.
         23    2    4    4    0    0 -0.35377119204E+03  0.25648553845E+03  0.45461559828E+03  0.63749664193E+03  0.93742938515E+02 0.  0.
          4    1    3    3  502    0  0.14772623173E+03  0.64192667630E+02 -0.14660570354E+03  0.21780029942E+03  0.00000000000E+00 0. -1.
         -3    1    3    3    0  502  0.11353811865E+03  0.12337834167E+03 -0.21760672845E+03  0.27471040724E+03  0.00000000000E+00 0.  1.
         11    1    5    5    0    0  0.34903013575E+02 -0.35443353947E+03  0.76362702465E+03  0.84259574354E+03  0.00000000000E+00 0. -1.
        -11    1    5    5    0    0  0.57603828085E+02 -0.89623008278E+02  0.24860445479E+03  0.27047118065E+03  0.00000000000E+00 0.  1.
          1    1    6    6  503    0 -0.27494587196E+03  0.20830784035E+03  0.29885749510E+03  0.45640244438E+03  0.00000000000E+00 0. -1.
         -1    1    6    6    0  503 -0.78825320079E+02  0.48177698095E+02  0.15575810317E+03  0.18109419754E+03  0.00000000000E+00 0.  1.
<mgrwt>
<rscale>  0 0.19533507E+04</rscale>
<asrwt>0</asrwt>
<pdfrwt beam="1">  1        2 0.25736222E+00 0.19533507E+04</pdfrwt>
<pdfrwt beam="2">  1       -1 0.87726126E-01 0.19533507E+04</pdfrwt>
<totfact> 0.13783823E+01</totfact>
</mgrwt>
</event>
<event>
12    6  0.1462228E-007  0.1219210E+04  0.7818608E-02  0.9096206E-01
          2   -1    0    0  501    0  0.00000000000E+00  0.00000000000E+00  0.14778537434E+04  0.14778537434E+04  0.00000000000E+00 0. -1.
         -1   -1    0    0    0  501 -0.00000000000E+00 -0.00000000000E+00 -0.25145825032E+03  0.25145825032E+03  0.00000000000E+00 0.  1.
         24    2    1    2    0    0  0.23157733575E+02 -0.13629220151E+03  0.56562292877E+03  0.58792836267E+03  0.81354884742E+02 0.  0.
        254    2    1    2    0    0 -0.23157733575E+02  0.13629220151E+03  0.66077256431E+03  0.11413836311E+04  0.92033926716E+03 0.  0.
         23    2    4    4    0    0  0.36730902385E+03  0.24810628675E+03  0.54658107231E+03  0.70963857746E+03  0.91451590937E+02 0.  0.
         23    2    4    4    0    0 -0.39046675742E+03 -0.11181408525E+03  0.11419149200E+03  0.43174505360E+03  0.91637416746E+02 0.  0.
          2    1    3    3  502    0  0.39361640779E+02 -0.82495018256E+02  0.45228327681E+03  0.46142705739E+03  0.00000000000E+00 0. -1.
         -1    1    3    3    0  502 -0.16203907204E+02 -0.53797183251E+02  0.11333965196E+03  0.12650130529E+03  0.00000000000E+00 0.  1.
         11    1    5    5    0    0  0.35167475110E+03  0.25564986113E+03  0.53121422042E+03  0.68645504589E+03  0.00000000000E+00 0. -1.
        -11    1    5    5    0    0  0.15634272748E+02 -0.75435743802E+01  0.15366851889E+02  0.23183531564E+02  0.00000000000E+00 0.  1.
          1    1    6    6  503    0 -0.20075332857E+03 -0.91624595536E+02  0.94120331084E+02  0.23990748667E+03  0.00000000000E+00 0. -1.
         -1    1    6    6    0  503 -0.18971342886E+03 -0.20189489709E+02  0.20071160918E+02  0.19183756692E+03  0.00000000000E+00 0.  1.
<mgrwt>
<rscale>  0 0.12192104E+04</rscale>
<asrwt>0</asrwt>
<pdfrwt beam="1">  1        2 0.22736211E+00 0.12192104E+04</pdfrwt>
<pdfrwt beam="2">  1       -1 0.38685885E-01 0.12192104E+04</pdfrwt>
<totfact> 0.94948056E+01</totfact>
</mgrwt>
</event>
<event>
12    6  0.1462228E-007  0.1651798E+04  0.7818608E-02  0.8789343E-01
          2   -1    0    0  501    0  0.00000000000E+00  0.00000000000E+00  0.14014080702E+04  0.14014080702E+04  0.00000000000E+00 0. -1.
         -1   -1    0    0    0  501 -0.00000000000E+00 -0.00000000000E+00 -0.48673157645E+03  0.48673157645E+03  0.00000000000E+00 0.  1.
         24    2    1    2    0    0 -0.32878514139E+03  0.41101010373E+03  0.58094217336E+03  0.78796386583E+03  0.79776378073E+02 0.  0.
        254    2    1    2    0    0  0.32878514139E+03 -0.41101010373E+03  0.33373432036E+03  0.11001757808E+04  0.90663067315E+03 0.  0.
         23    2    4    4    0    0  0.20171261362E+03  0.18160081362E+03  0.39150669649E+03  0.48455175310E+03  0.88578067449E+02 0.  0.
         23    2    4    4    0    0  0.12707252777E+03 -0.59261091735E+03 -0.57772376135E+02  0.61562402769E+03  0.91214962298E+02 0.  0.
          4    1    3    3  502    0 -0.27038732576E+03  0.36310809406E+03  0.46028337698E+03  0.64561411154E+03  0.00000000000E+00 0. -1.
         -3    1    3    3    0  502 -0.58397815624E+02  0.47902009674E+02  0.12065879639E+03  0.14234975429E+03  0.00000000000E+00 0.  1.
         11    1    5    5    0    0  0.47410559584E+02  0.90660322345E+02  0.18320305299E+03  0.20983425324E+03  0.00000000000E+00 0.  1.
        -11    1    5    5    0    0  0.15430205404E+03  0.90940491277E+02  0.20830364350E+03  0.27471749986E+03  0.00000000000E+00 0. -1.
          2    1    6    6  503    0  0.49799625170E+02 -0.38949146654E+03 -0.65884664239E+02  0.39815122021E+03  0.00000000000E+00 0. -1.
         -2    1    6    6    0  503  0.77272902598E+02 -0.20311945082E+03  0.81122881047E+01  0.21747280748E+03  0.00000000000E+00 0.  1.
<mgrwt>
<rscale>  0 0.16517985E+04</rscale>
<asrwt>0</asrwt>
<pdfrwt beam="1">  1        2 0.21560124E+00 0.16517985E+04</pdfrwt>
<pdfrwt beam="2">  1       -1 0.74881782E-01 0.16517985E+04</pdfrwt>
<totfact> 0.28205194E+01</totfact>
</mgrwt>
</event>
<event>
12    6  0.1462228E-007  0.1783749E+04  0.7818608E-02  0.8714990E-01
          2   -1    0    0  501    0  0.00000000000E+00  0.00000000000E+00  0.80731143035E+03  0.80731143035E+03  0.00000000000E+00 0. -1.
         -1   -1    0    0    0  501 -0.00000000000E+00 -0.00000000000E+00 -0.98529507562E+03  0.98529507562E+03  0.00000000000E+00 0.  1.
         24    2    1    2    0    0  0.18083036979E+02 -0.47162821002E+03  0.40154457751E+03  0.62422797518E+03  0.75248605026E+02 0.  0.
        254    2    1    2    0    0 -0.18083036979E+02  0.47162821002E+03 -0.57952822278E+03  0.11683785308E+04  0.89805081454E+03 0.  0.
         23    2    4    4    0    0 -0.30793030625E+02 -0.24381692116E+03 -0.33889270362E+02  0.26385938688E+03  0.89879873278E+02 0.  0.
         23    2    4    4    0    0  0.12709993646E+02  0.71544513119E+03 -0.54563895241E+03  0.90451914390E+03  0.91704610682E+02 0.  0.
          2    1    3    3  502    0  0.21462284613E+02 -0.35972743574E+03  0.26314190744E+03  0.44621533046E+03  0.00000000000E+00 0. -1.
         -1    1    3    3    0  502 -0.33792476338E+01 -0.11190077428E+03  0.13840267007E+03  0.17801264472E+03  0.00000000000E+00 0.  1.
         11    1    5    5    0    0 -0.42535649581E+02 -0.50582553730E+02 -0.22944339108E+02  0.69959409119E+02  0.00000000000E+00 0. -1.
        -11    1    5    5    0    0  0.11742618956E+02 -0.19323436743E+03 -0.10944931254E+02  0.19389997776E+03  0.00000000000E+00 0.  1.
          3    1    6    6  503    0  0.30951237754E+02  0.17152077923E+03 -0.16819291343E+03  0.24221109172E+03  0.00000000000E+00 0. -1.
         -3    1    6    6    0  503 -0.18241244108E+02  0.54392435195E+03 -0.37744603898E+03  0.66230805218E+03  0.00000000000E+00 0.  1.
<mgrwt>
<rscale>  0 0.17837488E+04</rscale>
<asrwt>0</asrwt>
<pdfrwt beam="1">  1        2 0.12420176E+00 0.17837488E+04</pdfrwt>
<pdfrwt beam="2">  1       -1 0.15158386E+00 0.17837488E+04</pdfrwt>
<totfact> 0.12453170E+01</totfact>
</mgrwt>
</event>
<event>
12    6  0.1462228E-007  0.2119766E+04  0.7818608E-02  0.8552586E-01
          2   -1    0    0  501    0  0.00000000000E+00  0.00000000000E+00  0.10365218309E+04  0.10365218309E+04  0.00000000000E+00 0. -1.
         -1   -1    0    0    0  501 -0.00000000000E+00 -0.00000000000E+00 -0.10837706444E+04  0.10837706444E+04  0.00000000000E+00 0.  1.
         24    2    1    2    0    0 -0.23202517005E+03 -0.78389568567E+03  0.25372047559E+03  0.85982990101E+03  0.81272709975E+02 0.  0.
        254    2    1    2    0    0  0.23202517005E+03  0.78389568567E+03 -0.30096928908E+03  0.12604625743E+04  0.91096391959E+03 0.  0.
         23    2    4    4    0    0  0.37452420085E+03 -0.27259627913E+02 -0.17071591084E+03  0.42255733952E+03  0.91647796659E+02 0.  0.
         23    2    4    4    0    0 -0.14249903080E+03  0.81115531359E+03 -0.13025337824E+03  0.83790523482E+03  0.82706248016E+02 0.  0.
          4    1    3    3  502    0 -0.14704142102E+03 -0.47034942356E+03  0.19355497903E+03  0.52944621034E+03  0.00000000000E+00 0. -1.
         -3    1    3    3    0  502 -0.84983749027E+02 -0.31354626211E+03  0.60165496563E+02  0.33038369067E+03  0.00000000000E+00 0.  1.
         11    1    5    5    0    0  0.32579480572E+03 -0.14166126798E+02 -0.11122271868E+03  0.34454815009E+03  0.00000000000E+00 0. -1.
        -11    1    5    5    0    0  0.48729395129E+02 -0.13093501115E+02 -0.59493192166E+02  0.78009189428E+02  0.00000000000E+00 0.  1.
          2    1    6    6  503    0 -0.77892537563E+02  0.47491896476E+03 -0.11689748999E+03  0.49525780525E+03  0.00000000000E+00 0. -1.
         -2    1    6    6    0  503 -0.64606493236E+02  0.33623634883E+03 -0.13355888250E+02  0.34264742957E+03  0.00000000000E+00 0.  1.
<mgrwt>
<rscale>  0 0.21197660E+04</rscale>
<asrwt>0</asrwt>
<pdfrwt beam="1">  1        2 0.15946490E+00 0.21197660E+04</pdfrwt>
<pdfrwt beam="2">  1       -1 0.16673395E+00 0.21197660E+04</pdfrwt>
<totfact> 0.65162407E+00</totfact>
</mgrwt>
</event>
<event>
12    6  0.1462228E-007  0.1880753E+04  0.7818608E-02  0.8664497E-01
         -1   -1    0    0    0  501 -0.00000000000E+00  0.00000000000E+00  0.42881793995E+03  0.42881793995E+03  0.00000000000E+00 0.  1.
          2   -1    0    0  501    0  0.00000000000E+00 -0.00000000000E+00 -0.20621993744E+04  0.20621993744E+04  0.00000000000E+00 0. -1.
         24    2    1    2    0    0 -0.29351595867E+03  0.31418840746E+03  0.13703875921E+03  0.45830232611E+03  0.79971414974E+02 0.  0.
        254    2    1    2    0    0  0.29351595867E+03 -0.31418840746E+03 -0.17704201937E+04  0.20327149883E+04  0.90148576691E+03 0.  0.
         23    2    4    4    0    0  0.39979597828E+03 -0.42739174794E+03 -0.17513336608E+04  0.18484642660E+04  0.84557795198E+02 0.  0.
         23    2    4    4    0    0 -0.10628001962E+03  0.11320334048E+03 -0.19086532848E+02  0.18425072224E+03  0.97332389499E+02 0.  0.
          4    1    3    3  502    0 -0.22772975441E+02  0.38183865959E+02  0.39714230053E+02  0.59614059573E+02  0.00000000000E+00 0. -1.
         -3    1    3    3    0  502 -0.27074298323E+03  0.27600454150E+03  0.97324529159E+02  0.39868826653E+03  0.00000000000E+00 0.  1.
         11    1    5    5    0    0  0.31668833030E+03 -0.37235467827E+03 -0.13813158307E+04  0.14652552437E+04  0.00000000000E+00 0. -1.
        -11    1    5    5    0    0  0.83107647984E+02 -0.55037069675E+02 -0.37001783007E+03  0.38320902229E+03  0.00000000000E+00 0.  1.
          1    1    6    6  503    0 -0.66717675843E+02  0.12143484742E+03  0.22088527734E+01  0.13857326390E+03  0.00000000000E+00 0. -1.
         -1    1    6    6    0  503 -0.39562343773E+02 -0.82315069453E+01 -0.21295385621E+02  0.45677458338E+02  0.00000000000E+00 0.  1.
<mgrwt>
<rscale>  0 0.18807531E+04</rscale>
<asrwt>0</asrwt>
<pdfrwt beam="1">  1        2 0.31726144E+00 0.18807531E+04</pdfrwt>
<pdfrwt beam="2">  1       -1 0.65971991E-01 0.18807531E+04</pdfrwt>
<totfact> 0.15343227E+01</totfact>
</mgrwt>
</event>
<event>
12    6  0.1462228E-007  0.2340364E+04  0.7818608E-02  0.8462174E-01
          2   -1    0    0  501    0  0.00000000000E+00  0.00000000000E+00  0.14566777727E+04  0.14566777727E+04  0.00000000000E+00 0. -1.
         -1   -1    0    0    0  501 -0.00000000000E+00 -0.00000000000E+00 -0.94003377980E+03  0.94003377980E+03  0.00000000000E+00 0.  1.
         24    2    1    2    0    0  0.37077713988E+03 -0.92147098353E+03  0.22806766221E+03  0.10232063184E+04  0.91388459938E+02 0.  0.
        254    2    1    2    0    0 -0.37077713988E+03  0.92147098353E+03  0.28857633068E+03  0.13735052340E+04  0.90369013958E+03 0.  0.
         23    2    4    4    0    0 -0.25658927078E+03  0.10844825682E+04  0.28553586148E+03  0.11541166145E+04  0.92270998794E+02 0.  0.
         23    2    4    4    0    0 -0.11418786910E+03 -0.16301158462E+03  0.30404691986E+01  0.21938861952E+03  0.92252239823E+02 0.  0.
          2    1    3    3  502    0  0.31841101087E+03 -0.84205482760E+03  0.18633249783E+03  0.91932676687E+03  0.00000000000E+00 0. -1.
         -1    1    3    3    0  502  0.52366129010E+02 -0.79416155935E+02  0.41735164380E+02  0.10387955158E+03  0.00000000000E+00 0.  1.
         11    1    5    5    0    0 -0.13182268865E+03  0.39164588490E+03  0.12948090967E+03  0.43304621736E+03  0.00000000000E+00 0. -1.
        -11    1    5    5    0    0 -0.12476658213E+03  0.69283668326E+03  0.15605495181E+03  0.72107039717E+03  0.00000000000E+00 0.  1.
          3    1    6    6  503    0 -0.83166007843E+02 -0.14237403368E+03 -0.32318447842E+02  0.16802211877E+03  0.00000000000E+00 0. -1.
         -3    1    6    6    0  503 -0.31021861258E+02 -0.20637550944E+02  0.35358917041E+02  0.51366500749E+02  0.00000000000E+00 0.  1.
<mgrwt>
<rscale>  0 0.23403643E+04</rscale>
<asrwt>0</asrwt>
<pdfrwt beam="1">  1        2 0.22410427E+00 0.23403643E+04</pdfrwt>
<pdfrwt beam="2">  1       -1 0.14462058E+00 0.23403643E+04</pdfrwt>
<totfact> 0.53204157E+00</totfact>
</mgrwt>
</event>
<event>
12    6  0.1462228E-007  0.3333322E+04  0.7818608E-02  0.8154468E-01
         -1   -1    0    0    0  501 -0.00000000000E+00  0.00000000000E+00  0.79788369245E+03  0.79788369245E+03  0.00000000000E+00 0.  1.
          2   -1    0    0  501    0  0.00000000000E+00 -0.00000000000E+00 -0.34814081310E+04  0.34814081310E+04  0.00000000000E+00 0. -1.
         24    2    1    2    0    0  0.36076164322E+03 -0.13886340324E+04 -0.50864504225E+03  0.15240910690E+04  0.75368220415E+02 0.  0.
        254    2    1    2    0    0 -0.36076164322E+03  0.13886340324E+04 -0.21748793963E+04  0.27552007544E+04  0.89586682583E+03 0.  0.
         23    2    4    4    0    0  0.55254698134E+02  0.10683810729E+04 -0.10085764106E+04  0.14730243292E+04  0.89906061151E+02 0.  0.
         23    2    4    4    0    0 -0.41601634135E+03  0.32025295948E+03 -0.11663029856E+04  0.12821764252E+04  0.89900926827E+02 0.  0.
          4    1    3    3  502    0  0.20929225482E+03 -0.68594948704E+03 -0.22995815027E+03  0.75313391743E+03  0.00000000000E+00 0. -1.
         -3    1    3    3    0  502  0.15146938840E+03 -0.70268454531E+03 -0.27868689198E+03  0.77095715160E+03  0.00000000000E+00 0.  1.
         11    1    5    5    0    0  0.20338583128E+02  0.94046689208E+03 -0.89521369296E+03  0.12985758311E+04  0.00000000000E+00 0.  1.
        -11    1    5    5    0    0  0.34916115006E+02  0.12791418080E+03 -0.11336271769E+03  0.17444849812E+03  0.00000000000E+00 0. -1.
          2    1    6    6  503    0 -0.22855869519E+03  0.22061302293E+03 -0.63482263398E+03  0.70986545179E+03  0.00000000000E+00 0. -1.
         -2    1    6    6    0  503 -0.18745764616E+03  0.99639936553E+02 -0.53148035163E+03  0.57231097336E+03  0.00000000000E+00 0.  1.
<mgrwt>
<rscale>  0 0.33333219E+04</rscale>
<asrwt>0</asrwt>
<pdfrwt beam="1">  1        2 0.53560123E+00 0.33333219E+04</pdfrwt>
<pdfrwt beam="2">  1       -1 0.12275134E+00 0.33333219E+04</pdfrwt>
<totfact> 0.46312591E-01</totfact>
</mgrwt>
</event>
<event>
12    6  0.1462228E-007  0.1381397E+04  0.7818608E-02  0.8967396E-01
          2   -1    0    0  501    0  0.00000000000E+00  0.00000000000E+00  0.12008226293E+04  0.12008226293E+04  0.00000000000E+00 0. -1.
         -1   -1    0    0    0  501 -0.00000000000E+00 -0.00000000000E+00 -0.39728119831E+03  0.39728119831E+03  0.00000000000E+00 0.  1.
         24    2    1    2    0    0 -0.14234782691E+03  0.18689649397E+03 -0.12075731518E+03  0.27771807840E+03  0.85742630098E+02 0.  0.
        254    2    1    2    0    0  0.14234782691E+03 -0.18689649397E+03  0.92429874622E+03  0.13203857492E+04  0.91317969276E+03 0.  0.
         23    2    4    4    0    0  0.47104589633E+03  0.10097369143E+03  0.41288154556E+03  0.64102503481E+03  0.91443981657E+02 0.  0.
         23    2    4    4    0    0 -0.32869806942E+03 -0.28787018540E+03  0.51141720066E+03  0.67936071443E+03  0.95245801482E+02 0.  0.
          4    1    3    3  502    0 -0.23052345355E+02 -0.12935047583E+00  0.37138401131E+01  0.23349945745E+02  0.00000000000E+00 0. -1.
         -3    1    3    3    0  502 -0.11929548156E+03  0.18702584445E+03 -0.12447115529E+03  0.25436813266E+03  0.00000000000E+00 0.  1.
         11    1    5    5    0    0  0.10101607043E+03  0.15072617623E+01  0.47741394235E+02  0.11173969325E+03  0.00000000000E+00 0.  1.
        -11    1    5    5    0    0  0.37002982590E+03  0.99466429669E+02  0.36514015133E+03  0.52928534156E+03  0.00000000000E+00 0. -1.
          1    1    6    6  503    0 -0.12578854283E+03 -0.95773105410E+02  0.12018407097E+03  0.19859369613E+03  0.00000000000E+00 0. -1.
         -1    1    6    6    0  503 -0.20290952659E+03 -0.19209708000E+03  0.39123312969E+03  0.48076701831E+03  0.00000000000E+00 0.  1.
<mgrwt>
<rscale>  0 0.13813968E+04</rscale>
<asrwt>0</asrwt>
<pdfrwt beam="1">  1        2 0.18474194E+00 0.13813968E+04</pdfrwt>
<pdfrwt beam="2">  1       -1 0.61120185E-01 0.13813968E+04</pdfrwt>
<totfact> 0.57076949E+01</totfact>
</mgrwt>
</event>
<event>
12    6  0.1462228E-007  0.1586752E+04  0.7818608E-02  0.8828728E-01
          2   -1    0    0  501    0  0.00000000000E+00  0.00000000000E+00  0.16931495223E+04  0.16931495223E+04  0.00000000000E+00 0. -1.
         -1   -1    0    0    0  501 -0.00000000000E+00 -0.00000000000E+00 -0.37176006844E+03  0.37176006844E+03  0.00000000000E+00 0.  1.
         24    2    1    2    0    0  0.16642974696E+03 -0.11814662359E+03 -0.18676492126E+03  0.29695329617E+03  0.10790106095E+03 0.  0.
        254    2    1    2    0    0 -0.16642974696E+03  0.11814662359E+03  0.15081543751E+04  0.17679562946E+04  0.89971237347E+03 0.  0.
         23    2    4    4    0    0  0.32581683444E+03 -0.10417171398E+03  0.78595667564E+03  0.86234084515E+03  0.94315861040E+02 0.  0.
         23    2    4    4    0    0 -0.49224658140E+03  0.22231833756E+03  0.72219769951E+03  0.90561544943E+03  0.82690295453E+02 0.  0.
          2    1    3    3  502    0  0.42669506660E+02  0.18259423555E+02 -0.43519637275E+02  0.63624304914E+02  0.00000000000E+00 0. -1.
         -1    1    3    3    0  502  0.12376024030E+03 -0.13640604714E+03 -0.14324528399E+03  0.23332899126E+03  0.00000000000E+00 0.  1.
         11    1    5    5    0    0  0.23680752028E+03 -0.11501001509E+03  0.54529848003E+03  0.60552088119E+03  0.00000000000E+00 0.  1.
        -11    1    5    5    0    0  0.89009314157E+02  0.10838301110E+02  0.24065819561E+03  0.25681996397E+03  0.00000000000E+00 0. -1.
          3    1    6    6  503    0 -0.38932375938E+03  0.15746339132E+03  0.50632110895E+03  0.65782123301E+03  0.00000000000E+00 0. -1.
         -3    1    6    6    0  503 -0.10292282202E+03  0.64854946241E+02  0.21587659055E+03  0.24779421642E+03  0.00000000000E+00 0.  1.
<mgrwt>
<rscale>  0 0.15867519E+04</rscale>
<asrwt>0</asrwt>
<pdfrwt beam="1">  1        2 0.26048454E+00 0.15867519E+04</pdfrwt>
<pdfrwt beam="2">  1       -1 0.57193858E-01 0.15867519E+04</pdfrwt>
<totfact> 0.33488938E+01</totfact>
</mgrwt>
</event>
<event>
12    6  0.1462228E-007  0.1731803E+04  0.7818608E-02  0.8743431E-01
          4   -1    0    0  501    0  0.00000000000E+00  0.00000000000E+00  0.27446795815E+03  0.27446795815E+03  0.00000000000E+00 0. -1.
         -3   -1    0    0    0  501 -0.00000000000E+00 -0.00000000000E+00 -0.27317785333E+04  0.27317785333E+04  0.00000000000E+00 0.  1.
         24    2    1    2    0    0 -0.59422375686E+02 -0.34398988683E+03 -0.17922674598E+04  0.18277363403E+04  0.80854321044E+02 0.  0.
        254    2    1    2    0    0  0.59422375686E+02  0.34398988683E+03 -0.66504311536E+03  0.11785101511E+04  0.90815404536E+03 0.  0.
         23    2    4    4    0    0 -0.25618975200E+03  0.48412453371E+03 -0.19356399823E+03  0.58758407766E+03  0.88194522130E+02 0.  0.
         23    2    4    4    0    0  0.31561212769E+03 -0.14013464688E+03 -0.47147911713E+03  0.59092607349E+03  0.87477608799E+02 0.  0.
          2    1    3    3  502    0 -0.32649955427E+02 -0.45902472530E+02 -0.21067896073E+03  0.21807952923E+03  0.00000000000E+00 0. -1.
         -1    1    3    3    0  502 -0.26772420259E+02 -0.29808741430E+03 -0.15815884990E+04  0.16096568111E+04  0.00000000000E+00 0.  1.
         11    1    5    5    0    0 -0.15837198229E+03  0.27392533703E+03 -0.66945162707E+02  0.32341680515E+03  0.00000000000E+00 0. -1.
        -11    1    5    5    0    0 -0.97817769712E+02  0.21019919668E+03 -0.12661883552E+03  0.26416727251E+03  0.00000000000E+00 0.  1.
          4    1    6    6  503    0  0.28409873833E+01  0.90362422036E+01 -0.93531479137E+01  0.13311884103E+02  0.00000000000E+00 0. -1.
         -4    1    6    6    0  503  0.31277114030E+03 -0.14917088909E+03 -0.46212596922E+03  0.57761418939E+03  0.00000000000E+00 0.  1.
<mgrwt>
<rscale>  0 0.17318033E+04</rscale>
<asrwt>0</asrwt>
<pdfrwt beam="1">  1        4 0.42225840E-01 0.17318033E+04</pdfrwt>
<pdfrwt beam="2">  1       -3 0.42027362E+00 0.17318033E+04</pdfrwt>
<totfact> 0.98045020E-02</totfact>
</mgrwt>
</event>
<event>
12    6  0.1462228E-007  0.1589565E+04  0.7818608E-02  0.8826984E-01
          2   -1    0    0  501    0  0.00000000000E+00  0.00000000000E+00  0.15463152637E+04  0.15463152637E+04  0.00000000000E+00 0. -1.
         -1   -1    0    0    0  501 -0.00000000000E+00 -0.00000000000E+00 -0.40850635942E+03  0.40850635942E+03  0.00000000000E+00 0.  1.
         24    2    1    2    0    0 -0.13377883846E+03  0.49733129908E+02 -0.24386594014E+03  0.29385634544E+03  0.80689486062E+02 0.  0.
        254    2    1    2    0    0  0.13377883846E+03 -0.49733129908E+02  0.13816748445E+04  0.16609652777E+04  0.91071955956E+03 0.  0.
         23    2    4    4    0    0  0.97680105822E+01 -0.30544495623E+03  0.89827653395E+02  0.33483082266E+03  0.10320192427E+03 0.  0.
         23    2    4    4    0    0  0.12401082788E+03  0.25571182632E+03  0.12918471911E+04  0.13261344551E+04  0.94848322547E+02 0.  0.
          4    1    3    3  502    0  0.27947014354E+01  0.19342424848E+02 -0.11664506266E+02  0.22759623493E+02  0.00000000000E+00 0. -1.
         -3    1    3    3    0  502 -0.13657353990E+03  0.30390705061E+02 -0.23220143388E+03  0.27109672195E+03  0.00000000000E+00 0.  1.
         11    1    5    5    0    0 -0.66334645395E+01 -0.22627677849E+02 -0.20073971044E+02  0.30967385587E+02  0.00000000000E+00 0.  1.
        -11    1    5    5    0    0  0.16401475122E+02 -0.28281727838E+03  0.10990162444E+03  0.30386343707E+03  0.00000000000E+00 0. -1.
          3    1    6    6  503    0  0.11567386223E+03  0.26288882261E+03  0.12633800643E+04  0.12956157464E+04  0.00000000000E+00 0. -1.
         -3    1    6    6    0  503  0.83369656561E+01 -0.71769962909E+01  0.28467126801E+02  0.30518708695E+02  0.00000000000E+00 0.  1.
<mgrwt>
<rscale>  0 0.15895655E+04</rscale>
<asrwt>0</asrwt>
<pdfrwt beam="1">  1        2 0.23789465E+00 0.15895655E+04</pdfrwt>
<pdfrwt beam="2">  1       -1 0.62847133E-01 0.15895655E+04</pdfrwt>
<totfact> 0.33563198E+01</totfact>
</mgrwt>
</event>
<event>
12    6  0.1462228E-007  0.1828833E+04  0.7818608E-02  0.8691115E-01
         -1   -1    0    0    0  501 -0.00000000000E+00  0.00000000000E+00  0.48706584517E+03  0.48706584517E+03  0.00000000000E+00 0.  1.
          2   -1    0    0  501    0  0.00000000000E+00 -0.00000000000E+00 -0.17167242239E+04  0.17167242239E+04  0.00000000000E+00 0. -1.
         24    2    1    2    0    0  0.26718797313E+03  0.92596358566E+02  0.29433293236E+03  0.41623663042E+03  0.81593865141E+02 0.  0.
        254    2    1    2    0    0 -0.26718797313E+03 -0.92596358566E+02 -0.15239913111E+04  0.17875534386E+04  0.89041242194E+03 0.  0.
         23    2    4    4    0    0 -0.31356971722E+03 -0.19732767621E+03 -0.15845271781E+04  0.16300656550E+04  0.95516920924E+02 0.  0.
         23    2    4    4    0    0  0.46381744092E+02  0.10473131765E+03  0.60535867040E+02  0.15748778360E+03  0.89542703247E+02 0.  0.
          4    1    3    3  502    0  0.71907119235E+02  0.58439664504E+02  0.12446490734E+03  0.15516875118E+03  0.00000000000E+00 0. -1.
         -3    1    3    3    0  502  0.19528085389E+03  0.34156694062E+02  0.16986802502E+03  0.26106787924E+03  0.00000000000E+00 0.  1.
         11    1    5    5    0    0 -0.37374717326E+02  0.80224677786E+01 -0.17535976118E+03  0.17947778505E+03  0.00000000000E+00 0. -1.
        -11    1    5    5    0    0 -0.27619499989E+03 -0.20535014399E+03 -0.14091674169E+04  0.14505878700E+04  0.00000000000E+00 0.  1.
          1    1    6    6  503    0 -0.26060362775E+02  0.29564923869E+02  0.65149713980E+01  0.39945864412E+02  0.00000000000E+00 0. -1.
         -1    1    6    6    0  503  0.72442106868E+02  0.75166393780E+02  0.54020895642E+02  0.11754191919E+03  0.00000000000E+00 0.  1.
<mgrwt>
<rscale>  0 0.18288332E+04</rscale>
<asrwt>0</asrwt>
<pdfrwt beam="1">  1        2 0.26411142E+00 0.18288332E+04</pdfrwt>
<pdfrwt beam="2">  1       -1 0.74933206E-01 0.18288332E+04</pdfrwt>
<totfact> 0.18446123E+01</totfact>
</mgrwt>
</event>
<event>
12    6  0.1462228E-007  0.1464738E+04  0.7818608E-02  0.8908246E-01
         -1   -1    0    0    0  501 -0.00000000000E+00  0.00000000000E+00  0.57037806035E+03  0.57037806035E+03  0.00000000000E+00 0.  1.
          2   -1    0    0  501    0  0.00000000000E+00 -0.00000000000E+00 -0.94036669143E+03  0.94036669143E+03  0.00000000000E+00 0. -1.
         24    2    1    2    0    0 -0.33617171612E+03  0.20641253443E+03 -0.34422967068E+03  0.53104314632E+03  0.88854937939E+02 0.  0.
        254    2    1    2    0    0  0.33617171612E+03 -0.20641253443E+03 -0.25758960403E+02  0.97970160546E+03  0.89640066634E+03 0.  0.
         23    2    4    4    0    0  0.16742412923E+03 -0.53172420441E+03  0.11417264391E+03  0.57694821732E+03  0.95249064305E+02 0.  0.
         23    2    4    4    0    0  0.16874758688E+03  0.32531166998E+03 -0.13993160431E+03  0.40275338814E+03  0.91246956472E+02 0.  0.
          2    1    3    3  502    0 -0.28758984056E+03  0.20897264662E+03 -0.30837531836E+03  0.47060898887E+03  0.00000000000E+00 0. -1.
         -1    1    3    3    0  502 -0.48581875556E+02 -0.25601121975E+01 -0.35854352319E+02  0.60434157455E+02  0.00000000000E+00 0.  1.
         11    1    5    5    0    0  0.73932304849E+02 -0.23088411449E+03  0.16941905058E+01  0.24243830206E+03  0.00000000000E+00 0. -1.
        -11    1    5    5    0    0  0.93491824386E+02 -0.30084008991E+03  0.11247845340E+03  0.33450991526E+03  0.00000000000E+00 0.  1.
          4    1    6    6  503    0  0.31403055293E+02  0.57442789442E+02 -0.65615112255E+02  0.92688558608E+02  0.00000000000E+00 0. -1.
         -4    1    6    6    0  503  0.13734453159E+03  0.26786888054E+03 -0.74316492059E+02  0.31006482953E+03  0.00000000000E+00 0.  1.
<mgrwt>
<rscale>  0 0.14647382E+04</rscale>
<asrwt>0</asrwt>
<pdfrwt beam="1">  1        2 0.14467180E+00 0.14647382E+04</pdfrwt>
<pdfrwt beam="2">  1       -1 0.87750471E-01 0.14647382E+04</pdfrwt>
<totfact> 0.38909356E+01</totfact>
</mgrwt>
</event>
<event>
12    6  0.1462228E-007  0.1389157E+04  0.7818608E-02  0.8961705E-01
         -1   -1    0    0    0  501 -0.00000000000E+00  0.00000000000E+00  0.21112657894E+03  0.21112657894E+03  0.00000000000E+00 0.  1.
          2   -1    0    0  501    0  0.00000000000E+00 -0.00000000000E+00 -0.22850717883E+04  0.22850717883E+04  0.00000000000E+00 0. -1.
         24    2    1    2    0    0  0.13411037378E+03  0.37205099316E+03 -0.56472880795E+03  0.69388858639E+03  0.78455146005E+02 0.  0.
        254    2    1    2    0    0 -0.13411037378E+03 -0.37205099316E+03 -0.15092164014E+04  0.18023097809E+04  0.90231860561E+03 0.  0.
         23    2    4    4    0    0 -0.85755809960E+02 -0.66328450733E+03 -0.10566116659E+04  0.12537848922E+04  0.90818207268E+02 0.  0.
         23    2    4    4    0    0 -0.48354563816E+02  0.29123351417E+03 -0.45260473557E+03  0.54852488872E+03  0.94198637275E+02 0.  0.
          4    1    3    3  502    0 -0.11716154837E+01  0.36808954538E+02 -0.25895587856E+02  0.45020587373E+02  0.00000000000E+00 0. -1.
         -3    1    3    3    0  502  0.13528198926E+03  0.33524203862E+03 -0.53883322010E+03  0.64886799902E+03  0.00000000000E+00 0.  1.
         11    1    5    5    0    0  0.74343945341E+01 -0.96010424028E+02 -0.10915008410E+03  0.14555759205E+03  0.00000000000E+00 0. -1.
        -11    1    5    5    0    0 -0.93190204494E+02 -0.56727408330E+03 -0.94746158177E+03  0.11082273001E+04  0.00000000000E+00 0.  1.
          1    1    6    6  503    0 -0.76717656387E+02  0.19465878688E+03 -0.30551554018E+03  0.37029365023E+03  0.00000000000E+00 0. -1.
         -1    1    6    6    0  503  0.28363092571E+02  0.96574727292E+02 -0.14708919539E+03  0.17823123848E+03  0.00000000000E+00 0.  1.
<mgrwt>
<rscale>  0 0.13891571E+04</rscale>
<asrwt>0</asrwt>
<pdfrwt beam="1">  1        2 0.35154951E+00 0.13891571E+04</pdfrwt>
<pdfrwt beam="2">  1       -1 0.32481011E-01 0.13891571E+04</pdfrwt>
<totfact> 0.45574779E+01</totfact>
</mgrwt>
</event>
<event>
12    6  0.1462228E-007  0.2323587E+04  0.7818608E-02  0.8468679E-01
          2   -1    0    0  501    0  0.00000000000E+00  0.00000000000E+00  0.11011948722E+04  0.11011948722E+04  0.00000000000E+00 0. -1.
         -1   -1    0    0    0  501 -0.00000000000E+00 -0.00000000000E+00 -0.12257273851E+04  0.12257273851E+04  0.00000000000E+00 0.  1.
         24    2    1    2    0    0 -0.39964119716E+03 -0.60749741648E+03 -0.71680211690E+03  0.10240585189E+04  0.78258403812E+02 0.  0.
        254    2    1    2    0    0  0.39964119716E+03  0.60749741648E+03  0.59226960399E+03  0.13028637385E+04  0.90438069404E+03 0.  0.
         23    2    4    4    0    0  0.35914746959E+03 -0.37990922145E+01  0.57430521859E+03  0.68332133997E+03  0.90001286343E+02 0.  0.
         23    2    4    4    0    0  0.40493727564E+02  0.61129650870E+03  0.17964385407E+02  0.61954239852E+03  0.90481494825E+02 0.  0.
          2    1    3    3  502    0 -0.13897723893E+03 -0.21705999584E+03 -0.30749530380E+03  0.40122696395E+03  0.00000000000E+00 0. -1.
         -1    1    3    3    0  502 -0.26066395822E+03 -0.39043742064E+03 -0.40930681310E+03  0.62283155492E+03  0.00000000000E+00 0.  1.
         11    1    5    5    0    0  0.36002564201E+03 -0.12304783662E+02  0.54923091088E+03  0.65682909807E+03  0.00000000000E+00 0.  1.
        -11    1    5    5    0    0 -0.87817241812E+00  0.85056914477E+01  0.25074307704E+02  0.26492241895E+02  0.00000000000E+00 0. -1.
          4    1    6    6  503    0 -0.26242328682E+02  0.11617046756E+03  0.14052274999E+02  0.11992374153E+03  0.00000000000E+00 0. -1.
         -4    1    6    6    0  503  0.66736056246E+02  0.49512604113E+03  0.39121104084E+01  0.49961865700E+03  0.00000000000E+00 0.  1.
<mgrwt>
<rscale>  0 0.23235875E+04</rscale>
<asrwt>0</asrwt>
<pdfrwt beam="1">  1        2 0.16941460E+00 0.23235875E+04</pdfrwt>
<pdfrwt beam="2">  1       -1 0.18857344E+00 0.23235875E+04</pdfrwt>
<totfact> 0.40573391E+00</totfact>
</mgrwt>
</event>
<event>
12    6  0.1462228E-007  0.1853870E+04  0.7818608E-02  0.8678165E-01
         -1   -1    0    0    0  501 -0.00000000000E+00  0.00000000000E+00  0.31922888265E+03  0.31922888265E+03  0.00000000000E+00 0.  1.
          2   -1    0    0  501    0  0.00000000000E+00 -0.00000000000E+00 -0.26915125106E+04  0.26915125106E+04  0.00000000000E+00 0. -1.
         24    2    1    2    0    0  0.21695457186E+03  0.59442384982E+03 -0.14106082235E+04  0.15481014792E+04  0.79960180221E+02 0.  0.
        254    2    1    2    0    0 -0.21695457186E+03 -0.59442384982E+03 -0.96167540444E+03  0.14626399140E+04  0.90226766258E+03 0.  0.
         23    2    4    4    0    0 -0.53778862839E+03 -0.18885284719E+03 -0.49261275836E+03  0.75833802011E+03  0.86759531603E+02 0.  0.
         23    2    4    4    0    0  0.32083405653E+03 -0.40557100263E+03 -0.46906264608E+03  0.70430189386E+03  0.92731126066E+02 0.  0.
          4    1    3    3  502    0  0.13238762157E+03  0.38538760182E+03 -0.99610922250E+03  0.10762358799E+04  0.00000000000E+00 0. -1.
         -3    1    3    3    0  502  0.84566950293E+02  0.20903624800E+03 -0.41449900097E+03  0.47186559937E+03  0.00000000000E+00 0.  1.
         11    1    5    5    0    0 -0.18322831358E+03 -0.74749960901E+02 -0.22534543436E+03  0.29990121096E+03  0.00000000000E+00 0.  1.
        -11    1    5    5    0    0 -0.35456031481E+03 -0.11410288629E+03 -0.26726732401E+03  0.45843680915E+03  0.00000000000E+00 0. -1.
          2    1    6    6  503    0  0.27023810677E+03 -0.37991846859E+03 -0.43765810661E+03  0.63946172318E+03  0.00000000000E+00 0. -1.
         -2    1    6    6    0  503  0.50595949760E+02 -0.25652534037E+02 -0.31404539474E+02  0.64840170683E+02  0.00000000000E+00 0.  1.
<mgrwt>
<rscale>  0 0.18538700E+04</rscale>
<asrwt>0</asrwt>
<pdfrwt beam="1">  1        2 0.41407887E+00 0.18538700E+04</pdfrwt>
<pdfrwt beam="2">  1       -1 0.49112134E-01 0.18538700E+04</pdfrwt>
<totfact> 0.11961644E+01</totfact>
</mgrwt>
</event>
<event>
12    6  0.1462228E-007  0.1623588E+04  0.7818608E-02  0.8806187E-01
          2   -1    0    0  501    0  0.00000000000E+00  0.00000000000E+00  0.61554843537E+03  0.61554843537E+03  0.00000000000E+00 0. -1.
         -1   -1    0    0    0  501 -0.00000000000E+00 -0.00000000000E+00 -0.10706050732E+04  0.10706050732E+04  0.00000000000E+00 0.  1.
         24    2    1    2    0    0 -0.13720637408E+03 -0.52810933570E+03 -0.41109488707E+02  0.55300784311E+03  0.80016404204E+02 0.  0.
        254    2    1    2    0    0  0.13720637408E+03  0.52810933570E+03 -0.41394714917E+03  0.11331456655E+04  0.90274126825E+03 0.  0.
         23    2    4    4    0    0 -0.80902437346E+02  0.71310281243E+03 -0.16161088624E+03  0.74115934317E+03  0.90212349267E+02 0.  0.
         23    2    4    4    0    0  0.21810881142E+03 -0.18499347673E+03 -0.25233626294E+03  0.39198632233E+03  0.90474566856E+02 0.  0.
          4    1    3    3  502    0  0.60135260313E+00  0.24868692596E+01 -0.22922759765E+01  0.34352107389E+01  0.00000000000E+00 0. -1.
         -3    1    3    3    0  502 -0.13780772668E+03 -0.53059620496E+03 -0.38817212730E+02  0.54957263237E+03  0.00000000000E+00 0.  1.
         11    1    5    5    0    0 -0.15842320774E+02  0.49569506308E+03 -0.98801141071E+02  0.50569382057E+03  0.00000000000E+00 0. -1.
        -11    1    5    5    0    0 -0.65060116572E+02  0.21740774935E+03 -0.62809745166E+02  0.23546552260E+03  0.00000000000E+00 0.  1.
          2    1    6    6  503    0 -0.47114293502E+01 -0.24382134874E+02 -0.27254578873E+02  0.36871372867E+02  0.00000000000E+00 0. -1.
         -2    1    6    6    0  503  0.22282024077E+03 -0.16061134186E+03 -0.22508168406E+03  0.35511494946E+03  0.00000000000E+00 0.  1.
<mgrwt>
<rscale>  0 0.16235877E+04</rscale>
<asrwt>0</asrwt>
<pdfrwt beam="1">  1        2 0.94699760E-01 0.16235877E+04</pdfrwt>
<pdfrwt beam="2">  1       -1 0.16470847E+00 0.16235877E+04</pdfrwt>
<totfact> 0.14159524E+01</totfact>
</mgrwt>
</event>
<event>
12    6  0.1462228E-007  0.2048048E+04  0.7818608E-02  0.8584480E-01
         -1   -1    0    0    0  501 -0.00000000000E+00  0.00000000000E+00  0.55775251729E+03  0.55775251729E+03  0.00000000000E+00 0.  1.
          2   -1    0    0  501    0  0.00000000000E+00 -0.00000000000E+00 -0.18800902163E+04  0.18800902163E+04  0.00000000000E+00 0. -1.
         24    2    1    2    0    0  0.40315467724E+03 -0.30481641856E+03 -0.13105208029E+04  0.14064583926E+04  0.72205903919E+02 0.  0.
        254    2    1    2    0    0 -0.40315467724E+03  0.30481641856E+03 -0.11816896195E+02  0.10313843410E+04  0.89898124403E+03 0.  0.
         23    2    4    4    0    0  0.25622758167E+03  0.23820832513E+03 -0.24019530668E+02  0.36250681678E+03  0.91861170224E+02 0.  0.
         23    2    4    4    0    0 -0.65938225891E+03  0.66608093430E+02  0.12202634473E+02  0.66887752426E+03  0.89591499080E+02 0.  0.
          2    1    3    3  502    0  0.38497317219E+03 -0.28957979804E+03 -0.12810236123E+04  0.13686059689E+04  0.00000000000E+00 0. -1.
         -1    1    3    3    0  502  0.18181505053E+02 -0.15236620517E+02 -0.29497190521E+02  0.37852423693E+02  0.00000000000E+00 0.  1.
         11    1    5    5    0    0  0.16934449599E+03  0.95281238678E+02 -0.79110576000E+01  0.19447019720E+03  0.00000000000E+00 0. -1.
        -11    1    5    5    0    0  0.86883085678E+02  0.14292708645E+03 -0.16108473068E+02  0.16803661959E+03  0.00000000000E+00 0.  1.
          3    1    6    6  503    0 -0.59583715540E+03  0.46788512665E+02 -0.12703444128E+02  0.59780637180E+03  0.00000000000E+00 0. -1.
         -3    1    6    6    0  503 -0.63545103509E+02  0.19819580766E+02  0.24906078600E+02  0.71071152467E+02  0.00000000000E+00 0.  1.
<mgrwt>
<rscale>  0 0.20480479E+04</rscale>
<asrwt>0</asrwt>
<pdfrwt beam="1">  1        2 0.28924465E+00 0.20480479E+04</pdfrwt>
<pdfrwt beam="2">  1       -1 0.85808078E-01 0.20480479E+04</pdfrwt>
<totfact> 0.11007668E+01</totfact>
</mgrwt>
</event>
<event>
12    6  0.1462228E-007  0.3572951E+04  0.7818608E-02  0.8096716E-01
         -1   -1    0    0    0  501 -0.00000000000E+00  0.00000000000E+00  0.14663515256E+04  0.14663515256E+04  0.00000000000E+00 0.  1.
          2   -1    0    0  501    0  0.00000000000E+00 -0.00000000000E+00 -0.21764866725E+04  0.21764866725E+04  0.00000000000E+00 0. -1.
         24    2    1    2    0    0 -0.73458277759E+03  0.81618631955E+03  0.95312875611E+03  0.14560242577E+04  0.76027940909E+02 0.  0.
        254    2    1    2    0    0  0.73458277759E+03 -0.81618631955E+03 -0.16632639030E+04  0.21868139404E+04  0.89996468456E+03 0.  0.
         23    2    4    4    0    0  0.44066462833E+03 -0.17533258123E+02 -0.10231927303E+04  0.11179179949E+04  0.91238973701E+02 0.  0.
         23    2    4    4    0    0  0.29391814926E+03 -0.79865306143E+03 -0.64007117275E+03  0.10688959455E+04  0.92805414923E+02 0.  0.
          4    1    3    3  502    0 -0.16187584357E+02  0.31619637692E+02  0.45022549508E+02  0.57348664668E+02  0.00000000000E+00 0. -1.
         -3    1    3    3    0  502 -0.71839519323E+03  0.78456668186E+03  0.90810620660E+03  0.13986755930E+04  0.00000000000E+00 0.  1.
         11    1    5    5    0    0  0.30075426201E+03 -0.54125008118E+02 -0.68090548714E+03  0.74633432524E+03  0.00000000000E+00 0. -1.
        -11    1    5    5    0    0  0.13991036632E+03  0.36591749995E+02 -0.34228724312E+03  0.37158366968E+03  0.00000000000E+00 0.  1.
          1    1    6    6  503    0  0.22192291221E+03 -0.57427585862E+03 -0.41090344845E+03  0.74019199179E+03  0.00000000000E+00 0. -1.
         -1    1    6    6    0  503  0.71995237048E+02 -0.22437720280E+03 -0.22916772430E+03  0.32870395367E+03  0.00000000000E+00 0.  1.
<mgrwt>
<rscale>  0 0.35729509E+04</rscale>
<asrwt>0</asrwt>
<pdfrwt beam="1">  1        2 0.33484410E+00 0.35729509E+04</pdfrwt>
<pdfrwt beam="2">  1       -1 0.22559254E+00 0.35729509E+04</pdfrwt>
<totfact> 0.49930377E-01</totfact>
</mgrwt>
</event>
<event>
12    6  0.1462228E-007  0.5112818E+04  0.7818608E-02  0.7811336E-01
         -1   -1    0    0    0  501 -0.00000000000E+00  0.00000000000E+00  0.19676858328E+04  0.19676858328E+04  0.00000000000E+00 0.  1.
          2   -1    0    0  501    0  0.00000000000E+00 -0.00000000000E+00 -0.33212752091E+04  0.33212752091E+04  0.00000000000E+00 0. -1.
         24    2    1    2    0    0  0.11838067487E+04 -0.72732231731E+03 -0.27754790116E+04  0.31048364653E+04  0.79558536543E+02 0.  0.
        254    2    1    2    0    0 -0.11838067487E+04  0.72732231731E+03  0.14218896353E+04  0.21841245766E+04  0.90456280024E+03 0.  0.
         23    2    4    4    0    0 -0.97382705986E+03  0.83022202090E+03  0.79904674345E+03  0.15113957821E+04  0.90740098396E+02 0.  0.
         23    2    4    4    0    0 -0.20997968886E+03 -0.10289970358E+03  0.62284289183E+03  0.67272879448E+03  0.99754419916E+02 0.  0.
          4    1    3    3  502    0  0.78369742294E+03 -0.45600555010E+03 -0.17400951949E+04  0.19621554474E+04  0.00000000000E+00 0. -1.
         -3    1    3    3    0  502  0.40010932578E+03 -0.27131676722E+03 -0.10353838167E+04  0.11426810178E+04  0.00000000000E+00 0.  1.
         11    1    5    5    0    0 -0.83717597918E+03  0.70863518414E+03  0.64620161567E+03  0.12730294468E+04  0.00000000000E+00 0. -1.
        -11    1    5    5    0    0 -0.13665108068E+03  0.12158683676E+03  0.15284512778E+03  0.23836633531E+03  0.00000000000E+00 0.  1.
          4    1    6    6  503    0 -0.10810703367E+03 -0.10091361179E+03  0.30517891503E+03  0.33912366174E+03  0.00000000000E+00 0. -1.
         -4    1    6    6    0  503 -0.10187265518E+03 -0.19860917941E+01  0.31766397680E+03  0.33360513274E+03  0.00000000000E+00 0.  1.
<mgrwt>
<rscale>  0 0.51128177E+04</rscale>
<asrwt>0</asrwt>
<pdfrwt beam="1">  1        2 0.51096542E+00 0.51128177E+04</pdfrwt>
<pdfrwt beam="2">  1       -1 0.30272090E+00 0.51128177E+04</pdfrwt>
<totfact> 0.27985195E-02</totfact>
</mgrwt>
</event>
<event>
12    6  0.1462228E-007  0.2534418E+04  0.7818608E-02  0.8390826E-01
          2   -1    0    0  501    0  0.00000000000E+00  0.00000000000E+00  0.12105485763E+04  0.12105485763E+04  0.00000000000E+00 0. -1.
         -1   -1    0    0    0  501 -0.00000000000E+00 -0.00000000000E+00 -0.13265209530E+04  0.13265209530E+04  0.00000000000E+00 0.  1.
         24    2    1    2    0    0 -0.46440878138E+03 -0.90501598749E+03  0.41161392606E+03  0.10998214005E+04  0.73835188390E+02 0.  0.
        254    2    1    2    0    0  0.46440878138E+03  0.90501598749E+03 -0.52758630280E+03  0.14372481287E+04  0.86752834124E+03 0.  0.
         23    2    4    4    0    0  0.28370157320E+03  0.22031863634E+03  0.19534440979E+03  0.42103737620E+03  0.10042982411E+03 0.  0.
         23    2    4    4    0    0  0.18070720818E+03  0.68469735115E+03 -0.72293071258E+03  0.10162107525E+04  0.92681824721E+02 0.  0.
          4    1    3    3  502    0 -0.24729419867E+03 -0.52515155094E+03  0.20142053122E+03  0.61441744974E+03  0.00000000000E+00 0. -1.
         -3    1    3    3    0  502 -0.21711458271E+03 -0.37986443655E+03  0.21019339484E+03  0.48540395076E+03  0.00000000000E+00 0.  1.
         11    1    5    5    0    0  0.84607970937E+01  0.40173365968E+02  0.60204173038E+01  0.41493732601E+02  0.00000000000E+00 0. -1.
        -11    1    5    5    0    0  0.27524077610E+03  0.18014527037E+03  0.18932399248E+03  0.37954364360E+03  0.00000000000E+00 0.  1.
          2    1    6    6  503    0  0.11605892622E+03  0.36409337038E+03 -0.32942406405E+03  0.50453331970E+03  0.00000000000E+00 0.  1.
         -2    1    6    6    0  503  0.64648281964E+02  0.32060398077E+03 -0.39350664854E+03  0.51167743285E+03  0.00000000000E+00 0. -1.
<mgrwt>
<rscale>  0 0.25344175E+04</rscale>
<asrwt>0</asrwt>
<pdfrwt beam="1">  1        2 0.18623824E+00 0.25344175E+04</pdfrwt>
<pdfrwt beam="2">  1       -1 0.20408015E+00 0.25344175E+04</pdfrwt>
<totfact> 0.26694173E+00</totfact>
</mgrwt>
</event>
<event>
12    6  0.1462228E-007  0.1277800E+04  0.7818608E-02  0.9047357E-01
         -1   -1    0    0    0  501 -0.00000000000E+00  0.00000000000E+00  0.39789240005E+03  0.39789240005E+03  0.00000000000E+00 0.  1.
          2   -1    0    0  501    0  0.00000000000E+00 -0.00000000000E+00 -0.10258888252E+04  0.10258888252E+04  0.00000000000E+00 0. -1.
         24    2    1    2    0    0 -0.16446895236E+03 -0.21787101836E+03 -0.35058211065E+03  0.45191613321E+03  0.82477622550E+02 0.  0.
        254    2    1    2    0    0  0.16446895236E+03  0.21787101836E+03 -0.27741431449E+03  0.97186509202E+03  0.89053087441E+03 0.  0.
         23    2    4    4    0    0  0.51197060817E+03  0.35961972768E+02 -0.10306268987E+03  0.53087503879E+03  0.88313201977E+02 0.  0.
         23    2    4    4    0    0 -0.34750165581E+03  0.18190904559E+03 -0.17435162461E+03  0.44099005324E+03  0.10112089986E+03 0.  0.
          4    1    3    3  502    0 -0.53994376768E+02 -0.12511434461E+03 -0.21107768672E+03  0.25124247606E+03  0.00000000000E+00 0. -1.
         -3    1    3    3    0  502 -0.11047457559E+03 -0.92756673750E+02 -0.13950442393E+03  0.20067365715E+03  0.00000000000E+00 0.  1.
         11    1    5    5    0    0  0.46426679118E+03  0.43782679187E+02 -0.68229332977E+02  0.47129164884E+03  0.00000000000E+00 0.  1.
        -11    1    5    5    0    0  0.47703816997E+02 -0.78207064186E+01 -0.34833356898E+02  0.59583389948E+02  0.00000000000E+00 0. -1.
          1    1    6    6  503    0 -0.76489787904E+02 -0.35877027654E+01 -0.36222442703E+02  0.84709058666E+02  0.00000000000E+00 0. -1.
         -1    1    6    6    0  503 -0.27101186791E+03  0.18549674835E+03 -0.13812918191E+03  0.35628099457E+03  0.00000000000E+00 0.  1.
<mgrwt>
<rscale>  0 0.12778002E+04</rscale>
<asrwt>0</asrwt>
<pdfrwt beam="1">  1        2 0.15782905E+00 0.12778002E+04</pdfrwt>
<pdfrwt beam="2">  1       -1 0.61214217E-01 0.12778002E+04</pdfrwt>
<totfact> 0.73485187E+01</totfact>
</mgrwt>
</event>
<event>
12    6  0.1462228E-007  0.1219925E+04  0.7818608E-02  0.9095593E-01
         -1   -1    0    0    0  501 -0.00000000000E+00  0.00000000000E+00  0.52987970904E+03  0.52987970904E+03  0.00000000000E+00 0.  1.
          2   -1    0    0  501    0  0.00000000000E+00 -0.00000000000E+00 -0.70214888124E+03  0.70214888124E+03  0.00000000000E+00 0. -1.
         24    2    1    2    0    0 -0.24219442560E+03 -0.99189548867E+02 -0.10642966357E+03  0.29370051704E+03  0.80224771906E+02 0.  0.
        254    2    1    2    0    0  0.24219442560E+03  0.99189548867E+02 -0.65839508628E+02  0.93832807323E+03  0.89868127038E+03 0.  0.
         23    2    4    4    0    0  0.15013280688E+03  0.12420802763E+03 -0.46844549405E+03  0.51537591057E+03  0.90574027574E+02 0.  0.
         23    2    4    4    0    0  0.92061618719E+02 -0.25018478759E+02  0.40260598542E+03  0.42295216266E+03  0.87725061891E+02 0.  0.
          4    1    3    3  502    0 -0.19307893903E+03 -0.55623662768E+02 -0.10782147342E+03  0.22803275793E+03  0.00000000000E+00 0. -1.
         -3    1    3    3    0  502 -0.49115486567E+02 -0.43565886099E+02  0.13918098530E+01  0.65667759113E+02  0.00000000000E+00 0.  1.
         11    1    5    5    0    0  0.35587226257E+02  0.58895438202E+02 -0.81961231794E+02  0.10701760057E+03  0.00000000000E+00 0. -1.
        -11    1    5    5    0    0  0.11454558062E+03  0.65312589425E+02 -0.38648426226E+03  0.40835831000E+03  0.00000000000E+00 0.  1.
          1    1    6    6  503    0 -0.12655144849E+02 -0.13636474672E+02  0.11843615145E+03  0.11988839854E+03  0.00000000000E+00 0. -1.
         -1    1    6    6    0  503  0.10471676357E+03 -0.11382004088E+02  0.28416983397E+03  0.30306376413E+03  0.00000000000E+00 0.  1.
<mgrwt>
<rscale>  0 0.12199253E+04</rscale>
<asrwt>0</asrwt>
<pdfrwt beam="1">  1        2 0.10802290E+00 0.12199253E+04</pdfrwt>
<pdfrwt beam="2">  1       -1 0.81519956E-01 0.12199253E+04</pdfrwt>
<totfact> 0.68867324E+01</totfact>
</mgrwt>
</event>
<event>
12    6  0.1462228E-007  0.1192244E+04  0.7818608E-02  0.9119672E-01
         -1   -1    0    0    0  501 -0.00000000000E+00  0.00000000000E+00  0.19848000992E+03  0.19848000992E+03  0.00000000000E+00 0.  1.
          2   -1    0    0  501    0  0.00000000000E+00 -0.00000000000E+00 -0.17904144842E+04  0.17904144842E+04  0.00000000000E+00 0. -1.
         24    2    1    2    0    0 -0.15350266663E+03 -0.49934874418E+02 -0.66851734800E+03  0.69242286385E+03  0.80482404596E+02 0.  0.
        254    2    1    2    0    0  0.15350266663E+03  0.49934874418E+02 -0.92341712624E+03  0.12964716302E+04  0.89559083214E+03 0.  0.
         23    2    4    4    0    0  0.18261354479E+03 -0.27376988997E+03 -0.30284836316E+02  0.34186479421E+03  0.87502610330E+02 0.  0.
         23    2    4    4    0    0 -0.29110878162E+02  0.32370476439E+03 -0.89313228992E+03  0.95460683602E+03  0.89200371934E+02 0.  0.
          2    1    3    3  502    0 -0.67801489570E+02  0.10373392761E+02 -0.36325366864E+03  0.36967266202E+03  0.00000000000E+00 0. -1.
         -1    1    3    3    0  502 -0.85701177059E+02 -0.60308267179E+02 -0.30526367936E+03  0.32275020182E+03  0.00000000000E+00 0.  1.
         11    1    5    5    0    0  0.14283754050E+03 -0.13638398211E+03 -0.17863274453E+02  0.19829838660E+03  0.00000000000E+00 0.  1.
        -11    1    5    5    0    0  0.39776004288E+02 -0.13738590786E+03 -0.12421561863E+02  0.14356640761E+03  0.00000000000E+00 0. -1.
          2    1    6    6  503    0  0.35776282931E+01  0.24117876802E+03 -0.55764578275E+03  0.60757618172E+03  0.00000000000E+00 0.  1.
         -2    1    6    6    0  503 -0.32688506455E+02  0.82525996368E+02 -0.33548650717E+03  0.34703065430E+03  0.00000000000E+00 0. -1.
<mgrwt>
<rscale>  0 0.11922441E+04</rscale>
<asrwt>0</asrwt>
<pdfrwt beam="1">  1        2 0.27544838E+00 0.11922441E+04</pdfrwt>
<pdfrwt beam="2">  1       -1 0.30535386E-01 0.11922441E+04</pdfrwt>
<totfact> 0.97195847E+01</totfact>
</mgrwt>
</event>
<event>
12    6  0.1462228E-007  0.1594546E+04  0.7818608E-02  0.8823906E-01
          2   -1    0    0  501    0  0.00000000000E+00  0.00000000000E+00  0.14331953782E+04  0.14331953782E+04  0.00000000000E+00 0. -1.
         -3   -1    0    0    0  501 -0.00000000000E+00 -0.00000000000E+00 -0.44351550045E+03  0.44351550045E+03  0.00000000000E+00 0.  1.
         24    2    1    2    0    0  0.42281482989E+02 -0.27115757011E+03 -0.20745269375E+03  0.35355345969E+03  0.81543099570E+02 0.  0.
        254    2    1    2    0    0 -0.42281482989E+02  0.27115757011E+03  0.11971325715E+04  0.15231574189E+04  0.90087067747E+03 0.  0.
         23    2    4    4    0    0  0.26209643233E+03 -0.70674518523E+02  0.95411259106E+03  0.99651576704E+03  0.94991631918E+02 0.  0.
         23    2    4    4    0    0 -0.30437791532E+03  0.34183208863E+03  0.24301998040E+03  0.52664165187E+03  0.93795663330E+02 0.  0.
          4    1    3    3  502    0  0.56207707402E+02 -0.10451017588E+03 -0.95339640740E+02  0.15222132022E+03  0.00000000000E+00 0. -1.
         -1    1    3    3    0  502 -0.13926224413E+02 -0.16664739423E+03 -0.11211305301E+03  0.20133213947E+03  0.00000000000E+00 0.  1.
         11    1    5    5    0    0  0.19955804856E+03 -0.11278463729E+02  0.71083150935E+03  0.73839830252E+03  0.00000000000E+00 0. -1.
        -11    1    5    5    0    0  0.62538383769E+02 -0.59396054794E+02  0.24328108171E+03  0.25811746452E+03  0.00000000000E+00 0.  1.
          4    1    6    6  503    0 -0.17866526335E+03  0.13134453978E+03  0.10602725220E+03  0.24579349598E+03  0.00000000000E+00 0. -1.
         -4    1    6    6    0  503 -0.12571265197E+03  0.21048754885E+03  0.13699272820E+03  0.28084815589E+03  0.00000000000E+00 0.  1.
<mgrwt>
<rscale>  0 0.15945462E+04</rscale>
<asrwt>0</asrwt>
<pdfrwt beam="1">  1        2 0.22049159E+00 0.15945462E+04</pdfrwt>
<pdfrwt beam="2">  1       -3 0.68233155E-01 0.15945462E+04</pdfrwt>
<totfact> 0.17491748E+01</totfact>
</mgrwt>
</event>
<event>
12    6  0.1462228E-007  0.9867021E+03  0.7818608E-02  0.9323251E-01
          2   -1    0    0  501    0  0.00000000000E+00  0.00000000000E+00  0.23401088487E+03  0.23401088487E+03  0.00000000000E+00 0. -1.
         -1   -1    0    0    0  501 -0.00000000000E+00 -0.00000000000E+00 -0.10401023349E+04  0.10401023349E+04  0.00000000000E+00 0.  1.
         24    2    1    2    0    0  0.11434667215E+03 -0.22352532130E+02 -0.37172638036E+02  0.14650333729E+03  0.80663657830E+02 0.  0.
        254    2    1    2    0    0 -0.11434667215E+03  0.22352532130E+02 -0.76891881201E+03  0.11276098825E+04  0.81651277425E+03 0.  0.
         23    2    4    4    0    0  0.30159531815E+02  0.25042442316E+03 -0.79808504044E+03  0.84192513442E+03  0.90973683666E+02 0.  0.
         23    2    4    4    0    0 -0.14450620396E+03 -0.22807189103E+03  0.29166228436E+02  0.28568474807E+03  0.88692028587E+02 0.  0.
          4    1    3    3  502    0  0.11598826307E+03 -0.28199692263E+01 -0.46251203097E+02  0.12490157398E+03  0.00000000000E+00 0. -1.
         -3    1    3    3    0  502 -0.16415909195E+01 -0.19532562904E+02  0.90785650613E+01  0.21601763306E+02  0.00000000000E+00 0.  1.
         11    1    5    5    0    0  0.12060586017E+02 -0.42733141252E+01 -0.38961170858E+02  0.41008435514E+02  0.00000000000E+00 0. -1.
        -11    1    5    5    0    0  0.18098945799E+02  0.25469773729E+03 -0.75912386959E+03  0.80091669891E+03  0.00000000000E+00 0.  1.
          3    1    6    6  503    0 -0.33471803372E+02 -0.46665182737E+01  0.11029125183E+02  0.35549678143E+02  0.00000000000E+00 0. -1.
         -3    1    6    6    0  503 -0.11103440059E+03 -0.22340537276E+03  0.18137103253E+02  0.25013506993E+03  0.00000000000E+00 0.  1.
<mgrwt>
<rscale>  0 0.98670212E+03</rscale>
<asrwt>0</asrwt>
<pdfrwt beam="1">  1        2 0.36001674E-01 0.98670212E+03</pdfrwt>
<pdfrwt beam="2">  1       -1 0.16001575E+00 0.98670212E+03</pdfrwt>
<totfact> 0.48566675E+01</totfact>
</mgrwt>
</event>
<event>
12    6  0.1462228E-007  0.1951661E+04  0.7818608E-02  0.8629560E-01
          2   -1    0    0  501    0  0.00000000000E+00  0.00000000000E+00  0.16246906724E+04  0.16246906724E+04  0.00000000000E+00 0. -1.
         -1   -1    0    0    0  501 -0.00000000000E+00 -0.00000000000E+00 -0.58610857092E+03  0.58610857092E+03  0.00000000000E+00 0.  1.
         24    2    1    2    0    0  0.75231617726E+03 -0.60989621641E+02  0.29669124810E+03  0.81494433185E+03  0.80057496881E+02 0.  0.
        254    2    1    2    0    0 -0.75231617726E+03  0.60989621641E+02  0.74189085343E+03  0.13958549115E+04  0.91011511968E+03 0.  0.
         23    2    4    4    0    0  0.10484868346E+03 -0.18545817598E+03 -0.19464532614E+01  0.23079086616E+03  0.88727976212E+02 0.  0.
         23    2    4    4    0    0 -0.85716486072E+03  0.24644779762E+03  0.74383730669E+03  0.11650640454E+04  0.92801807825E+02 0.  0.
          4    1    3    3  502    0  0.11463536191E+03 -0.36227878138E+02  0.35038774340E+02  0.12522556073E+03  0.00000000000E+00 0. -1.
         -3    1    3    3    0  502  0.63768081535E+03 -0.24761743504E+02  0.26165247376E+03  0.68971877112E+03  0.00000000000E+00 0.  1.
         11    1    5    5    0    0  0.11370361558E+03 -0.17732571221E+03 -0.17221828451E+02  0.21135163066E+03  0.00000000000E+00 0. -1.
        -11    1    5    5    0    0 -0.88549321190E+01 -0.81324637685E+01  0.15275375190E+02  0.19439235504E+02  0.00000000000E+00 0.  1.
          3    1    6    6  503    0 -0.46118241805E+03  0.12350726159E+03  0.33877472224E+03  0.58541573161E+03  0.00000000000E+00 0. -1.
         -3    1    6    6    0  503 -0.39598244267E+03  0.12294053603E+03  0.40506258445E+03  0.57964831374E+03  0.00000000000E+00 0.  1.
<mgrwt>
<rscale>  0 0.19516610E+04</rscale>
<asrwt>0</asrwt>
<pdfrwt beam="1">  1        2 0.24995241E+00 0.19516610E+04</pdfrwt>
<pdfrwt beam="2">  1       -1 0.90170550E-01 0.19516610E+04</pdfrwt>
<totfact> 0.13805946E+01</totfact>
</mgrwt>
</event>
<event>
12    6  0.1462228E-007  0.3114344E+04  0.7818608E-02  0.8211812E-01
          4   -1    0    0  501    0  0.00000000000E+00  0.00000000000E+00  0.18772880864E+04  0.18772880864E+04  0.00000000000E+00 0. -1.
         -3   -1    0    0    0  501 -0.00000000000E+00 -0.00000000000E+00 -0.12916422044E+04  0.12916422044E+04  0.00000000000E+00 0.  1.
         24    2    1    2    0    0  0.12567031509E+04  0.43457467333E+03  0.79458605716E+03  0.15509756240E+04  0.77462427818E+02 0.  0.
        254    2    1    2    0    0 -0.12567031509E+04 -0.43457467333E+03 -0.20894017523E+03  0.16179546668E+04  0.89775461622E+03 0.  0.
         23    2    4    4    0    0 -0.37604282788E+03 -0.14867416262E+02 -0.46499538417E+03  0.60530622447E+03  0.92442791030E+02 0.  0.
         23    2    4    4    0    0 -0.88066032302E+03 -0.41970725707E+03  0.25605520894E+03  0.10126484424E+04  0.90420194833E+02 0.  0.
          4    1    3    3  502    0  0.92478125642E+03  0.35446231575E+03  0.58113181065E+03  0.11482935543E+04  0.00000000000E+00 0. -1.
         -3    1    3    3    0  502  0.33192189449E+03  0.80112357576E+02  0.21345424650E+03  0.40268206966E+03  0.00000000000E+00 0.  1.
         11    1    5    5    0    0 -0.22838480771E+03 -0.51389490236E+02 -0.30592505510E+03  0.38521505609E+03  0.00000000000E+00 0. -1.
        -11    1    5    5    0    0 -0.14765802017E+03  0.36522073975E+02 -0.15907032907E+03  0.22009116838E+03  0.00000000000E+00 0.  1.
          4    1    6    6  503    0 -0.56550046926E+03 -0.22323526737E+03  0.17275985309E+03  0.63203697058E+03  0.00000000000E+00 0. -1.
         -4    1    6    6    0  503 -0.31515985376E+03 -0.19647198970E+03  0.83295355850E+02  0.38061147180E+03  0.00000000000E+00 0.  1.
<mgrwt>
<rscale>  0 0.31143439E+04</rscale>
<asrwt>0</asrwt>
<pdfrwt beam="1">  1        4 0.28881355E+00 0.31143439E+04</pdfrwt>
<pdfrwt beam="2">  1       -3 0.19871418E+00 0.31143439E+04</pdfrwt>
<totfact> 0.10377907E-02</totfact>
</mgrwt>
</event>
<event>
12    6  0.1462228E-007  0.3224082E+04  0.7818608E-02  0.8182486E-01
         -1   -1    0    0    0  501 -0.00000000000E+00  0.00000000000E+00  0.12923969830E+04  0.12923969830E+04  0.00000000000E+00 0.  1.
          2   -1    0    0  501    0  0.00000000000E+00 -0.00000000000E+00 -0.20107420650E+04  0.20107420650E+04  0.00000000000E+00 0. -1.
         24    2    1    2    0    0 -0.50804506985E+03  0.29749980707E+03 -0.17245292935E+04  0.18241275815E+04  0.82608845939E+02 0.  0.
        254    2    1    2    0    0  0.50804506985E+03 -0.29749980707E+03  0.10061842115E+04  0.14790114664E+04  0.91019356295E+03 0.  0.
         23    2    4    4    0    0  0.46290444862E+03  0.18655903469E+03  0.22847423404E+03  0.55740110379E+03  0.97008828975E+02 0.  0.
         23    2    4    4    0    0  0.45140621225E+02 -0.48405884176E+03  0.77770997747E+03  0.92161036262E+03  0.90455588266E+02 0.  0.
          4    1    3    3  502    0 -0.28262375659E+03  0.12811936385E+03 -0.82428851540E+03  0.88076234922E+03  0.00000000000E+00 0. -1.
         -3    1    3    3    0  502 -0.22542131326E+03  0.16938044322E+03 -0.90024077809E+03  0.94336523232E+03  0.00000000000E+00 0.  1.
         11    1    5    5    0    0  0.42936745492E+03  0.18593665510E+03  0.23441753718E+03  0.52333586997E+03  0.00000000000E+00 0.  1.
        -11    1    5    5    0    0  0.33536993703E+02  0.62237959014E+00 -0.59433031374E+01  0.34065233820E+02  0.00000000000E+00 0. -1.
          2    1    6    6  503    0  0.39472948687E+02 -0.70469022119E+02  0.13411057944E+03  0.15655556290E+03  0.00000000000E+00 0. -1.
         -2    1    6    6    0  503  0.56676725376E+01 -0.41358981964E+03  0.64359939803E+03  0.76505479972E+03  0.00000000000E+00 0.  1.
<mgrwt>
<rscale>  0 0.32240825E+04</rscale>
<asrwt>0</asrwt>
<pdfrwt beam="1">  1        2 0.30934493E+00 0.32240825E+04</pdfrwt>
<pdfrwt beam="2">  1       -1 0.19883031E+00 0.32240825E+04</pdfrwt>
<totfact> 0.96587978E-01</totfact>
</mgrwt>
</event>
<event>
12    6  0.1462228E-007  0.1607035E+04  0.7818608E-02  0.8816237E-01
         -1   -1    0    0    0  501 -0.00000000000E+00  0.00000000000E+00  0.25901760513E+03  0.25901760513E+03  0.00000000000E+00 0.  1.
          2   -1    0    0  501    0  0.00000000000E+00 -0.00000000000E+00 -0.24926519330E+04  0.24926519330E+04  0.00000000000E+00 0. -1.
         24    2    1    2    0    0 -0.36397232432E+03  0.57930502479E+02 -0.14424548790E+04  0.14909720793E+04  0.80559712253E+02 0.  0.
        254    2    1    2    0    0  0.36397232432E+03 -0.57930502479E+02 -0.79117944882E+03  0.12606974588E+04  0.90970399935E+03 0.  0.
         23    2    4    4    0    0  0.25746542637E+03 -0.40383641150E+03 -0.13457950271E+03  0.50543540596E+03  0.89336521181E+02 0.  0.
         23    2    4    4    0    0  0.10650689795E+03  0.34590590903E+03 -0.65659994612E+03  0.75526205285E+03  0.91118944400E+02 0.  0.
          4    1    3    3  502    0 -0.32523773408E+03  0.56043178826E+02 -0.13652583209E+04  0.14045820391E+04  0.00000000000E+00 0. -1.
         -1    1    3    3    0  502 -0.38734590245E+02  0.18873236534E+01 -0.77196558081E+02  0.86390040233E+02  0.00000000000E+00 0.  1.
         11    1    5    5    0    0  0.26302366449E+03 -0.40266612887E+03 -0.13549905309E+03  0.49968135127E+03  0.00000000000E+00 0. -1.
        -11    1    5    5    0    0 -0.55582381195E+01 -0.11702826315E+01  0.91955038144E+00  0.57540546864E+01  0.00000000000E+00 0.  1.
          3    1    6    6  503    0  0.10588283417E+03  0.33104893019E+03 -0.57164952804E+03  0.66901999347E+03  0.00000000000E+00 0. -1.
         -3    1    6    6    0  503  0.62406378659E+00  0.14856978836E+02 -0.84950418072E+02  0.86242059382E+02  0.00000000000E+00 0.  1.
<mgrwt>
<rscale>  0 0.16070354E+04</rscale>
<asrwt>0</asrwt>
<pdfrwt beam="1">  1        2 0.38348491E+00 0.16070354E+04</pdfrwt>
<pdfrwt beam="2">  1       -1 0.39848863E-01 0.16070354E+04</pdfrwt>
<totfact> 0.23581696E+01</totfact>
</mgrwt>
</event>
<event>
12    6  0.1795563E-007  0.2584802E+04  0.7818608E-02  0.8373382E-01
          2   -1    0    0  501    0  0.00000000000E+00  0.00000000000E+00  0.16776607293E+04  0.16776607293E+04  0.00000000000E+00 0. -1.
         -1   -1    0    0    0  501 -0.00000000000E+00 -0.00000000000E+00 -0.99561250367E+03  0.99561250367E+03  0.00000000000E+00 0.  1.
         24    2    1    2    0    0  0.56601469680E+03  0.13260839587E+03  0.13095269391E+04  0.14350319921E+04  0.80612595298E+02 0.  0.
        254    2    1    2    0    0 -0.56601469680E+03 -0.13260839587E+03 -0.62747871346E+03  0.12382412409E+04  0.89529559982E+03 0.  0.
         23    2    4    4    0    0 -0.73898804328E+02  0.31463195280E+03 -0.22486009971E+02  0.33497530216E+03  0.85138319255E+02 0.  0.
         23    2    4    4    0    0 -0.49211589247E+03 -0.44724034868E+03 -0.60499270349E+03  0.90326593870E+03  0.87585407600E+02 0.  0.
          4    1    3    3  502    0  0.52705413445E+03  0.14327347591E+03  0.12065267220E+04  0.13243942315E+04  0.00000000000E+00 0. -1.
         -3    1    3    3    0  502  0.38960562350E+02 -0.10665080037E+02  0.10300021710E+03  0.11063776062E+03  0.00000000000E+00 0.  1.
         11    1    5    5    0    0 -0.27149057751E+02  0.10992514317E+03  0.32722232259E+02  0.11786158374E+03  0.00000000000E+00 0.  1.
        -11    1    5    5    0    0 -0.46749746577E+02  0.20470680963E+03 -0.55208242230E+02  0.21711371842E+03  0.00000000000E+00 0. -1.
          1    1    6    6  503    0 -0.40158433245E+03 -0.38540452755E+03 -0.46383551288E+03  0.72453433937E+03  0.00000000000E+00 0. -1.
         -1    1    6    6    0  503 -0.90531560027E+02 -0.61835821122E+02 -0.14115719061E+03  0.17873159932E+03  0.00000000000E+00 0.  1.
<mgrwt>
<rscale>  0 0.25848017E+04</rscale>
<asrwt>0</asrwt>
<pdfrwt beam="1">  1        2 0.25810165E+00 0.25848017E+04</pdfrwt>
<pdfrwt beam="2">  1       -1 0.15317116E+00 0.25848017E+04</pdfrwt>
<totfact> 0.33546678E+00</totfact>
</mgrwt>
</event>
<event>
12    6  0.1462228E-007  0.3447004E+04  0.7818608E-02  0.8126465E-01
          2   -1    0    0  501    0  0.00000000000E+00  0.00000000000E+00  0.16757600280E+04  0.16757600280E+04  0.00000000000E+00 0. -1.
         -1   -1    0    0    0  501 -0.00000000000E+00 -0.00000000000E+00 -0.17726038849E+04  0.17726038849E+04  0.00000000000E+00 0.  1.
         24    2    1    2    0    0  0.87260545943E+03 -0.13190713405E+04  0.25213227070E+03  0.16035905386E+04  0.80885377378E+02 0.  0.
        254    2    1    2    0    0 -0.87260545943E+03  0.13190713405E+04 -0.34897612756E+03  0.18447733743E+04  0.88318456491E+03 0.  0.
         23    2    4    4    0    0 -0.88614035321E+03  0.59561145620E+03 -0.11239598639E+03  0.10778872570E+04  0.95970562093E+02 0.  0.
         23    2    4    4    0    0  0.13534893782E+02  0.72345988431E+03 -0.23658014117E+03  0.76688611725E+03  0.92556772195E+02 0.  0.
          4    1    3    3  502    0  0.29458527660E+03 -0.47856308438E+03  0.12415267667E+03  0.57551455068E+03  0.00000000000E+00 0. -1.
         -3    1    3    3    0  502  0.57802018283E+03 -0.84050825613E+03  0.12797959403E+03  0.10280759879E+04  0.00000000000E+00 0.  1.
         11    1    5    5    0    0 -0.16717062298E+03  0.69226194450E+02 -0.17428331706E+02  0.18177466801E+03  0.00000000000E+00 0.  1.
        -11    1    5    5    0    0 -0.71896973024E+03  0.52638526176E+03 -0.94967654680E+02  0.89611258903E+03  0.00000000000E+00 0. -1.
          1    1    6    6  503    0 -0.26551811732E+02  0.53416859394E+03 -0.15441052052E+03  0.55667198089E+03  0.00000000000E+00 0. -1.
         -1    1    6    6    0  503  0.40086705514E+02  0.18929129037E+03 -0.82169620646E+02  0.21021413636E+03  0.00000000000E+00 0.  1.
<mgrwt>
<rscale>  0 0.34470038E+04</rscale>
<asrwt>0</asrwt>
<pdfrwt beam="1">  1        2 0.25780924E+00 0.34470038E+04</pdfrwt>
<pdfrwt beam="2">  1       -1 0.27270829E+00 0.34470038E+04</pdfrwt>
<totfact> 0.47150365E-01</totfact>
</mgrwt>
</event>
<event>
12    6  0.1462228E-007  0.1919551E+04  0.7818608E-02  0.8645185E-01
         -1   -1    0    0    0  501 -0.00000000000E+00  0.00000000000E+00  0.27228982584E+03  0.27228982584E+03  0.00000000000E+00 0.  1.
          2   -1    0    0  501    0  0.00000000000E+00 -0.00000000000E+00 -0.33830463890E+04  0.33830463890E+04  0.00000000000E+00 0. -1.
         24    2    1    2    0    0 -0.18950943862E+03 -0.14467831335E+03  0.13187587816E+03  0.28445865924E+03  0.81730287514E+02 0.  0.
        254    2    1    2    0    0  0.18950943862E+03  0.14467831335E+03 -0.32426324414E+04  0.33708775556E+04  0.88955309210E+03 0.  0.
         23    2    4    4    0    0 -0.69576779708E+02  0.32409749688E+03 -0.27941522731E+04  0.28152230810E+04  0.91180889506E+02 0.  0.
         23    2    4    4    0    0  0.25908621833E+03 -0.17941918353E+03 -0.44848016824E+03  0.55565447464E+03  0.91107200278E+02 0.  0.
          4    1    3    3  502    0 -0.90206460484E+02 -0.11592952656E+03  0.60661181566E+02  0.15892337647E+03  0.00000000000E+00 0. -1.
         -3    1    3    3    0  502 -0.99302978133E+02 -0.28748786793E+02  0.71214696593E+02  0.12553528277E+03  0.00000000000E+00 0.  1.
         11    1    5    5    0    0 -0.68166308420E+02  0.20861971029E+03 -0.21109744580E+04  0.21223529376E+04  0.00000000000E+00 0. -1.
        -11    1    5    5    0    0 -0.14104712882E+01  0.11547778659E+03 -0.68317781508E+03  0.69287014342E+03  0.00000000000E+00 0.  1.
          1    1    6    6  503    0  0.25559695393E+03 -0.17561462934E+03 -0.39627156504E+03  0.50319126995E+03  0.00000000000E+00 0. -1.
         -1    1    6    6    0  503  0.34892643936E+01 -0.38045541949E+01 -0.52208603196E+02  0.52463204689E+02  0.00000000000E+00 0.  1.
<mgrwt>
<rscale>  0 0.19195511E+04</rscale>
<asrwt>0</asrwt>
<pdfrwt beam="1">  1        2 0.52046871E+00 0.19195511E+04</pdfrwt>
<pdfrwt beam="2">  1       -1 0.41890740E-01 0.19195511E+04</pdfrwt>
<totfact> 0.58634147E+00</totfact>
</mgrwt>
</event>
<event>
12    6  0.1462228E-007  0.1948015E+04  0.7818608E-02  0.8631318E-01
          2   -1    0    0  501    0  0.00000000000E+00  0.00000000000E+00  0.31526677383E+04  0.31526677383E+04  0.00000000000E+00 0. -1.
         -1   -1    0    0    0  501 -0.00000000000E+00 -0.00000000000E+00 -0.30091688337E+03  0.30091688337E+03  0.00000000000E+00 0.  1.
         24    2    1    2    0    0 -0.12414524603E+03 -0.21704629356E+03  0.23992414543E+04  0.24135887844E+04  0.80809211614E+02 0.  0.
        254    2    1    2    0    0  0.12414524603E+03  0.21704629356E+03  0.45250940064E+03  0.10399958372E+04  0.90238874559E+03 0.  0.
         23    2    4    4    0    0 -0.32276585992E+03 -0.65738872075E+02  0.35842609829E+03  0.49536202785E+03  0.91732606384E+02 0.  0.
         23    2    4    4    0    0  0.44691110595E+03  0.28278516564E+03  0.94083302352E+02  0.54463380939E+03  0.89873978597E+02 0.  0.
          4    1    3    3  502    0 -0.11834386185E+03 -0.19328727624E+03  0.23088576340E+04  0.23199544855E+04  0.00000000000E+00 0. -1.
         -3    1    3    3    0  502 -0.58013841859E+01 -0.23759017320E+02  0.90383820268E+02  0.93634298891E+02  0.00000000000E+00 0.  1.
         11    1    5    5    0    0 -0.19846647693E+03 -0.60738759148E+02  0.27912937165E+03  0.34783810235E+03  0.00000000000E+00 0. -1.
        -11    1    5    5    0    0 -0.12429938299E+03 -0.50001129269E+01  0.79296726636E+02  0.14752392550E+03  0.00000000000E+00 0.  1.
          2    1    6    6  503    0  0.37629456888E+03  0.27352508294E+03  0.83269937298E+02  0.47259650445E+03  0.00000000000E+00 0. -1.
         -2    1    6    6    0  503  0.70616537072E+02  0.92600826999E+01  0.10813365054E+02  0.72037304943E+02  0.00000000000E+00 0.  1.
<mgrwt>
<rscale>  0 0.19480153E+04</rscale>
<asrwt>0</asrwt>
<pdfrwt beam="1">  1        2 0.48502578E+00 0.19480153E+04</pdfrwt>
<pdfrwt beam="2">  1       -1 0.46294907E-01 0.19480153E+04</pdfrwt>
<totfact> 0.68894074E+00</totfact>
</mgrwt>
</event>
<event>
12    6  0.1462228E-007  0.1215265E+04  0.7818608E-02  0.9099599E-01
          2   -1    0    0  501    0  0.00000000000E+00  0.00000000000E+00  0.43939355034E+03  0.43939355034E+03  0.00000000000E+00 0. -1.
         -1   -1    0    0    0  501 -0.00000000000E+00 -0.00000000000E+00 -0.84028773144E+03  0.84028773144E+03  0.00000000000E+00 0.  1.
         24    2    1    2    0    0 -0.42407778486E+02 -0.26839191978E+03 -0.15441718900E+03  0.32177011235E+03  0.76542110402E+02 0.  0.
        254    2    1    2    0    0  0.42407778486E+02  0.26839191978E+03 -0.24647699209E+03  0.95791116943E+03  0.88487866886E+03 0.  0.
         23    2    4    4    0    0  0.25874061994E+03  0.45409248085E+03  0.54336426488E+02  0.53336186972E+03  0.91519108712E+02 0.  0.
         23    2    4    4    0    0 -0.21633284145E+03 -0.18570056107E+03 -0.30081341858E+03  0.42454929971E+03  0.92026074631E+02 0.  0.
          2    1    3    3  502    0 -0.14710164157E+02 -0.19907719080E+03 -0.76248266404E+02  0.21368648754E+03  0.00000000000E+00 0. -1.
         -1    1    3    3    0  502 -0.27697614329E+02 -0.69314728978E+02 -0.78168922597E+02  0.10808362481E+03  0.00000000000E+00 0.  1.
         11    1    5    5    0    0  0.23236796110E+03  0.39060726922E+03  0.77004873600E+02  0.46097576799E+03  0.00000000000E+00 0.  1.
        -11    1    5    5    0    0  0.26372658838E+02  0.63485211628E+02 -0.22668447112E+02  0.72386101733E+02  0.00000000000E+00 0. -1.
          4    1    6    6  503    0 -0.28205235074E+02 -0.61977820938E+02 -0.11017689362E+03  0.12952116994E+03  0.00000000000E+00 0. -1.
         -4    1    6    6    0  503 -0.18812760638E+03 -0.12372274013E+03 -0.19063652496E+03  0.29502812977E+03  0.00000000000E+00 0.  1.
<mgrwt>
<rscale>  0 0.12152646E+04</rscale>
<asrwt>0</asrwt>
<pdfrwt beam="1">  1        2 0.67599008E-01 0.12152646E+04</pdfrwt>
<pdfrwt beam="2">  1       -1 0.12927503E+00 0.12152646E+04</pdfrwt>
<totfact> 0.41474464E+01</totfact>
</mgrwt>
</event>
<event>
12    6  0.1462228E-007  0.2887719E+04  0.7818608E-02  0.8276541E-01
          2   -1    0    0  501    0  0.00000000000E+00  0.00000000000E+00  0.19042695196E+04  0.19042695196E+04  0.00000000000E+00 0. -1.
         -1   -1    0    0    0  501 -0.00000000000E+00 -0.00000000000E+00 -0.10947667287E+04  0.10947667287E+04  0.00000000000E+00 0.  1.
         24    2    1    2    0    0  0.12643275524E+04  0.25215532990E+03  0.50477244734E+03  0.13868740476E+04  0.80733699063E+02 0.  0.
        254    2    1    2    0    0 -0.12643275524E+04 -0.25215532990E+03  0.30473034361E+03  0.16121622007E+04  0.91874909999E+03 0.  0.
         23    2    4    4    0    0 -0.78442959844E+03  0.25351202011E+03 -0.40142804415E+02  0.82920107411E+03  0.79779930480E+02 0.  0.
         23    2    4    4    0    0 -0.47989795398E+03 -0.50566735001E+03  0.34487314802E+03  0.78296112656E+03  0.89939548466E+02 0.  0.
          2    1    3    3  502    0  0.69112646526E+03  0.12742779143E+03  0.23329153329E+03  0.74048536280E+03  0.00000000000E+00 0. -1.
         -1    1    3    3    0  502  0.57320108716E+03  0.12472753847E+03  0.27148091405E+03  0.64638868482E+03  0.00000000000E+00 0.  1.
         11    1    5    5    0    0 -0.10967165149E+03  0.62588489432E+02 -0.18464637641E+02  0.12761713441E+03  0.00000000000E+00 0. -1.
        -11    1    5    5    0    0 -0.67475794695E+03  0.19092353067E+03 -0.21678166774E+02  0.70158393970E+03  0.00000000000E+00 0.  1.
          4    1    6    6  503    0 -0.17802827840E+03 -0.22140266488E+03  0.98770074812E+02  0.30078021145E+03  0.00000000000E+00 0. -1.
         -4    1    6    6    0  503 -0.30186967558E+03 -0.28426468513E+03  0.24610307321E+03  0.48218091511E+03  0.00000000000E+00 0.  1.
<mgrwt>
<rscale>  0 0.28877195E+04</rscale>
<asrwt>0</asrwt>
<pdfrwt beam="1">  1        2 0.29296454E+00 0.28877195E+04</pdfrwt>
<pdfrwt beam="2">  1       -1 0.16842565E+00 0.28877195E+04</pdfrwt>
<totfact> 0.18762010E+00</totfact>
</mgrwt>
</event>
<event>
12    6  0.1462228E-007  0.1415925E+04  0.7818608E-02  0.8942372E-01
         -1   -1    0    0    0  501 -0.00000000000E+00  0.00000000000E+00  0.25841348273E+03  0.25841348273E+03  0.00000000000E+00 0.  1.
          2   -1    0    0  501    0  0.00000000000E+00 -0.00000000000E+00 -0.19395683909E+04  0.19395683909E+04  0.00000000000E+00 0. -1.
         24    2    1    2    0    0  0.30683092184E+03  0.66753876417E+02 -0.65431576543E+03  0.73003882146E+03  0.78906687567E+02 0.  0.
        254    2    1    2    0    0 -0.30683092184E+03 -0.66753876417E+02 -0.10268391428E+04  0.14679430522E+04  0.10009280118E+04 0.  0.
         23    2    4    4    0    0 -0.58907804472E+03  0.19555639869E+03 -0.78182001243E+03  0.10024040714E+04  0.91192886932E+02 0.  0.
         23    2    4    4    0    0  0.28224712288E+03 -0.26231027511E+03 -0.24501913035E+03  0.46553898083E+03  0.90675518372E+02 0.  0.
          2    1    3    3  502    0  0.27817964366E+03  0.50631403163E+02 -0.52155611825E+03  0.59326911062E+03  0.00000000000E+00 0. -1.
         -3    1    3    3    0  502  0.28651278180E+02  0.16122473254E+02 -0.13275964718E+03  0.13676971084E+03  0.00000000000E+00 0.  1.
         11    1    5    5    0    0 -0.20410010686E+03  0.11115652100E+03 -0.31511148812E+03  0.39154549637E+03  0.00000000000E+00 0.  1.
        -11    1    5    5    0    0 -0.38497793786E+03  0.84399877696E+02 -0.46670852431E+03  0.61085857500E+03  0.00000000000E+00 0. -1.
          2    1    6    6  503    0  0.28773396119E+03 -0.25978655615E+03 -0.23354891554E+03  0.45257594183E+03  0.00000000000E+00 0. -1.
         -2    1    6    6    0  503 -0.54868383135E+01 -0.25237189616E+01 -0.11470214817E+02  0.12963038996E+02  0.00000000000E+00 0.  1.
<mgrwt>
<rscale>  0 0.14159246E+04</rscale>
<asrwt>0</asrwt>
<pdfrwt beam="1">  1        2 0.29839513E+00 0.14159246E+04</pdfrwt>
<pdfrwt beam="2">  1       -1 0.39755921E-01 0.14159246E+04</pdfrwt>
<totfact> 0.49261895E+01</totfact>
</mgrwt>
</event>
<event>
12    6  0.1462228E-007  0.1570400E+04  0.7818608E-02  0.8838942E-01
          2   -1    0    0  501    0  0.00000000000E+00  0.00000000000E+00  0.15805109727E+04  0.15805109727E+04  0.00000000000E+00 0. -1.
         -1   -1    0    0    0  501 -0.00000000000E+00 -0.00000000000E+00 -0.39008818735E+03  0.39008818735E+03  0.00000000000E+00 0.  1.
         24    2    1    2    0    0  0.11439813991E+03 -0.42599881888E+03  0.51843991167E+02  0.45071051848E+03  0.76747924743E+02 0.  0.
        254    2    1    2    0    0 -0.11439813991E+03  0.42599881888E+03  0.11385787942E+04  0.15198886416E+04  0.90506236476E+03 0.  0.
         23    2    4    4    0    0 -0.65995135085E+02  0.68611344311E+03  0.96896183375E+03  0.11924804892E+04  0.89530257910E+02 0.  0.
         23    2    4    4    0    0 -0.48403004826E+02 -0.26011462423E+03  0.16961696043E+03  0.32740815241E+03  0.91780806174E+02 0.  0.
          4    1    3    3  502    0  0.24161648708E+02 -0.23606457483E+03  0.21838923021E+02  0.23830066579E+03  0.00000000000E+00 0. -1.
         -3    1    3    3    0  502  0.90236491203E+02 -0.18993424404E+03  0.30005068146E+02  0.21240985269E+03  0.00000000000E+00 0.  1.
         11    1    5    5    0    0 -0.34157772722E+02  0.20922571503E+03  0.23369771909E+03  0.31552619094E+03  0.00000000000E+00 0. -1.
        -11    1    5    5    0    0 -0.31837362363E+02  0.47688772808E+03  0.73526411467E+03  0.87695429821E+03  0.00000000000E+00 0.  1.
          4    1    6    6  503    0  0.10483114724E+02 -0.10702429443E+03  0.29049807685E+02  0.11139114247E+03  0.00000000000E+00 0.  1.
         -4    1    6    6    0  503 -0.58886119550E+02 -0.15309032980E+03  0.14056715274E+03  0.21601700994E+03  0.00000000000E+00 0. -1.
<mgrwt>
<rscale>  0 0.15703995E+04</rscale>
<asrwt>0</asrwt>
<pdfrwt beam="1">  1        2 0.24315553E+00 0.15703995E+04</pdfrwt>
<pdfrwt beam="2">  1       -1 0.60013568E-01 0.15703995E+04</pdfrwt>
<totfact> 0.35253303E+01</totfact>
</mgrwt>
</event>
<event>
12    6  0.1462228E-007  0.1879675E+04  0.7818608E-02  0.8665040E-01
          2   -1    0    0  501    0  0.00000000000E+00  0.00000000000E+00  0.72718531867E+03  0.72718531867E+03  0.00000000000E+00 0. -1.
         -1   -1    0    0    0  501 -0.00000000000E+00 -0.00000000000E+00 -0.12146764450E+04  0.12146764450E+04  0.00000000000E+00 0.  1.
         24    2    1    2    0    0 -0.12315934828E+03  0.64478290272E+03  0.13531765340E+03  0.67447186917E+03  0.75420277553E+02 0.  0.
        254    2    1    2    0    0  0.12315934828E+03 -0.64478290272E+03 -0.62280877976E+03  0.12673898945E+04  0.88739684016E+03 0.  0.
         23    2    4    4    0    0  0.49272934491E+02 -0.20549140870E+03 -0.75792112511E+03  0.79255053015E+03  0.95065082086E+02 0.  0.
         23    2    4    4    0    0  0.73886413786E+02 -0.43929149402E+03  0.13511234534E+03  0.47483936439E+03  0.93706228458E+02 0.  0.
          2    1    3    3  502    0 -0.72871619909E+02  0.23408877689E+03  0.26206606118E+02  0.24656563966E+03  0.00000000000E+00 0. -1.
         -1    1    3    3    0  502 -0.50287728368E+02  0.41069412583E+03  0.10911104728E+03  0.42790622951E+03  0.00000000000E+00 0.  1.
         11    1    5    5    0    0  0.85646087511E+01 -0.73922029806E+01 -0.40387871750E+01  0.12012867676E+02  0.00000000000E+00 0. -1.
        -11    1    5    5    0    0  0.40708325740E+02 -0.19809920572E+03 -0.75388233793E+03  0.78053766247E+03  0.00000000000E+00 0.  1.
          3    1    6    6  503    0  0.22606940437E+02 -0.28390866239E+02 -0.71606795218E+01  0.36991760879E+02  0.00000000000E+00 0. -1.
         -3    1    6    6    0  503  0.51279473349E+02 -0.41090062778E+03  0.14227302487E+03  0.43784760351E+03  0.00000000000E+00 0.  1.
<mgrwt>
<rscale>  0 0.18796754E+04</rscale>
<asrwt>0</asrwt>
<pdfrwt beam="1">  1        2 0.11187467E+00 0.18796754E+04</pdfrwt>
<pdfrwt beam="2">  1       -1 0.18687330E+00 0.18796754E+04</pdfrwt>
<totfact> 0.77691835E+00</totfact>
</mgrwt>
</event>
<event>
12    6  0.1462228E-007  0.1851178E+04  0.7818608E-02  0.8679547E-01
          2   -1    0    0  501    0  0.00000000000E+00  0.00000000000E+00  0.22691239517E+04  0.22691239517E+04  0.00000000000E+00 0. -1.
         -1   -1    0    0    0  501 -0.00000000000E+00 -0.00000000000E+00 -0.37755332626E+03  0.37755332626E+03  0.00000000000E+00 0.  1.
         24    2    1    2    0    0 -0.45354569134E+03 -0.31337720544E+03  0.95312656817E+02  0.56529567164E+03  0.81029172512E+02 0.  0.
        254    2    1    2    0    0  0.45354569134E+03  0.31337720544E+03  0.17962579686E+04  0.20813816063E+04  0.89537575030E+03 0.  0.
         23    2    4    4    0    0 -0.10062567535E+03  0.44021882881E+03  0.97476206984E+03  0.10781051339E+04  0.90727300930E+02 0.  0.
         23    2    4    4    0    0  0.55417136669E+03 -0.12684162337E+03  0.82149589875E+03  0.10032764724E+04  0.92268452482E+02 0.  0.
          4    1    3    3  502    0 -0.19106591233E+03 -0.17133731616E+03  0.68644058727E+02  0.26565892713E+03  0.00000000000E+00 0. -1.
         -3    1    3    3    0  502 -0.26247977901E+03 -0.14203988927E+03  0.26668598090E+02  0.29963674450E+03  0.00000000000E+00 0.  1.
         11    1    5    5    0    0  0.10500712019E+02  0.11557168676E+03  0.21115676480E+03  0.24094451447E+03  0.00000000000E+00 0.  1.
        -11    1    5    5    0    0 -0.11112638737E+03  0.32464714204E+03  0.76360530504E+03  0.83716061941E+03  0.00000000000E+00 0. -1.
          3    1    6    6  503    0  0.14060373893E+03  0.24158899298E+01  0.16659735418E+03  0.21801359211E+03  0.00000000000E+00 0. -1.
         -3    1    6    6    0  503  0.41356762776E+03 -0.12925751330E+03  0.65489854457E+03  0.78526288029E+03  0.00000000000E+00 0.  1.
<mgrwt>
<rscale>  0 0.18511783E+04</rscale>
<asrwt>0</asrwt>
<pdfrwt beam="1">  1        2 0.34909598E+00 0.18511783E+04</pdfrwt>
<pdfrwt beam="2">  1       -1 0.58085129E-01 0.18511783E+04</pdfrwt>
<totfact> 0.15179039E+01</totfact>
</mgrwt>
</event>
<event>
12    6  0.1462228E-007  0.1456454E+04  0.7818608E-02  0.8913938E-01
         -1   -1    0    0    0  501 -0.00000000000E+00  0.00000000000E+00  0.36462220991E+03  0.36462220991E+03  0.00000000000E+00 0.  1.
          2   -1    0    0  501    0  0.00000000000E+00 -0.00000000000E+00 -0.14544215715E+04  0.14544215715E+04  0.00000000000E+00 0. -1.
         24    2    1    2    0    0  0.29921024493E+03  0.24458300087E+03 -0.69670400994E+02  0.40393741170E+03  0.94677625705E+02 0.  0.
        254    2    1    2    0    0 -0.29921024493E+03 -0.24458300087E+03 -0.10201289606E+04  0.14151063697E+04  0.90139632036E+03 0.  0.
         23    2    4    4    0    0  0.21480246250E+03 -0.37534194737E+03 -0.44182593038E+03  0.62495026541E+03  0.91274345384E+02 0.  0.
         23    2    4    4    0    0 -0.51401270744E+03  0.13075894651E+03 -0.57830303018E+03  0.79015610427E+03  0.92764804245E+02 0.  0.
          4    1    3    3  502    0  0.91573223081E+02  0.27543400489E+02 -0.12417390366E+00  0.95625883082E+02  0.00000000000E+00 0. -1.
         -3    1    3    3    0  502  0.20763702185E+03  0.21703960038E+03 -0.69546227090E+02  0.30831152862E+03  0.00000000000E+00 0.  1.
         11    1    5    5    0    0  0.29361827357E+02 -0.12171618904E+03 -0.96468073555E+02  0.15806023154E+03  0.00000000000E+00 0. -1.
        -11    1    5    5    0    0  0.18544063515E+03 -0.25362575833E+03 -0.34535785683E+03  0.46689003387E+03  0.00000000000E+00 0.  1.
          3    1    6    6  503    0 -0.10491112745E+03  0.27114089468E+02 -0.67902835267E+02  0.12787616489E+03  0.00000000000E+00 0. -1.
         -3    1    6    6    0  503 -0.40910157999E+03  0.10364485704E+03 -0.51040019491E+03  0.66227993938E+03  0.00000000000E+00 0.  1.
<mgrwt>
<rscale>  0 0.14564538E+04</rscale>
<asrwt>0</asrwt>
<pdfrwt beam="1">  1        2 0.22375717E+00 0.14564538E+04</pdfrwt>
<pdfrwt beam="2">  1       -1 0.56095723E-01 0.14564538E+04</pdfrwt>
<totfact> 0.47841956E+01</totfact>
</mgrwt>
</event>
<event>
12    6  0.1462228E-007  0.1481003E+04  0.7818608E-02  0.8897185E-01
          2   -1    0    0  501    0  0.00000000000E+00  0.00000000000E+00  0.47105686798E+03  0.47105686798E+03  0.00000000000E+00 0. -1.
         -1   -1    0    0    0  501 -0.00000000000E+00 -0.00000000000E+00 -0.11640690712E+04  0.11640690712E+04  0.00000000000E+00 0.  1.
         24    2    1    2    0    0  0.73734426406E+02 -0.37691199913E+03 -0.52769567486E+03  0.65812119499E+03  0.84624826760E+02 0.  0.
        254    2    1    2    0    0 -0.73734426406E+02  0.37691199913E+03 -0.16531652841E+03  0.97700474424E+03  0.88301149199E+03 0.  0.
         23    2    4    4    0    0  0.39322814080E+02 -0.27325471954E+03 -0.10152446915E+03  0.30785616144E+03  0.90850277050E+02 0.  0.
         23    2    4    4    0    0 -0.11305724049E+03  0.65016671867E+03 -0.63792059254E+02  0.66914858281E+03  0.90507996105E+02 0.  0.
          4    1    3    3  502    0  0.18817291190E+02 -0.22482956886E+02 -0.75269397178E+02  0.80777818426E+02  0.00000000000E+00 0. -1.
         -3    1    3    3    0  502  0.54917135215E+02 -0.35442904224E+03 -0.45242627768E+03  0.57734337656E+03  0.00000000000E+00 0.  1.
         11    1    5    5    0    0  0.64529670539E+02 -0.23673993522E+03 -0.94441960310E+02  0.26292424607E+03  0.00000000000E+00 0.  1.
        -11    1    5    5    0    0 -0.25206856459E+02 -0.36514784323E+02 -0.70825088444E+01  0.44931915364E+02  0.00000000000E+00 0. -1.
          3    1    6    6  503    0  0.10190692218E+02  0.97502785764E+02 -0.27152507635E+02  0.10172463866E+03  0.00000000000E+00 0. -1.
         -3    1    6    6    0  503 -0.12324793270E+03  0.55266393290E+03 -0.36639551620E+02  0.56742394415E+03  0.00000000000E+00 0.  1.
<mgrwt>
<rscale>  0 0.14810034E+04</rscale>
<asrwt>0</asrwt>
<pdfrwt beam="1">  1        2 0.72470288E-01 0.14810034E+04</pdfrwt>
<pdfrwt beam="2">  1       -1 0.17908755E+00 0.14810034E+04</pdfrwt>
<totfact> 0.15423380E+01</totfact>
</mgrwt>
</event>
<event>
12    6  0.1462228E-007  0.1064446E+04  0.7818608E-02  0.9240555E-01
          2   -1    0    0  501    0  0.00000000000E+00  0.00000000000E+00  0.16660870140E+03  0.16660870140E+03  0.00000000000E+00 0. -1.
         -1   -1    0    0    0  501 -0.00000000000E+00 -0.00000000000E+00 -0.17001596258E+04  0.17001596258E+04  0.00000000000E+00 0.  1.
         24    2    1    2    0    0 -0.22666096103E+02  0.96676151980E+02 -0.72252158526E+02  0.14700256130E+03  0.80804383183E+02 0.  0.
        254    2    1    2    0    0  0.22666096103E+02 -0.96676151980E+02 -0.14612987659E+04  0.17197657659E+04  0.90129916018E+03 0.  0.
         23    2    4    4    0    0 -0.29869383135E+03  0.16010265156E+03 -0.11340296113E+04  0.11870192646E+04  0.90225890422E+02 0.  0.
         23    2    4    4    0    0  0.32135992746E+03 -0.25677880354E+03 -0.32726915452E+03  0.53274650125E+03  0.86638202736E+02 0.  0.
          4    1    3    3  502    0  0.25001631357E+02  0.47444348138E+02 -0.10271655730E+02  0.54603613912E+02  0.00000000000E+00 0. -1.
         -3    1    3    3    0  502 -0.47667727460E+02  0.49231803841E+02 -0.61980502796E+02  0.92398947383E+02  0.00000000000E+00 0.  1.
         11    1    5    5    0    0 -0.13140326311E+03  0.21433365678E+02 -0.45370717771E+03  0.47283867209E+03  0.00000000000E+00 0.  1.
        -11    1    5    5    0    0 -0.16729056825E+03  0.13866928588E+03 -0.68032243362E+03  0.71418059254E+03  0.00000000000E+00 0. -1.
          2    1    6    6  503    0 -0.39120991209E+01 -0.30588949596E+01  0.15553177175E+01  0.52038803895E+01  0.00000000000E+00 0. -1.
         -2    1    6    6    0  503  0.32527202658E+03 -0.25371990858E+03 -0.32882447224E+03  0.52754262086E+03  0.00000000000E+00 0.  1.
<mgrwt>
<rscale>  0 0.10644461E+04</rscale>
<asrwt>0</asrwt>
<pdfrwt beam="1">  1        2 0.25632107E-01 0.10644461E+04</pdfrwt>
<pdfrwt beam="2">  1       -1 0.26156303E+00 0.10644461E+04</pdfrwt>
<totfact> 0.14359052E+01</totfact>
</mgrwt>
</event>
<event>
12    6  0.1651367E-007  0.2380563E+04  0.7818608E-02  0.8446816E-01
         -1   -1    0    0    0  501 -0.00000000000E+00  0.00000000000E+00  0.57861168584E+03  0.57861168584E+03  0.00000000000E+00 0.  1.
          2   -1    0    0  501    0  0.00000000000E+00 -0.00000000000E+00 -0.24485686089E+04  0.24485686089E+04  0.00000000000E+00 0. -1.
         24    2    1    2    0    0  0.10980938000E+03  0.29392299786E+03  0.43212201222E+03  0.53987872616E+03  0.79314418013E+02 0.  0.
        254    2    1    2    0    0 -0.10980938000E+03 -0.29392299786E+03 -0.23020789353E+04  0.24873015686E+04  0.88806128177E+03 0.  0.
         23    2    4    4    0    0 -0.31992397385E+03 -0.44762134478E+03 -0.20087380043E+04  0.20846479067E+04  0.89511494424E+02 0.  0.
         23    2    4    4    0    0  0.21011459385E+03  0.15369834692E+03 -0.29334093098E+03  0.40265366188E+03  0.91157804078E+02 0.  0.
          2    1    3    3  502    0  0.20984613054E+02  0.46496420516E+02  0.12853817613E+03  0.13829075829E+03  0.00000000000E+00 0. -1.
         -1    1    3    3    0  502  0.88824766949E+02  0.24742657735E+03  0.30358383609E+03  0.40158796787E+03  0.00000000000E+00 0.  1.
         11    1    5    5    0    0  0.18391456805E+01 -0.64559827171E+01 -0.74842450482E+02  0.75142894300E+02  0.00000000000E+00 0. -1.
        -11    1    5    5    0    0 -0.32176311953E+03 -0.44116536206E+03 -0.19338955539E+04  0.20095050124E+04  0.00000000000E+00 0.  1.
          3    1    6    6  503    0 -0.37663113222E+01  0.22410302213E+02 -0.12187314517E+02  0.25786379765E+02  0.00000000000E+00 0. -1.
         -3    1    6    6    0  503  0.21388090517E+03  0.13128804470E+03 -0.28115361646E+03  0.37686728211E+03  0.00000000000E+00 0.  1.
<mgrwt>
<rscale>  0 0.23805633E+04</rscale>
<asrwt>0</asrwt>
<pdfrwt beam="1">  1        2 0.37670286E+00 0.23805633E+04</pdfrwt>
<pdfrwt beam="2">  1       -1 0.89017183E-01 0.23805633E+04</pdfrwt>
<totfact> 0.47265553E+00</totfact>
</mgrwt>
</event>
<event>
12    6  0.1462228E-007  0.1786121E+04  0.7818608E-02  0.8713715E-01
          2   -1    0    0  501    0  0.00000000000E+00  0.00000000000E+00  0.16012588843E+04  0.16012588843E+04  0.00000000000E+00 0. -1.
         -3   -1    0    0    0  501 -0.00000000000E+00 -0.00000000000E+00 -0.49808144954E+03  0.49808144954E+03  0.00000000000E+00 0.  1.
         24    2    1    2    0    0  0.47180326393E+03 -0.21659215839E+03 -0.76652108742E+02  0.53073430615E+03  0.79327643509E+02 0.  0.
        254    2    1    2    0    0 -0.47180326393E+03  0.21659215839E+03  0.11798295435E+04  0.15686060277E+04  0.89387730446E+03 0.  0.
         23    2    4    4    0    0 -0.56700791758E+02 -0.30849136116E+03  0.21566539988E+03  0.39134248556E+03  0.90859653277E+02 0.  0.
         23    2    4    4    0    0 -0.41510247217E+03  0.52508351955E+03  0.96416414358E+03  0.11772635421E+04  0.91182163177E+02 0.  0.
          2    1    3    3  502    0  0.17431583689E+03 -0.11251981266E+03 -0.50589755765E+01  0.20753870113E+03  0.00000000000E+00 0. -1.
         -1    1    3    3    0  502  0.29748742704E+03 -0.10407234572E+03 -0.71593133166E+02  0.32319560502E+03  0.00000000000E+00 0.  1.
         11    1    5    5    0    0 -0.24454423827E+02 -0.48603791447E+02  0.38890463873E+01  0.54547887856E+02  0.00000000000E+00 0. -1.
        -11    1    5    5    0    0 -0.32246367930E+02 -0.25988756972E+03  0.21177635350E+03  0.33679459770E+03  0.00000000000E+00 0.  1.
          1    1    6    6  503    0 -0.88772624417E+02  0.90613063484E+02  0.12922456925E+03  0.18108090848E+03  0.00000000000E+00 0. -1.
         -1    1    6    6    0  503 -0.32632984775E+03  0.43447045607E+03  0.83493957433E+03  0.99618263362E+03  0.00000000000E+00 0.  1.
<mgrwt>
<rscale>  0 0.17861213E+04</rscale>
<asrwt>0</asrwt>
<pdfrwt beam="1">  1        2 0.24634752E+00 0.17861213E+04</pdfrwt>
<pdfrwt beam="2">  1       -3 0.76627916E-01 0.17861213E+04</pdfrwt>
<totfact> 0.10746233E+01</totfact>
</mgrwt>
</event>
<event>
12    6  0.1462228E-007  0.1016833E+04  0.7818608E-02  0.9290273E-01
          2   -1    0    0  501    0  0.00000000000E+00  0.00000000000E+00  0.34139210921E+03  0.34139210921E+03  0.00000000000E+00 0. -1.
         -1   -1    0    0    0  501 -0.00000000000E+00 -0.00000000000E+00 -0.75715655805E+03  0.75715655805E+03  0.00000000000E+00 0.  1.
         24    2    1    2    0    0 -0.84629188715E+02 -0.87789675995E+01 -0.28594998722E+02  0.11759742150E+03  0.75975718067E+02 0.  0.
        254    2    1    2    0    0  0.84629188715E+02  0.87789675995E+01 -0.38716945012E+03  0.98095124577E+03  0.89728813299E+03 0.  0.
         23    2    4    4    0    0  0.39663132533E+02 -0.16356774824E+03 -0.63488019746E+03  0.66311913395E+03  0.91249922412E+02 0.  0.
         23    2    4    4    0    0  0.44966056182E+02  0.17234671584E+03  0.24771074734E+03  0.31783211181E+03  0.89057847953E+02 0.  0.
          2    1    3    3  502    0 -0.92647989523E+02 -0.24163155853E+02 -0.18476171595E+02  0.97513470762E+02  0.00000000000E+00 0. -1.
         -1    1    3    3    0  502  0.80188008079E+01  0.15384188253E+02 -0.10118827128E+02  0.20083950733E+02  0.00000000000E+00 0.  1.
         11    1    5    5    0    0 -0.20371728529E+02 -0.43522385945E+01 -0.56022133537E+02  0.59769797976E+02  0.00000000000E+00 0.  1.
        -11    1    5    5    0    0  0.60034861062E+02 -0.15921550965E+03 -0.57885806392E+03  0.60334933598E+03  0.00000000000E+00 0. -1.
          4    1    6    6  503    0  0.60419215993E+02  0.13822416520E+03  0.23303770971E+03  0.27760218957E+03  0.00000000000E+00 0. -1.
         -4    1    6    6    0  503 -0.15453159811E+02  0.34122550645E+02  0.14673037630E+02  0.40229922247E+02  0.00000000000E+00 0.  1.
<mgrwt>
<rscale>  0 0.10168329E+04</rscale>
<asrwt>0</asrwt>
<pdfrwt beam="1">  1        2 0.52521863E-01 0.10168329E+04</pdfrwt>
<pdfrwt beam="2">  1       -1 0.11648562E+00 0.10168329E+04</pdfrwt>
<totfact> 0.72286910E+01</totfact>
</mgrwt>
</event>
<event>
12    6  0.1462228E-007  0.2341135E+04  0.7818608E-02  0.8461876E-01
          2   -1    0    0  501    0  0.00000000000E+00  0.00000000000E+00  0.21199472266E+04  0.21199472266E+04  0.00000000000E+00 0. -1.
         -1   -1    0    0    0  501 -0.00000000000E+00 -0.00000000000E+00 -0.64635041412E+03  0.64635041412E+03  0.00000000000E+00 0.  1.
         24    2    1    2    0    0 -0.80181475370E+03 -0.13360388925E+03 -0.49003253476E+02  0.81811199095E+03  0.78415638886E+02 0.  0.
        254    2    1    2    0    0  0.80181475370E+03  0.13360388925E+03  0.15226000659E+04  0.19481856497E+04  0.90352612946E+03 0.  0.
         23    2    4    4    0    0 -0.16334892046E+03  0.92125506060E+02  0.48203680094E+03  0.52532894503E+03  0.91875156303E+02 0.  0.
         23    2    4    4    0    0  0.96516367416E+03  0.41478383189E+02  0.10405632650E+04  0.14228567047E+04  0.92129905569E+02 0.  0.
          2    1    3    3  502    0 -0.18040711422E+03 -0.44671597998E+02 -0.40988704157E+02  0.19032170764E+03  0.00000000000E+00 0. -1.
         -1    1    3    3    0  502 -0.62140763947E+03 -0.88932291251E+02 -0.80145493184E+01  0.62779028331E+03  0.00000000000E+00 0.  1.
         11    1    5    5    0    0 -0.10235958464E+03  0.71839988817E+01  0.27174580373E+03  0.29047353795E+03  0.00000000000E+00 0.  1.
        -11    1    5    5    0    0 -0.60989335822E+02  0.84941507178E+02  0.21029099721E+03  0.23485540708E+03  0.00000000000E+00 0. -1.
          2    1    6    6  503    0  0.14554011882E+03 -0.87126102468E+01  0.20271405058E+03  0.24970146589E+03  0.00000000000E+00 0. -1.
         -2    1    6    6    0  503  0.81962355534E+03  0.50190993436E+02  0.83784921439E+03  0.11731552388E+04  0.00000000000E+00 0.  1.
<mgrwt>
<rscale>  0 0.23411354E+04</rscale>
<asrwt>0</asrwt>
<pdfrwt beam="1">  1        2 0.32614572E+00 0.23411354E+04</pdfrwt>
<pdfrwt beam="2">  1       -1 0.99438526E-01 0.23411354E+04</pdfrwt>
<totfact> 0.56843796E+00</totfact>
</mgrwt>
</event>
<event>
12    6  0.1462228E-007  0.1641437E+04  0.7818608E-02  0.8795488E-01
          2   -1    0    0  501    0  0.00000000000E+00  0.00000000000E+00  0.54765305113E+03  0.54765305113E+03  0.00000000000E+00 0. -1.
         -1   -1    0    0    0  501 -0.00000000000E+00 -0.00000000000E+00 -0.12299373855E+04  0.12299373855E+04  0.00000000000E+00 0.  1.
         24    2    1    2    0    0  0.43925231392E+03  0.46311888391E+02 -0.64061405752E+03  0.78223662661E+03  0.80127292707E+02 0.  0.
        254    2    1    2    0    0 -0.43925231392E+03 -0.46311888391E+02 -0.41670276823E+02  0.99535380998E+03  0.89101369730E+03 0.  0.
         23    2    4    4    0    0 -0.26474768494E+03 -0.19647753357E+03 -0.41910350852E+03  0.54138345185E+03  0.93560318514E+02 0.  0.
         23    2    4    4    0    0 -0.17450462898E+03  0.15016564518E+03  0.37743323170E+03  0.45397035814E+03  0.10310991780E+03 0.  0.
          2    1    3    3  502    0  0.17222325819E+03  0.57288685459E+02 -0.24955151947E+03  0.30857544460E+03  0.00000000000E+00 0. -1.
         -1    1    3    3    0  502  0.26702905573E+03 -0.10976797068E+02 -0.39106253805E+03  0.47366118201E+03  0.00000000000E+00 0.  1.
         11    1    5    5    0    0 -0.77091213230E+02 -0.11382977682E+03 -0.15968480901E+03  0.21071191584E+03  0.00000000000E+00 0. -1.
        -11    1    5    5    0    0 -0.18765647171E+03 -0.82647756753E+02 -0.25941869951E+03  0.33067153600E+03  0.00000000000E+00 0.  1.
          4    1    6    6  503    0 -0.14621764375E+03  0.14260320934E+03  0.24805425117E+03  0.32131944569E+03  0.00000000000E+00 0. -1.
         -4    1    6    6    0  503 -0.28286985231E+02  0.75624358373E+01  0.12937898053E+03  0.13265091244E+03  0.00000000000E+00 0.  1.
<mgrwt>
<rscale>  0 0.16414371E+04</rscale>
<asrwt>0</asrwt>
<pdfrwt beam="1">  1        2 0.84254317E-01 0.16414371E+04</pdfrwt>
<pdfrwt beam="2">  1       -1 0.18922113E+00 0.16414371E+04</pdfrwt>
<totfact> 0.10813872E+01</totfact>
</mgrwt>
</event>
<event>
12    6  0.1462228E-007  0.1580872E+04  0.7818608E-02  0.8832386E-01
          2   -1    0    0  501    0  0.00000000000E+00  0.00000000000E+00  0.21291299740E+04  0.21291299740E+04  0.00000000000E+00 0. -1.
         -1   -1    0    0    0  501 -0.00000000000E+00 -0.00000000000E+00 -0.29344806370E+03  0.29344806370E+03  0.00000000000E+00 0.  1.
         24    2    1    2    0    0 -0.22410804812E+03  0.27875160313E+03  0.12228032082E+04  0.12767320169E+04  0.82885966673E+02 0.  0.
        254    2    1    2    0    0  0.22410804812E+03 -0.27875160313E+03  0.61287870205E+03  0.11458460208E+04  0.89967545615E+03 0.  0.
         23    2    4    4    0    0  0.29522782527E+03 -0.10218314171E+03 -0.14653556000E+03  0.35783006085E+03  0.94703848083E+02 0.  0.
         23    2    4    4    0    0 -0.71119777153E+02 -0.17656846143E+03  0.75941426205E+03  0.78801595991E+03  0.89580619563E+02 0.  0.
          2    1    3    3  502    0 -0.13225568228E+03  0.16309940566E+03  0.57046764793E+03  0.60788676491E+03  0.00000000000E+00 0. -1.
         -1    1    3    3    0  502 -0.91852365843E+02  0.11565219748E+03  0.65233556032E+03  0.66884525202E+03  0.00000000000E+00 0.  1.
         11    1    5    5    0    0  0.16798364146E+03 -0.81485862190E+01 -0.78599045135E+02  0.18564135625E+03  0.00000000000E+00 0. -1.
        -11    1    5    5    0    0  0.12724418381E+03 -0.94034555487E+02 -0.67936514863E+02  0.17218870460E+03  0.00000000000E+00 0.  1.
          1    1    6    6  503    0  0.16836554650E+02 -0.42545350262E+02  0.11060336589E+03  0.11969411409E+03  0.00000000000E+00 0. -1.
         -1    1    6    6    0  503 -0.87956331803E+02 -0.13402311117E+03  0.64881089616E+03  0.66832184583E+03  0.00000000000E+00 0.  1.
<mgrwt>
<rscale>  0 0.15808720E+04</rscale>
<asrwt>0</asrwt>
<pdfrwt beam="1">  1        2 0.32755845E+00 0.15808720E+04</pdfrwt>
<pdfrwt beam="2">  1       -1 0.45145857E-01 0.15808720E+04</pdfrwt>
<totfact> 0.30150364E+01</totfact>
</mgrwt>
</event>
<event>
12    6  0.1462228E-007  0.1210407E+04  0.7818608E-02  0.9103796E-01
          2   -1    0    0  501    0  0.00000000000E+00  0.00000000000E+00  0.11614301389E+04  0.11614301389E+04  0.00000000000E+00 0. -1.
         -1   -1    0    0    0  501 -0.00000000000E+00 -0.00000000000E+00 -0.31536208162E+03  0.31536208162E+03  0.00000000000E+00 0.  1.
         24    2    1    2    0    0 -0.19982053070E+03  0.97654909827E+02  0.36262822029E+03  0.43279375053E+03  0.79664788029E+02 0.  0.
        254    2    1    2    0    0  0.19982053070E+03 -0.97654909827E+02  0.48343983702E+03  0.10439984700E+04  0.89819485828E+03 0.  0.
         23    2    4    4    0    0  0.12016825186E+03  0.28605544232E+03 -0.97645549988E+02  0.33708318053E+03  0.88443724082E+02 0.  0.
         23    2    4    4    0    0  0.79652278842E+02 -0.38371035215E+03  0.58108538700E+03  0.70691528947E+03  0.92145969135E+02 0.  0.
          4    1    3    3  502    0 -0.13530846199E+03  0.85409554588E+02  0.30916280228E+03  0.34811608727E+03  0.00000000000E+00 0. -1.
         -3    1    3    3    0  502 -0.64512068705E+02  0.12245355239E+02  0.53465418008E+02  0.84677663267E+02  0.00000000000E+00 0.  1.
         11    1    5    5    0    0  0.71806715173E+02  0.75671411720E+02 -0.12652921871E+02  0.10508312580E+03  0.00000000000E+00 0. -1.
        -11    1    5    5    0    0  0.48361536683E+02  0.21038403060E+03 -0.84992628117E+02  0.23200005473E+03  0.00000000000E+00 0.  1.
          3    1    6    6  503    0  0.80444152466E+01 -0.25625063181E+03  0.37152035442E+03  0.45139392184E+03  0.00000000000E+00 0. -1.
         -3    1    6    6    0  503  0.71607863595E+02 -0.12745972033E+03  0.20956503258E+03  0.25552136764E+03  0.00000000000E+00 0.  1.
<mgrwt>
<rscale>  0 0.12104066E+04</rscale>
<asrwt>0</asrwt>
<pdfrwt beam="1">  1        2 0.17868156E+00 0.12104066E+04</pdfrwt>
<pdfrwt beam="2">  1       -1 0.48517244E-01 0.12104066E+04</pdfrwt>
<totfact> 0.95445142E+01</totfact>
</mgrwt>
</event>
<event>
12    6  0.1462228E-007  0.2609644E+04  0.7818608E-02  0.8364933E-01
          2   -1    0    0  501    0  0.00000000000E+00  0.00000000000E+00  0.13113433052E+04  0.13113433052E+04  0.00000000000E+00 0. -1.
         -1   -1    0    0    0  501 -0.00000000000E+00 -0.00000000000E+00 -0.12983327941E+04  0.12983327941E+04  0.00000000000E+00 0.  1.
         24    2    1    2    0    0  0.33314122206E+03 -0.11802074855E+03  0.10971049090E+04  0.11554996668E+04  0.81414542190E+02 0.  0.
        254    2    1    2    0    0 -0.33314122206E+03  0.11802074855E+03 -0.10840943979E+04  0.14541764325E+04  0.90247241636E+03 0.  0.
         23    2    4    4    0    0 -0.33090840057E+03 -0.14013146135E+03 -0.11185672969E+04  0.11784294358E+04  0.91465521046E+02 0.  0.
         23    2    4    4    0    0 -0.22328214902E+01  0.25815220990E+03  0.34472898996E+02  0.27574699664E+03  0.90556481951E+02 0.  0.
          4    1    3    3  502    0  0.29697760621E+03 -0.10402768070E+03  0.87110410602E+03  0.92619642650E+03  0.00000000000E+00 0. -1.
         -3    1    3    3    0  502  0.36163615853E+02 -0.13993067855E+02  0.22600080301E+03  0.22930324032E+03  0.00000000000E+00 0.  1.
         11    1    5    5    0    0 -0.67612852698E+02  0.83058150982E+01 -0.18436710571E+03  0.19654952069E+03  0.00000000000E+00 0.  1.
        -11    1    5    5    0    0 -0.26329554787E+03 -0.14843727645E+03 -0.93420019116E+03  0.98187991512E+03  0.00000000000E+00 0. -1.
          4    1    6    6  503    0  0.48707665585E+01  0.16128928719E+03  0.64965630114E+02  0.17394968130E+03  0.00000000000E+00 0.  1.
         -4    1    6    6    0  503 -0.71035880487E+01  0.96862922708E+02 -0.30492731118E+02  0.10179731534E+03  0.00000000000E+00 0. -1.
<mgrwt>
<rscale>  0 0.26096437E+04</rscale>
<asrwt>0</asrwt>
<pdfrwt beam="1">  1        2 0.20174513E+00 0.26096437E+04</pdfrwt>
<pdfrwt beam="2">  1       -1 0.19974350E+00 0.26096437E+04</pdfrwt>
<totfact> 0.24777571E+00</totfact>
</mgrwt>
</event>
<event>
12    6  0.1462228E-007  0.2132130E+04  0.7818608E-02  0.8547220E-01
         -1   -1    0    0    0  501 -0.00000000000E+00  0.00000000000E+00  0.11976167275E+04  0.11976167275E+04  0.00000000000E+00 0.  1.
          2   -1    0    0  501    0  0.00000000000E+00 -0.00000000000E+00 -0.94896388881E+03  0.94896388881E+03  0.00000000000E+00 0. -1.
         24    2    1    2    0    0 -0.12387975997E+03 -0.46880567058E+03 -0.62719679730E+03  0.79692876003E+03  0.81207600190E+02 0.  0.
        254    2    1    2    0    0  0.12387975997E+03  0.46880567058E+03  0.87584963603E+03  0.13496518563E+04  0.90516440310E+03 0.  0.
         23    2    4    4    0    0  0.38303092568E+03  0.57282865925E+03  0.43549346727E+03  0.82045364737E+03  0.92974537162E+02 0.  0.
         23    2    4    4    0    0 -0.25915116570E+03 -0.10402298868E+03  0.44035616876E+03  0.52919820895E+03  0.90316555122E+02 0.  0.
          4    1    3    3  502    0 -0.71637462642E+02 -0.16777299992E+03 -0.28284341601E+03  0.33657109730E+03  0.00000000000E+00 0. -1.
         -3    1    3    3    0  502 -0.52242297333E+02 -0.30103267066E+03 -0.34435338128E+03  0.46035766273E+03  0.00000000000E+00 0.  1.
         11    1    5    5    0    0  0.36248471958E+03  0.49114462359E+03  0.39423256777E+03  0.72666190949E+03  0.00000000000E+00 0.  1.
        -11    1    5    5    0    0  0.20546206100E+02  0.81684035667E+02  0.41260899496E+02  0.93791737883E+02  0.00000000000E+00 0. -1.
          1    1    6    6  503    0 -0.79786525052E+01 -0.22582417774E+02  0.72740036650E+02  0.76581573633E+02  0.00000000000E+00 0. -1.
         -1    1    6    6    0  503 -0.25117251320E+03 -0.81440570902E+02  0.36761613211E+03  0.45261663532E+03  0.00000000000E+00 0.  1.
<mgrwt>
<rscale>  0 0.21321304E+04</rscale>
<asrwt>0</asrwt>
<pdfrwt beam="1">  1        2 0.14599444E+00 0.21321304E+04</pdfrwt>
<pdfrwt beam="2">  1       -1 0.18424873E+00 0.21321304E+04</pdfrwt>
<totfact> 0.55320273E+00</totfact>
</mgrwt>
</event>
<event>
12    6  0.1462228E-007  0.1185203E+04  0.7818608E-02  0.9125908E-01
         -1   -1    0    0    0  501 -0.00000000000E+00  0.00000000000E+00  0.18840943162E+03  0.18840943162E+03  0.00000000000E+00 0.  1.
          2   -1    0    0  501    0  0.00000000000E+00 -0.00000000000E+00 -0.18638998369E+04  0.18638998369E+04  0.00000000000E+00 0. -1.
         24    2    1    2    0    0  0.54240765719E+02  0.19203569524E+03 -0.12547895262E+03  0.24889048041E+03  0.79885760776E+02 0.  0.
        254    2    1    2    0    0 -0.54240765719E+02 -0.19203569524E+03 -0.15500114526E+04  0.18034187881E+04  0.89998002925E+03 0.  0.
         23    2    4    4    0    0  0.28275686531E+03 -0.33670092652E+03 -0.12249983971E+04  0.13046531872E+04  0.90442839599E+02 0.  0.
         23    2    4    4    0    0 -0.33699763102E+03  0.14466523129E+03 -0.32501305555E+03  0.49876560089E+03  0.92941949036E+02 0.  0.
          4    1    3    3  502    0 -0.16932431730E+02  0.11197660756E+02 -0.81209873154E+01  0.21864246744E+02  0.00000000000E+00 0. -1.
         -3    1    3    3    0  502  0.71173197449E+02  0.18083803448E+03 -0.11735796531E+03  0.22702623366E+03  0.00000000000E+00 0.  1.
         11    1    5    5    0    0  0.23689910250E+03 -0.32300677112E+03 -0.11115286343E+04  0.11815034760E+04  0.00000000000E+00 0. -1.
        -11    1    5    5    0    0  0.45857762805E+02 -0.13694155404E+02 -0.11346976274E+03  0.12314971115E+03  0.00000000000E+00 0.  1.
          4    1    6    6  503    0 -0.30838848031E+03  0.15663576030E+03 -0.28523708746E+03  0.44832846469E+03  0.00000000000E+00 0. -1.
         -4    1    6    6    0  503 -0.28609150711E+02 -0.11970529017E+02 -0.39775968094E+02  0.50437136191E+02  0.00000000000E+00 0.  1.
<mgrwt>
<rscale>  0 0.11852026E+04</rscale>
<asrwt>0</asrwt>
<pdfrwt beam="1">  1        2 0.28675381E+00 0.11852026E+04</pdfrwt>
<pdfrwt beam="2">  1       -1 0.28986068E-01 0.11852026E+04</pdfrwt>
<totfact> 0.97031717E+01</totfact>
</mgrwt>
</event>
<event>
12    6  0.1462228E-007  0.1753735E+04  0.7818608E-02  0.8731297E-01
         -1   -1    0    0    0  501 -0.00000000000E+00  0.00000000000E+00  0.28449415541E+03  0.28449415541E+03  0.00000000000E+00 0.  1.
          2   -1    0    0  501    0  0.00000000000E+00 -0.00000000000E+00 -0.27026811776E+04  0.27026811776E+04  0.00000000000E+00 0. -1.
         24    2    1    2    0    0 -0.49659406298E+02 -0.56346427627E+03 -0.37253602839E+03  0.68226013971E+03  0.82083850514E+02 0.  0.
        254    2    1    2    0    0  0.49659406298E+02  0.56346427627E+03 -0.20456509938E+04  0.23049151933E+04  0.89888153424E+03 0.  0.
         23    2    4    4    0    0  0.13193365709E+03  0.17665310744E+02  0.22250866222E+02  0.16265249443E+03  0.90786451750E+02 0.  0.
         23    2    4    4    0    0 -0.82274250788E+02  0.54579896553E+03 -0.20679018600E+04  0.21422626988E+04  0.91683178271E+02 0.  0.
          4    1    3    3  502    0 -0.43261321241E+02 -0.24314440785E+03 -0.20358215307E+03  0.32005692936E+03  0.00000000000E+00 0. -1.
         -3    1    3    3    0  502 -0.63980850568E+01 -0.32031986842E+03 -0.16895387532E+03  0.36220321035E+03  0.00000000000E+00 0.  1.
         11    1    5    5    0    0  0.12900867116E+03  0.10782095848E+02 -0.97158734310E+01  0.12982252894E+03  0.00000000000E+00 0.  1.
        -11    1    5    5    0    0  0.29249859292E+01  0.68832148953E+01  0.31966739653E+02  0.32829965489E+02  0.00000000000E+00 0. -1.
          1    1    6    6  503    0 -0.88236418512E+01  0.27219664946E+03 -0.11400503674E+04  0.11721278568E+04  0.00000000000E+00 0. -1.
         -1    1    6    6    0  503 -0.73450608937E+02  0.27360231608E+03 -0.92785149261E+03  0.97013484200E+03  0.00000000000E+00 0.  1.
<mgrwt>
<rscale>  0 0.17537354E+04</rscale>
<asrwt>0</asrwt>
<pdfrwt beam="1">  1        2 0.41579712E+00 0.17537354E+04</pdfrwt>
<pdfrwt beam="2">  1       -1 0.43768330E-01 0.17537354E+04</pdfrwt>
<totfact> 0.14757102E+01</totfact>
</mgrwt>
</event>
<event>
12    6  0.1462228E-007  0.2125617E+04  0.7818608E-02  0.8550042E-01
          2   -1    0    0  501    0  0.00000000000E+00  0.00000000000E+00  0.40010311234E+04  0.40010311234E+04  0.00000000000E+00 0. -1.
         -1   -1    0    0    0  501 -0.00000000000E+00 -0.00000000000E+00 -0.28231756869E+03  0.28231756869E+03  0.00000000000E+00 0.  1.
         24    2    1    2    0    0 -0.30904676084E+03  0.78490261587E+03  0.19929944543E+04  0.21656255859E+04  0.79531543428E+02 0.  0.
        254    2    1    2    0    0  0.30904676084E+03 -0.78490261587E+03  0.17257191003E+04  0.21177231062E+04  0.89166289839E+03 0.  0.
         23    2    4    4    0    0 -0.25922692325E+02  0.17577734899E+03  0.37029222528E+03  0.42059725227E+03  0.90642452074E+02 0.  0.
         23    2    4    4    0    0  0.33496945317E+03 -0.96067996486E+03  0.13554268751E+04  0.16971258539E+04  0.89126993206E+02 0.  0.
          4    1    3    3  502    0 -0.93133835233E+02  0.28829594532E+03  0.80149648245E+03  0.85684600409E+03  0.00000000000E+00 0. -1.
         -3    1    3    3    0  502 -0.21591292561E+03  0.49660667055E+03  0.11914979719E+04  0.13087795818E+04  0.00000000000E+00 0.  1.
         11    1    5    5    0    0 -0.41597988032E+02  0.65555510774E+02  0.22186154649E+03  0.23505417123E+03  0.00000000000E+00 0.  1.
        -11    1    5    5    0    0  0.15675295707E+02  0.11022183822E+03  0.14843067878E+03  0.18554308104E+03  0.00000000000E+00 0. -1.
          3    1    6    6  503    0  0.86373549278E+02 -0.34370931449E+03  0.51891010694E+03  0.62838219418E+03  0.00000000000E+00 0. -1.
         -3    1    6    6    0  503  0.24859590389E+03 -0.61697065037E+03  0.83651676812E+03  0.10687436597E+04  0.00000000000E+00 0.  1.
<mgrwt>
<rscale>  0 0.21256165E+04</rscale>
<asrwt>0</asrwt>
<pdfrwt beam="1">  1        2 0.61554321E+00 0.21256165E+04</pdfrwt>
<pdfrwt beam="2">  1       -1 0.43433475E-01 0.21256165E+04</pdfrwt>
<totfact> 0.18853798E+00</totfact>
</mgrwt>
</event>
<event>
12    6  0.1462228E-007  0.2661660E+04  0.7818608E-02  0.8347553E-01
         -1   -1    0    0    0  501 -0.00000000000E+00  0.00000000000E+00  0.17853376069E+04  0.17853376069E+04  0.00000000000E+00 0.  1.
          2   -1    0    0  501    0  0.00000000000E+00 -0.00000000000E+00 -0.99203016897E+03  0.99203016897E+03  0.00000000000E+00 0. -1.
         24    2    1    2    0    0 -0.23262249432E+03 -0.10254920899E+04 -0.19915473542E+03  0.10731071631E+04  0.78416348718E+02 0.  0.
        254    2    1    2    0    0  0.23262249432E+03  0.10254920899E+04  0.99246217335E+03  0.17042606127E+04  0.90209523851E+03 0.  0.
         23    2    4    4    0    0  0.47269744674E+03  0.39514009174E+03  0.76529902506E+03  0.98662878436E+03  0.90416768937E+02 0.  0.
         23    2    4    4    0    0 -0.24007495243E+03  0.63035199811E+03  0.22716314829E+03  0.71763182837E+03  0.91720885518E+02 0.  0.
          2    1    3    3  502    0 -0.16171293362E+02 -0.57793945597E+02  0.65990898177E+01  0.60375482301E+02  0.00000000000E+00 0. -1.
         -1    1    3    3    0  502 -0.21645120096E+03 -0.96769814425E+03 -0.20575382523E+03  0.10127316808E+04  0.00000000000E+00 0.  1.
         11    1    5    5    0    0 -0.23614092513E+01  0.60920808853E+01  0.19566959337E+02  0.20628999027E+02  0.00000000000E+00 0. -1.
        -11    1    5    5    0    0  0.47505885600E+03  0.38904801085E+03  0.74573206572E+03  0.96599978533E+03  0.00000000000E+00 0.  1.
          1    1    6    6  503    0 -0.20596389703E+03  0.47144042997E+03  0.13987252722E+03  0.53314306688E+03  0.00000000000E+00 0.  1.
         -1    1    6    6    0  503 -0.34111055395E+02  0.15891156814E+03  0.87290621063E+02  0.18448876149E+03  0.00000000000E+00 0. -1.
<mgrwt>
<rscale>  0 0.26616602E+04</rscale>
<asrwt>0</asrwt>
<pdfrwt beam="1">  1        2 0.15262003E+00 0.26616602E+04</pdfrwt>
<pdfrwt beam="2">  1       -1 0.27466732E+00 0.26616602E+04</pdfrwt>
<totfact> 0.12322244E+00</totfact>
</mgrwt>
</event>
<event>
12    6  0.1462228E-007  0.1795003E+04  0.7818608E-02  0.8708961E-01
         -1   -1    0    0    0  501 -0.00000000000E+00  0.00000000000E+00  0.47477869255E+03  0.47477869255E+03  0.00000000000E+00 0.  1.
          2   -1    0    0  501    0  0.00000000000E+00 -0.00000000000E+00 -0.16965983675E+04  0.16965983675E+04  0.00000000000E+00 0. -1.
         24    2    1    2    0    0  0.66197481292E+02  0.64268462516E+03 -0.65881542497E+03  0.92619458734E+03  0.79831168718E+02 0.  0.
        254    2    1    2    0    0 -0.66197481292E+02 -0.64268462516E+03 -0.56300425001E+03  0.12451824727E+04  0.90337144681E+03 0.  0.
         23    2    4    4    0    0  0.26093339616E+03 -0.62009130225E+03 -0.12466292223E+03  0.69057839289E+03  0.93585320352E+02 0.  0.
         23    2    4    4    0    0 -0.32713087745E+03 -0.22593322911E+02 -0.43834132778E+03  0.55460407984E+03  0.88980315340E+02 0.  0.
          4    1    3    3  502    0  0.49947124020E+02  0.33725255038E+03 -0.39949942879E+03  0.52519881144E+03  0.00000000000E+00 0. -1.
         -3    1    3    3    0  502  0.16250357272E+02  0.30543207478E+03 -0.25931599617E+03  0.40099577590E+03  0.00000000000E+00 0.  1.
         11    1    5    5    0    0  0.19977755129E+03 -0.51607983702E+03 -0.13453607177E+03  0.56951683275E+03  0.00000000000E+00 0.  1.
        -11    1    5    5    0    0  0.61155844868E+02 -0.10401146523E+03  0.98731495401E+01  0.12106156014E+03  0.00000000000E+00 0. -1.
          2    1    6    6  503    0 -0.19432925113E+03  0.30572236849E+02 -0.25327974982E+03  0.32070103084E+03  0.00000000000E+00 0. -1.
         -2    1    6    6    0  503 -0.13280162632E+03 -0.53165559760E+02 -0.18506157796E+03  0.23390304900E+03  0.00000000000E+00 0.  1.
<mgrwt>
<rscale>  0 0.17950028E+04</rscale>
<asrwt>0</asrwt>
<pdfrwt beam="1">  1        2 0.26101513E+00 0.17950028E+04</pdfrwt>
<pdfrwt beam="2">  1       -1 0.73042876E-01 0.17950028E+04</pdfrwt>
<totfact> 0.20020063E+01</totfact>
</mgrwt>
</event>
<event>
12    6  0.1860442E-007  0.2697504E+04  0.7818608E-02  0.8335815E-01
          2   -1    0    0  501    0  0.00000000000E+00  0.00000000000E+00  0.32104269013E+04  0.32104269013E+04  0.00000000000E+00 0. -1.
         -1   -1    0    0    0  501 -0.00000000000E+00 -0.00000000000E+00 -0.56663232811E+03  0.56663232811E+03  0.00000000000E+00 0.  1.
         24    2    1    2    0    0 -0.16257574891E+03  0.35877038805E+03  0.27404399054E+04  0.27697507984E+04  0.79759289837E+02 0.  0.
        254    2    1    2    0    0  0.16257574891E+03 -0.35877038805E+03 -0.96645332177E+02  0.10073084311E+04  0.92205362624E+03 0.  0.
         23    2    4    4    0    0  0.53838200773E+02 -0.92106941306E+02  0.40047425628E+03  0.42462821566E+03  0.92451344440E+02 0.  0.
         23    2    4    4    0    0  0.10873754814E+03 -0.26666344674E+03 -0.49711958846E+03  0.58268021545E+03  0.97237338744E+02 0.  0.
          2    1    3    3  502    0 -0.16463842113E+03  0.35729604780E+03  0.27383510185E+04  0.27664657193E+04  0.00000000000E+00 0. -1.
         -1    1    3    3    0  502  0.20626722246E+01  0.14743402519E+01  0.20888869028E+01  0.32850790519E+01  0.00000000000E+00 0.  1.
         11    1    5    5    0    0  0.43055562299E+02 -0.54683435533E+02  0.36617880327E+03  0.37273445713E+03  0.00000000000E+00 0. -1.
        -11    1    5    5    0    0  0.10782638474E+02 -0.37423505773E+02  0.34295453005E+02  0.51893758523E+02  0.00000000000E+00 0.  1.
          4    1    6    6  503    0  0.69470048605E+02 -0.24508137639E+03 -0.45349881362E+03  0.52014627045E+03  0.00000000000E+00 0. -1.
         -4    1    6    6    0  503  0.39267499531E+02 -0.21582070352E+02 -0.43620774838E+02  0.62533945002E+02  0.00000000000E+00 0.  1.
<mgrwt>
<rscale>  0 0.26975038E+04</rscale>
<asrwt>0</asrwt>
<pdfrwt beam="1">  1        2 0.49391182E+00 0.26975038E+04</pdfrwt>
<pdfrwt beam="2">  1       -1 0.87174207E-01 0.26975038E+04</pdfrwt>
<totfact> 0.16496678E+00</totfact>
</mgrwt>
</event>
<event>
12    6  0.1462228E-007  0.1763041E+04  0.7818608E-02  0.8726205E-01
         -1   -1    0    0    0  501 -0.00000000000E+00  0.00000000000E+00  0.47501226550E+03  0.47501226550E+03  0.00000000000E+00 0.  1.
          2   -1    0    0  501    0  0.00000000000E+00 -0.00000000000E+00 -0.16359121139E+04  0.16359121139E+04  0.00000000000E+00 0. -1.
         24    2    1    2    0    0 -0.36533388744E+03 -0.53401599076E+03 -0.36350872344E+03  0.74588554377E+03  0.74597082356E+02 0.  0.
        254    2    1    2    0    0  0.36533388744E+03  0.53401599076E+03 -0.79739112500E+03  0.13650388357E+04  0.89936449171E+03 0.  0.
         23    2    4    4    0    0 -0.28768780201E+03  0.10405542820E+03 -0.20329288593E+03  0.37881449927E+03  0.92631656696E+02 0.  0.
         23    2    4    4    0    0  0.65302168945E+03  0.42996056255E+03 -0.59409823908E+03  0.98622433640E+03  0.91554965928E+02 0.  0.
          2    1    3    3  502    0 -0.51602864514E+02 -0.68863274185E+02 -0.78960667887E+02  0.11678952535E+03  0.00000000000E+00 0. -1.
         -1    1    3    3    0  502 -0.31373102292E+03 -0.46515271657E+03 -0.28454805555E+03  0.62909601842E+03  0.00000000000E+00 0.  1.
         11    1    5    5    0    0 -0.26404382203E+02  0.27100966520E+02 -0.60283113119E+02  0.71173783890E+02  0.00000000000E+00 0. -1.
        -11    1    5    5    0    0 -0.26128341981E+03  0.76954461684E+02 -0.14300977281E+03  0.30764071538E+03  0.00000000000E+00 0.  1.
          4    1    6    6  503    0  0.23757007003E+03  0.12241281987E+03 -0.24432147497E+03  0.36210139433E+03  0.00000000000E+00 0. -1.
         -4    1    6    6    0  503  0.41545161942E+03  0.30754774269E+03 -0.34977676410E+03  0.62412294207E+03  0.00000000000E+00 0.  1.
<mgrwt>
<rscale>  0 0.17630409E+04</rscale>
<asrwt>0</asrwt>
<pdfrwt beam="1">  1        2 0.25167879E+00 0.17630409E+04</pdfrwt>
<pdfrwt beam="2">  1       -1 0.73078810E-01 0.17630409E+04</pdfrwt>
<totfact> 0.21677549E+01</totfact>
</mgrwt>
</event>
<event>
12    6  0.1462228E-007  0.9891099E+03  0.7818608E-02  0.9320570E-01
          2   -1    0    0  501    0  0.00000000000E+00  0.00000000000E+00  0.26253355261E+03  0.26253355261E+03  0.00000000000E+00 0. -1.
         -1   -1    0    0    0  501 -0.00000000000E+00 -0.00000000000E+00 -0.93163173347E+03  0.93163173347E+03  0.00000000000E+00 0.  1.
         24    2    1    2    0    0 -0.23165544234E+02  0.34649991741E+02 -0.48491111263E+02  0.10238931241E+03  0.79968237801E+02 0.  0.
        254    2    1    2    0    0  0.23165544234E+02 -0.34649991741E+02 -0.62060706960E+03  0.10917759737E+04  0.89726494274E+03 0.  0.
         23    2    4    4    0    0 -0.39844228692E+03  0.12130541728E+03 -0.20695665484E+03  0.47415108284E+03  0.92287226121E+02 0.  0.
         23    2    4    4    0    0  0.42160783115E+03 -0.15595540902E+03 -0.41365041476E+03  0.61762489083E+03  0.90986742148E+02 0.  0.
          4    1    3    3  502    0 -0.40587138860E+01  0.38261915294E+02  0.10822443597E+02  0.39969646055E+02  0.00000000000E+00 0. -1.
         -3    1    3    3    0  502 -0.19106830348E+02 -0.36119235530E+01 -0.59313554860E+02  0.62419666355E+02  0.00000000000E+00 0.  1.
         11    1    5    5    0    0 -0.36942647170E+03  0.12893714613E+03 -0.20986277637E+03  0.44400798478E+03  0.00000000000E+00 0.  1.
        -11    1    5    5    0    0 -0.29015815225E+02 -0.76317288502E+01  0.29061215235E+01  0.30143098061E+02  0.00000000000E+00 0. -1.
          3    1    6    6  503    0 -0.16015952082E+01  0.94858917324E-01  0.31115060783E+01  0.35007964094E+01  0.00000000000E+00 0. -1.
         -3    1    6    6    0  503  0.42320942636E+03 -0.15605026794E+03 -0.41676192084E+03  0.61412409442E+03  0.00000000000E+00 0.  1.
<mgrwt>
<rscale>  0 0.98910988E+03</rscale>
<asrwt>0</asrwt>
<pdfrwt beam="1">  1        2 0.40389777E-01 0.98910988E+03</pdfrwt>
<pdfrwt beam="2">  1       -1 0.14332796E+00 0.98910988E+03</pdfrwt>
<totfact> 0.57533029E+01</totfact>
</mgrwt>
</event>
<event>
12    6  0.1462228E-007  0.2685765E+04  0.7818608E-02  0.8339638E-01
          2   -1    0    0  501    0  0.00000000000E+00  0.00000000000E+00  0.18698327758E+04  0.18698327758E+04  0.00000000000E+00 0. -1.
         -1   -1    0    0    0  501 -0.00000000000E+00 -0.00000000000E+00 -0.96443593135E+03  0.96443593135E+03  0.00000000000E+00 0.  1.
         24    2    1    2    0    0  0.81701479393E+03 -0.86168878284E+03  0.45789385340E+03  0.12752349444E+04  0.80849555332E+02 0.  0.
        254    2    1    2    0    0 -0.81701479393E+03  0.86168878284E+03  0.44750299107E+03  0.15590337627E+04  0.90570779742E+03 0.  0.
         23    2    4    4    0    0  0.18628373555E+03  0.19656362012E+03  0.70591362489E+02  0.29429806958E+03  0.91045738050E+02 0.  0.
         23    2    4    4    0    0 -0.10032985295E+04  0.66512516271E+03  0.37691162858E+03  0.12647356931E+04  0.92166026334E+02 0.  0.
          4    1    3    3  502    0  0.62874841911E+01  0.56565261376E+00  0.48081086974E+01  0.79353846522E+01  0.00000000000E+00 0. -1.
         -3    1    3    3    0  502  0.81072730973E+03 -0.86225443545E+03  0.45308574470E+03  0.12672995598E+04  0.00000000000E+00 0.  1.
         11    1    5    5    0    0  0.52129477960E+02  0.10519435640E+03  0.26178084564E+00  0.11740274111E+03  0.00000000000E+00 0. -1.
        -11    1    5    5    0    0  0.13415425759E+03  0.91369263725E+02  0.70329581643E+02  0.17689532848E+03  0.00000000000E+00 0.  1.
          4    1    6    6  503    0 -0.86475379657E+03  0.59209346252E+03  0.35537976186E+03  0.11066474471E+04  0.00000000000E+00 0.  1.
         -4    1    6    6    0  503 -0.13854473290E+03  0.73031700191E+02  0.21531866717E+02  0.15808824602E+03  0.00000000000E+00 0. -1.
<mgrwt>
<rscale>  0 0.26857654E+04</rscale>
<asrwt>0</asrwt>
<pdfrwt beam="1">  1        2 0.28766658E+00 0.26857654E+04</pdfrwt>
<pdfrwt beam="2">  1       -1 0.14837476E+00 0.26857654E+04</pdfrwt>
<totfact> 0.28341439E+00</totfact>
</mgrwt>
</event>
<event>
12    6  0.1462228E-007  0.1438018E+04  0.7818608E-02  0.8926750E-01
         -1   -1    0    0    0  501 -0.00000000000E+00  0.00000000000E+00  0.58280854929E+03  0.58280854929E+03  0.00000000000E+00 0.  1.
          2   -1    0    0  501    0  0.00000000000E+00 -0.00000000000E+00 -0.88703863897E+03  0.88703863897E+03  0.00000000000E+00 0. -1.
         24    2    1    2    0    0  0.35201579782E+03  0.16184752323E+03  0.91123057094E+02  0.40386878381E+03  0.68533497718E+02 0.  0.
        254    2    1    2    0    0 -0.35201579782E+03 -0.16184752323E+03 -0.39535314677E+03  0.10659784045E+04  0.91098633657E+03 0.  0.
         23    2    4    4    0    0 -0.23664719070E+03 -0.30253272138E+03  0.19536560448E+03  0.44068848360E+03  0.92253345666E+02 0.  0.
         23    2    4    4    0    0 -0.11536860711E+03  0.14068519815E+03 -0.59071875126E+03  0.62528992086E+03  0.94533600139E+02 0.  0.
          2    1    3    3  502    0  0.11195184531E+03  0.46095482515E+02 -0.33226188239E+01  0.12111584939E+03  0.00000000000E+00 0. -1.
         -1    1    3    3    0  502  0.24006395250E+03  0.11575204072E+03  0.94445675918E+02  0.28275293442E+03  0.00000000000E+00 0.  1.
         11    1    5    5    0    0 -0.41018723164E+02 -0.85963905552E+01  0.22181180619E+02  0.47417700853E+02  0.00000000000E+00 0. -1.
        -11    1    5    5    0    0 -0.19562846754E+03 -0.29393633083E+03  0.17318442386E+03  0.39327078275E+03  0.00000000000E+00 0.  1.
          3    1    6    6  503    0 -0.23704619956E+01  0.23176867900E+02 -0.20794450442E+03  0.20924555722E+03  0.00000000000E+00 0. -1.
         -3    1    6    6    0  503 -0.11299814512E+03  0.11750833025E+03 -0.38277424683E+03  0.41604436364E+03  0.00000000000E+00 0.  1.
<mgrwt>
<rscale>  0 0.14380177E+04</rscale>
<asrwt>0</asrwt>
<pdfrwt beam="1">  1        2 0.13646748E+00 0.14380177E+04</pdfrwt>
<pdfrwt beam="2">  1       -1 0.89662854E-01 0.14380177E+04</pdfrwt>
<totfact> 0.40389785E+01</totfact>
</mgrwt>
</event>
<event>
12    6  0.1462228E-007  0.2128493E+04  0.7818608E-02  0.8548795E-01
         -1   -1    0    0    0  501 -0.00000000000E+00  0.00000000000E+00  0.15663511445E+04  0.15663511445E+04  0.00000000000E+00 0.  1.
          2   -1    0    0  501    0  0.00000000000E+00 -0.00000000000E+00 -0.72309528747E+03  0.72309528747E+03  0.00000000000E+00 0. -1.
         24    2    1    2    0    0  0.53807794330E+03 -0.12401658437E+03  0.10778156930E+04  0.12137663591E+04  0.81450107691E+02 0.  0.
        254    2    1    2    0    0 -0.53807794330E+03  0.12401658437E+03 -0.23455983598E+03  0.10756800729E+04  0.89283890839E+03 0.  0.
         23    2    4    4    0    0  0.73142832101E+02 -0.24842473067E+03 -0.22397342295E+03  0.35413458244E+03  0.90457103608E+02 0.  0.
         23    2    4    4    0    0 -0.61122077540E+03  0.37244131504E+03 -0.10586413024E+02  0.72154549047E+03  0.90622586904E+02 0.  0.
          4    1    3    3  502    0  0.22271505704E+01 -0.30770379016E+01 -0.25618246438E+00  0.38070974989E+01  0.00000000000E+00 0. -1.
         -3    1    3    3    0  502  0.53585079273E+03 -0.12093954647E+03  0.10780718755E+04  0.12099592616E+04  0.00000000000E+00 0.  1.
         11    1    5    5    0    0 -0.74434059667E+01 -0.99143586559E+01 -0.41207791706E+02  0.43032323865E+02  0.00000000000E+00 0. -1.
        -11    1    5    5    0    0  0.80586238067E+02 -0.23851037201E+03 -0.18276563125E+03  0.31110225857E+03  0.00000000000E+00 0.  1.
          4    1    6    6  503    0 -0.14589687803E+03  0.63155297813E+02  0.28221282232E+02  0.16146495419E+03  0.00000000000E+00 0. -1.
         -4    1    6    6    0  503 -0.46532389736E+03  0.30928601723E+03 -0.38807695256E+02  0.56008053628E+03  0.00000000000E+00 0.  1.
<mgrwt>
<rscale>  0 0.21284935E+04</rscale>
<asrwt>0</asrwt>
<pdfrwt beam="1">  1        2 0.11124543E+00 0.21284935E+04</pdfrwt>
<pdfrwt beam="2">  1       -1 0.24097710E+00 0.21284935E+04</pdfrwt>
<totfact> 0.32949870E+00</totfact>
</mgrwt>
</event>
<event>
12    6  0.1462228E-007  0.2133205E+04  0.7818608E-02  0.8546756E-01
          2   -1    0    0  501    0  0.00000000000E+00  0.00000000000E+00  0.15637186930E+04  0.15637186930E+04  0.00000000000E+00 0. -1.
         -1   -1    0    0    0  501 -0.00000000000E+00 -0.00000000000E+00 -0.72752245576E+03  0.72752245576E+03  0.00000000000E+00 0.  1.
         24    2    1    2    0    0 -0.14614725299E+03 -0.30297689832E+03  0.12139625770E+04  0.12622427925E+04  0.79985676301E+02 0.  0.
        254    2    1    2    0    0  0.14614725299E+03  0.30297689832E+03 -0.37776633977E+03  0.10289983563E+04  0.89608938686E+03 0.  0.
         23    2    4    4    0    0  0.40510964561E+03 -0.11056683209E+03 -0.30662498307E+03  0.52774081918E+03  0.90291985548E+02 0.  0.
         23    2    4    4    0    0 -0.25896239263E+03  0.41354373040E+03 -0.71141356696E+02  0.50125753707E+03  0.90100433351E+02 0.  0.
          4    1    3    3  502    0 -0.81199489582E+02 -0.15919963165E+03  0.78777166657E+03  0.80778838718E+03  0.00000000000E+00 0. -1.
         -3    1    3    3    0  502 -0.64947763408E+02 -0.14377726667E+03  0.42619091044E+03  0.45445440533E+03  0.00000000000E+00 0.  1.
         11    1    5    5    0    0  0.28759056063E+03 -0.11051246921E+03 -0.25256089265E+03  0.39838215435E+03  0.00000000000E+00 0. -1.
        -11    1    5    5    0    0  0.11751908499E+03 -0.54362878830E-01 -0.54064090426E+02  0.12935866482E+03  0.00000000000E+00 0.  1.
          3    1    6    6  503    0 -0.21924296259E+03  0.33722834177E+03 -0.23507744095E+02  0.40291816188E+03  0.00000000000E+00 0. -1.
         -3    1    6    6    0  503 -0.39719430037E+02  0.76315388635E+02 -0.47633612601E+02  0.98339375198E+02  0.00000000000E+00 0.  1.
<mgrwt>
<rscale>  0 0.21332046E+04</rscale>
<asrwt>0</asrwt>
<pdfrwt beam="1">  1        2 0.24057211E+00 0.21332046E+04</pdfrwt>
<pdfrwt beam="2">  1       -1 0.11192653E+00 0.21332046E+04</pdfrwt>
<totfact> 0.89605308E+00</totfact>
</mgrwt>
</event>
<event>
12    6  0.1462228E-007  0.2597992E+04  0.7818608E-02  0.8368884E-01
          2   -1    0    0  501    0  0.00000000000E+00  0.00000000000E+00  0.59610151872E+03  0.59610151872E+03  0.00000000000E+00 0. -1.
         -1   -1    0    0    0  501 -0.00000000000E+00 -0.00000000000E+00 -0.28307096682E+04  0.28307096682E+04  0.00000000000E+00 0.  1.
         24    2    1    2    0    0  0.16020156548E+03  0.96703991840E+03 -0.21240340850E+03  0.10061265868E+04  0.79653972019E+02 0.  0.
        254    2    1    2    0    0 -0.16020156548E+03 -0.96703991840E+03 -0.20222047410E+04  0.24206846002E+04  0.89976173160E+03 0.  0.
         23    2    4    4    0    0 -0.27815879885E+03 -0.10363599700E+04 -0.19737091042E+04  0.22482310548E+04  0.87183386188E+02 0.  0.
         23    2    4    4    0    0  0.11795723337E+03  0.69320051552E+02 -0.48495636779E+02  0.17245354541E+03  0.93108646683E+02 0.  0.
          2    1    3    3  502    0  0.74542031094E+02  0.59470925655E+03 -0.16113496894E+03  0.62064490044E+03  0.00000000000E+00 0. -1.
         -1    1    3    3    0  502  0.85659534390E+02  0.37233066186E+03 -0.51268439561E+02  0.38548168632E+03  0.00000000000E+00 0.  1.
         11    1    5    5    0    0 -0.18200383576E+03 -0.70837558341E+03 -0.12595864952E+04  0.14565299524E+04  0.00000000000E+00 0.  1.
        -11    1    5    5    0    0 -0.96154963093E+02 -0.32798438655E+03 -0.71412260902E+03  0.79170110235E+03  0.00000000000E+00 0. -1.
          3    1    6    6  503    0  0.46827422778E+02 -0.13539568581E+02  0.81683648870E+01  0.49425192223E+02  0.00000000000E+00 0. -1.
         -3    1    6    6    0  503  0.71129810590E+02  0.82859620133E+02 -0.56664001666E+02  0.12302835319E+03  0.00000000000E+00 0.  1.
<mgrwt>
<rscale>  0 0.25979918E+04</rscale>
<asrwt>0</asrwt>
<pdfrwt beam="1">  1        2 0.91707926E-01 0.25979918E+04</pdfrwt>
<pdfrwt beam="2">  1       -1 0.43549379E+00 0.25979918E+04</pdfrwt>
<totfact> 0.20549234E-01</totfact>
</mgrwt>
</event>
<event>
12    6  0.1462228E-007  0.1385466E+04  0.7818608E-02  0.8964407E-01
         -1   -1    0    0    0  501 -0.00000000000E+00  0.00000000000E+00  0.49324019212E+03  0.49324019212E+03  0.00000000000E+00 0.  1.
          2   -1    0    0  501    0  0.00000000000E+00 -0.00000000000E+00 -0.97291129472E+03  0.97291129472E+03  0.00000000000E+00 0. -1.
         24    2    1    2    0    0  0.33753062538E+03  0.13709478813E+02 -0.37991874781E+03  0.51465138727E+03  0.80080725553E+02 0.  0.
        254    2    1    2    0    0 -0.33753062538E+03 -0.13709478813E+02 -0.99752354796E+02  0.95150009956E+03  0.88390442600E+03 0.  0.
         23    2    4    4    0    0 -0.10781322685E+03 -0.14160833342E+03  0.36132998613E+03  0.41302269118E+03  0.91388033032E+02 0.  0.
         23    2    4    4    0    0 -0.22971739853E+03  0.12789885460E+03 -0.46108234092E+03  0.53847740838E+03  0.90734745439E+02 0.  0.
          4    1    3    3  502    0  0.27542813426E+03 -0.20164681095E+02 -0.31038762953E+03  0.41546089115E+03  0.00000000000E+00 0. -1.
         -3    1    3    3    0  502  0.62102491121E+02  0.33874159908E+02 -0.69531118281E+02  0.99190496128E+02  0.00000000000E+00 0.  1.
         11    1    5    5    0    0 -0.29202560312E+02 -0.77449703133E+02  0.24527295185E+03  0.25886302740E+03  0.00000000000E+00 0. -1.
        -11    1    5    5    0    0 -0.78610666541E+02 -0.64158630283E+02  0.11605703428E+03  0.15415966379E+03  0.00000000000E+00 0.  1.
          3    1    6    6  503    0 -0.16179772187E+03  0.40851171548E+02 -0.25656613313E+03  0.30606127114E+03  0.00000000000E+00 0. -1.
         -3    1    6    6    0  503 -0.67919676660E+02  0.87047683055E+02 -0.20451620779E+03  0.23241613724E+03  0.00000000000E+00 0.  1.
<mgrwt>
<rscale>  0 0.13854659E+04</rscale>
<asrwt>0</asrwt>
<pdfrwt beam="1">  1        2 0.14967866E+00 0.13854659E+04</pdfrwt>
<pdfrwt beam="2">  1       -1 0.75883107E-01 0.13854659E+04</pdfrwt>
<totfact> 0.50875809E+01</totfact>
</mgrwt>
</event>
<event>
12    6  0.1462228E-007  0.3333314E+04  0.7818608E-02  0.8154470E-01
          2   -1    0    0  501    0  0.00000000000E+00  0.00000000000E+00  0.12316037022E+04  0.12316037022E+04  0.00000000000E+00 0. -1.
         -1   -1    0    0    0  501 -0.00000000000E+00 -0.00000000000E+00 -0.22553892093E+04  0.22553892093E+04  0.00000000000E+00 0.  1.
         24    2    1    2    0    0  0.11744669614E+04 -0.70649384773E+03  0.26603344305E+03  0.13985181089E+04  0.81073471413E+02 0.  0.
        254    2    1    2    0    0 -0.11744669614E+04  0.70649384773E+03 -0.12898189501E+04  0.20884748025E+04  0.90531092804E+03 0.  0.
         23    2    4    4    0    0 -0.66940932034E+03  0.25844444981E+03 -0.11991548638E+04  0.14003575250E+04  0.90146761617E+02 0.  0.
         23    2    4    4    0    0 -0.50505764106E+03  0.44804939792E+03 -0.90664086304E+02  0.68811727752E+03  0.97231308289E+02 0.  0.
          2    1    3    3  502    0  0.11219783767E+04 -0.67575377089E+03  0.27094012262E+03  0.13374928735E+04  0.00000000000E+00 0. -1.
         -1    1    3    3    0  502  0.52488584752E+02 -0.30740076835E+02 -0.49066795716E+01  0.61025235416E+02  0.00000000000E+00 0.  1.
         11    1    5    5    0    0 -0.78916808464E+02  0.57108253614E+02 -0.19924539518E+03  0.22178354941E+03  0.00000000000E+00 0. -1.
        -11    1    5    5    0    0 -0.59049251188E+03  0.20133619620E+03 -0.99990946865E+03  0.11785739756E+04  0.00000000000E+00 0.  1.
          2    1    6    6  503    0 -0.19211480875E+02  0.16242457142E+02  0.15430742961E+02  0.29512814840E+02  0.00000000000E+00 0. -1.
         -2    1    6    6    0  503 -0.48584616019E+03  0.43180694078E+03 -0.10609482926E+03  0.65860446268E+03  0.00000000000E+00 0.  1.
<mgrwt>
<rscale>  0 0.33333141E+04</rscale>
<asrwt>0</asrwt>
<pdfrwt beam="1">  1        2 0.18947749E+00 0.33333141E+04</pdfrwt>
<pdfrwt beam="2">  1       -1 0.34698295E+00 0.33333141E+04</pdfrwt>
<totfact> 0.27986169E-01</totfact>
</mgrwt>
</event>
<event>
12    6  0.1462228E-007  0.1201825E+04  0.7818608E-02  0.9111261E-01
          2   -1    0    0  501    0  0.00000000000E+00  0.00000000000E+00  0.33144903763E+03  0.33144903763E+03  0.00000000000E+00 0. -1.
         -1   -1    0    0    0  501 -0.00000000000E+00 -0.00000000000E+00 -0.10894451419E+04  0.10894451419E+04  0.00000000000E+00 0.  1.
         24    2    1    2    0    0 -0.46490347008E+02 -0.15304302931E+03 -0.40531880379E+03  0.44250161526E+03  0.77076751475E+02 0.  0.
        254    2    1    2    0    0  0.46490347008E+02  0.15304302931E+03 -0.35267730045E+03  0.97839256424E+03  0.89849163064E+03 0.  0.
         23    2    4    4    0    0 -0.18854850266E+03  0.38478445591E+03 -0.44654542114E+03  0.62555534964E+03  0.91143112489E+02 0.  0.
         23    2    4    4    0    0  0.23503884966E+03 -0.23174142660E+03  0.93868120691E+02  0.35283721461E+03  0.82070252067E+02 0.  0.
          2    1    3    3  502    0  0.32975818170E+01  0.80996837156E+01 -0.24192226269E+02  0.25724360711E+02  0.00000000000E+00 0. -1.
         -1    1    3    3    0  502 -0.49787928825E+02 -0.16114271302E+03 -0.38112657753E+03  0.41677725455E+03  0.00000000000E+00 0.  1.
         11    1    5    5    0    0 -0.38780147634E+02  0.16001841352E+03 -0.20735441576E+03  0.26477470849E+03  0.00000000000E+00 0. -1.
        -11    1    5    5    0    0 -0.14976835502E+03  0.22476604239E+03 -0.23919100537E+03  0.36078064115E+03  0.00000000000E+00 0.  1.
          3    1    6    6  503    0  0.79525342835E+02 -0.12876657130E+03  0.21912031131E+02  0.15292235659E+03  0.00000000000E+00 0. -1.
         -3    1    6    6    0  503  0.15551350683E+03 -0.10297485531E+03  0.71956089559E+02  0.19991485802E+03  0.00000000000E+00 0.  1.
<mgrwt>
<rscale>  0 0.12018245E+04</rscale>
<asrwt>0</asrwt>
<pdfrwt beam="1">  1        2 0.50992158E-01 0.12018245E+04</pdfrwt>
<pdfrwt beam="2">  1       -1 0.16760695E+00 0.12018245E+04</pdfrwt>
<totfact> 0.28445589E+01</totfact>
</mgrwt>
</event>
<event>
12    6  0.1462228E-007  0.2251783E+04  0.7818608E-02  0.8497179E-01
         -1   -1    0    0    0  501 -0.00000000000E+00  0.00000000000E+00  0.76448867228E+03  0.76448867228E+03  0.00000000000E+00 0.  1.
          2   -1    0    0  501    0  0.00000000000E+00 -0.00000000000E+00 -0.16581433059E+04  0.16581433059E+04  0.00000000000E+00 0. -1.
         24    2    1    2    0    0  0.30309085620E+03 -0.40906711055E+03 -0.12247719842E+04  0.13287430226E+04  0.79319850886E+02 0.  0.
        254    2    1    2    0    0 -0.30309085620E+03  0.40906711055E+03  0.33111735059E+03  0.10938889556E+04  0.90981007867E+03 0.  0.
         23    2    4    4    0    0 -0.51539943946E+03  0.19642068877E+03  0.48960126125E+03  0.74294897353E+03  0.89700128679E+02 0.  0.
         23    2    4    4    0    0  0.21230858326E+03  0.21264642178E+03 -0.15848391066E+03  0.35093998206E+03  0.88024348018E+02 0.  0.
          4    1    3    3  502    0  0.28797371566E+03 -0.40653214172E+03 -0.12033576618E+04  0.13024081179E+04  0.00000000000E+00 0. -1.
         -3    1    3    3    0  502  0.15117140538E+02 -0.25349688355E+01 -0.21414322405E+02  0.26334904768E+02  0.00000000000E+00 0.  1.
         11    1    5    5    0    0 -0.24527463012E+03  0.79827008670E+02  0.17206193950E+03  0.31006016597E+03  0.00000000000E+00 0. -1.
        -11    1    5    5    0    0 -0.27012480933E+03  0.11659368010E+03  0.31753932175E+03  0.43288880757E+03  0.00000000000E+00 0.  1.
          2    1    6    6  503    0  0.72809822589E+01 -0.66596285333E+01  0.26431708116E+01  0.10215170424E+02  0.00000000000E+00 0. -1.
         -2    1    6    6    0  503  0.20502760100E+03  0.21930605032E+03 -0.16112708147E+03  0.34072481163E+03  0.00000000000E+00 0.  1.
<mgrwt>
<rscale>  0 0.22517831E+04</rscale>
<asrwt>0</asrwt>
<pdfrwt beam="1">  1        2 0.25509896E+00 0.22517831E+04</pdfrwt>
<pdfrwt beam="2">  1       -1 0.11761364E+00 0.22517831E+04</pdfrwt>
<totfact> 0.69738655E+00</totfact>
</mgrwt>
</event>
<event>
12    6  0.1462228E-007  0.1392200E+04  0.7818608E-02  0.8959484E-01
         -1   -1    0    0    0  501 -0.00000000000E+00  0.00000000000E+00  0.14738149720E+04  0.14738149720E+04  0.00000000000E+00 0.  1.
          2   -1    0    0  501    0  0.00000000000E+00 -0.00000000000E+00 -0.32877616244E+03  0.32877616244E+03  0.00000000000E+00 0. -1.
         24    2    1    2    0    0  0.68758378626E+02 -0.25982030040E+03  0.75534156958E+03  0.80567427838E+03  0.79598071425E+02 0.  0.
        254    2    1    2    0    0 -0.68758378626E+02  0.25982030040E+03  0.38969723998E+03  0.99691685607E+03  0.87735111325E+03 0.  0.
         23    2    4    4    0    0  0.19855205810E+03  0.24453980620E+03 -0.17059890551E+03  0.36906815026E+03  0.88795700262E+02 0.  0.
         23    2    4    4    0    0 -0.26731043672E+03  0.15280494197E+02  0.56029614549E+03  0.62784870581E+03  0.92595159971E+02 0.  0.
          2    1    3    3  502    0  0.43382547941E+02 -0.16715212873E+03  0.36663258027E+03  0.40526698425E+03  0.00000000000E+00 0. -1.
         -1    1    3    3    0  502  0.25375830685E+02 -0.92668171664E+02  0.38870898931E+03  0.40040729413E+03  0.00000000000E+00 0.  1.
         11    1    5    5    0    0  0.16982359070E+02 -0.18342126958E+01 -0.24670107103E+02  0.30006316673E+02  0.00000000000E+00 0. -1.
        -11    1    5    5    0    0  0.18156969903E+03  0.24637401890E+03 -0.14592879840E+03  0.33906183359E+03  0.00000000000E+00 0.  1.
          4    1    6    6  503    0 -0.62386063417E+02  0.21430683373E+02  0.22842274661E+03  0.23775669553E+03  0.00000000000E+00 0. -1.
         -4    1    6    6    0  503 -0.20492437331E+03 -0.61501891761E+01  0.33187339888E+03  0.39009201028E+03  0.00000000000E+00 0.  1.
<mgrwt>
<rscale>  0 0.13922000E+04</rscale>
<asrwt>0</asrwt>
<pdfrwt beam="1">  1        2 0.50580949E-01 0.13922000E+04</pdfrwt>
<pdfrwt beam="2">  1       -1 0.22674076E+00 0.13922000E+04</pdfrwt>
<totfact> 0.10969143E+01</totfact>
</mgrwt>
</event>
<event>
12    6  0.1462228E-007  0.2035628E+04  0.7818608E-02  0.8590142E-01
          2   -1    0    0  501    0  0.00000000000E+00  0.00000000000E+00  0.27513525033E+04  0.27513525033E+04  0.00000000000E+00 0. -1.
         -1   -1    0    0    0  501 -0.00000000000E+00 -0.00000000000E+00 -0.37652218736E+03  0.37652218736E+03  0.00000000000E+00 0.  1.
         24    2    1    2    0    0 -0.53949525056E+03  0.11322049369E+03  0.86138702860E+01  0.55685375040E+03  0.78344719051E+02 0.  0.
        254    2    1    2    0    0  0.53949525056E+03 -0.11322049369E+03  0.23662164456E+04  0.25710209402E+04  0.84100796785E+03 0.  0.
         23    2    4    4    0    0  0.46847004635E+02  0.23060404182E+03  0.14489131355E+04  0.14706888001E+04  0.90572659209E+02 0.  0.
         23    2    4    4    0    0  0.49264824592E+03 -0.34382453552E+03  0.91730331015E+03  0.11003321401E+04  0.91475955260E+02 0.  0.
          4    1    3    3  502    0 -0.27302167699E+03  0.71133498571E+02  0.41153245164E+02  0.28512172894E+03  0.00000000000E+00 0. -1.
         -3    1    3    3    0  502 -0.26647357357E+03  0.42086995124E+02 -0.32539374878E+02  0.27173202146E+03  0.00000000000E+00 0.  1.
         11    1    5    5    0    0  0.46442582835E+02  0.22892418269E+03  0.14499690616E+04  0.14686638399E+04  0.00000000000E+00 0.  1.
        -11    1    5    5    0    0  0.40442179940E+00  0.16798591345E+01 -0.10559261614E+01  0.20249601877E+01  0.00000000000E+00 0. -1.
          2    1    6    6  503    0  0.33743713871E+03 -0.20328342903E+03  0.53423516747E+03  0.66377344724E+03  0.00000000000E+00 0. -1.
         -2    1    6    6    0  503  0.15521110721E+03 -0.14054110648E+03  0.38306814268E+03  0.43655869290E+03  0.00000000000E+00 0.  1.
<mgrwt>
<rscale>  0 0.20356279E+04</rscale>
<asrwt>0</asrwt>
<pdfrwt beam="1">  1        2 0.42328499E+00 0.20356279E+04</pdfrwt>
<pdfrwt beam="2">  1       -1 0.57926492E-01 0.20356279E+04</pdfrwt>
<totfact> 0.78850946E+00</totfact>
</mgrwt>
</event>
<event>
12    6  0.1462228E-007  0.2904535E+04  0.7818608E-02  0.8271529E-01
          2   -1    0    0  501    0  0.00000000000E+00  0.00000000000E+00  0.12832936834E+04  0.12832936834E+04  0.00000000000E+00 0. -1.
         -1   -1    0    0    0  501 -0.00000000000E+00 -0.00000000000E+00 -0.16434907596E+04  0.16434907596E+04  0.00000000000E+00 0.  1.
         24    2    1    2    0    0  0.11794422179E+04  0.85046971058E-01 -0.73837471458E+03  0.13937836767E+04  0.79697966056E+02 0.  0.
        254    2    1    2    0    0 -0.11794422179E+04 -0.85046971058E-01  0.37817763837E+03  0.15330007663E+04  0.90332113373E+03 0.  0.
         23    2    4    4    0    0 -0.40032052491E+03  0.16799671268E+03 -0.25437711384E+03  0.51135919257E+03  0.91110315818E+02 0.  0.
         23    2    4    4    0    0 -0.77912169297E+03 -0.16808175965E+03  0.63255475221E+03  0.10216415737E+04  0.91344951451E+02 0.  0.
          4    1    3    3  502    0  0.48037606352E+02 -0.15128958158E+02 -0.37539703140E+02  0.62815016603E+02  0.00000000000E+00 0. -1.
         -3    1    3    3    0  502  0.11314046115E+04  0.15214005129E+02 -0.70083501144E+03  0.13309686601E+04  0.00000000000E+00 0.  1.
         11    1    5    5    0    0 -0.32018985161E+03  0.17090208107E+03 -0.21725330036E+03  0.42299888759E+03  0.00000000000E+00 0. -1.
        -11    1    5    5    0    0 -0.80130673305E+02 -0.29053683858E+01 -0.37123813476E+02  0.88360304984E+02  0.00000000000E+00 0.  1.
          3    1    6    6  503    0 -0.52647705337E+03 -0.11442171461E+03  0.37165447123E+03  0.65452078842E+03  0.00000000000E+00 0. -1.
         -3    1    6    6    0  503 -0.25264463960E+03 -0.53660045046E+02  0.26090028098E+03  0.36712078526E+03  0.00000000000E+00 0.  1.
<mgrwt>
<rscale>  0 0.29045353E+04</rscale>
<asrwt>0</asrwt>
<pdfrwt beam="1">  1        2 0.19742980E+00 0.29045353E+04</pdfrwt>
<pdfrwt beam="2">  1       -1 0.25284473E+00 0.29045353E+04</pdfrwt>
<totfact> 0.11099570E+00</totfact>
</mgrwt>
</event>
<event>
12    6  0.1462228E-007  0.4317727E+04  0.7818608E-02  0.7943348E-01
          2   -1    0    0  501    0  0.00000000000E+00  0.00000000000E+00  0.23723104341E+04  0.23723104341E+04  0.00000000000E+00 0. -1.
         -1   -1    0    0    0  501 -0.00000000000E+00 -0.00000000000E+00 -0.19646210401E+04  0.19646210401E+04  0.00000000000E+00 0.  1.
         24    2    1    2    0    0  0.12187547814E+04  0.87606238257E+03 -0.12292033952E+04  0.19418196929E+04  0.82910903214E+02 0.  0.
        254    2    1    2    0    0 -0.12187547814E+04 -0.87606238257E+03  0.16368927892E+04  0.23951117812E+04  0.89682435626E+03 0.  0.
         23    2    4    4    0    0 -0.60747967768E+03 -0.79839373686E+03  0.56570391936E+03  0.11560518291E+04  0.99853839698E+02 0.  0.
         23    2    4    4    0    0 -0.61127510370E+03 -0.77668645713E+02  0.10711888698E+04  0.12390599521E+04  0.90190350013E+02 0.  0.
          2    1    3    3  502    0  0.59736266644E+02  0.44245722865E+02 -0.85905090576E+02  0.11360365369E+03  0.00000000000E+00 0. -1.
         -1    1    3    3    0  502  0.11590185147E+04  0.83181665971E+03 -0.11432983046E+04  0.18282160393E+04  0.00000000000E+00 0.  1.
         11    1    5    5    0    0 -0.39378465641E+03 -0.49222409344E+03  0.30214110581E+03  0.69902801203E+03  0.00000000000E+00 0. -1.
        -11    1    5    5    0    0 -0.21369502127E+03 -0.30616964342E+03  0.26356281355E+03  0.45702381705E+03  0.00000000000E+00 0.  1.
          3    1    6    6  503    0 -0.54593659620E+03 -0.97223079137E+02  0.95745489244E+03  0.11064442893E+04  0.00000000000E+00 0. -1.
         -3    1    6    6    0  503 -0.65338507501E+02  0.19554433424E+02  0.11373397738E+03  0.13261566287E+03  0.00000000000E+00 0.  1.
<mgrwt>
<rscale>  0 0.43177267E+04</rscale>
<asrwt>0</asrwt>
<pdfrwt beam="1">  1        2 0.36497084E+00 0.43177267E+04</pdfrwt>
<pdfrwt beam="2">  1       -1 0.30224939E+00 0.43177267E+04</pdfrwt>
<totfact> 0.11513977E-01</totfact>
</mgrwt>
</event>
<event>
12    6  0.1462228E-007  0.1876013E+04  0.7818608E-02  0.8666889E-01
          2   -1    0    0  501    0  0.00000000000E+00  0.00000000000E+00  0.51847839779E+03  0.51847839779E+03  0.00000000000E+00 0. -1.
         -1   -1    0    0    0  501 -0.00000000000E+00 -0.00000000000E+00 -0.16969967898E+04  0.16969967898E+04  0.00000000000E+00 0.  1.
         24    2    1    2    0    0 -0.18502666128E+03  0.61977380270E+03 -0.82477515375E+03  0.10511055256E+04  0.78831083716E+02 0.  0.
        254    2    1    2    0    0  0.18502666128E+03 -0.61977380270E+03 -0.35374323829E+03  0.11643696620E+04  0.90125911887E+03 0.  0.
         23    2    4    4    0    0  0.45669950217E+03 -0.57445554318E+03 -0.44918060257E+02  0.74082507730E+03  0.90722415371E+02 0.  0.
         23    2    4    4    0    0 -0.27167284089E+03 -0.45318259525E+02 -0.30882517803E+03  0.42354458474E+03  0.90316928395E+02 0.  0.
          2    1    3    3  502    0 -0.47569159832E+02  0.13464113605E+03 -0.13358621337E+03  0.19554113860E+03  0.00000000000E+00 0. -1.
         -1    1    3    3    0  502 -0.13745750145E+03  0.48513266665E+03 -0.69118894038E+03  0.85556438697E+03  0.00000000000E+00 0.  1.
         11    1    5    5    0    0  0.26225860981E+03 -0.26042872858E+03 -0.86696173478E+01  0.36969969348E+03  0.00000000000E+00 0. -1.
        -11    1    5    5    0    0  0.19444089236E+03 -0.31402681459E+03 -0.36248442910E+02  0.37112538382E+03  0.00000000000E+00 0.  1.
          1    1    6    6  503    0 -0.99482405157E+02 -0.51105097102E+02 -0.16381931489E+03  0.19835636571E+03  0.00000000000E+00 0. -1.
         -1    1    6    6    0  503 -0.17219043573E+03  0.57868375768E+01 -0.14500586314E+03  0.22518821903E+03  0.00000000000E+00 0.  1.
<mgrwt>
<rscale>  0 0.18760130E+04</rscale>
<asrwt>0</asrwt>
<pdfrwt beam="1">  1        2 0.79765908E-01 0.18760130E+04</pdfrwt>
<pdfrwt beam="2">  1       -1 0.26107643E+00 0.18760130E+04</pdfrwt>
<totfact> 0.37368258E+00</totfact>
</mgrwt>
</event>
<event>
12    6  0.1462228E-007  0.2415492E+04  0.7818608E-02  0.8433726E-01
         -1   -1    0    0    0  501 -0.00000000000E+00  0.00000000000E+00  0.67589246256E+03  0.67589246256E+03  0.00000000000E+00 0.  1.
          2   -1    0    0  501    0  0.00000000000E+00 -0.00000000000E+00 -0.21581107459E+04  0.21581107459E+04  0.00000000000E+00 0. -1.
         24    2    1    2    0    0 -0.90767619029E+03 -0.48053375764E+03 -0.52328980031E+03  0.11554579106E+04  0.80386624207E+02 0.  0.
        254    2    1    2    0    0  0.90767619029E+03  0.48053375764E+03 -0.95892848302E+03  0.16785452979E+04  0.91824927052E+03 0.  0.
         23    2    4    4    0    0  0.10531885592E+04  0.48282295293E+03 -0.66816120909E+03  0.13403919163E+04  0.88808461587E+02 0.  0.
         23    2    4    4    0    0 -0.14551236891E+03 -0.22891952906E+01 -0.29076727392E+03  0.33815338157E+03  0.92860174240E+02 0.  0.
          4    1    3    3  502    0 -0.26638119839E+03 -0.11674523792E+03 -0.18119729981E+03  0.34266726557E+03  0.00000000000E+00 0. -1.
         -3    1    3    3    0  502 -0.64129499189E+03 -0.36378851971E+03 -0.34209250050E+03  0.81279064500E+03  0.00000000000E+00 0.  1.
         11    1    5    5    0    0  0.15918382529E+03  0.55044708332E+02 -0.67195512702E+02  0.18134124483E+03  0.00000000000E+00 0.  1.
        -11    1    5    5    0    0  0.89400473391E+03  0.42777824460E+03 -0.60096569639E+03  0.11590506715E+04  0.00000000000E+00 0. -1.
          1    1    6    6  503    0 -0.11910331258E+03  0.64171599707E+01 -0.13594196423E+03  0.18085075795E+03  0.00000000000E+00 0. -1.
         -1    1    6    6    0  503 -0.26409056331E+02 -0.87063552613E+01 -0.15482530969E+03  0.15730262362E+03  0.00000000000E+00 0.  1.
<mgrwt>
<rscale>  0 0.24154923E+04</rscale>
<asrwt>0</asrwt>
<pdfrwt beam="1">  1        2 0.33201704E+00 0.24154923E+04</pdfrwt>
<pdfrwt beam="2">  1       -1 0.10398346E+00 0.24154923E+04</pdfrwt>
<totfact> 0.48505805E+00</totfact>
</mgrwt>
</event>
<event>
12    6  0.1462228E-007  0.1374555E+04  0.7818608E-02  0.8972446E-01
          2   -1    0    0  501    0  0.00000000000E+00  0.00000000000E+00  0.48765882388E+03  0.48765882388E+03  0.00000000000E+00 0. -1.
         -1   -1    0    0    0  501 -0.00000000000E+00 -0.00000000000E+00 -0.96860804431E+03  0.96860804431E+03  0.00000000000E+00 0.  1.
         24    2    1    2    0    0  0.86924358971E+02  0.16583970225E+03 -0.50375196072E+03  0.54295060496E+03  0.77270113690E+02 0.  0.
        254    2    1    2    0    0 -0.86924358971E+02 -0.16583970225E+03  0.22802740299E+02  0.91331626323E+03  0.89362630931E+03 0.  0.
         23    2    4    4    0    0 -0.26637625815E+03  0.14317206024E+03 -0.28915435822E+03  0.42867393196E+03  0.93255280404E+02 0.  0.
         23    2    4    4    0    0  0.17945189918E+03 -0.30901176250E+03  0.31195709852E+03  0.48464233127E+03  0.99346386247E+02 0.  0.
          2    1    3    3  502    0  0.19833935364E+02 -0.52135107011E+00 -0.26525279593E+02  0.33124722738E+02  0.00000000000E+00 0. -1.
         -1    1    3    3    0  502  0.67090423606E+02  0.16636105332E+03 -0.47722668113E+03  0.50982588222E+03  0.00000000000E+00 0.  1.
         11    1    5    5    0    0 -0.43449825643E+02  0.26781052459E+02 -0.83476804478E+01  0.51718428902E+02  0.00000000000E+00 0. -1.
        -11    1    5    5    0    0 -0.22292643250E+03  0.11639100778E+03 -0.28080667778E+03  0.37695550306E+03  0.00000000000E+00 0.  1.
          4    1    6    6  503    0  0.10695641648E+03 -0.89724394377E+02  0.10776466127E+03  0.17636145891E+03  0.00000000000E+00 0. -1.
         -4    1    6    6    0  503  0.72495482699E+02 -0.21928736812E+03  0.20419243725E+03  0.30828087235E+03  0.00000000000E+00 0.  1.
<mgrwt>
<rscale>  0 0.13745549E+04</rscale>
<asrwt>0</asrwt>
<pdfrwt beam="1">  1        2 0.75024434E-01 0.13745549E+04</pdfrwt>
<pdfrwt beam="2">  1       -1 0.14901662E+00 0.13745549E+04</pdfrwt>
<totfact> 0.25106853E+01</totfact>
</mgrwt>
</event>
<event>
12    6  0.1462228E-007  0.1828347E+04  0.7818608E-02  0.8691368E-01
          2   -1    0    0  501    0  0.00000000000E+00  0.00000000000E+00  0.12270940513E+04  0.12270940513E+04  0.00000000000E+00 0. -1.
         -1   -1    0    0    0  501 -0.00000000000E+00 -0.00000000000E+00 -0.68105058044E+03  0.68105058044E+03  0.00000000000E+00 0.  1.
         24    2    1    2    0    0 -0.14745388908E+03 -0.48842278181E+02  0.90853632185E+03  0.92500225810E+03  0.77863417851E+02 0.  0.
        254    2    1    2    0    0  0.14745388908E+03  0.48842278181E+02 -0.36249285100E+03  0.98314237362E+03  0.90057739381E+03 0.  0.
         23    2    4    4    0    0  0.38123209848E+03  0.34071425811E+03 -0.14166855670E+03  0.53850555315E+03  0.92163616602E+02 0.  0.
         23    2    4    4    0    0 -0.23377820940E+03 -0.29187197993E+03 -0.22082429429E+03  0.44463682047E+03  0.95378348240E+02 0.  0.
          2    1    3    3  502    0 -0.11541899328E+03 -0.66427325521E+01  0.50874433709E+03  0.52171493215E+03  0.00000000000E+00 0. -1.
         -1    1    3    3    0  502 -0.32034895796E+02 -0.42199545629E+02  0.39979198475E+03  0.40328732595E+03  0.00000000000E+00 0.  1.
         11    1    5    5    0    0  0.12679459540E+03  0.64051768746E+02 -0.20145639138E+02  0.14347593972E+03  0.00000000000E+00 0.  1.
        -11    1    5    5    0    0  0.25443750308E+03  0.27666248936E+03 -0.12152291757E+03  0.39502961343E+03  0.00000000000E+00 0. -1.
          4    1    6    6  503    0 -0.92843538418E+02 -0.14325611131E+03 -0.15197960659E+03  0.22856079469E+03  0.00000000000E+00 0.  1.
         -4    1    6    6    0  503 -0.14093467098E+03 -0.14861586862E+03 -0.68844687703E+02  0.21607602578E+03  0.00000000000E+00 0. -1.
<mgrwt>
<rscale>  0 0.18283469E+04</rscale>
<asrwt>0</asrwt>
<pdfrwt beam="1">  1        2 0.18878370E+00 0.18283469E+04</pdfrwt>
<pdfrwt beam="2">  1       -1 0.10477701E+00 0.18283469E+04</pdfrwt>
<totfact> 0.16770236E+01</totfact>
</mgrwt>
</event>
<event>
12    6  0.1462228E-007  0.1750684E+04  0.7818608E-02  0.8732974E-01
          2   -1    0    0  501    0  0.00000000000E+00  0.00000000000E+00  0.33451515629E+03  0.33451515629E+03  0.00000000000E+00 0. -1.
         -1   -1    0    0    0  501 -0.00000000000E+00 -0.00000000000E+00 -0.22905489487E+04  0.22905489487E+04  0.00000000000E+00 0.  1.
         24    2    1    2    0    0  0.36034053126E+03 -0.46697364022E+03 -0.10944906335E+04  0.12458221400E+04  0.79078306685E+02 0.  0.
        254    2    1    2    0    0 -0.36034053126E+03  0.46697364022E+03 -0.86154315895E+03  0.13792419650E+04  0.90118927215E+03 0.  0.
         23    2    4    4    0    0  0.14000945112E+03  0.53270258612E+03 -0.37816389091E+03  0.67458857809E+03  0.93204772627E+02 0.  0.
         23    2    4    4    0    0 -0.50034998238E+03 -0.65728945901E+02 -0.48337926804E+03  0.70465338693E+03  0.90611697639E+02 0.  0.
          2    1    3    3  502    0  0.36276872768E+03 -0.45608192951E+03 -0.10608348178E+04  0.12103645678E+04  0.00000000000E+00 0. -1.
         -1    1    3    3    0  502 -0.24281964237E+01 -0.10891710713E+02 -0.33655815687E+02  0.35457572247E+02  0.00000000000E+00 0.  1.
         11    1    5    5    0    0  0.57259806789E+02  0.36332518362E+03 -0.27850908252E+03  0.46135797769E+03  0.00000000000E+00 0.  1.
        -11    1    5    5    0    0  0.82749644333E+02  0.16937740250E+03 -0.99654808390E+02  0.21323060041E+03  0.00000000000E+00 0. -1.
          3    1    6    6  503    0 -0.11668764867E+03  0.21058228797E+02 -0.12887329956E+03  0.17512219645E+03  0.00000000000E+00 0. -1.
         -3    1    6    6    0  503 -0.38366233372E+03 -0.86787174698E+02 -0.35450596848E+03  0.52953119048E+03  0.00000000000E+00 0.  1.
<mgrwt>
<rscale>  0 0.17506837E+04</rscale>
<asrwt>0</asrwt>
<pdfrwt beam="1">  1        2 0.51463871E-01 0.17506837E+04</pdfrwt>
<pdfrwt beam="2">  1       -1 0.35239214E+00 0.17506837E+04</pdfrwt>
<totfact> 0.15835307E+00</totfact>
</mgrwt>
</event>
<event>
12    6  0.1462228E-007  0.2274395E+04  0.7818608E-02  0.8488086E-01
         -1   -1    0    0    0  501 -0.00000000000E+00  0.00000000000E+00  0.15151116791E+04  0.15151116791E+04  0.00000000000E+00 0.  1.
          2   -1    0    0  501    0  0.00000000000E+00 -0.00000000000E+00 -0.85354645284E+03  0.85354645284E+03  0.00000000000E+00 0. -1.
         24    2    1    2    0    0 -0.22759480241E+03 -0.36701225528E+02  0.12505886220E+04  0.12741960985E+04  0.80358085208E+02 0.  0.
        254    2    1    2    0    0  0.22759480241E+03  0.36701225528E+02 -0.58902339571E+03  0.10944620335E+04  0.89316975319E+03 0.  0.
         23    2    4    4    0    0  0.80351078534E+02 -0.37329821284E+03 -0.50774698463E+03  0.64115345662E+03  0.86388095285E+02 0.  0.
         23    2    4    4    0    0  0.14724372387E+03  0.40999943837E+03 -0.81276411072E+02  0.45330857686E+03  0.95407322469E+02 0.  0.
          2    1    3    3  502    0 -0.10059338944E+03  0.19747284685E+01  0.36111015593E+03  0.37486460791E+03  0.00000000000E+00 0. -1.
         -1    1    3    3    0  502 -0.12700141297E+03 -0.38675953997E+02  0.88947846608E+03  0.89933149058E+03  0.00000000000E+00 0.  1.
         11    1    5    5    0    0  0.33433050793E+02 -0.87013211163E+02 -0.18520656683E+03  0.20734160267E+03  0.00000000000E+00 0. -1.
        -11    1    5    5    0    0  0.46918027741E+02 -0.28628500167E+03 -0.32254041780E+03  0.43381185395E+03  0.00000000000E+00 0.  1.
          1    1    6    6  503    0  0.82028924935E+02  0.11378742746E+03 -0.47648017298E+02  0.14814404047E+03  0.00000000000E+00 0. -1.
         -1    1    6    6    0  503  0.65214798939E+02  0.29621201090E+03 -0.33628393774E+02  0.30516453639E+03  0.00000000000E+00 0.  1.
<mgrwt>
<rscale>  0 0.22743950E+04</rscale>
<asrwt>0</asrwt>
<pdfrwt beam="1">  1        2 0.13131484E+00 0.22743950E+04</pdfrwt>
<pdfrwt beam="2">  1       -1 0.23309410E+00 0.22743950E+04</pdfrwt>
<totfact> 0.29445712E+00</totfact>
</mgrwt>
</event>
<event>
12    6  0.1462228E-007  0.1561658E+04  0.7818608E-02  0.8844455E-01
          2   -1    0    0  501    0  0.00000000000E+00  0.00000000000E+00  0.16896148007E+04  0.16896148007E+04  0.00000000000E+00 0. -1.
         -1   -1    0    0    0  501 -0.00000000000E+00 -0.00000000000E+00 -0.36084809126E+03  0.36084809126E+03  0.00000000000E+00 0.  1.
         24    2    1    2    0    0 -0.47425927566E+03  0.18172289986E+03  0.27722567599E+03  0.58404237783E+03  0.79412535516E+02 0.  0.
        254    2    1    2    0    0  0.47425927566E+03 -0.18172289986E+03  0.10515410335E+04  0.14664205141E+04  0.88696420803E+03 0.  0.
         23    2    4    4    0    0  0.20903503111E+03 -0.41050902907E+03  0.14631424667E+03  0.49173124426E+03  0.90434786576E+02 0.  0.
         23    2    4    4    0    0  0.26522424455E+03  0.22878612921E+03  0.90522678678E+03  0.97468926987E+03  0.88863065841E+02 0.  0.
          4    1    3    3  502    0 -0.33186519015E+03  0.12362957364E+03  0.23336968046E+03  0.42412284031E+03  0.00000000000E+00 0. -1.
         -3    1    3    3    0  502 -0.14239408551E+03  0.58093326213E+02  0.43855995525E+02  0.15991953752E+03  0.00000000000E+00 0.  1.
         11    1    5    5    0    0  0.18476999295E+03 -0.27209866713E+03  0.10522442060E+03  0.34532566316E+03  0.00000000000E+00 0.  1.
        -11    1    5    5    0    0  0.24265038158E+02 -0.13841036194E+03  0.41089826076E+02  0.14640558110E+03  0.00000000000E+00 0. -1.
          3    1    6    6  503    0  0.17069234587E+03  0.93282559884E+02  0.44312729606E+03  0.48394143595E+03  0.00000000000E+00 0. -1.
         -3    1    6    6    0  503  0.94531898683E+02  0.13550356933E+03  0.46209949072E+03  0.49074783392E+03  0.00000000000E+00 0.  1.
<mgrwt>
<rscale>  0 0.15616584E+04</rscale>
<asrwt>0</asrwt>
<pdfrwt beam="1">  1        2 0.25994073E+00 0.15616584E+04</pdfrwt>
<pdfrwt beam="2">  1       -1 0.55515092E-01 0.15616584E+04</pdfrwt>
<totfact> 0.35725175E+01</totfact>
</mgrwt>
</event>
<event>
12    6  0.1462228E-007  0.1342054E+04  0.7818608E-02  0.8996865E-01
          2   -1    0    0  501    0  0.00000000000E+00  0.00000000000E+00  0.19902955502E+04  0.19902955502E+04  0.00000000000E+00 0. -1.
         -1   -1    0    0    0  501 -0.00000000000E+00 -0.00000000000E+00 -0.22623644560E+03  0.22623644560E+03  0.00000000000E+00 0.  1.
         24    2    1    2    0    0 -0.23709970445E+02 -0.31500315147E+03  0.50373225554E+03  0.60062725702E+03  0.84957450930E+02 0.  0.
        254    2    1    2    0    0  0.23709970445E+02  0.31500315147E+03  0.12603268491E+04  0.16159047388E+04  0.96069517030E+03 0.  0.
         23    2    4    4    0    0  0.38446384962E+03  0.52426141135E+02  0.16682501141E+03  0.43124102776E+03  0.87047617142E+02 0.  0.
         23    2    4    4    0    0 -0.36075387918E+03  0.26257701033E+03  0.10935018376E+04  0.11846637110E+04  0.92691917576E+02 0.  0.
          2    1    3    3  502    0  0.22235421723E+02 -0.31837180455E+02  0.43514897524E+02  0.58322948699E+02  0.00000000000E+00 0. -1.
         -1    1    3    3    0  502 -0.45945392168E+02 -0.28316597101E+03  0.46021735801E+03  0.54230430832E+03  0.00000000000E+00 0.  1.
         11    1    5    5    0    0  0.31208970145E+03  0.58788420090E+02  0.16651926936E+03  0.35858712631E+03  0.00000000000E+00 0. -1.
        -11    1    5    5    0    0  0.72374148172E+02 -0.63622789543E+01  0.30574204540E+00  0.72653901446E+02  0.00000000000E+00 0.  1.
          1    1    6    6  503    0 -0.35729075310E+03  0.23448425167E+03  0.10298003474E+04  0.11149566368E+04  0.00000000000E+00 0. -1.
         -1    1    6    6    0  503 -0.34631260788E+01  0.28092758663E+02  0.63701490276E+02  0.69707074210E+02  0.00000000000E+00 0.  1.
<mgrwt>
<rscale>  0 0.13420542E+04</rscale>
<asrwt>0</asrwt>
<pdfrwt beam="1">  1        2 0.30619930E+00 0.13420542E+04</pdfrwt>
<pdfrwt beam="2">  1       -1 0.34805608E-01 0.13420542E+04</pdfrwt>
<totfact> 0.59070888E+01</totfact>
</mgrwt>
</event>
<event>
12    6  0.1462228E-007  0.1303773E+04  0.7818608E-02  0.9026578E-01
          2   -1    0    0  501    0  0.00000000000E+00  0.00000000000E+00  0.14532681132E+04  0.14532681132E+04  0.00000000000E+00 0. -1.
         -1   -1    0    0    0  501 -0.00000000000E+00 -0.00000000000E+00 -0.29241421800E+03  0.29241421800E+03  0.00000000000E+00 0.  1.
         24    2    1    2    0    0  0.32681342044E+03  0.68752187101E+02  0.26638330359E+03  0.43171171482E+03  0.62298196378E+02 0.  0.
        254    2    1    2    0    0 -0.32681342044E+03 -0.68752187101E+02  0.89447059159E+03  0.13139706163E+04  0.90272214241E+03 0.  0.
         23    2    4    4    0    0 -0.35747535819E+03  0.17977268101E+03  0.95698795685E+03  0.10412016324E+04  0.90377216272E+02 0.  0.
         23    2    4    4    0    0  0.30661937752E+02 -0.24852486811E+03 -0.62517365259E+02  0.27276898394E+03  0.88259464903E+02 0.  0.
          2    1    3    3  502    0  0.30627915439E+03  0.52776223074E+02  0.25927356115E+03  0.40474069433E+03  0.00000000000E+00 0. -1.
         -1    1    3    3    0  502  0.20534266052E+02  0.15975964027E+02  0.71097424417E+01  0.26971020493E+02  0.00000000000E+00 0.  1.
         11    1    5    5    0    0 -0.23005744221E+01  0.52850578187E+01  0.15377839467E+00  0.57661188519E+01  0.00000000000E+00 0.  1.
        -11    1    5    5    0    0 -0.35517478377E+03  0.17448762319E+03  0.95683417845E+03  0.10354355136E+04  0.00000000000E+00 0. -1.
          4    1    6    6  503    0  0.52124969190E+02 -0.23365133101E+03 -0.56443637032E+02  0.24595902312E+03  0.00000000000E+00 0. -1.
         -4    1    6    6    0  503 -0.21463031439E+02 -0.14873537107E+02 -0.60737282272E+01  0.26809960821E+02  0.00000000000E+00 0.  1.
<mgrwt>
<rscale>  0 0.13037734E+04</rscale>
<asrwt>0</asrwt>
<pdfrwt beam="1">  1        2 0.22357971E+00 0.13037734E+04</pdfrwt>
<pdfrwt beam="2">  1       -1 0.44986804E-01 0.13037734E+04</pdfrwt>
<totfact> 0.73805016E+01</totfact>
</mgrwt>
</event>
<event>
12    6  0.1462228E-007  0.2671548E+04  0.7818608E-02  0.8344296E-01
          4   -1    0    0  501    0  0.00000000000E+00  0.00000000000E+00  0.91669678139E+03  0.91669678139E+03  0.00000000000E+00 0. -1.
         -3   -1    0    0    0  501 -0.00000000000E+00 -0.00000000000E+00 -0.19464371240E+04  0.19464371240E+04  0.00000000000E+00 0.  1.
         24    2    1    2    0    0 -0.58446023508E+03  0.82850894959E+03  0.19612865907E+03  0.10358002176E+04  0.79967455166E+02 0.  0.
        254    2    1    2    0    0  0.58446023508E+03 -0.82850894959E+03 -0.12258690017E+04  0.18273336879E+04  0.89909551854E+03 0.  0.
         23    2    4    4    0    0  0.72491849158E+03 -0.90685069915E+03 -0.10944180390E+04  0.15978825379E+04  0.87136393125E+02 0.  0.
         23    2    4    4    0    0 -0.14045825650E+03  0.78341749563E+02 -0.13145096273E+03  0.22945114991E+03  0.97480885571E+02 0.  0.
          2    1    3    3  502    0 -0.27760630039E+01  0.11039657190E+02 -0.51738411022E+01  0.12503966908E+02  0.00000000000E+00 0. -1.
         -1    1    3    3    0  502 -0.58168417207E+03  0.81746929240E+03  0.20130250017E+03  0.10232962507E+04  0.00000000000E+00 0.  1.
         11    1    5    5    0    0  0.45971582392E+03 -0.50906555357E+03 -0.62876128097E+03  0.93049832082E+03  0.00000000000E+00 0. -1.
        -11    1    5    5    0    0  0.26520266766E+03 -0.39778514558E+03 -0.46565675802E+03  0.66738421713E+03  0.00000000000E+00 0.  1.
          4    1    6    6  503    0 -0.15357231210E+03  0.65968795978E+02 -0.10481862686E+03  0.19728984166E+03  0.00000000000E+00 0. -1.
         -4    1    6    6    0  503  0.13114055600E+02  0.12372953584E+02 -0.26632335871E+02  0.32161308254E+02  0.00000000000E+00 0.  1.
<mgrwt>
<rscale>  0 0.26715484E+04</rscale>
<asrwt>0</asrwt>
<pdfrwt beam="1">  1        4 0.14103027E+00 0.26715484E+04</pdfrwt>
<pdfrwt beam="2">  1       -3 0.29945187E+00 0.26715484E+04</pdfrwt>
<totfact> 0.26901591E-02</totfact>
</mgrwt>
</event>
<event>
12    6  0.1462228E-007  0.1751087E+04  0.7818608E-02  0.8732752E-01
          2   -1    0    0  501    0  0.00000000000E+00  0.00000000000E+00  0.35203285471E+03  0.35203285471E+03  0.00000000000E+00 0. -1.
         -1   -1    0    0    0  501 -0.00000000000E+00 -0.00000000000E+00 -0.21775709113E+04  0.21775709113E+04  0.00000000000E+00 0.  1.
         24    2    1    2    0    0  0.15507969812E+03 -0.26999935268E+03 -0.14707186874E+04  0.15054000612E+04  0.79161376520E+02 0.  0.
        254    2    1    2    0    0 -0.15507969812E+03  0.26999935268E+03 -0.35481936921E+03  0.10242037049E+04  0.90892633423E+03 0.  0.
         23    2    4    4    0    0 -0.17800981016E+02 -0.92774708573E+02 -0.55926960144E+03  0.57483053823E+03  0.93400423492E+02 0.  0.
         23    2    4    4    0    0 -0.13727871711E+03  0.36277406125E+03  0.20445023223E+03  0.44937316662E+03  0.98416867096E+02 0.  0.
          2    1    3    3  502    0  0.43492520443E+02 -0.90015704446E+02 -0.31644681648E+03  0.33186294466E+03  0.00000000000E+00 0. -1.
         -1    1    3    3    0  502  0.11158717768E+03 -0.17998364823E+03 -0.11542718709E+04  0.11735371165E+04  0.00000000000E+00 0.  1.
         11    1    5    5    0    0 -0.56320604589E+02 -0.53656677185E+02 -0.31403039697E+03  0.32352146718E+03  0.00000000000E+00 0.  1.
        -11    1    5    5    0    0  0.38519623572E+02 -0.39118031388E+02 -0.24523920448E+03  0.25130907105E+03  0.00000000000E+00 0. -1.
          4    1    6    6  503    0 -0.49465418835E+02  0.71750921692E+02  0.81768107601E+01  0.87532180701E+02  0.00000000000E+00 0. -1.
         -4    1    6    6    0  503 -0.87813298272E+02  0.29102313956E+03  0.19627342147E+03  0.36184098592E+03  0.00000000000E+00 0.  1.
<mgrwt>
<rscale>  0 0.17510871E+04</rscale>
<asrwt>0</asrwt>
<pdfrwt beam="1">  1        2 0.54158901E-01 0.17510871E+04</pdfrwt>
<pdfrwt beam="2">  1       -1 0.33501091E+00 0.17510871E+04</pdfrwt>
<totfact> 0.19470572E+00</totfact>
</mgrwt>
</event>
<event>
12    6  0.1462228E-007  0.2182528E+04  0.7818608E-02  0.8525736E-01
         -1   -1    0    0    0  501 -0.00000000000E+00  0.00000000000E+00  0.20006241341E+04  0.20006241341E+04  0.00000000000E+00 0.  1.
          2   -1    0    0  501    0  0.00000000000E+00 -0.00000000000E+00 -0.59524277764E+03  0.59524277764E+03  0.00000000000E+00 0. -1.
         24    2    1    2    0    0 -0.49319912000E+03 -0.75401024326E+03  0.52814022587E+03  0.10477115611E+04  0.83609797739E+02 0.  0.
        254    2    1    2    0    0  0.49319912000E+03  0.75401024326E+03  0.87724113060E+03  0.15481553506E+04  0.90302611782E+03 0.  0.
         23    2    4    4    0    0  0.70577651723E+03  0.31421974368E+03  0.55881591854E+03  0.95806075113E+03  0.93544815151E+02 0.  0.
         23    2    4    4    0    0 -0.21257739723E+03  0.43979049957E+03  0.31842521206E+03  0.59009459947E+03  0.90621119631E+02 0.  0.
          4    1    3    3  502    0 -0.21541879690E+03 -0.39943713588E+03  0.24585619514E+03  0.51614005102E+03  0.00000000000E+00 0. -1.
         -1    1    3    3    0  502 -0.27778032310E+03 -0.35457310738E+03  0.28228403073E+03  0.53157151013E+03  0.00000000000E+00 0.  1.
         11    1    5    5    0    0  0.20391503951E+03  0.12396056115E+03  0.13491565648E+03  0.27413463558E+03  0.00000000000E+00 0.  1.
        -11    1    5    5    0    0  0.50186147771E+03  0.19025918254E+03  0.42390026206E+03  0.68392611555E+03  0.00000000000E+00 0. -1.
          1    1    6    6  503    0 -0.16868663912E+03  0.39950158767E+03  0.25498616449E+03  0.50306524910E+03  0.00000000000E+00 0. -1.
         -1    1    6    6    0  503 -0.43890758107E+02  0.40288911896E+02  0.63439047568E+02  0.87029350367E+02  0.00000000000E+00 0.  1.
<mgrwt>
<rscale>  0 0.21825280E+04</rscale>
<asrwt>0</asrwt>
<pdfrwt beam="1">  1        2 0.91575813E-01 0.21825280E+04</pdfrwt>
<pdfrwt beam="2">  1       -1 0.30778833E+00 0.21825280E+04</pdfrwt>
<totfact> 0.15389288E+00</totfact>
</mgrwt>
</event>
<event>
12    6  0.1462228E-007  0.1350133E+04  0.7818608E-02  0.8990728E-01
         -3   -1    0    0    0  501 -0.00000000000E+00  0.00000000000E+00  0.33509210434E+03  0.33509210434E+03  0.00000000000E+00 0.  1.
          2   -1    0    0  501    0  0.00000000000E+00 -0.00000000000E+00 -0.13599683856E+04  0.13599683856E+04  0.00000000000E+00 0. -1.
         24    2    1    2    0    0  0.96443861599E+02  0.19772789291E+02  0.16139187145E+03  0.20493422118E+03  0.79109526626E+02 0.  0.
        254    2    1    2    0    0 -0.96443861599E+02 -0.19772789291E+02 -0.11862681527E+04  0.14901262687E+04  0.89641050030E+03 0.  0.
         23    2    4    4    0    0  0.29914790176E+03  0.12165713132E+03 -0.15429947103E+03  0.37205387518E+03  0.10161611361E+03 0.  0.
         23    2    4    4    0    0 -0.39559176336E+03 -0.14142992061E+03 -0.10319686816E+04  0.11180723935E+04  0.92904529672E+02 0.  0.
          4    1    3    3  502    0  0.87059744062E+02  0.96541214047E+01  0.68969439110E+02  0.11148715006E+03  0.00000000000E+00 0. -1.
         -3    1    3    3    0  502  0.93841175367E+01  0.10118667886E+02  0.92422432340E+02  0.93447071122E+02  0.00000000000E+00 0.  1.
         11    1    5    5    0    0  0.62154038530E+02  0.21457498479E+02  0.10371189556E+02  0.66566585607E+02  0.00000000000E+00 0. -1.
        -11    1    5    5    0    0  0.23699386323E+03  0.10019963284E+03 -0.16467066059E+03  0.30548728957E+03  0.00000000000E+00 0.  1.
          2    1    6    6  503    0 -0.23069023018E+03 -0.12324256970E+03 -0.69218132647E+03  0.73994709405E+03  0.00000000000E+00 0. -1.
         -2    1    6    6    0  503 -0.16490153318E+03 -0.18187350910E+02 -0.33978735516E+03  0.37812529948E+03  0.00000000000E+00 0.  1.
<mgrwt>
<rscale>  0 0.13501328E+04</rscale>
<asrwt>0</asrwt>
<pdfrwt beam="1">  1        2 0.20922590E+00 0.13501328E+04</pdfrwt>
<pdfrwt beam="2">  1       -3 0.51552632E-01 0.13501328E+04</pdfrwt>
<totfact> 0.35509694E+01</totfact>
</mgrwt>
</event>
<event>
12    6  0.1711336E-007  0.1846502E+04  0.7818608E-02  0.8681954E-01
          2   -1    0    0  501    0  0.00000000000E+00  0.00000000000E+00  0.15402855100E+04  0.15402855100E+04  0.00000000000E+00 0. -1.
         -1   -1    0    0    0  501 -0.00000000000E+00 -0.00000000000E+00 -0.55339876194E+03  0.55339876194E+03  0.00000000000E+00 0.  1.
         24    2    1    2    0    0  0.32301712827E+03 -0.21948888105E+01 -0.32846380046E+03  0.46727094074E+03  0.78158692064E+02 0.  0.
        254    2    1    2    0    0 -0.32301712827E+03  0.21948888105E+01  0.13153505485E+04  0.16264133312E+04  0.90040456227E+03 0.  0.
         23    2    4    4    0    0 -0.11239117473E+03 -0.37985411152E+03  0.26485533582E+03  0.48516750921E+03  0.91204390705E+02 0.  0.
         23    2    4    4    0    0 -0.21062595354E+03  0.38204900033E+03  0.10504952127E+04  0.11412458220E+04  0.92612652282E+02 0.  0.
          4    1    3    3  502    0  0.32343979131E+02  0.16005090067E+02 -0.14136251003E+02  0.38757315264E+02  0.00000000000E+00 0. -1.
         -3    1    3    3    0  502  0.29067314914E+03 -0.18199978878E+02 -0.31432754946E+03  0.42851362547E+03  0.00000000000E+00 0.  1.
         11    1    5    5    0    0 -0.37144510532E+02 -0.29182585915E+02  0.22620351472E+02  0.52373832054E+02  0.00000000000E+00 0. -1.
        -11    1    5    5    0    0 -0.75246664200E+02 -0.35067152560E+03  0.24223498435E+03  0.43279367715E+03  0.00000000000E+00 0.  1.
          2    1    6    6  503    0  0.63737415792E+01  0.28577689292E+02  0.99948008851E+02  0.10414851598E+03  0.00000000000E+00 0. -1.
         -2    1    6    6    0  503 -0.21699969512E+03  0.35347131104E+03  0.95054720388E+03  0.10370973060E+04  0.00000000000E+00 0.  1.
<mgrwt>
<rscale>  0 0.18465017E+04</rscale>
<asrwt>0</asrwt>
<pdfrwt beam="1">  1        2 0.23696700E+00 0.18465017E+04</pdfrwt>
<pdfrwt beam="2">  1       -1 0.85138272E-01 0.18465017E+04</pdfrwt>
<totfact> 0.17612235E+01</totfact>
</mgrwt>
</event>
<event>
12    6  0.1462228E-007  0.3249048E+04  0.7818608E-02  0.8175982E-01
         -1   -1    0    0    0  501 -0.00000000000E+00  0.00000000000E+00  0.10692053399E+04  0.10692053399E+04  0.00000000000E+00 0.  1.
          2   -1    0    0  501    0  0.00000000000E+00 -0.00000000000E+00 -0.24682619120E+04  0.24682619120E+04  0.00000000000E+00 0. -1.
         24    2    1    2    0    0  0.16194484573E+03  0.75263230744E+03 -0.20453847934E+04  0.21869974395E+04  0.81714894241E+02 0.  0.
        254    2    1    2    0    0 -0.16194484573E+03 -0.75263230744E+03  0.64632822131E+03  0.13504698124E+04  0.90185753932E+03 0.  0.
         23    2    4    4    0    0  0.32227684786E+03 -0.45631126090E+03  0.13876285818E+03  0.58267359651E+03  0.90393892285E+02 0.  0.
         23    2    4    4    0    0 -0.48422169358E+03 -0.29632104653E+03  0.50756536313E+03  0.76779621587E+03  0.98038870338E+02 0.  0.
          2    1    3    3  502    0  0.15364127744E+03  0.70083220688E+03 -0.19549090554E+04  0.20824122645E+04  0.00000000000E+00 0. -1.
         -1    1    3    3    0  502  0.83035682860E+01  0.51800100557E+02 -0.90475738009E+02  0.10458517501E+03  0.00000000000E+00 0.  1.
         11    1    5    5    0    0  0.60564834575E+02 -0.39906865320E+02  0.35990588527E+01  0.72619627591E+02  0.00000000000E+00 0.  1.
        -11    1    5    5    0    0  0.26171201328E+03 -0.41640439558E+03  0.13516379932E+03  0.51005396892E+03  0.00000000000E+00 0. -1.
          1    1    6    6  503    0 -0.31603813566E+03 -0.14421277733E+03  0.33756322890E+03  0.48438245410E+03  0.00000000000E+00 0. -1.
         -1    1    6    6    0  503 -0.16818355793E+03 -0.15210826921E+03  0.17000213424E+03  0.28341376177E+03  0.00000000000E+00 0.  1.
<mgrwt>
<rscale>  0 0.32490484E+04</rscale>
<asrwt>0</asrwt>
<pdfrwt beam="1">  1        2 0.37973260E+00 0.32490484E+04</pdfrwt>
<pdfrwt beam="2">  1       -1 0.16449313E+00 0.32490484E+04</pdfrwt>
<totfact> 0.93558365E-01</totfact>
</mgrwt>
</event>
<event>
12    6  0.1462228E-007  0.1706340E+04  0.7818608E-02  0.8757757E-01
         -1   -1    0    0    0  501 -0.00000000000E+00  0.00000000000E+00  0.88026206759E+03  0.88026206759E+03  0.00000000000E+00 0.  1.
          2   -1    0    0  501    0  0.00000000000E+00 -0.00000000000E+00 -0.82691159822E+03  0.82691159822E+03  0.00000000000E+00 0. -1.
         24    2    1    2    0    0  0.15422115992E+03 -0.35494633373E+03  0.48641763637E+03  0.62665876808E+03  0.79548907321E+02 0.  0.
        254    2    1    2    0    0 -0.15422115992E+03  0.35494633373E+03 -0.43306716699E+03  0.10805148977E+04  0.91114993667E+03 0.  0.
         23    2    4    4    0    0  0.46216859828E+02 -0.25849671833E+03 -0.31061424782E+03  0.41742068755E+03  0.93820402512E+02 0.  0.
         23    2    4    4    0    0 -0.20043801975E+03  0.61344305205E+03 -0.12245291918E+03  0.66309421018E+03  0.90616975704E+02 0.  0.
          2    1    3    3  502    0  0.18880986027E+02 -0.67424857273E+02  0.46830214965E+02  0.84235812130E+02  0.00000000000E+00 0. -1.
         -1    1    3    3    0  502  0.13534017389E+03 -0.28752147645E+03  0.43958742140E+03  0.54242295595E+03  0.00000000000E+00 0.  1.
         11    1    5    5    0    0  0.25196341533E+02 -0.65876695219E+02 -0.30552332326E+02  0.76863773067E+02  0.00000000000E+00 0. -1.
        -11    1    5    5    0    0  0.21020518295E+02 -0.19262002311E+03 -0.28006191549E+03  0.34055691448E+03  0.00000000000E+00 0.  1.
          3    1    6    6  503    0 -0.37357457891E+01 -0.28285235394E+01  0.94955784496E-01  0.46867215210E+01  0.00000000000E+00 0. -1.
         -3    1    6    6    0  503 -0.19670227396E+03  0.61627157559E+03 -0.12254787496E+03  0.65840748866E+03  0.00000000000E+00 0.  1.
<mgrwt>
<rscale>  0 0.17063398E+04</rscale>
<asrwt>0</asrwt>
<pdfrwt beam="1">  1        2 0.12721717E+00 0.17063398E+04</pdfrwt>
<pdfrwt beam="2">  1       -1 0.13542493E+00 0.17063398E+04</pdfrwt>
<totfact> 0.16347803E+01</totfact>
</mgrwt>
</event>
<event>
12    6  0.1462228E-007  0.1894484E+04  0.7818608E-02  0.8657607E-01
          2   -1    0    0  501    0  0.00000000000E+00  0.00000000000E+00  0.25601157913E+04  0.25601157913E+04  0.00000000000E+00 0. -1.
         -1   -1    0    0    0  501 -0.00000000000E+00 -0.00000000000E+00 -0.35047923657E+03  0.35047923657E+03  0.00000000000E+00 0.  1.
         24    2    1    2    0    0 -0.50174551417E+03  0.51779226120E+03  0.63739864114E+03  0.96585468204E+03  0.82102693869E+02 0.  0.
        254    2    1    2    0    0  0.50174551417E+03 -0.51779226120E+03  0.15722379136E+04  0.19447403458E+04  0.88894632517E+03 0.  0.
         23    2    4    4    0    0 -0.22891966363E+03 -0.27412095088E+03  0.49476356395E+03  0.61721011482E+03  0.92794576962E+02 0.  0.
         23    2    4    4    0    0  0.73066517780E+03 -0.24367131032E+03  0.10774743497E+04  0.13275302310E+04  0.90212142239E+02 0.  0.
          2    1    3    3  502    0 -0.22600267174E+03  0.26077584398E+03  0.35302995113E+03  0.49367134293E+03  0.00000000000E+00 0. -1.
         -1    1    3    3    0  502 -0.27574284243E+03  0.25701641723E+03  0.28436869000E+03  0.47218333910E+03  0.00000000000E+00 0.  1.
         11    1    5    5    0    0 -0.19136361136E+03 -0.17883423923E+03  0.30890024572E+03  0.40499515883E+03  0.00000000000E+00 0. -1.
        -11    1    5    5    0    0 -0.37556052268E+02 -0.95286711658E+02  0.18586331824E+03  0.21221495599E+03  0.00000000000E+00 0.  1.
          2    1    6    6  503    0  0.45149112978E+03 -0.19094717927E+03  0.71686955849E+03  0.86845093668E+03  0.00000000000E+00 0. -1.
         -2    1    6    6    0  503  0.27917404802E+03 -0.52724131054E+02  0.36060479117E+03  0.45907929434E+03  0.00000000000E+00 0.  1.
<mgrwt>
<rscale>  0 0.18944840E+04</rscale>
<asrwt>0</asrwt>
<pdfrwt beam="1">  1        2 0.39386396E+00 0.18944840E+04</pdfrwt>
<pdfrwt beam="2">  1       -1 0.53919884E-01 0.18944840E+04</pdfrwt>
<totfact> 0.11907100E+01</totfact>
</mgrwt>
</event>
<event>
12    6  0.1462228E-007  0.1218914E+04  0.7818608E-02  0.9096461E-01
          4   -1    0    0  501    0  0.00000000000E+00  0.00000000000E+00  0.15596668152E+04  0.15596668152E+04  0.00000000000E+00 0. -1.
         -1   -1    0    0    0  501 -0.00000000000E+00 -0.00000000000E+00 -0.23815191459E+03  0.23815191459E+03  0.00000000000E+00 0.  1.
         24    2    1    2    0    0  0.46766712422E+02  0.85909353465E+02  0.66593394583E+03  0.67785954558E+03  0.80361688103E+02 0.  0.
        254    2    1    2    0    0 -0.46766712422E+02 -0.85909353465E+02  0.65558095481E+03  0.11199591842E+04  0.90274838335E+03 0.  0.
         23    2    4    4    0    0  0.33744309155E+03  0.16775272897E+03  0.48568243790E+03  0.62131363908E+03  0.90190850511E+02 0.  0.
         23    2    4    4    0    0 -0.38420980398E+03 -0.25366208243E+03  0.16989851691E+03  0.49864554516E+03  0.88432166764E+02 0.  0.
          2    1    3    3  502    0  0.46511991119E+02  0.10052987861E+03  0.55315552845E+03  0.56413709368E+03  0.00000000000E+00 0. -1.
         -1    1    3    3    0  502  0.25472130372E+00 -0.14620525141E+02  0.11277841739E+03  0.11372245190E+03  0.00000000000E+00 0.  1.
         11    1    5    5    0    0  0.11862403382E+03  0.97889100795E+02  0.23933045497E+03  0.28448726532E+03  0.00000000000E+00 0. -1.
        -11    1    5    5    0    0  0.21881905774E+03  0.69863628172E+02  0.24635198293E+03  0.33682637377E+03  0.00000000000E+00 0.  1.
          1    1    6    6  503    0 -0.33508490832E+02 -0.41673287448E+02 -0.36918568534E+01  0.53601414642E+02  0.00000000000E+00 0. -1.
         -1    1    6    6    0  503 -0.35070131315E+03 -0.21198879498E+03  0.17359037377E+03  0.44504413051E+03  0.00000000000E+00 0.  1.
<mgrwt>
<rscale>  0 0.12189137E+04</rscale>
<asrwt>0</asrwt>
<pdfrwt beam="1">  1        4 0.23994873E+00 0.12189137E+04</pdfrwt>
<pdfrwt beam="2">  1       -1 0.36638757E-01 0.12189137E+04</pdfrwt>
<totfact> 0.20893549E+00</totfact>
</mgrwt>
</event>
<event>
12    6  0.1462228E-007  0.1682337E+04  0.7818608E-02  0.8771503E-01
         -1   -1    0    0    0  501 -0.00000000000E+00  0.00000000000E+00  0.48194100406E+03  0.48194100406E+03  0.00000000000E+00 0.  1.
          2   -1    0    0  501    0  0.00000000000E+00 -0.00000000000E+00 -0.14681562458E+04  0.14681562458E+04  0.00000000000E+00 0. -1.
         24    2    1    2    0    0  0.39785853051E+03 -0.31651739031E+03  0.68535992484E+01  0.51467673825E+03  0.79815439617E+02 0.  0.
        254    2    1    2    0    0 -0.39785853051E+03  0.31651739031E+03 -0.99306884102E+03  0.14354205116E+04  0.90320078254E+03 0.  0.
         23    2    4    4    0    0  0.20316241451E+03  0.59793463967E+02  0.15214609565E+02  0.23104154770E+03  0.91096034030E+02 0.  0.
         23    2    4    4    0    0 -0.60102094502E+03  0.25672392635E+03 -0.10082834506E+04  0.12043789639E+04  0.82218132800E+02 0.  0.
          4    1    3    3  502    0  0.21742636852E+03 -0.15462606826E+03 -0.33602785633E+02  0.26891001081E+03  0.00000000000E+00 0. -1.
         -3    1    3    3    0  502  0.18043216199E+03 -0.16189132205E+03  0.40456384882E+02  0.24576672744E+03  0.00000000000E+00 0.  1.
         11    1    5    5    0    0  0.32285387085E+01  0.85489619201E+00  0.22233772721E+02  0.22483215053E+02  0.00000000000E+00 0.  1.
        -11    1    5    5    0    0  0.19993387580E+03  0.58938567775E+02 -0.70191631568E+01  0.20855833265E+03  0.00000000000E+00 0. -1.
          4    1    6    6  503    0 -0.11741125809E+03  0.72569341562E+02 -0.16672893036E+03  0.21644918360E+03  0.00000000000E+00 0. -1.
         -4    1    6    6    0  503 -0.48360968694E+03  0.18415458478E+03 -0.84155452022E+03  0.98792978035E+03  0.00000000000E+00 0.  1.
<mgrwt>
<rscale>  0 0.16823373E+04</rscale>
<asrwt>0</asrwt>
<pdfrwt beam="1">  1        2 0.22587019E+00 0.16823373E+04</pdfrwt>
<pdfrwt beam="2">  1       -1 0.74144771E-01 0.16823373E+04</pdfrwt>
<totfact> 0.26312470E+01</totfact>
</mgrwt>
</event>
<event>
12    6  0.1462228E-007  0.1157796E+04  0.7818608E-02  0.9150621E-01
          2   -1    0    0  501    0  0.00000000000E+00  0.00000000000E+00  0.98763529828E+03  0.98763529828E+03  0.00000000000E+00 0. -1.
         -1   -1    0    0    0  501 -0.00000000000E+00 -0.00000000000E+00 -0.33931860176E+03  0.33931860176E+03  0.00000000000E+00 0.  1.
         24    2    1    2    0    0  0.10936772840E+03  0.14829987076E+03 -0.10612027385E+02  0.20248802156E+03  0.83274438270E+02 0.  0.
        254    2    1    2    0    0 -0.10936772840E+03 -0.14829987076E+03  0.65892872391E+03  0.11244658785E+04  0.89234651173E+03 0.  0.
         23    2    4    4    0    0 -0.24579247678E+03 -0.45196907729E+03  0.21903741516E+03  0.56531510250E+03  0.83149187699E+02 0.  0.
         23    2    4    4    0    0  0.13642474838E+03  0.30366920653E+03  0.43989130874E+03  0.55915077597E+03  0.91205963636E+02 0.  0.
          4    1    3    3  502    0  0.43344158059E+02  0.75846450913E+02  0.35330902861E+02  0.94232016061E+02  0.00000000000E+00 0. -1.
         -3    1    3    3    0  502  0.66023570338E+02  0.72453419845E+02 -0.45942930246E+02  0.10825600550E+03  0.00000000000E+00 0.  1.
         11    1    5    5    0    0 -0.20438990126E+03 -0.41450898635E+03  0.21385394386E+03  0.50924104391E+03  0.00000000000E+00 0. -1.
        -11    1    5    5    0    0 -0.41402575512E+02 -0.37460090939E+02  0.51834713059E+01  0.56074058592E+02  0.00000000000E+00 0.  1.
          3    1    6    6  503    0  0.57610007486E+02  0.22865434573E+03  0.31562598317E+03  0.39398157829E+03  0.00000000000E+00 0. -1.
         -3    1    6    6    0  503  0.78814740894E+02  0.75014860796E+02  0.12426532557E+03  0.16516919768E+03  0.00000000000E+00 0.  1.
<mgrwt>
<rscale>  0 0.11577962E+04</rscale>
<asrwt>0</asrwt>
<pdfrwt beam="1">  1        2 0.15194389E+00 0.11577962E+04</pdfrwt>
<pdfrwt beam="2">  1       -1 0.52202862E-01 0.11577962E+04</pdfrwt>
<totfact> 0.10698376E+02</totfact>
</mgrwt>
</event>
<event>
12    6  0.1462228E-007  0.1278953E+04  0.7818608E-02  0.9046424E-01
          2   -1    0    0  501    0  0.00000000000E+00  0.00000000000E+00  0.25733532593E+03  0.25733532593E+03  0.00000000000E+00 0. -1.
         -1   -1    0    0    0  501 -0.00000000000E+00 -0.00000000000E+00 -0.15890954409E+04  0.15890954409E+04  0.00000000000E+00 0.  1.
         24    2    1    2    0    0  0.10624149868E+03  0.17981722297E+03  0.27851040860E+01  0.22382526102E+03  0.80426991416E+02 0.  0.
        254    2    1    2    0    0 -0.10624149868E+03 -0.17981722297E+03 -0.13345452190E+04  0.16226055058E+04  0.89900845161E+03 0.  0.
         23    2    4    4    0    0  0.35619845443E+03  0.88974429032E+02 -0.58881309960E+03  0.70018908499E+03  0.93648814858E+02 0.  0.
         23    2    4    4    0    0 -0.46243995310E+03 -0.26879165200E+03 -0.74573211943E+03  0.92241642080E+03  0.92930065097E+02 0.  0.
          4    1    3    3  502    0  0.11190480901E+03  0.17990251551E+03  0.12871300116E+02  0.21225755990E+03  0.00000000000E+00 0. -1.
         -3    1    3    3    0  502 -0.56633103386E+01 -0.85292543150E-01 -0.10086196030E+02  0.11567701119E+02  0.00000000000E+00 0.  1.
         11    1    5    5    0    0  0.31729899265E+03  0.83272440329E+02 -0.56744068717E+03  0.65544022116E+03  0.00000000000E+00 0. -1.
        -11    1    5    5    0    0  0.38899461772E+02  0.57019887032E+01 -0.21372412433E+02  0.44748863835E+02  0.00000000000E+00 0.  1.
          1    1    6    6  503    0 -0.21141787808E+03 -0.88092001918E+02 -0.25919402356E+03  0.34588908890E+03  0.00000000000E+00 0. -1.
         -1    1    6    6    0  503 -0.25102207502E+03 -0.18069965008E+03 -0.48653809588E+03  0.57652733190E+03  0.00000000000E+00 0.  1.
<mgrwt>
<rscale>  0 0.12789533E+04</rscale>
<asrwt>0</asrwt>
<pdfrwt beam="1">  1        2 0.39590051E-01 0.12789533E+04</pdfrwt>
<pdfrwt beam="2">  1       -1 0.24447622E+00 0.12789533E+04</pdfrwt>
<totfact> 0.11124658E+01</totfact>
</mgrwt>
</event>
<event>
12    6  0.1702314E-007  0.1828032E+04  0.7818608E-02  0.8691533E-01
          2   -1    0    0  501    0  0.00000000000E+00  0.00000000000E+00  0.19948983761E+04  0.19948983761E+04  0.00000000000E+00 0. -1.
         -1   -1    0    0    0  501 -0.00000000000E+00 -0.00000000000E+00 -0.41878086286E+03  0.41878086286E+03  0.00000000000E+00 0.  1.
         24    2    1    2    0    0 -0.37257796534E+03 -0.39306808489E+03  0.10371667386E+04  0.11730649931E+04  0.83962936777E+02 0.  0.
        254    2    1    2    0    0  0.37257796534E+03  0.39306808489E+03  0.53895077462E+03  0.12406142458E+04  0.97741440030E+03 0.  0.
         23    2    4    4    0    0  0.29922258980E+03  0.33306133561E+03  0.81511261941E+03  0.93458653382E+03  0.92625025562E+02 0.  0.
         23    2    4    4    0    0  0.73355375547E+02  0.60006749284E+02 -0.27616184479E+03  0.30602771202E+03  0.91683013295E+02 0.  0.
          2    1    3    3  502    0 -0.31788643678E+03 -0.29691982876E+03  0.77942909029E+03  0.89259334424E+03  0.00000000000E+00 0. -1.
         -1    1    3    3    0  502 -0.54691528565E+02 -0.96148256132E+02  0.25773764832E+03  0.28047164886E+03  0.00000000000E+00 0.  1.
         11    1    5    5    0    0  0.20566741230E+03  0.16098345852E+03  0.47827005107E+03  0.54493761125E+03  0.00000000000E+00 0. -1.
        -11    1    5    5    0    0  0.93555177494E+02  0.17207787709E+03  0.33684256833E+03  0.38964892257E+03  0.00000000000E+00 0.  1.
          3    1    6    6  503    0  0.35191850611E+01  0.61823874181E+02 -0.13503689361E+03  0.14855819977E+03  0.00000000000E+00 0. -1.
         -3    1    6    6    0  503  0.69836190486E+02 -0.18171248970E+01 -0.14112495118E+03  0.15746951225E+03  0.00000000000E+00 0.  1.
<mgrwt>
<rscale>  0 0.18280320E+04</rscale>
<asrwt>0</asrwt>
<pdfrwt beam="1">  1        2 0.30690744E+00 0.18280320E+04</pdfrwt>
<pdfrwt beam="2">  1       -1 0.64427826E-01 0.18280320E+04</pdfrwt>
<totfact> 0.17622748E+01</totfact>
</mgrwt>
</event>
<event>
12    6  0.1462228E-007  0.1406869E+04  0.7818608E-02  0.8948861E-01
          2   -1    0    0  501    0  0.00000000000E+00  0.00000000000E+00  0.74841303372E+03  0.74841303372E+03  0.00000000000E+00 0. -1.
         -1   -1    0    0    0  501 -0.00000000000E+00 -0.00000000000E+00 -0.66115901142E+03  0.66115901142E+03  0.00000000000E+00 0.  1.
         24    2    1    2    0    0  0.83966517763E+02 -0.17477416980E+02  0.43123845276E+03  0.44708386004E+03  0.81003324383E+02 0.  0.
        254    2    1    2    0    0 -0.83966517763E+02  0.17477416980E+02 -0.34398443046E+03  0.96248818511E+03  0.89481974825E+03 0.  0.
         23    2    4    4    0    0  0.35675255893E+03 -0.14757789466E+03 -0.26371522653E+03  0.47660913739E+03  0.92514462906E+02 0.  0.
         23    2    4    4    0    0 -0.44071907669E+03  0.16505531164E+03 -0.80269203933E+02  0.48587904772E+03  0.90325762945E+02 0.  0.
          2    1    3    3  502    0  0.99672932083E+02 -0.17102052386E+02  0.34893883794E+03  0.36329806800E+03  0.00000000000E+00 0. -1.
         -1    1    3    3    0  502 -0.15706414320E+02 -0.37536459340E+00  0.82299614814E+02  0.83785792041E+02  0.00000000000E+00 0.  1.
         11    1    5    5    0    0  0.60549028438E+02  0.14458789971E+01 -0.70101784415E+02  0.92641975308E+02  0.00000000000E+00 0. -1.
        -11    1    5    5    0    0  0.29620353049E+03 -0.14902377366E+03 -0.19361344211E+03  0.38396716208E+03  0.00000000000E+00 0.  1.
          1    1    6    6  503    0 -0.11461846072E+03  0.75740753268E+02  0.39417302911E+01  0.13743940658E+03  0.00000000000E+00 0. -1.
         -1    1    6    6    0  503 -0.32610061597E+03  0.89314558376E+02 -0.84210934224E+02  0.34843964114E+03  0.00000000000E+00 0.  1.
<mgrwt>
<rscale>  0 0.14068689E+04</rscale>
<asrwt>0</asrwt>
<pdfrwt beam="1">  1        2 0.11514047E+00 0.14068689E+04</pdfrwt>
<pdfrwt beam="2">  1       -1 0.10171677E+00 0.14068689E+04</pdfrwt>
<totfact> 0.38302991E+01</totfact>
</mgrwt>
</event>
<event>
12    6  0.1462228E-007  0.1694233E+04  0.7818608E-02  0.8764660E-01
          2   -1    0    0  501    0  0.00000000000E+00  0.00000000000E+00  0.11042484269E+04  0.11042484269E+04  0.00000000000E+00 0. -1.
         -1   -1    0    0    0  501 -0.00000000000E+00 -0.00000000000E+00 -0.64985952876E+03  0.64985952876E+03  0.00000000000E+00 0.  1.
         24    2    1    2    0    0  0.23131868106E+03 -0.25820929687E+03  0.68628832146E+03  0.77295283571E+03  0.79272018150E+02 0.  0.
        254    2    1    2    0    0 -0.23131868106E+03  0.25820929687E+03 -0.23189942330E+03  0.98115511997E+03  0.88809214258E+03 0.  0.
         23    2    4    4    0    0  0.13980080246E+03  0.24335712841E+03 -0.45219529911E+03  0.54011749588E+03  0.92083464875E+02 0.  0.
         23    2    4    4    0    0 -0.37111948352E+03  0.14852168462E+02  0.22029587581E+03  0.44103762409E+03  0.89630658856E+02 0.  0.
          2    1    3    3  502    0  0.14919819949E+03 -0.21765330078E+03  0.49955321665E+03  0.56496590901E+03  0.00000000000E+00 0. -1.
         -3    1    3    3    0  502  0.82120481567E+02 -0.40555996090E+02  0.18673510481E+03  0.20798692670E+03  0.00000000000E+00 0.  1.
         11    1    5    5    0    0  0.89965582201E+02  0.22436844929E+03 -0.37970659691E+03  0.45012454583E+03  0.00000000000E+00 0. -1.
        -11    1    5    5    0    0  0.49835220257E+02  0.18988679115E+02 -0.72488702203E+02  0.89992950055E+02  0.00000000000E+00 0.  1.
          2    1    6    6  503    0 -0.37374872294E+03  0.70278949126E+01  0.21598129067E+03  0.43172377410E+03  0.00000000000E+00 0. -1.
         -2    1    6    6    0  503  0.26292394259E+01  0.78242735499E+01  0.43145851449E+01  0.93138499835E+01  0.00000000000E+00 0.  1.
<mgrwt>
<rscale>  0 0.16942330E+04</rscale>
<asrwt>0</asrwt>
<pdfrwt beam="1">  1        2 0.16988437E+00 0.16942330E+04</pdfrwt>
<pdfrwt beam="2">  1       -1 0.99978389E-01 0.16942330E+04</pdfrwt>
<totfact> 0.22425524E+01</totfact>
</mgrwt>
</event>
<event>
12    6  0.1462228E-007  0.2194968E+04  0.7818608E-02  0.8520525E-01
         -1   -1    0    0    0  501 -0.00000000000E+00  0.00000000000E+00  0.35728024372E+03  0.35728024372E+03  0.00000000000E+00 0.  1.
          2   -1    0    0  501    0  0.00000000000E+00 -0.00000000000E+00 -0.33712221482E+04  0.33712221482E+04  0.00000000000E+00 0. -1.
         24    2    1    2    0    0  0.40542519409E+03  0.62859931748E+03 -0.21374570583E+04  0.22663584350E+04  0.90283939795E+02 0.  0.
        254    2    1    2    0    0 -0.40542519409E+03 -0.62859931748E+03 -0.87648484609E+03  0.14621439569E+04  0.90007364988E+03 0.  0.
         23    2    4    4    0    0 -0.97673801444E+02  0.40362504506E+02  0.14485857852E+03  0.19948307424E+03  0.87408156807E+02 0.  0.
         23    2    4    4    0    0 -0.30775139265E+03 -0.66896182199E+03 -0.10213434246E+04  0.12626608826E+04  0.94600605438E+02 0.  0.
          2    1    3    3  502    0  0.34416865706E+03  0.56233754271E+03 -0.19471599694E+04  0.20557498688E+04  0.00000000000E+00 0. -1.
         -1    1    3    3    0  502  0.61256537032E+02  0.66261774769E+02 -0.19029708894E+03  0.21060856626E+03  0.00000000000E+00 0.  1.
         11    1    5    5    0    0 -0.10137502794E+03  0.38051251530E+02  0.80373769819E+02  0.13485079498E+03  0.00000000000E+00 0. -1.
        -11    1    5    5    0    0  0.37012264943E+01  0.23112529753E+01  0.64484808703E+02  0.64632279253E+02  0.00000000000E+00 0.  1.
          3    1    6    6  503    0 -0.30868810596E+03 -0.61287193923E+03 -0.94921959957E+03  0.11712891227E+04  0.00000000000E+00 0. -1.
         -3    1    6    6    0  503  0.93671330998E+00 -0.56089882755E+02 -0.72123825043E+02  0.91371759960E+02  0.00000000000E+00 0.  1.
<mgrwt>
<rscale>  0 0.21949679E+04</rscale>
<asrwt>0</asrwt>
<pdfrwt beam="1">  1        2 0.51864956E+00 0.21949679E+04</pdfrwt>
<pdfrwt beam="2">  1       -1 0.54966191E-01 0.21949679E+04</pdfrwt>
<totfact> 0.34814236E+00</totfact>
</mgrwt>
</event>
<event>
12    6  0.1462228E-007  0.1508856E+04  0.7818608E-02  0.8878585E-01
          2   -1    0    0  501    0  0.00000000000E+00  0.00000000000E+00  0.48207431266E+03  0.48207431266E+03  0.00000000000E+00 0. -1.
         -1   -1    0    0    0  501 -0.00000000000E+00 -0.00000000000E+00 -0.11806507454E+04  0.11806507454E+04  0.00000000000E+00 0.  1.
         24    2    1    2    0    0 -0.22798902628E+03  0.27845659824E+03  0.12787350588E+03  0.39339715371E+03  0.94300656583E+02 0.  0.
        254    2    1    2    0    0  0.22798902628E+03 -0.27845659824E+03 -0.82644993866E+03  0.12693279044E+04  0.89367597852E+03 0.  0.
         23    2    4    4    0    0 -0.44315733884E+02 -0.43715678774E+03 -0.82739991951E+03  0.94087952951E+03  0.87141958425E+02 0.  0.
         23    2    4    4    0    0  0.27230476017E+03  0.15870018951E+03  0.94998084726E+00  0.32844837489E+03  0.92421858593E+02 0.  0.
          4    1    3    3  502    0 -0.20156836570E+03  0.25592947225E+03  0.14268090733E+03  0.35565087112E+03  0.00000000000E+00 0. -1.
         -3    1    3    3    0  502 -0.26420660589E+02  0.22527125987E+02 -0.14807401450E+02  0.37746282584E+02  0.00000000000E+00 0.  1.
         11    1    5    5    0    0 -0.38533731103E+02 -0.38097450850E+03 -0.77208689235E+03  0.86182631307E+03  0.00000000000E+00 0. -1.
        -11    1    5    5    0    0 -0.57820027816E+01 -0.56182279243E+02 -0.55313027162E+02  0.79053216449E+02  0.00000000000E+00 0.  1.
          4    1    6    6  503    0  0.21129968613E+03  0.16350490660E+03  0.35961135373E+01  0.26719720035E+03  0.00000000000E+00 0. -1.
         -4    1    6    6    0  503  0.61005074041E+02 -0.48047170940E+01 -0.26461326900E+01  0.61251174546E+02  0.00000000000E+00 0.  1.
<mgrwt>
<rscale>  0 0.15088557E+04</rscale>
<asrwt>0</asrwt>
<pdfrwt beam="1">  1        2 0.74165279E-01 0.15088557E+04</pdfrwt>
<pdfrwt beam="2">  1       -1 0.18163857E+00 0.15088557E+04</pdfrwt>
<totfact> 0.14364624E+01</totfact>
</mgrwt>
</event>
<event>
12    6  0.1462228E-007  0.1931921E+04  0.7818608E-02  0.8639128E-01
          2   -1    0    0  501    0  0.00000000000E+00  0.00000000000E+00  0.90732786374E+03  0.90732786374E+03  0.00000000000E+00 0. -1.
         -1   -1    0    0    0  501 -0.00000000000E+00 -0.00000000000E+00 -0.10283823981E+04  0.10283823981E+04  0.00000000000E+00 0.  1.
         24    2    1    2    0    0 -0.24021132768E+03  0.47918042792E+03  0.48544619059E+03  0.72730720838E+03  0.77475202142E+02 0.  0.
        254    2    1    2    0    0  0.24021132768E+03 -0.47918042792E+03 -0.60650072491E+03  0.12084030534E+04  0.89726219453E+03 0.  0.
         23    2    4    4    0    0 -0.51175824535E+02 -0.28964250175E+03 -0.75802809824E+03  0.81805187563E+03  0.89947371618E+02 0.  0.
         23    2    4    4    0    0  0.29138715222E+03 -0.18953792617E+03  0.15152737332E+03  0.39035117779E+03  0.92641239203E+02 0.  0.
          2    1    3    3  502    0 -0.12759810156E+03  0.18210722142E+03  0.22696785312E+03  0.31774002261E+03  0.00000000000E+00 0. -1.
         -1    1    3    3    0  502 -0.11261322612E+03  0.29707320650E+03  0.25847833748E+03  0.40956718577E+03  0.00000000000E+00 0.  1.
         11    1    5    5    0    0  0.21437985723E+01  0.32431602520E+01 -0.47764122283E+02  0.47922075688E+02  0.00000000000E+00 0. -1.
        -11    1    5    5    0    0 -0.53319623108E+02 -0.29288566200E+03 -0.71026397596E+03  0.77012979994E+03  0.00000000000E+00 0.  1.
          2    1    6    6  503    0  0.57000079700E+02 -0.11019355618E+02  0.55897072534E+02  0.80591054106E+02  0.00000000000E+00 0. -1.
         -2    1    6    6    0  503  0.23438707252E+03 -0.17851857055E+03  0.95630300791E+02  0.30976012368E+03  0.00000000000E+00 0.  1.
<mgrwt>
<rscale>  0 0.19319213E+04</rscale>
<asrwt>0</asrwt>
<pdfrwt beam="1">  1        2 0.13958890E+00 0.19319213E+04</pdfrwt>
<pdfrwt beam="2">  1       -1 0.15821268E+00 0.19319213E+04</pdfrwt>
<totfact> 0.93175181E+00</totfact>
</mgrwt>
</event>
<event>
12    6  0.1462228E-007  0.1974858E+04  0.7818608E-02  0.8618467E-01
          2   -1    0    0  501    0  0.00000000000E+00  0.00000000000E+00  0.86016029143E+03  0.86016029143E+03  0.00000000000E+00 0. -1.
         -1   -1    0    0    0  501 -0.00000000000E+00 -0.00000000000E+00 -0.11335277548E+04  0.11335277548E+04  0.00000000000E+00 0.  1.
         24    2    1    2    0    0 -0.23638454216E+03 -0.65132794573E+03 -0.46730035165E+03  0.83945571194E+03  0.78806909634E+02 0.  0.
        254    2    1    2    0    0  0.23638454216E+03  0.65132794573E+03  0.19393288831E+03  0.11542323343E+04  0.90251679852E+03 0.  0.
         23    2    4    4    0    0  0.44198389428E+02 -0.21766466464E+03 -0.27083089007E+01  0.23824071178E+03  0.86138829509E+02 0.  0.
         23    2    4    4    0    0  0.19218615273E+03  0.86899261037E+03  0.19664119721E+03  0.91599162248E+03  0.91045141689E+02 0.  0.
          4    1    3    3  502    0 -0.19650682960E+02 -0.14389687351E+03 -0.10834911267E+03  0.18119599820E+03  0.00000000000E+00 0. -1.
         -3    1    3    3    0  502 -0.21673385920E+03 -0.50743107222E+03 -0.35895123898E+03  0.65825971375E+03  0.00000000000E+00 0.  1.
         11    1    5    5    0    0 -0.89029723013E+01 -0.55338370628E+01 -0.16036618691E+02  0.19158794520E+02  0.00000000000E+00 0. -1.
        -11    1    5    5    0    0  0.53101361729E+02 -0.21213082758E+03  0.13328309790E+02  0.21908191726E+03  0.00000000000E+00 0.  1.
          1    1    6    6  503    0  0.88891545883E+02  0.43912207133E+03  0.14484541042E+03  0.47086101281E+03  0.00000000000E+00 0. -1.
         -1    1    6    6    0  503  0.10329460685E+03  0.42987053904E+03  0.51795786798E+02  0.44513060967E+03  0.00000000000E+00 0.  1.
<mgrwt>
<rscale>  0 0.19748575E+04</rscale>
<asrwt>0</asrwt>
<pdfrwt beam="1">  1        2 0.13233235E+00 0.19748575E+04</pdfrwt>
<pdfrwt beam="2">  1       -1 0.17438888E+00 0.19748575E+04</pdfrwt>
<totfact> 0.75801350E+00</totfact>
</mgrwt>
</event>
<event>
12    6  0.1462228E-007  0.1610492E+04  0.7818608E-02  0.8814128E-01
          2   -1    0    0  501    0  0.00000000000E+00  0.00000000000E+00  0.14053427444E+04  0.14053427444E+04  0.00000000000E+00 0. -1.
         -1   -1    0    0    0  501 -0.00000000000E+00 -0.00000000000E+00 -0.46139717346E+03  0.46139717346E+03  0.00000000000E+00 0.  1.
         24    2    1    2    0    0  0.49412990703E+03 -0.16197150527E+03  0.11092797812E+03  0.53753566510E+03  0.78996464325E+02 0.  0.
        254    2    1    2    0    0 -0.49412990703E+03  0.16197150527E+03  0.83301759280E+03  0.13292042527E+04  0.89580494644E+03 0.  0.
         23    2    4    4    0    0 -0.81230658260E+02 -0.27274382234E+03 -0.22627207347E+01  0.29697087492E+03  0.84846733469E+02 0.  0.
         23    2    4    4    0    0 -0.41289924877E+03  0.43471532761E+03  0.83528031354E+03  0.10322333778E+04  0.91374714320E+02 0.  0.
          2    1    3    3  502    0  0.81073606698E+02 -0.44692439023E+02  0.45647734440E+02  0.10321850352E+03  0.00000000000E+00 0. -1.
         -1    1    3    3    0  502  0.41305630033E+03 -0.11727906625E+03  0.65280243677E+02  0.43431716158E+03  0.00000000000E+00 0.  1.
         11    1    5    5    0    0 -0.58089199081E+02 -0.25733234499E+03 -0.19046849358E+02  0.26449399483E+03  0.00000000000E+00 0. -1.
        -11    1    5    5    0    0 -0.23141459180E+02 -0.15411477348E+02  0.16784128623E+02  0.32476880094E+02  0.00000000000E+00 0.  1.
          4    1    6    6  503    0 -0.17226100187E+03  0.24150889978E+03  0.37665187105E+03  0.47944450503E+03  0.00000000000E+00 0. -1.
         -4    1    6    6    0  503 -0.24063824690E+03  0.19320642783E+03  0.45862844249E+03  0.55278887280E+03  0.00000000000E+00 0.  1.
<mgrwt>
<rscale>  0 0.16104921E+04</rscale>
<asrwt>0</asrwt>
<pdfrwt beam="1">  1        2 0.21620657E+00 0.16104921E+04</pdfrwt>
<pdfrwt beam="2">  1       -1 0.70984181E-01 0.16104921E+04</pdfrwt>
<totfact> 0.31457051E+01</totfact>
</mgrwt>
</event>
<event>
12    6  0.1462228E-007  0.2333012E+04  0.7818608E-02  0.8465018E-01
         -1   -1    0    0    0  501 -0.00000000000E+00  0.00000000000E+00  0.37355563228E+03  0.37355563228E+03  0.00000000000E+00 0.  1.
          2   -1    0    0  501    0  0.00000000000E+00 -0.00000000000E+00 -0.36426601716E+04  0.36426601716E+04  0.00000000000E+00 0. -1.
         24    2    1    2    0    0 -0.92608956075E+03 -0.29860248139E+03 -0.11197683252E+04  0.14855943008E+04  0.79397783901E+02 0.  0.
        254    2    1    2    0    0  0.92608956075E+03  0.29860248139E+03 -0.21493362141E+04  0.25306215031E+04  0.91520146086E+03 0.  0.
         23    2    4    4    0    0  0.55528398814E+03 -0.25228306551E+03 -0.13719135253E+04  0.15041040997E+04  0.90528278444E+02 0.  0.
         23    2    4    4    0    0  0.37080557261E+03  0.55088554689E+03 -0.77742268877E+03  0.10265174033E+04  0.91543890164E+02 0.  0.
          4    1    3    3  502    0 -0.22511732549E+03 -0.94293958263E+02 -0.23983446536E+03  0.34218376872E+03  0.00000000000E+00 0. -1.
         -3    1    3    3    0  502 -0.70097223527E+03 -0.20430852313E+03 -0.87993385984E+03  0.11434105321E+04  0.00000000000E+00 0.  1.
         11    1    5    5    0    0  0.49260402904E+03 -0.23571835040E+03 -0.11528932717E+04  0.12756899177E+04  0.00000000000E+00 0. -1.
        -11    1    5    5    0    0  0.62679959104E+02 -0.16564715107E+02 -0.21902025360E+03  0.22841418202E+03  0.00000000000E+00 0.  1.
          3    1    6    6  503    0  0.27307508500E+03  0.44386318864E+03 -0.65333744168E+03  0.83572384492E+03  0.00000000000E+00 0. -1.
         -3    1    6    6    0  503  0.97730487612E+02  0.10702235826E+03 -0.12408524709E+03  0.19079355839E+03  0.00000000000E+00 0.  1.
<mgrwt>
<rscale>  0 0.23330120E+04</rscale>
<asrwt>0</asrwt>
<pdfrwt beam="1">  1        2 0.56040923E+00 0.23330120E+04</pdfrwt>
<pdfrwt beam="2">  1       -1 0.57470100E-01 0.23330120E+04</pdfrwt>
<totfact> 0.20346127E+00</totfact>
</mgrwt>
</event>
<event>
12    6  0.1462228E-007  0.1176420E+04  0.7818608E-02  0.9133750E-01
          2   -1    0    0  501    0  0.00000000000E+00  0.00000000000E+00  0.15152496476E+04  0.15152496476E+04  0.00000000000E+00 0. -1.
         -1   -1    0    0    0  501 -0.00000000000E+00 -0.00000000000E+00 -0.22833929435E+03  0.22833929435E+03  0.00000000000E+00 0.  1.
         24    2    1    2    0    0  0.61658564224E+02 -0.13886300238E+02  0.60282185411E+03  0.61135635061E+03  0.79798444652E+02 0.  0.
        254    2    1    2    0    0 -0.61658564224E+02  0.13886300238E+02  0.68408849919E+03  0.11322325914E+04  0.89998831014E+03 0.  0.
         23    2    4    4    0    0  0.83107400759E+02 -0.28192810804E+02 -0.19592193563E+03  0.23468365395E+03  0.94812119114E+02 0.  0.
         23    2    4    4    0    0 -0.14476596498E+03  0.42079111042E+02  0.88001043481E+03  0.89754893743E+03  0.91912422978E+02 0.  0.
          4    1    3    3  502    0  0.77088103790E+02  0.25254644689E+01  0.51231475831E+03  0.51808818293E+03  0.00000000000E+00 0. -1.
         -3    1    3    3    0  502 -0.15429539565E+02 -0.16411764707E+02  0.90507095800E+02  0.93268167679E+02  0.00000000000E+00 0.  1.
         11    1    5    5    0    0  0.58378201526E+02  0.29344670413E+02 -0.83857457094E+02  0.10630708916E+03  0.00000000000E+00 0.  1.
        -11    1    5    5    0    0  0.24729199232E+02 -0.57537481217E+02 -0.11206447853E+03  0.12837656479E+03  0.00000000000E+00 0. -1.
          1    1    6    6  503    0 -0.13360674800E+03  0.66505597596E+02  0.72066310614E+03  0.73595452996E+03  0.00000000000E+00 0. -1.
         -1    1    6    6    0  503 -0.11159216984E+02 -0.24426486554E+02  0.15934732868E+03  0.16159440747E+03  0.00000000000E+00 0.  1.
<mgrwt>
<rscale>  0 0.11764201E+04</rscale>
<asrwt>0</asrwt>
<pdfrwt beam="1">  1        2 0.23311532E+00 0.11764201E+04</pdfrwt>
<pdfrwt beam="2">  1       -1 0.35129123E-01 0.11764201E+04</pdfrwt>
<totfact> 0.10796078E+02</totfact>
</mgrwt>
</event>
<event>
12    6  0.1462228E-007  0.1487907E+04  0.7818608E-02  0.8892535E-01
          2   -1    0    0  501    0  0.00000000000E+00  0.00000000000E+00  0.19683670415E+04  0.19683670415E+04  0.00000000000E+00 0. -1.
         -1   -1    0    0    0  501 -0.00000000000E+00 -0.00000000000E+00 -0.28118065665E+03  0.28118065665E+03  0.00000000000E+00 0.  1.
         24    2    1    2    0    0  0.24123858442E+03 -0.36708561412E+03  0.29860581788E+03  0.53694449108E+03  0.78714987919E+02 0.  0.
        254    2    1    2    0    0 -0.24123858442E+03  0.36708561412E+03  0.13885805670E+04  0.17126032071E+04  0.90105818414E+03 0.  0.
         23    2    4    4    0    0 -0.29384608051E+03 -0.16936715855E+03  0.94636259622E+03  0.10094102496E+04  0.90973265744E+02 0.  0.
         23    2    4    4    0    0  0.52607496097E+02  0.53645277267E+03  0.44221797079E+03  0.70319295749E+03  0.91512162167E+02 0.  0.
          4    1    3    3  502    0  0.16367861680E+01 -0.16434742641E+01  0.16827930775E+02  0.16987034197E+02  0.00000000000E+00 0. -1.
         -3    1    3    3    0  502  0.23960179825E+03 -0.36544213985E+03  0.28177788711E+03  0.51995745688E+03  0.00000000000E+00 0.  1.
         11    1    5    5    0    0 -0.24845518790E+03 -0.10843876791E+03  0.79685613329E+03  0.84170579417E+03  0.00000000000E+00 0. -1.
        -11    1    5    5    0    0 -0.45390892612E+02 -0.60928390644E+02  0.14950646293E+03  0.16770445545E+03  0.00000000000E+00 0.  1.
          2    1    6    6  503    0  0.17663728539E+02  0.47030973162E+03  0.36415140832E+03  0.59507100345E+03  0.00000000000E+00 0. -1.
         -2    1    6    6    0  503  0.34943767558E+02  0.66143041051E+02  0.78066562468E+02  0.10812195404E+03  0.00000000000E+00 0.  1.
<mgrwt>
<rscale>  0 0.14879069E+04</rscale>
<asrwt>0</asrwt>
<pdfrwt beam="1">  1        2 0.30282569E+00 0.14879069E+04</pdfrwt>
<pdfrwt beam="2">  1       -1 0.43258564E-01 0.14879069E+04</pdfrwt>
<totfact> 0.40413885E+01</totfact>
</mgrwt>
</event>
<event>
12    6  0.1462228E-007  0.1968763E+04  0.7818608E-02  0.8621366E-01
         -3   -1    0    0    0  501 -0.00000000000E+00  0.00000000000E+00  0.69240420568E+03  0.69240420568E+03  0.00000000000E+00 0.  1.
          2   -1    0    0  501    0  0.00000000000E+00 -0.00000000000E+00 -0.13994821768E+04  0.13994821768E+04  0.00000000000E+00 0. -1.
         24    2    1    2    0    0 -0.69867399669E+03 -0.27431311314E+03 -0.14744077418E+03  0.76905618220E+03  0.79470697741E+02 0.  0.
        254    2    1    2    0    0  0.69867399669E+03  0.27431311314E+03 -0.55963719691E+03  0.13228302002E+04  0.93450142259E+03 0.  0.
         23    2    4    4    0    0  0.66447190751E+03  0.41949061492E+03 -0.73219335671E+03  0.10776825232E+04  0.88301853973E+02 0.  0.
         23    2    4    4    0    0  0.34202089174E+02 -0.14517750178E+03  0.17255615980E+03  0.24514767700E+03  0.89863592888E+02 0.  0.
          2    1    3    3  502    0 -0.31173505636E+03 -0.95752031058E+02 -0.95155528177E+02  0.33970836221E+03  0.00000000000E+00 0. -1.
         -1    1    3    3    0  502 -0.38693894033E+03 -0.17856108209E+03 -0.52285246007E+02  0.42934781999E+03  0.00000000000E+00 0.  1.
         11    1    5    5    0    0  0.46925261394E+02  0.35165782902E+02 -0.89799432665E+02  0.10724994429E+03  0.00000000000E+00 0. -1.
        -11    1    5    5    0    0  0.61754664612E+03  0.38432483202E+03 -0.64239392405E+03  0.97043257895E+03  0.00000000000E+00 0.  1.
          1    1    6    6  503    0  0.10669922476E+02  0.17945479917E+01  0.53396132163E+02  0.54481323205E+02  0.00000000000E+00 0. -1.
         -1    1    6    6    0  503  0.23532166699E+02 -0.14697204977E+03  0.11916002764E+03  0.19066635380E+03  0.00000000000E+00 0.  1.
<mgrwt>
<rscale>  0 0.19687634E+04</rscale>
<asrwt>0</asrwt>
<pdfrwt beam="1">  1        2 0.21530495E+00 0.19687634E+04</pdfrwt>
<pdfrwt beam="2">  1       -3 0.10652373E+00 0.19687634E+04</pdfrwt>
<totfact> 0.64517076E+00</totfact>
</mgrwt>
</event>
<event>
12    6  0.1462228E-007  0.3015826E+04  0.7818608E-02  0.8239226E-01
          2   -1    0    0  501    0  0.00000000000E+00  0.00000000000E+00  0.23744088672E+04  0.23744088672E+04  0.00000000000E+00 0. -1.
         -1   -1    0    0    0  501 -0.00000000000E+00 -0.00000000000E+00 -0.95762820572E+03  0.95762820572E+03  0.00000000000E+00 0.  1.
         24    2    1    2    0    0 -0.63487634783E+03  0.91341149576E+03  0.15328896302E+04  0.18956486440E+04  0.79653157078E+02 0.  0.
        254    2    1    2    0    0  0.63487634783E+03 -0.91341149576E+03 -0.11610896873E+03  0.14363884289E+04  0.90130011012E+03 0.  0.
         23    2    4    4    0    0  0.64376989662E+02 -0.40983928536E+02 -0.34513729378E+03  0.36540087005E+03  0.92595707682E+02 0.  0.
         23    2    4    4    0    0  0.57049935817E+03 -0.87242756723E+03  0.22902832505E+03  0.10709875589E+04  0.89224435327E+02 0.  0.
          2    1    3    3  502    0 -0.32732996482E+03  0.50703572234E+03  0.77319167972E+03  0.98084428080E+03  0.00000000000E+00 0. -1.
         -1    1    3    3    0  502 -0.30754638301E+03  0.40637577343E+03  0.75969795047E+03  0.91480436318E+03  0.00000000000E+00 0.  1.
         11    1    5    5    0    0  0.47135741169E+02  0.23068810990E+02 -0.12743865729E+03  0.13782075137E+03  0.00000000000E+00 0. -1.
        -11    1    5    5    0    0  0.17241248493E+02 -0.64052739526E+02 -0.21769863649E+03  0.22758011868E+03  0.00000000000E+00 0.  1.
          3    1    6    6  503    0  0.30530982794E+03 -0.46446215471E+03  0.76517271196E+02  0.56106512722E+03  0.00000000000E+00 0. -1.
         -3    1    6    6    0  503  0.26518953024E+03 -0.40796541252E+03  0.15251105386E+03  0.50992243166E+03  0.00000000000E+00 0.  1.
<mgrwt>
<rscale>  0 0.30158255E+04</rscale>
<asrwt>0</asrwt>
<pdfrwt beam="1">  1        2 0.36529367E+00 0.30158255E+04</pdfrwt>
<pdfrwt beam="2">  1       -1 0.14732742E+00 0.30158255E+04</pdfrwt>
<totfact> 0.14631131E+00</totfact>
</mgrwt>
</event>
<event>
12    6  0.1462228E-007  0.1703596E+04  0.7818608E-02  0.8759316E-01
          2   -1    0    0  501    0  0.00000000000E+00  0.00000000000E+00  0.52745144017E+03  0.52745144017E+03  0.00000000000E+00 0. -1.
         -1   -1    0    0    0  501 -0.00000000000E+00 -0.00000000000E+00 -0.13755953668E+04  0.13755953668E+04  0.00000000000E+00 0.  1.
         24    2    1    2    0    0 -0.87728382434E+02 -0.41089052479E+03  0.18222492523E+03  0.46522402665E+03  0.81854622037E+02 0.  0.
        254    2    1    2    0    0  0.87728382434E+02  0.41089052479E+03 -0.10303688519E+04  0.14378227804E+04  0.91057513928E+03 0.  0.
         23    2    4    4    0    0  0.12533422206E+03  0.48519365267E+03 -0.12524886585E+03  0.52438053454E+03  0.90366580068E+02 0.  0.
         23    2    4    4    0    0 -0.37605839624E+02 -0.74303127877E+02 -0.90511998607E+03  0.91344224582E+03  0.90550501325E+02 0.  0.
          2    1    3    3  502    0 -0.73800853211E+02 -0.40693321730E+03  0.17591203242E+03  0.44942880685E+03  0.00000000000E+00 0. -1.
         -1    1    3    3    0  502 -0.13927529223E+02 -0.39573074899E+01  0.63128928142E+01  0.15795219799E+02  0.00000000000E+00 0.  1.
         11    1    5    5    0    0  0.12389275776E+03  0.41027417789E+03 -0.77489919401E+02  0.43552153113E+03  0.00000000000E+00 0.  1.
        -11    1    5    5    0    0  0.14414642969E+01  0.74919474784E+02 -0.47758946445E+02  0.88859003409E+02  0.00000000000E+00 0. -1.
          2    1    6    6  503    0 -0.16235171689E+01  0.70605332996E+01 -0.46953559163E+01  0.86332673799E+01  0.00000000000E+00 0. -1.
         -2    1    6    6    0  503 -0.35982322455E+02 -0.81363661176E+02 -0.90042463015E+03  0.90480897844E+03  0.00000000000E+00 0.  1.
<mgrwt>
<rscale>  0 0.17035959E+04</rscale>
<asrwt>0</asrwt>
<pdfrwt beam="1">  1        2 0.81146378E-01 0.17035959E+04</pdfrwt>
<pdfrwt beam="2">  1       -1 0.21163005E+00 0.17035959E+04</pdfrwt>
<totfact> 0.78795327E+00</totfact>
</mgrwt>
</event>
<event>
12    6  0.1462228E-007  0.1912702E+04  0.7818608E-02  0.8648559E-01
         -1   -1    0    0    0  501 -0.00000000000E+00  0.00000000000E+00  0.63027147761E+03  0.63027147761E+03  0.00000000000E+00 0.  1.
          2   -1    0    0  501    0  0.00000000000E+00 -0.00000000000E+00 -0.14511328788E+04  0.14511328788E+04  0.00000000000E+00 0. -1.
         24    2    1    2    0    0 -0.48941976048E+03 -0.44004869283E+03  0.15702898366E+02  0.66313700331E+03  0.79558469862E+02 0.  0.
        254    2    1    2    0    0  0.48941976048E+03  0.44004869283E+03 -0.83656429957E+03  0.14182673531E+04  0.93726618609E+03 0.  0.
         23    2    4    4    0    0  0.76177446075E+03  0.28878847776E+03 -0.62483914649E+03  0.10307428547E+04  0.91146912116E+02 0.  0.
         23    2    4    4    0    0 -0.27235470027E+03  0.15126021507E+03 -0.21172515308E+03  0.38752449842E+03  0.91054714379E+02 0.  0.
          4    1    3    3  502    0 -0.10445062391E+03 -0.54917381471E+02 -0.60126562413E+01  0.11816092272E+03  0.00000000000E+00 0. -1.
         -3    1    3    3    0  502 -0.38496913658E+03 -0.38513131135E+03  0.21715554607E+02  0.54497608059E+03  0.00000000000E+00 0.  1.
         11    1    5    5    0    0  0.80033698085E+01  0.11911509597E+02 -0.23470728502E+02  0.27510236015E+02  0.00000000000E+00 0. -1.
        -11    1    5    5    0    0  0.75377109094E+03  0.27687696816E+03 -0.60136841799E+03  0.10032326187E+04  0.00000000000E+00 0.  1.
          1    1    6    6  503    0 -0.29942723561E+02  0.27059537108E+02 -0.69206489269E+02  0.80114439396E+02  0.00000000000E+00 0. -1.
         -1    1    6    6    0  503 -0.24241197670E+03  0.12420067796E+03 -0.14251866381E+03  0.30741005902E+03  0.00000000000E+00 0.  1.
<mgrwt>
<rscale>  0 0.19127024E+04</rscale>
<asrwt>0</asrwt>
<pdfrwt beam="1">  1        2 0.22325121E+00 0.19127024E+04</pdfrwt>
<pdfrwt beam="2">  1       -1 0.96964844E-01 0.19127024E+04</pdfrwt>
<totfact> 0.14748892E+01</totfact>
</mgrwt>
</event>
<event>
12    6  0.1462228E-007  0.2786324E+04  0.7818608E-02  0.8307527E-01
          2   -1    0    0  501    0  0.00000000000E+00  0.00000000000E+00  0.25077560468E+04  0.25077560468E+04  0.00000000000E+00 0. -1.
         -1   -1    0    0    0  501 -0.00000000000E+00 -0.00000000000E+00 -0.77395925001E+03  0.77395925001E+03  0.00000000000E+00 0.  1.
         24    2    1    2    0    0 -0.59175969496E+03 -0.80783849244E+03 -0.88741284015E+02  0.10084767907E+04  0.79798843834E+02 0.  0.
        254    2    1    2    0    0  0.59175969496E+03  0.80783849244E+03  0.18225380808E+04  0.22732385061E+04  0.91825142696E+03 0.  0.
         23    2    4    4    0    0 -0.23293194637E+03  0.27426371723E+03  0.50755687348E+03  0.62931499182E+03  0.94580658104E+02 0.  0.
         23    2    4    4    0    0  0.82469164133E+03  0.53357477521E+03  0.13149812073E+04  0.16439235143E+04  0.92144457868E+02 0.  0.
          4    1    3    3  502    0 -0.12545575095E+02 -0.41467714523E+02  0.32789413122E+01  0.43447833760E+02  0.00000000000E+00 0. -1.
         -3    1    3    3    0  502 -0.57921411986E+03 -0.76637077792E+03 -0.92020225328E+02  0.96502895695E+03  0.00000000000E+00 0.  1.
         11    1    5    5    0    0 -0.35517857790E+02  0.26165118546E+02  0.12438378444E+03  0.13197521541E+03  0.00000000000E+00 0.  1.
        -11    1    5    5    0    0 -0.19741408858E+03  0.24809859868E+03  0.38317308903E+03  0.49733977640E+03  0.00000000000E+00 0. -1.
          3    1    6    6  503    0  0.41257218342E+03  0.23213614421E+03  0.69205344940E+03  0.83847538593E+03  0.00000000000E+00 0. -1.
         -3    1    6    6    0  503  0.41211945791E+03  0.30143863101E+03  0.62292775792E+03  0.80544812834E+03  0.00000000000E+00 0.  1.
<mgrwt>
<rscale>  0 0.27863245E+04</rscale>
<asrwt>0</asrwt>
<pdfrwt beam="1">  1        2 0.38580862E+00 0.27863245E+04</pdfrwt>
<pdfrwt beam="2">  1       -1 0.11907066E+00 0.27863245E+04</pdfrwt>
<totfact> 0.21524264E+00</totfact>
</mgrwt>
</event>
<event>
12    6  0.1462228E-007  0.1535770E+04  0.7818608E-02  0.8861009E-01
          2   -1    0    0  501    0  0.00000000000E+00  0.00000000000E+00  0.44858182325E+03  0.44858182325E+03  0.00000000000E+00 0. -1.
         -1   -1    0    0    0  501 -0.00000000000E+00 -0.00000000000E+00 -0.13144695249E+04  0.13144695249E+04  0.00000000000E+00 0.  1.
         24    2    1    2    0    0 -0.84849512638E+02 -0.24963451967E+03  0.20240200341E+03  0.34183438862E+03  0.79795645596E+02 0.  0.
        254    2    1    2    0    0  0.84849512638E+02  0.24963451967E+03 -0.10682897050E+04  0.14212169595E+04  0.89949870421E+03 0.  0.
         23    2    4    4    0    0 -0.92713090170E+02  0.13192021105E+03  0.11567165168E+03  0.21477232902E+03  0.82149638689E+02 0.  0.
         23    2    4    4    0    0  0.17756260281E+03  0.11771430862E+03 -0.11839613567E+04  0.12064446305E+04  0.91427653663E+02 0.  0.
          4    1    3    3  502    0 -0.46042484139E+02 -0.21782547672E+03  0.18240661431E+03  0.28781942533E+03  0.00000000000E+00 0. -1.
         -3    1    3    3    0  502 -0.38807028499E+02 -0.31809042952E+02  0.19995389100E+02  0.54014963294E+02  0.00000000000E+00 0.  1.
         11    1    5    5    0    0 -0.48335244813E+02  0.10767176714E+02  0.17051497347E+02  0.52373481336E+02  0.00000000000E+00 0.  1.
        -11    1    5    5    0    0 -0.44377845358E+02  0.12115303434E+03  0.98620154332E+02  0.16239884768E+03  0.00000000000E+00 0. -1.
          4    1    6    6  503    0  0.15861126818E+03  0.75825435258E+02 -0.10546654443E+04  0.10692175786E+04  0.00000000000E+00 0. -1.
         -4    1    6    6    0  503  0.18951334631E+02  0.41888873365E+02 -0.12929591241E+03  0.13722705186E+03  0.00000000000E+00 0.  1.
<mgrwt>
<rscale>  0 0.15357697E+04</rscale>
<asrwt>0</asrwt>
<pdfrwt beam="1">  1        2 0.69012588E-01 0.15357697E+04</pdfrwt>
<pdfrwt beam="2">  1       -1 0.20222608E+00 0.15357697E+04</pdfrwt>
<totfact> 0.11172790E+01</totfact>
</mgrwt>
</event>
<event>
12    6  0.1462228E-007  0.1445713E+04  0.7818608E-02  0.8921378E-01
          2   -1    0    0  501    0  0.00000000000E+00  0.00000000000E+00  0.78411121627E+03  0.78411121627E+03  0.00000000000E+00 0. -1.
         -1   -1    0    0    0  501 -0.00000000000E+00 -0.00000000000E+00 -0.66638676340E+03  0.66638676340E+03  0.00000000000E+00 0.  1.
         24    2    1    2    0    0 -0.39534260727E+03  0.12247655608E+03 -0.11350261480E+03  0.43647843008E+03  0.79588268251E+02 0.  0.
        254    2    1    2    0    0  0.39534260727E+03 -0.12247655608E+03  0.23122706767E+03  0.10140195496E+04  0.89636678108E+03 0.  0.
         23    2    4    4    0    0  0.59701651382E+03  0.10044157169E+03  0.31388676624E+03  0.68817112123E+03  0.92397851616E+02 0.  0.
         23    2    4    4    0    0 -0.20167390655E+03 -0.22291812777E+03 -0.82659698565E+02  0.32584842836E+03  0.94761364647E+02 0.  0.
          4    1    3    3  502    0 -0.25634407576E+02  0.25688439078E+02  0.43530030537E+01  0.36550887672E+02  0.00000000000E+00 0. -1.
         -3    1    3    3    0  502 -0.36970819970E+03  0.96788117002E+02 -0.11785561785E+03  0.39992754241E+03  0.00000000000E+00 0.  1.
         11    1    5    5    0    0  0.55986639584E+03  0.10385857467E+03  0.31520900490E+03  0.65084076508E+03  0.00000000000E+00 0. -1.
        -11    1    5    5    0    0  0.37150117977E+02 -0.34170029811E+01 -0.13222386620E+01  0.37330356149E+02  0.00000000000E+00 0.  1.
          4    1    6    6  503    0 -0.17181737287E+03 -0.14504032598E+03 -0.29097137166E+02  0.22672571352E+03  0.00000000000E+00 0. -1.
         -4    1    6    6    0  503 -0.29856533683E+02 -0.77877801784E+02 -0.53562561399E+02  0.99122714843E+02  0.00000000000E+00 0.  1.
<mgrwt>
<rscale>  0 0.14457127E+04</rscale>
<asrwt>0</asrwt>
<pdfrwt beam="1">  1        2 0.12063249E+00 0.14457127E+04</pdfrwt>
<pdfrwt beam="2">  1       -1 0.10252104E+00 0.14457127E+04</pdfrwt>
<totfact> 0.35277741E+01</totfact>
</mgrwt>
</event>
<event>
12    6  0.1462228E-007  0.2173785E+04  0.7818608E-02  0.8529419E-01
         -3   -1    0    0    0  501 -0.00000000000E+00  0.00000000000E+00  0.15526969938E+04  0.15526969938E+04  0.00000000000E+00 0.  1.
          2   -1    0    0  501    0  0.00000000000E+00 -0.00000000000E+00 -0.76082811391E+03  0.76082811391E+03  0.00000000000E+00 0. -1.
         24    2    1    2    0    0 -0.39033807571E+03 -0.70316900065E+03  0.76785951510E+03  0.11146466358E+04  0.77578547171E+02 0.  0.
        254    2    1    2    0    0  0.39033807571E+03  0.70316900065E+03  0.24009364798E+02  0.11988784719E+04  0.88877594701E+03 0.  0.
         23    2    4    4    0    0  0.27475658857E+03 -0.79887418801E+02 -0.21230921605E+03  0.36771883501E+03  0.90932699039E+02 0.  0.
         23    2    4    4    0    0  0.11558148713E+03  0.78305641945E+03  0.23631858085E+03  0.83115963690E+03  0.91888161055E+02 0.  0.
          2    1    3    3  502    0 -0.92387120259E+02 -0.14652757676E+03  0.12513878058E+03  0.21369470079E+03  0.00000000000E+00 0. -1.
         -1    1    3    3    0  502 -0.29795095545E+03 -0.55664142389E+03  0.64272073452E+03  0.90095193503E+03  0.00000000000E+00 0.  1.
         11    1    5    5    0    0  0.44385504709E+02 -0.78286662082E+01 -0.81607075407E+02  0.93225939520E+02  0.00000000000E+00 0. -1.
        -11    1    5    5    0    0  0.23037108386E+03 -0.72058752593E+02 -0.13070214064E+03  0.27449289549E+03  0.00000000000E+00 0.  1.
          2    1    6    6  503    0  0.12983858396E+03  0.69060342735E+03  0.21887841569E+03  0.73600197867E+03  0.00000000000E+00 0. -1.
         -2    1    6    6    0  503 -0.14257096827E+02  0.92452992104E+02  0.17440165155E+02  0.95157658228E+02  0.00000000000E+00 0.  1.
<mgrwt>
<rscale>  0 0.21737852E+04</rscale>
<asrwt>0</asrwt>
<pdfrwt beam="1">  1        2 0.11705048E+00 0.21737852E+04</pdfrwt>
<pdfrwt beam="2">  1       -3 0.23887646E+00 0.21737852E+04</pdfrwt>
<totfact> 0.17943873E+00</totfact>
</mgrwt>
</event>
<event>
12    6  0.1462228E-007  0.1426991E+04  0.7818608E-02  0.8934509E-01
          2   -1    0    0  501    0  0.00000000000E+00  0.00000000000E+00  0.56261982996E+03  0.56261982996E+03  0.00000000000E+00 0. -1.
         -1   -1    0    0    0  501 -0.00000000000E+00 -0.00000000000E+00 -0.90483113544E+03  0.90483113544E+03  0.00000000000E+00 0.  1.
         24    2    1    2    0    0 -0.41857403463E+03 -0.45741653955E+02 -0.17322575583E+02  0.42893511375E+03  0.79929586564E+02 0.  0.
        254    2    1    2    0    0  0.41857403463E+03  0.45741653955E+02 -0.32488872989E+03  0.10385158517E+04  0.89200110199E+03 0.  0.
         23    2    4    4    0    0 -0.44459145410E+02  0.36964197110E+03 -0.25831832482E+03  0.46229876796E+03  0.91542293540E+02 0.  0.
         23    2    4    4    0    0  0.46303318004E+03 -0.32390031715E+03 -0.66570405067E+02  0.57621708369E+03  0.91013006985E+02 0.  0.
          2    1    3    3  502    0 -0.32550586739E+03 -0.51298977957E+02  0.16035353429E+02  0.32991330286E+03  0.00000000000E+00 0. -1.
         -1    1    3    3    0  502 -0.93068167244E+02  0.55573240027E+01 -0.33357929012E+02  0.99021810891E+02  0.00000000000E+00 0.  1.
         11    1    5    5    0    0  0.11748862981E+02  0.11520895181E+03 -0.40510414342E+02  0.12268753820E+03  0.00000000000E+00 0.  1.
        -11    1    5    5    0    0 -0.56208008391E+02  0.25443301930E+03 -0.21780791048E+03  0.33961122977E+03  0.00000000000E+00 0. -1.
          4    1    6    6  503    0 -0.34276395942E+01 -0.21673636264E+01 -0.46795581814E+01  0.61922889992E+01  0.00000000000E+00 0.  1.
         -4    1    6    6    0  503  0.46646081963E+03 -0.32173295352E+03 -0.61890846886E+02  0.57002479469E+03  0.00000000000E+00 0. -1.
<mgrwt>
<rscale>  0 0.14269912E+04</rscale>
<asrwt>0</asrwt>
<pdfrwt beam="1">  1        2 0.86556897E-01 0.14269912E+04</pdfrwt>
<pdfrwt beam="2">  1       -1 0.13920479E+00 0.14269912E+04</pdfrwt>
<totfact> 0.25316930E+01</totfact>
</mgrwt>
</event>
<event>
12    6  0.1462228E-007  0.1524306E+04  0.7818608E-02  0.8868449E-01
          2   -1    0    0  501    0  0.00000000000E+00  0.00000000000E+00  0.28611629742E+03  0.28611629742E+03  0.00000000000E+00 0. -1.
         -1   -1    0    0    0  501 -0.00000000000E+00 -0.00000000000E+00 -0.20302138248E+04  0.20302138248E+04  0.00000000000E+00 0.  1.
         24    2    1    2    0    0  0.44491765756E+03 -0.86984672344E+02 -0.26674107481E+03  0.53235957804E+03  0.82084493722E+02 0.  0.
        254    2    1    2    0    0 -0.44491765756E+03  0.86984672344E+02 -0.14773564525E+04  0.17839705442E+04  0.89131967291E+03 0.  0.
         23    2    4    4    0    0 -0.62651393386E+03  0.35866176746E+02 -0.56654833003E+03  0.85004420213E+03  0.88272551580E+02 0.  0.
         23    2    4    4    0    0  0.18159627630E+03  0.51118495598E+02 -0.91080812252E+03  0.93392634203E+03  0.84003976890E+02 0.  0.
          4    1    3    3  502    0  0.30968189784E+03 -0.48983422560E+02 -0.22467906944E+03  0.38572391393E+03  0.00000000000E+00 0. -1.
         -3    1    3    3    0  502  0.13523575972E+03 -0.38001249784E+02 -0.42062005366E+02  0.14663566411E+03  0.00000000000E+00 0.  1.
         11    1    5    5    0    0 -0.16349775616E+03  0.37379179561E+02 -0.11545019517E+03  0.20361106772E+03  0.00000000000E+00 0.  1.
        -11    1    5    5    0    0 -0.46301617770E+03 -0.15130028151E+01 -0.45109813485E+03  0.64643313441E+03  0.00000000000E+00 0. -1.
          4    1    6    6  503    0  0.15509746648E+03  0.42979481115E+02 -0.57869282013E+03  0.60065617450E+03  0.00000000000E+00 0. -1.
         -4    1    6    6    0  503  0.26498809818E+02  0.81390144825E+01 -0.33211530239E+03  0.33327016753E+03  0.00000000000E+00 0.  1.
<mgrwt>
<rscale>  0 0.15243061E+04</rscale>
<asrwt>0</asrwt>
<pdfrwt beam="1">  1        2 0.44017893E-01 0.15243061E+04</pdfrwt>
<pdfrwt beam="2">  1       -1 0.31234058E+00 0.15243061E+04</pdfrwt>
<totfact> 0.35205610E+00</totfact>
</mgrwt>
</event>
<event>
12    6  0.1462228E-007  0.1624376E+04  0.7818608E-02  0.8805712E-01
         -1   -1    0    0    0  501 -0.00000000000E+00  0.00000000000E+00  0.35455741350E+03  0.35455741350E+03  0.00000000000E+00 0.  1.
          2   -1    0    0  501    0  0.00000000000E+00 -0.00000000000E+00 -0.18604856873E+04  0.18604856873E+04  0.00000000000E+00 0. -1.
         24    2    1    2    0    0  0.23858635863E+03  0.49207841402E+03 -0.70624019763E+03  0.89667238644E+03  0.78622743341E+02 0.  0.
        254    2    1    2    0    0 -0.23858635863E+03 -0.49207841402E+03 -0.79968807615E+03  0.13183707144E+04  0.89416760468E+03 0.  0.
         23    2    4    4    0    0 -0.39217376349E+03  0.11159331423E+03 -0.34267461962E+03  0.54050486110E+03  0.92012398025E+02 0.  0.
         23    2    4    4    0    0  0.15358740486E+03 -0.60367172825E+03 -0.45701345653E+03  0.77786585326E+03  0.90583330631E+02 0.  0.
          2    1    3    3  502    0  0.22233458393E+03  0.46738094184E+03 -0.69120029205E+03  0.86350185625E+03  0.00000000000E+00 0. -1.
         -1    1    3    3    0  502  0.16251774708E+02  0.24697472180E+02 -0.15039905583E+02  0.33170530192E+02  0.00000000000E+00 0.  1.
         11    1    5    5    0    0 -0.26712929756E+03  0.11930112469E+03 -0.24659888064E+03  0.38262491803E+03  0.00000000000E+00 0.  1.
        -11    1    5    5    0    0 -0.12504446593E+03 -0.77078104640E+01 -0.96075738985E+02  0.15787994307E+03  0.00000000000E+00 0. -1.
          3    1    6    6  503    0  0.73635130166E+02 -0.13532692879E+03 -0.10217664038E+03  0.18486637307E+03  0.00000000000E+00 0. -1.
         -3    1    6    6    0  503  0.79952274692E+02 -0.46834479946E+03 -0.35483681615E+03  0.59299948019E+03  0.00000000000E+00 0.  1.
<mgrwt>
<rscale>  0 0.16243756E+04</rscale>
<asrwt>0</asrwt>
<pdfrwt beam="1">  1        2 0.28622857E+00 0.16243756E+04</pdfrwt>
<pdfrwt beam="2">  1       -1 0.54547294E-01 0.16243756E+04</pdfrwt>
<totfact> 0.29564959E+01</totfact>
</mgrwt>
</event>
<event>
12    6  0.1462228E-007  0.1396063E+04  0.7818608E-02  0.8956673E-01
          2   -1    0    0  501    0  0.00000000000E+00  0.00000000000E+00  0.30016584299E+04  0.30016584299E+04  0.00000000000E+00 0. -1.
         -1   -1    0    0    0  501 -0.00000000000E+00 -0.00000000000E+00 -0.16232623775E+03  0.16232623775E+03  0.00000000000E+00 0.  1.
         24    2    1    2    0    0  0.17389302258E+03  0.16314705585E+03  0.98241583791E+02  0.26928815017E+03  0.77517442558E+02 0.  0.
        254    2    1    2    0    0 -0.17389302258E+03 -0.16314705585E+03  0.27410906084E+04  0.28946965175E+04  0.89935224468E+03 0.  0.
         23    2    4    4    0    0 -0.31171200528E+03 -0.24397133041E+03  0.26661559558E+04  0.26969467247E+04  0.91911211803E+02 0.  0.
         23    2    4    4    0    0  0.13781898270E+03  0.80824274560E+02  0.74934652601E+02  0.19774979284E+03  0.89236444678E+02 0.  0.
          4    1    3    3  502    0  0.10572410279E+02 -0.84644607453E+01  0.25221275006E+01  0.13776214355E+02  0.00000000000E+00 0. -1.
         -3    1    3    3    0  502  0.16332061230E+03  0.17161151660E+03  0.95719456290E+02  0.25551193581E+03  0.00000000000E+00 0.  1.
         11    1    5    5    0    0 -0.16696866811E+03 -0.18567485795E+03  0.15675578352E+04  0.15873220390E+04  0.00000000000E+00 0.  1.
        -11    1    5    5    0    0 -0.14474333717E+03 -0.58296472466E+02  0.10985981206E+04  0.11096246856E+04  0.00000000000E+00 0. -1.
          4    1    6    6  503    0  0.12103943142E+03  0.41003551671E+02  0.84870390935E+02  0.15341062045E+03  0.00000000000E+00 0. -1.
         -4    1    6    6    0  503  0.16779551277E+02  0.39820722890E+02 -0.99357383338E+01  0.44339172396E+02  0.00000000000E+00 0.  1.
<mgrwt>
<rscale>  0 0.13960629E+04</rscale>
<asrwt>0</asrwt>
<pdfrwt beam="1">  1        2 0.46179356E+00 0.13960629E+04</pdfrwt>
<pdfrwt beam="2">  1       -1 0.24973270E-01 0.13960629E+04</pdfrwt>
<totfact> 0.27277221E+01</totfact>
</mgrwt>
</event>
<event>
12    6  0.1462228E-007  0.2267795E+04  0.7818608E-02  0.8490729E-01
         -1   -1    0    0    0  501 -0.00000000000E+00  0.00000000000E+00  0.12711223666E+04  0.12711223666E+04  0.00000000000E+00 0.  1.
          2   -1    0    0  501    0  0.00000000000E+00 -0.00000000000E+00 -0.10114864137E+04  0.10114864137E+04  0.00000000000E+00 0. -1.
         24    2    1    2    0    0  0.94382403530E+03  0.10331695759E+03  0.37451820092E+02  0.95371422479E+03  0.81792300347E+02 0.  0.
        254    2    1    2    0    0 -0.94382403530E+03 -0.10331695759E+03  0.22218413286E+03  0.13288945555E+04  0.90283816232E+03 0.  0.
         23    2    4    4    0    0 -0.42671820584E+03  0.31489491929E+03  0.35512345722E+03  0.64472769044E+03  0.91180521887E+02 0.  0.
         23    2    4    4    0    0 -0.51710582946E+03 -0.41821187688E+03 -0.13293932436E+03  0.68416686503E+03  0.90065656165E+02 0.  0.
          2    1    3    3  502    0  0.75483980326E+03  0.68902234515E+02 -0.14142285461E+00  0.75797801189E+03  0.00000000000E+00 0. -1.
         -1    1    3    3    0  502  0.18898423204E+03  0.34414723080E+02  0.37593242947E+02  0.19573621290E+03  0.00000000000E+00 0.  1.
         11    1    5    5    0    0 -0.35958590841E+03  0.23786004933E+03  0.31910470719E+03  0.53638348478E+03  0.00000000000E+00 0. -1.
        -11    1    5    5    0    0 -0.67132297430E+02  0.77034869955E+02  0.36018750027E+02  0.10834420566E+03  0.00000000000E+00 0.  1.
          1    1    6    6  503    0 -0.42528252253E+03 -0.34918709962E+03 -0.74522800693E+02  0.55529316791E+03  0.00000000000E+00 0.  1.
         -1    1    6    6    0  503 -0.91823306936E+02 -0.69024777265E+02 -0.58416523663E+02  0.12887369712E+03  0.00000000000E+00 0. -1.
<mgrwt>
<rscale>  0 0.22677945E+04</rscale>
<asrwt>0</asrwt>
<pdfrwt beam="1">  1        2 0.15561329E+00 0.22677945E+04</pdfrwt>
<pdfrwt beam="2">  1       -1 0.19555729E+00 0.22677945E+04</pdfrwt>
<totfact> 0.41473515E+00</totfact>
</mgrwt>
</event>
<event>
12    6  0.1462228E-007  0.1634050E+04  0.7818608E-02  0.8799899E-01
          2   -1    0    0  501    0  0.00000000000E+00  0.00000000000E+00  0.20180047725E+04  0.20180047725E+04  0.00000000000E+00 0. -1.
         -1   -1    0    0    0  501 -0.00000000000E+00 -0.00000000000E+00 -0.33078708581E+03  0.33078708581E+03  0.00000000000E+00 0.  1.
         24    2    1    2    0    0  0.10415515133E+03 -0.30664231741E+03  0.12239597313E+04  0.12683796616E+04  0.76365802886E+02 0.  0.
        254    2    1    2    0    0 -0.10415515133E+03  0.30664231741E+03  0.46325795541E+03  0.10804121967E+04  0.92076314821E+03 0.  0.
         23    2    4    4    0    0 -0.14247554565E+03 -0.21487777036E+02  0.66231544553E+03  0.68405732884E+03  0.92258734449E+02 0.  0.
         23    2    4    4    0    0  0.38320394317E+02  0.32813009445E+03 -0.19905749013E+03  0.39635486783E+03  0.91298879388E+02 0.  0.
          2    1    3    3  502    0  0.73557403839E+02 -0.18757814535E+03  0.88973797930E+03  0.91226636685E+03  0.00000000000E+00 0. -1.
         -1    1    3    3    0  502  0.30597747492E+02 -0.11906417206E+03  0.33422175198E+03  0.35611329477E+03  0.00000000000E+00 0.  1.
         11    1    5    5    0    0 -0.92229044015E+02 -0.26288621380E+02  0.23566198538E+03  0.25442849590E+03  0.00000000000E+00 0. -1.
        -11    1    5    5    0    0 -0.50246501632E+02  0.48008443436E+01  0.42665346016E+03  0.42962883294E+03  0.00000000000E+00 0.  1.
          3    1    6    6  503    0  0.66244048244E+02  0.26767253117E+03 -0.15259793041E+03  0.31515549533E+03  0.00000000000E+00 0. -1.
         -3    1    6    6    0  503 -0.27923653927E+02  0.60457563276E+02 -0.46459559719E+02  0.81199372505E+02  0.00000000000E+00 0.  1.
<mgrwt>
<rscale>  0 0.16340501E+04</rscale>
<asrwt>0</asrwt>
<pdfrwt beam="1">  1        2 0.31046227E+00 0.16340501E+04</pdfrwt>
<pdfrwt beam="2">  1       -1 0.50890322E-01 0.16340501E+04</pdfrwt>
<totfact> 0.27607374E+01</totfact>
</mgrwt>
</event>
<event>
12    6  0.1462228E-007  0.1537832E+04  0.7818608E-02  0.8859677E-01
         -1   -1    0    0    0  501 -0.00000000000E+00  0.00000000000E+00  0.34863049439E+03  0.34863049439E+03  0.00000000000E+00 0.  1.
          2   -1    0    0  501    0  0.00000000000E+00 -0.00000000000E+00 -0.16958700157E+04  0.16958700157E+04  0.00000000000E+00 0. -1.
         24    2    1    2    0    0 -0.47105573462E+03  0.58122512185E+02 -0.23532864322E+03  0.53611374029E+03  0.82259593213E+02 0.  0.
        254    2    1    2    0    0  0.47105573462E+03 -0.58122512185E+02 -0.11119108781E+04  0.15083867698E+04  0.90200505263E+03 0.  0.
         23    2    4    4    0    0  0.25325960837E+03  0.96830711694E+02 -0.11830042530E+04  0.12171140349E+04  0.91383233567E+02 0.  0.
         23    2    4    4    0    0  0.21779612624E+03 -0.15495322388E+03  0.71093374887E+02  0.29127273492E+03  0.91322965124E+02 0.  0.
          4    1    3    3  502    0 -0.32594659051E+02  0.13099879271E+02 -0.42158671902E+02  0.54875971537E+02  0.00000000000E+00 0. -1.
         -3    1    3    3    0  502 -0.43846107556E+03  0.45022632913E+02 -0.19316997132E+03  0.48123776876E+03  0.00000000000E+00 0.  1.
         11    1    5    5    0    0  0.16192830258E+02 -0.89931407733E+01 -0.18391342528E+03  0.18484380522E+03  0.00000000000E+00 0.  1.
        -11    1    5    5    0    0  0.23706677811E+03  0.10582385247E+03 -0.99909082772E+03  0.10322702297E+04  0.00000000000E+00 0. -1.
          4    1    6    6  503    0  0.11106720773E+03 -0.61688773722E+02  0.78497203455E+02  0.14934269446E+03  0.00000000000E+00 0. -1.
         -4    1    6    6    0  503  0.10672891851E+03 -0.93264450157E+02 -0.74038285675E+01  0.14193004047E+03  0.00000000000E+00 0.  1.
<mgrwt>
<rscale>  0 0.15378322E+04</rscale>
<asrwt>0</asrwt>
<pdfrwt beam="1">  1        2 0.26090308E+00 0.15378322E+04</pdfrwt>
<pdfrwt beam="2">  1       -1 0.53635461E-01 0.15378322E+04</pdfrwt>
<totfact> 0.37957323E+01</totfact>
</mgrwt>
</event>
<event>
12    6  0.1462228E-007  0.1515627E+04  0.7818608E-02  0.8874127E-01
         -1   -1    0    0    0  501 -0.00000000000E+00  0.00000000000E+00  0.20078213949E+03  0.20078213949E+03  0.00000000000E+00 0.  1.
          2   -1    0    0  501    0  0.00000000000E+00 -0.00000000000E+00 -0.28602211003E+04  0.28602211003E+04  0.00000000000E+00 0. -1.
         24    2    1    2    0    0 -0.35117906941E+03 -0.92839951056E+02 -0.15460530446E+04  0.15901809846E+04  0.80309101949E+02 0.  0.
        254    2    1    2    0    0  0.35117906941E+03  0.92839951056E+02 -0.11133859162E+04  0.14708222552E+04  0.88979992839E+03 0.  0.
         23    2    4    4    0    0  0.42520495649E+03  0.40557881191E+03 -0.52216082455E+03  0.79171406626E+03  0.94158421454E+02 0.  0.
         23    2    4    4    0    0 -0.74025887076E+02 -0.31273886085E+03 -0.59122509165E+03  0.67910818890E+03  0.91407856231E+02 0.  0.
          4    1    3    3  502    0 -0.15991760471E+03 -0.27258595582E+01 -0.61979154740E+03  0.64009579973E+03  0.00000000000E+00 0. -1.
         -3    1    3    3    0  502 -0.19126146470E+03 -0.90114091498E+02 -0.92626149718E+03  0.95008518487E+03  0.00000000000E+00 0.  1.
         11    1    5    5    0    0  0.22087512878E+03  0.14625098577E+03 -0.22721107231E+03  0.34899863142E+03  0.00000000000E+00 0. -1.
        -11    1    5    5    0    0  0.20432982771E+03  0.25932782614E+03 -0.29494975224E+03  0.44271543484E+03  0.00000000000E+00 0.  1.
          3    1    6    6  503    0 -0.22335907323E+02 -0.61305918712E+01 -0.38716737250E+02  0.45116101958E+02  0.00000000000E+00 0. -1.
         -3    1    6    6    0  503 -0.51689979754E+02 -0.30660826898E+03 -0.55250835440E+03  0.63399208694E+03  0.00000000000E+00 0.  1.
<mgrwt>
<rscale>  0 0.15156270E+04</rscale>
<asrwt>0</asrwt>
<pdfrwt beam="1">  1        2 0.44003396E+00 0.15156270E+04</pdfrwt>
<pdfrwt beam="2">  1       -1 0.30889564E-01 0.15156270E+04</pdfrwt>
<totfact> 0.22764760E+01</totfact>
</mgrwt>
</event>
<event>
12    6  0.1462228E-007  0.1462684E+04  0.7818608E-02  0.8909654E-01
          2   -1    0    0  501    0  0.00000000000E+00  0.00000000000E+00  0.59647199229E+03  0.59647199229E+03  0.00000000000E+00 0. -1.
         -1   -1    0    0    0  501 -0.00000000000E+00 -0.00000000000E+00 -0.89670726083E+03  0.89670726083E+03  0.00000000000E+00 0.  1.
         24    2    1    2    0    0  0.44870118621E+03 -0.32296224969E+02 -0.97512475205E+02  0.46818520816E+03  0.85515528778E+02 0.  0.
        254    2    1    2    0    0 -0.44870118621E+03  0.32296224969E+02 -0.20272279334E+03  0.10249940450E+04  0.89840996244E+03 0.  0.
         23    2    4    4    0    0  0.17370761389E+03 -0.24394687290E+03 -0.13063500364E+02  0.31207443984E+03  0.86806618635E+02 0.  0.
         23    2    4    4    0    0 -0.62240880010E+03  0.27624309787E+03 -0.18965929298E+03  0.71291960512E+03  0.92632350664E+02 0.  0.
          2    1    3    3  502    0  0.40979990985E+03 -0.35595347677E+02 -0.63123047396E+02  0.41615803970E+03  0.00000000000E+00 0. -1.
         -1    1    3    3    0  502  0.38901276358E+02  0.32991227081E+01 -0.34389427810E+02  0.52027168460E+02  0.00000000000E+00 0.  1.
         11    1    5    5    0    0  0.13777057314E+02 -0.18593038916E+02  0.23910418231E+02  0.33274862950E+02  0.00000000000E+00 0. -1.
        -11    1    5    5    0    0  0.15993055657E+03 -0.22535383398E+03 -0.36973918595E+02  0.27879957689E+03  0.00000000000E+00 0.  1.
          2    1    6    6  503    0 -0.40270181254E+02  0.23746650899E+01  0.52973708088E+01  0.40686467898E+02  0.00000000000E+00 0. -1.
         -2    1    6    6    0  503 -0.58213861885E+03  0.27386843278E+03 -0.19495666379E+03  0.67223313722E+03  0.00000000000E+00 0.  1.
<mgrwt>
<rscale>  0 0.14626835E+04</rscale>
<asrwt>0</asrwt>
<pdfrwt beam="1">  1        2 0.91764922E-01 0.14626835E+04</pdfrwt>
<pdfrwt beam="2">  1       -1 0.13795496E+00 0.14626835E+04</pdfrwt>
<totfact> 0.24093991E+01</totfact>
</mgrwt>
</event>
<event>
12    6  0.1462228E-007  0.1388437E+04  0.7818608E-02  0.8962231E-01
         -1   -1    0    0    0  501 -0.00000000000E+00  0.00000000000E+00  0.43980964130E+03  0.43980964130E+03  0.00000000000E+00 0.  1.
          2   -1    0    0  501    0  0.00000000000E+00 -0.00000000000E+00 -0.10957910107E+04  0.10957910107E+04  0.00000000000E+00 0. -1.
         24    2    1    2    0    0 -0.25233246990E+02  0.13898845135E+03  0.22372605732E+03  0.27359978931E+03  0.69634686912E+02 0.  0.
        254    2    1    2    0    0  0.25233246990E+02 -0.13898845135E+03 -0.87970742668E+03  0.12620008627E+04  0.89375976327E+03 0.  0.
         23    2    4    4    0    0  0.43430850011E+03  0.10400074000E+02 -0.55991329244E+03  0.71456748097E+03  0.91497295058E+02 0.  0.
         23    2    4    4    0    0 -0.40907525312E+03 -0.14938852535E+03 -0.31979413424E+03  0.54743338169E+03  0.88065457872E+02 0.  0.
          4    1    3    3  502    0 -0.21388570322E+02  0.18129416159E+02  0.13594487313E+02  0.31160179010E+02  0.00000000000E+00 0. -1.
         -3    1    3    3    0  502 -0.38446766682E+01  0.12085903519E+03  0.21013157001E+03  0.24243961029E+03  0.00000000000E+00 0.  1.
         11    1    5    5    0    0  0.67618063466E-01  0.63537228995E+01 -0.23837460476E+02  0.24669797098E+02  0.00000000000E+00 0.  1.
        -11    1    5    5    0    0  0.43424088205E+03  0.40463511008E+01 -0.53607583196E+03  0.68989768388E+03  0.00000000000E+00 0. -1.
          2    1    6    6  503    0 -0.23758058263E+03 -0.76816470675E+02 -0.23475368962E+03  0.34271649829E+03  0.00000000000E+00 0. -1.
         -2    1    6    6    0  503 -0.17149467050E+03 -0.72572054678E+02 -0.85040444619E+02  0.20471688340E+03  0.00000000000E+00 0.  1.
<mgrwt>
<rscale>  0 0.13884372E+04</rscale>
<asrwt>0</asrwt>
<pdfrwt beam="1">  1        2 0.16858323E+00 0.13884372E+04</pdfrwt>
<pdfrwt beam="2">  1       -1 0.67663021E-01 0.13884372E+04</pdfrwt>
<totfact> 0.53864780E+01</totfact>
</mgrwt>
</event>
<event>
12    6  0.1462228E-007  0.1289275E+04  0.7818608E-02  0.9038114E-01
          2   -1    0    0  501    0  0.00000000000E+00  0.00000000000E+00  0.62080314695E+03  0.62080314695E+03  0.00000000000E+00 0. -1.
         -1   -1    0    0    0  501 -0.00000000000E+00 -0.00000000000E+00 -0.66938713997E+03  0.66938713997E+03  0.00000000000E+00 0.  1.
         24    2    1    2    0    0 -0.63135146590E+02 -0.30455933523E+03  0.45604190504E+02  0.32375712688E+03  0.77437068665E+02 0.  0.
        254    2    1    2    0    0  0.63135146590E+02  0.30455933523E+03 -0.94188183523E+02  0.96643316003E+03  0.91015339557E+03 0.  0.
         23    2    4    4    0    0  0.39488296495E+03 -0.10657024023E+03  0.57818235154E+01  0.42075430247E+03  0.98544312169E+02 0.  0.
         23    2    4    4    0    0 -0.33174781836E+03  0.41112957546E+03 -0.99970007039E+02  0.54567885755E+03  0.93205528114E+02 0.  0.
          4    1    3    3  502    0  0.61475667562E+01 -0.86312569351E+02 -0.12732609491E+02  0.87462972448E+02  0.00000000000E+00 0. -1.
         -3    1    3    3    0  502 -0.69282713347E+02 -0.21824676588E+03  0.58336799994E+02  0.23629415444E+03  0.00000000000E+00 0.  1.
         11    1    5    5    0    0  0.26331007187E+03 -0.10666775039E+03 -0.26349704770E+02  0.28531475578E+03  0.00000000000E+00 0.  1.
        -11    1    5    5    0    0  0.13157289307E+03  0.97510158866E-01  0.32131528285E+02  0.13543954670E+03  0.00000000000E+00 0. -1.
          2    1    6    6  503    0 -0.15031145656E+02  0.65537088044E+02 -0.53051186770E+01  0.67447679969E+02  0.00000000000E+00 0. -1.
         -2    1    6    6    0  503 -0.31671667270E+03  0.34559248742E+03 -0.94664888362E+02  0.47823117758E+03  0.00000000000E+00 0.  1.
<mgrwt>
<rscale>  0 0.12892752E+04</rscale>
<asrwt>0</asrwt>
<pdfrwt beam="1">  1        2 0.95508177E-01 0.12892752E+04</pdfrwt>
<pdfrwt beam="2">  1       -1 0.10298264E+00 0.12892752E+04</pdfrwt>
<totfact> 0.47523095E+01</totfact>
</mgrwt>
</event>
<event>
12    6  0.1462228E-007  0.1897085E+04  0.7818608E-02  0.8656309E-01
         -1   -1    0    0    0  501 -0.00000000000E+00  0.00000000000E+00  0.51536495978E+03  0.51536495978E+03  0.00000000000E+00 0.  1.
          2   -1    0    0  501    0  0.00000000000E+00 -0.00000000000E+00 -0.17458164762E+04  0.17458164762E+04  0.00000000000E+00 0. -1.
         24    2    1    2    0    0  0.50020270852E+03  0.42096440963E+03 -0.10611270642E+03  0.66717720372E+03  0.80322667518E+02 0.  0.
        254    2    1    2    0    0 -0.50020270852E+03 -0.42096440963E+03 -0.11243388100E+04  0.15940042322E+04  0.92157362645E+03 0.  0.
         23    2    4    4    0    0  0.13280629223E+03 -0.45517510012E+03 -0.57277765902E+03  0.74915724246E+03  0.91326032587E+02 0.  0.
         23    2    4    4    0    0 -0.63300900075E+03  0.34210690488E+02 -0.55156115097E+03  0.84484698979E+03  0.87612593384E+02 0.  0.
          4    1    3    3  502    0  0.19698060349E+03  0.11629209166E+03 -0.42115645626E+02  0.23259178047E+03  0.00000000000E+00 0. -1.
         -3    1    3    3    0  502  0.30322210503E+03  0.30467231797E+03 -0.63997060792E+02  0.43458542326E+03  0.00000000000E+00 0.  1.
         11    1    5    5    0    0  0.13185372320E+03 -0.45957306690E+03 -0.56476798397E+03  0.73997005606E+03  0.00000000000E+00 0. -1.
        -11    1    5    5    0    0  0.95256902714E+00  0.43979667807E+01 -0.80096750453E+01  0.91871863966E+01  0.00000000000E+00 0.  1.
          2    1    6    6  503    0 -0.58488267596E+03  0.14503829859E+02 -0.48226313892E+03  0.75820567189E+03  0.00000000000E+00 0. -1.
         -2    1    6    6    0  503 -0.48126324789E+02  0.19706860629E+02 -0.69298012049E+02  0.86641317900E+02  0.00000000000E+00 0.  1.
<mgrwt>
<rscale>  0 0.18970848E+04</rscale>
<asrwt>0</asrwt>
<pdfrwt beam="1">  1        2 0.26858715E+00 0.18970848E+04</pdfrwt>
<pdfrwt beam="2">  1       -1 0.79286917E-01 0.18970848E+04</pdfrwt>
<totfact> 0.15687485E+01</totfact>
</mgrwt>
</event>
<event>
12    6  0.1462228E-007  0.1249438E+04  0.7818608E-02  0.9070651E-01
          2   -1    0    0  501    0  0.00000000000E+00  0.00000000000E+00  0.31429341965E+03  0.31429341965E+03  0.00000000000E+00 0. -1.
         -1   -1    0    0    0  501 -0.00000000000E+00 -0.00000000000E+00 -0.12417493725E+04  0.12417493725E+04  0.00000000000E+00 0.  1.
         24    2    1    2    0    0 -0.11500330503E+03  0.62862183482E+02 -0.51197548183E+03  0.53466167732E+03  0.81035800213E+02 0.  0.
        254    2    1    2    0    0  0.11500330503E+03 -0.62862183482E+02 -0.41548047100E+03  0.10213811148E+04  0.92380622731E+03 0.  0.
         23    2    4    4    0    0 -0.37034466831E+03  0.12782623903E+03 -0.14824486471E+03  0.42815785389E+03  0.88588301742E+02 0.  0.
         23    2    4    4    0    0  0.48534797334E+03 -0.19068842251E+03 -0.26723560629E+03  0.59322326091E+03  0.92597183061E+02 0.  0.
          4    1    3    3  502    0  0.12150728071E+02  0.10739313992E+02 -0.42579998446E+02  0.45563464808E+02  0.00000000000E+00 0. -1.
         -3    1    3    3    0  502 -0.12715403310E+03  0.52122869490E+02 -0.46939548339E+03  0.48909821251E+03  0.00000000000E+00 0.  1.
         11    1    5    5    0    0 -0.12104279551E+03  0.11441234841E+01 -0.58689263974E+02  0.13452545138E+03  0.00000000000E+00 0.  1.
        -11    1    5    5    0    0 -0.24930187281E+03  0.12668211555E+03 -0.89555600736E+02  0.29363240252E+03  0.00000000000E+00 0. -1.
          1    1    6    6  503    0  0.40840698837E+03 -0.12552627548E+03 -0.23349142962E+03  0.48689974501E+03  0.00000000000E+00 0. -1.
         -1    1    6    6    0  503  0.76940984969E+02 -0.65162147034E+02 -0.33744176668E+02  0.10632351590E+03  0.00000000000E+00 0.  1.
<mgrwt>
<rscale>  0 0.12494377E+04</rscale>
<asrwt>0</asrwt>
<pdfrwt beam="1">  1        2 0.48352834E-01 0.12494377E+04</pdfrwt>
<pdfrwt beam="2">  1       -1 0.19103837E+00 0.12494377E+04</pdfrwt>
<totfact> 0.20405407E+01</totfact>
</mgrwt>
</event>
<event>
12    6  0.1462228E-007  0.1724214E+04  0.7818608E-02  0.8747674E-01
          2   -1    0    0  501    0  0.00000000000E+00  0.00000000000E+00  0.65609029972E+03  0.65609029972E+03  0.00000000000E+00 0. -1.
         -1   -1    0    0    0  501 -0.00000000000E+00 -0.00000000000E+00 -0.11328142527E+04  0.11328142527E+04  0.00000000000E+00 0.  1.
         24    2    1    2    0    0 -0.16370612785E+03 -0.57498403168E+02 -0.81794587007E+03  0.83980029797E+03  0.78251718463E+02 0.  0.
        254    2    1    2    0    0  0.16370612785E+03  0.57498403168E+02  0.34122191707E+03  0.94910425448E+03  0.86848185158E+03 0.  0.
         23    2    4    4    0    0  0.41332995514E+03 -0.77974147503E+02 -0.73163208763E+02  0.43856014087E+03  0.10030215625E+03 0.  0.
         23    2    4    4    0    0 -0.24962382729E+03  0.13547255067E+03  0.41438512583E+03  0.51054411361E+03  0.90969183220E+02 0.  0.
          2    1    3    3  502    0 -0.10255628434E+03 -0.25767933877E+01 -0.55166537541E+03  0.56112308610E+03  0.00000000000E+00 0. -1.
         -1    1    3    3    0  502 -0.61149843507E+02 -0.54921609780E+02 -0.26628049466E+03  0.27867721187E+03  0.00000000000E+00 0.  1.
         11    1    5    5    0    0  0.10750793743E+03  0.22728905751E+02 -0.89874423019E+01  0.11025123077E+03  0.00000000000E+00 0. -1.
        -11    1    5    5    0    0  0.30582201771E+03 -0.10070305325E+03 -0.64175766461E+02  0.32830891010E+03  0.00000000000E+00 0.  1.
          1    1    6    6  503    0 -0.19362935660E+02  0.36971686330E+02  0.10167208716E+03  0.10990469587E+03  0.00000000000E+00 0. -1.
         -1    1    6    6    0  503 -0.23026089163E+03  0.98500864341E+02  0.31271303867E+03  0.40063941774E+03  0.00000000000E+00 0.  1.
<mgrwt>
<rscale>  0 0.17242140E+04</rscale>
<asrwt>0</asrwt>
<pdfrwt beam="1">  1        2 0.10093697E+00 0.17242140E+04</pdfrwt>
<pdfrwt beam="2">  1       -1 0.17427912E+00 0.17242140E+04</pdfrwt>
<totfact> 0.11036509E+01</totfact>
</mgrwt>
</event>
<event>
12    6  0.1462228E-007  0.2165833E+04  0.7818608E-02  0.8532785E-01
         -1   -1    0    0    0  501 -0.00000000000E+00  0.00000000000E+00  0.80580127991E+03  0.80580127991E+03  0.00000000000E+00 0.  1.
          2   -1    0    0  501    0  0.00000000000E+00 -0.00000000000E+00 -0.14553321187E+04  0.14553321187E+04  0.00000000000E+00 0. -1.
         24    2    1    2    0    0  0.24746079327E+03 -0.43176158504E+02  0.62187473852E+03  0.67543475710E+03  0.79893027335E+02 0.  0.
        254    2    1    2    0    0 -0.24746079327E+03  0.43176158504E+02 -0.12714055773E+04  0.15856986415E+04  0.91371057494E+03 0.  0.
         23    2    4    4    0    0  0.25027326472E+03  0.62715649223E+02 -0.94385020588E+03  0.98267937291E+03  0.90750091499E+02 0.  0.
         23    2    4    4    0    0 -0.49773405800E+03 -0.19539490719E+02 -0.32755537140E+03  0.60301926857E+03  0.90657226624E+02 0.  0.
          4    1    3    3  502    0  0.59929998806E+01  0.12897043619E+02  0.53411457113E+02  0.55272357762E+02  0.00000000000E+00 0. -1.
         -3    1    3    3    0  502  0.24146779339E+03 -0.56073202123E+02  0.56846328141E+03  0.62016239934E+03  0.00000000000E+00 0.  1.
         11    1    5    5    0    0  0.23870716068E+03  0.62864834892E+02 -0.93756299976E+03  0.96951404040E+03  0.00000000000E+00 0.  1.
        -11    1    5    5    0    0  0.11566104048E+02 -0.14918566959E+00 -0.62872061273E+01  0.13165332510E+02  0.00000000000E+00 0. -1.
          3    1    6    6  503    0 -0.43248301626E+03 -0.25897606210E+02 -0.31646433479E+03  0.53652765125E+03  0.00000000000E+00 0. -1.
         -3    1    6    6    0  503 -0.65251041735E+02  0.63581154909E+01 -0.11091036614E+02  0.66491617316E+02  0.00000000000E+00 0.  1.
<mgrwt>
<rscale>  0 0.21658333E+04</rscale>
<asrwt>0</asrwt>
<pdfrwt beam="1">  1        2 0.22389725E+00 0.21658333E+04</pdfrwt>
<pdfrwt beam="2">  1       -1 0.12396943E+00 0.21658333E+04</pdfrwt>
<totfact> 0.80282404E+00</totfact>
</mgrwt>
</event>
<event>
12    6  0.1462228E-007  0.2849514E+04  0.7818608E-02  0.8288059E-01
          2   -1    0    0  501    0  0.00000000000E+00  0.00000000000E+00  0.28098795226E+04  0.28098795226E+04  0.00000000000E+00 0. -1.
         -1   -1    0    0    0  501 -0.00000000000E+00 -0.00000000000E+00 -0.72242667629E+03  0.72242667629E+03  0.00000000000E+00 0.  1.
         24    2    1    2    0    0  0.58320440510E+03  0.67469488936E+03 -0.19962278230E+03  0.91748780525E+03  0.81203729640E+02 0.  0.
        254    2    1    2    0    0 -0.58320440510E+03 -0.67469488936E+03  0.22870756286E+04  0.26148183937E+04  0.90067737227E+03 0.  0.
         23    2    4    4    0    0 -0.61574136889E+03 -0.93512004281E+02  0.82364793308E+03  0.10368178334E+04  0.93345453094E+02 0.  0.
         23    2    4    4    0    0  0.32536963784E+02 -0.58118288508E+03  0.14634276956E+04  0.15780005603E+04  0.98147584187E+02 0.  0.
          4    1    3    3  502    0  0.18839491834E+02  0.42697283847E+02 -0.22743179546E+02  0.51915669275E+02  0.00000000000E+00 0. -1.
         -3    1    3    3    0  502  0.56436491327E+03  0.63199760552E+03 -0.17687960275E+03  0.86557213598E+03  0.00000000000E+00 0.  1.
         11    1    5    5    0    0 -0.20808637239E+03 -0.49785593008E+02  0.21807120818E+03  0.30550547538E+03  0.00000000000E+00 0.  1.
        -11    1    5    5    0    0 -0.40765499650E+03 -0.43726411273E+02  0.60557672490E+03  0.73131235799E+03  0.00000000000E+00 0. -1.
          4    1    6    6  503    0  0.29475143724E+02 -0.39043865364E+03  0.85555265882E+03  0.94089397828E+03  0.00000000000E+00 0. -1.
         -4    1    6    6    0  503  0.30618200601E+01 -0.19074423144E+03  0.60787503675E+03  0.63710658203E+03  0.00000000000E+00 0.  1.
<mgrwt>
<rscale>  0 0.28495136E+04</rscale>
<asrwt>0</asrwt>
<pdfrwt beam="1">  1        2 0.43228915E+00 0.28495136E+04</pdfrwt>
<pdfrwt beam="2">  1       -1 0.11114257E+00 0.28495136E+04</pdfrwt>
<totfact> 0.16722648E+00</totfact>
</mgrwt>
</event>
<event>
12    6  0.1462228E-007  0.2299567E+04  0.7818608E-02  0.8478092E-01
          2   -1    0    0  501    0  0.00000000000E+00  0.00000000000E+00  0.17280694172E+04  0.17280694172E+04  0.00000000000E+00 0. -1.
         -1   -1    0    0    0  501 -0.00000000000E+00 -0.00000000000E+00 -0.76501672402E+03  0.76501672402E+03  0.00000000000E+00 0.  1.
         24    2    1    2    0    0  0.36020173036E+03  0.20273297193E+03  0.13605212246E+04  0.14239650397E+04  0.76239671100E+02 0.  0.
        254    2    1    2    0    0 -0.36020173036E+03 -0.20273297193E+03 -0.39746853138E+03  0.10691211015E+04  0.90232630003E+03 0.  0.
         23    2    4    4    0    0  0.16020456626E+03 -0.27149125848E+02 -0.47206516816E+03  0.50721591344E+03  0.89553792596E+02 0.  0.
         23    2    4    4    0    0 -0.52040629663E+03 -0.17558384608E+03  0.74596636787E+02  0.56190518803E+03  0.92305912847E+02 0.  0.
          4    1    3    3  502    0  0.31647481078E+03  0.15026179731E+03  0.11819152274E+04  0.12327443037E+04  0.00000000000E+00 0. -1.
         -3    1    3    3    0  502  0.43726919585E+02  0.52471174613E+02  0.17860599714E+03  0.19122073600E+03  0.00000000000E+00 0.  1.
         11    1    5    5    0    0  0.56385838515E+02  0.27688373473E+02 -0.11102277178E+03  0.12756200321E+03  0.00000000000E+00 0. -1.
        -11    1    5    5    0    0  0.10381872775E+03 -0.54837499321E+02 -0.36104239639E+03  0.37965391023E+03  0.00000000000E+00 0.  1.
          2    1    6    6  503    0 -0.32636811987E+03 -0.15595775501E+03  0.41517530686E+02  0.36409157690E+03  0.00000000000E+00 0. -1.
         -2    1    6    6    0  503 -0.19403817676E+03 -0.19626091072E+02  0.33079106101E+02  0.19781361113E+03  0.00000000000E+00 0.  1.
<mgrwt>
<rscale>  0 0.22995669E+04</rscale>
<asrwt>0</asrwt>
<pdfrwt beam="1">  1        2 0.26585683E+00 0.22995669E+04</pdfrwt>
<pdfrwt beam="2">  1       -1 0.11769488E+00 0.22995669E+04</pdfrwt>
<totfact> 0.63392085E+00</totfact>
</mgrwt>
</event>
<event>
12    6  0.1462228E-007  0.2836912E+04  0.7818608E-02  0.8291899E-01
          2   -1    0    0  501    0  0.00000000000E+00  0.00000000000E+00  0.13669115531E+04  0.13669115531E+04  0.00000000000E+00 0. -1.
         -1   -1    0    0    0  501 -0.00000000000E+00 -0.00000000000E+00 -0.14719439173E+04  0.14719439173E+04  0.00000000000E+00 0.  1.
         24    2    1    2    0    0 -0.64852633498E+03 -0.10499864661E+04 -0.36914404091E+03  0.12906868457E+04  0.80914921463E+02 0.  0.
        254    2    1    2    0    0  0.64852633498E+03  0.10499864661E+04  0.26411167665E+03  0.15481686247E+04  0.89666779060E+03 0.  0.
         23    2    4    4    0    0  0.41777689084E+03  0.11216414040E+04  0.31539726874E+02  0.12007309270E+04  0.90238766447E+02 0.  0.
         23    2    4    4    0    0  0.23074944414E+03 -0.71654937896E+02  0.23257194978E+03  0.34743769776E+03  0.90793754744E+02 0.  0.
          2    1    3    3  502    0 -0.28345932516E+03 -0.42699229350E+03 -0.11560845101E+03  0.52539215989E+03  0.00000000000E+00 0. -1.
         -1    1    3    3    0  502 -0.36506700982E+03 -0.62299417257E+03 -0.25353558990E+03  0.76529468576E+03  0.00000000000E+00 0.  1.
         11    1    5    5    0    0  0.36556683130E+03  0.95165002878E+03 -0.36413857126E+01  0.10194558083E+04  0.00000000000E+00 0. -1.
        -11    1    5    5    0    0  0.52210059538E+02  0.16999137519E+03  0.35181112587E+02  0.18127511864E+03  0.00000000000E+00 0.  1.
          3    1    6    6  503    0  0.16660879631E+03 -0.56802491079E+02  0.10794077925E+03  0.20648541310E+03  0.00000000000E+00 0. -1.
         -3    1    6    6    0  503  0.64140647837E+02 -0.14852446817E+02  0.12463117053E+03  0.14095228465E+03  0.00000000000E+00 0.  1.
<mgrwt>
<rscale>  0 0.28369118E+04</rscale>
<asrwt>0</asrwt>
<pdfrwt beam="1">  1        2 0.21029409E+00 0.28369118E+04</pdfrwt>
<pdfrwt beam="2">  1       -1 0.22645291E+00 0.28369118E+04</pdfrwt>
<totfact> 0.14887714E+00</totfact>
</mgrwt>
</event>
<event>
12    6  0.1462228E-007  0.3017171E+04  0.7818608E-02  0.8238845E-01
          2   -1    0    0  501    0  0.00000000000E+00  0.00000000000E+00  0.11495731938E+04  0.11495731938E+04  0.00000000000E+00 0. -1.
         -1   -1    0    0    0  501 -0.00000000000E+00 -0.00000000000E+00 -0.19797176171E+04  0.19797176171E+04  0.00000000000E+00 0.  1.
         24    2    1    2    0    0 -0.35809729464E+03 -0.11473353653E+04 -0.10871265124E+04  0.16240840856E+04  0.10579674163E+03 0.  0.
        254    2    1    2    0    0  0.35809729464E+03  0.11473353653E+04  0.25698208904E+03  0.15052067253E+04  0.86890470080E+03 0.  0.
         23    2    4    4    0    0  0.15677142740E+03 -0.10145936110E+03  0.87926881826E+02  0.22572560301E+03  0.91376303843E+02 0.  0.
         23    2    4    4    0    0  0.20132586724E+03  0.12487947264E+04  0.16905520721E+03  0.12794811223E+04  0.92042956689E+02 0.  0.
          2    1    3    3  502    0 -0.34991437482E+03 -0.11313229155E+04 -0.10493033006E+04  0.15822038508E+04  0.00000000000E+00 0. -1.
         -1    1    3    3    0  502 -0.81829198211E+01 -0.16012449811E+02 -0.37823211729E+02  0.41880234852E+02  0.00000000000E+00 0.  1.
         11    1    5    5    0    0  0.18875732460E+02 -0.43243181951E+02 -0.81231717318E+01  0.47877468398E+02  0.00000000000E+00 0. -1.
        -11    1    5    5    0    0  0.13789569494E+03 -0.58216179146E+02  0.96050053558E+02  0.17784813461E+03  0.00000000000E+00 0.  1.
          3    1    6    6  503    0  0.14148933404E+03  0.58894249741E+03  0.79179747991E+02  0.61085344346E+03  0.00000000000E+00 0. -1.
         -3    1    6    6    0  503  0.59836533204E+02  0.65985222896E+03  0.89875459222E+02  0.66862767886E+03  0.00000000000E+00 0.  1.
<mgrwt>
<rscale>  0 0.30171711E+04</rscale>
<asrwt>0</asrwt>
<pdfrwt beam="1">  1        2 0.17685742E+00 0.30171711E+04</pdfrwt>
<pdfrwt beam="2">  1       -1 0.30457194E+00 0.30171711E+04</pdfrwt>
<totfact> 0.61016742E-01</totfact>
</mgrwt>
</event>
<event>
12    6  0.1462228E-007  0.1356087E+04  0.7818608E-02  0.8986233E-01
         -1   -1    0    0    0  501 -0.00000000000E+00  0.00000000000E+00  0.40933531621E+03  0.40933531621E+03  0.00000000000E+00 0.  1.
          2   -1    0    0  501    0  0.00000000000E+00 -0.00000000000E+00 -0.11231444488E+04  0.11231444488E+04  0.00000000000E+00 0. -1.
         24    2    1    2    0    0 -0.35470956267E+03 -0.26124894147E+02 -0.68313834136E+02  0.37037950526E+03  0.77542337045E+02 0.  0.
        254    2    1    2    0    0  0.35470956267E+03  0.26124894147E+02 -0.64549529849E+03  0.11621002598E+04  0.89850511935E+03 0.  0.
         23    2    4    4    0    0 -0.82165272007E+02  0.21217009997E+03  0.10625822527E+03  0.26835938216E+03  0.94650220873E+02 0.  0.
         23    2    4    4    0    0  0.43687483468E+03 -0.18604520582E+03 -0.75175352376E+03  0.89374087763E+03  0.90371212625E+02 0.  0.
          2    1    3    3  502    0 -0.17199679988E+02 -0.10277290142E+02  0.11632869614E+02  0.23168412544E+02  0.00000000000E+00 0. -1.
         -1    1    3    3    0  502 -0.33750988268E+03 -0.15847604005E+02 -0.79946703750E+02  0.34721109271E+03  0.00000000000E+00 0.  1.
         11    1    5    5    0    0 -0.38302348647E+02  0.14544327546E+03  0.11314717547E+03  0.18821025372E+03  0.00000000000E+00 0.  1.
        -11    1    5    5    0    0 -0.43862923360E+02  0.66726824507E+02 -0.68889502020E+01  0.80149128438E+02  0.00000000000E+00 0. -1.
          1    1    6    6  503    0  0.27244744214E+03 -0.11649342181E+03 -0.38482107439E+03  0.48568053837E+03  0.00000000000E+00 0. -1.
         -1    1    6    6    0  503  0.16442739254E+03 -0.69551784015E+02 -0.36693244937E+03  0.40806033926E+03  0.00000000000E+00 0.  1.
<mgrwt>
<rscale>  0 0.13560866E+04</rscale>
<asrwt>0</asrwt>
<pdfrwt beam="1">  1        2 0.17279146E+00 0.13560866E+04</pdfrwt>
<pdfrwt beam="2">  1       -1 0.62974663E-01 0.13560866E+04</pdfrwt>
<totfact> 0.60040168E+01</totfact>
</mgrwt>
</event>
<event>
12    6  0.1462228E-007  0.1637481E+04  0.7818608E-02  0.8797847E-01
          2   -1    0    0  501    0  0.00000000000E+00  0.00000000000E+00  0.68892010207E+03  0.68892010207E+03  0.00000000000E+00 0. -1.
         -1   -1    0    0    0  501 -0.00000000000E+00 -0.00000000000E+00 -0.97302462633E+03  0.97302462633E+03  0.00000000000E+00 0.  1.
         24    2    1    2    0    0  0.35501562219E+03 -0.15010332328E+03  0.32392029576E+03  0.50978430524E+03  0.79928594457E+02 0.  0.
        254    2    1    2    0    0 -0.35501562219E+03  0.15010332328E+03 -0.60802482002E+03  0.11521604232E+04  0.89956231539E+03 0.  0.
         23    2    4    4    0    0  0.23134936632E+03  0.77688221193E+02 -0.47177334814E+03  0.53883439229E+03  0.90633444684E+02 0.  0.
         23    2    4    4    0    0 -0.58636498850E+03  0.72415102091E+02 -0.13625147188E+03  0.61332603086E+03  0.92393234554E+02 0.  0.
          4    1    3    3  502    0  0.32178977952E+03 -0.14236696997E+03  0.26063597533E+03  0.43789054338E+03  0.00000000000E+00 0. -1.
         -3    1    3    3    0  502  0.33225842667E+02 -0.77363533133E+01  0.63284320427E+02  0.71893761867E+02  0.00000000000E+00 0.  1.
         11    1    5    5    0    0  0.17058817458E+03  0.61000011004E+02 -0.25305531824E+03  0.31122069459E+03  0.00000000000E+00 0.  1.
        -11    1    5    5    0    0  0.60761191736E+02  0.16688210188E+02 -0.21871802990E+03  0.22761369771E+03  0.00000000000E+00 0. -1.
          1    1    6    6  503    0 -0.31663959623E+03  0.29775897642E+02 -0.26906596164E+02  0.31917268507E+03  0.00000000000E+00 0. -1.
         -1    1    6    6    0  503 -0.26972539227E+03  0.42639204449E+02 -0.10934487571E+03  0.29415334579E+03  0.00000000000E+00 0.  1.
<mgrwt>
<rscale>  0 0.16374813E+04</rscale>
<asrwt>0</asrwt>
<pdfrwt beam="1">  1        2 0.10598771E+00 0.16374813E+04</pdfrwt>
<pdfrwt beam="2">  1       -1 0.14969610E+00 0.16374813E+04</pdfrwt>
<totfact> 0.16018297E+01</totfact>
</mgrwt>
</event>
<event>
12    6  0.1462228E-007  0.2289730E+04  0.7818608E-02  0.8481981E-01
          2   -1    0    0  501    0  0.00000000000E+00  0.00000000000E+00  0.15469764325E+04  0.15469764325E+04  0.00000000000E+00 0. -1.
         -3   -1    0    0    0  501 -0.00000000000E+00 -0.00000000000E+00 -0.84727603350E+03  0.84727603350E+03  0.00000000000E+00 0.  1.
         24    2    1    2    0    0 -0.32960124964E+03 -0.66890833416E+03  0.88875675031E+03  0.11629183681E+04  0.80095108356E+02 0.  0.
        254    2    1    2    0    0  0.32960124964E+03  0.66890833416E+03 -0.18905635134E+03  0.12313340979E+04  0.96143955259E+03 0.  0.
         23    2    4    4    0    0  0.53692640992E+03  0.28160782872E+03  0.19267693761E+03  0.64174959101E+03  0.84410878510E+02 0.  0.
         23    2    4    4    0    0 -0.20732516027E+03  0.38730050544E+03 -0.38173328896E+03  0.58958450685E+03  0.94361979771E+02 0.  0.
          2    1    3    3  502    0 -0.31608342401E+03 -0.65117473505E+03  0.87874102977E+03  0.11384740067E+04  0.00000000000E+00 0. -1.
         -1    1    3    3    0  502 -0.13517825637E+02 -0.17733599109E+02  0.10015720542E+02  0.24444361421E+02  0.00000000000E+00 0.  1.
         11    1    5    5    0    0  0.49542228727E+03  0.25433713179E+03  0.15122412950E+03  0.57706096443E+03  0.00000000000E+00 0. -1.
        -11    1    5    5    0    0  0.41504122649E+02  0.27270696931E+02  0.41452808115E+02  0.64688626578E+02  0.00000000000E+00 0.  1.
          1    1    6    6  503    0 -0.91002642378E+02  0.86375074718E+02 -0.87771318530E+02  0.15312066748E+03  0.00000000000E+00 0. -1.
         -1    1    6    6    0  503 -0.11632251789E+03  0.30092543072E+03 -0.29396197043E+03  0.43646383937E+03  0.00000000000E+00 0.  1.
<mgrwt>
<rscale>  0 0.22897302E+04</rscale>
<asrwt>0</asrwt>
<pdfrwt beam="1">  1        2 0.23799637E+00 0.22897302E+04</pdfrwt>
<pdfrwt beam="2">  1       -3 0.13035016E+00 0.22897302E+04</pdfrwt>
<totfact> 0.31709289E+00</totfact>
</mgrwt>
</event>
<event>
12    6  0.1462228E-007  0.1644103E+04  0.7818608E-02  0.8793903E-01
          2   -1    0    0  501    0  0.00000000000E+00  0.00000000000E+00  0.15208133084E+04  0.15208133084E+04  0.00000000000E+00 0. -1.
         -1   -1    0    0    0  501 -0.00000000000E+00 -0.00000000000E+00 -0.44434704997E+03  0.44434704997E+03  0.00000000000E+00 0.  1.
         24    2    1    2    0    0 -0.20634213992E+03  0.51774501481E+03  0.54839209348E+03  0.78582497367E+03  0.78422075926E+02 0.  0.
        254    2    1    2    0    0  0.20634213992E+03 -0.51774501481E+03  0.52807416491E+03  0.11793353847E+04  0.89517185322E+03 0.  0.
         23    2    4    4    0    0  0.51781412222E+03 -0.49850303856E+03  0.41565995193E+03  0.83519789769E+03  0.90252911562E+02 0.  0.
         23    2    4    4    0    0 -0.31147198230E+03 -0.19241976246E+02  0.11241421298E+03  0.34413748696E+03  0.91698447358E+02 0.  0.
          4    1    3    3  502    0 -0.16303069838E+03  0.43863852662E+03  0.41915407386E+03  0.62822997643E+03  0.00000000000E+00 0. -1.
         -3    1    3    3    0  502 -0.43311441535E+02  0.79106488187E+02  0.12923801961E+03  0.15759499724E+03  0.00000000000E+00 0.  1.
         11    1    5    5    0    0  0.20774368318E+03 -0.20296732007E+03  0.11755468155E+03  0.31332455070E+03  0.00000000000E+00 0. -1.
        -11    1    5    5    0    0  0.31007043904E+03 -0.29553571849E+03  0.29810527039E+03  0.52187334700E+03  0.00000000000E+00 0.  1.
          1    1    6    6  503    0 -0.18940698111E+03  0.20075681874E+02  0.10046814914E+03  0.21534132555E+03  0.00000000000E+00 0. -1.
         -1    1    6    6    0  503 -0.12206500119E+03 -0.39317658119E+02  0.11946063837E+02  0.12879616142E+03  0.00000000000E+00 0.  1.
<mgrwt>
<rscale>  0 0.16441033E+04</rscale>
<asrwt>0</asrwt>
<pdfrwt beam="1">  1        2 0.23397128E+00 0.16441033E+04</pdfrwt>
<pdfrwt beam="2">  1       -1 0.68361086E-01 0.16441033E+04</pdfrwt>
<totfact> 0.29140986E+01</totfact>
</mgrwt>
</event>
<event>
12    6  0.1462228E-007  0.1508962E+04  0.7818608E-02  0.8878515E-01
          2   -1    0    0  501    0  0.00000000000E+00  0.00000000000E+00  0.20553075459E+04  0.20553075459E+04  0.00000000000E+00 0. -1.
         -1   -1    0    0    0  501 -0.00000000000E+00 -0.00000000000E+00 -0.27696159514E+03  0.27696159514E+03  0.00000000000E+00 0.  1.
         24    2    1    2    0    0 -0.20560739545E+03 -0.19026016036E+03  0.10090994842E+04  0.10503212340E+04  0.80122380566E+02 0.  0.
        254    2    1    2    0    0  0.20560739545E+03  0.19026016036E+03  0.76924646657E+03  0.12819479071E+04  0.98649732913E+03 0.  0.
         23    2    4    4    0    0  0.64731567258E+02 -0.14431794896E+03 -0.18324514430E+03  0.25852122419E+03  0.90755684406E+02 0.  0.
         23    2    4    4    0    0  0.14087582820E+03  0.33457810932E+03  0.95249161088E+03  0.10234266829E+04  0.91506263281E+02 0.  0.
          4    1    3    3  502    0 -0.15487158347E+03 -0.12498890855E+03  0.82238783658E+03  0.84612598848E+03  0.00000000000E+00 0. -1.
         -3    1    3    3    0  502 -0.50735811980E+02 -0.65271251814E+02  0.18671164761E+03  0.20419524550E+03  0.00000000000E+00 0.  1.
         11    1    5    5    0    0  0.40442862666E+02 -0.14541085553E+03 -0.17848693510E+03  0.23374671772E+03  0.00000000000E+00 0.  1.
        -11    1    5    5    0    0  0.24288704593E+02  0.10929065667E+01 -0.47582092027E+01  0.24774506461E+02  0.00000000000E+00 0. -1.
          1    1    6    6  503    0  0.33525616971E+02  0.44688122951E+02  0.24601772329E+03  0.25228102485E+03  0.00000000000E+00 0. -1.
         -1    1    6    6    0  503  0.10735021123E+03  0.28988998637E+03  0.70647388759E+03  0.77114565803E+03  0.00000000000E+00 0.  1.
<mgrwt>
<rscale>  0 0.15089616E+04</rscale>
<asrwt>0</asrwt>
<pdfrwt beam="1">  1        2 0.31620115E+00 0.15089616E+04</pdfrwt>
<pdfrwt beam="2">  1       -1 0.42609477E-01 0.15089616E+04</pdfrwt>
<totfact> 0.37125543E+01</totfact>
</mgrwt>
</event>
<event>
12    6  0.1462228E-007  0.3039274E+04  0.7818608E-02  0.8232604E-01
         -1   -1    0    0    0  501 -0.00000000000E+00  0.00000000000E+00  0.10463933728E+04  0.10463933728E+04  0.00000000000E+00 0.  1.
          2   -1    0    0  501    0  0.00000000000E+00 -0.00000000000E+00 -0.22069107719E+04  0.22069107719E+04  0.00000000000E+00 0. -1.
         24    2    1    2    0    0  0.12880564044E+04  0.20706596268E+03 -0.33590820419E+02  0.13086752464E+04  0.97657275630E+02 0.  0.
        254    2    1    2    0    0 -0.12880564044E+04 -0.20706596268E+03 -0.11269265787E+04  0.19446288983E+04  0.89980688185E+03 0.  0.
         23    2    4    4    0    0 -0.59299165594E+03 -0.42769599900E+03 -0.20119009499E+03  0.76279521809E+03  0.82559789479E+02 0.  0.
         23    2    4    4    0    0 -0.69506474844E+03  0.22063003631E+03 -0.92573648369E+03  0.11818336802E+04  0.89163854953E+02 0.  0.
          4    1    3    3  502    0  0.78844589347E+03  0.10202712671E+03  0.20506606132E+02  0.79528421486E+03  0.00000000000E+00 0. -1.
         -3    1    3    3    0  502  0.49961051091E+03  0.10503883598E+03 -0.54097426552E+02  0.51339103151E+03  0.00000000000E+00 0.  1.
         11    1    5    5    0    0 -0.54913706092E+03 -0.41815192172E+03 -0.19664222129E+03  0.71768426519E+03  0.00000000000E+00 0. -1.
        -11    1    5    5    0    0 -0.43854595022E+02 -0.95440772760E+01 -0.45478737009E+01  0.45110952892E+02  0.00000000000E+00 0.  1.
          3    1    6    6  503    0 -0.35783540661E+03  0.68504750180E+02 -0.44021509662E+03  0.57142664473E+03  0.00000000000E+00 0. -1.
         -3    1    6    6    0  503 -0.33722934183E+03  0.15212528613E+03 -0.48552138707E+03  0.61040703549E+03  0.00000000000E+00 0.  1.
<mgrwt>
<rscale>  0 0.30392741E+04</rscale>
<asrwt>0</asrwt>
<pdfrwt beam="1">  1        2 0.33952473E+00 0.30392741E+04</pdfrwt>
<pdfrwt beam="2">  1       -1 0.16098360E+00 0.30392741E+04</pdfrwt>
<totfact> 0.14263112E+00</totfact>
</mgrwt>
</event>
<event>
12    6  0.1462228E-007  0.2289258E+04  0.7818608E-02  0.8482169E-01
         -1   -1    0    0    0  501 -0.00000000000E+00  0.00000000000E+00  0.93432202392E+03  0.93432202392E+03  0.00000000000E+00 0.  1.
          2   -1    0    0  501    0  0.00000000000E+00 -0.00000000000E+00 -0.14022736967E+04  0.14022736967E+04  0.00000000000E+00 0. -1.
         24    2    1    2    0    0  0.90025557269E+02  0.64236956426E+03  0.47302716253E+03  0.80679285043E+03  0.80104612660E+02 0.  0.
        254    2    1    2    0    0 -0.90025557269E+02 -0.64236956426E+03 -0.94097883534E+03  0.15298028702E+04  0.10169131699E+04 0.  0.
         23    2    4    4    0    0 -0.42719415448E+03 -0.45243294449E+03 -0.15314773585E+03  0.64714233889E+03  0.90269390724E+02 0.  0.
         23    2    4    4    0    0  0.33716859721E+03 -0.18993661977E+03 -0.78783109949E+03  0.88266053133E+03  0.93022522963E+02 0.  0.
          4    1    3    3  502    0  0.88692258099E+02  0.54970829249E+03  0.43513711708E+03  0.70667519706E+03  0.00000000000E+00 0. -1.
         -3    1    3    3    0  502  0.13332991696E+01  0.92661271768E+02  0.37890045448E+02  0.10011765337E+03  0.00000000000E+00 0.  1.
         11    1    5    5    0    0 -0.29606433542E+03 -0.25016854663E+03 -0.88745796405E+02  0.39763577406E+03  0.00000000000E+00 0.  1.
        -11    1    5    5    0    0 -0.13112981906E+03 -0.20226439786E+03 -0.64401939448E+02  0.24950656483E+03  0.00000000000E+00 0. -1.
          1    1    6    6  503    0  0.80796434528E+02 -0.81295673963E+02 -0.29704009008E+03  0.31838634637E+03  0.00000000000E+00 0. -1.
         -1    1    6    6    0  503  0.25637216268E+03 -0.10864094580E+03 -0.49079100940E+03  0.56427418496E+03  0.00000000000E+00 0.  1.
<mgrwt>
<rscale>  0 0.22892577E+04</rscale>
<asrwt>0</asrwt>
<pdfrwt beam="1">  1        2 0.21573441E+00 0.22892577E+04</pdfrwt>
<pdfrwt beam="2">  1       -1 0.14374185E+00 0.22892577E+04</pdfrwt>
<totfact> 0.58329518E+00</totfact>
</mgrwt>
</event>
<event>
12    6  0.1462228E-007  0.2102281E+04  0.7818608E-02  0.8560239E-01
         -1   -1    0    0    0  501 -0.00000000000E+00  0.00000000000E+00  0.39888072449E+03  0.39888072449E+03  0.00000000000E+00 0.  1.
          2   -1    0    0  501    0  0.00000000000E+00 -0.00000000000E+00 -0.27699929889E+04  0.27699929889E+04  0.00000000000E+00 0. -1.
         24    2    1    2    0    0  0.16000621605E+01 -0.31210342961E+03 -0.21761196922E+04  0.21998737515E+04  0.80848606094E+02 0.  0.
        254    2    1    2    0    0 -0.16000621605E+01  0.31210342961E+03 -0.19499257225E+03  0.96899996185E+03  0.89639707265E+03 0.  0.
         23    2    4    4    0    0  0.31340257972E+03  0.27742761242E+03 -0.39525060786E+03  0.58282269966E+03  0.90950531164E+02 0.  0.
         23    2    4    4    0    0 -0.31500264188E+03  0.34675817184E+02  0.20025803561E+03  0.38617726219E+03  0.92738990298E+02 0.  0.
          4    1    3    3  502    0 -0.10136663428E+02 -0.30345239808E+03 -0.19723170312E+04  0.19955501952E+04  0.00000000000E+00 0. -1.
         -3    1    3    3    0  502  0.11736725588E+02 -0.86510315238E+01 -0.20380266097E+03  0.20432355638E+03  0.00000000000E+00 0.  1.
         11    1    5    5    0    0  0.91227996604E+02  0.11408478815E+03 -0.18685628310E+03  0.23717747951E+03  0.00000000000E+00 0. -1.
        -11    1    5    5    0    0  0.22217458311E+03  0.16334282427E+03 -0.20839432476E+03  0.34564522015E+03  0.00000000000E+00 0.  1.
          2    1    6    6  503    0 -0.58687238649E+02  0.12015823725E+02 -0.34624288921E+00  0.59905691584E+02  0.00000000000E+00 0. -1.
         -2    1    6    6    0  503 -0.25631540323E+03  0.22659993459E+02  0.20060427850E+03  0.32627157061E+03  0.00000000000E+00 0.  1.
<mgrwt>
<rscale>  0 0.21022814E+04</rscale>
<asrwt>0</asrwt>
<pdfrwt beam="1">  1        2 0.42615275E+00 0.21022814E+04</pdfrwt>
<pdfrwt beam="2">  1       -1 0.61366268E-01 0.21022814E+04</pdfrwt>
<totfact> 0.68154966E+00</totfact>
</mgrwt>
</event>
<event>
12    6  0.1462228E-007  0.1502191E+04  0.7818608E-02  0.8882997E-01
         -3   -1    0    0    0  501 -0.00000000000E+00  0.00000000000E+00  0.15738641275E+03  0.15738641275E+03  0.00000000000E+00 0.  1.
          2   -1    0    0  501    0  0.00000000000E+00 -0.00000000000E+00 -0.35844564249E+04  0.35844564249E+04  0.00000000000E+00 0. -1.
         24    2    1    2    0    0 -0.45084244068E+03 -0.54025918446E+02 -0.13764561306E+04  0.14513457789E+04  0.74802301774E+02 0.  0.
        254    2    1    2    0    0  0.45084244068E+03  0.54025918446E+02 -0.20506138816E+04  0.22904970588E+04  0.91388280359E+03 0.  0.
         23    2    4    4    0    0  0.11317075041E+03  0.25131357967E+03 -0.17847225568E+04  0.18082251591E+04  0.92073269273E+02 0.  0.
         23    2    4    4    0    0  0.33767169027E+03 -0.19728766122E+03 -0.26589132476E+03  0.48227189972E+03  0.94569535242E+02 0.  0.
          4    1    3    3  502    0 -0.23608514466E+03 -0.48718718909E+02 -0.82597332723E+03  0.86043108173E+03  0.00000000000E+00 0. -1.
         -3    1    3    3    0  502 -0.21475729602E+03 -0.53071995375E+01 -0.55048280336E+03  0.59091469719E+03  0.00000000000E+00 0.  1.
         11    1    5    5    0    0  0.13971517585E+02  0.62483724557E+02 -0.68657550178E+03  0.68955444947E+03  0.00000000000E+00 0. -1.
        -11    1    5    5    0    0  0.99199232830E+02  0.18882985511E+03 -0.10981470551E+04  0.11186707096E+04  0.00000000000E+00 0.  1.
          3    1    6    6  503    0  0.66176638639E+01 -0.14725696902E+02  0.53179673752E+01  0.16997658699E+02  0.00000000000E+00 0. -1.
         -3    1    6    6    0  503  0.33105402640E+03 -0.18256196432E+03 -0.27120929214E+03  0.46527424102E+03  0.00000000000E+00 0.  1.
<mgrwt>
<rscale>  0 0.15021914E+04</rscale>
<asrwt>0</asrwt>
<pdfrwt beam="1">  1        2 0.55145474E+00 0.15021914E+04</pdfrwt>
<pdfrwt beam="2">  1       -3 0.24213298E-01 0.15021914E+04</pdfrwt>
<totfact> 0.73506666E+00</totfact>
</mgrwt>
</event>
<event>
12    6  0.1462228E-007  0.1997161E+04  0.7818608E-02  0.8607949E-01
         -1   -1    0    0    0  501 -0.00000000000E+00  0.00000000000E+00  0.94909138632E+03  0.94909138632E+03  0.00000000000E+00 0.  1.
          2   -1    0    0  501    0  0.00000000000E+00 -0.00000000000E+00 -0.10506501653E+04  0.10506501653E+04  0.00000000000E+00 0. -1.
         24    2    1    2    0    0  0.53870825650E+03 -0.25394216336E+03 -0.56862544879E+03  0.82753375264E+03  0.82365058057E+02 0.  0.
        254    2    1    2    0    0 -0.53870825650E+03  0.25394216336E+03  0.46706666979E+03  0.11722077990E+04  0.89511264209E+03 0.  0.
         23    2    4    4    0    0 -0.37466573195E+03  0.57845349455E+03  0.35318811160E+03  0.78049046813E+03  0.97163123734E+02 0.  0.
         23    2    4    4    0    0 -0.16404252455E+03 -0.32451133120E+03  0.11387855820E+03  0.39171733085E+03  0.90865765495E+02 0.  0.
          4    1    3    3  502    0  0.53871862383E+03 -0.25787739166E+03 -0.56414521252E+03  0.82157064554E+03  0.00000000000E+00 0. -1.
         -3    1    3    3    0  502 -0.10367328558E-01  0.39352283062E+01 -0.44802362647E+01  0.59631071004E+01  0.00000000000E+00 0.  1.
         11    1    5    5    0    0 -0.49691257701E+02  0.49619365049E+02  0.66735251058E+02  0.96875674003E+02  0.00000000000E+00 0. -1.
        -11    1    5    5    0    0 -0.32497447425E+03  0.52883412950E+03  0.28645286054E+03  0.68361479413E+03  0.00000000000E+00 0.  1.
          1    1    6    6  503    0 -0.76513919869E+02 -0.72751732431E+02  0.11556584339E+02  0.10621087113E+03  0.00000000000E+00 0. -1.
         -1    1    6    6    0  503 -0.87528604681E+02 -0.25175959877E+03  0.10232197386E+03  0.28550645972E+03  0.00000000000E+00 0.  1.
<mgrwt>
<rscale>  0 0.19971610E+04</rscale>
<asrwt>0</asrwt>
<pdfrwt beam="1">  1        2 0.16163849E+00 0.19971610E+04</pdfrwt>
<pdfrwt beam="2">  1       -1 0.14601406E+00 0.19971610E+04</pdfrwt>
<totfact> 0.92971306E+00</totfact>
</mgrwt>
</event>
<event>
12    6  0.1462228E-007  0.2701289E+04  0.7818608E-02  0.8334587E-01
          2   -1    0    0  501    0  0.00000000000E+00  0.00000000000E+00  0.14981782716E+04  0.14981782716E+04  0.00000000000E+00 0. -1.
         -3   -1    0    0    0  501 -0.00000000000E+00 -0.00000000000E+00 -0.12176391499E+04  0.12176391499E+04  0.00000000000E+00 0.  1.
         24    2    1    2    0    0 -0.47388485923E+03  0.10959651004E+04 -0.10989611758E+01  0.11966588369E+04  0.79276749623E+02 0.  0.
        254    2    1    2    0    0  0.47388485923E+03 -0.10959651004E+04  0.28163808286E+03  0.15191585846E+04  0.89600024238E+03 0.  0.
         23    2    4    4    0    0  0.21553226320E+02 -0.31709783729E+03  0.48889181470E+03  0.59042718471E+03  0.92593055812E+02 0.  0.
         23    2    4    4    0    0  0.45233163291E+03 -0.77886726309E+03 -0.20725373184E+03  0.92873139988E+03  0.91377153133E+02 0.  0.
          2    1    3    3  502    0 -0.75124955951E+01  0.16052595026E+02  0.98849572426E+01  0.20293737379E+02  0.00000000000E+00 0. -1.
         -1    1    3    3    0  502 -0.46637236364E+03  0.10799125054E+04 -0.10983918418E+02  0.11763650995E+04  0.00000000000E+00 0.  1.
         11    1    5    5    0    0  0.45331747874E+02 -0.28150983572E+03  0.44919229211E+03  0.53204931188E+03  0.00000000000E+00 0.  1.
        -11    1    5    5    0    0 -0.23778521554E+02 -0.35588001574E+02  0.39699522585E+02  0.58377872835E+02  0.00000000000E+00 0. -1.
          2    1    6    6  503    0  0.65682328673E+02 -0.18405164290E+03 -0.56892708410E+02  0.20353367246E+03  0.00000000000E+00 0. -1.
         -2    1    6    6    0  503  0.38664930424E+03 -0.59481562019E+03 -0.15036102343E+03  0.72519772742E+03  0.00000000000E+00 0.  1.
<mgrwt>
<rscale>  0 0.27012890E+04</rscale>
<asrwt>0</asrwt>
<pdfrwt beam="1">  1        2 0.23048896E+00 0.27012890E+04</pdfrwt>
<pdfrwt beam="2">  1       -3 0.18732910E+00 0.27012890E+04</pdfrwt>
<totfact> 0.12465122E+00</totfact>
</mgrwt>
</event>
<event>
12    6  0.1462228E-007  0.2225518E+04  0.7818608E-02  0.8507882E-01
          2   -1    0    0  501    0  0.00000000000E+00  0.00000000000E+00  0.49648955015E+03  0.49648955015E+03  0.00000000000E+00 0. -1.
         -1   -1    0    0    0  501 -0.00000000000E+00 -0.00000000000E+00 -0.24939740160E+04  0.24939740160E+04  0.00000000000E+00 0.  1.
         24    2    1    2    0    0  0.52632487090E+01 -0.55319483808E+03  0.17065032623E+03  0.58425493547E+03  0.78613390134E+02 0.  0.
        254    2    1    2    0    0 -0.52632487090E+01  0.55319483808E+03 -0.21681347921E+04  0.24062086307E+04  0.88486115696E+03 0.  0.
         23    2    4    4    0    0 -0.21142750330E+03 -0.87674254551E+02 -0.18161809528E+03  0.30677092514E+03  0.93460707878E+02 0.  0.
         23    2    4    4    0    0  0.20616425460E+03  0.64086909263E+03 -0.19865166968E+04  0.20994377056E+04  0.90405746543E+02 0.  0.
          4    1    3    3  502    0  0.92780250656E+01 -0.51091767569E+03  0.17807968760E+03  0.54114261356E+03  0.00000000000E+00 0. -1.
         -3    1    3    3    0  502 -0.40147763566E+01 -0.42277162395E+02 -0.74293613758E+01  0.43112321902E+02  0.00000000000E+00 0.  1.
         11    1    5    5    0    0 -0.45987912610E+02 -0.42348793536E+01  0.15756324191E+01  0.46209359733E+02  0.00000000000E+00 0. -1.
        -11    1    5    5    0    0 -0.16543959069E+03 -0.83439375197E+02 -0.18319372770E+03  0.26056156541E+03  0.00000000000E+00 0.  1.
          1    1    6    6  503    0  0.54463082334E+02  0.11886765144E+03 -0.49395469127E+03  0.51096671411E+03  0.00000000000E+00 0. -1.
         -1    1    6    6    0  503  0.15170117226E+03  0.52200144120E+03 -0.14925620056E+04  0.15884709915E+04  0.00000000000E+00 0.  1.
<mgrwt>
<rscale>  0 0.22255175E+04</rscale>
<asrwt>0</asrwt>
<pdfrwt beam="1">  1        2 0.76383008E-01 0.22255175E+04</pdfrwt>
<pdfrwt beam="2">  1       -1 0.38368831E+00 0.22255175E+04</pdfrwt>
<totfact> 0.59790872E-01</totfact>
</mgrwt>
</event>
<event>
12    6  0.1462228E-007  0.1186045E+04  0.7818608E-02  0.9125159E-01
          2   -1    0    0  501    0  0.00000000000E+00  0.00000000000E+00  0.15004913706E+04  0.15004913706E+04  0.00000000000E+00 0. -1.
         -1   -1    0    0    0  501 -0.00000000000E+00 -0.00000000000E+00 -0.23437384733E+03  0.23437384733E+03  0.00000000000E+00 0.  1.
         24    2    1    2    0    0 -0.19943822692E+03  0.14489330157E+03  0.13830694872E+03  0.29333309253E+03  0.78395254370E+02 0.  0.
        254    2    1    2    0    0  0.19943822692E+03 -0.14489330157E+03  0.11278105745E+04  0.14415321254E+04  0.86330093323E+03 0.  0.
         23    2    4    4    0    0 -0.21414962680E+03 -0.22891068244E+03  0.12305616948E+03  0.34871824105E+03  0.90561733629E+02 0.  0.
         23    2    4    4    0    0  0.41358785373E+03  0.84017380874E+02  0.10047544051E+04  0.10928138844E+04  0.81221538338E+02 0.  0.
          2    1    3    3  502    0 -0.29736285004E+02  0.15613353652E+02  0.54723491626E+02  0.64208130278E+02  0.00000000000E+00 0. -1.
         -1    1    3    3    0  502 -0.16970194192E+03  0.12927994792E+03  0.83583457098E+02  0.22912496225E+03  0.00000000000E+00 0.  1.
         11    1    5    5    0    0 -0.68786176489E+02 -0.74133145916E+02  0.86876029782E+02  0.13332181348E+03  0.00000000000E+00 0. -1.
        -11    1    5    5    0    0 -0.14536345031E+03 -0.15477753653E+03  0.36180139693E+02  0.21539642757E+03  0.00000000000E+00 0.  1.
          3    1    6    6  503    0  0.17172083360E+03  0.24990805356E+02  0.31707253117E+03  0.36145203702E+03  0.00000000000E+00 0. -1.
         -3    1    6    6    0  503  0.24186702013E+03  0.59026575518E+02  0.68768187390E+03  0.73136184733E+03  0.00000000000E+00 0.  1.
<mgrwt>
<rscale>  0 0.11860454E+04</rscale>
<asrwt>0</asrwt>
<pdfrwt beam="1">  1        2 0.23084482E+00 0.11860454E+04</pdfrwt>
<pdfrwt beam="2">  1       -1 0.36057516E-01 0.11860454E+04</pdfrwt>
<totfact> 0.10494354E+02</totfact>
</mgrwt>
</event>
<event>
12    6  0.1462228E-007  0.1071950E+04  0.7818608E-02  0.9232971E-01
         -1   -1    0    0    0  501 -0.00000000000E+00  0.00000000000E+00  0.10630197913E+03  0.10630197913E+03  0.00000000000E+00 0.  1.
          2   -1    0    0  501    0  0.00000000000E+00 -0.00000000000E+00 -0.27023899979E+04  0.27023899979E+04  0.00000000000E+00 0. -1.
         24    2    1    2    0    0 -0.55818104708E+02 -0.71232912389E+02 -0.93849530164E+02  0.14978992821E+03  0.73752963733E+02 0.  0.
        254    2    1    2    0    0  0.55818104708E+02  0.71232912389E+02 -0.25022384886E+04  0.26589020489E+04  0.89463560332E+03 0.  0.
         23    2    4    4    0    0 -0.25732152478E+03  0.75727778880E+02 -0.21864938272E+04  0.22047891987E+04  0.91602898051E+02 0.  0.
         23    2    4    4    0    0  0.31313962949E+03 -0.44948664908E+01 -0.31574466146E+03  0.45411285012E+03  0.91908421933E+02 0.  0.
          4    1    3    3  502    0 -0.20694237603E+02  0.12622270696E+02 -0.30604248950E+02  0.39040917526E+02  0.00000000000E+00 0. -1.
         -3    1    3    3    0  502 -0.35123867105E+02 -0.83855183086E+02 -0.63245281214E+02  0.11074901068E+03  0.00000000000E+00 0.  1.
         11    1    5    5    0    0 -0.24374478018E+03  0.42912251034E+02 -0.19502111897E+04  0.19658526556E+04  0.00000000000E+00 0.  1.
        -11    1    5    5    0    0 -0.13576744599E+02  0.32815527846E+02 -0.23628263752E+03  0.23893654315E+03  0.00000000000E+00 0. -1.
          2    1    6    6  503    0  0.90117142921E+02 -0.23832831607E+02 -0.14581073425E+03  0.17306031762E+03  0.00000000000E+00 0. -1.
         -2    1    6    6    0  503  0.22302248657E+03  0.19337965116E+02 -0.16993392721E+03  0.28105253250E+03  0.00000000000E+00 0.  1.
<mgrwt>
<rscale>  0 0.10719504E+04</rscale>
<asrwt>0</asrwt>
<pdfrwt beam="1">  1        2 0.41575227E+00 0.10719504E+04</pdfrwt>
<pdfrwt beam="2">  1       -1 0.16354152E-01 0.10719504E+04</pdfrwt>
<totfact> 0.86806346E+01</totfact>
</mgrwt>
</event>
<event>
12    6  0.1462228E-007  0.1725207E+04  0.7818608E-02  0.8747117E-01
          2   -1    0    0  501    0  0.00000000000E+00  0.00000000000E+00  0.13203098852E+04  0.13203098852E+04  0.00000000000E+00 0. -1.
         -1   -1    0    0    0  501 -0.00000000000E+00 -0.00000000000E+00 -0.56356814117E+03  0.56356814117E+03  0.00000000000E+00 0.  1.
         24    2    1    2    0    0 -0.22498400405E+03  0.29746517780E+03 -0.27024638821E+03  0.46770639865E+03  0.81319314509E+02 0.  0.
        254    2    1    2    0    0  0.22498400405E+03 -0.29746517780E+03  0.10269881323E+04  0.14161716278E+04  0.90096288566E+03 0.  0.
         23    2    4    4    0    0  0.24149893594E+03 -0.39129042467E+03  0.11463446881E+04  0.12384929799E+04  0.91262176737E+02 0.  0.
         23    2    4    4    0    0 -0.16514931883E+02  0.93825246877E+02 -0.11935655577E+03  0.17767864787E+03  0.90817369354E+02 0.  0.
          2    1    3    3  502    0 -0.29637926607E+01  0.44442633220E+02 -0.40083086828E+02  0.59921495009E+02  0.00000000000E+00 0. -1.
         -1    1    3    3    0  502 -0.22202021139E+03  0.25302254458E+03 -0.23016330138E+03  0.40778490364E+03  0.00000000000E+00 0.  1.
         11    1    5    5    0    0  0.35549968701E+02 -0.12825526483E+02  0.10030519202E+03  0.10718873985E+03  0.00000000000E+00 0.  1.
        -11    1    5    5    0    0  0.20594896724E+03 -0.37846489819E+03  0.10460394960E+04  0.11313042400E+04  0.00000000000E+00 0. -1.
          3    1    6    6  503    0 -0.41814357695E+02  0.91447603796E+02 -0.11343491343E+03  0.15158688708E+03  0.00000000000E+00 0. -1.
         -3    1    6    6    0  503  0.25299425812E+02  0.23776430816E+01 -0.59216423386E+01  0.26091760788E+02  0.00000000000E+00 0.  1.
<mgrwt>
<rscale>  0 0.17252068E+04</rscale>
<asrwt>0</asrwt>
<pdfrwt beam="1">  1        2 0.20312460E+00 0.17252068E+04</pdfrwt>
<pdfrwt beam="2">  1       -1 0.86702791E-01 0.17252068E+04</pdfrwt>
<totfact> 0.22836208E+01</totfact>
</mgrwt>
</event>
<event>
12    6  0.1462228E-007  0.2192980E+04  0.7818608E-02  0.8521356E-01
         -1   -1    0    0    0  501 -0.00000000000E+00  0.00000000000E+00  0.13536947565E+04  0.13536947565E+04  0.00000000000E+00 0.  1.
          2   -1    0    0  501    0  0.00000000000E+00 -0.00000000000E+00 -0.88815486762E+03  0.88815486762E+03  0.00000000000E+00 0. -1.
         24    2    1    2    0    0  0.86270471929E+03 -0.26173953453E+03  0.16213542598E+03  0.91935701810E+03  0.78501042979E+02 0.  0.
        254    2    1    2    0    0 -0.86270471929E+03  0.26173953453E+03  0.30340446290E+03  0.13224926060E+04  0.91878474534E+03 0.  0.
         23    2    4    4    0    0 -0.92706111445E+03  0.23097585912E+03 -0.37805941619E+02  0.96065352235E+03  0.92917938824E+02 0.  0.
         23    2    4    4    0    0  0.64356395168E+02  0.30763675417E+02  0.34121040452E+03  0.36183908367E+03  0.97030062351E+02 0.  0.
          4    1    3    3  502    0  0.90546438466E+02 -0.36657705152E+01  0.10719737691E+02  0.91252441987E+02  0.00000000000E+00 0. -1.
         -3    1    3    3    0  502  0.77215828082E+03 -0.25807376402E+03  0.15141568829E+03  0.82810457611E+03  0.00000000000E+00 0.  1.
         11    1    5    5    0    0 -0.62422591826E+03  0.13644211191E+03 -0.64902010502E+02  0.64225128875E+03  0.00000000000E+00 0. -1.
        -11    1    5    5    0    0 -0.30283519619E+03  0.94533747205E+02  0.27096068883E+02  0.31840223360E+03  0.00000000000E+00 0.  1.
          3    1    6    6  503    0 -0.13050400163E+01  0.40252449852E+02  0.22003970110E+03  0.22369495503E+03  0.00000000000E+00 0. -1.
         -3    1    6    6    0  503  0.65661435185E+02 -0.94887744348E+01  0.12117070342E+03  0.13814412864E+03  0.00000000000E+00 0.  1.
<mgrwt>
<rscale>  0 0.21929802E+04</rscale>
<asrwt>0</asrwt>
<pdfrwt beam="1">  1        2 0.13663921E+00 0.21929802E+04</pdfrwt>
<pdfrwt beam="2">  1       -1 0.20826073E+00 0.21929802E+04</pdfrwt>
<totfact> 0.41166397E+00</totfact>
</mgrwt>
</event>
<event>
12    6  0.1462228E-007  0.1195790E+04  0.7818608E-02  0.9116550E-01
          2   -1    0    0  501    0  0.00000000000E+00  0.00000000000E+00  0.10611122990E+04  0.10611122990E+04  0.00000000000E+00 0. -1.
         -1   -1    0    0    0  501 -0.00000000000E+00 -0.00000000000E+00 -0.33689013556E+03  0.33689013556E+03  0.00000000000E+00 0.  1.
         24    2    1    2    0    0  0.20998122577E+03 -0.91422377961E+01  0.15727116244E+02  0.22476688199E+03  0.78084014791E+02 0.  0.
        254    2    1    2    0    0 -0.20998122577E+03  0.91422377961E+01  0.70849504716E+03  0.11732355525E+04  0.91123034091E+03 0.  0.
         23    2    4    4    0    0  0.15242162444E+03 -0.35513401765E+03  0.41410332189E+03  0.57405559326E+03  0.93304559685E+02 0.  0.
         23    2    4    4    0    0 -0.36240285020E+03  0.36427625545E+03  0.29439172527E+03  0.59917995928E+03  0.91198243253E+02 0.  0.
          2    1    3    3  502    0  0.12821562675E+03 -0.20539246358E+01  0.47517183768E+02  0.13675287310E+03  0.00000000000E+00 0. -1.
         -1    1    3    3    0  502  0.81765599021E+02 -0.70883131602E+01 -0.31790067524E+02  0.88014008885E+02  0.00000000000E+00 0.  1.
         11    1    5    5    0    0  0.76288053721E+02 -0.11782385589E+03  0.96473725120E+02  0.17032177722E+03  0.00000000000E+00 0. -1.
        -11    1    5    5    0    0  0.76133570716E+02 -0.23731016177E+03  0.31762959677E+03  0.40373381604E+03  0.00000000000E+00 0.  1.
          1    1    6    6  503    0 -0.37639885553E+01  0.34323552977E+02  0.18460034628E+02  0.39154141253E+02  0.00000000000E+00 0. -1.
         -1    1    6    6    0  503 -0.35863886165E+03  0.32995270247E+03  0.27593169064E+03  0.56002581802E+03  0.00000000000E+00 0.  1.
<mgrwt>
<rscale>  0 0.11957897E+04</rscale>
<asrwt>0</asrwt>
<pdfrwt beam="1">  1        2 0.16324804E+00 0.11957897E+04</pdfrwt>
<pdfrwt beam="2">  1       -1 0.51829252E-01 0.11957897E+04</pdfrwt>
<totfact> 0.97136457E+01</totfact>
</mgrwt>
</event>
<event>
12    6  0.1462228E-007  0.1500277E+04  0.7818608E-02  0.8884269E-01
         -1   -1    0    0    0  501 -0.00000000000E+00  0.00000000000E+00  0.16147392578E+04  0.16147392578E+04  0.00000000000E+00 0.  1.
          2   -1    0    0  501    0  0.00000000000E+00 -0.00000000000E+00 -0.34848191579E+03  0.34848191579E+03  0.00000000000E+00 0. -1.
         24    2    1    2    0    0 -0.32893838214E+03  0.35254110853E+03  0.46884860329E+03  0.67687920330E+03  0.76555539305E+02 0.  0.
        254    2    1    2    0    0  0.32893838214E+03 -0.35254110853E+03  0.79740873874E+03  0.12863419703E+04  0.88675209362E+03 0.  0.
         23    2    4    4    0    0  0.47946961776E+03 -0.52180504524E+03  0.74998637393E+03  0.10357672835E+04  0.90347577858E+02 0.  0.
         23    2    4    4    0    0 -0.15053123562E+03  0.16926393671E+03  0.47422364808E+02  0.25057468685E+03  0.96066954966E+02 0.  0.
          4    1    3    3  502    0 -0.31492418791E+03  0.35426212344E+03  0.45732772782E+03  0.65865586376E+03  0.00000000000E+00 0. -1.
         -3    1    3    3    0  502 -0.14014194231E+02 -0.17210149054E+01  0.11520875468E+02  0.18223339535E+02  0.00000000000E+00 0.  1.
         11    1    5    5    0    0  0.11492704460E+03 -0.12713593573E+03  0.24068976182E+03  0.29547137455E+03  0.00000000000E+00 0. -1.
        -11    1    5    5    0    0  0.36454257316E+03 -0.39466910952E+03  0.50929661211E+03  0.74029590892E+03  0.00000000000E+00 0.  1.
          4    1    6    6  503    0 -0.14801200545E+03  0.18023809595E+03  0.38882204765E+02  0.23644270096E+03  0.00000000000E+00 0.  1.
         -4    1    6    6    0  503 -0.25192301747E+01 -0.10974159240E+02  0.85401600429E+01  0.14131985892E+02  0.00000000000E+00 0. -1.
<mgrwt>
<rscale>  0 0.15002765E+04</rscale>
<asrwt>0</asrwt>
<pdfrwt beam="1">  1        2 0.53612603E-01 0.15002765E+04</pdfrwt>
<pdfrwt beam="2">  1       -1 0.24842142E+00 0.15002765E+04</pdfrwt>
<totfact> 0.73358181E+00</totfact>
</mgrwt>
</event>
<event>
12    6  0.1462228E-007  0.1102311E+04  0.7818608E-02  0.9202942E-01
          2   -1    0    0  501    0  0.00000000000E+00  0.00000000000E+00  0.10144549680E+04  0.10144549680E+04  0.00000000000E+00 0. -1.
         -1   -1    0    0    0  501 -0.00000000000E+00 -0.00000000000E+00 -0.29944405454E+03  0.29944405454E+03  0.00000000000E+00 0.  1.
         24    2    1    2    0    0  0.90183014060E+02  0.72030488762E+02  0.25694316988E+03  0.29279658731E+03  0.79929229043E+02 0.  0.
        254    2    1    2    0    0 -0.90183014060E+02 -0.72030488762E+02  0.45806774354E+03  0.10211024352E+04  0.90526391630E+03 0.  0.
         23    2    4    4    0    0  0.20973405431E+03  0.26980241712E+03 -0.22681049370E+02  0.35305532941E+03  0.85743325117E+02 0.  0.
         23    2    4    4    0    0 -0.29991706837E+03 -0.34183290588E+03  0.48074879291E+03  0.66804710579E+03  0.91474314565E+02 0.  0.
          4    1    3    3  502    0  0.20488805396E+02  0.79116222504E+00  0.12899494348E+03  0.13061436570E+03  0.00000000000E+00 0. -1.
         -3    1    3    3    0  502  0.69694208663E+02  0.71239326537E+02  0.12794822641E+03  0.16218222161E+03  0.00000000000E+00 0.  1.
         11    1    5    5    0    0  0.81514503315E+00 -0.58359078711E+01  0.22123927223E+01  0.62942007962E+01  0.00000000000E+00 0. -1.
        -11    1    5    5    0    0  0.20891890928E+03  0.27563832499E+03 -0.24893442093E+02  0.34676112861E+03  0.00000000000E+00 0.  1.
          3    1    6    6  503    0 -0.17821721823E+03 -0.15118002376E+03  0.20060853752E+03  0.30799441843E+03  0.00000000000E+00 0. -1.
         -3    1    6    6    0  503 -0.12169985014E+03 -0.19065288212E+03  0.28014025539E+03  0.36005268736E+03  0.00000000000E+00 0.  1.
<mgrwt>
<rscale>  0 0.11023112E+04</rscale>
<asrwt>0</asrwt>
<pdfrwt beam="1">  1        2 0.15606999E+00 0.11023112E+04</pdfrwt>
<pdfrwt beam="2">  1       -1 0.46068317E-01 0.11023112E+04</pdfrwt>
<totfact> 0.13076008E+02</totfact>
</mgrwt>
</event>
<event>
12    6  0.1462228E-007  0.2697432E+04  0.7818608E-02  0.8335839E-01
         -1   -1    0    0    0  501 -0.00000000000E+00  0.00000000000E+00  0.20113473707E+04  0.20113473707E+04  0.00000000000E+00 0.  1.
          2   -1    0    0  501    0  0.00000000000E+00 -0.00000000000E+00 -0.90438638123E+03  0.90438638123E+03  0.00000000000E+00 0. -1.
         24    2    1    2    0    0 -0.75387462427E+03 -0.24824961366E+03  0.14653272982E+04  0.16684508580E+04  0.81174841572E+02 0.  0.
        254    2    1    2    0    0  0.75387462427E+03  0.24824961366E+03 -0.35836630871E+03  0.12472828939E+04  0.89293526445E+03 0.  0.
         23    2    4    4    0    0  0.51826628767E+03 -0.25576239665E+03 -0.95709585573E+01  0.58500766609E+03  0.90155519329E+02 0.  0.
         23    2    4    4    0    0  0.23560833660E+03  0.50401201030E+03 -0.34879535015E+03  0.66227522785E+03  0.86086504916E+02 0.  0.
          2    1    3    3  502    0 -0.15777400030E+03 -0.28441958837E+02  0.34720686623E+03  0.38243193924E+03  0.00000000000E+00 0. -1.
         -1    1    3    3    0  502 -0.59610062397E+03 -0.21980765482E+03  0.11181204319E+04  0.12860189187E+04  0.00000000000E+00 0.  1.
         11    1    5    5    0    0  0.23243720426E+03 -0.10452109917E+03 -0.48062532154E+02  0.25934864776E+03  0.00000000000E+00 0.  1.
        -11    1    5    5    0    0  0.28582908341E+03 -0.15124129748E+03  0.38491573597E+02  0.32565901833E+03  0.00000000000E+00 0. -1.
          3    1    6    6  503    0  0.59507122581E+02  0.93174425242E+02 -0.34370141087E+02  0.11577511717E+03  0.00000000000E+00 0.  1.
         -3    1    6    6    0  503  0.17610121402E+03  0.41083758506E+03 -0.31442520906E+03  0.54650011068E+03  0.00000000000E+00 0. -1.
<mgrwt>
<rscale>  0 0.26974322E+04</rscale>
<asrwt>0</asrwt>
<pdfrwt beam="1">  1        2 0.13913637E+00 0.26974322E+04</pdfrwt>
<pdfrwt beam="2">  1       -1 0.30943806E+00 0.26974322E+04</pdfrwt>
<totfact> 0.83545257E-01</totfact>
</mgrwt>
</event>
<event>
12    6  0.1462228E-007  0.1948900E+04  0.7818608E-02  0.8630891E-01
         -1   -1    0    0    0  501 -0.00000000000E+00  0.00000000000E+00  0.97237205618E+03  0.97237205618E+03  0.00000000000E+00 0.  1.
          2   -1    0    0  501    0  0.00000000000E+00 -0.00000000000E+00 -0.97653223839E+03  0.97653223839E+03  0.00000000000E+00 0. -1.
         24    2    1    2    0    0 -0.38133641957E+03 -0.25840987983E+03 -0.61350823941E+03  0.77148990678E+03  0.81309197277E+02 0.  0.
        254    2    1    2    0    0  0.38133641957E+03  0.25840987983E+03  0.60934805719E+03  0.11774143878E+04  0.89599467346E+03 0.  0.
         23    2    4    4    0    0 -0.17394122959E+03 -0.17387306827E+03  0.31295728488E+03  0.40844284613E+03  0.91629150208E+02 0.  0.
         23    2    4    4    0    0  0.55527764916E+03  0.43228294810E+03  0.29639077231E+03  0.76897154166E+03  0.90928142474E+02 0.  0.
          2    1    3    3  502    0 -0.12564940982E+03 -0.85254476359E+02 -0.26855340354E+03  0.30850774785E+03  0.00000000000E+00 0. -1.
         -1    1    3    3    0  502 -0.25568700975E+03 -0.17315540347E+03 -0.34495483586E+03  0.46298215893E+03  0.00000000000E+00 0.  1.
         11    1    5    5    0    0 -0.10024223371E+03 -0.15505704821E+03  0.24224595556E+03  0.30458873354E+03  0.00000000000E+00 0.  1.
        -11    1    5    5    0    0 -0.73698995885E+02 -0.18816020068E+02  0.70711329325E+02  0.10385411258E+03  0.00000000000E+00 0. -1.
          4    1    6    6  503    0  0.47004634623E+02  0.60384194385E+02  0.10216477231E+02  0.77201444382E+02  0.00000000000E+00 0. -1.
         -4    1    6    6    0  503  0.50827301454E+03  0.37189875372E+03  0.28617429508E+03  0.69177009728E+03  0.00000000000E+00 0.  1.
<mgrwt>
<rscale>  0 0.19488999E+04</rscale>
<asrwt>0</asrwt>
<pdfrwt beam="1">  1        2 0.15023573E+00 0.19488999E+04</pdfrwt>
<pdfrwt beam="2">  1       -1 0.14959570E+00 0.19488999E+04</pdfrwt>
<totfact> 0.97572623E+00</totfact>
</mgrwt>
</event>
<event>
12    6  0.1462228E-007  0.1268041E+04  0.7818608E-02  0.9055300E-01
          2   -1    0    0  501    0  0.00000000000E+00  0.00000000000E+00  0.77957461699E+03  0.77957461699E+03  0.00000000000E+00 0. -1.
         -1   -1    0    0    0  501 -0.00000000000E+00 -0.00000000000E+00 -0.51564282131E+03  0.51564282131E+03  0.00000000000E+00 0.  1.
         24    2    1    2    0    0  0.16628232912E+03  0.13473617369E+03  0.27062538710E+03  0.35371981362E+03  0.77948424809E+02 0.  0.
        254    2    1    2    0    0 -0.16628232912E+03 -0.13473617369E+03 -0.66935914157E+01  0.94149762469E+03  0.91682567789E+03 0.  0.
         23    2    4    4    0    0 -0.22882471437E+03  0.83674763140E+02  0.39459388703E+03  0.47280812824E+03  0.92092206811E+02 0.  0.
         23    2    4    4    0    0  0.62542385247E+02 -0.21841093683E+03 -0.40128747844E+03  0.46868949645E+03  0.83805229232E+02 0.  0.
          2    1    3    3  502    0  0.57715013737E+02  0.42359216243E+01  0.63400396858E+02  0.85840411022E+02  0.00000000000E+00 0. -1.
         -1    1    3    3    0  502  0.10856731538E+03  0.13050025206E+03  0.20722499024E+03  0.26787940260E+03  0.00000000000E+00 0.  1.
         11    1    5    5    0    0 -0.17248241893E+03  0.25192717208E+02  0.22365381469E+03  0.28355931772E+03  0.00000000000E+00 0.  1.
        -11    1    5    5    0    0 -0.56342295438E+02  0.58482045932E+02  0.17094007234E+03  0.18924881052E+03  0.00000000000E+00 0. -1.
          2    1    6    6  503    0 -0.30375146249E+01  0.43356203989E+01 -0.32229400813E+02  0.32661267215E+02  0.00000000000E+00 0. -1.
         -2    1    6    6    0  503  0.65579899872E+02 -0.22274655723E+03 -0.36905807763E+03  0.43602822923E+03  0.00000000000E+00 0.  1.
<mgrwt>
<rscale>  0 0.12680411E+04</rscale>
<asrwt>0</asrwt>
<pdfrwt beam="1">  1        2 0.11993456E+00 0.12680411E+04</pdfrwt>
<pdfrwt beam="2">  1       -1 0.79329664E-01 0.12680411E+04</pdfrwt>
<totfact> 0.63523390E+01</totfact>
</mgrwt>
</event>
<event>
12    6  0.1462228E-007  0.3656312E+04  0.7818608E-02  0.8077713E-01
         -1   -1    0    0    0  501 -0.00000000000E+00  0.00000000000E+00  0.16791043944E+04  0.16791043944E+04  0.00000000000E+00 0.  1.
          2   -1    0    0  501    0  0.00000000000E+00 -0.00000000000E+00 -0.19904387802E+04  0.19904387802E+04  0.00000000000E+00 0. -1.
         24    2    1    2    0    0  0.27540280207E+03 -0.14254274072E+04  0.76212432212E+03  0.16415779635E+04  0.79086858154E+02 0.  0.
        254    2    1    2    0    0 -0.27540280207E+03  0.14254274072E+04 -0.10734587079E+04  0.20279652111E+04  0.92338469956E+03 0.  0.
         23    2    4    4    0    0  0.10236576487E+03  0.12263543975E+04 -0.56257808733E+03  0.13560161574E+04  0.88667110505E+02 0.  0.
         23    2    4    4    0    0 -0.37776856694E+03  0.19907300969E+03 -0.51088062054E+03  0.67194905377E+03  0.90428806632E+02 0.  0.
          4    1    3    3  502    0  0.12085390353E+02 -0.14162042771E+03  0.54667967867E+02  0.15228587891E+03  0.00000000000E+00 0. -1.
         -3    1    3    3    0  502  0.26331741172E+03 -0.12838069795E+04  0.70745635425E+03  0.14892920846E+04  0.00000000000E+00 0.  1.
         11    1    5    5    0    0  0.11433852911E+03  0.93366886785E+03 -0.41766045039E+03  0.10291992547E+04  0.00000000000E+00 0. -1.
        -11    1    5    5    0    0 -0.11972764237E+02  0.29268552968E+03 -0.14491763695E+03  0.32681690266E+03  0.00000000000E+00 0.  1.
          3    1    6    6  503    0 -0.28244235191E+03  0.13766832087E+03 -0.31069472239E+03  0.44187946235E+03  0.00000000000E+00 0. -1.
         -3    1    6    6    0  503 -0.95326215032E+02  0.61404688819E+02 -0.20018589815E+03  0.23006959142E+03  0.00000000000E+00 0.  1.
<mgrwt>
<rscale>  0 0.36563121E+04</rscale>
<asrwt>0</asrwt>
<pdfrwt beam="1">  1        2 0.30622135E+00 0.36563121E+04</pdfrwt>
<pdfrwt beam="2">  1       -1 0.25832375E+00 0.36563121E+04</pdfrwt>
<totfact> 0.38405797E-01</totfact>
</mgrwt>
</event>
<event>
12    6  0.1462228E-007  0.1403800E+04  0.7818608E-02  0.8951072E-01
          2   -1    0    0  501    0  0.00000000000E+00  0.00000000000E+00  0.88652526016E+03  0.88652526016E+03  0.00000000000E+00 0. -1.
         -1   -1    0    0    0  501 -0.00000000000E+00 -0.00000000000E+00 -0.55572429823E+03  0.55572429823E+03  0.00000000000E+00 0.  1.
         24    2    1    2    0    0 -0.14235948357E+03 -0.11521521506E+03  0.43061277381E+03  0.47394536310E+03  0.75206900531E+02 0.  0.
        254    2    1    2    0    0  0.14235948357E+03  0.11521521506E+03 -0.99811811882E+02  0.96830419530E+03  0.94557381970E+03 0.  0.
         23    2    4    4    0    0  0.13120123195E+03 -0.37946617046E+03  0.10689455012E+03  0.42459159886E+03  0.87425643783E+02 0.  0.
         23    2    4    4    0    0  0.11158251618E+02  0.49468138552E+03 -0.20670636200E+03  0.54371259643E+03  0.89786901427E+02 0.  0.
          2    1    3    3  502    0 -0.15028152545E+03 -0.10221771232E+03  0.38254922280E+03  0.42352910817E+03  0.00000000000E+00 0. -1.
         -1    1    3    3    0  502  0.79220418765E+01 -0.12997502744E+02  0.48063551011E+02  0.50416254926E+02  0.00000000000E+00 0.  1.
         11    1    5    5    0    0  0.85948887153E+02 -0.33558291091E+03  0.77203996335E+02  0.35491345191E+03  0.00000000000E+00 0.  1.
        -11    1    5    5    0    0  0.45252344800E+02 -0.43883259547E+02  0.29690553780E+02  0.69678146949E+02  0.00000000000E+00 0. -1.
          1    1    6    6  503    0  0.79106918693E+01  0.12740029407E+02 -0.23981442228E+02  0.28284217622E+02  0.00000000000E+00 0. -1.
         -1    1    6    6    0  503  0.32475597487E+01  0.48194135612E+03 -0.18272491977E+03  0.51542837881E+03  0.00000000000E+00 0.  1.
<mgrwt>
<rscale>  0 0.14038000E+04</rscale>
<asrwt>0</asrwt>
<pdfrwt beam="1">  1        2 0.13638850E+00 0.14038000E+04</pdfrwt>
<pdfrwt beam="2">  1       -1 0.85496046E-01 0.14038000E+04</pdfrwt>
<totfact> 0.44977123E+01</totfact>
</mgrwt>
</event>
<event>
12    6  0.1462228E-007  0.3725833E+04  0.7818608E-02  0.8062261E-01
         -1   -1    0    0    0  501 -0.00000000000E+00  0.00000000000E+00  0.13837332439E+04  0.13837332439E+04  0.00000000000E+00 0.  1.
          2   -1    0    0  501    0  0.00000000000E+00 -0.00000000000E+00 -0.25080402958E+04  0.25080402958E+04  0.00000000000E+00 0. -1.
         24    2    1    2    0    0  0.78013279592E+02 -0.16442395795E+04 -0.11526838835E+04  0.20111631323E+04  0.80542801388E+02 0.  0.
        254    2    1    2    0    0 -0.78013279592E+02  0.16442395795E+04  0.28376831634E+02  0.18806104074E+04  0.90899966624E+03 0.  0.
         23    2    4    4    0    0 -0.17936291796E+03  0.16293025846E+04  0.20837171371E+03  0.16547902783E+04  0.90078442363E+02 0.  0.
         23    2    4    4    0    0  0.10134963837E+03  0.14936994943E+02 -0.17999488208E+03  0.22582012907E+03  0.90009500068E+02 0.  0.
          2    1    3    3  502    0  0.62600776532E+02 -0.82382006297E+03 -0.53838940774E+03  0.98613462962E+03  0.00000000000E+00 0. -1.
         -1    1    3    3    0  502  0.15412503060E+02 -0.82041951654E+03 -0.61429447573E+03  0.10250285027E+04  0.00000000000E+00 0.  1.
         11    1    5    5    0    0 -0.59807182083E+02  0.87704914637E+03  0.13799992722E+03  0.88985172028E+03  0.00000000000E+00 0.  1.
        -11    1    5    5    0    0 -0.11955573588E+03  0.75225343820E+03  0.70371786491E+02  0.76493855806E+03  0.00000000000E+00 0. -1.
          1    1    6    6  503    0  0.26650082808E+02  0.40471459656E+02 -0.31950832602E+02  0.58043274066E+02  0.00000000000E+00 0. -1.
         -1    1    6    6    0  503  0.74699555560E+02 -0.25534464713E+02 -0.14804404947E+03  0.16777685500E+03  0.00000000000E+00 0.  1.
<mgrwt>
<rscale>  0 0.37258335E+04</rscale>
<asrwt>0</asrwt>
<pdfrwt beam="1">  1        2 0.38585235E+00 0.37258335E+04</pdfrwt>
<pdfrwt beam="2">  1       -1 0.21288204E+00 0.37258335E+04</pdfrwt>
<totfact> 0.38800099E-01</totfact>
</mgrwt>
</event>
<event>
12    6  0.1462228E-007  0.1181775E+04  0.7818608E-02  0.9128960E-01
         -1   -1    0    0    0  501 -0.00000000000E+00  0.00000000000E+00  0.13206575054E+03  0.13206575054E+03  0.00000000000E+00 0.  1.
          2   -1    0    0  501    0  0.00000000000E+00 -0.00000000000E+00 -0.26437458179E+04  0.26437458179E+04  0.00000000000E+00 0. -1.
         24    2    1    2    0    0  0.37092356954E+02  0.10489234869E+03 -0.10403250889E+04  0.10490073206E+04  0.75906655815E+02 0.  0.
        254    2    1    2    0    0 -0.37092356954E+02 -0.10489234869E+03 -0.14713549785E+04  0.17268042478E+04  0.89698895748E+03 0.  0.
         23    2    4    4    0    0 -0.20882250686E+02  0.38570912959E+03 -0.77018639640E+03  0.86639289024E+03  0.90785208137E+02 0.  0.
         23    2    4    4    0    0 -0.16210106268E+02 -0.49060147828E+03 -0.70116858205E+03  0.86041135756E+03  0.87850701325E+02 0.  0.
          4    1    3    3  502    0  0.35775667303E+02  0.96864007461E+02 -0.10327236485E+04  0.10378731467E+04  0.00000000000E+00 0. -1.
         -3    1    3    3    0  502  0.13166896509E+01  0.80283412286E+01 -0.76014403609E+01  0.11134173974E+02  0.00000000000E+00 0.  1.
         11    1    5    5    0    0  0.19401072708E+02  0.29106380105E+03 -0.52702424128E+03  0.60236956165E+03  0.00000000000E+00 0.  1.
        -11    1    5    5    0    0 -0.40283323394E+02  0.94645328540E+02 -0.24316215512E+03  0.26402332859E+03  0.00000000000E+00 0. -1.
          1    1    6    6  503    0  0.32914871547E+02 -0.15971706887E+03 -0.20369662736E+03  0.26093149840E+03  0.00000000000E+00 0. -1.
         -1    1    6    6    0  503 -0.49124977815E+02 -0.33088440941E+03 -0.49747195470E+03  0.59947985916E+03  0.00000000000E+00 0.  1.
<mgrwt>
<rscale>  0 0.11817754E+04</rscale>
<asrwt>0</asrwt>
<pdfrwt beam="1">  1        2 0.40673011E+00 0.11817754E+04</pdfrwt>
<pdfrwt beam="2">  1       -1 0.20317808E-01 0.11817754E+04</pdfrwt>
<totfact> 0.64856894E+01</totfact>
</mgrwt>
</event>
<event>
12    6  0.1462228E-007  0.2887246E+04  0.7818608E-02  0.8276682E-01
          2   -1    0    0  501    0  0.00000000000E+00  0.00000000000E+00  0.18589338487E+04  0.18589338487E+04  0.00000000000E+00 0. -1.
         -1   -1    0    0    0  501 -0.00000000000E+00 -0.00000000000E+00 -0.11210984205E+04  0.11210984205E+04  0.00000000000E+00 0.  1.
         24    2    1    2    0    0  0.37914371129E+03 -0.73601730844E+03  0.13691298414E+04  0.16020033061E+04  0.80166315349E+02 0.  0.
        254    2    1    2    0    0 -0.37914371129E+03  0.73601730844E+03 -0.63129441317E+03  0.13780289631E+04  0.90275121423E+03 0.  0.
         23    2    4    4    0    0 -0.18340659966E+03  0.83892652196E+03 -0.71869412273E+03  0.11226917341E+04  0.80497190337E+02 0.  0.
         23    2    4    4    0    0 -0.19573711164E+03 -0.10290921352E+03  0.87399709558E+02  0.25533722899E+03  0.93032618889E+02 0.  0.
          2    1    3    3  502    0  0.36564984999E+03 -0.69253594488E+03  0.13214528424E+04  0.15360805521E+04  0.00000000000E+00 0. -1.
         -1    1    3    3    0  502  0.13493861305E+02 -0.43481363561E+02  0.47676998979E+02  0.65922754051E+02  0.00000000000E+00 0.  1.
         11    1    5    5    0    0 -0.10265642968E+03  0.43543369187E+03 -0.32275400300E+03  0.55164389693E+03  0.00000000000E+00 0. -1.
        -11    1    5    5    0    0 -0.80750169980E+02  0.40349283009E+03 -0.39594011973E+03  0.57104783714E+03  0.00000000000E+00 0.  1.
          3    1    6    6  503    0 -0.20550013522E+03 -0.91687597229E+02  0.81344899239E+02  0.23927790056E+03  0.00000000000E+00 0.  1.
         -3    1    6    6    0  503  0.97630235845E+01 -0.11221616296E+02  0.60548103193E+01  0.16059328435E+02  0.00000000000E+00 0. -1.
<mgrwt>
<rscale>  0 0.28872463E+04</rscale>
<asrwt>0</asrwt>
<pdfrwt beam="1">  1        2 0.28598982E+00 0.28872463E+04</pdfrwt>
<pdfrwt beam="2">  1       -1 0.17247668E+00 0.28872463E+04</pdfrwt>
<totfact> 0.18566486E+00</totfact>
</mgrwt>
</event>
<event>
12    6  0.1462228E-007  0.1865018E+04  0.7818608E-02  0.8672468E-01
         -1   -1    0    0    0  501 -0.00000000000E+00  0.00000000000E+00  0.90210742284E+03  0.90210742284E+03  0.00000000000E+00 0.  1.
          2   -1    0    0  501    0  0.00000000000E+00 -0.00000000000E+00 -0.96393480507E+03  0.96393480507E+03  0.00000000000E+00 0. -1.
         24    2    1    2    0    0  0.39076948328E+03  0.47355876217E+02  0.57186156927E+03  0.69838723944E+03  0.75998116619E+02 0.  0.
        254    2    1    2    0    0 -0.39076948328E+03 -0.47355876217E+02 -0.63368895150E+03  0.11676549885E+04  0.89828342786E+03 0.  0.
         23    2    4    4    0    0 -0.15745826287E+03  0.26272806443E+03 -0.69365989631E+03  0.76408887221E+03  0.94067063887E+02 0.  0.
         23    2    4    4    0    0 -0.23331122041E+03 -0.31008394064E+03  0.59970944806E+02  0.40356611626E+03  0.93182187984E+02 0.  0.
          4    1    3    3  502    0  0.25189743768E+03  0.41623522547E+02  0.30716928939E+03  0.39942184353E+03  0.00000000000E+00 0. -1.
         -1    1    3    3    0  502  0.13887204560E+03  0.57323536698E+01  0.26469227988E+03  0.29896539591E+03  0.00000000000E+00 0.  1.
         11    1    5    5    0    0 -0.14204160688E+03  0.26829641974E+03 -0.64827494687E+03  0.71583461335E+03  0.00000000000E+00 0.  1.
        -11    1    5    5    0    0 -0.15416655986E+02 -0.55683553145E+01 -0.45384949439E+02  0.48254258862E+02  0.00000000000E+00 0. -1.
          2    1    6    6  503    0 -0.81995638683E+02 -0.52914392984E+02 -0.67291205279E+01  0.97818703789E+02  0.00000000000E+00 0. -1.
         -2    1    6    6    0  503 -0.15131558173E+03 -0.25716954766E+03  0.66700065334E+02  0.30574741247E+03  0.00000000000E+00 0.  1.
<mgrwt>
<rscale>  0 0.18650177E+04</rscale>
<asrwt>0</asrwt>
<pdfrwt beam="1">  1        2 0.14829766E+00 0.18650177E+04</pdfrwt>
<pdfrwt beam="2">  1       -1 0.13878576E+00 0.18650177E+04</pdfrwt>
<totfact> 0.12215998E+01</totfact>
</mgrwt>
</event>
<event>
12    6  0.1462228E-007  0.1229064E+04  0.7818608E-02  0.9087790E-01
          2   -1    0    0  501    0  0.00000000000E+00  0.00000000000E+00  0.70451469797E+03  0.70451469797E+03  0.00000000000E+00 0. -1.
         -1   -1    0    0    0  501 -0.00000000000E+00 -0.00000000000E+00 -0.53604224117E+03  0.53604224117E+03  0.00000000000E+00 0.  1.
         24    2    1    2    0    0  0.86390084447E+02  0.21954613003E+03 -0.15233466851E+03  0.29213509374E+03  0.80456894437E+02 0.  0.
        254    2    1    2    0    0 -0.86390084447E+02 -0.21954613003E+03  0.32080712531E+03  0.94842184539E+03  0.86076886286E+03 0.  0.
         23    2    4    4    0    0 -0.20505596410E+03 -0.13392913021E+03 -0.24416696536E+03  0.35772918926E+03  0.91475163539E+02 0.  0.
         23    2    4    4    0    0  0.11866587966E+03 -0.85616999814E+02  0.56497409067E+03  0.59069265613E+03  0.91160458670E+02 0.  0.
          4    1    3    3  502    0  0.50292505574E+02  0.14810551305E+03 -0.54287603060E+02  0.16556486028E+03  0.00000000000E+00 0. -1.
         -3    1    3    3    0  502  0.36097578873E+02  0.71440616975E+02 -0.98047065452E+02  0.12657023346E+03  0.00000000000E+00 0.  1.
         11    1    5    5    0    0 -0.35355346624E+02 -0.24266711394E+02 -0.28248146705E+01  0.42975032225E+02  0.00000000000E+00 0. -1.
        -11    1    5    5    0    0 -0.16970061748E+03 -0.10966241882E+03 -0.24134215069E+03  0.31475415704E+03  0.00000000000E+00 0.  1.
          1    1    6    6  503    0  0.11507801755E+03 -0.42542662594E+02  0.47902056817E+03  0.49448309678E+03  0.00000000000E+00 0. -1.
         -1    1    6    6    0  503  0.35878621067E+01 -0.43074337220E+02  0.85953522496E+02  0.96209559353E+02  0.00000000000E+00 0.  1.
<mgrwt>
<rscale>  0 0.12290641E+04</rscale>
<asrwt>0</asrwt>
<pdfrwt beam="1">  1        2 0.10838688E+00 0.12290641E+04</pdfrwt>
<pdfrwt beam="2">  1       -1 0.82468037E-01 0.12290641E+04</pdfrwt>
<totfact> 0.66850565E+01</totfact>
</mgrwt>
</event>
<event>
12    6  0.1462228E-007  0.2451917E+04  0.7818608E-02  0.8420318E-01
         -1   -1    0    0    0  501 -0.00000000000E+00  0.00000000000E+00  0.66269671486E+03  0.66269671486E+03  0.00000000000E+00 0.  1.
          2   -1    0    0  501    0  0.00000000000E+00 -0.00000000000E+00 -0.22679673814E+04  0.22679673814E+04  0.00000000000E+00 0. -1.
         24    2    1    2    0    0 -0.97054893355E+03 -0.11863055292E+03 -0.20414340794E+03  0.10025168168E+04  0.85597877079E+02 0.  0.
        254    2    1    2    0    0  0.97054893355E+03  0.11863055292E+03 -0.14011272586E+04  0.19281472794E+04  0.89361954756E+03 0.  0.
         23    2    4    4    0    0  0.35493279607E+03 -0.25427653492E+03 -0.10111083001E+04  0.11044362049E+04  0.82495395813E+02 0.  0.
         23    2    4    4    0    0  0.61561613747E+03  0.37290708784E+03 -0.39001895852E+03  0.82371107447E+03  0.91335761473E+02 0.  0.
          4    1    3    3  502    0 -0.15654406390E+03 -0.14813500532E+01 -0.59638470450E+02  0.16752607408E+03  0.00000000000E+00 0. -1.
         -3    1    3    3    0  502 -0.81400486965E+03 -0.11714920286E+03 -0.14450493749E+03  0.83499074276E+03  0.00000000000E+00 0.  1.
         11    1    5    5    0    0  0.34156027122E+03 -0.25394541791E+03 -0.93707557969E+03  0.10292047105E+04  0.00000000000E+00 0.  1.
        -11    1    5    5    0    0  0.13372524851E+02 -0.33111701095E+00 -0.74032720378E+02  0.75231494375E+02  0.00000000000E+00 0. -1.
          1    1    6    6  503    0  0.30131378810E+02 -0.16775593047E+01 -0.11729359693E+02  0.32377338881E+02  0.00000000000E+00 0. -1.
         -1    1    6    6    0  503  0.58548475866E+03  0.37458464714E+03 -0.37828959882E+03  0.79133373559E+03  0.00000000000E+00 0.  1.
<mgrwt>
<rscale>  0 0.24519172E+04</rscale>
<asrwt>0</asrwt>
<pdfrwt beam="1">  1        2 0.34891805E+00 0.24519172E+04</pdfrwt>
<pdfrwt beam="2">  1       -1 0.10195334E+00 0.24519172E+04</pdfrwt>
<totfact> 0.43889139E+00</totfact>
</mgrwt>
</event>
<event>
12    6  0.1462228E-007  0.1359677E+04  0.7818608E-02  0.8983535E-01
          2   -1    0    0  501    0  0.00000000000E+00  0.00000000000E+00  0.41615504501E+04  0.41615504501E+04  0.00000000000E+00 0. -1.
         -1   -1    0    0    0  501 -0.00000000000E+00 -0.00000000000E+00 -0.11105958416E+03  0.11105958416E+03  0.00000000000E+00 0.  1.
         24    2    1    2    0    0 -0.30227456419E+03  0.40496641139E+02  0.99762628391E+03  0.10463531063E+04  0.81158674930E+02 0.  0.
        254    2    1    2    0    0  0.30227456419E+03 -0.40496641139E+02  0.30528645820E+04  0.32262569280E+04  0.99786858815E+03 0.  0.
         23    2    4    4    0    0  0.23006432092E+02 -0.20241191987E+03  0.27921386219E+04  0.28010978407E+04  0.92796270759E+02 0.  0.
         23    2    4    4    0    0  0.27926813210E+03  0.16191527873E+03  0.26072596007E+03  0.42515908729E+03  0.92601167139E+02 0.  0.
          4    1    3    3  502    0 -0.10529032162E+02  0.11830554802E+02  0.18854327245E+02  0.24623326361E+02  0.00000000000E+00 0. -1.
         -3    1    3    3    0  502 -0.29174553203E+03  0.28666086337E+02  0.97877195667E+03  0.10217297799E+04  0.00000000000E+00 0.  1.
         11    1    5    5    0    0 -0.15210251689E+02  0.24175210923E+01  0.21322575458E+03  0.21378124001E+03  0.00000000000E+00 0.  1.
        -11    1    5    5    0    0  0.38216683781E+02 -0.20482944096E+03  0.25789128674E+04  0.25873166007E+04  0.00000000000E+00 0. -1.
          4    1    6    6  503    0  0.94100596417E+02  0.34314388210E+02  0.33869736999E+02  0.10573343165E+03  0.00000000000E+00 0. -1.
         -4    1    6    6    0  503  0.18516753568E+03  0.12760089052E+03  0.22685622307E+03  0.31942565564E+03  0.00000000000E+00 0.  1.
<mgrwt>
<rscale>  0 0.13596765E+04</rscale>
<asrwt>0</asrwt>
<pdfrwt beam="1">  1        2 0.64023841E+00 0.13596765E+04</pdfrwt>
<pdfrwt beam="2">  1       -1 0.17086093E-01 0.13596765E+04</pdfrwt>
<totfact> 0.76758831E+00</totfact>
</mgrwt>
</event>
<event>
12    6  0.1462228E-007  0.1408033E+04  0.7818608E-02  0.8948024E-01
         -1   -1    0    0    0  501 -0.00000000000E+00  0.00000000000E+00  0.15402026352E+03  0.15402026352E+03  0.00000000000E+00 0.  1.
          2   -1    0    0  501    0  0.00000000000E+00 -0.00000000000E+00 -0.32180124148E+04  0.32180124148E+04  0.00000000000E+00 0. -1.
         24    2    1    2    0    0  0.41021884498E+03 -0.10857666771E+02 -0.98144142791E+03  0.10667931102E+04  0.80142833498E+02 0.  0.
        254    2    1    2    0    0 -0.41021884498E+03  0.10857666771E+02 -0.20825507234E+04  0.23052395682E+04  0.89928558397E+03 0.  0.
         23    2    4    4    0    0 -0.49488085822E+01  0.61705227883E+02  0.57731652091E+02  0.12425724518E+03  0.90966441465E+02 0.  0.
         23    2    4    4    0    0 -0.40527003640E+03 -0.50847561112E+02 -0.21402823755E+04  0.21809823230E+04  0.95110302241E+02 0.  0.
          2    1    3    3  502    0  0.40616441057E+03 -0.13033043926E+02 -0.92703308224E+03  0.10121905573E+04  0.00000000000E+00 0. -1.
         -1    1    3    3    0  502  0.40544344111E+01  0.21753771548E+01 -0.54408345670E+02  0.54602552895E+02  0.00000000000E+00 0.  1.
         11    1    5    5    0    0 -0.26263059359E+02  0.75857369762E+02  0.27965727921E+02  0.85006886616E+02  0.00000000000E+00 0.  1.
        -11    1    5    5    0    0  0.21314250776E+02 -0.14152141879E+02  0.29765924171E+02  0.39250358567E+02  0.00000000000E+00 0. -1.
          3    1    6    6  503    0 -0.18511799370E+03 -0.65252307137E+02 -0.11263816414E+04  0.11433556478E+04  0.00000000000E+00 0.  1.
         -3    1    6    6    0  503 -0.22015204270E+03  0.14404746025E+02 -0.10139007340E+04  0.10376266752E+04  0.00000000000E+00 0. -1.
<mgrwt>
<rscale>  0 0.14080328E+04</rscale>
<asrwt>0</asrwt>
<pdfrwt beam="1">  1        2 0.49507881E+00 0.14080328E+04</pdfrwt>
<pdfrwt beam="2">  1       -1 0.23695426E-01 0.14080328E+04</pdfrwt>
<totfact> 0.21727694E+01</totfact>
</mgrwt>
</event>
<event>
12    6  0.1462228E-007  0.1890154E+04  0.7818608E-02  0.8659773E-01
         -1   -1    0    0    0  501 -0.00000000000E+00  0.00000000000E+00  0.62959347948E+03  0.62959347948E+03  0.00000000000E+00 0.  1.
          2   -1    0    0  501    0  0.00000000000E+00 -0.00000000000E+00 -0.14186463758E+04  0.14186463758E+04  0.00000000000E+00 0. -1.
         24    2    1    2    0    0 -0.20940923259E+03  0.87703691766E+02  0.44567057482E+03  0.50663780202E+03  0.80718256525E+02 0.  0.
        254    2    1    2    0    0  0.20940923259E+03 -0.87703691766E+02 -0.12347234711E+04  0.15416020532E+04  0.89467909118E+03 0.  0.
         23    2    4    4    0    0  0.26786470092E+03 -0.45557334346E+03 -0.65715043453E+03  0.84820204231E+03  0.91112247763E+02 0.  0.
         23    2    4    4    0    0 -0.58455468331E+02  0.36786965170E+03 -0.57757303657E+03  0.69340001093E+03  0.92020868053E+02 0.  0.
          4    1    3    3  502    0 -0.11685903699E+03  0.71945866705E+02  0.19079266195E+03  0.23501932286E+03  0.00000000000E+00 0. -1.
         -3    1    3    3    0  502 -0.92550195595E+02  0.15757825060E+02  0.25487791286E+03  0.27161847916E+03  0.00000000000E+00 0.  1.
         11    1    5    5    0    0  0.43675910768E+02 -0.48182789509E+02 -0.12937382867E+03  0.14479901219E+03  0.00000000000E+00 0. -1.
        -11    1    5    5    0    0  0.22418879015E+03 -0.40739055395E+03 -0.52777660586E+03  0.70340303012E+03  0.00000000000E+00 0.  1.
          1    1    6    6  503    0 -0.11903680150E+02  0.18793223651E+03 -0.21386040426E+03  0.28494998795E+03  0.00000000000E+00 0. -1.
         -1    1    6    6    0  503 -0.46551788180E+02  0.17993741519E+03 -0.36371263231E+03  0.40845002298E+03  0.00000000000E+00 0.  1.
<mgrwt>
<rscale>  0 0.18901540E+04</rscale>
<asrwt>0</asrwt>
<pdfrwt beam="1">  1        2 0.21825329E+00 0.18901540E+04</pdfrwt>
<pdfrwt beam="2">  1       -1 0.96860535E-01 0.18901540E+04</pdfrwt>
<totfact> 0.15458188E+01</totfact>
</mgrwt>
</event>
<event>
12    6  0.1462228E-007  0.1711306E+04  0.7818608E-02  0.8754942E-01
         -1   -1    0    0    0  501 -0.00000000000E+00  0.00000000000E+00  0.38128597870E+03  0.38128597870E+03  0.00000000000E+00 0.  1.
          2   -1    0    0  501    0  0.00000000000E+00 -0.00000000000E+00 -0.19201912142E+04  0.19201912142E+04  0.00000000000E+00 0. -1.
         24    2    1    2    0    0 -0.43453003497E+03  0.39411397272E+03 -0.18404615805E+03  0.62016751524E+03  0.81194728172E+02 0.  0.
        254    2    1    2    0    0  0.43453003497E+03 -0.39411397272E+03 -0.13548590775E+04  0.16813096777E+04  0.80437363063E+03 0.  0.
         23    2    4    4    0    0 -0.12646742012E+03  0.13645795726E+03 -0.39681258192E+03  0.44749323927E+03  0.90416765987E+02 0.  0.
         23    2    4    4    0    0  0.56099745509E+03 -0.53057192998E+03 -0.95804649554E+03  0.12338164384E+04  0.90692880263E+02 0.  0.
          2    1    3    3  502    0 -0.76915737792E+02  0.80248119860E+02 -0.68347095539E+02  0.13048799535E+03  0.00000000000E+00 0. -1.
         -3    1    3    3    0  502 -0.35761429718E+03  0.31386585286E+03 -0.11569906252E+03  0.48967951989E+03  0.00000000000E+00 0.  1.
         11    1    5    5    0    0 -0.15344716204E+02  0.81091011131E+02 -0.14950081514E+03  0.17076798918E+03  0.00000000000E+00 0. -1.
        -11    1    5    5    0    0 -0.11112270392E+03  0.55366946133E+02 -0.24731176678E+03  0.27672525009E+03  0.00000000000E+00 0.  1.
          3    1    6    6  503    0  0.15779808332E+03 -0.12482454122E+03 -0.30841235363E+03  0.36823848395E+03  0.00000000000E+00 0. -1.
         -3    1    6    6    0  503  0.40319937177E+03 -0.40574738877E+03 -0.64963414192E+03  0.86557795445E+03  0.00000000000E+00 0.  1.
<mgrwt>
<rscale>  0 0.17113059E+04</rscale>
<asrwt>0</asrwt>
<pdfrwt beam="1">  1        2 0.29541403E+00 0.17113059E+04</pdfrwt>
<pdfrwt beam="2">  1       -1 0.58659382E-01 0.17113059E+04</pdfrwt>
<totfact> 0.23600509E+01</totfact>
</mgrwt>
</event>
<event>
12    6  0.1462228E-007  0.1777044E+04  0.7818608E-02  0.8718603E-01
          2   -1    0    0  501    0  0.00000000000E+00  0.00000000000E+00  0.21340489151E+04  0.21340489151E+04  0.00000000000E+00 0. -1.
         -1   -1    0    0    0  501 -0.00000000000E+00 -0.00000000000E+00 -0.36994072432E+03  0.36994072432E+03  0.00000000000E+00 0.  1.
         24    2    1    2    0    0  0.60711499070E+03  0.35997414888E+02  0.49739359231E+03  0.78954892440E+03  0.78119732039E+02 0.  0.
        254    2    1    2    0    0 -0.60711499070E+03 -0.35997414888E+02  0.12667145985E+04  0.17144407150E+04  0.98227117718E+03 0.  0.
         23    2    4    4    0    0 -0.38116432593E+03  0.89361030088E+02  0.13653461894E+04  0.14232577845E+04  0.90668997776E+02 0.  0.
         23    2    4    4    0    0 -0.22595066478E+03 -0.12535844498E+03 -0.98631590979E+02  0.29118293048E+03  0.91054190578E+02 0.  0.
          2    1    3    3  502    0  0.42970971160E+03 -0.78736061046E+01  0.36537521067E+03  0.56410236171E+03  0.00000000000E+00 0. -1.
         -1    1    3    3    0  502  0.17740527911E+03  0.43871020993E+02  0.13201838163E+03  0.22544656269E+03  0.00000000000E+00 0.  1.
         11    1    5    5    0    0 -0.20341490069E+03  0.79214689833E+02  0.63308281988E+03  0.66966144113E+03  0.00000000000E+00 0. -1.
        -11    1    5    5    0    0 -0.17774942524E+03  0.10146340255E+02  0.73226336956E+03  0.75359634340E+03  0.00000000000E+00 0.  1.
          1    1    6    6  503    0 -0.22661735686E+03 -0.12472622546E+03 -0.10905263996E+03  0.28072145631E+03  0.00000000000E+00 0. -1.
         -1    1    6    6    0  503  0.66669208569E+00 -0.63221951714E+00  0.10421048984E+02  0.10461474169E+02  0.00000000000E+00 0.  1.
<mgrwt>
<rscale>  0 0.17770443E+04</rscale>
<asrwt>0</asrwt>
<pdfrwt beam="1">  1        2 0.32831521E+00 0.17770443E+04</pdfrwt>
<pdfrwt beam="2">  1       -1 0.56913959E-01 0.17770443E+04</pdfrwt>
<totfact> 0.18934472E+01</totfact>
</mgrwt>
</event>
<event>
12    6  0.1462228E-007  0.1636603E+04  0.7818608E-02  0.8798372E-01
         -1   -1    0    0    0  501 -0.00000000000E+00  0.00000000000E+00  0.49462101263E+03  0.49462101263E+03  0.00000000000E+00 0.  1.
          2   -1    0    0  501    0  0.00000000000E+00 -0.00000000000E+00 -0.13537980114E+04  0.13537980114E+04  0.00000000000E+00 0. -1.
         24    2    1    2    0    0 -0.26761535725E+03  0.10809277222E+03 -0.85895405862E+03  0.90939950792E+03  0.76833347846E+02 0.  0.
        254    2    1    2    0    0  0.26761535725E+03 -0.10809277222E+03 -0.22294019745E+00  0.93901951615E+03  0.89356341418E+03 0.  0.
         23    2    4    4    0    0  0.48271625677E+03 -0.65972049738E+02  0.28214291290E+03  0.57032878134E+03  0.91120796926E+02 0.  0.
         23    2    4    4    0    0 -0.21510089951E+03 -0.42120722485E+02 -0.28236585310E+03  0.36869073481E+03  0.90331781234E+02 0.  0.
          4    1    3    3  502    0 -0.11166641204E+03  0.39402048429E+02 -0.47123267475E+03  0.48588284879E+03  0.00000000000E+00 0. -1.
         -3    1    3    3    0  502 -0.15594894522E+03  0.68690723794E+02 -0.38772138387E+03  0.42351665913E+03  0.00000000000E+00 0.  1.
         11    1    5    5    0    0  0.47272009862E+03 -0.78381929670E+02  0.26803182855E+03  0.54904378665E+03  0.00000000000E+00 0. -1.
        -11    1    5    5    0    0  0.99961581447E+01  0.12409879932E+02  0.14111084350E+02  0.21284994694E+02  0.00000000000E+00 0.  1.
          4    1    6    6  503    0 -0.95867283220E+02 -0.64457955095E+02 -0.12944388774E+03  0.17349663985E+03  0.00000000000E+00 0. -1.
         -4    1    6    6    0  503 -0.11923361629E+03  0.22337232610E+02 -0.15292196536E+03  0.19519409495E+03  0.00000000000E+00 0.  1.
<mgrwt>
<rscale>  0 0.16366025E+04</rscale>
<asrwt>0</asrwt>
<pdfrwt beam="1">  1        2 0.20827662E+00 0.16366025E+04</pdfrwt>
<pdfrwt beam="2">  1       -1 0.76095540E-01 0.16366025E+04</pdfrwt>
<totfact> 0.29081945E+01</totfact>
</mgrwt>
</event>
<event>
12    6  0.1462228E-007  0.1450852E+04  0.7818608E-02  0.8917810E-01
         -1   -1    0    0    0  501 -0.00000000000E+00  0.00000000000E+00  0.90967753117E+03  0.90967753117E+03  0.00000000000E+00 0.  1.
          2   -1    0    0  501    0  0.00000000000E+00 -0.00000000000E+00 -0.57849386470E+03  0.57849386470E+03  0.00000000000E+00 0. -1.
         24    2    1    2    0    0  0.36301758607E+03 -0.42438121881E+02  0.15173431579E+03  0.40367727128E+03  0.79682336651E+02 0.  0.
        254    2    1    2    0    0 -0.36301758607E+03  0.42438121881E+02  0.17944935069E+03  0.10844941246E+04  0.10051580348E+04 0.  0.
         23    2    4    4    0    0 -0.30395594148E+03 -0.36854629327E+03  0.37767523414E+03  0.61558448693E+03  0.89944946612E+02 0.  0.
         23    2    4    4    0    0 -0.59061644586E+02  0.41098441515E+03 -0.19822588345E+03  0.46890963766E+03  0.90478063978E+02 0.  0.
          2    1    3    3  502    0  0.10724973400E+03 -0.54172402660E+01  0.84487537670E+02  0.13663819363E+03  0.00000000000E+00 0. -1.
         -1    1    3    3    0  502  0.25576785207E+03 -0.37020881615E+02  0.67246778121E+02  0.26703907765E+03  0.00000000000E+00 0.  1.
         11    1    5    5    0    0 -0.13938705277E+03 -0.17694100729E+03  0.23490198111E+03  0.32544709443E+03  0.00000000000E+00 0. -1.
        -11    1    5    5    0    0 -0.16456888871E+03 -0.19160528599E+03  0.14277325302E+03  0.29013739250E+03  0.00000000000E+00 0.  1.
          3    1    6    6  503    0 -0.66901723026E+02  0.38434314324E+03 -0.20445117830E+03  0.44044951652E+03  0.00000000000E+00 0. -1.
         -3    1    6    6    0  503  0.78400784402E+01  0.26641271918E+02  0.62252948477E+01  0.28460121140E+02  0.00000000000E+00 0.  1.
<mgrwt>
<rscale>  0 0.14508520E+04</rscale>
<asrwt>0</asrwt>
<pdfrwt beam="1">  1        2 0.88999056E-01 0.14508520E+04</pdfrwt>
<pdfrwt beam="2">  1       -1 0.13995039E+00 0.14508520E+04</pdfrwt>
<totfact> 0.24102817E+01</totfact>
</mgrwt>
</event>
<event>
12    6  0.1462228E-007  0.1207784E+04  0.7818608E-02  0.9106070E-01
         -1   -1    0    0    0  501 -0.00000000000E+00  0.00000000000E+00  0.41355797478E+03  0.41355797478E+03  0.00000000000E+00 0.  1.
          2   -1    0    0  501    0  0.00000000000E+00 -0.00000000000E+00 -0.88182498497E+03  0.88182498497E+03  0.00000000000E+00 0. -1.
         24    2    1    2    0    0  0.18868387182E+03 -0.55287893018E+02  0.85517594263E+02  0.22882659593E+03  0.79937459778E+02 0.  0.
        254    2    1    2    0    0 -0.18868387182E+03  0.55287893018E+02 -0.55378460445E+03  0.10665563638E+04  0.89005996118E+03 0.  0.
         23    2    4    4    0    0 -0.21993398268E+03  0.30250054835E+03 -0.67242016610E+03  0.77532297582E+03  0.95390243562E+02 0.  0.
         23    2    4    4    0    0  0.31250110863E+02 -0.24721265533E+03  0.11863556165E+03  0.29123338801E+03  0.93015178420E+02 0.  0.
          2    1    3    3  502    0  0.38248797881E+02  0.19872584886E+02  0.88215873320E+01  0.43996710928E+02  0.00000000000E+00 0. -1.
         -1    1    3    3    0  502  0.15043507394E+03 -0.75160477904E+02  0.76696006931E+02  0.18482988500E+03  0.00000000000E+00 0.  1.
         11    1    5    5    0    0 -0.18246593422E+03  0.25011152370E+03 -0.61714653943E+03  0.69044872552E+03  0.00000000000E+00 0.  1.
        -11    1    5    5    0    0 -0.37468048460E+02  0.52389024646E+02 -0.55273626666E+02  0.84874250297E+02  0.00000000000E+00 0. -1.
          4    1    6    6  503    0  0.28686153969E+02 -0.15494275954E+02  0.25881293651E+02  0.41627027013E+02  0.00000000000E+00 0. -1.
         -4    1    6    6    0  503  0.25639568942E+01 -0.23171837938E+03  0.92754267997E+02  0.24960636099E+03  0.00000000000E+00 0.  1.
<mgrwt>
<rscale>  0 0.12077843E+04</rscale>
<asrwt>0</asrwt>
<pdfrwt beam="1">  1        2 0.13566538E+00 0.12077843E+04</pdfrwt>
<pdfrwt beam="2">  1       -1 0.63624305E-01 0.12077843E+04</pdfrwt>
<totfact> 0.85086403E+01</totfact>
</mgrwt>
</event>
<event>
12    6  0.1462228E-007  0.1333903E+04  0.7818608E-02  0.9003104E-01
         -1   -1    0    0    0  501 -0.00000000000E+00  0.00000000000E+00  0.13311328183E+03  0.13311328183E+03  0.00000000000E+00 0.  1.
          2   -1    0    0  501    0  0.00000000000E+00 -0.00000000000E+00 -0.33416974676E+04  0.33416974676E+04  0.00000000000E+00 0. -1.
         24    2    1    2    0    0 -0.17619972274E+03  0.20959577318E+03 -0.25669420790E+03  0.38359365148E+03  0.79217691571E+02 0.  0.
        254    2    1    2    0    0  0.17619972274E+03 -0.20959577318E+03 -0.29518899779E+04  0.30912170980E+04  0.87578078011E+03 0.  0.
         23    2    4    4    0    0  0.88964097943E+02  0.24866476759E+03 -0.35761990198E+03  0.45394840526E+03  0.91806225218E+02 0.  0.
         23    2    4    4    0    0  0.87235624801E+02 -0.45826054076E+03 -0.25942700759E+04  0.26372686927E+04  0.85651347468E+02 0.  0.
          4    1    3    3  502    0 -0.40096840835E+02  0.10355318333E+03 -0.81835287304E+02  0.13794213523E+03  0.00000000000E+00 0. -1.
         -3    1    3    3    0  502 -0.13610288191E+03  0.10604258985E+03 -0.17485892060E+03  0.24565151626E+03  0.00000000000E+00 0.  1.
         11    1    5    5    0    0  0.62329816401E+01  0.38106935534E+02 -0.11911846400E+03  0.12522059360E+03  0.00000000000E+00 0. -1.
        -11    1    5    5    0    0  0.82731116303E+02  0.21055783205E+03 -0.23850143798E+03  0.32872781166E+03  0.00000000000E+00 0.  1.
          2    1    6    6  503    0  0.22001550268E+01 -0.21671062347E+02 -0.26615186342E+03  0.26704173836E+03  0.00000000000E+00 0. -1.
         -2    1    6    6    0  503  0.85035469774E+02 -0.43658947842E+03 -0.23281182125E+04  0.23702269544E+04  0.00000000000E+00 0.  1.
<mgrwt>
<rscale>  0 0.13339030E+04</rscale>
<asrwt>0</asrwt>
<pdfrwt beam="1">  1        2 0.51410723E+00 0.13339030E+04</pdfrwt>
<pdfrwt beam="2">  1       -1 0.20478969E-01 0.13339030E+04</pdfrwt>
<totfact> 0.23242337E+01</totfact>
</mgrwt>
</event>
<event>
12    6  0.1462228E-007  0.1853837E+04  0.7818608E-02  0.8678182E-01
          2   -1    0    0  501    0  0.00000000000E+00  0.00000000000E+00  0.10331969952E+04  0.10331969952E+04  0.00000000000E+00 0. -1.
         -1   -1    0    0    0  501 -0.00000000000E+00 -0.00000000000E+00 -0.83157196323E+03  0.83157196323E+03  0.00000000000E+00 0.  1.
         24    2    1    2    0    0  0.47234867557E+03  0.25383046907E+03 -0.38520528128E+03  0.66495776171E+03  0.79009732225E+02 0.  0.
        254    2    1    2    0    0 -0.47234867557E+03 -0.25383046907E+03  0.58683031327E+03  0.11998111967E+04  0.89868454583E+03 0.  0.
         23    2    4    4    0    0 -0.29570136313E+02  0.46491252862E+02  0.64499100283E+03  0.65381473007E+03  0.91784954974E+02 0.  0.
         23    2    4    4    0    0 -0.44277853926E+03 -0.30032172193E+03 -0.58160689566E+02  0.54599646668E+03  0.92105940735E+02 0.  0.
          4    1    3    3  502    0  0.24340207072E+03  0.11633772095E+03 -0.14768301283E+03  0.30755374429E+03  0.00000000000E+00 0. -1.
         -3    1    3    3    0  502  0.22894660485E+03  0.13749274812E+03 -0.23752226845E+03  0.35740401742E+03  0.00000000000E+00 0.  1.
         11    1    5    5    0    0 -0.21964679026E+02  0.63061577487E+02  0.61571486695E+03  0.61932544519E+03  0.00000000000E+00 0.  1.
        -11    1    5    5    0    0 -0.76054572872E+01 -0.16570324625E+02  0.29276135885E+02  0.34489284873E+02  0.00000000000E+00 0. -1.
          1    1    6    6  503    0 -0.13976207306E+02 -0.36580193712E+02 -0.90181548069E+01  0.40184226492E+02  0.00000000000E+00 0. -1.
         -1    1    6    6    0  503 -0.42880233195E+03 -0.26374152822E+03 -0.49142534760E+02  0.50581224018E+03  0.00000000000E+00 0.  1.
<mgrwt>
<rscale>  0 0.18538367E+04</rscale>
<asrwt>0</asrwt>
<pdfrwt beam="1">  1        2 0.15895338E+00 0.18538367E+04</pdfrwt>
<pdfrwt beam="2">  1       -1 0.12793415E+00 0.18538367E+04</pdfrwt>
<totfact> 0.13584237E+01</totfact>
</mgrwt>
</event>
<event>
12    6  0.1462228E-007  0.1769950E+04  0.7818608E-02  0.8722445E-01
         -1   -1    0    0    0  501 -0.00000000000E+00  0.00000000000E+00  0.18678475643E+04  0.18678475643E+04  0.00000000000E+00 0.  1.
          2   -1    0    0  501    0  0.00000000000E+00 -0.00000000000E+00 -0.41929573920E+03  0.41929573920E+03  0.00000000000E+00 0. -1.
         24    2    1    2    0    0  0.17325176701E+03  0.33982198034E+03  0.12243463016E+04  0.12848523002E+04  0.79538757769E+02 0.  0.
        254    2    1    2    0    0 -0.17325176701E+03 -0.33982198034E+03  0.22420552351E+03  0.10022910033E+04  0.89934642127E+03 0.  0.
         23    2    4    4    0    0 -0.46300758339E+03 -0.62367473159E+02 -0.89974916726E+02  0.48448286728E+03  0.91446372588E+02 0.  0.
         23    2    4    4    0    0  0.28975581638E+03 -0.27745450718E+03  0.31418044024E+03  0.51780813604E+03  0.92067801316E+02 0.  0.
          2    1    3    3  502    0  0.31455236140E+02  0.23897660713E+02  0.79389046411E+02  0.88674408699E+02  0.00000000000E+00 0. -1.
         -1    1    3    3    0  502  0.14179653087E+03  0.31592431963E+03  0.11449572552E+04  0.11961778915E+04  0.00000000000E+00 0.  1.
         11    1    5    5    0    0 -0.35955726731E+03 -0.68321471769E+02 -0.36304540785E+02  0.36778699224E+03  0.00000000000E+00 0. -1.
        -11    1    5    5    0    0 -0.10345031608E+03  0.59539986104E+01 -0.53670375940E+02  0.11669587503E+03  0.00000000000E+00 0.  1.
          3    1    6    6  503    0  0.26669632141E+03 -0.23396511626E+03  0.23837126987E+03  0.42741954305E+03  0.00000000000E+00 0. -1.
         -3    1    6    6    0  503  0.23059494969E+02 -0.43489390923E+02  0.75809170369E+02  0.90388592992E+02  0.00000000000E+00 0.  1.
<mgrwt>
<rscale>  0 0.17699497E+04</rscale>
<asrwt>0</asrwt>
<pdfrwt beam="1">  1        2 0.64507038E-01 0.17699497E+04</pdfrwt>
<pdfrwt beam="2">  1       -1 0.28736116E+00 0.17699497E+04</pdfrwt>
<totfact> 0.32557761E+00</totfact>
</mgrwt>
</event>
<event>
12    6  0.1462228E-007  0.2553263E+04  0.7818608E-02  0.8384252E-01
          2   -1    0    0  501    0  0.00000000000E+00  0.00000000000E+00  0.12822487697E+04  0.12822487697E+04  0.00000000000E+00 0. -1.
         -1   -1    0    0    0  501 -0.00000000000E+00 -0.00000000000E+00 -0.12710384336E+04  0.12710384336E+04  0.00000000000E+00 0.  1.
         24    2    1    2    0    0 -0.19126285177E+03 -0.31063511007E+03 -0.10549310680E+04  0.11190132935E+04  0.78965452792E+02 0.  0.
        254    2    1    2    0    0  0.19126285177E+03  0.31063511007E+03  0.10661414041E+04  0.14342739098E+04  0.88736041430E+03 0.  0.
         23    2    4    4    0    0  0.46562836980E+03  0.43328528290E+03  0.77034692366E+03  0.10033440048E+04  0.93375018118E+02 0.  0.
         23    2    4    4    0    0 -0.27436551804E+03 -0.12265017283E+03  0.29579448042E+03  0.43092990505E+03  0.88807128301E+02 0.  0.
          2    1    3    3  502    0 -0.31186882095E+01 -0.11156693396E+02 -0.83275601121E+01  0.14266964678E+02  0.00000000000E+00 0. -1.
         -1    1    3    3    0  502 -0.18814416356E+03 -0.29947841667E+03 -0.10466035079E+04  0.11047463288E+04  0.00000000000E+00 0.  1.
         11    1    5    5    0    0  0.16462238151E+02  0.88484376416E+01  0.44307129641E+01  0.19207585767E+02  0.00000000000E+00 0. -1.
        -11    1    5    5    0    0  0.44916613165E+03  0.42443684526E+03  0.76591621070E+03  0.98413641902E+03  0.00000000000E+00 0.  1.
          1    1    6    6  503    0 -0.11580610510E+03 -0.51859765794E+02  0.18711147866E+03  0.22607785105E+03  0.00000000000E+00 0. -1.
         -1    1    6    6    0  503 -0.15855941293E+03 -0.70790407033E+02  0.10868300176E+03  0.20485205400E+03  0.00000000000E+00 0.  1.
<mgrwt>
<rscale>  0 0.25532626E+04</rscale>
<asrwt>0</asrwt>
<pdfrwt beam="1">  1        2 0.19726904E+00 0.25532626E+04</pdfrwt>
<pdfrwt beam="2">  1       -1 0.19554438E+00 0.25532626E+04</pdfrwt>
<totfact> 0.27685139E+00</totfact>
</mgrwt>
</event>
<event>
12    6  0.1462228E-007  0.1814220E+04  0.7818608E-02  0.8698774E-01
         -1   -1    0    0    0  501 -0.00000000000E+00  0.00000000000E+00  0.47734210370E+03  0.47734210370E+03  0.00000000000E+00 0.  1.
          2   -1    0    0  501    0  0.00000000000E+00 -0.00000000000E+00 -0.17238122643E+04  0.17238122643E+04  0.00000000000E+00 0. -1.
         24    2    1    2    0    0 -0.22440235640E+03 -0.33221310372E+03 -0.11346827899E+04  0.12060926573E+04  0.80202870052E+02 0.  0.
        254    2    1    2    0    0  0.22440235640E+03  0.33221310372E+03 -0.11178737067E+03  0.99506171070E+03  0.90384148390E+03 0.  0.
         23    2    4    4    0    0 -0.75310013655E+02 -0.13354084044E+03 -0.34363536934E+03  0.38779643414E+03  0.93787275531E+02 0.  0.
         23    2    4    4    0    0  0.29971237005E+03  0.46575394416E+03  0.23184799867E+03  0.60726527656E+03  0.90903137300E+02 0.  0.
          4    1    3    3  502    0 -0.15273222396E+03 -0.27664768109E+03 -0.92990873746E+03  0.98213610650E+03  0.00000000000E+00 0. -1.
         -3    1    3    3    0  502 -0.71670132439E+02 -0.55565422629E+02 -0.20477405243E+03  0.22395655075E+03  0.00000000000E+00 0.  1.
         11    1    5    5    0    0 -0.90980621971E+02 -0.13478406266E+03 -0.29731266235E+03  0.33887908805E+03  0.00000000000E+00 0.  1.
        -11    1    5    5    0    0  0.15670608317E+02  0.12432222185E+01 -0.46322706985E+02  0.48917346094E+02  0.00000000000E+00 0. -1.
          3    1    6    6  503    0  0.23500310660E+00  0.79171960612E+01 -0.67579538988E+01  0.10411875951E+02  0.00000000000E+00 0. -1.
         -3    1    6    6    0  503  0.29947736694E+03  0.45783674810E+03  0.23860595257E+03  0.59685340061E+03  0.00000000000E+00 0.  1.
<mgrwt>
<rscale>  0 0.18142196E+04</rscale>
<asrwt>0</asrwt>
<pdfrwt beam="1">  1        2 0.26520188E+00 0.18142196E+04</pdfrwt>
<pdfrwt beam="2">  1       -1 0.73437247E-01 0.18142196E+04</pdfrwt>
<totfact> 0.19088200E+01</totfact>
</mgrwt>
</event>
<event>
12    6  0.1462228E-007  0.1370733E+04  0.7818608E-02  0.8975280E-01
         -1   -1    0    0    0  501 -0.00000000000E+00  0.00000000000E+00  0.23045908617E+03  0.23045908617E+03  0.00000000000E+00 0.  1.
          2   -1    0    0  501    0  0.00000000000E+00 -0.00000000000E+00 -0.20382239958E+04  0.20382239958E+04  0.00000000000E+00 0. -1.
         24    2    1    2    0    0  0.23172058638E+03  0.44372058116E+02 -0.10240200342E+04  0.10536405640E+04  0.76668755854E+02 0.  0.
        254    2    1    2    0    0 -0.23172058638E+03 -0.44372058116E+02 -0.78374487547E+03  0.12150425179E+04  0.89800277330E+03 0.  0.
         23    2    4    4    0    0  0.28550463631E+02 -0.42432979953E+03 -0.51571216480E+03  0.67453215353E+03  0.90353093392E+02 0.  0.
         23    2    4    4    0    0 -0.26027105001E+03  0.37995774141E+03 -0.26803271067E+03  0.54051036440E+03  0.90559457262E+02 0.  0.
          4    1    3    3  502    0  0.98587540093E+02  0.55976129596E+02 -0.42170706577E+03  0.43668029434E+03  0.00000000000E+00 0. -1.
         -3    1    3    3    0  502  0.13313304629E+03 -0.11604071480E+02 -0.60231296838E+03  0.61696026968E+03  0.00000000000E+00 0.  1.
         11    1    5    5    0    0 -0.10048081248E+02 -0.14727052917E+01 -0.11347595275E+02  0.15228286711E+02  0.00000000000E+00 0.  1.
        -11    1    5    5    0    0  0.38598544879E+02 -0.42285709424E+03 -0.50436456953E+03  0.65930386682E+03  0.00000000000E+00 0. -1.
          4    1    6    6  503    0 -0.23586655646E+03  0.34671365587E+03 -0.20909403457E+03  0.46857625518E+03  0.00000000000E+00 0. -1.
         -4    1    6    6    0  503 -0.24404493551E+02  0.33244085540E+02 -0.58938676097E+02  0.71934109218E+02  0.00000000000E+00 0.  1.
<mgrwt>
<rscale>  0 0.13707330E+04</rscale>
<asrwt>0</asrwt>
<pdfrwt beam="1">  1        2 0.31357292E+00 0.13707330E+04</pdfrwt>
<pdfrwt beam="2">  1       -1 0.35455244E-01 0.13707330E+04</pdfrwt>
<totfact> 0.53631306E+01</totfact>
</mgrwt>
</event>
<event>
12    6  0.1462228E-007  0.1515494E+04  0.7818608E-02  0.8874215E-01
          2   -1    0    0  501    0  0.00000000000E+00  0.00000000000E+00  0.23102419809E+04  0.23102419809E+04  0.00000000000E+00 0. -1.
         -1   -1    0    0    0  501 -0.00000000000E+00 -0.00000000000E+00 -0.24853683807E+03  0.24853683807E+03  0.00000000000E+00 0.  1.
         24    2    1    2    0    0 -0.31190765489E+03  0.27562605411E+03  0.10977550265E+04  0.11766485664E+04  0.78610710605E+02 0.  0.
        254    2    1    2    0    0  0.31190765489E+03 -0.27562605411E+03  0.96395011633E+03  0.13821302525E+04  0.89879257970E+03 0.  0.
         23    2    4    4    0    0 -0.15993329579E+03  0.12080580980E+03  0.64566239210E+03  0.68241333940E+03  0.92926521689E+02 0.  0.
         23    2    4    4    0    0  0.47184095068E+03 -0.39643186391E+03  0.31828772422E+03  0.69971691313E+03  0.92220267101E+02 0.  0.
          4    1    3    3  502    0 -0.27435976107E+03  0.26891116720E+03  0.96946672968E+03  0.10428097786E+04  0.00000000000E+00 0. -1.
         -3    1    3    3    0  502 -0.37547893818E+02  0.67148869094E+01  0.12828829679E+03  0.13383878784E+03  0.00000000000E+00 0.  1.
         11    1    5    5    0    0  0.26284387753E+01  0.33362933852E+02  0.14487137326E+03  0.14868661284E+03  0.00000000000E+00 0.  1.
        -11    1    5    5    0    0 -0.16256173457E+03  0.87442875951E+02  0.50079101884E+03  0.53372672657E+03  0.00000000000E+00 0. -1.
          4    1    6    6  503    0  0.45748705675E+03 -0.35534816143E+03  0.29004845836E+03  0.64783858416E+03  0.00000000000E+00 0.  1.
         -4    1    6    6    0  503  0.14353893930E+02 -0.41083702475E+02  0.28239265863E+02  0.51878328968E+02  0.00000000000E+00 0. -1.
<mgrwt>
<rscale>  0 0.15154936E+04</rscale>
<asrwt>0</asrwt>
<pdfrwt beam="1">  1        2 0.35542183E+00 0.15154936E+04</pdfrwt>
<pdfrwt beam="2">  1       -1 0.38236438E-01 0.15154936E+04</pdfrwt>
<totfact> 0.32567852E+01</totfact>
</mgrwt>
</event>
<event>
12    6  0.1462228E-007  0.1453265E+04  0.7818608E-02  0.8916140E-01
          2   -1    0    0  501    0  0.00000000000E+00  0.00000000000E+00  0.91471060087E+03  0.91471060087E+03  0.00000000000E+00 0. -1.
         -1   -1    0    0    0  501 -0.00000000000E+00 -0.00000000000E+00 -0.57722589203E+03  0.57722589203E+03  0.00000000000E+00 0.  1.
         24    2    1    2    0    0 -0.28229754789E+02 -0.28988468139E+03 -0.23690233966E+03  0.38465107064E+03  0.83687992252E+02 0.  0.
        254    2    1    2    0    0  0.28229754789E+02  0.28988468139E+03  0.57438704851E+03  0.11072854222E+04  0.90073885076E+03 0.  0.
         23    2    4    4    0    0 -0.29578620954E+03  0.43546554940E+03  0.16776682360E+03  0.55984025174E+03  0.90308769821E+02 0.  0.
         23    2    4    4    0    0  0.32401596433E+03 -0.14558086800E+03  0.40662022491E+03  0.54744517050E+03  0.90421640874E+02 0.  0.
          4    1    3    3  502    0  0.20228554315E+02 -0.70581773983E+02 -0.90570421378E+02  0.11659323504E+03  0.00000000000E+00 0. -1.
         -3    1    3    3    0  502 -0.48458309104E+02 -0.21930290741E+03 -0.14633191829E+03  0.26805783561E+03  0.00000000000E+00 0.  1.
         11    1    5    5    0    0 -0.66240497507E+02  0.13268472933E+03  0.85140602774E+02  0.17100281620E+03  0.00000000000E+00 0.  1.
        -11    1    5    5    0    0 -0.22954571203E+03  0.30278082007E+03  0.82626220823E+02  0.38883743554E+03  0.00000000000E+00 0. -1.
          3    1    6    6  503    0  0.17397699672E+03 -0.30158123765E+02  0.21286764313E+03  0.27656851106E+03  0.00000000000E+00 0. -1.
         -3    1    6    6    0  503  0.15003896760E+03 -0.11542274424E+03  0.19375258178E+03  0.27087665945E+03  0.00000000000E+00 0.  1.
<mgrwt>
<rscale>  0 0.14532648E+04</rscale>
<asrwt>0</asrwt>
<pdfrwt beam="1">  1        2 0.14072471E+00 0.14532648E+04</pdfrwt>
<pdfrwt beam="2">  1       -1 0.88803984E-01 0.14532648E+04</pdfrwt>
<totfact> 0.39464160E+01</totfact>
</mgrwt>
</event>
<event>
12    6  0.1462228E-007  0.1489939E+04  0.7818608E-02  0.8891171E-01
         -1   -1    0    0    0  501 -0.00000000000E+00  0.00000000000E+00  0.22259172502E+04  0.22259172502E+04  0.00000000000E+00 0.  1.
          2   -1    0    0  501    0  0.00000000000E+00 -0.00000000000E+00 -0.24932609817E+03  0.24932609817E+03  0.00000000000E+00 0. -1.
         24    2    1    2    0    0 -0.36221650868E+02  0.24089594011E+03  0.13067110879E+04  0.13319058080E+04  0.84476933119E+02 0.  0.
        254    2    1    2    0    0  0.36221650868E+02 -0.24089594011E+03  0.66988006411E+03  0.11433375403E+04  0.89394550668E+03 0.  0.
         23    2    4    4    0    0 -0.24511064009E+03 -0.17548158848E+03  0.76336192417E+03  0.82575828190E+03  0.91007137471E+02 0.  0.
         23    2    4    4    0    0  0.28133229096E+03 -0.65414351633E+02 -0.93481860060E+02  0.31757925844E+03  0.93224631393E+02 0.  0.
          2    1    3    3  502    0  0.23804532328E+02  0.28803511798E+02  0.18076626562E+03  0.18458803005E+03  0.00000000000E+00 0. -1.
         -1    1    3    3    0  502 -0.60026183196E+02  0.21209242832E+03  0.11259448223E+04  0.11473177780E+04  0.00000000000E+00 0.  1.
         11    1    5    5    0    0 -0.24818429820E+03 -0.15733113021E+03  0.73856279169E+03  0.79487327775E+03  0.00000000000E+00 0. -1.
        -11    1    5    5    0    0  0.30736581108E+01 -0.18150458274E+02  0.24799132477E+02  0.30885004150E+02  0.00000000000E+00 0.  1.
          1    1    6    6  503    0  0.20992137751E+03 -0.54270592774E+02 -0.11045714184E+03  0.24333734230E+03  0.00000000000E+00 0. -1.
         -1    1    6    6    0  503  0.71410913452E+02 -0.11143758859E+02  0.16975281777E+02  0.74241916145E+02  0.00000000000E+00 0.  1.
<mgrwt>
<rscale>  0 0.14899386E+04</rscale>
<asrwt>0</asrwt>
<pdfrwt beam="1">  1        2 0.38357863E-01 0.14899386E+04</pdfrwt>
<pdfrwt beam="2">  1       -1 0.34244880E+00 0.14899386E+04</pdfrwt>
<totfact> 0.26198289E+00</totfact>
</mgrwt>
</event>
<event>
12    6  0.1462228E-007  0.1086990E+04  0.7818608E-02  0.9217966E-01
         -1   -1    0    0    0  501 -0.00000000000E+00  0.00000000000E+00  0.73873883849E+03  0.73873883849E+03  0.00000000000E+00 0.  1.
          2   -1    0    0  501    0  0.00000000000E+00 -0.00000000000E+00 -0.39985273013E+03  0.39985273013E+03  0.00000000000E+00 0. -1.
         24    2    1    2    0    0 -0.48618705713E+02  0.61066985313E+02  0.16215425588E+03  0.19695683562E+03  0.80031476026E+02 0.  0.
        254    2    1    2    0    0  0.48618705713E+02 -0.61066985313E+02  0.17673185248E+03  0.94163473300E+03  0.92160125189E+03 0.  0.
         23    2    4    4    0    0 -0.14871372522E+03 -0.32388950587E+03  0.39234906241E+03  0.53776362164E+03  0.90728947430E+02 0.  0.
         23    2    4    4    0    0  0.19733243093E+03  0.26282252055E+03 -0.21561720993E+03  0.40387111137E+03  0.92764905925E+02 0.  0.
          2    1    3    3  502    0 -0.21594880911E+02 -0.17784323325E+02  0.33283620284E+02  0.43478965223E+02  0.00000000000E+00 0. -1.
         -1    1    3    3    0  502 -0.27023824803E+02  0.78851308639E+02  0.12887063560E+03  0.15347787040E+03  0.00000000000E+00 0.  1.
         11    1    5    5    0    0 -0.74786335751E+02 -0.22490929631E+03  0.30590782866E+03  0.38698422089E+03  0.00000000000E+00 0.  1.
        -11    1    5    5    0    0 -0.73927389464E+02 -0.98980209559E+02  0.86441233750E+02  0.15077940075E+03  0.00000000000E+00 0. -1.
          3    1    6    6  503    0  0.62263373377E+02  0.50543220913E+02 -0.13909546714E+02  0.81392999296E+02  0.00000000000E+00 0. -1.
         -3    1    6    6    0  503  0.13506905755E+03  0.21227929964E+03 -0.20170766322E+03  0.32247811207E+03  0.00000000000E+00 0.  1.
<mgrwt>
<rscale>  0 0.10869899E+04</rscale>
<asrwt>0</asrwt>
<pdfrwt beam="1">  1        2 0.61515805E-01 0.10869899E+04</pdfrwt>
<pdfrwt beam="2">  1       -1 0.11365213E+00 0.10869899E+04</pdfrwt>
<totfact> 0.63915093E+01</totfact>
</mgrwt>
</event>
<event>
12    6  0.1462228E-007  0.2898824E+04  0.7818608E-02  0.8273228E-01
          2   -1    0    0  501    0  0.00000000000E+00  0.00000000000E+00  0.22080154214E+04  0.22080154214E+04  0.00000000000E+00 0. -1.
         -1   -1    0    0    0  501 -0.00000000000E+00 -0.00000000000E+00 -0.95144014624E+03  0.95144014624E+03  0.00000000000E+00 0.  1.
         24    2    1    2    0    0 -0.29956803958E+03  0.74214663304E+03  0.17227961222E+04  0.19012842045E+04  0.79577084252E+02 0.  0.
        254    2    1    2    0    0  0.29956803958E+03 -0.74214663304E+03 -0.46622084708E+03  0.12581713631E+04  0.85153430079E+03 0.  0.
         23    2    4    4    0    0  0.42772109237E+03 -0.68989700611E+03 -0.62400657427E+03  0.10284286161E+04  0.96840083872E+02 0.  0.
         23    2    4    4    0    0 -0.12815305279E+03 -0.52249626934E+02  0.15778572719E+03  0.22974274698E+03  0.93446057340E+02 0.  0.
          2    1    3    3  502    0 -0.13944049488E+03  0.43179867216E+03  0.10266405272E+04  0.11224457746E+04  0.00000000000E+00 0. -1.
         -1    1    3    3    0  502 -0.16012754470E+03  0.31034796088E+03  0.69615559507E+03  0.77883842993E+03  0.00000000000E+00 0.  1.
         11    1    5    5    0    0  0.85005522626E+02 -0.10558551870E+03 -0.65864197823E+02  0.15070611531E+03  0.00000000000E+00 0.  1.
        -11    1    5    5    0    0  0.34271556975E+03 -0.58431148740E+03 -0.55814237644E+03  0.87772250082E+03  0.00000000000E+00 0. -1.
          3    1    6    6  503    0 -0.28316105331E+02 -0.39394117059E+02  0.10592689990E+03  0.11650839627E+03  0.00000000000E+00 0. -1.
         -3    1    6    6    0  503 -0.99836947463E+02 -0.12855509875E+02  0.51858827286E+02  0.11323435071E+03  0.00000000000E+00 0.  1.
<mgrwt>
<rscale>  0 0.28988236E+04</rscale>
<asrwt>0</asrwt>
<pdfrwt beam="1">  1        2 0.33969468E+00 0.28988236E+04</pdfrwt>
<pdfrwt beam="2">  1       -1 0.14637541E+00 0.28988236E+04</pdfrwt>
<totfact> 0.18687577E+00</totfact>
</mgrwt>
</event>
<event>
12    6  0.1462228E-007  0.1968394E+04  0.7818608E-02  0.8621542E-01
         -1   -1    0    0    0  501 -0.00000000000E+00  0.00000000000E+00  0.30912801360E+03  0.30912801360E+03  0.00000000000E+00 0.  1.
          2   -1    0    0  501    0  0.00000000000E+00 -0.00000000000E+00 -0.31334703024E+04  0.31334703024E+04  0.00000000000E+00 0. -1.
         24    2    1    2    0    0  0.75999458104E+03  0.74865103823E+02 -0.13640115459E+04  0.15653009067E+04  0.80267578789E+02 0.  0.
        254    2    1    2    0    0 -0.75999458104E+03 -0.74865103823E+02 -0.14603307430E+04  0.18772974093E+04  0.89915690362E+03 0.  0.
         23    2    4    4    0    0  0.20643087851E+02  0.15767979746E+03 -0.81156357293E+03  0.83200928446E+03  0.91186407447E+02 0.  0.
         23    2    4    4    0    0 -0.78063766889E+03 -0.23254490128E+03 -0.64876717003E+03  0.10452881249E+04  0.90863204542E+02 0.  0.
          2    1    3    3  502    0  0.65735878678E+03  0.84403765321E+02 -0.12168632537E+04  0.13856409161E+04  0.00000000000E+00 0. -1.
         -1    1    3    3    0  502  0.10263579426E+03 -0.95386614977E+01 -0.14714829212E+03  0.17965999054E+03  0.00000000000E+00 0.  1.
         11    1    5    5    0    0 -0.10619199841E+02  0.14686144331E+03 -0.59584802951E+03  0.61377188369E+03  0.00000000000E+00 0. -1.
        -11    1    5    5    0    0  0.31262287692E+02  0.10818354148E+02 -0.21571554343E+03  0.21823740077E+03  0.00000000000E+00 0.  1.
          4    1    6    6  503    0 -0.67966139531E+03 -0.18557237059E+03 -0.59225299234E+03  0.92040226202E+03  0.00000000000E+00 0. -1.
         -4    1    6    6    0  503 -0.10097627358E+03 -0.46972530690E+02 -0.56514177685E+02  0.12488586287E+03  0.00000000000E+00 0.  1.
<mgrwt>
<rscale>  0 0.19683937E+04</rscale>
<asrwt>0</asrwt>
<pdfrwt beam="1">  1        2 0.48207231E+00 0.19683937E+04</pdfrwt>
<pdfrwt beam="2">  1       -1 0.47558161E-01 0.19683937E+04</pdfrwt>
<totfact> 0.67250178E+00</totfact>
</mgrwt>
</event>
<event>
12    6  0.1462228E-007  0.1331406E+04  0.7818608E-02  0.9005024E-01
          2   -1    0    0  501    0  0.00000000000E+00  0.00000000000E+00  0.95173364870E+03  0.95173364870E+03  0.00000000000E+00 0. -1.
         -1   -1    0    0    0  501 -0.00000000000E+00 -0.00000000000E+00 -0.46563476306E+03  0.46563476306E+03  0.00000000000E+00 0.  1.
         24    2    1    2    0    0 -0.31605671367E+03 -0.15095439760E+03  0.26261205737E+03  0.44524865620E+03  0.81253903061E+02 0.  0.
        254    2    1    2    0    0  0.31605671367E+03  0.15095439760E+03  0.22348682828E+03  0.97211975556E+03  0.87885799781E+03 0.  0.
         23    2    4    4    0    0  0.31578076434E+03  0.38325669915E+03  0.41790792887E+03  0.65619114989E+03  0.96626081425E+02 0.  0.
         23    2    4    4    0    0  0.27594932709E+00 -0.23230230155E+03 -0.19442110060E+03  0.31592860566E+03  0.89704426116E+02 0.  0.
          2    1    3    3  502    0 -0.37437719111E+01  0.80674983286E+01  0.43406201083E+01  0.98965317323E+01  0.00000000000E+00 0. -1.
         -1    1    3    3    0  502 -0.31231294176E+03 -0.15902189593E+03  0.25827143726E+03  0.43535212447E+03  0.00000000000E+00 0.  1.
         11    1    5    5    0    0  0.33855460210E+01  0.37257791848E+02  0.15978934471E+02  0.40680847116E+02  0.00000000000E+00 0. -1.
        -11    1    5    5    0    0  0.31239521832E+03  0.34599890730E+03  0.40192899440E+03  0.61551030278E+03  0.00000000000E+00 0.  1.
          4    1    6    6  503    0 -0.93985556898E+01 -0.35496978730E+02 -0.80118702736E+02  0.88132711726E+02  0.00000000000E+00 0. -1.
         -4    1    6    6    0  503  0.96745050169E+01 -0.19680532282E+03 -0.11430239786E+03  0.22779589394E+03  0.00000000000E+00 0.  1.
<mgrwt>
<rscale>  0 0.13314057E+04</rscale>
<asrwt>0</asrwt>
<pdfrwt beam="1">  1        2 0.14642056E+00 0.13314057E+04</pdfrwt>
<pdfrwt beam="2">  1       -1 0.71636117E-01 0.13314057E+04</pdfrwt>
<totfact> 0.59460117E+01</totfact>
</mgrwt>
</event>
<event>
12    6  0.1462228E-007  0.1360485E+04  0.7818608E-02  0.8982929E-01
         -1   -1    0    0    0  501 -0.00000000000E+00  0.00000000000E+00  0.44880525318E+03  0.44880525318E+03  0.00000000000E+00 0.  1.
          2   -1    0    0  501    0  0.00000000000E+00 -0.00000000000E+00 -0.10310263944E+04  0.10310263944E+04  0.00000000000E+00 0. -1.
         24    2    1    2    0    0  0.43098888179E+02  0.29393203569E+03 -0.42229899177E+03  0.52225447735E+03  0.78484042339E+02 0.  0.
        254    2    1    2    0    0 -0.43098888179E+02 -0.29393203569E+03 -0.15992214941E+03  0.95757717018E+03  0.89617263248E+03 0.  0.
         23    2    4    4    0    0 -0.93105908330E+02  0.98213210153E+02 -0.43695028044E+03  0.46645031196E+03  0.91300608623E+02 0.  0.
         23    2    4    4    0    0  0.50007020151E+02 -0.39214524584E+03  0.27702813103E+03  0.49112685822E+03  0.90456672427E+02 0.  0.
          4    1    3    3  502    0 -0.10210908772E+01  0.20543132294E+03 -0.31749347924E+03  0.37816025761E+03  0.00000000000E+00 0. -1.
         -3    1    3    3    0  502  0.44119979056E+02  0.88500712748E+02 -0.10480551253E+03  0.14409421975E+03  0.00000000000E+00 0.  1.
         11    1    5    5    0    0 -0.31016781589E+02  0.93753376367E+02 -0.22904615209E+03  0.24942709578E+03  0.00000000000E+00 0. -1.
        -11    1    5    5    0    0 -0.62089126741E+02  0.44598337858E+01 -0.20790412835E+03  0.21702321618E+03  0.00000000000E+00 0.  1.
          1    1    6    6  503    0  0.33095214100E+02 -0.25590495503E+03  0.12643165942E+03  0.28734579118E+03  0.00000000000E+00 0. -1.
         -1    1    6    6    0  503  0.16911806051E+02 -0.13624029081E+03  0.15059647161E+03  0.20378106704E+03  0.00000000000E+00 0.  1.
<mgrwt>
<rscale>  0 0.13604853E+04</rscale>
<asrwt>0</asrwt>
<pdfrwt beam="1">  1        2 0.15861945E+00 0.13604853E+04</pdfrwt>
<pdfrwt beam="2">  1       -1 0.69046962E-01 0.13604853E+04</pdfrwt>
<totfact> 0.56868655E+01</totfact>
</mgrwt>
</event>
<event>
12    6  0.1462228E-007  0.1333609E+04  0.7818608E-02  0.9003330E-01
          2   -1    0    0  501    0  0.00000000000E+00  0.00000000000E+00  0.25311947365E+04  0.25311947365E+04  0.00000000000E+00 0. -1.
         -1   -1    0    0    0  501 -0.00000000000E+00 -0.00000000000E+00 -0.17565932213E+03  0.17565932213E+03  0.00000000000E+00 0.  1.
         24    2    1    2    0    0  0.15872236783E+01  0.21487987638E+02 -0.77346449915E+02  0.11252735886E+03  0.78839585776E+02 0.  0.
        254    2    1    2    0    0 -0.15872236783E+01 -0.21487987638E+02  0.24328818643E+04  0.25943266998E+04  0.90064010942E+03 0.  0.
         23    2    4    4    0    0  0.32863241563E+03  0.62232636125E+02  0.20276354904E+04  0.20570190916E+04  0.90275663333E+02 0.  0.
         23    2    4    4    0    0 -0.33021963931E+03 -0.83720623763E+02  0.40524637384E+03  0.53730760820E+03  0.91764313835E+02 0.  0.
          4    1    3    3  502    0 -0.18710898867E+02 -0.11000433028E+02  0.44935999868E+01  0.22165281502E+02  0.00000000000E+00 0. -1.
         -3    1    3    3    0  502  0.20298122545E+02  0.32488420666E+02 -0.81840049902E+02  0.90362077356E+02  0.00000000000E+00 0.  1.
         11    1    5    5    0    0  0.14354833958E+03  0.72400501444E+02  0.98499951063E+03  0.99803406472E+03  0.00000000000E+00 0. -1.
        -11    1    5    5    0    0  0.18508407605E+03 -0.10167865319E+02  0.10426359798E+04  0.10589850268E+04  0.00000000000E+00 0.  1.
          2    1    6    6  503    0 -0.32238059875E+03 -0.87855517613E+02  0.40860369154E+03  0.52783029391E+03  0.00000000000E+00 0. -1.
         -2    1    6    6    0  503 -0.78390405521E+01  0.41348938499E+01 -0.33573177058E+01  0.94773142876E+01  0.00000000000E+00 0.  1.
<mgrwt>
<rscale>  0 0.13336086E+04</rscale>
<asrwt>0</asrwt>
<pdfrwt beam="1">  1        2 0.38941455E+00 0.13336086E+04</pdfrwt>
<pdfrwt beam="2">  1       -1 0.27024513E-01 0.13336086E+04</pdfrwt>
<totfact> 0.45750855E+01</totfact>
</mgrwt>
</event>
<event>
12    6  0.1462228E-007  0.1433741E+04  0.7818608E-02  0.8929751E-01
         -1   -1    0    0    0  501 -0.00000000000E+00  0.00000000000E+00  0.22763030399E+03  0.22763030399E+03  0.00000000000E+00 0.  1.
          2   -1    0    0  501    0  0.00000000000E+00 -0.00000000000E+00 -0.22576211863E+04  0.22576211863E+04  0.00000000000E+00 0. -1.
         24    2    1    2    0    0 -0.50397229180E+02  0.42899156500E+03 -0.77592180047E+03  0.89202404973E+03  0.84134542866E+02 0.  0.
        254    2    1    2    0    0  0.50397229180E+02 -0.42899156500E+03 -0.12540690818E+04  0.15932274405E+04  0.88267251671E+03 0.  0.
         23    2    4    4    0    0 -0.26100375889E+03 -0.50513917008E+03 -0.10633868563E+04  0.12092342356E+04  0.90373043634E+02 0.  0.
         23    2    4    4    0    0  0.31140098807E+03  0.76147605074E+02 -0.19068222547E+03  0.38399320493E+03  0.91225200437E+02 0.  0.
          4    1    3    3  502    0 -0.73169470690E+02  0.36115675386E+03 -0.65196547283E+03  0.74889715586E+03  0.00000000000E+00 0. -1.
         -3    1    3    3    0  502  0.22772241510E+02  0.67834811143E+02 -0.12395632764E+03  0.14312689387E+03  0.00000000000E+00 0.  1.
         11    1    5    5    0    0 -0.10771067273E+03 -0.16082431610E+03 -0.44124884171E+03  0.48183668393E+03  0.00000000000E+00 0. -1.
        -11    1    5    5    0    0 -0.15329308616E+03 -0.34431485398E+03 -0.62213801464E+03  0.72739755168E+03  0.00000000000E+00 0.  1.
          3    1    6    6  503    0  0.86311219644E+02 -0.18691349510E+02 -0.39549094887E+02  0.96763237282E+02  0.00000000000E+00 0. -1.
         -3    1    6    6    0  503  0.22508976842E+03  0.94838954584E+02 -0.15113313058E+03  0.28722996765E+03  0.00000000000E+00 0.  1.
<mgrwt>
<rscale>  0 0.14337406E+04</rscale>
<asrwt>0</asrwt>
<pdfrwt beam="1">  1        2 0.34732634E+00 0.14337406E+04</pdfrwt>
<pdfrwt beam="2">  1       -1 0.35020046E-01 0.14337406E+04</pdfrwt>
<totfact> 0.41143580E+01</totfact>
</mgrwt>
</event>
<event>
12    6  0.1462228E-007  0.1550191E+04  0.7818608E-02  0.8851745E-01
         -1   -1    0    0    0  501 -0.00000000000E+00  0.00000000000E+00  0.34653177440E+03  0.34653177440E+03  0.00000000000E+00 0.  1.
          2   -1    0    0  501    0  0.00000000000E+00 -0.00000000000E+00 -0.17336746493E+04  0.17336746493E+04  0.00000000000E+00 0. -1.
         24    2    1    2    0    0 -0.20591136438E+03  0.40552206287E+03 -0.15204318913E+03  0.48614925083E+03  0.79851920931E+02 0.  0.
        254    2    1    2    0    0  0.20591136438E+03 -0.40552206287E+03 -0.12350996857E+04  0.15940571728E+04  0.89927715588E+03 0.  0.
         23    2    4    4    0    0 -0.19166121724E+03 -0.33121196536E+03 -0.12938263182E+03  0.41339906586E+03  0.87883639188E+02 0.  0.
         23    2    4    4    0    0  0.39757258162E+03 -0.74310097501E+02 -0.11057170539E+04  0.11806581070E+04  0.88076182920E+02 0.  0.
          2    1    3    3  502    0 -0.10068901449E+03  0.15002544421E+03 -0.26366465853E+02  0.18259546016E+03  0.00000000000E+00 0. -1.
         -1    1    3    3    0  502 -0.10522234989E+03  0.25549661865E+03 -0.12567672328E+03  0.30355379068E+03  0.00000000000E+00 0.  1.
         11    1    5    5    0    0 -0.36432162001E+02 -0.23087618148E+02  0.43934772322E+01  0.43354851885E+02  0.00000000000E+00 0.  1.
        -11    1    5    5    0    0 -0.15522905524E+03 -0.30812434722E+03 -0.13377610906E+03  0.37004421397E+03  0.00000000000E+00 0. -1.
          4    1    6    6  503    0  0.34173089032E+03 -0.87386548540E+02 -0.10000148989E+04  0.10603990798E+04  0.00000000000E+00 0. -1.
         -4    1    6    6    0  503  0.55841691297E+02  0.13076451040E+02 -0.10570215498E+03  0.12025902721E+03  0.00000000000E+00 0.  1.
<mgrwt>
<rscale>  0 0.15501914E+04</rscale>
<asrwt>0</asrwt>
<pdfrwt beam="1">  1        2 0.26671917E+00 0.15501914E+04</pdfrwt>
<pdfrwt beam="2">  1       -1 0.53312581E-01 0.15501914E+04</pdfrwt>
<totfact> 0.36552578E+01</totfact>
</mgrwt>
</event>
<event>
12    6  0.1462228E-007  0.1411535E+04  0.7818608E-02  0.8945511E-01
         -1   -1    0    0    0  501 -0.00000000000E+00  0.00000000000E+00  0.30002968201E+03  0.30002968201E+03  0.00000000000E+00 0.  1.
          2   -1    0    0  501    0  0.00000000000E+00 -0.00000000000E+00 -0.16601948465E+04  0.16601948465E+04  0.00000000000E+00 0. -1.
         24    2    1    2    0    0  0.29622083603E+03 -0.20373163741E+03 -0.12952576978E+03  0.39121904738E+03  0.83797698141E+02 0.  0.
        254    2    1    2    0    0 -0.29622083603E+03  0.20373163741E+03 -0.12306393947E+04  0.15690054811E+04  0.90446200375E+03 0.  0.
         23    2    4    4    0    0 -0.21443737266E+03  0.45508852431E+03 -0.29044871318E+03  0.58791778584E+03  0.90542344643E+02 0.  0.
         23    2    4    4    0    0 -0.81783463364E+02 -0.25135688689E+03 -0.94019068150E+03  0.98108769526E+03  0.93304494786E+02 0.  0.
          4    1    3    3  502    0  0.15800268023E+03 -0.69036419817E+02 -0.33483998444E+02  0.17564752311E+03  0.00000000000E+00 0. -1.
         -3    1    3    3    0  502  0.13821815579E+03 -0.13469521760E+03 -0.96041771336E+02  0.21557152427E+03  0.00000000000E+00 0.  1.
         11    1    5    5    0    0 -0.14952608992E+03  0.37378981540E+03 -0.19755724615E+03  0.44844814992E+03  0.00000000000E+00 0. -1.
        -11    1    5    5    0    0 -0.64911282744E+02  0.81298708909E+02 -0.92891467024E+02  0.13946963592E+03  0.00000000000E+00 0.  1.
          1    1    6    6  503    0 -0.90873306696E+02 -0.16658433774E+03 -0.55398624509E+03  0.58558437411E+03  0.00000000000E+00 0. -1.
         -1    1    6    6    0  503  0.90898433324E+01 -0.84772549155E+02 -0.38620443641E+03  0.39550332115E+03  0.00000000000E+00 0.  1.
<mgrwt>
<rscale>  0 0.14115350E+04</rscale>
<asrwt>0</asrwt>
<pdfrwt beam="1">  1        2 0.25541459E+00 0.14115350E+04</pdfrwt>
<pdfrwt beam="2">  1       -1 0.46158412E-01 0.14115350E+04</pdfrwt>
<totfact> 0.53392617E+01</totfact>
</mgrwt>
</event>
<event>
12    6  0.1462228E-007  0.1582357E+04  0.7818608E-02  0.8831461E-01
         -1   -1    0    0    0  501 -0.00000000000E+00  0.00000000000E+00  0.21813207060E+03  0.21813207060E+03  0.00000000000E+00 0.  1.
          2   -1    0    0  501    0  0.00000000000E+00 -0.00000000000E+00 -0.28696535394E+04  0.28696535394E+04  0.00000000000E+00 0. -1.
         24    2    1    2    0    0  0.25659959989E+02 -0.21856210272E+03  0.46804764968E+02  0.24059432578E+03  0.85247388701E+02 0.  0.
        254    2    1    2    0    0 -0.25659959989E+02  0.21856210272E+03 -0.26983262337E+04  0.28471912842E+04  0.88153611315E+03 0.  0.
         23    2    4    4    0    0  0.31376430976E+03 -0.15106840999E+03 -0.15464313095E+04  0.15874220394E+04  0.84789324961E+02 0.  0.
         23    2    4    4    0    0 -0.33942426975E+03  0.36963051272E+03 -0.11518949242E+04  0.12597692448E+04  0.91219969172E+02 0.  0.
          2    1    3    3  502    0  0.80904036380E+01 -0.17826340949E+03  0.29108260404E+01  0.17847064381E+03  0.00000000000E+00 0. -1.
         -1    1    3    3    0  502  0.17569556351E+02 -0.40298693230E+02  0.43893938928E+02  0.62123681966E+02  0.00000000000E+00 0.  1.
         11    1    5    5    0    0  0.15370290346E+03 -0.27927710160E+02 -0.70363912679E+03  0.72077219722E+03  0.00000000000E+00 0.  1.
        -11    1    5    5    0    0  0.16006140630E+03 -0.12314069983E+03 -0.84279218270E+03  0.86664984219E+03  0.00000000000E+00 0. -1.
          1    1    6    6  503    0 -0.25314764832E+03  0.27316651749E+03 -0.74698331404E+03  0.83467823117E+03  0.00000000000E+00 0. -1.
         -1    1    6    6    0  503 -0.86276621429E+02  0.96463995226E+02 -0.40491161020E+03  0.42509101361E+03  0.00000000000E+00 0.  1.
<mgrwt>
<rscale>  0 0.15823571E+04</rscale>
<asrwt>0</asrwt>
<pdfrwt beam="1">  1        2 0.44148511E+00 0.15823571E+04</pdfrwt>
<pdfrwt beam="2">  1       -1 0.33558784E-01 0.15823571E+04</pdfrwt>
<totfact> 0.19280598E+01</totfact>
</mgrwt>
</event>
<event>
12    6  0.1462228E-007  0.1700219E+04  0.7818608E-02  0.8761239E-01
         -1   -1    0    0    0  501 -0.00000000000E+00  0.00000000000E+00  0.19053343033E+03  0.19053343033E+03  0.00000000000E+00 0.  1.
          2   -1    0    0  501    0  0.00000000000E+00 -0.00000000000E+00 -0.37929627872E+04  0.37929627872E+04  0.00000000000E+00 0. -1.
         24    2    1    2    0    0  0.37940568878E+03 -0.23534578673E+03 -0.22689118183E+04  0.23140002676E+04  0.85440524012E+02 0.  0.
        254    2    1    2    0    0 -0.37940568878E+03  0.23534578673E+03 -0.13335175386E+04  0.16694959500E+04  0.89978407701E+03 0.  0.
         23    2    4    4    0    0 -0.60479593992E+02 -0.31558730722E+03 -0.64982066529E+03  0.73089632150E+03  0.93216983306E+02 0.  0.
         23    2    4    4    0    0 -0.31892609479E+03  0.55093309395E+03 -0.68369687333E+03  0.93859962850E+03  0.91031423512E+02 0.  0.
          2    1    3    3  502    0  0.27350485962E+03 -0.14757020741E+03 -0.13840826722E+04  0.14185438723E+04  0.00000000000E+00 0. -1.
         -3    1    3    3    0  502  0.10590082916E+03 -0.87775579318E+02 -0.88482914611E+03  0.89545639523E+03  0.00000000000E+00 0.  1.
         11    1    5    5    0    0 -0.21245809347E+02 -0.15112071663E+03 -0.20919039967E+03  0.25893914097E+03  0.00000000000E+00 0.  1.
        -11    1    5    5    0    0 -0.39233784645E+02 -0.16446659058E+03 -0.44063026561E+03  0.47195718053E+03  0.00000000000E+00 0. -1.
          3    1    6    6  503    0 -0.12204267027E+02  0.39081617965E-01 -0.91826483796E+01  0.15273070821E+02  0.00000000000E+00 0. -1.
         -3    1    6    6    0  503 -0.30672182776E+03  0.55089401233E+03 -0.67451422495E+03  0.92332655768E+03  0.00000000000E+00 0.  1.
<mgrwt>
<rscale>  0 0.17002191E+04</rscale>
<asrwt>0</asrwt>
<pdfrwt beam="1">  1        2 0.58353275E+00 0.17002191E+04</pdfrwt>
<pdfrwt beam="2">  1       -1 0.29312835E-01 0.17002191E+04</pdfrwt>
<totfact> 0.58049210E+00</totfact>
</mgrwt>
</event>
<event>
12    6  0.1462228E-007  0.1687184E+04  0.7818608E-02  0.8768708E-01
         -1   -1    0    0    0  501 -0.00000000000E+00  0.00000000000E+00  0.75272168765E+03  0.75272168765E+03  0.00000000000E+00 0.  1.
          2   -1    0    0  501    0  0.00000000000E+00 -0.00000000000E+00 -0.94543193240E+03  0.94543193240E+03  0.00000000000E+00 0. -1.
         24    2    1    2    0    0 -0.44560418849E+03  0.13494710543E+03 -0.44254995622E+03  0.64732068018E+03  0.79998657302E+02 0.  0.
        254    2    1    2    0    0  0.44560418849E+03 -0.13494710543E+03  0.24983971147E+03  0.10508329399E+04  0.90832602739E+03 0.  0.
         23    2    4    4    0    0  0.22290178916E+03  0.24237976922E+03 -0.21646924071E+03  0.40417633930E+03  0.89813255905E+02 0.  0.
         23    2    4    4    0    0  0.22270239934E+03 -0.37732687465E+03  0.46630895218E+03  0.64665660058E+03  0.93534973051E+02 0.  0.
          2    1    3    3  502    0 -0.23268439363E+03  0.66306625969E+02 -0.17519933356E+03  0.29871960458E+03  0.00000000000E+00 0. -1.
         -1    1    3    3    0  502 -0.21291979487E+03  0.68640479460E+02 -0.26735062266E+03  0.34860107559E+03  0.00000000000E+00 0.  1.
         11    1    5    5    0    0  0.17926651820E+03  0.19869060493E+03 -0.21352996332E+03  0.34235870994E+03  0.00000000000E+00 0.  1.
        -11    1    5    5    0    0  0.43635270961E+02  0.43689164292E+02 -0.29392773929E+01  0.61817629362E+02  0.00000000000E+00 0. -1.
          2    1    6    6  503    0  0.10396963546E+03 -0.14224079439E+03  0.24999176938E+03  0.30583984934E+03  0.00000000000E+00 0.  1.
         -2    1    6    6    0  503  0.11873276387E+03 -0.23508608026E+03  0.21631718280E+03  0.34081675124E+03  0.00000000000E+00 0. -1.
<mgrwt>
<rscale>  0 0.16871836E+04</rscale>
<asrwt>0</asrwt>
<pdfrwt beam="1">  1        2 0.14545107E+00 0.16871836E+04</pdfrwt>
<pdfrwt beam="2">  1       -1 0.11580334E+00 0.16871836E+04</pdfrwt>
<totfact> 0.20061459E+01</totfact>
</mgrwt>
</event>
<event>
12    6  0.1462228E-007  0.1516325E+04  0.7818608E-02  0.8873669E-01
          2   -1    0    0  501    0  0.00000000000E+00  0.00000000000E+00  0.11183413946E+04  0.11183413946E+04  0.00000000000E+00 0. -1.
         -1   -1    0    0    0  501 -0.00000000000E+00 -0.00000000000E+00 -0.51398457446E+03  0.51398457446E+03  0.00000000000E+00 0.  1.
         24    2    1    2    0    0 -0.35818390480E+03 -0.26611695596E+03 -0.18063453829E+02  0.45352614720E+03  0.79029955856E+02 0.  0.
        254    2    1    2    0    0  0.35818390480E+03  0.26611695596E+03  0.62242027392E+03  0.11787998218E+04  0.89612949879E+03 0.  0.
         23    2    4    4    0    0 -0.16633908284E+03  0.24697653953E+03  0.56177612955E+03  0.64255607527E+03  0.92842816521E+02 0.  0.
         23    2    4    4    0    0  0.52452298764E+03  0.19140416430E+02  0.60644144370E+02  0.53624374653E+03  0.91591065850E+02 0.  0.
          2    1    3    3  502    0 -0.89075959134E+02 -0.29904021116E+02 -0.16800924087E+02  0.95451809961E+02  0.00000000000E+00 0. -1.
         -1    1    3    3    0  502 -0.26910794567E+03 -0.23621293484E+03 -0.12625297425E+01  0.35807433724E+03  0.00000000000E+00 0.  1.
         11    1    5    5    0    0 -0.16079643745E+03  0.16733350509E+03  0.41904516864E+03  0.47901445655E+03  0.00000000000E+00 0. -1.
        -11    1    5    5    0    0 -0.55426453917E+01  0.79643034437E+02  0.14273096091E+03  0.16354161872E+03  0.00000000000E+00 0.  1.
          3    1    6    6  503    0  0.19158279189E+03 -0.13655444339E+01 -0.21262632513E+02  0.19276392401E+03  0.00000000000E+00 0. -1.
         -3    1    6    6    0  503  0.33294019576E+03  0.20505960864E+02  0.81906776883E+02  0.34347982252E+03  0.00000000000E+00 0.  1.
<mgrwt>
<rscale>  0 0.15163248E+04</rscale>
<asrwt>0</asrwt>
<pdfrwt beam="1">  1        2 0.17205252E+00 0.15163248E+04</pdfrwt>
<pdfrwt beam="2">  1       -1 0.79074550E-01 0.15163248E+04</pdfrwt>
<totfact> 0.37362873E+01</totfact>
</mgrwt>
</event>
<event>
12    6  0.1462228E-007  0.3718466E+04  0.7818608E-02  0.8063882E-01
          2   -1    0    0  501    0  0.00000000000E+00  0.00000000000E+00  0.38429079617E+04  0.38429079617E+04  0.00000000000E+00 0. -1.
         -1   -1    0    0    0  501 -0.00000000000E+00 -0.00000000000E+00 -0.89951330645E+03  0.89951330645E+03  0.00000000000E+00 0.  1.
         24    2    1    2    0    0  0.15110689736E+04 -0.80401255760E+03  0.18521671937E+04  0.25232642529E+04  0.81077375620E+02 0.  0.
        254    2    1    2    0    0 -0.15110689736E+04  0.80401255760E+03  0.10912274616E+04  0.22191570152E+04  0.89672451153E+03 0.  0.
         23    2    4    4    0    0 -0.11993640558E+04  0.55636285610E+03  0.12085544247E+04  0.17937231266E+04  0.93941957488E+02 0.  0.
         23    2    4    4    0    0 -0.31170491785E+03  0.24764970150E+03 -0.11732696317E+03  0.42543388865E+03  0.93477520649E+02 0.  0.
          4    1    3    3  502    0  0.11835935045E+04 -0.61832490989E+03  0.14909712720E+04  0.20015530500E+04  0.00000000000E+00 0. -1.
         -1    1    3    3    0  502  0.32747546914E+03 -0.18568764770E+03  0.36119592170E+03  0.52171120291E+03  0.00000000000E+00 0.  1.
         11    1    5    5    0    0 -0.38418780076E+02  0.90629240607E+00  0.37567567963E+02  0.53741475520E+02  0.00000000000E+00 0. -1.
        -11    1    5    5    0    0 -0.11609452757E+04  0.55545656369E+03  0.11709868568E+04  0.17399816511E+04  0.00000000000E+00 0.  1.
          2    1    6    6  503    0 -0.10644893687E+03  0.44156853030E+02 -0.50316127702E+01  0.11535389442E+03  0.00000000000E+00 0. -1.
         -2    1    6    6    0  503 -0.20525598097E+03  0.20349284847E+03 -0.11229535040E+03  0.31007999423E+03  0.00000000000E+00 0.  1.
<mgrwt>
<rscale>  0 0.37184657E+04</rscale>
<asrwt>0</asrwt>
<pdfrwt beam="1">  1        2 0.59121660E+00 0.37184657E+04</pdfrwt>
<pdfrwt beam="2">  1       -1 0.13838666E+00 0.37184657E+04</pdfrwt>
<totfact> 0.17969731E-01</totfact>
</mgrwt>
</event>
<event>
12    6  0.1462228E-007  0.2177482E+04  0.7818608E-02  0.8527859E-01
         -1   -1    0    0    0  501 -0.00000000000E+00  0.00000000000E+00  0.93055108597E+03  0.93055108597E+03  0.00000000000E+00 0.  1.
          2   -1    0    0  501    0  0.00000000000E+00 -0.00000000000E+00 -0.12738224619E+04  0.12738224619E+04  0.00000000000E+00 0. -1.
         24    2    1    2    0    0 -0.87318950998E+03 -0.90702063455E+02  0.65073539896E+02  0.88374440647E+03  0.77992472191E+02 0.  0.
        254    2    1    2    0    0  0.87318950998E+03  0.90702063455E+02 -0.40834491578E+03  0.13206291414E+04  0.89812525525E+03 0.  0.
         23    2    4    4    0    0 -0.77347122539E+02  0.25041221635E+03 -0.21547848229E+02  0.27810311152E+03  0.90488537451E+02 0.  0.
         23    2    4    4    0    0  0.95053663252E+03 -0.15971015289E+03 -0.38679706755E+03  0.10425260298E+04  0.90671543166E+02 0.  0.
          4    1    3    3  502    0 -0.52876295339E+03 -0.52210201297E+02  0.11936251400E+01  0.53133566673E+03  0.00000000000E+00 0. -1.
         -3    1    3    3    0  502 -0.34442655659E+03 -0.38491862158E+02  0.63879914756E+02  0.35240873974E+03  0.00000000000E+00 0.  1.
         11    1    5    5    0    0 -0.97918381702E+02  0.19716496202E+03 -0.19097221071E+02  0.22096772519E+03  0.00000000000E+00 0. -1.
        -11    1    5    5    0    0  0.20571259162E+02  0.53247254333E+02 -0.24506271584E+01  0.57135386329E+02  0.00000000000E+00 0.  1.
          2    1    6    6  503    0  0.65320489522E+03 -0.89390097017E+02 -0.22386637868E+03  0.69626387245E+03  0.00000000000E+00 0. -1.
         -2    1    6    6    0  503  0.29733173730E+03 -0.70320055876E+02 -0.16293068887E+03  0.34626215739E+03  0.00000000000E+00 0.  1.
<mgrwt>
<rscale>  0 0.21774819E+04</rscale>
<asrwt>0</asrwt>
<pdfrwt beam="1">  1        2 0.19597269E+00 0.21774819E+04</pdfrwt>
<pdfrwt beam="2">  1       -1 0.14316171E+00 0.21774819E+04</pdfrwt>
<totfact> 0.70651882E+00</totfact>
</mgrwt>
</event>
<event>
12    6  0.1462228E-007  0.1889256E+04  0.7818608E-02  0.8660223E-01
          2   -1    0    0  501    0  0.00000000000E+00  0.00000000000E+00  0.72326679553E+03  0.72326679553E+03  0.00000000000E+00 0. -1.
         -1   -1    0    0    0  501 -0.00000000000E+00 -0.00000000000E+00 -0.12337382113E+04  0.12337382113E+04  0.00000000000E+00 0.  1.
         24    2    1    2    0    0 -0.73871182901E+02 -0.26436438035E+03 -0.89911939627E+03  0.94340998864E+03  0.79128001670E+02 0.  0.
        254    2    1    2    0    0  0.73871182901E+02  0.26436438035E+03  0.38864798046E+03  0.10135950182E+04  0.89497605052E+03 0.  0.
         23    2    4    4    0    0  0.27135147670E+03 -0.39243339895E+01  0.55921575774E+03  0.62841676835E+03  0.92403174919E+02 0.  0.
         23    2    4    4    0    0 -0.19748029380E+03  0.26828871434E+03 -0.17056777728E+03  0.38517824988E+03  0.91058315643E+02 0.  0.
          4    1    3    3  502    0 -0.44770152762E+02 -0.59288934659E+02 -0.17189318118E+03  0.18726134168E+03  0.00000000000E+00 0. -1.
         -3    1    3    3    0  502 -0.29101030139E+02 -0.20507544569E+03 -0.72722621509E+03  0.75614864696E+03  0.00000000000E+00 0.  1.
         11    1    5    5    0    0  0.96864705955E+02  0.39440024328E+02  0.16852085781E+03  0.19833700183E+03  0.00000000000E+00 0.  1.
        -11    1    5    5    0    0  0.17448677074E+03 -0.43364358318E+02  0.39069489993E+03  0.43007976652E+03  0.00000000000E+00 0. -1.
          2    1    6    6  503    0 -0.17690143627E+03  0.21257828160E+03 -0.17216424808E+03  0.32576705217E+03  0.00000000000E+00 0. -1.
         -2    1    6    6    0  503 -0.20578857524E+02  0.55710432746E+02  0.15964707983E+01  0.59411197705E+02  0.00000000000E+00 0.  1.
<mgrwt>
<rscale>  0 0.18892558E+04</rscale>
<asrwt>0</asrwt>
<pdfrwt beam="1">  1        2 0.11127182E+00 0.18892558E+04</pdfrwt>
<pdfrwt beam="2">  1       -1 0.18980588E+00 0.18892558E+04</pdfrwt>
<totfact> 0.74537281E+00</totfact>
</mgrwt>
</event>
<event>
12    6  0.1462228E-007  0.2690884E+04  0.7818608E-02  0.8337969E-01
         -1   -1    0    0    0  501 -0.00000000000E+00  0.00000000000E+00  0.13600099866E+04  0.13600099866E+04  0.00000000000E+00 0.  1.
          2   -1    0    0  501    0  0.00000000000E+00 -0.00000000000E+00 -0.13310304478E+04  0.13310304478E+04  0.00000000000E+00 0. -1.
         24    2    1    2    0    0 -0.14145765818E+02  0.52570505473E+03  0.10844890303E+04  0.12078122378E+04  0.78281783629E+02 0.  0.
        254    2    1    2    0    0  0.14145765818E+02 -0.52570505473E+03 -0.10555094915E+04  0.14832281966E+04  0.89961085444E+03 0.  0.
         23    2    4    4    0    0  0.24953157280E+03 -0.69013085507E+03 -0.78656482322E+03  0.10792450443E+04  0.86827654052E+02 0.  0.
         23    2    4    4    0    0 -0.23538580698E+03  0.16442580034E+03 -0.26894466826E+03  0.40398315237E+03  0.91808664434E+02 0.  0.
          2    1    3    3  502    0 -0.16578198813E+02  0.24397437941E+02  0.45852989000E+02  0.54521264239E+02  0.00000000000E+00 0. -1.
         -3    1    3    3    0  502  0.24324329944E+01  0.50130761679E+03  0.10386360413E+04  0.11532909735E+04  0.00000000000E+00 0.  1.
         11    1    5    5    0    0  0.17908881178E+03 -0.52937996746E+03 -0.64750650342E+03  0.85532486484E+03  0.00000000000E+00 0.  1.
        -11    1    5    5    0    0  0.70442761020E+02 -0.16075088761E+03 -0.13905831981E+03  0.22392017943E+03  0.00000000000E+00 0. -1.
          3    1    6    6  503    0 -0.81965487473E+02  0.97367521525E+01 -0.89282754830E+02  0.12159175872E+03  0.00000000000E+00 0. -1.
         -3    1    6    6    0  503 -0.15342031951E+03  0.15468904819E+03 -0.17966191343E+03  0.28239139364E+03  0.00000000000E+00 0.  1.
<mgrwt>
<rscale>  0 0.26908844E+04</rscale>
<asrwt>0</asrwt>
<pdfrwt beam="1">  1        2 0.20477392E+00 0.26908844E+04</pdfrwt>
<pdfrwt beam="2">  1       -1 0.20923230E+00 0.26908844E+04</pdfrwt>
<totfact> 0.20637423E+00</totfact>
</mgrwt>
</event>
<event>
12    6  0.1462228E-007  0.1898630E+04  0.7818608E-02  0.8655539E-01
         -1   -1    0    0    0  501 -0.00000000000E+00  0.00000000000E+00  0.66249904701E+03  0.66249904701E+03  0.00000000000E+00 0.  1.
          2   -1    0    0  501    0  0.00000000000E+00 -0.00000000000E+00 -0.13603019429E+04  0.13603019429E+04  0.00000000000E+00 0. -1.
         24    2    1    2    0    0  0.35124982506E+03  0.55357771768E+03 -0.42650469174E+03  0.78642510020E+03  0.82057644627E+02 0.  0.
        254    2    1    2    0    0 -0.35124982506E+03 -0.55357771768E+03 -0.27129820417E+03  0.12363758897E+04  0.10125205657E+04 0.  0.
         23    2    4    4    0    0 -0.16249469349E+03 -0.68928718275E+03 -0.51993688961E+03  0.88334993323E+03  0.91931439930E+02 0.  0.
         23    2    4    4    0    0 -0.18875513157E+03  0.13570946508E+03  0.24863868544E+03  0.35302595648E+03  0.93597924384E+02 0.  0.
          4    1    3    3  502    0  0.52877698543E+02  0.13008102679E+03 -0.65132393644E+02  0.15478809139E+03  0.00000000000E+00 0. -1.
         -3    1    3    3    0  502  0.29837212652E+03  0.42349669089E+03 -0.36137229810E+03  0.63163700882E+03  0.00000000000E+00 0.  1.
         11    1    5    5    0    0 -0.11190268876E+03 -0.56546030406E+03 -0.45655543529E+03  0.73533015218E+03  0.00000000000E+00 0. -1.
        -11    1    5    5    0    0 -0.50592004736E+02 -0.12382687870E+03 -0.63381454313E+02  0.14801978105E+03  0.00000000000E+00 0.  1.
          1    1    6    6  503    0 -0.19405736593E+03  0.10776233354E+03  0.22467060364E+03  0.31582884913E+03  0.00000000000E+00 0. -1.
         -1    1    6    6    0  503  0.53022343609E+01  0.27947131541E+02  0.23968081799E+02  0.37197107357E+02  0.00000000000E+00 0.  1.
<mgrwt>
<rscale>  0 0.18986298E+04</rscale>
<asrwt>0</asrwt>
<pdfrwt beam="1">  1        2 0.20927722E+00 0.18986298E+04</pdfrwt>
<pdfrwt beam="2">  1       -1 0.10192293E+00 0.18986298E+04</pdfrwt>
<totfact> 0.14853976E+01</totfact>
</mgrwt>
</event>
<event>
12    6  0.1462228E-007  0.1820917E+04  0.7818608E-02  0.8695254E-01
          2   -1    0    0  501    0  0.00000000000E+00  0.00000000000E+00  0.88651567538E+03  0.88651567538E+03  0.00000000000E+00 0. -1.
         -1   -1    0    0    0  501 -0.00000000000E+00 -0.00000000000E+00 -0.93504831625E+03  0.93504831625E+03  0.00000000000E+00 0.  1.
         24    2    1    2    0    0 -0.25798920855E+03  0.60706197091E+03 -0.21550390299E+03  0.69817825875E+03  0.76995327963E+02 0.  0.
        254    2    1    2    0    0  0.25798920855E+03 -0.60706197091E+03  0.16697126213E+03  0.11233857329E+04  0.89388670099E+03 0.  0.
         23    2    4    4    0    0  0.28059303939E+03 -0.28700639108E+03 -0.32939432254E+03  0.52537375107E+03  0.80073942817E+02 0.  0.
         23    2    4    4    0    0 -0.22603830845E+02 -0.32005557983E+03  0.49636558467E+03  0.59801198181E+03  0.91066071584E+02 0.  0.
          4    1    3    3  502    0 -0.26666264716E+00  0.13160275263E+02 -0.16014718268E+02  0.20730054393E+02  0.00000000000E+00 0. -1.
         -3    1    3    3    0  502 -0.25772254590E+03  0.59390169565E+03 -0.19948918472E+03  0.67744820435E+03  0.00000000000E+00 0.  1.
         11    1    5    5    0    0  0.21928568166E+03 -0.17153089465E+03 -0.23057114355E+03  0.36148597516E+03  0.00000000000E+00 0.  1.
        -11    1    5    5    0    0  0.61307357736E+02 -0.11547549643E+03 -0.98823178989E+02  0.16388777591E+03  0.00000000000E+00 0. -1.
          1    1    6    6  503    0 -0.35798720342E+02 -0.58975710994E+02  0.13967791103E+03  0.15578703956E+03  0.00000000000E+00 0.  1.
         -1    1    6    6    0  503  0.13194889497E+02 -0.26107986884E+03  0.35668767364E+03  0.44222494225E+03  0.00000000000E+00 0. -1.
<mgrwt>
<rscale>  0 0.18209173E+04</rscale>
<asrwt>0</asrwt>
<pdfrwt beam="1">  1        2 0.13638703E+00 0.18209173E+04</pdfrwt>
<pdfrwt beam="2">  1       -1 0.14385359E+00 0.18209173E+04</pdfrwt>
<totfact> 0.12570285E+01</totfact>
</mgrwt>
</event>
<event>
12    6  0.1462228E-007  0.1812251E+04  0.7818608E-02  0.8699812E-01
         -1   -1    0    0    0  501 -0.00000000000E+00  0.00000000000E+00  0.69360335317E+03  0.69360335317E+03  0.00000000000E+00 0.  1.
          2   -1    0    0  501    0  0.00000000000E+00 -0.00000000000E+00 -0.11837647954E+04  0.11837647954E+04  0.00000000000E+00 0. -1.
         24    2    1    2    0    0 -0.15440734579E+03  0.54273283221E+03 -0.57475784586E+03  0.80935084549E+03  0.79382958619E+02 0.  0.
        254    2    1    2    0    0  0.15440734579E+03 -0.54273283221E+03  0.84596403588E+02  0.10680173031E+04  0.90283102112E+03 0.  0.
         23    2    4    4    0    0 -0.30644558851E+03  0.93401122600E+01 -0.65243733288E+02  0.32771319883E+03  0.95619347122E+02 0.  0.
         23    2    4    4    0    0  0.46085293430E+03 -0.55207294447E+03  0.14984013688E+03  0.74030410430E+03  0.91804886340E+02 0.  0.
          2    1    3    3  502    0 -0.12081344603E+03  0.43982912814E+03 -0.50539457420E+03  0.68078574187E+03  0.00000000000E+00 0. -1.
         -1    1    3    3    0  502 -0.33593899757E+02  0.10290370407E+03 -0.69363271657E+02  0.12856510362E+03  0.00000000000E+00 0.  1.
         11    1    5    5    0    0 -0.18639974288E+03 -0.29116314588E+02 -0.70871170845E+02  0.20153249559E+03  0.00000000000E+00 0. -1.
        -11    1    5    5    0    0 -0.12004584562E+03  0.38456426848E+02  0.56274375574E+01  0.12618070324E+03  0.00000000000E+00 0.  1.
          1    1    6    6  503    0  0.22133812319E+03 -0.22898186945E+03  0.10641369387E+03  0.33577840246E+03  0.00000000000E+00 0. -1.
         -1    1    6    6    0  503  0.23951481110E+03 -0.32309107502E+03  0.43426443005E+02  0.40452570184E+03  0.00000000000E+00 0.  1.
<mgrwt>
<rscale>  0 0.18122508E+04</rscale>
<asrwt>0</asrwt>
<pdfrwt beam="1">  1        2 0.18211766E+00 0.18122508E+04</pdfrwt>
<pdfrwt beam="2">  1       -1 0.10670821E+00 0.18122508E+04</pdfrwt>
<totfact> 0.17080738E+01</totfact>
</mgrwt>
</event>
<event>
12    6  0.1462228E-007  0.3035920E+04  0.7818608E-02  0.8233548E-01
          2   -1    0    0  501    0  0.00000000000E+00  0.00000000000E+00  0.29536694670E+04  0.29536694670E+04  0.00000000000E+00 0. -1.
         -1   -1    0    0    0  501 -0.00000000000E+00 -0.00000000000E+00 -0.78011515993E+03  0.78011515993E+03  0.00000000000E+00 0.  1.
         24    2    1    2    0    0 -0.72112948955E+02  0.81200541350E+03  0.23683851823E+04  0.25063464502E+04  0.89280947457E+02 0.  0.
        254    2    1    2    0    0  0.72112948955E+02 -0.81200541350E+03 -0.19483087527E+03  0.12274381767E+04  0.89671195974E+03 0.  0.
         23    2    4    4    0    0  0.17686756661E+03 -0.22886900429E+03  0.31790875295E+03  0.43876784150E+03  0.88250134795E+02 0.  0.
         23    2    4    4    0    0 -0.10475461766E+03 -0.58313640921E+03 -0.51273962822E+03  0.78867033521E+03  0.89874187746E+02 0.  0.
          2    1    3    3  502    0 -0.56092146801E+02  0.75861450939E+03  0.22579302128E+04  0.23826227458E+04  0.00000000000E+00 0. -1.
         -1    1    3    3    0  502 -0.16020802153E+02  0.53390904109E+02  0.11045496953E+03  0.12372370443E+03  0.00000000000E+00 0.  1.
         11    1    5    5    0    0  0.14099998061E+03 -0.12247325330E+03  0.16603182923E+03  0.24989449899E+03  0.00000000000E+00 0.  1.
        -11    1    5    5    0    0  0.35867585997E+02 -0.10639575099E+03  0.15187692372E+03  0.18887334251E+03  0.00000000000E+00 0. -1.
          2    1    6    6  503    0 -0.62146545920E+01 -0.13435143774E+02  0.15349643695E+01  0.14882242289E+02  0.00000000000E+00 0. -1.
         -2    1    6    6    0  503 -0.98539963065E+02 -0.56970126544E+03 -0.51427459259E+03  0.77378809292E+03  0.00000000000E+00 0.  1.
<mgrwt>
<rscale>  0 0.30359198E+04</rscale>
<asrwt>0</asrwt>
<pdfrwt beam="1">  1        2 0.45441068E+00 0.30359198E+04</pdfrwt>
<pdfrwt beam="2">  1       -1 0.12001772E+00 0.30359198E+04</pdfrwt>
<totfact> 0.11162199E+00</totfact>
</mgrwt>
</event>
<event>
12    6  0.1462228E-007  0.2069142E+04  0.7818608E-02  0.8574960E-01
          4   -1    0    0  501    0  0.00000000000E+00  0.00000000000E+00  0.75798828263E+03  0.75798828263E+03  0.00000000000E+00 0. -1.
         -3   -1    0    0    0  501 -0.00000000000E+00 -0.00000000000E+00 -0.14120755520E+04  0.14120755520E+04  0.00000000000E+00 0.  1.
         24    2    1    2    0    0 -0.15076328983E+03  0.11078455455E+03 -0.11210175029E+04  0.11392764330E+04  0.79169197155E+02 0.  0.
        254    2    1    2    0    0  0.15076328983E+03 -0.11078455455E+03  0.46693023352E+03  0.10307874017E+04  0.89971997724E+03 0.  0.
         23    2    4    4    0    0 -0.30487277809E+03 -0.23466707135E+01  0.45101443398E+03  0.55218372249E+03  0.92411720305E+02 0.  0.
         23    2    4    4    0    0  0.45563606792E+03 -0.10843788383E+03  0.15915799540E+02  0.47860367920E+03  0.97186254333E+02 0.  0.
          4    1    3    3  502    0 -0.43207344615E+02  0.12036934811E+02 -0.12909099666E+03  0.13666106924E+03  0.00000000000E+00 0. -1.
         -3    1    3    3    0  502 -0.10755594522E+03  0.98747619735E+02 -0.99192650628E+03  0.10026153637E+04  0.00000000000E+00 0.  1.
         11    1    5    5    0    0 -0.47790195605E+01  0.95060476340E+01  0.50314197587E+02  0.51426865045E+02  0.00000000000E+00 0.  1.
        -11    1    5    5    0    0 -0.30009375853E+03 -0.11852718347E+02  0.40070023639E+03  0.50075685745E+03  0.00000000000E+00 0. -1.
          2    1    6    6  503    0  0.38618811261E+03 -0.53690788593E+02  0.12192958834E+02  0.39009310087E+03  0.00000000000E+00 0. -1.
         -2    1    6    6    0  503  0.69447955310E+02 -0.54747095239E+02  0.37228407065E+01  0.88510578333E+02  0.00000000000E+00 0.  1.
<mgrwt>
<rscale>  0 0.20691416E+04</rscale>
<asrwt>0</asrwt>
<pdfrwt beam="1">  1        4 0.11661358E+00 0.20691416E+04</pdfrwt>
<pdfrwt beam="2">  1       -3 0.21724239E+00 0.20691416E+04</pdfrwt>
<totfact> 0.13741486E-01</totfact>
</mgrwt>
</event>
<event>
12    6  0.1462228E-007  0.1697364E+04  0.7818608E-02  0.8762869E-01
          2   -1    0    0  501    0  0.00000000000E+00  0.00000000000E+00  0.13346677174E+04  0.13346677174E+04  0.00000000000E+00 0. -1.
         -1   -1    0    0    0  501 -0.00000000000E+00 -0.00000000000E+00 -0.53965602506E+03  0.53965602506E+03  0.00000000000E+00 0.  1.
         24    2    1    2    0    0 -0.55280153357E+03  0.86751528755E+02  0.54362230753E+03  0.78453693360E+03  0.82810770342E+02 0.  0.
        254    2    1    2    0    0  0.55280153357E+03 -0.86751528755E+02  0.25138938482E+03  0.10897868089E+04  0.90073486815E+03 0.  0.
         23    2    4    4    0    0  0.80001640674E+02  0.13931716656E+03 -0.28212390573E+03  0.33691760472E+03  0.90055753715E+02 0.  0.
         23    2    4    4    0    0  0.47279989290E+03 -0.22606869532E+03  0.53351329055E+03  0.75286920414E+03  0.86768736423E+02 0.  0.
          4    1    3    3  502    0 -0.97251118685E+02  0.12423900991E+02  0.14281605090E+03  0.17322978322E+03  0.00000000000E+00 0. -1.
         -1    1    3    3    0  502 -0.45555041489E+03  0.74327627764E+02  0.40080625663E+03  0.61130715038E+03  0.00000000000E+00 0.  1.
         11    1    5    5    0    0  0.95823743569E+02  0.11254600680E+03 -0.19697599807E+03  0.24626883135E+03  0.00000000000E+00 0. -1.
        -11    1    5    5    0    0 -0.15822102895E+02  0.26771159760E+02 -0.85147907657E+02  0.90648773369E+02  0.00000000000E+00 0.  1.
          1    1    6    6  503    0  0.47119543065E+03 -0.22884662922E+03  0.53549377227E+03  0.74909912142E+03  0.00000000000E+00 0. -1.
         -1    1    6    6    0  503  0.16044622498E+01  0.27779339044E+01 -0.19804817186E+01  0.37700827214E+01  0.00000000000E+00 0.  1.
<mgrwt>
<rscale>  0 0.16973644E+04</rscale>
<asrwt>0</asrwt>
<pdfrwt beam="1">  1        2 0.20533349E+00 0.16973644E+04</pdfrwt>
<pdfrwt beam="2">  1       -1 0.83024004E-01 0.16973644E+04</pdfrwt>
<totfact> 0.24665518E+01</totfact>
</mgrwt>
</event>
<event>
12    6  0.1462228E-007  0.1363844E+04  0.7818608E-02  0.8980414E-01
          2   -1    0    0  501    0  0.00000000000E+00  0.00000000000E+00  0.15392066534E+04  0.15392066534E+04  0.00000000000E+00 0. -1.
         -1   -1    0    0    0  501 -0.00000000000E+00 -0.00000000000E+00 -0.30211529872E+03  0.30211529872E+03  0.00000000000E+00 0.  1.
         24    2    1    2    0    0  0.52076202595E+02 -0.12827964101E+03  0.83883944138E+03  0.85411398294E+03  0.81801529672E+02 0.  0.
        254    2    1    2    0    0 -0.52076202595E+02  0.12827964101E+03  0.39825191329E+03  0.98720796917E+03  0.89264068403E+03 0.  0.
         23    2    4    4    0    0  0.21443284855E+01 -0.13524664504E+03  0.61079675946E+03  0.63224234843E+03  0.91440979019E+02 0.  0.
         23    2    4    4    0    0 -0.54220531081E+02  0.26352628605E+03 -0.21254484617E+03  0.35496562074E+03  0.91865721835E+02 0.  0.
          4    1    3    3  502    0 -0.11088213796E+02 -0.76694898173E+02  0.47199649331E+03  0.47831552932E+03  0.00000000000E+00 0. -1.
         -3    1    3    3    0  502  0.63164416392E+02 -0.51584742838E+02  0.36684294807E+03  0.37579845362E+03  0.00000000000E+00 0.  1.
         11    1    5    5    0    0 -0.75981165293E+01 -0.20544910937E+02  0.30022510702E+03  0.30102315463E+03  0.00000000000E+00 0. -1.
        -11    1    5    5    0    0  0.97424450148E+01 -0.11470173410E+03  0.31057165244E+03  0.33121919380E+03  0.00000000000E+00 0.  1.
          2    1    6    6  503    0 -0.82847072476E+01  0.20073888699E+03 -0.18295932481E+03  0.27173305220E+03  0.00000000000E+00 0. -1.
         -2    1    6    6    0  503 -0.45935823833E+02  0.62787399062E+02 -0.29585521353E+02  0.83232568541E+02  0.00000000000E+00 0.  1.
<mgrwt>
<rscale>  0 0.13638444E+04</rscale>
<asrwt>0</asrwt>
<pdfrwt beam="1">  1        2 0.23680102E+00 0.13638444E+04</pdfrwt>
<pdfrwt beam="2">  1       -1 0.46479278E-01 0.13638444E+04</pdfrwt>
<totfact> 0.61813021E+01</totfact>
</mgrwt>
</event>
<event>
12    6  0.1462228E-007  0.1233539E+04  0.7818608E-02  0.9083996E-01
          2   -1    0    0  501    0  0.00000000000E+00  0.00000000000E+00  0.16484657731E+04  0.16484657731E+04  0.00000000000E+00 0. -1.
         -1   -1    0    0    0  501 -0.00000000000E+00 -0.00000000000E+00 -0.23076281690E+03  0.23076281690E+03  0.00000000000E+00 0.  1.
         24    2    1    2    0    0 -0.10166993750E+03  0.19916878583E+03  0.90228808020E+02  0.25380272464E+03  0.79180829742E+02 0.  0.
        254    2    1    2    0    0  0.10166993750E+03 -0.19916878583E+03  0.13274741482E+04  0.16254258654E+04  0.91094272503E+03 0.  0.
         23    2    4    4    0    0 -0.85102465201E+02  0.30973386990E+03  0.78526208927E+03  0.85329494999E+03  0.91094583236E+02 0.  0.
         23    2    4    4    0    0  0.18677240270E+03 -0.50890265572E+03  0.54221205894E+03  0.77213091540E+03  0.91249056144E+02 0.  0.
          2    1    3    3  502    0  0.11913512780E+02  0.34898830068E+02  0.74970103379E+01  0.37630642977E+02  0.00000000000E+00 0. -1.
         -1    1    3    3    0  502 -0.11358345028E+03  0.16426995576E+03  0.82731797683E+02  0.21617208166E+03  0.00000000000E+00 0.  1.
         11    1    5    5    0    0 -0.47036311197E+02  0.41064588851E+02  0.15464205627E+03  0.16677194187E+03  0.00000000000E+00 0. -1.
        -11    1    5    5    0    0 -0.38066154004E+02  0.26866928105E+03  0.63062003300E+03  0.68652300812E+03  0.00000000000E+00 0.  1.
          3    1    6    6  503    0 -0.81045848910E+01 -0.28101881536E+02  0.16695126397E+02  0.33676806374E+02  0.00000000000E+00 0. -1.
         -3    1    6    6    0  503  0.19487698759E+03 -0.48080077419E+03  0.52551693255E+03  0.73845410903E+03  0.00000000000E+00 0.  1.
<mgrwt>
<rscale>  0 0.12335390E+04</rscale>
<asrwt>0</asrwt>
<pdfrwt beam="1">  1        2 0.25361011E+00 0.12335390E+04</pdfrwt>
<pdfrwt beam="2">  1       -1 0.35501973E-01 0.12335390E+04</pdfrwt>
<totfact> 0.88875604E+01</totfact>
</mgrwt>
</event>
<event>
12    6  0.1462228E-007  0.1349036E+04  0.7818608E-02  0.8991558E-01
         -1   -1    0    0    0  501 -0.00000000000E+00  0.00000000000E+00  0.49319274100E+03  0.49319274100E+03  0.00000000000E+00 0.  1.
          2   -1    0    0  501    0  0.00000000000E+00 -0.00000000000E+00 -0.92250833649E+03  0.92250833649E+03  0.00000000000E+00 0. -1.
         24    2    1    2    0    0  0.28274443155E+03 -0.13880541430E+03 -0.30078527870E+03  0.44284447513E+03  0.80175361917E+02 0.  0.
        254    2    1    2    0    0 -0.28274443155E+03  0.13880541430E+03 -0.12853031680E+03  0.97285660236E+03  0.91143763901E+03 0.  0.
         23    2    4    4    0    0 -0.55362456607E+03 -0.84306357336E+02 -0.20362370241E+03  0.60277932896E+03  0.90953753063E+02 0.  0.
         23    2    4    4    0    0  0.27088013451E+03  0.22311177164E+03  0.75093385612E+02  0.37007727340E+03  0.90350770920E+02 0.  0.
          4    1    3    3  502    0  0.17476695766E+03 -0.65412970559E+02 -0.22336377527E+03  0.29105621847E+03  0.00000000000E+00 0. -1.
         -3    1    3    3    0  502  0.10797747390E+03 -0.73392443746E+02 -0.77421503430E+02  0.15178825667E+03  0.00000000000E+00 0.  1.
         11    1    5    5    0    0 -0.54212950766E+03 -0.81206906123E+02 -0.21250471643E+03  0.58792620216E+03  0.00000000000E+00 0.  1.
        -11    1    5    5    0    0 -0.11495058408E+02 -0.30994512130E+01  0.88810140257E+01  0.14853126801E+02  0.00000000000E+00 0. -1.
          4    1    6    6  503    0  0.16848277563E+03  0.12925100571E+03  0.89470859970E+02  0.23042852025E+03  0.00000000000E+00 0.  1.
         -4    1    6    6    0  503  0.10239735888E+03  0.93860765928E+02 -0.14377474358E+02  0.13964875315E+03  0.00000000000E+00 0. -1.
<mgrwt>
<rscale>  0 0.13490358E+04</rscale>
<asrwt>0</asrwt>
<pdfrwt beam="1">  1        2 0.14192436E+00 0.13490358E+04</pdfrwt>
<pdfrwt beam="2">  1       -1 0.75875808E-01 0.13490358E+04</pdfrwt>
<totfact> 0.55092233E+01</totfact>
</mgrwt>
</event>
<event>
12    6  0.1462228E-007  0.1043511E+04  0.7818608E-02  0.9262069E-01
         -1   -1    0    0    0  501 -0.00000000000E+00  0.00000000000E+00  0.56233454907E+03  0.56233454907E+03  0.00000000000E+00 0.  1.
          2   -1    0    0  501    0  0.00000000000E+00 -0.00000000000E+00 -0.48410458901E+03  0.48410458901E+03  0.00000000000E+00 0. -1.
         24    2    1    2    0    0 -0.53390133319E+02 -0.85957248084E+02 -0.52217356149E+02  0.13892074514E+03  0.79581193216E+02 0.  0.
        254    2    1    2    0    0  0.53390133319E+02  0.85957248084E+02  0.13044731621E+03  0.90751839294E+03  0.89237546828E+03 0.  0.
         23    2    4    4    0    0  0.31047474167E+02  0.46915104164E+03  0.17626851734E+03  0.51044278221E+03  0.91731118959E+02 0.  0.
         23    2    4    4    0    0  0.22342659152E+02 -0.38319379355E+03 -0.45821201130E+02  0.39707561073E+03  0.90734669946E+02 0.  0.
          4    1    3    3  502    0 -0.52653219117E+02 -0.10087887442E+03 -0.46274088029E+02  0.12284217521E+03  0.00000000000E+00 0. -1.
         -3    1    3    3    0  502 -0.73691420190E+00  0.14921626337E+02 -0.59432681194E+01  0.16078569931E+02  0.00000000000E+00 0.  1.
         11    1    5    5    0    0 -0.83250234155E+01  0.22927637058E+02 -0.85635220164E+01  0.25851817446E+02  0.00000000000E+00 0. -1.
        -11    1    5    5    0    0  0.39372497583E+02  0.44622340458E+03  0.18483203935E+03  0.48459096477E+03  0.00000000000E+00 0.  1.
          4    1    6    6  503    0 -0.12265700602E+02 -0.10780781536E+03  0.23452884165E+02  0.11100905477E+03  0.00000000000E+00 0. -1.
         -4    1    6    6    0  503  0.34608359754E+02 -0.27538597819E+03 -0.69274085295E+02  0.28606655596E+03  0.00000000000E+00 0.  1.
<mgrwt>
<rscale>  0 0.10435109E+04</rscale>
<asrwt>0</asrwt>
<pdfrwt beam="1">  1        2 0.74477629E-01 0.10435109E+04</pdfrwt>
<pdfrwt beam="2">  1       -1 0.86513008E-01 0.10435109E+04</pdfrwt>
<totfact> 0.96021783E+01</totfact>
</mgrwt>
</event>
<event>
12    6  0.1462228E-007  0.1953839E+04  0.7818608E-02  0.8628512E-01
         -1   -1    0    0    0  501 -0.00000000000E+00  0.00000000000E+00  0.79200096570E+03  0.79200096570E+03  0.00000000000E+00 0.  1.
          2   -1    0    0  501    0  0.00000000000E+00 -0.00000000000E+00 -0.12050137278E+04  0.12050137278E+04  0.00000000000E+00 0. -1.
         24    2    1    2    0    0 -0.11791849817E+03 -0.75650406276E+03 -0.19845693623E+03  0.79501137569E+03  0.80341538155E+02 0.  0.
        254    2    1    2    0    0  0.11791849817E+03  0.75650406276E+03 -0.21455582589E+03  0.12020033178E+04  0.90142920104E+03 0.  0.
         23    2    4    4    0    0 -0.85125570700E+02  0.87486980336E+03 -0.22642367143E+02  0.88469804646E+03  0.97644359853E+02 0.  0.
         23    2    4    4    0    0  0.20304406888E+03 -0.11836574060E+03 -0.19191345875E+03  0.31730527138E+03  0.92814423144E+02 0.  0.
          2    1    3    3  502    0 -0.12433704678E+03 -0.69743872504E+03 -0.19804624479E+03  0.73559689468E+03  0.00000000000E+00 0. -1.
         -3    1    3    3    0  502  0.64185486063E+01 -0.59065337724E+02 -0.41069144375E+00  0.59414481014E+02  0.00000000000E+00 0.  1.
         11    1    5    5    0    0 -0.44731908696E+02  0.14316041135E+03  0.16121085426E+02  0.15085004617E+03  0.00000000000E+00 0.  1.
        -11    1    5    5    0    0 -0.40393662005E+02  0.73170939201E+03 -0.38763452569E+02  0.73384800029E+03  0.00000000000E+00 0. -1.
          3    1    6    6  503    0  0.11883878408E+03 -0.11768845855E+03 -0.11257673093E+03  0.20161039215E+03  0.00000000000E+00 0. -1.
         -3    1    6    6    0  503  0.84205284791E+02 -0.67728204959E+00 -0.79336727822E+02  0.11569487923E+03  0.00000000000E+00 0.  1.
<mgrwt>
<rscale>  0 0.19538393E+04</rscale>
<asrwt>0</asrwt>
<pdfrwt beam="1">  1        2 0.18538673E+00 0.19538393E+04</pdfrwt>
<pdfrwt beam="2">  1       -1 0.12184630E+00 0.19538393E+04</pdfrwt>
<totfact> 0.11926114E+01</totfact>
</mgrwt>
</event>
<event>
12    6  0.1462228E-007  0.1369470E+04  0.7818608E-02  0.8976219E-01
          2   -1    0    0  501    0  0.00000000000E+00  0.00000000000E+00  0.52691785129E+03  0.52691785129E+03  0.00000000000E+00 0. -1.
         -1   -1    0    0    0  501 -0.00000000000E+00 -0.00000000000E+00 -0.88981943839E+03  0.88981943839E+03  0.00000000000E+00 0.  1.
         24    2    1    2    0    0 -0.36276408187E+03 -0.80144166376E+02  0.10617583275E+02  0.38008356329E+03  0.79560766100E+02 0.  0.
        254    2    1    2    0    0  0.36276408187E+03  0.80144166376E+02 -0.37351917037E+03  0.10366537264E+04  0.89281213663E+03 0.  0.
         23    2    4    4    0    0  0.21926383334E+02  0.31758457711E+03  0.14721769976E+03  0.36416589674E+03  0.97994996419E+02 0.  0.
         23    2    4    4    0    0  0.34083769854E+03 -0.23744041073E+03 -0.52073687013E+03  0.67248782966E+03  0.92329343808E+02 0.  0.
          4    1    3    3  502    0 -0.28191463054E+03 -0.95474809185E+02  0.88529916885E+01  0.29777453478E+03  0.00000000000E+00 0. -1.
         -3    1    3    3    0  502 -0.80849451330E+02  0.15330642809E+02  0.17645915864E+01  0.82309028501E+02  0.00000000000E+00 0.  1.
         11    1    5    5    0    0 -0.10173855351E+02  0.94118103717E+02  0.36545971423E-01  0.94666393803E+02  0.00000000000E+00 0.  1.
        -11    1    5    5    0    0  0.32100238684E+02  0.22346647339E+03  0.14718115379E+03  0.26949950294E+03  0.00000000000E+00 0. -1.
          1    1    6    6  503    0 -0.23357980327E+01  0.40962055567E+01 -0.16726493626E+01  0.50032597676E+01  0.00000000000E+00 0. -1.
         -1    1    6    6    0  503  0.34317349657E+03 -0.24153661629E+03 -0.51906422077E+03  0.66748456989E+03  0.00000000000E+00 0.  1.
<mgrwt>
<rscale>  0 0.13694696E+04</rscale>
<asrwt>0</asrwt>
<pdfrwt beam="1">  1        2 0.81064285E-01 0.13694696E+04</pdfrwt>
<pdfrwt beam="2">  1       -1 0.13689530E+00 0.13694696E+04</pdfrwt>
<totfact> 0.28706363E+01</totfact>
</mgrwt>
</event>
<event>
12    6  0.1462228E-007  0.1748754E+04  0.7818608E-02  0.8734037E-01
          2   -1    0    0  501    0  0.00000000000E+00  0.00000000000E+00  0.13199774545E+04  0.13199774545E+04  0.00000000000E+00 0. -1.
         -1   -1    0    0    0  501 -0.00000000000E+00 -0.00000000000E+00 -0.57920306420E+03  0.57920306420E+03  0.00000000000E+00 0.  1.
         24    2    1    2    0    0 -0.15901923397E+03  0.79004875764E+02 -0.38941418471E+03  0.43560868061E+03  0.81133397545E+02 0.  0.
        254    2    1    2    0    0  0.15901923397E+03 -0.79004875764E+02  0.11301885750E+04  0.14635718381E+04  0.91279100729E+03 0.  0.
         23    2    4    4    0    0 -0.36513867538E+03  0.59190235794E+01  0.34120803794E+03  0.50840497493E+03  0.93227711976E+02 0.  0.
         23    2    4    4    0    0  0.52415790935E+03 -0.84923899343E+02  0.78898053705E+03  0.95516686314E+03  0.88881190255E+02 0.  0.
          2    1    3    3  502    0 -0.10873754437E+03  0.19239372513E+02 -0.17008330041E+03  0.20278642974E+03  0.00000000000E+00 0. -1.
         -3    1    3    3    0  502 -0.50281689606E+02  0.59765503251E+02 -0.21933088430E+03  0.23282225086E+03  0.00000000000E+00 0.  1.
         11    1    5    5    0    0 -0.16017688652E+03  0.48907417996E+02  0.15131233558E+03  0.22570776107E+03  0.00000000000E+00 0. -1.
        -11    1    5    5    0    0 -0.20496178887E+03 -0.42988394416E+02  0.18989570236E+03  0.28269721386E+03  0.00000000000E+00 0.  1.
          4    1    6    6  503    0  0.16722559190E+03  0.14510711068E+02  0.24735343246E+03  0.29892922218E+03  0.00000000000E+00 0. -1.
         -4    1    6    6    0  503  0.35693231746E+03 -0.99434610411E+02  0.54162710458E+03  0.65623764096E+03  0.00000000000E+00 0.  1.
<mgrwt>
<rscale>  0 0.17487538E+04</rscale>
<asrwt>0</asrwt>
<pdfrwt beam="1">  1        2 0.20307345E+00 0.17487538E+04</pdfrwt>
<pdfrwt beam="2">  1       -1 0.89108164E-01 0.17487538E+04</pdfrwt>
<totfact> 0.21475089E+01</totfact>
</mgrwt>
</event>
<event>
12    6  0.1462228E-007  0.2229666E+04  0.7818608E-02  0.8506181E-01
          2   -1    0    0  501    0  0.00000000000E+00  0.00000000000E+00  0.22739816701E+04  0.22739816701E+04  0.00000000000E+00 0. -1.
         -1   -1    0    0    0  501 -0.00000000000E+00 -0.00000000000E+00 -0.54655357308E+03  0.54655357308E+03  0.00000000000E+00 0.  1.
         24    2    1    2    0    0  0.51748877834E+02  0.83562721519E+03  0.12412159241E+04  0.14993676424E+04  0.80842857604E+02 0.  0.
        254    2    1    2    0    0 -0.51748877834E+02 -0.83562721519E+03  0.48621217292E+03  0.13211676008E+04  0.89896093531E+03 0.  0.
         23    2    4    4    0    0 -0.13636417631E+03 -0.94417043453E+03  0.18267715014E+03  0.97582491409E+03  0.93863324862E+02 0.  0.
         23    2    4    4    0    0  0.84615298480E+02  0.10854321935E+03  0.30353502279E+03  0.34534268672E+03  0.90480285195E+02 0.  0.
          4    1    3    3  502    0  0.43700381245E+02  0.43865596035E+03  0.71844976094E+03  0.84291092879E+03  0.00000000000E+00 0. -1.
         -3    1    3    3    0  502  0.80484965895E+01  0.39697125483E+03  0.52276616317E+03  0.65645671359E+03  0.00000000000E+00 0.  1.
         11    1    5    5    0    0 -0.10641058077E+03 -0.64530087183E+03  0.16724977083E+03  0.67506215471E+03  0.00000000000E+00 0. -1.
        -11    1    5    5    0    0 -0.29953595543E+02 -0.29886956271E+03  0.15427379303E+02  0.30076275938E+03  0.00000000000E+00 0.  1.
          3    1    6    6  503    0  0.67707062347E+02  0.32597724820E+02  0.85436922400E+02  0.11378192152E+03  0.00000000000E+00 0. -1.
         -3    1    6    6    0  503  0.16908236132E+02  0.75945494525E+02  0.21809810039E+03  0.23156076520E+03  0.00000000000E+00 0.  1.
<mgrwt>
<rscale>  0 0.22296662E+04</rscale>
<asrwt>0</asrwt>
<pdfrwt beam="1">  1        2 0.34984333E+00 0.22296662E+04</pdfrwt>
<pdfrwt beam="2">  1       -1 0.84085166E-01 0.22296662E+04</pdfrwt>
<totfact> 0.68206698E+00</totfact>
</mgrwt>
</event>
<event>
12    6  0.1735930E-007  0.2376000E+04  0.7818608E-02  0.8448544E-01
          2   -1    0    0  501    0  0.00000000000E+00  0.00000000000E+00  0.17123305264E+04  0.17123305264E+04  0.00000000000E+00 0. -1.
         -1   -1    0    0    0  501 -0.00000000000E+00 -0.00000000000E+00 -0.82422413828E+03  0.82422413828E+03  0.00000000000E+00 0.  1.
         24    2    1    2    0    0  0.65784523507E+02  0.10309287580E+04  0.38071113366E+03  0.11038074358E+04  0.79424054584E+02 0.  0.
        254    2    1    2    0    0 -0.65784523507E+02 -0.10309287580E+04  0.50739525441E+03  0.14327472288E+04  0.85333051614E+03 0.  0.
         23    2    4    4    0    0 -0.24226786077E+03 -0.10313496054E+03  0.38634766828E+03  0.47620036877E+03  0.90397643686E+02 0.  0.
         23    2    4    4    0    0  0.17648333726E+03 -0.92779379749E+03  0.12104758614E+03  0.95654686003E+03  0.91551506481E+02 0.  0.
          4    1    3    3  502    0  0.11637447264E+02  0.25220915305E+03  0.57516748243E+02  0.25894606271E+03  0.00000000000E+00 0. -1.
         -3    1    3    3    0  502  0.54147076243E+02  0.77871960498E+03  0.32319438541E+03  0.84486137313E+03  0.00000000000E+00 0.  1.
         11    1    5    5    0    0 -0.20113976094E+03 -0.47610909115E+02  0.31596943659E+03  0.37757209504E+03  0.00000000000E+00 0. -1.
        -11    1    5    5    0    0 -0.41128099829E+02 -0.55524051424E+02  0.70378231690E+02  0.98628273724E+02  0.00000000000E+00 0.  1.
          1    1    6    6  503    0  0.17780590729E+03 -0.91126231209E+03  0.10659012579E+03  0.93454555642E+03  0.00000000000E+00 0. -1.
         -1    1    6    6    0  503 -0.13225700305E+01 -0.16531485396E+02  0.14457460350E+02  0.22001303613E+02  0.00000000000E+00 0.  1.
<mgrwt>
<rscale>  0 0.23760001E+04</rscale>
<asrwt>0</asrwt>
<pdfrwt beam="1">  1        2 0.26343547E+00 0.23760001E+04</pdfrwt>
<pdfrwt beam="2">  1       -1 0.12680371E+00 0.23760001E+04</pdfrwt>
<totfact> 0.53470125E+00</totfact>
</mgrwt>
</event>
<event>
12    6  0.1462228E-007  0.1098321E+04  0.7818608E-02  0.9206830E-01
          2   -1    0    0  501    0  0.00000000000E+00  0.00000000000E+00  0.11975290837E+04  0.11975290837E+04  0.00000000000E+00 0. -1.
         -1   -1    0    0    0  501 -0.00000000000E+00 -0.00000000000E+00 -0.25183306240E+03  0.25183306240E+03  0.00000000000E+00 0.  1.
         24    2    1    2    0    0  0.31843612266E+02 -0.46517594281E+02  0.35398723654E+03  0.36891121268E+03  0.87238850238E+02 0.  0.
        254    2    1    2    0    0 -0.31843612266E+02  0.46517594281E+02  0.59170878477E+03  0.10804509334E+04  0.90226217440E+03 0.  0.
         23    2    4    4    0    0 -0.21276320637E+03  0.19542440564E+03 -0.12036592895E+03  0.32522788036E+03  0.88466586948E+02 0.  0.
         23    2    4    4    0    0  0.18091959410E+03 -0.14890681136E+03  0.71207471372E+03  0.75522305307E+03  0.91686007547E+02 0.  0.
          4    1    3    3  502    0  0.39608184583E+02 -0.64377737086E+02  0.32705232769E+03  0.33567324345E+03  0.00000000000E+00 0. -1.
         -3    1    3    3    0  502 -0.77645723172E+01  0.17860142804E+02  0.26934908847E+02  0.33237969235E+02  0.00000000000E+00 0.  1.
         11    1    5    5    0    0 -0.15244574525E+03  0.12370766941E+03 -0.12265592121E+03  0.23149031885E+03  0.00000000000E+00 0.  1.
        -11    1    5    5    0    0 -0.60317461120E+02  0.71716736231E+02  0.22899922675E+01  0.93737561501E+02  0.00000000000E+00 0. -1.
          3    1    6    6  503    0 -0.63376711930E+01 -0.27932218024E+02  0.85448359468E+02  0.90121013175E+02  0.00000000000E+00 0. -1.
         -3    1    6    6    0  503  0.18725726529E+03 -0.12097459333E+03  0.62662635425E+03  0.66510203990E+03  0.00000000000E+00 0.  1.
<mgrwt>
<rscale>  0 0.10983213E+04</rscale>
<asrwt>0</asrwt>
<pdfrwt beam="1">  1        2 0.18423524E+00 0.10983213E+04</pdfrwt>
<pdfrwt beam="2">  1       -1 0.38743549E-01 0.10983213E+04</pdfrwt>
<totfact> 0.13877584E+02</totfact>
</mgrwt>
</event>
<event>
12    6  0.1462228E-007  0.1592055E+04  0.7818608E-02  0.8825444E-01
         -1   -1    0    0    0  501 -0.00000000000E+00  0.00000000000E+00  0.22089611448E+03  0.22089611448E+03  0.00000000000E+00 0.  1.
          2   -1    0    0  501    0  0.00000000000E+00 -0.00000000000E+00 -0.28685879706E+04  0.28685879706E+04  0.00000000000E+00 0. -1.
         24    2    1    2    0    0 -0.47859260315E+03  0.17079894873E+03 -0.12955792566E+04  0.13940789089E+04  0.81897701233E+02 0.  0.
        254    2    1    2    0    0  0.47859260315E+03 -0.17079894873E+03 -0.13521125995E+04  0.16954051762E+04  0.88767509199E+03 0.  0.
         23    2    4    4    0    0  0.46478153985E+03  0.19227540922E+03 -0.33377202479E+03  0.61026628356E+03  0.89607251599E+02 0.  0.
         23    2    4    4    0    0  0.13811063294E+02 -0.36307435794E+03 -0.10183405747E+04  0.10851388926E+04  0.92169166537E+02 0.  0.
          2    1    3    3  502    0 -0.33569926500E+03  0.10983055530E+03 -0.99298277294E+03  0.10539314659E+04  0.00000000000E+00 0. -1.
         -1    1    3    3    0  502 -0.14289333814E+03  0.60968393427E+02 -0.30259648368E+03  0.34014744305E+03  0.00000000000E+00 0.  1.
         11    1    5    5    0    0  0.45159373075E+02  0.45203259477E+02 -0.62607586013E+02  0.89456209792E+02  0.00000000000E+00 0. -1.
        -11    1    5    5    0    0  0.41962216678E+03  0.14707214974E+03 -0.27116443878E+03  0.52081007377E+03  0.00000000000E+00 0.  1.
          2    1    6    6  503    0  0.44124368955E+01  0.48760189134E+01 -0.23067122720E+02  0.23986189993E+02  0.00000000000E+00 0. -1.
         -2    1    6    6    0  503  0.93986263981E+01 -0.36795037686E+03 -0.99527345199E+03  0.10611527026E+04  0.00000000000E+00 0.  1.
<mgrwt>
<rscale>  0 0.15920552E+04</rscale>
<asrwt>0</asrwt>
<pdfrwt beam="1">  1        2 0.44132119E+00 0.15920552E+04</pdfrwt>
<pdfrwt beam="2">  1       -1 0.33984020E-01 0.15920552E+04</pdfrwt>
<totfact> 0.18864018E+01</totfact>
</mgrwt>
</event>
<event>
12    6  0.1462228E-007  0.2994224E+04  0.7818608E-02  0.8245382E-01
         -1   -1    0    0    0  501 -0.00000000000E+00  0.00000000000E+00  0.19126597103E+04  0.19126597103E+04  0.00000000000E+00 0.  1.
          2   -1    0    0  501    0  0.00000000000E+00 -0.00000000000E+00 -0.11718467016E+04  0.11718467016E+04  0.00000000000E+00 0. -1.
         24    2    1    2    0    0  0.19725533713E+03 -0.13382025026E+04  0.52151484402E+03  0.14515735436E+04  0.73433056867E+02 0.  0.
        254    2    1    2    0    0 -0.19725533713E+03  0.13382025026E+04  0.21929816467E+03  0.16329328683E+04  0.88807795903E+03 0.  0.
         23    2    4    4    0    0 -0.52119418953E+03  0.79610377489E+03 -0.31356869088E+01  0.95697402069E+03  0.10180785897E+03 0.  0.
         23    2    4    4    0    0  0.32393885239E+03  0.54209872775E+03  0.22243385158E+03  0.67595884764E+03  0.92930805695E+02 0.  0.
          4    1    3    3  502    0  0.82263649341E+02 -0.58383853847E+03  0.18860284414E+03  0.61903617004E+03  0.00000000000E+00 0. -1.
         -3    1    3    3    0  502  0.11499168779E+03 -0.75436396418E+03  0.33291199988E+03  0.83253737356E+03  0.00000000000E+00 0.  1.
         11    1    5    5    0    0 -0.33333295488E+03  0.45070733899E+03  0.36717034150E+02  0.56177940940E+03  0.00000000000E+00 0. -1.
        -11    1    5    5    0    0 -0.18786123465E+03  0.34539643590E+03 -0.39852721059E+02  0.39519461129E+03  0.00000000000E+00 0.  1.
          4    1    6    6  503    0  0.27109561249E+03  0.37668663946E+03  0.14907773219E+03  0.48745238301E+03  0.00000000000E+00 0. -1.
         -4    1    6    6    0  503  0.52843239901E+02  0.16541208829E+03  0.73356119385E+02  0.18850646463E+03  0.00000000000E+00 0.  1.
<mgrwt>
<rscale>  0 0.29942238E+04</rscale>
<asrwt>0</asrwt>
<pdfrwt beam="1">  1        2 0.18028411E+00 0.29942238E+04</pdfrwt>
<pdfrwt beam="2">  1       -1 0.29425534E+00 0.29942238E+04</pdfrwt>
<totfact> 0.69134476E-01</totfact>
</mgrwt>
</event>
<event>
12    6  0.1462228E-007  0.1591736E+04  0.7818608E-02  0.8825641E-01
         -1   -1    0    0    0  501 -0.00000000000E+00  0.00000000000E+00  0.40921366795E+03  0.40921366795E+03  0.00000000000E+00 0.  1.
          2   -1    0    0  501    0  0.00000000000E+00 -0.00000000000E+00 -0.15478613103E+04  0.15478613103E+04  0.00000000000E+00 0. -1.
         24    2    1    2    0    0  0.38595445368E+03  0.10303061582E+03 -0.83463288465E+03  0.92875613705E+03  0.79998511591E+02 0.  0.
        254    2    1    2    0    0 -0.38595445368E+03 -0.10303061582E+03 -0.30401475770E+03  0.10283188412E+04  0.89746226558E+03 0.  0.
         23    2    4    4    0    0  0.13830680905E+03  0.12400716048E+03  0.17942948347E+03  0.27405425375E+03  0.91674670318E+02 0.  0.
         23    2    4    4    0    0 -0.52426126273E+03 -0.22703777630E+03 -0.48344424117E+03  0.75426458744E+03  0.93812099870E+02 0.  0.
          4    1    3    3  502    0  0.24743022848E+03  0.60714242467E+02 -0.44075480273E+03  0.50909010335E+03  0.00000000000E+00 0. -1.
         -3    1    3    3    0  502  0.13852422521E+03  0.42316373351E+02 -0.39387808192E+03  0.41966603370E+03  0.00000000000E+00 0.  1.
         11    1    5    5    0    0  0.26046047573E+02  0.58184218692E+02  0.10850817465E+03  0.12584841622E+03  0.00000000000E+00 0.  1.
        -11    1    5    5    0    0  0.11226076147E+03  0.65822941790E+02  0.70921308826E+02  0.14820583753E+03  0.00000000000E+00 0. -1.
          4    1    6    6  503    0 -0.45142101847E+03 -0.16871170263E+03 -0.37124254337E+03  0.60833017394E+03  0.00000000000E+00 0. -1.
         -4    1    6    6    0  503 -0.72840244256E+02 -0.58326073671E+02 -0.11220169781E+03  0.14593441350E+03  0.00000000000E+00 0.  1.
<mgrwt>
<rscale>  0 0.15917362E+04</rscale>
<asrwt>0</asrwt>
<pdfrwt beam="1">  1        2 0.23813251E+00 0.15917362E+04</pdfrwt>
<pdfrwt beam="2">  1       -1 0.62955948E-01 0.15917362E+04</pdfrwt>
<totfact> 0.33374531E+01</totfact>
</mgrwt>
</event>
<event>
12    6  0.1462228E-007  0.2327595E+04  0.7818608E-02  0.8467119E-01
          2   -1    0    0  501    0  0.00000000000E+00  0.00000000000E+00  0.26240669911E+04  0.26240669911E+04  0.00000000000E+00 0. -1.
         -1   -1    0    0    0  501 -0.00000000000E+00 -0.00000000000E+00 -0.51615486728E+03  0.51615486728E+03  0.00000000000E+00 0.  1.
         24    2    1    2    0    0 -0.73551467501E+03 -0.39421456456E+03  0.18952973299E+03  0.86077971090E+03  0.92915181480E+02 0.  0.
        254    2    1    2    0    0  0.73551467501E+03  0.39421456456E+03  0.19183823908E+04  0.22794421475E+04  0.90514006995E+03 0.  0.
         23    2    4    4    0    0  0.35413955211E+03 -0.86783918194E+01  0.10380009457E+03  0.37987902867E+03  0.89685449967E+02 0.  0.
         23    2    4    4    0    0  0.38137512290E+03  0.40289295638E+03  0.18145822963E+04  0.18995631188E+04  0.88664614111E+02 0.  0.
          4    1    3    3  502    0 -0.13302110356E+03 -0.32558332357E+02  0.31699463015E+02  0.14056854184E+03  0.00000000000E+00 0. -1.
         -3    1    3    3    0  502 -0.60249357145E+03 -0.36165623221E+03  0.15783026998E+03  0.72021116907E+03  0.00000000000E+00 0.  1.
         11    1    5    5    0    0  0.17382045446E+03 -0.36575564909E+02  0.18899378165E+02  0.17862952957E+03  0.00000000000E+00 0.  1.
        -11    1    5    5    0    0  0.18031909765E+03  0.27897173089E+02  0.84900716405E+02  0.20124949910E+03  0.00000000000E+00 0. -1.
          1    1    6    6  503    0  0.17982208086E+03  0.19549077280E+03  0.10188837072E+04  0.10529371453E+04  0.00000000000E+00 0. -1.
         -1    1    6    6    0  503  0.20155304204E+03  0.20740218359E+03  0.79569858903E+03  0.84662597355E+03  0.00000000000E+00 0.  1.
<mgrwt>
<rscale>  0 0.23275953E+04</rscale>
<asrwt>0</asrwt>
<pdfrwt beam="1">  1        2 0.40370261E+00 0.23275953E+04</pdfrwt>
<pdfrwt beam="2">  1       -1 0.79408443E-01 0.23275953E+04</pdfrwt>
<totfact> 0.48041869E+00</totfact>
</mgrwt>
</event>
<event>
12    6  0.1462228E-007  0.1029606E+04  0.7818608E-02  0.9276656E-01
         -1   -1    0    0    0  501 -0.00000000000E+00  0.00000000000E+00  0.12812541567E+03  0.12812541567E+03  0.00000000000E+00 0.  1.
          2   -1    0    0  501    0  0.00000000000E+00 -0.00000000000E+00 -0.20684589641E+04  0.20684589641E+04  0.00000000000E+00 0. -1.
         24    2    1    2    0    0 -0.75036092717E+02  0.42460227538E+02 -0.33891642790E+03  0.35905164983E+03  0.81366184708E+02 0.  0.
        254    2    1    2    0    0  0.75036092717E+02 -0.42460227538E+02 -0.16014171205E+04  0.18375327299E+04  0.89697070939E+03 0.  0.
         23    2    4    4    0    0 -0.21666626736E+02  0.33047909146E+03 -0.12858575625E+04  0.13311456394E+04  0.93984944751E+02 0.  0.
         23    2    4    4    0    0  0.96702719453E+02 -0.37293931900E+03 -0.31555955803E+03  0.50638709046E+03  0.91732759251E+02 0.  0.
          4    1    3    3  502    0 -0.90922657557E+02  0.26137679601E+02 -0.29110457026E+03  0.30609145492E+03  0.00000000000E+00 0. -1.
         -3    1    3    3    0  502  0.15886564840E+02  0.16322547937E+02 -0.47811857640E+02  0.52960194906E+02  0.00000000000E+00 0.  1.
         11    1    5    5    0    0 -0.33783412873E+02  0.52295203211E+02 -0.31765922399E+03  0.32370278011E+03  0.00000000000E+00 0. -1.
        -11    1    5    5    0    0  0.12116786137E+02  0.27818388825E+03 -0.96819833847E+03  0.10074428593E+04  0.00000000000E+00 0.  1.
          2    1    6    6  503    0  0.17624448362E+02 -0.11782937730E+03 -0.15227152115E+03  0.19334166517E+03  0.00000000000E+00 0. -1.
         -2    1    6    6    0  503  0.79078271090E+02 -0.25510994170E+03 -0.16328803688E+03  0.31304542530E+03  0.00000000000E+00 0.  1.
<mgrwt>
<rscale>  0 0.10296061E+04</rscale>
<asrwt>0</asrwt>
<pdfrwt beam="1">  1        2 0.31822446E+00 0.10296061E+04</pdfrwt>
<pdfrwt beam="2">  1       -1 0.19711602E-01 0.10296061E+04</pdfrwt>
<totfact> 0.14621867E+02</totfact>
</mgrwt>
</event>
<event>
12    6  0.1462228E-007  0.1338003E+04  0.7818608E-02  0.8999960E-01
          2   -1    0    0  501    0  0.00000000000E+00  0.00000000000E+00  0.18850546513E+04  0.18850546513E+04  0.00000000000E+00 0. -1.
         -1   -1    0    0    0  501 -0.00000000000E+00 -0.00000000000E+00 -0.23742699815E+03  0.23742699815E+03  0.00000000000E+00 0.  1.
         24    2    1    2    0    0  0.35494740481E+03  0.10658088864E+03  0.51620828592E+03  0.64044547506E+03  0.79701104586E+02 0.  0.
        254    2    1    2    0    0 -0.35494740481E+03 -0.10658088864E+03  0.11314193672E+04  0.14820361743E+04  0.88259520259E+03 0.  0.
         23    2    4    4    0    0 -0.18895864899E+03 -0.48731626196E+03  0.58943673252E+03  0.79316064920E+03  0.92117553190E+02 0.  0.
         23    2    4    4    0    0 -0.16598875582E+03  0.38073537332E+03  0.54198263466E+03  0.68887552514E+03  0.91063830941E+02 0.  0.
          2    1    3    3  502    0  0.15151449810E+03  0.42450716131E+02  0.15444735729E+03  0.22048286239E+03  0.00000000000E+00 0. -1.
         -1    1    3    3    0  502  0.20343290671E+03  0.64130172508E+02  0.36176092864E+03  0.41996261267E+03  0.00000000000E+00 0.  1.
         11    1    5    5    0    0 -0.17513799044E+02 -0.83501906208E+01  0.91500721521E+01  0.21451868468E+02  0.00000000000E+00 0.  1.
        -11    1    5    5    0    0 -0.17144484994E+03 -0.47896607134E+03  0.58028666036E+03  0.77170878073E+03  0.00000000000E+00 0. -1.
          1    1    6    6  503    0 -0.15187915453E+03  0.31832078131E+03  0.40092020447E+03  0.53397790942E+03  0.00000000000E+00 0. -1.
         -1    1    6    6    0  503 -0.14109601286E+02  0.62414592008E+02  0.14106243019E+03  0.15489761571E+03  0.00000000000E+00 0.  1.
<mgrwt>
<rscale>  0 0.13380028E+04</rscale>
<asrwt>0</asrwt>
<pdfrwt beam="1">  1        2 0.29000840E+00 0.13380028E+04</pdfrwt>
<pdfrwt beam="2">  1       -1 0.36527232E-01 0.13380028E+04</pdfrwt>
<totfact> 0.61956070E+01</totfact>
</mgrwt>
</event>
<event>
12    6  0.1462228E-007  0.2656853E+04  0.7818608E-02  0.8349142E-01
         -1   -1    0    0    0  501 -0.00000000000E+00  0.00000000000E+00  0.13994361446E+04  0.13994361446E+04  0.00000000000E+00 0.  1.
          2   -1    0    0  501    0  0.00000000000E+00 -0.00000000000E+00 -0.12610199240E+04  0.12610199240E+04  0.00000000000E+00 0. -1.
         24    2    1    2    0    0  0.38768648057E+03  0.10929880288E+04 -0.12002927042E+03  0.11685947710E+04  0.79265849475E+02 0.  0.
        254    2    1    2    0    0 -0.38768648057E+03 -0.10929880288E+04  0.25844549100E+03  0.14918612975E+04  0.90218203319E+03 0.  0.
         23    2    4    4    0    0 -0.29528903537E+03 -0.12311324076E+04  0.16482635415E+03  0.12799867000E+04  0.91189943942E+02 0.  0.
         23    2    4    4    0    0 -0.92397445200E+02  0.13814437880E+03  0.93619136849E+02  0.21187459749E+03  0.92223343058E+02 0.  0.
          2    1    3    3  502    0  0.21172981089E+03  0.52435734455E+03 -0.89973630326E+02  0.57260404448E+03  0.00000000000E+00 0. -1.
         -3    1    3    3    0  502  0.17595666968E+03  0.56863068421E+03 -0.30055640090E+02  0.59599072655E+03  0.00000000000E+00 0.  1.
         11    1    5    5    0    0 -0.28649100687E+03 -0.12093035092E+04  0.14911655017E+03  0.12516899856E+04  0.00000000000E+00 0.  1.
        -11    1    5    5    0    0 -0.87980284964E+01 -0.21828898315E+02  0.15709803977E+02  0.28296714439E+02  0.00000000000E+00 0. -1.
          1    1    6    6  503    0  0.95015661427E+01  0.64847168043E+01  0.32580584972E+02  0.34551784734E+02  0.00000000000E+00 0. -1.
         -1    1    6    6    0  503 -0.10189901134E+03  0.13165966200E+03  0.61038551877E+02  0.17732281276E+03  0.00000000000E+00 0.  1.
<mgrwt>
<rscale>  0 0.26568529E+04</rscale>
<asrwt>0</asrwt>
<pdfrwt beam="1">  1        2 0.19400307E+00 0.26568529E+04</pdfrwt>
<pdfrwt beam="2">  1       -1 0.21529787E+00 0.26568529E+04</pdfrwt>
<totfact> 0.20689920E+00</totfact>
</mgrwt>
</event>
<event>
12    6  0.1462228E-007  0.2160260E+04  0.7818608E-02  0.8535153E-01
         -1   -1    0    0    0  501 -0.00000000000E+00  0.00000000000E+00  0.64027384514E+03  0.64027384514E+03  0.00000000000E+00 0.  1.
          2   -1    0    0  501    0  0.00000000000E+00 -0.00000000000E+00 -0.18221598190E+04  0.18221598190E+04  0.00000000000E+00 0. -1.
         24    2    1    2    0    0 -0.24545876988E+03  0.71209017847E+03 -0.10413402889E+04  0.12877018062E+04  0.80398472237E+02 0.  0.
        254    2    1    2    0    0  0.24545876988E+03 -0.71209017847E+03 -0.14054568495E+03  0.11747318580E+04  0.89046022853E+03 0.  0.
         23    2    4    4    0    0  0.46677490510E+02  0.19717368206E+03 -0.91359081615E+02  0.23826543487E+03  0.85835229609E+02 0.  0.
         23    2    4    4    0    0  0.19878127937E+03 -0.90926386054E+03 -0.49186603338E+02  0.93646642311E+03  0.90968536063E+02 0.  0.
          4    1    3    3  502    0 -0.69612371002E+02  0.28439624188E+03 -0.35595366643E+03  0.46090141814E+03  0.00000000000E+00 0. -1.
         -3    1    3    3    0  502 -0.17584639888E+03  0.42769393659E+03 -0.68538662249E+03  0.82680038805E+03  0.00000000000E+00 0.  1.
         11    1    5    5    0    0  0.10879109220E+01  0.32439601264E+02 -0.54464784480E+02  0.63402870825E+02  0.00000000000E+00 0.  1.
        -11    1    5    5    0    0  0.45589579588E+02  0.16473408080E+03 -0.36894297135E+02  0.17486256404E+03  0.00000000000E+00 0. -1.
          4    1    6    6  503    0  0.18740164914E+03 -0.74553287171E+03 -0.65613588155E+02  0.77152043644E+03  0.00000000000E+00 0. -1.
         -4    1    6    6    0  503  0.11379630234E+02 -0.16373098882E+03  0.16426984817E+02  0.16494598666E+03  0.00000000000E+00 0.  1.
<mgrwt>
<rscale>  0 0.21602604E+04</rscale>
<asrwt>0</asrwt>
<pdfrwt beam="1">  1        2 0.28033228E+00 0.21602604E+04</pdfrwt>
<pdfrwt beam="2">  1       -1 0.98503669E-01 0.21602604E+04</pdfrwt>
<totfact> 0.86390529E+00</totfact>
</mgrwt>
</event>
<event>
12    6  0.1462228E-007  0.2161080E+04  0.7818608E-02  0.8534804E-01
          2   -1    0    0  501    0  0.00000000000E+00  0.00000000000E+00  0.85913657610E+03  0.85913657610E+03  0.00000000000E+00 0. -1.
         -1   -1    0    0    0  501 -0.00000000000E+00 -0.00000000000E+00 -0.13590000840E+04  0.13590000840E+04  0.00000000000E+00 0.  1.
         24    2    1    2    0    0 -0.31567582574E+03  0.64482733839E+03 -0.74884645689E+03  0.10407009639E+04  0.82667750766E+02 0.  0.
        254    2    1    2    0    0  0.31567582574E+03 -0.64482733839E+03  0.24898294895E+03  0.11774356962E+04  0.89939356600E+03 0.  0.
         23    2    4    4    0    0 -0.82817529154E+02  0.16760851153E+03 -0.60172425401E+02  0.21713171275E+03  0.92596455819E+02 0.  0.
         23    2    4    4    0    0  0.39849335489E+03 -0.81243584992E+03  0.30915537435E+03  0.96030398346E+03  0.88077982701E+02 0.  0.
          2    1    3    3  502    0 -0.90966625342E+01  0.64249155922E+02 -0.50838910742E+02  0.82433598437E+02  0.00000000000E+00 0. -1.
         -1    1    3    3    0  502 -0.30657916321E+03  0.58057818247E+03 -0.69800754615E+03  0.95826736548E+03  0.00000000000E+00 0.  1.
         11    1    5    5    0    0 -0.81386874578E+02  0.17019012641E+03 -0.74259550831E+02  0.20273870713E+03  0.00000000000E+00 0. -1.
        -11    1    5    5    0    0 -0.14306545767E+01 -0.25816148742E+01  0.14087125430E+02  0.14393005620E+02  0.00000000000E+00 0.  1.
          2    1    6    6  503    0  0.29015455051E+03 -0.62879381869E+03  0.27127222627E+03  0.74374723552E+03  0.00000000000E+00 0. -1.
         -2    1    6    6    0  503  0.10833880438E+03 -0.18364203123E+03  0.37883148081E+02  0.21655674794E+03  0.00000000000E+00 0.  1.
<mgrwt>
<rscale>  0 0.21610800E+04</rscale>
<asrwt>0</asrwt>
<pdfrwt beam="1">  1        2 0.13217486E+00 0.21610800E+04</pdfrwt>
<pdfrwt beam="2">  1       -1 0.20907693E+00 0.21610800E+04</pdfrwt>
<totfact> 0.42672512E+00</totfact>
</mgrwt>
</event>
<event>
12    6  0.1462228E-007  0.1320477E+04  0.7818608E-02  0.9013482E-01
          2   -1    0    0  501    0  0.00000000000E+00  0.00000000000E+00  0.13610553199E+04  0.13610553199E+04  0.00000000000E+00 0. -1.
         -1   -1    0    0    0  501 -0.00000000000E+00 -0.00000000000E+00 -0.32027716923E+03  0.32027716923E+03  0.00000000000E+00 0.  1.
         24    2    1    2    0    0  0.23181594064E+03 -0.22050327648E+03  0.41460761120E+03  0.52959664883E+03  0.78821405159E+02 0.  0.
        254    2    1    2    0    0 -0.23181594064E+03  0.22050327648E+03  0.62617053950E+03  0.11517358403E+04  0.91216532278E+03 0.  0.
         23    2    4    4    0    0 -0.11808079430E+03  0.51896625151E+03  0.13477429910E+03  0.55704183988E+03  0.94140615540E+02 0.  0.
         23    2    4    4    0    0 -0.11373514634E+03 -0.29846297503E+03  0.49139624040E+03  0.59469400044E+03  0.10087050166E+03 0.  0.
          2    1    3    3  502    0  0.12239510667E+03 -0.90745657701E+02  0.25236136733E+03  0.29479076690E+03  0.00000000000E+00 0. -1.
         -1    1    3    3    0  502  0.10942083397E+03 -0.12975761878E+03  0.16224624387E+03  0.23480588193E+03  0.00000000000E+00 0.  1.
         11    1    5    5    0    0  0.10801950433E+02  0.93374290751E+01  0.77219699816E+01  0.16232637964E+02  0.00000000000E+00 0. -1.
        -11    1    5    5    0    0 -0.12888274473E+03  0.50962882244E+03  0.12705232912E+03  0.54080920192E+03  0.00000000000E+00 0.  1.
          1    1    6    6  503    0 -0.53817375663E+01 -0.75119170644E+02  0.57300283852E+02  0.94631788670E+02  0.00000000000E+00 0. -1.
         -1    1    6    6    0  503 -0.10835340878E+03 -0.22334380438E+03  0.43409595655E+03  0.50006221177E+03  0.00000000000E+00 0.  1.
<mgrwt>
<rscale>  0 0.13204771E+04</rscale>
<asrwt>0</asrwt>
<pdfrwt beam="1">  1        2 0.20939312E+00 0.13204771E+04</pdfrwt>
<pdfrwt beam="2">  1       -1 0.49273411E-01 0.13204771E+04</pdfrwt>
<totfact> 0.70135698E+01</totfact>
</mgrwt>
</event>
<event>
12    6  0.1462228E-007  0.1517623E+04  0.7818608E-02  0.8872817E-01
         -1   -1    0    0    0  501 -0.00000000000E+00  0.00000000000E+00  0.28320588681E+03  0.28320588681E+03  0.00000000000E+00 0.  1.
          2   -1    0    0  501    0  0.00000000000E+00 -0.00000000000E+00 -0.20331327565E+04  0.20331327565E+04  0.00000000000E+00 0. -1.
         24    2    1    2    0    0 -0.37618231259E+02  0.40820058398E+02 -0.13658770520E+04  0.13693332159E+04  0.79824347310E+02 0.  0.
        254    2    1    2    0    0  0.37618231259E+02 -0.40820058398E+02 -0.38404981766E+03  0.94700542741E+03  0.86385392782E+03 0.  0.
         23    2    4    4    0    0  0.85230412427E+02  0.36522083471E+03 -0.35976106098E+03  0.52764662537E+03  0.91282303636E+02 0.  0.
         23    2    4    4    0    0 -0.47612181168E+02 -0.40604089311E+03 -0.24288756677E+02  0.41935880203E+03  0.90198306345E+02 0.  0.
          4    1    3    3  502    0 -0.58806982925E+02  0.35732621378E+02 -0.77327919983E+03  0.77633485195E+03  0.00000000000E+00 0. -1.
         -3    1    3    3    0  502  0.21188751666E+02  0.50874370200E+01 -0.59259785221E+03  0.59299836396E+03  0.00000000000E+00 0.  1.
         11    1    5    5    0    0 -0.53138231291E+01  0.17485480284E+03 -0.17254458966E+03  0.24571136362E+03  0.00000000000E+00 0. -1.
        -11    1    5    5    0    0  0.90544235556E+02  0.19036603187E+03 -0.18721647132E+03  0.28193526175E+03  0.00000000000E+00 0.  1.
          1    1    6    6  503    0  0.66722591334E+01 -0.27810828167E+03  0.51886111362E+00  0.27818879307E+03  0.00000000000E+00 0. -1.
         -1    1    6    6    0  503 -0.54284440301E+02 -0.12793261144E+03 -0.24807617791E+02  0.14117000896E+03  0.00000000000E+00 0.  1.
<mgrwt>
<rscale>  0 0.15176234E+04</rscale>
<asrwt>0</asrwt>
<pdfrwt beam="1">  1        2 0.31278965E+00 0.15176234E+04</pdfrwt>
<pdfrwt beam="2">  1       -1 0.43570137E-01 0.15176234E+04</pdfrwt>
<totfact> 0.36622456E+01</totfact>
</mgrwt>
</event>
<event>
12    6  0.1462228E-007  0.2102896E+04  0.7818608E-02  0.8559969E-01
         -1   -1    0    0    0  501 -0.00000000000E+00  0.00000000000E+00  0.56270164169E+03  0.56270164169E+03  0.00000000000E+00 0.  1.
          2   -1    0    0  501    0  0.00000000000E+00 -0.00000000000E+00 -0.19647056741E+04  0.19647056741E+04  0.00000000000E+00 0. -1.
         24    2    1    2    0    0 -0.57088963707E+03 -0.30895113820E+03  0.98987432162E+02  0.66152893665E+03  0.80350723659E+02 0.  0.
        254    2    1    2    0    0  0.57088963707E+03  0.30895113820E+03 -0.15009914646E+04  0.18658783791E+04  0.89842137413E+03 0.  0.
         23    2    4    4    0    0 -0.22122372398E+03  0.12200130321E+03 -0.53757587310E+03  0.60136312608E+03  0.93944324105E+02 0.  0.
         23    2    4    4    0    0  0.79211336105E+03  0.18694983499E+03 -0.96341559148E+03  0.12645152531E+04  0.91844465069E+02 0.  0.
          2    1    3    3  502    0 -0.79369553649E+02 -0.38075294369E+02 -0.13756498558E+02  0.89098234215E+02  0.00000000000E+00 0. -1.
         -1    1    3    3    0  502 -0.49152008342E+03 -0.27087584383E+03  0.11274393072E+03  0.57243070244E+03  0.00000000000E+00 0.  1.
         11    1    5    5    0    0 -0.20179371402E+03  0.12154214922E+03 -0.41451162963E+03  0.47677362359E+03  0.00000000000E+00 0. -1.
        -11    1    5    5    0    0 -0.19430009964E+02  0.45915399320E+00 -0.12306424347E+03  0.12458950249E+03  0.00000000000E+00 0.  1.
          3    1    6    6  503    0  0.27476172164E+03  0.10391681211E+03 -0.38086873637E+03  0.48099241352E+03  0.00000000000E+00 0.  1.
         -3    1    6    6    0  503  0.51735163941E+03  0.83033022876E+02 -0.58254685511E+03  0.78352283954E+03  0.00000000000E+00 0. -1.
<mgrwt>
<rscale>  0 0.21028962E+04</rscale>
<asrwt>0</asrwt>
<pdfrwt beam="1">  1        2 0.30226242E+00 0.21028962E+04</pdfrwt>
<pdfrwt beam="2">  1       -1 0.86569480E-01 0.21028962E+04</pdfrwt>
<totfact> 0.96452891E+00</totfact>
</mgrwt>
</event>
<event>
12    6  0.1462228E-007  0.2151301E+04  0.7818608E-02  0.8538976E-01
         -1   -1    0    0    0  501 -0.00000000000E+00  0.00000000000E+00  0.41567678048E+03  0.41567678048E+03  0.00000000000E+00 0.  1.
          2   -1    0    0  501    0  0.00000000000E+00 -0.00000000000E+00 -0.27834694156E+04  0.27834694156E+04  0.00000000000E+00 0. -1.
         24    2    1    2    0    0 -0.51578419651E+03 -0.50046701440E+03 -0.17410373833E+04  0.18852351161E+04  0.79998143028E+02 0.  0.
        254    2    1    2    0    0  0.51578419651E+03  0.50046701440E+03 -0.62675525174E+03  0.13139110800E+04  0.90390243421E+03 0.  0.
         23    2    4    4    0    0  0.31849575382E+03  0.74120674077E+03 -0.54961213126E+03  0.98040600786E+03  0.91079457933E+02 0.  0.
         23    2    4    4    0    0  0.19728844270E+03 -0.24073972638E+03 -0.77143120484E+02  0.33350507209E+03  0.91630925976E+02 0.  0.
          2    1    3    3  502    0 -0.50157081203E+03 -0.48703607576E+03 -0.17192281272E+04  0.18559425562E+04  0.00000000000E+00 0. -1.
         -1    1    3    3    0  502 -0.14213384485E+02 -0.13430938640E+02 -0.21809256116E+02  0.29292559867E+02  0.00000000000E+00 0.  1.
         11    1    5    5    0    0  0.10069736154E+02  0.48863885946E+02 -0.12441297899E+02  0.51418526130E+02  0.00000000000E+00 0.  1.
        -11    1    5    5    0    0  0.30842601766E+03  0.69234285483E+03 -0.53717083336E+03  0.92898748173E+03  0.00000000000E+00 0. -1.
          1    1    6    6  503    0  0.13652156201E+03 -0.22244663824E+03 -0.61824801224E+02  0.26822182947E+03  0.00000000000E+00 0. -1.
         -1    1    6    6    0  503  0.60766880688E+02 -0.18293088134E+02 -0.15318319260E+02  0.65283242620E+02  0.00000000000E+00 0.  1.
<mgrwt>
<rscale>  0 0.21513006E+04</rscale>
<asrwt>0</asrwt>
<pdfrwt beam="1">  1        2 0.42822607E+00 0.21513006E+04</pdfrwt>
<pdfrwt beam="2">  1       -1 0.63950273E-01 0.21513006E+04</pdfrwt>
<totfact> 0.61327747E+00</totfact>
</mgrwt>
</event>
<event>
12    6  0.1462228E-007  0.1671609E+04  0.7818608E-02  0.8777725E-01
          2   -1    0    0  501    0  0.00000000000E+00  0.00000000000E+00  0.39100509154E+04  0.39100509154E+04  0.00000000000E+00 0. -1.
         -1   -1    0    0    0  501 -0.00000000000E+00 -0.00000000000E+00 -0.17865976960E+03  0.17865976960E+03  0.00000000000E+00 0.  1.
         24    2    1    2    0    0  0.55559238325E+03  0.17887684072E+03  0.11387341384E+04  0.12820679145E+04  0.79390673252E+02 0.  0.
        254    2    1    2    0    0 -0.55559238325E+03 -0.17887684072E+03  0.25926570074E+04  0.28066427705E+04  0.90260371298E+03 0.  0.
         23    2    4    4    0    0 -0.17244544189E+03  0.10795466929E+03  0.64626849209E+02  0.23195450392E+03  0.90744813621E+02 0.  0.
         23    2    4    4    0    0 -0.38314694136E+03 -0.28683151001E+03  0.25280301582E+04  0.25746882666E+04  0.94917308884E+02 0.  0.
          2    1    3    3  502    0  0.18179217455E+03  0.33207280002E+02  0.42211093430E+03  0.46079144851E+03  0.00000000000E+00 0. -1.
         -1    1    3    3    0  502  0.37380020870E+03  0.14566956072E+03  0.71662320410E+03  0.82127646600E+03  0.00000000000E+00 0.  1.
         11    1    5    5    0    0  0.41488205744E+00  0.14704316262E+02 -0.14080102480E+02  0.20362670004E+02  0.00000000000E+00 0. -1.
        -11    1    5    5    0    0 -0.17286032394E+03  0.93250353027E+02  0.78706951689E+02  0.21159183391E+03  0.00000000000E+00 0.  1.
          2    1    6    6  503    0 -0.30906719849E+03 -0.17946859763E+03  0.18751490124E+04  0.19089042222E+04  0.00000000000E+00 0.  1.
         -2    1    6    6    0  503 -0.74079742874E+02 -0.10736291238E+03  0.65288114579E+03  0.66578404441E+03  0.00000000000E+00 0. -1.
<mgrwt>
<rscale>  0 0.16716086E+04</rscale>
<asrwt>0</asrwt>
<pdfrwt beam="1">  1        2 0.60154623E+00 0.16716086E+04</pdfrwt>
<pdfrwt beam="2">  1       -1 0.27486121E-01 0.16716086E+04</pdfrwt>
<totfact> 0.52985076E+00</totfact>
</mgrwt>
</event>
<event>
12    6  0.1462228E-007  0.1893307E+04  0.7818608E-02  0.8658195E-01
         -1   -1    0    0    0  501 -0.00000000000E+00  0.00000000000E+00  0.75922236071E+03  0.75922236071E+03  0.00000000000E+00 0.  1.
          2   -1    0    0  501    0  0.00000000000E+00 -0.00000000000E+00 -0.11803559918E+04  0.11803559918E+04  0.00000000000E+00 0. -1.
         24    2    1    2    0    0  0.50098478702E+03 -0.25938569998E+03  0.30855623820E+03  0.64804994005E+03  0.80592024952E+02 0.  0.
        254    2    1    2    0    0 -0.50098478702E+03  0.25938569998E+03 -0.72968986933E+03  0.12915284125E+04  0.90406395609E+03 0.  0.
         23    2    4    4    0    0 -0.48869381754E+03 -0.23957745490E+03 -0.30823491144E+03  0.63206794424E+03  0.91006160820E+02 0.  0.
         23    2    4    4    0    0 -0.12290969479E+02  0.49896315488E+03 -0.42145495789E+03  0.65946046825E+03  0.90269207350E+02 0.  0.
          4    1    3    3  502    0  0.66039181160E+02 -0.31595414794E+02  0.73358099555E+02  0.10363809365E+03  0.00000000000E+00 0. -1.
         -3    1    3    3    0  502  0.43494560586E+03 -0.22779028519E+03  0.23519813865E+03  0.54441184640E+03  0.00000000000E+00 0.  1.
         11    1    5    5    0    0 -0.17680423270E+03 -0.13595734735E+03 -0.13136185293E+03  0.25884372391E+03  0.00000000000E+00 0. -1.
        -11    1    5    5    0    0 -0.31188958483E+03 -0.10362010755E+03 -0.17687305850E+03  0.37322422033E+03  0.00000000000E+00 0.  1.
          2    1    6    6  503    0 -0.30127429973E+02  0.34463294189E+03 -0.24248933146E+03  0.42246964689E+03  0.00000000000E+00 0. -1.
         -2    1    6    6    0  503  0.17836460494E+02  0.15433021300E+03 -0.17896562644E+03  0.23699082137E+03  0.00000000000E+00 0.  1.
<mgrwt>
<rscale>  0 0.18933068E+04</rscale>
<asrwt>0</asrwt>
<pdfrwt beam="1">  1        2 0.18159323E+00 0.18933068E+04</pdfrwt>
<pdfrwt beam="2">  1       -1 0.11680344E+00 0.18933068E+04</pdfrwt>
<totfact> 0.13750302E+01</totfact>
</mgrwt>
</event>
<event>
12    6  0.1462228E-007  0.2619073E+04  0.7818608E-02  0.8361751E-01
          2   -1    0    0  501    0  0.00000000000E+00  0.00000000000E+00  0.87005403773E+03  0.87005403773E+03  0.00000000000E+00 0. -1.
         -1   -1    0    0    0  501 -0.00000000000E+00 -0.00000000000E+00 -0.19710107109E+04  0.19710107109E+04  0.00000000000E+00 0.  1.
         24    2    1    2    0    0  0.99513299021E+02  0.10933605882E+04 -0.86596031350E+03  0.14006811484E+04  0.81732137779E+02 0.  0.
        254    2    1    2    0    0 -0.99513299021E+02 -0.10933605882E+04 -0.23499635969E+03  0.14403836003E+04  0.90229781910E+03 0.  0.
         23    2    4    4    0    0  0.15512250984E+03 -0.78275855884E+03 -0.50429376198E+03  0.94835609954E+03  0.91066671525E+02 0.  0.
         23    2    4    4    0    0 -0.25463580886E+03 -0.31060202937E+03  0.26929740229E+03  0.49202750073E+03  0.90867787434E+02 0.  0.
          2    1    3    3  502    0  0.58052497536E+02  0.43082697414E+03 -0.38797003796E+03  0.58266862321E+03  0.00000000000E+00 0. -1.
         -1    1    3    3    0  502  0.41460801485E+02  0.66253361406E+03 -0.47799027554E+03  0.81801252517E+03  0.00000000000E+00 0.  1.
         11    1    5    5    0    0  0.16468430800E+03 -0.76877080908E+03 -0.49317135131E+03  0.92808806691E+03  0.00000000000E+00 0. -1.
        -11    1    5    5    0    0 -0.95617981583E+01 -0.13987749764E+02 -0.11122410679E+02  0.20268032633E+02  0.00000000000E+00 0.  1.
          2    1    6    6  503    0 -0.17671308218E+03 -0.21077066489E+03  0.13147735879E+03  0.30485747894E+03  0.00000000000E+00 0. -1.
         -2    1    6    6    0  503 -0.77922726688E+02 -0.99831364479E+02  0.13782004350E+03  0.18717002179E+03  0.00000000000E+00 0.  1.
<mgrwt>
<rscale>  0 0.26190730E+04</rscale>
<asrwt>0</asrwt>
<pdfrwt beam="1">  1        2 0.13385447E+00 0.26190730E+04</pdfrwt>
<pdfrwt beam="2">  1       -1 0.30323241E+00 0.26190730E+04</pdfrwt>
<totfact> 0.97406355E-01</totfact>
</mgrwt>
</event>
<event>
12    6  0.1462228E-007  0.1288156E+04  0.7818608E-02  0.9039010E-01
          2   -1    0    0  501    0  0.00000000000E+00  0.00000000000E+00  0.11280907870E+04  0.11280907870E+04  0.00000000000E+00 0. -1.
         -1   -1    0    0    0  501 -0.00000000000E+00 -0.00000000000E+00 -0.36773345206E+03  0.36773345206E+03  0.00000000000E+00 0.  1.
         24    2    1    2    0    0 -0.23395896054E+03 -0.21770184210E+03  0.16704605599E+03  0.36874755838E+03  0.77068084953E+02 0.  0.
        254    2    1    2    0    0  0.23395896054E+03  0.21770184210E+03  0.59331127894E+03  0.11270766807E+04  0.90341169083E+03 0.  0.
         23    2    4    4    0    0  0.26931505769E+03  0.53124009846E+03  0.25361426968E+03  0.65382854100E+03  0.91787366964E+02 0.  0.
         23    2    4    4    0    0 -0.35356097143E+02 -0.31353825636E+03  0.33969700926E+03  0.47324813967E+03  0.94939200517E+02 0.  0.
          2    1    3    3  502    0 -0.78168164094E+02 -0.27800079280E+02  0.47011217870E+02  0.95358066735E+02  0.00000000000E+00 0. -1.
         -3    1    3    3    0  502 -0.15579079645E+03 -0.18990176282E+03  0.12003483812E+03  0.27338949164E+03  0.00000000000E+00 0.  1.
         11    1    5    5    0    0  0.21441088627E+02  0.18957708665E+02  0.32441173741E+02  0.43261354036E+02  0.00000000000E+00 0. -1.
        -11    1    5    5    0    0  0.24787396906E+03  0.51228238980E+03  0.22117309594E+03  0.61056718697E+03  0.00000000000E+00 0.  1.
          4    1    6    6  503    0 -0.36264420050E+02 -0.23461299543E+03  0.19020350250E+03  0.30419687400E+03  0.00000000000E+00 0. -1.
         -4    1    6    6    0  503  0.90832290732E+00 -0.78925260938E+02  0.14949350675E+03  0.16905126568E+03  0.00000000000E+00 0.  1.
<mgrwt>
<rscale>  0 0.12881564E+04</rscale>
<asrwt>0</asrwt>
<pdfrwt beam="1">  1        2 0.17355243E+00 0.12881564E+04</pdfrwt>
<pdfrwt beam="2">  1       -1 0.56574378E-01 0.12881564E+04</pdfrwt>
<totfact> 0.74053714E+01</totfact>
</mgrwt>
</event>
<event>
12    6  0.1462228E-007  0.2677223E+04  0.7818608E-02  0.8342433E-01
          2   -1    0    0  501    0  0.00000000000E+00  0.00000000000E+00  0.11702182614E+04  0.11702182614E+04  0.00000000000E+00 0. -1.
         -1   -1    0    0    0  501 -0.00000000000E+00 -0.00000000000E+00 -0.15312363414E+04  0.15312363414E+04  0.00000000000E+00 0.  1.
         24    2    1    2    0    0  0.95276857963E+03 -0.63521878530E+03  0.14129418499E+03  0.11565295220E+04  0.79533747466E+02 0.  0.
        254    2    1    2    0    0 -0.95276857963E+03  0.63521878530E+03 -0.50231226501E+03  0.15449250808E+04  0.90730646548E+03 0.  0.
         23    2    4    4    0    0 -0.10186999290E+04  0.56256844140E+03 -0.15979221569E+03  0.11781568225E+04  0.91033783078E+02 0.  0.
         23    2    4    4    0    0  0.65931349361E+02  0.72650343898E+02 -0.34252004932E+03  0.36676825832E+03  0.87028477120E+02 0.  0.
          2    1    3    3  502    0  0.77482448436E+03 -0.53986195819E+03  0.13976285182E+03  0.95464002127E+03  0.00000000000E+00 0. -1.
         -1    1    3    3    0  502  0.17794409527E+03 -0.95356827111E+02  0.15313331728E+01  0.20188950071E+03  0.00000000000E+00 0.  1.
         11    1    5    5    0    0 -0.11251222582E+03  0.65539368643E+02 -0.47190174028E+02  0.13849665096E+03  0.00000000000E+00 0.  1.
        -11    1    5    5    0    0 -0.90618770317E+03  0.49702907276E+03 -0.11260204166E+03  0.10396601716E+04  0.00000000000E+00 0. -1.
          2    1    6    6  503    0  0.64610279457E+01 -0.14459371065E+01  0.38123459732E+01  0.76399998724E+01  0.00000000000E+00 0.  1.
         -2    1    6    6    0  503  0.59470321415E+02  0.74096281004E+02 -0.34633239529E+03  0.35912825845E+03  0.00000000000E+00 0. -1.
<mgrwt>
<rscale>  0 0.26772230E+04</rscale>
<asrwt>0</asrwt>
<pdfrwt beam="1">  1        2 0.18003358E+00 0.26772230E+04</pdfrwt>
<pdfrwt beam="2">  1       -1 0.23557482E+00 0.26772230E+04</pdfrwt>
<totfact> 0.17140572E+00</totfact>
</mgrwt>
</event>
<event>
12    6  0.1462228E-007  0.2067497E+04  0.7818608E-02  0.8575698E-01
          2   -1    0    0  501    0  0.00000000000E+00  0.00000000000E+00  0.33757227603E+04  0.33757227603E+04  0.00000000000E+00 0. -1.
         -1   -1    0    0    0  501 -0.00000000000E+00 -0.00000000000E+00 -0.31656503504E+03  0.31656503504E+03  0.00000000000E+00 0.  1.
         24    2    1    2    0    0 -0.12201491296E+03  0.49570318966E+03  0.24022677890E+04  0.24571762798E+04  0.78838117993E+02 0.  0.
        254    2    1    2    0    0  0.12201491296E+03 -0.49570318966E+03  0.65688993626E+03  0.12351115155E+04  0.91290020056E+03 0.  0.
         23    2    4    4    0    0 -0.32066122553E+03 -0.26405176952E+03  0.58244808940E+03  0.72204574514E+03  0.97761560364E+02 0.  0.
         23    2    4    4    0    0  0.44267613848E+03 -0.23165142015E+03  0.74441846860E+02  0.51306577038E+03  0.89835138653E+02 0.  0.
          4    1    3    3  502    0 -0.29994680092E+02  0.27525501470E+03  0.12219146299E+04  0.12528927994E+04  0.00000000000E+00 0. -1.
         -1    1    3    3    0  502 -0.92020232864E+02  0.22044817496E+03  0.11803531591E+04  0.12042834804E+04  0.00000000000E+00 0.  1.
         11    1    5    5    0    0 -0.18805527160E+03 -0.12047167855E+03  0.37913739453E+03  0.44002656106E+03  0.00000000000E+00 0. -1.
        -11    1    5    5    0    0 -0.13260595393E+03 -0.14358009096E+03  0.20331069487E+03  0.28201918408E+03  0.00000000000E+00 0.  1.
          3    1    6    6  503    0  0.40094904792E+03 -0.23651312783E+03  0.65212658193E+02  0.47005456008E+03  0.00000000000E+00 0. -1.
         -3    1    6    6    0  503  0.41727090560E+02  0.48617076801E+01  0.92291886666E+01  0.43011210302E+02  0.00000000000E+00 0.  1.
<mgrwt>
<rscale>  0 0.20674968E+04</rscale>
<asrwt>0</asrwt>
<pdfrwt beam="1">  1        2 0.51934194E+00 0.20674968E+04</pdfrwt>
<pdfrwt beam="2">  1       -1 0.48702315E-01 0.20674968E+04</pdfrwt>
<totfact> 0.44126697E+00</totfact>
</mgrwt>
</event>
<event>
12    6  0.1462228E-007  0.2278648E+04  0.7818608E-02  0.8486388E-01
          2   -1    0    0  501    0  0.00000000000E+00  0.00000000000E+00  0.22066135776E+04  0.22066135776E+04  0.00000000000E+00 0. -1.
         -1   -1    0    0    0  501 -0.00000000000E+00 -0.00000000000E+00 -0.58825871402E+03  0.58825871402E+03  0.00000000000E+00 0.  1.
         24    2    1    2    0    0  0.17579869165E+03 -0.33991543528E+02  0.18507349755E+04  0.18611046815E+04  0.80187784983E+02 0.  0.
        254    2    1    2    0    0 -0.17579869165E+03  0.33991543528E+02 -0.23238011190E+03  0.93376761016E+03  0.88648791777E+03 0.  0.
         23    2    4    4    0    0 -0.26003991866E+03 -0.23811959297E+03 -0.43658770046E+03  0.56855705010E+03  0.91250200955E+02 0.  0.
         23    2    4    4    0    0  0.84241227007E+02  0.27211113650E+03  0.20420758856E+03  0.36521056005E+03  0.10264969077E+03 0.  0.
          4    1    3    3  502    0  0.16096771641E+03 -0.35874309148E+01  0.14379818258E+04  0.14469675901E+04  0.00000000000E+00 0. -1.
         -3    1    3    3    0  502  0.14830975235E+02 -0.30404112613E+02  0.41275314968E+03  0.41413709138E+03  0.00000000000E+00 0.  1.
         11    1    5    5    0    0 -0.18534811214E+03 -0.20333954782E+03 -0.28571943449E+03  0.39665663946E+03  0.00000000000E+00 0.  1.
        -11    1    5    5    0    0 -0.74691806519E+02 -0.34780045145E+02 -0.15086826597E+03  0.17190041064E+03  0.00000000000E+00 0. -1.
          3    1    6    6  503    0  0.74542009035E+02  0.12411673413E+03  0.14677756230E+03  0.20616771716E+03  0.00000000000E+00 0. -1.
         -3    1    6    6    0  503  0.96992179714E+01  0.14799440236E+03  0.57430026262E+02  0.15904284290E+03  0.00000000000E+00 0.  1.
<mgrwt>
<rscale>  0 0.22786484E+04</rscale>
<asrwt>0</asrwt>
<pdfrwt beam="1">  1        2 0.33947901E+00 0.22786484E+04</pdfrwt>
<pdfrwt beam="2">  1       -1 0.90501342E-01 0.22786484E+04</pdfrwt>
<totfact> 0.63125465E+00</totfact>
</mgrwt>
</event>
<event>
12    6  0.1462228E-007  0.2051143E+04  0.7818608E-02  0.8583076E-01
         -3   -1    0    0    0  501 -0.00000000000E+00  0.00000000000E+00  0.78225840784E+03  0.78225840784E+03  0.00000000000E+00 0.  1.
          2   -1    0    0  501    0  0.00000000000E+00 -0.00000000000E+00 -0.13445650194E+04  0.13445650194E+04  0.00000000000E+00 0. -1.
         24    2    1    2    0    0 -0.75545574912E+03  0.66139633947E+02  0.97992955671E+02  0.76869470208E+03  0.78746971915E+02 0.  0.
        254    2    1    2    0    0  0.75545574912E+03 -0.66139633947E+02 -0.66029956726E+03  0.13581287252E+04  0.91292402510E+03 0.  0.
         23    2    4    4    0    0  0.47342803897E+03 -0.21623141951E+02  0.14118123443E+03  0.50260731753E+03  0.89890524144E+02 0.  0.
         23    2    4    4    0    0  0.28202771015E+03 -0.44516491996E+02 -0.80148080169E+03  0.85552140766E+03  0.89577096071E+02 0.  0.
          4    1    3    3  502    0 -0.27485792287E+03  0.38391110322E+02  0.51557081285E+00  0.27752661301E+03  0.00000000000E+00 0. -1.
         -3    1    3    3    0  502 -0.48059782625E+03  0.27748523625E+02  0.97477384859E+02  0.49116808907E+03  0.00000000000E+00 0.  1.
         11    1    5    5    0    0  0.94015828872E+01  0.37787659209E+01  0.19884154265E+02  0.22316998532E+02  0.00000000000E+00 0.  1.
        -11    1    5    5    0    0  0.46402645608E+03 -0.25401907872E+02  0.12129708016E+03  0.48029031900E+03  0.00000000000E+00 0. -1.
          1    1    6    6  503    0  0.16032690643E+03 -0.51056765312E+02 -0.35751757428E+03  0.39513330172E+03  0.00000000000E+00 0.  1.
         -1    1    6    6    0  503  0.12170080372E+03  0.65402733159E+01 -0.44396322741E+03  0.46038810595E+03  0.00000000000E+00 0. -1.
<mgrwt>
<rscale>  0 0.20511434E+04</rscale>
<asrwt>0</asrwt>
<pdfrwt beam="1">  1        2 0.20685615E+00 0.20511434E+04</pdfrwt>
<pdfrwt beam="2">  1       -3 0.12034745E+00 0.20511434E+04</pdfrwt>
<totfact> 0.51336752E+00</totfact>
</mgrwt>
</event>
<event>
12    6  0.1462228E-007  0.1032017E+04  0.7818608E-02  0.9274110E-01
          2   -1    0    0  501    0  0.00000000000E+00  0.00000000000E+00  0.27643227619E+03  0.27643227619E+03  0.00000000000E+00 0. -1.
         -1   -1    0    0    0  501 -0.00000000000E+00 -0.00000000000E+00 -0.96321813594E+03  0.96321813594E+03  0.00000000000E+00 0.  1.
         24    2    1    2    0    0  0.12979389600E+03  0.63458034011E+02 -0.98925391212E+02  0.19220078324E+03  0.79256107224E+02 0.  0.
        254    2    1    2    0    0 -0.12979389600E+03 -0.63458034011E+02 -0.58786046853E+03  0.10474496289E+04  0.85480840958E+03 0.  0.
         23    2    4    4    0    0 -0.11795114718E+03 -0.26453785549E+03  0.10483874874E+03  0.32144771386E+03  0.91895154378E+02 0.  0.
         23    2    4    4    0    0 -0.11842748818E+02  0.20107982148E+03 -0.69269921727E+03  0.72600191504E+03  0.81689838560E+02 0.  0.
          4    1    3    3  502    0  0.10803614568E+02  0.40877511429E+02 -0.15052322052E+02  0.44880523922E+02  0.00000000000E+00 0. -1.
         -3    1    3    3    0  502  0.11899028143E+03  0.22580522582E+02 -0.83873069160E+02  0.14732025932E+03  0.00000000000E+00 0.  1.
         11    1    5    5    0    0 -0.13251342103E+03 -0.25055855016E+03  0.94589094997E+02  0.29880845152E+03  0.00000000000E+00 0.  1.
        -11    1    5    5    0    0  0.14562273846E+02 -0.13979305331E+02  0.10249653744E+02  0.22639262333E+02  0.00000000000E+00 0. -1.
          1    1    6    6  503    0  0.20670765731E+02  0.15973992971E+02 -0.50354204735E+02  0.56727373831E+02  0.00000000000E+00 0. -1.
         -1    1    6    6    0  503 -0.32513514548E+02  0.18510582851E+03 -0.64234501254E+03  0.66927454121E+03  0.00000000000E+00 0.  1.
<mgrwt>
<rscale>  0 0.10320166E+04</rscale>
<asrwt>0</asrwt>
<pdfrwt beam="1">  1        2 0.42528043E-01 0.10320166E+04</pdfrwt>
<pdfrwt beam="2">  1       -1 0.14818740E+00 0.10320166E+04</pdfrwt>
<totfact> 0.49563449E+01</totfact>
</mgrwt>
</event>
<event>
12    6  0.1462228E-007  0.3659034E+04  0.7818608E-02  0.8077101E-01
         -1   -1    0    0    0  501 -0.00000000000E+00  0.00000000000E+00  0.16562514037E+04  0.16562514037E+04  0.00000000000E+00 0.  1.
          2   -1    0    0  501    0  0.00000000000E+00 -0.00000000000E+00 -0.20209085898E+04  0.20209085898E+04  0.00000000000E+00 0. -1.
         24    2    1    2    0    0 -0.60425065377E+03 -0.98133708287E+03  0.11167250736E+04  0.16066656494E+04  0.78474810955E+02 0.  0.
        254    2    1    2    0    0  0.60425065377E+03  0.98133708287E+03 -0.14813822597E+04  0.20704943442E+04  0.87424945359E+03 0.  0.
         23    2    4    4    0    0  0.22276569067E+03  0.91288378889E+03 -0.64148647688E+03  0.11413239640E+04  0.90189388552E+02 0.  0.
         23    2    4    4    0    0  0.38148496310E+03  0.68453293981E+02 -0.83989578285E+03  0.92917038020E+03  0.87840986299E+02 0.  0.
          4    1    3    3  502    0 -0.58606109313E+00  0.11995953507E+01  0.38709641094E+01  0.40947356138E+01  0.00000000000E+00 0. -1.
         -3    1    3    3    0  502 -0.60366459268E+03 -0.98253667822E+03  0.11128541095E+04  0.16025709137E+04  0.00000000000E+00 0.  1.
         11    1    5    5    0    0  0.11144841583E+03  0.30107430658E+03 -0.24470419354E+03  0.40366648338E+03  0.00000000000E+00 0. -1.
        -11    1    5    5    0    0  0.11131727484E+03  0.61180948231E+03 -0.39678228334E+03  0.73765748060E+03  0.00000000000E+00 0.  1.
          4    1    6    6  503    0  0.29668910258E+03  0.81679586444E+02 -0.59858194035E+03  0.67305001132E+03  0.00000000000E+00 0.  1.
         -4    1    6    6    0  503  0.84795860524E+02 -0.13226292464E+02 -0.24131384250E+03  0.25612036888E+03  0.00000000000E+00 0. -1.
<mgrwt>
<rscale>  0 0.36590341E+04</rscale>
<asrwt>0</asrwt>
<pdfrwt beam="1">  1        2 0.31090901E+00 0.36590341E+04</pdfrwt>
<pdfrwt beam="2">  1       -1 0.25480791E+00 0.36590341E+04</pdfrwt>
<totfact> 0.38923484E-01</totfact>
</mgrwt>
</event>
<event>
12    6  0.1462228E-007  0.1565961E+04  0.7818608E-02  0.8841736E-01
          2   -1    0    0  501    0  0.00000000000E+00  0.00000000000E+00  0.22088909919E+04  0.22088909919E+04  0.00000000000E+00 0. -1.
         -1   -1    0    0    0  501 -0.00000000000E+00 -0.00000000000E+00 -0.27754143039E+03  0.27754143039E+03  0.00000000000E+00 0.  1.
         24    2    1    2    0    0 -0.25795484667E+03 -0.29117166364E+03  0.10345362178E+03  0.41036159792E+03  0.79826991441E+02 0.  0.
        254    2    1    2    0    0  0.25795484667E+03  0.29117166364E+03  0.18278959397E+04  0.20760708243E+04  0.90418187369E+03 0.  0.
         23    2    4    4    0    0 -0.52533275953E+02  0.53584809087E+03  0.13029835993E+04  0.14128040132E+04  0.91411147920E+02 0.  0.
         23    2    4    4    0    0  0.31048812262E+03 -0.24467642724E+03  0.52491234033E+03  0.66326681113E+03  0.90113647025E+02 0.  0.
          2    1    3    3  502    0 -0.13678375136E+03 -0.11215754036E+03  0.75755308632E+02  0.19242654516E+03  0.00000000000E+00 0. -1.
         -1    1    3    3    0  502 -0.12117109531E+03 -0.17901412328E+03  0.27698313151E+02  0.21793505276E+03  0.00000000000E+00 0.  1.
         11    1    5    5    0    0 -0.55801347863E+02  0.28829243258E+03  0.61186108036E+03  0.67867540015E+03  0.00000000000E+00 0. -1.
        -11    1    5    5    0    0  0.32680719105E+01  0.24755565829E+03  0.69112251898E+03  0.73412861304E+03  0.00000000000E+00 0.  1.
          3    1    6    6  503    0  0.11741105722E+02 -0.44050364569E+02  0.59152659259E+02  0.74681492216E+02  0.00000000000E+00 0.  1.
         -3    1    6    6    0  503  0.29874701690E+03 -0.20062606267E+03  0.46575968107E+03  0.58858531892E+03  0.00000000000E+00 0. -1.
<mgrwt>
<rscale>  0 0.15659614E+04</rscale>
<asrwt>0</asrwt>
<pdfrwt beam="1">  1        2 0.33982937E+00 0.15659614E+04</pdfrwt>
<pdfrwt beam="2">  1       -1 0.42698683E-01 0.15659614E+04</pdfrwt>
<totfact> 0.30211861E+01</totfact>
</mgrwt>
</event>
<event>
12    6  0.1462228E-007  0.2308751E+04  0.7818608E-02  0.8474479E-01
         -1   -1    0    0    0  501 -0.00000000000E+00  0.00000000000E+00  0.50308602172E+03  0.50308602172E+03  0.00000000000E+00 0.  1.
          2   -1    0    0  501    0  0.00000000000E+00 -0.00000000000E+00 -0.26488175080E+04  0.26488175080E+04  0.00000000000E+00 0. -1.
         24    2    1    2    0    0 -0.21963557228E+02 -0.77758358226E+03 -0.10538164598E+03  0.78906153637E+03  0.79963689395E+02 0.  0.
        254    2    1    2    0    0  0.21963557228E+02  0.77758358226E+03 -0.20403498403E+04  0.23628419934E+04  0.90270492937E+03 0.  0.
         23    2    4    4    0    0 -0.15516025957E+03 -0.13573556348E+03 -0.64523363410E+03  0.68365947388E+03  0.92547200454E+02 0.  0.
         23    2    4    4    0    0  0.17712381680E+03  0.91331914573E+03 -0.13951162062E+04  0.16791825195E+04  0.88204288260E+02 0.  0.
          2    1    3    3  502    0 -0.59584801117E+00 -0.25974448575E+02 -0.19033051620E+02  0.32206894721E+02  0.00000000000E+00 0. -1.
         -1    1    3    3    0  502 -0.21367709217E+02 -0.75160913368E+03 -0.86348594359E+02  0.75685464164E+03  0.00000000000E+00 0.  1.
         11    1    5    5    0    0 -0.10510727181E+03 -0.13888999030E+03 -0.46400571299E+03  0.49562008603E+03  0.00000000000E+00 0. -1.
        -11    1    5    5    0    0 -0.50052987760E+02  0.31544268228E+01 -0.18122792111E+03  0.18803938785E+03  0.00000000000E+00 0.  1.
          1    1    6    6  503    0  0.18197178701E+03  0.77541597114E+03 -0.11837434011E+04  0.14267557952E+04  0.00000000000E+00 0. -1.
         -1    1    6    6    0  503 -0.48479702132E+01  0.13790317460E+03 -0.21137280518E+03  0.25242672432E+03  0.00000000000E+00 0.  1.
<mgrwt>
<rscale>  0 0.23087512E+04</rscale>
<asrwt>0</asrwt>
<pdfrwt beam="1">  1        2 0.40751038E+00 0.23087512E+04</pdfrwt>
<pdfrwt beam="2">  1       -1 0.77397851E-01 0.23087512E+04</pdfrwt>
<totfact> 0.49127759E+00</totfact>
</mgrwt>
</event>
<event>
12    6  0.1462228E-007  0.1656806E+04  0.7818608E-02  0.8786390E-01
         -1   -1    0    0    0  501 -0.00000000000E+00  0.00000000000E+00  0.75553251530E+03  0.75553251530E+03  0.00000000000E+00 0.  1.
          2   -1    0    0  501    0  0.00000000000E+00 -0.00000000000E+00 -0.90830152360E+03  0.90830152360E+03  0.00000000000E+00 0. -1.
         24    2    1    2    0    0  0.54274174741E+03 -0.16537908445E+02  0.13782637914E+03  0.56615667822E+03  0.81823998344E+02 0.  0.
        254    2    1    2    0    0 -0.54274174741E+03  0.16537908445E+02 -0.29059538745E+03  0.10976773607E+04  0.90862962869E+03 0.  0.
         23    2    4    4    0    0  0.75603674725E+02 -0.31024909505E+03  0.61475406526E+01  0.33212233168E+03  0.91088058114E+02 0.  0.
         23    2    4    4    0    0 -0.61834542214E+03  0.32678700350E+03 -0.29674292810E+03  0.76555502900E+03  0.94219585643E+02 0.  0.
          4    1    3    3  502    0  0.40741499493E+01 -0.90184343531E+01  0.58884324655E+01  0.11515402420E+02  0.00000000000E+00 0. -1.
         -3    1    3    3    0  502  0.53866759746E+03 -0.75194740917E+01  0.13193794668E+03  0.55464127580E+03  0.00000000000E+00 0.  1.
         11    1    5    5    0    0  0.49783386055E+02 -0.50280065290E+02 -0.12938679293E+01  0.70768245611E+02  0.00000000000E+00 0.  1.
        -11    1    5    5    0    0  0.25820288670E+02 -0.25996902976E+03  0.74414085819E+01  0.26135408607E+03  0.00000000000E+00 0. -1.
          3    1    6    6  503    0 -0.56869104835E+03  0.28073986076E+03 -0.24326457377E+03  0.67926580272E+03  0.00000000000E+00 0. -1.
         -3    1    6    6    0  503 -0.49654373787E+02  0.46047142735E+02 -0.53478354329E+02  0.86289226280E+02  0.00000000000E+00 0.  1.
<mgrwt>
<rscale>  0 0.16568058E+04</rscale>
<asrwt>0</asrwt>
<pdfrwt beam="1">  1        2 0.13973870E+00 0.16568058E+04</pdfrwt>
<pdfrwt beam="2">  1       -1 0.11623577E+00 0.16568058E+04</pdfrwt>
<totfact> 0.21102693E+01</totfact>
</mgrwt>
</event>
<event>
12    6  0.1462228E-007  0.1928191E+04  0.7818608E-02  0.8640950E-01
         -1   -1    0    0    0  501 -0.00000000000E+00  0.00000000000E+00  0.47428301085E+03  0.47428301085E+03  0.00000000000E+00 0.  1.
          2   -1    0    0  501    0  0.00000000000E+00 -0.00000000000E+00 -0.19597576884E+04  0.19597576884E+04  0.00000000000E+00 0. -1.
         24    2    1    2    0    0 -0.32973786681E+03  0.65312996241E+03 -0.80739454027E+03  0.10925499258E+04  0.80458611561E+02 0.  0.
        254    2    1    2    0    0  0.32973786681E+03 -0.65312996241E+03 -0.67808013731E+03  0.13414907734E+04  0.89693869022E+03 0.  0.
         23    2    4    4    0    0  0.80054258589E+02 -0.78608821200E+03 -0.67598177895E+03  0.10438220668E+04  0.90938332351E+02 0.  0.
         23    2    4    4    0    0  0.24968360822E+03  0.13295824959E+03 -0.20983583565E+01  0.29766870665E+03  0.92641542843E+02 0.  0.
          2    1    3    3  502    0 -0.18322489512E+03  0.41561980674E+03 -0.45335163763E+03  0.64174675168E+03  0.00000000000E+00 0. -1.
         -1    1    3    3    0  502 -0.14651297169E+03  0.23751015567E+03 -0.35404290264E+03  0.45080317415E+03  0.00000000000E+00 0.  1.
         11    1    5    5    0    0  0.24553284315E+02 -0.39555179367E+03 -0.28274642989E+03  0.48683634710E+03  0.00000000000E+00 0.  1.
        -11    1    5    5    0    0  0.55500974275E+02 -0.39053641833E+03 -0.39323534907E+03  0.55698571969E+03  0.00000000000E+00 0. -1.
          1    1    6    6  503    0  0.24998546331E+03  0.14270049583E+03 -0.90403128788E+00  0.28784888509E+03  0.00000000000E+00 0. -1.
         -1    1    6    6    0  503 -0.30185508680E+00 -0.97422462378E+01 -0.11943270686E+01  0.98198215564E+01  0.00000000000E+00 0.  1.
<mgrwt>
<rscale>  0 0.19281906E+04</rscale>
<asrwt>0</asrwt>
<pdfrwt beam="1">  1        2 0.30150117E+00 0.19281906E+04</pdfrwt>
<pdfrwt beam="2">  1       -1 0.72966619E-01 0.19281906E+04</pdfrwt>
<totfact> 0.14172433E+01</totfact>
</mgrwt>
</event>
<event>
12    6  0.1462228E-007  0.1157110E+04  0.7818608E-02  0.9151249E-01
         -1   -1    0    0    0  501 -0.00000000000E+00  0.00000000000E+00  0.55691610931E+03  0.55691610931E+03  0.00000000000E+00 0.  1.
          2   -1    0    0  501    0  0.00000000000E+00 -0.00000000000E+00 -0.60103505247E+03  0.60103505247E+03  0.00000000000E+00 0. -1.
         24    2    1    2    0    0 -0.92265391176E+02  0.19223118653E+03 -0.46271569384E+02  0.23194117283E+03  0.78676032166E+02 0.  0.
        254    2    1    2    0    0  0.92265391176E+02 -0.19223118653E+03  0.21526262171E+01  0.92600998894E+03  0.90112381743E+03 0.  0.
         23    2    4    4    0    0  0.29631628930E+03 -0.41407989634E+03  0.19976672631E+03  0.55422667197E+03  0.89414512964E+02 0.  0.
         23    2    4    4    0    0 -0.20405089812E+03  0.22184870980E+03 -0.19761410009E+03  0.37178331698E+03  0.91202429576E+02 0.  0.
          4    1    3    3  502    0 -0.88603973876E+02  0.12772987442E+03 -0.55072348115E+01  0.15555036047E+03  0.00000000000E+00 0. -1.
         -3    1    3    3    0  502 -0.36614173000E+01  0.64501312110E+02 -0.40764334573E+02  0.76390812364E+02  0.00000000000E+00 0.  1.
         11    1    5    5    0    0  0.73768607219E+02 -0.47599954390E+02  0.25666517910E+02  0.91467662103E+02  0.00000000000E+00 0.  1.
        -11    1    5    5    0    0  0.22254768208E+03 -0.36647994195E+03  0.17410020840E+03  0.46275900987E+03  0.00000000000E+00 0. -1.
          2    1    6    6  503    0 -0.18578895065E+03  0.14429943256E+03 -0.14739232157E+03  0.27760467734E+03  0.00000000000E+00 0. -1.
         -2    1    6    6    0  503 -0.18261947466E+02  0.77549277238E+02 -0.50221778527E+02  0.94178639636E+02  0.00000000000E+00 0.  1.
<mgrwt>
<rscale>  0 0.11571104E+04</rscale>
<asrwt>0</asrwt>
<pdfrwt beam="1">  1        2 0.92466931E-01 0.11571104E+04</pdfrwt>
<pdfrwt beam="2">  1       -1 0.85679402E-01 0.11571104E+04</pdfrwt>
<totfact> 0.75347049E+01</totfact>
</mgrwt>
</event>
<event>
12    6  0.1462228E-007  0.2406463E+04  0.7818608E-02  0.8437088E-01
         -1   -1    0    0    0  501 -0.00000000000E+00  0.00000000000E+00  0.52048256263E+03  0.52048256263E+03  0.00000000000E+00 0.  1.
          2   -1    0    0  501    0  0.00000000000E+00 -0.00000000000E+00 -0.27815847602E+04  0.27815847602E+04  0.00000000000E+00 0. -1.
         24    2    1    2    0    0  0.73084270913E+03 -0.44610152384E+03 -0.17948024458E+03  0.87869537794E+03  0.82187431875E+02 0.  0.
        254    2    1    2    0    0 -0.73084270913E+03  0.44610152384E+03 -0.20816219530E+04  0.24233719449E+04  0.89802226758E+03 0.  0.
         23    2    4    4    0    0 -0.69560696300E+03  0.16154709965E+02 -0.17035775606E+04  0.18425757334E+04  0.93695285154E+02 0.  0.
         23    2    4    4    0    0 -0.35235746130E+02  0.42994681387E+03 -0.37804439233E+03  0.58079621150E+03  0.91163897252E+02 0.  0.
          4    1    3    3  502    0  0.97741601962E+02 -0.45302029833E+02  0.19157884601E+01  0.10774676286E+03  0.00000000000E+00 0. -1.
         -3    1    3    3    0  502  0.63310110717E+03 -0.40079949401E+03 -0.18139603304E+03  0.77094861508E+03  0.00000000000E+00 0.  1.
         11    1    5    5    0    0 -0.22203099535E+03  0.48894170957E+02 -0.54560129176E+03  0.59107459125E+03  0.00000000000E+00 0.  1.
        -11    1    5    5    0    0 -0.47357596765E+03 -0.32739460993E+02 -0.11579762689E+04  0.12515011421E+04  0.00000000000E+00 0. -1.
          4    1    6    6  503    0 -0.22981740376E+02  0.41905491685E+03 -0.34267957886E+03  0.54181590738E+03  0.00000000000E+00 0. -1.
         -4    1    6    6    0  503 -0.12254005754E+02  0.10891897026E+02 -0.35364813468E+02  0.38980304122E+02  0.00000000000E+00 0.  1.
<mgrwt>
<rscale>  0 0.24064633E+04</rscale>
<asrwt>0</asrwt>
<pdfrwt beam="1">  1        2 0.42793613E+00 0.24064633E+04</pdfrwt>
<pdfrwt beam="2">  1       -1 0.80074238E-01 0.24064633E+04</pdfrwt>
<totfact> 0.37762900E+00</totfact>
</mgrwt>
</event>
<event>
12    6  0.1462228E-007  0.1957821E+04  0.7818608E-02  0.8626599E-01
         -1   -1    0    0    0  501 -0.00000000000E+00  0.00000000000E+00  0.50019387368E+03  0.50019387368E+03  0.00000000000E+00 0.  1.
          2   -1    0    0  501    0  0.00000000000E+00 -0.00000000000E+00 -0.19157880839E+04  0.19157880839E+04  0.00000000000E+00 0. -1.
         24    2    1    2    0    0 -0.23713458393E+03  0.43853725560E+03 -0.12673178893E+04  0.13640745619E+04  0.77827003838E+02 0.  0.
        254    2    1    2    0    0  0.23713458393E+03 -0.43853725560E+03 -0.14827632096E+03  0.10519073957E+04  0.91431699443E+03 0.  0.
         23    2    4    4    0    0 -0.29683606707E+02 -0.64643654288E+03 -0.22875999014E+03  0.69247880219E+03  0.91839196014E+02 0.  0.
         23    2    4    4    0    0  0.26681819064E+03  0.20789928728E+03  0.80483669175E+02  0.35942859350E+03  0.91089144861E+02 0.  0.
          4    1    3    3  502    0 -0.22360742300E+03  0.41025364269E+03 -0.12273512074E+04  0.13132780807E+04  0.00000000000E+00 0. -1.
         -1    1    3    3    0  502 -0.13527160928E+02  0.28283612909E+02 -0.39966681853E+02  0.50796481180E+02  0.00000000000E+00 0.  1.
         11    1    5    5    0    0 -0.16828742368E+02 -0.50116528441E+03 -0.13572281376E+03  0.51949064577E+03  0.00000000000E+00 0. -1.
        -11    1    5    5    0    0 -0.12854864339E+02 -0.14527125846E+03 -0.93037176381E+02  0.17298815642E+03  0.00000000000E+00 0.  1.
          2    1    6    6  503    0  0.13972922656E+03  0.12220870649E+03 -0.14241475788E+01  0.18563742320E+03  0.00000000000E+00 0. -1.
         -2    1    6    6    0  503  0.12708896408E+03  0.85690580793E+02  0.81907816754E+02  0.17379117029E+03  0.00000000000E+00 0.  1.
<mgrwt>
<rscale>  0 0.19578207E+04</rscale>
<asrwt>0</asrwt>
<pdfrwt beam="1">  1        2 0.29473662E+00 0.19578207E+04</pdfrwt>
<pdfrwt beam="2">  1       -1 0.76952905E-01 0.19578207E+04</pdfrwt>
<totfact> 0.13379813E+01</totfact>
</mgrwt>
</event>
<event>
12    6  0.1462228E-007  0.1929686E+04  0.7818608E-02  0.8640219E-01
          2   -1    0    0  501    0  0.00000000000E+00  0.00000000000E+00  0.10764827211E+04  0.10764827211E+04  0.00000000000E+00 0. -1.
         -1   -1    0    0    0  501 -0.00000000000E+00 -0.00000000000E+00 -0.86478138478E+03  0.86478138478E+03  0.00000000000E+00 0.  1.
         24    2    1    2    0    0 -0.12106212373E+03 -0.14249408039E+03  0.84901900180E+03  0.87275270848E+03  0.76833742578E+02 0.  0.
        254    2    1    2    0    0  0.12106212373E+03  0.14249408039E+03 -0.63731766552E+03  0.10685113973E+04  0.83700788451E+03 0.  0.
         23    2    4    4    0    0 -0.26973498257E+03 -0.11455894484E+03 -0.47389669203E+03  0.56471697171E+03  0.91904682982E+02 0.  0.
         23    2    4    4    0    0  0.39079710630E+03  0.25705302523E+03 -0.16342097349E+03  0.50379442564E+03  0.91125038572E+02 0.  0.
          2    1    3    3  502    0 -0.12815140813E+03 -0.12393524399E+03  0.69688726488E+03  0.71932926262E+03  0.00000000000E+00 0. -1.
         -1    1    3    3    0  502  0.70892844078E+01 -0.18558836398E+02  0.15213173692E+03  0.15342344587E+03  0.00000000000E+00 0.  1.
         11    1    5    5    0    0 -0.27320268687E+03 -0.10261394394E+03 -0.43456512812E+03  0.52346554823E+03  0.00000000000E+00 0. -1.
        -11    1    5    5    0    0  0.34677042990E+01 -0.11945000903E+02 -0.39331563907E+02  0.41251423479E+02  0.00000000000E+00 0.  1.
          3    1    6    6  503    0  0.37059917380E+03  0.22430785439E+03 -0.12854064786E+03  0.45186331928E+03  0.00000000000E+00 0. -1.
         -3    1    6    6    0  503  0.20197932497E+02  0.32745170843E+02 -0.34880325636E+02  0.51931106354E+02  0.00000000000E+00 0.  1.
<mgrwt>
<rscale>  0 0.19296862E+04</rscale>
<asrwt>0</asrwt>
<pdfrwt beam="1">  1        2 0.16561273E+00 0.19296862E+04</pdfrwt>
<pdfrwt beam="2">  1       -1 0.13304329E+00 0.19296862E+04</pdfrwt>
<totfact> 0.11482379E+01</totfact>
</mgrwt>
</event>
<event>
12    6  0.1462228E-007  0.2171684E+04  0.7818608E-02  0.8530307E-01
         -1   -1    0    0    0  501 -0.00000000000E+00  0.00000000000E+00  0.80273851904E+03  0.80273851904E+03  0.00000000000E+00 0.  1.
          2   -1    0    0  501    0  0.00000000000E+00 -0.00000000000E+00 -0.14687882789E+04  0.14687882789E+04  0.00000000000E+00 0. -1.
         24    2    1    2    0    0  0.23192585689E+03 -0.48512808359E+03  0.47569465653E+03  0.72286910824E+03  0.84353309479E+02 0.  0.
        254    2    1    2    0    0 -0.23192585689E+03  0.48512808359E+03 -0.11417444164E+04  0.15486576897E+04  0.89756418539E+03 0.  0.
         23    2    4    4    0    0  0.10739619619E+03 -0.13412925191E+03  0.10742776704E+02  0.19395840495E+03  0.89330042115E+02 0.  0.
         23    2    4    4    0    0 -0.33932205307E+03  0.61925733550E+03 -0.11524871931E+04  0.13546992847E+04  0.91456648543E+02 0.  0.
          2    1    3    3  502    0  0.30170961204E+02 -0.72996425432E+02  0.11351430617E+03  0.13829050123E+03  0.00000000000E+00 0. -1.
         -1    1    3    3    0  502  0.20175489568E+03 -0.41213165816E+03  0.36218035036E+03  0.58457860701E+03  0.00000000000E+00 0.  1.
         11    1    5    5    0    0  0.80752973084E+02 -0.90326354912E+02 -0.34075508644E+02  0.12586116694E+03  0.00000000000E+00 0. -1.
        -11    1    5    5    0    0  0.26643223103E+02 -0.43802897000E+02  0.44818285348E+02  0.68097238009E+02  0.00000000000E+00 0.  1.
          1    1    6    6  503    0 -0.19546338330E+03  0.31193367532E+03 -0.52270641600E+03  0.63932038082E+03  0.00000000000E+00 0. -1.
         -1    1    6    6    0  503 -0.14385866978E+03  0.30732366019E+03 -0.62978077708E+03  0.71537890391E+03  0.00000000000E+00 0.  1.
<mgrwt>
<rscale>  0 0.21716841E+04</rscale>
<asrwt>0</asrwt>
<pdfrwt beam="1">  1        2 0.22596743E+00 0.21716841E+04</pdfrwt>
<pdfrwt beam="2">  1       -1 0.12349823E+00 0.21716841E+04</pdfrwt>
<totfact> 0.79590344E+00</totfact>
</mgrwt>
</event>
<event>
12    6  0.1462228E-007  0.4505067E+04  0.7818608E-02  0.7909750E-01
         -3   -1    0    0    0  501 -0.00000000000E+00  0.00000000000E+00  0.21037976805E+04  0.21037976805E+04  0.00000000000E+00 0.  1.
          2   -1    0    0  501    0  0.00000000000E+00 -0.00000000000E+00 -0.24117845008E+04  0.24117845008E+04  0.00000000000E+00 0. -1.
         24    2    1    2    0    0 -0.19882886742E+04  0.22338763067E+03 -0.10045521674E+04  0.22402095666E+04  0.78866722469E+02 0.  0.
        254    2    1    2    0    0  0.19882886742E+04 -0.22338763067E+03  0.69656534715E+03  0.22753726147E+04  0.83001407677E+03 0.  0.
         23    2    4    4    0    0  0.12522778619E+04 -0.85538186341E+02  0.83266971288E+03  0.15091436288E+04  0.93053838710E+02 0.  0.
         23    2    4    4    0    0  0.73601081225E+03 -0.13784944432E+03 -0.13610436573E+03  0.76622898591E+03  0.88702172597E+02 0.  0.
          2    1    3    3  502    0 -0.12162829026E+04  0.12235054257E+03 -0.65350759279E+03  0.13861406596E+04  0.00000000000E+00 0. -1.
         -1    1    3    3    0  502 -0.77200577161E+03  0.10103708810E+03 -0.35104457460E+03  0.85406890701E+03  0.00000000000E+00 0.  1.
         11    1    5    5    0    0  0.10274327039E+04 -0.10547947238E+03  0.67677577134E+03  0.12348155024E+04  0.00000000000E+00 0.  1.
        -11    1    5    5    0    0  0.22484515798E+03  0.19941286038E+02  0.15589394154E+03  0.27432812646E+03  0.00000000000E+00 0. -1.
          3    1    6    6  503    0  0.10009309300E+03 -0.45200941775E+02 -0.24903079549E+01  0.10985423997E+03  0.00000000000E+00 0. -1.
         -3    1    6    6    0  503  0.63591771925E+03 -0.92648502549E+02 -0.13361405777E+03  0.65637474594E+03  0.00000000000E+00 0.  1.
<mgrwt>
<rscale>  0 0.45050668E+04</rscale>
<asrwt>0</asrwt>
<pdfrwt beam="1">  1        2 0.37104377E+00 0.45050668E+04</pdfrwt>
<pdfrwt beam="2">  1       -3 0.32366118E+00 0.45050668E+04</pdfrwt>
<totfact> 0.52251494E-02</totfact>
</mgrwt>
</event>
<event>
12    6  0.1462228E-007  0.1754015E+04  0.7818608E-02  0.8731144E-01
          2   -1    0    0  501    0  0.00000000000E+00  0.00000000000E+00  0.97934704760E+03  0.97934704760E+03  0.00000000000E+00 0. -1.
         -1   -1    0    0    0  501 -0.00000000000E+00 -0.00000000000E+00 -0.78536191218E+03  0.78536191218E+03  0.00000000000E+00 0.  1.
         24    2    1    2    0    0  0.29424791008E+03 -0.47122525525E+03 -0.25560773634E+03  0.61699782026E+03  0.81950726409E+02 0.  0.
        254    2    1    2    0    0 -0.29424791008E+03  0.47122525525E+03  0.44959287176E+03  0.11477111395E+04  0.89803788097E+03 0.  0.
         23    2    4    4    0    0  0.13188675613E+03 -0.65168182832E+02  0.42190834119E+03  0.45560836824E+03  0.89058005562E+02 0.  0.
         23    2    4    4    0    0 -0.42613466621E+03  0.53639343808E+03  0.27684530570E+02  0.69210277127E+03  0.94504701524E+02 0.  0.
          4    1    3    3  502    0  0.42252627406E+02 -0.11059525440E+03 -0.27995872917E+02  0.12165674547E+03  0.00000000000E+00 0. -1.
         -3    1    3    3    0  502  0.25199528268E+03 -0.36063000085E+03 -0.22761186342E+03  0.49534107479E+03  0.00000000000E+00 0.  1.
         11    1    5    5    0    0  0.10854591416E+03 -0.84775759986E+02  0.37664686277E+03  0.40103865674E+03  0.00000000000E+00 0. -1.
        -11    1    5    5    0    0  0.23340841964E+02  0.19607577154E+02  0.45261478417E+02  0.54569711507E+02  0.00000000000E+00 0.  1.
          3    1    6    6  503    0 -0.18974285358E+03  0.29565387600E+03 -0.17255342782E+02  0.35172618858E+03  0.00000000000E+00 0. -1.
         -3    1    6    6    0  503 -0.23639181263E+03  0.24073956208E+03  0.44939873352E+02  0.34037658270E+03  0.00000000000E+00 0.  1.
<mgrwt>
<rscale>  0 0.17540147E+04</rscale>
<asrwt>0</asrwt>
<pdfrwt beam="1">  1        2 0.15066878E+00 0.17540147E+04</pdfrwt>
<pdfrwt beam="2">  1       -1 0.12082491E+00 0.17540147E+04</pdfrwt>
<totfact> 0.17096892E+01</totfact>
</mgrwt>
</event>
<event>
12    6  0.1462228E-007  0.2069133E+04  0.7818608E-02  0.8574964E-01
         -1   -1    0    0    0  501 -0.00000000000E+00  0.00000000000E+00  0.98197114704E+03  0.98197114704E+03  0.00000000000E+00 0.  1.
          2   -1    0    0  501    0  0.00000000000E+00 -0.00000000000E+00 -0.10899792469E+04  0.10899792469E+04  0.00000000000E+00 0. -1.
         24    2    1    2    0    0  0.29243032641E+03  0.10985985375E+02  0.73807103427E+03  0.79793095391E+03  0.79427752764E+02 0.  0.
        254    2    1    2    0    0 -0.29243032641E+03 -0.10985985375E+02 -0.84607913418E+03  0.12740194401E+04  0.90644329371E+03 0.  0.
         23    2    4    4    0    0 -0.25266478933E+03  0.19610854738E+03 -0.96125598209E+03  0.10171795725E+04  0.91340907746E+02 0.  0.
         23    2    4    4    0    0 -0.39765537084E+02 -0.20709453275E+03  0.11517684791E+03  0.25683986761E+03  0.90727988310E+02 0.  0.
          2    1    3    3  502    0  0.72399293226E+02 -0.30592280387E+02  0.16876433284E+03  0.18616913095E+03  0.00000000000E+00 0. -1.
         -1    1    3    3    0  502  0.22003103318E+03  0.41578265762E+02  0.56930670143E+03  0.61176182297E+03  0.00000000000E+00 0.  1.
         11    1    5    5    0    0 -0.32410493291E+01  0.34851744851E+02 -0.12176544238E+03  0.12669637516E+03  0.00000000000E+00 0. -1.
        -11    1    5    5    0    0 -0.24942374000E+03  0.16125680252E+03 -0.83949053971E+03  0.89048319731E+03  0.00000000000E+00 0.  1.
          3    1    6    6  503    0 -0.48138624522E+02 -0.72204986496E+02  0.13747363708E+02  0.87862832043E+02  0.00000000000E+00 0. -1.
         -3    1    6    6    0  503  0.83730874385E+01 -0.13488954625E+03  0.10142948420E+03  0.16897703556E+03  0.00000000000E+00 0.  1.
<mgrwt>
<rscale>  0 0.20691333E+04</rscale>
<asrwt>0</asrwt>
<pdfrwt beam="1">  1        2 0.16768912E+00 0.20691333E+04</pdfrwt>
<pdfrwt beam="2">  1       -1 0.15107248E+00 0.20691333E+04</pdfrwt>
<totfact> 0.79691150E+00</totfact>
</mgrwt>
</event>
<event>
12    6  0.1462228E-007  0.2028625E+04  0.7818608E-02  0.8593353E-01
         -1   -1    0    0    0  501 -0.00000000000E+00  0.00000000000E+00  0.47360707805E+03  0.47360707805E+03  0.00000000000E+00 0.  1.
          2   -1    0    0  501    0  0.00000000000E+00 -0.00000000000E+00 -0.21723270388E+04  0.21723270388E+04  0.00000000000E+00 0. -1.
         24    2    1    2    0    0  0.56246070490E+03 -0.56198331081E+03 -0.82337219889E+03  0.11471725649E+04  0.76653959667E+02 0.  0.
        254    2    1    2    0    0 -0.56246070490E+03  0.56198331081E+03 -0.87534776184E+03  0.14987615519E+04  0.92079595962E+03 0.  0.
         23    2    4    4    0    0  0.29294067389E+01  0.52999535649E+03 -0.73190459706E+03  0.90748892610E+03  0.83355578575E+02 0.  0.
         23    2    4    4    0    0 -0.56539011164E+03  0.31987954321E+02 -0.14344316478E+03  0.59127262585E+03  0.91313575065E+02 0.  0.
          2    1    3    3  502    0  0.22733210444E+03 -0.23675305626E+03 -0.28716588047E+03  0.43611482234E+03  0.00000000000E+00 0. -1.
         -1    1    3    3    0  502  0.33512860046E+03 -0.32523025455E+03 -0.53620631841E+03  0.71105774254E+03  0.00000000000E+00 0.  1.
         11    1    5    5    0    0  0.21107056202E+02  0.38485760717E+03 -0.47335138336E+03  0.61042806108E+03  0.00000000000E+00 0.  1.
        -11    1    5    5    0    0 -0.18177649463E+02  0.14513774931E+03 -0.25855321369E+03  0.29706086502E+03  0.00000000000E+00 0. -1.
          1    1    6    6  503    0 -0.55341964460E+03  0.36426611134E+02 -0.12448425117E+03  0.56841580715E+03  0.00000000000E+00 0. -1.
         -1    1    6    6    0  503 -0.11970467037E+02 -0.44386568124E+01 -0.18958913616E+02  0.22856818695E+02  0.00000000000E+00 0.  1.
<mgrwt>
<rscale>  0 0.20286246E+04</rscale>
<asrwt>0</asrwt>
<pdfrwt beam="1">  1        2 0.33420416E+00 0.20286246E+04</pdfrwt>
<pdfrwt beam="2">  1       -1 0.72862627E-01 0.20286246E+04</pdfrwt>
<totfact> 0.10725542E+01</totfact>
</mgrwt>
</event>
<event>
12    6  0.1462228E-007  0.2091941E+04  0.7818608E-02  0.8564802E-01
          2   -1    0    0  501    0  0.00000000000E+00  0.00000000000E+00  0.17088671460E+04  0.17088671460E+04  0.00000000000E+00 0. -1.
         -1   -1    0    0    0  501 -0.00000000000E+00 -0.00000000000E+00 -0.64022210255E+03  0.64022210255E+03  0.00000000000E+00 0.  1.
         24    2    1    2    0    0  0.25163577592E+03 -0.46620812767E+03 -0.31469447118E+03  0.62118767357E+03  0.78555289886E+02 0.  0.
        254    2    1    2    0    0 -0.25163577592E+03  0.46620812767E+03  0.13833395146E+04  0.17279015750E+04  0.88957577421E+03 0.  0.
         23    2    4    4    0    0 -0.23609421486E+03  0.71758984220E+03  0.92799919907E+03  0.11996099623E+04  0.84887503079E+02 0.  0.
         23    2    4    4    0    0 -0.15541561060E+02 -0.25138171453E+03  0.45534031555E+03  0.52829161271E+03  0.91230031096E+02 0.  0.
          2    1    3    3  502    0  0.16945614942E+03 -0.24160185632E+03 -0.19527308274E+03  0.35386214886E+03  0.00000000000E+00 0. -1.
         -1    1    3    3    0  502  0.82179626497E+02 -0.22460627135E+03 -0.11942138844E+03  0.26732552471E+03  0.00000000000E+00 0.  1.
         11    1    5    5    0    0  0.57135898151E+01  0.21881350640E+02  0.39593394028E+02  0.45596879993E+02  0.00000000000E+00 0.  1.
        -11    1    5    5    0    0 -0.24180780467E+03  0.69570849156E+03  0.88840580504E+03  0.11540130823E+04  0.00000000000E+00 0. -1.
          4    1    6    6  503    0  0.33643592779E+02 -0.51335623037E+02  0.11846915685E+03  0.13342480524E+03  0.00000000000E+00 0. -1.
         -4    1    6    6    0  503 -0.49185153839E+02 -0.20004609149E+03  0.33687115870E+03  0.39486680747E+03  0.00000000000E+00 0.  1.
<mgrwt>
<rscale>  0 0.20919412E+04</rscale>
<asrwt>0</asrwt>
<pdfrwt beam="1">  1        2 0.26290264E+00 0.20919412E+04</pdfrwt>
<pdfrwt beam="2">  1       -1 0.98495709E-01 0.20919412E+04</pdfrwt>
<totfact> 0.10046924E+01</totfact>
</mgrwt>
</event>
<event>
12    6  0.1462228E-007  0.1177556E+04  0.7818608E-02  0.9132732E-01
          2   -1    0    0  501    0  0.00000000000E+00  0.00000000000E+00  0.62806019438E+03  0.62806019438E+03  0.00000000000E+00 0. -1.
         -1   -1    0    0    0  501 -0.00000000000E+00 -0.00000000000E+00 -0.55195240428E+03  0.55195240428E+03  0.00000000000E+00 0.  1.
         24    2    1    2    0    0 -0.41970153288E+01 -0.74140165132E+02  0.22423133041E+03  0.25949202468E+03  0.10743389740E+03 0.  0.
        254    2    1    2    0    0  0.41970153288E+01  0.74140165132E+02 -0.14812354031E+03  0.92052057398E+03  0.90548504400E+03 0.  0.
         23    2    4    4    0    0 -0.64203970126E+02 -0.81783793154E+02  0.35517957466E+03  0.38095597241E+03  0.90355874470E+02 0.  0.
         23    2    4    4    0    0  0.68400985454E+02  0.15592395829E+03 -0.50330311498E+03  0.53956460157E+03  0.93941248370E+02 0.  0.
          4    1    3    3  502    0  0.21523352359E+02 -0.94165376493E+02  0.18303451997E+03  0.20695895324E+03  0.00000000000E+00 0. -1.
         -3    1    3    3    0  502 -0.25720367688E+02  0.20025211361E+02  0.41196810438E+02  0.52533071434E+02  0.00000000000E+00 0.  1.
         11    1    5    5    0    0  0.82134346396E+01 -0.35243855512E+02  0.20226052107E+03  0.20547240263E+03  0.00000000000E+00 0. -1.
        -11    1    5    5    0    0 -0.72417404765E+02 -0.46539937641E+02  0.15291905359E+03  0.17548356977E+03  0.00000000000E+00 0.  1.
          4    1    6    6  503    0  0.14982599133E+02  0.99376665937E+02 -0.38558083857E+03  0.39846302599E+03  0.00000000000E+00 0. -1.
         -4    1    6    6    0  503  0.53418386321E+02  0.56547292349E+02 -0.11772227641E+03  0.14110157558E+03  0.00000000000E+00 0.  1.
<mgrwt>
<rscale>  0 0.11775557E+04</rscale>
<asrwt>0</asrwt>
<pdfrwt beam="1">  1        2 0.96624645E-01 0.11775557E+04</pdfrwt>
<pdfrwt beam="2">  1       -1 0.84915755E-01 0.11775557E+04</pdfrwt>
<totfact> 0.72708287E+01</totfact>
</mgrwt>
</event>
<event>
12    6  0.1462228E-007  0.2270614E+04  0.7818608E-02  0.8489598E-01
          2   -1    0    0  501    0  0.00000000000E+00  0.00000000000E+00  0.18085587004E+04  0.18085587004E+04  0.00000000000E+00 0. -1.
         -1   -1    0    0    0  501 -0.00000000000E+00 -0.00000000000E+00 -0.71267937995E+03  0.71267937995E+03  0.00000000000E+00 0.  1.
         24    2    1    2    0    0  0.31585092055E+03 -0.19362651548E+03  0.14594993906E+04  0.15077113919E+04  0.76171768954E+02 0.  0.
        254    2    1    2    0    0 -0.31585092055E+03  0.19362651548E+03 -0.36362007019E+03  0.10135266885E+04  0.87049627301E+03 0.  0.
         23    2    4    4    0    0 -0.43114258882E+03  0.30379456389E+03 -0.53872161328E+03  0.75937900913E+03  0.90886929445E+02 0.  0.
         23    2    4    4    0    0  0.11529166827E+03 -0.11016804840E+03  0.17510154309E+03  0.25414767936E+03  0.92202629400E+02 0.  0.
          2    1    3    3  502    0  0.28561554057E+03 -0.14673542598E+03  0.11948402844E+04  0.12372351545E+04  0.00000000000E+00 0. -1.
         -1    1    3    3    0  502  0.30235379972E+02 -0.46891089505E+02  0.26465910621E+03  0.27047623736E+03  0.00000000000E+00 0.  1.
         11    1    5    5    0    0 -0.26336505916E+02  0.19328135413E+02 -0.72683712557E+02  0.79687580171E+02  0.00000000000E+00 0.  1.
        -11    1    5    5    0    0 -0.40480608290E+03  0.28446642847E+03 -0.46603790073E+03  0.67969142896E+03  0.00000000000E+00 0. -1.
          3    1    6    6  503    0  0.97028783139E+02 -0.11932275422E+03  0.11904452270E+03  0.19448419683E+03  0.00000000000E+00 0. -1.
         -3    1    6    6    0  503  0.18262885133E+02  0.91547058150E+01  0.56057020400E+02  0.59663482533E+02  0.00000000000E+00 0.  1.
<mgrwt>
<rscale>  0 0.22706144E+04</rscale>
<asrwt>0</asrwt>
<pdfrwt beam="1">  1        2 0.27823980E+00 0.22706144E+04</pdfrwt>
<pdfrwt beam="2">  1       -1 0.10964298E+00 0.22706144E+04</pdfrwt>
<totfact> 0.67910374E+00</totfact>
</mgrwt>
</event>
<event>
12    6  0.1924348E-007  0.3185308E+04  0.7818608E-02  0.8192708E-01
         -1   -1    0    0    0  501 -0.00000000000E+00  0.00000000000E+00  0.13011483103E+04  0.13011483103E+04  0.00000000000E+00 0.  1.
          2   -1    0    0  501    0  0.00000000000E+00 -0.00000000000E+00 -0.19494682973E+04  0.19494682973E+04  0.00000000000E+00 0. -1.
         24    2    1    2    0    0  0.54623454341E+03 -0.90739658264E+03  0.72723904589E+03  0.12887504451E+04  0.10129336216E+03 0.  0.
        254    2    1    2    0    0 -0.54623454341E+03  0.90739658264E+03 -0.13755590328E+04  0.19618661626E+04  0.91379179927E+03 0.  0.
         23    2    4    4    0    0 -0.64260114255E+03  0.94753251777E+03 -0.87850075381E+03  0.14459781003E+04  0.91296173703E+02 0.  0.
         23    2    4    4    0    0  0.96366599141E+02 -0.40135935127E+02 -0.49705827901E+03  0.51588806230E+03  0.90422040325E+02 0.  0.
          4    1    3    3  502    0 -0.44506036786E+01 -0.57350397479E+01  0.31710119734E+01  0.79217340872E+01  0.00000000000E+00 0. -1.
         -3    1    3    3    0  502  0.55068514708E+03 -0.90166154290E+03  0.72406803391E+03  0.12808287110E+04  0.00000000000E+00 0.  1.
         11    1    5    5    0    0 -0.25587401367E+03  0.32291287570E+03 -0.27649773723E+03  0.49618064740E+03  0.00000000000E+00 0. -1.
        -11    1    5    5    0    0 -0.38672712888E+03  0.62461964207E+03 -0.60200301658E+03  0.94979745285E+03  0.00000000000E+00 0.  1.
          1    1    6    6  503    0  0.38960684278E+02  0.28602300952E+02 -0.18828880717E+03  0.19439316203E+03  0.00000000000E+00 0. -1.
         -1    1    6    6    0  503  0.57405914863E+02 -0.68738236079E+02 -0.30876947183E+03  0.32149490027E+03  0.00000000000E+00 0.  1.
<mgrwt>
<rscale>  0 0.31853084E+04</rscale>
<asrwt>0</asrwt>
<pdfrwt beam="1">  1        2 0.29991820E+00 0.31853084E+04</pdfrwt>
<pdfrwt beam="2">  1       -1 0.20017667E+00 0.31853084E+04</pdfrwt>
<totfact> 0.10260030E+00</totfact>
</mgrwt>
</event>
<event>
12    6  0.1462228E-007  0.1737924E+04  0.7818608E-02  0.8740026E-01
          2   -1    0    0  501    0  0.00000000000E+00  0.00000000000E+00  0.15983029434E+04  0.15983029434E+04  0.00000000000E+00 0. -1.
         -1   -1    0    0    0  501 -0.00000000000E+00 -0.00000000000E+00 -0.47243549096E+03  0.47243549096E+03  0.00000000000E+00 0.  1.
         24    2    1    2    0    0  0.46551684264E+03 -0.10973054912E+00  0.92910937102E+03  0.10421515558E+04  0.78292394707E+02 0.  0.
        254    2    1    2    0    0 -0.46551684264E+03  0.10973054912E+00  0.19675808146E+03  0.10285868786E+04  0.89586342789E+03 0.  0.
         23    2    4    4    0    0 -0.49234847970E+03 -0.26496365504E+03 -0.14424013349E+03  0.58665491203E+03  0.10366294296E+03 0.  0.
         23    2    4    4    0    0  0.26831637064E+02  0.26507338559E+03  0.34099821495E+03  0.44193196659E+03  0.89667407637E+02 0.  0.
          4    1    3    3  502    0  0.42146501190E+03 -0.23573430548E+02  0.82789270271E+03  0.92929800930E+03  0.00000000000E+00 0. -1.
         -3    1    3    3    0  502  0.44051830735E+02  0.23463699999E+02  0.10121666831E+03  0.11285354647E+03  0.00000000000E+00 0.  1.
         11    1    5    5    0    0 -0.37500795194E+03 -0.24910568501E+03 -0.11680838240E+03  0.46511160437E+03  0.00000000000E+00 0. -1.
        -11    1    5    5    0    0 -0.11734052776E+03 -0.15857970033E+02 -0.27431751092E+02  0.12154330766E+03  0.00000000000E+00 0.  1.
          4    1    6    6  503    0  0.42001773259E+01 -0.51583347115E+01  0.23327396502E+02  0.24257315064E+02  0.00000000000E+00 0.  1.
         -4    1    6    6    0  503  0.22631459738E+02  0.27023172030E+03  0.31767081845E+03  0.41767465152E+03  0.00000000000E+00 0. -1.
<mgrwt>
<rscale>  0 0.17379241E+04</rscale>
<asrwt>0</asrwt>
<pdfrwt beam="1">  1        2 0.24589276E+00 0.17379241E+04</pdfrwt>
<pdfrwt beam="2">  1       -1 0.72682384E-01 0.17379241E+04</pdfrwt>
<totfact> 0.23059401E+01</totfact>
</mgrwt>
</event>
<event>
12    6  0.1462228E-007  0.2890132E+04  0.7818608E-02  0.8275820E-01
          2   -1    0    0  501    0  0.00000000000E+00  0.00000000000E+00  0.15939733207E+04  0.15939733207E+04  0.00000000000E+00 0. -1.
         -1   -1    0    0    0  501 -0.00000000000E+00 -0.00000000000E+00 -0.13100694565E+04  0.13100694565E+04  0.00000000000E+00 0.  1.
         24    2    1    2    0    0 -0.81490066187E+03  0.60944991875E+03  0.94882570300E+03  0.13935509321E+04  0.78877712936E+02 0.  0.
        254    2    1    2    0    0  0.81490066187E+03 -0.60944991875E+03 -0.66492183877E+03  0.15104918450E+04  0.89664500783E+03 0.  0.
         23    2    4    4    0    0  0.24732563530E+03 -0.98613810265E+02  0.20564204925E+03  0.34902262002E+03  0.92916540048E+02 0.  0.
         23    2    4    4    0    0  0.56757502657E+03 -0.51083610848E+03 -0.87056388803E+03  0.11614692250E+04  0.89634463208E+02 0.  0.
          4    1    3    3  502    0 -0.71110661242E+03  0.53484968154E+03  0.86321337839E+03  0.12397072770E+04  0.00000000000E+00 0. -1.
         -3    1    3    3    0  502 -0.10379404945E+03  0.74600237210E+02  0.85612324612E+02  0.15384365511E+03  0.00000000000E+00 0.  1.
         11    1    5    5    0    0  0.15466995279E+03 -0.84188093180E+02  0.17998597989E+03  0.25180425391E+03  0.00000000000E+00 0.  1.
        -11    1    5    5    0    0  0.92655682504E+02 -0.14425717085E+02  0.25656069361E+02  0.97218366108E+02  0.00000000000E+00 0. -1.
          3    1    6    6  503    0  0.66662141802E+02 -0.79306009894E+02 -0.16248164548E+03  0.19270072515E+03  0.00000000000E+00 0. -1.
         -3    1    6    6    0  503  0.50091288477E+03 -0.43153009859E+03 -0.70808224255E+03  0.96876849987E+03  0.00000000000E+00 0.  1.
<mgrwt>
<rscale>  0 0.28901320E+04</rscale>
<asrwt>0</asrwt>
<pdfrwt beam="1">  1        2 0.24522666E+00 0.28901320E+04</pdfrwt>
<pdfrwt beam="2">  1       -1 0.20154915E+00 0.28901320E+04</pdfrwt>
<totfact> 0.16230615E+00</totfact>
</mgrwt>
</event>
<event>
12    6  0.1462228E-007  0.1357272E+04  0.7818608E-02  0.8985342E-01
          2   -1    0    0  501    0  0.00000000000E+00  0.00000000000E+00  0.12134619397E+04  0.12134619397E+04  0.00000000000E+00 0. -1.
         -1   -1    0    0    0  501 -0.00000000000E+00 -0.00000000000E+00 -0.37953118471E+03  0.37953118471E+03  0.00000000000E+00 0.  1.
         24    2    1    2    0    0  0.33361986772E+03 -0.10234719010E+03  0.76498925148E+02  0.36582917099E+03  0.78751084650E+02 0.  0.
        254    2    1    2    0    0 -0.33361986772E+03  0.10234719010E+03  0.75743182988E+03  0.12271639535E+04  0.90025064749E+03 0.  0.
         23    2    4    4    0    0  0.26701294046E+03 -0.13439960062E+03  0.21346684178E+03  0.37853848120E+03  0.91455596833E+02 0.  0.
         23    2    4    4    0    0 -0.60063280818E+03  0.23674679072E+03  0.54396498809E+03  0.84862547226E+03  0.86362438118E+02 0.  0.
          4    1    3    3  502    0  0.43037312922E+02  0.19150475019E+00 -0.12988108093E+02  0.44954843226E+02  0.00000000000E+00 0. -1.
         -3    1    3    3    0  502  0.29058255480E+03 -0.10253869485E+03  0.89487033241E+02  0.32087432776E+03  0.00000000000E+00 0.  1.
         11    1    5    5    0    0  0.16852107284E+03 -0.74284455309E+02  0.76443361355E+02  0.19940190518E+03  0.00000000000E+00 0.  1.
        -11    1    5    5    0    0  0.98491867615E+02 -0.60115145313E+02  0.13702348043E+03  0.17913657603E+03  0.00000000000E+00 0. -1.
          3    1    6    6  503    0 -0.38266588549E+03  0.15655738484E+03  0.29339919428E+03  0.50697779228E+03  0.00000000000E+00 0. -1.
         -3    1    6    6    0  503 -0.21796692269E+03  0.80189405878E+02  0.25056579382E+03  0.34164767998E+03  0.00000000000E+00 0.  1.
<mgrwt>
<rscale>  0 0.13572717E+04</rscale>
<asrwt>0</asrwt>
<pdfrwt beam="1">  1        2 0.18668645E+00 0.13572717E+04</pdfrwt>
<pdfrwt beam="2">  1       -1 0.58389414E-01 0.13572717E+04</pdfrwt>
<totfact> 0.61507831E+01</totfact>
</mgrwt>
</event>
<event>
12    6  0.1462228E-007  0.1840644E+04  0.7818608E-02  0.8684979E-01
         -1   -1    0    0    0  501 -0.00000000000E+00  0.00000000000E+00  0.50392339816E+03  0.50392339816E+03  0.00000000000E+00 0.  1.
          2   -1    0    0  501    0  0.00000000000E+00 -0.00000000000E+00 -0.16807961550E+04  0.16807961550E+04  0.00000000000E+00 0. -1.
         24    2    1    2    0    0 -0.43953962671E+02 -0.15049469298E+03  0.35785387486E+03  0.39891235648E+03  0.80567170432E+02 0.  0.
        254    2    1    2    0    0  0.43953962671E+02  0.15049469298E+03 -0.15347266317E+04  0.17858071967E+04  0.89952259907E+03 0.  0.
         23    2    4    4    0    0 -0.29236950394E+03 -0.18312596723E+03 -0.32160272420E+03  0.48028319165E+03  0.90711549774E+02 0.  0.
         23    2    4    4    0    0  0.33632346661E+03  0.33362066021E+03 -0.12131239075E+04  0.13055240050E+04  0.91143258948E+02 0.  0.
          2    1    3    3  502    0 -0.15355800561E+02 -0.13138895109E+01  0.87165376603E+02  0.88517398261E+02  0.00000000000E+00 0. -1.
         -1    1    3    3    0  502 -0.28598162110E+02 -0.14918080347E+03  0.27068849825E+03  0.31039495822E+03  0.00000000000E+00 0.  1.
         11    1    5    5    0    0 -0.92145488807E+02 -0.47719903868E+02 -0.15571184722E+03  0.18712070889E+03  0.00000000000E+00 0.  1.
        -11    1    5    5    0    0 -0.20022401513E+03 -0.13540606336E+03 -0.16589087698E+03  0.29316248276E+03  0.00000000000E+00 0. -1.
          4    1    6    6  503    0  0.19132913792E+03  0.24863853629E+03 -0.75798703154E+03  0.82034888963E+03  0.00000000000E+00 0.  1.
         -4    1    6    6    0  503  0.14499432870E+03  0.84982123919E+02 -0.45513687595E+03  0.48517511539E+03  0.00000000000E+00 0. -1.
<mgrwt>
<rscale>  0 0.18406439E+04</rscale>
<asrwt>0</asrwt>
<pdfrwt beam="1">  1        2 0.25858403E+00 0.18406439E+04</pdfrwt>
<pdfrwt beam="2">  1       -1 0.77526675E-01 0.18406439E+04</pdfrwt>
<totfact> 0.17964751E+01</totfact>
</mgrwt>
</event>
<event>
12    6  0.1462228E-007  0.1734734E+04  0.7818608E-02  0.8741798E-01
          2   -1    0    0  501    0  0.00000000000E+00  0.00000000000E+00  0.17909811076E+04  0.17909811076E+04  0.00000000000E+00 0. -1.
         -1   -1    0    0    0  501 -0.00000000000E+00 -0.00000000000E+00 -0.42006342992E+03  0.42006342992E+03  0.00000000000E+00 0.  1.
         24    2    1    2    0    0  0.42107602638E+03  0.43372602091E+03  0.62804394350E+03  0.87503867726E+03  0.76355815286E+02 0.  0.
        254    2    1    2    0    0 -0.42107602638E+03 -0.43372602091E+03  0.74287373416E+03  0.13360058602E+04  0.93146497114E+03 0.  0.
         23    2    4    4    0    0 -0.53014009783E+03 -0.50111388127E+03  0.86618000840E+03  0.11361828505E+04  0.92087010472E+02 0.  0.
         23    2    4    4    0    0  0.10906407145E+03  0.67387860359E+02 -0.12330627424E+03  0.19982300973E+03  0.91042311844E+02 0.  0.
          2    1    3    3  502    0  0.32984434326E+03  0.35157283089E+03  0.54050611738E+03  0.72425659066E+03  0.00000000000E+00 0. -1.
         -1    1    3    3    0  502  0.91231683124E+02  0.82153190021E+02  0.87537826125E+02  0.15078208660E+03  0.00000000000E+00 0.  1.
         11    1    5    5    0    0 -0.40867773286E+03 -0.33232451861E+03  0.60014792315E+03  0.79852025939E+03  0.00000000000E+00 0.  1.
        -11    1    5    5    0    0 -0.12146236498E+03 -0.16878936266E+03  0.26603208525E+03  0.33766259111E+03  0.00000000000E+00 0. -1.
          2    1    6    6  503    0  0.20257984304E+02  0.65114139854E+02 -0.58728482155E+02  0.89995954093E+02  0.00000000000E+00 0. -1.
         -2    1    6    6    0  503  0.88806087150E+02  0.22737205056E+01 -0.64577792081E+02  0.10982705564E+03  0.00000000000E+00 0.  1.
<mgrwt>
<rscale>  0 0.17347342E+04</rscale>
<asrwt>0</asrwt>
<pdfrwt beam="1">  1        2 0.27553555E+00 0.17347342E+04</pdfrwt>
<pdfrwt beam="2">  1       -1 0.64625144E-01 0.17347342E+04</pdfrwt>
<totfact> 0.22906364E+01</totfact>
</mgrwt>
</event>
<event>
12    6  0.1462228E-007  0.2673480E+04  0.7818608E-02  0.8343661E-01
         -1   -1    0    0    0  501 -0.00000000000E+00  0.00000000000E+00  0.11233269508E+04  0.11233269508E+04  0.00000000000E+00 0.  1.
          2   -1    0    0  501    0  0.00000000000E+00 -0.00000000000E+00 -0.15906984178E+04  0.15906984178E+04  0.00000000000E+00 0. -1.
         24    2    1    2    0    0  0.18652981667E+03  0.86781762679E+02 -0.13794696030E+04  0.13970019689E+04  0.79709903249E+02 0.  0.
        254    2    1    2    0    0 -0.18652981667E+03 -0.86781762679E+02  0.91209813605E+03  0.13170233997E+04  0.92752529820E+03 0.  0.
         23    2    4    4    0    0 -0.40751550578E+03 -0.35003209330E+03  0.33561450420E+03  0.63954475014E+03  0.88255527953E+02 0.  0.
         23    2    4    4    0    0  0.22098568911E+03  0.26325033062E+03  0.57648363185E+03  0.67747864958E+03  0.92241701456E+02 0.  0.
          4    1    3    3  502    0  0.12245195442E+03  0.72103931798E+02 -0.11345114489E+04  0.11433764410E+04  0.00000000000E+00 0. -1.
         -3    1    3    3    0  502  0.64077862249E+02  0.14677830881E+02 -0.24495815412E+03  0.25362552794E+03  0.00000000000E+00 0.  1.
         11    1    5    5    0    0 -0.12035195958E+03 -0.15664503943E+03  0.13715255416E+03  0.24048510487E+03  0.00000000000E+00 0. -1.
        -11    1    5    5    0    0 -0.28716354619E+03 -0.19338705387E+03  0.19846195004E+03  0.39905964527E+03  0.00000000000E+00 0.  1.
          1    1    6    6  503    0  0.25981089138E+02  0.79521103195E+02  0.18564831889E+03  0.20362691658E+03  0.00000000000E+00 0. -1.
         -1    1    6    6    0  503  0.19500459997E+03  0.18372922743E+03  0.39083531296E+03  0.47385173301E+03  0.00000000000E+00 0.  1.
<mgrwt>
<rscale>  0 0.26734804E+04</rscale>
<asrwt>0</asrwt>
<pdfrwt beam="1">  1        2 0.24472283E+00 0.26734804E+04</pdfrwt>
<pdfrwt beam="2">  1       -1 0.17281953E+00 0.26734804E+04</pdfrwt>
<totfact> 0.26511631E+00</totfact>
</mgrwt>
</event>
<event>
12    6  0.1462228E-007  0.1642805E+04  0.7818608E-02  0.8794674E-01
         -1   -1    0    0    0  501 -0.00000000000E+00  0.00000000000E+00  0.78283731656E+03  0.78283731656E+03  0.00000000000E+00 0.  1.
          2   -1    0    0  501    0  0.00000000000E+00 -0.00000000000E+00 -0.86186789932E+03  0.86186789932E+03  0.00000000000E+00 0. -1.
         24    2    1    2    0    0 -0.24536214937E+03 -0.31745906479E+03 -0.43575981907E+03  0.59765106946E+03  0.79481688190E+02 0.  0.
        254    2    1    2    0    0  0.24536214937E+03  0.31745906479E+03  0.35672923631E+03  0.10470541464E+04  0.89893481150E+03 0.  0.
         23    2    4    4    0    0  0.50480471573E+03  0.43806215941E+03  0.31209350164E+03  0.74332599454E+03  0.91678371795E+02 0.  0.
         23    2    4    4    0    0 -0.25944256637E+03 -0.12060309462E+03  0.44635734677E+02  0.30372815188E+03  0.91667277488E+02 0.  0.
          4    1    3    3  502    0 -0.24325358402E+03 -0.29592169186E+03 -0.42864166567E+03  0.57487009959E+03  0.00000000000E+00 0. -1.
         -3    1    3    3    0  502 -0.21085653492E+01 -0.21537372933E+02 -0.71181533930E+01  0.22780969875E+02  0.00000000000E+00 0.  1.
         11    1    5    5    0    0  0.60664350982E+01  0.26770660786E+02  0.61385488459E+01  0.28127418930E+02  0.00000000000E+00 0.  1.
        -11    1    5    5    0    0  0.49873828063E+03  0.41129149862E+03  0.30595495279E+03  0.71519857561E+03  0.00000000000E+00 0. -1.
          1    1    6    6  503    0 -0.18305614590E+03 -0.97184306869E+02  0.71802851893E+02  0.21933989968E+03  0.00000000000E+00 0. -1.
         -1    1    6    6    0  503 -0.76386420469E+02 -0.23418787749E+02 -0.27167117217E+02  0.84388252202E+02  0.00000000000E+00 0.  1.
<mgrwt>
<rscale>  0 0.16428053E+04</rscale>
<asrwt>0</asrwt>
<pdfrwt beam="1">  1        2 0.13259506E+00 0.16428053E+04</pdfrwt>
<pdfrwt beam="2">  1       -1 0.12043651E+00 0.16428053E+04</pdfrwt>
<totfact> 0.20849618E+01</totfact>
</mgrwt>
</event>
<event>
12    6  0.1462228E-007  0.1532791E+04  0.7818608E-02  0.8862936E-01
          2   -1    0    0  501    0  0.00000000000E+00  0.00000000000E+00  0.89722429964E+03  0.89722429964E+03  0.00000000000E+00 0. -1.
         -1   -1    0    0    0  501 -0.00000000000E+00 -0.00000000000E+00 -0.65464308598E+03  0.65464308598E+03  0.00000000000E+00 0.  1.
         24    2    1    2    0    0  0.18144217844E+03 -0.36639087113E+03 -0.21187179081E+03  0.46723452215E+03  0.79087978725E+02 0.  0.
        254    2    1    2    0    0 -0.18144217844E+03  0.36639087113E+03  0.45445300447E+03  0.10846328635E+04  0.89595612654E+03 0.  0.
         23    2    4    4    0    0  0.30518989213E+03 -0.67064331567E+02  0.18404128376E+03  0.37339885282E+03  0.88977605804E+02 0.  0.
         23    2    4    4    0    0 -0.48663207058E+03  0.43345520270E+03  0.27041172071E+03  0.71123401065E+03  0.89650066084E+02 0.  0.
          4    1    3    3  502    0  0.14824698238E+01 -0.21228662357E+02 -0.31991910717E+02  0.38423120300E+02  0.00000000000E+00 0. -1.
         -3    1    3    3    0  502  0.17995970862E+03 -0.34516220877E+03 -0.17987988009E+03  0.42881140185E+03  0.00000000000E+00 0.  1.
         11    1    5    5    0    0  0.28019307760E+03 -0.85632775187E+02  0.17360264262E+03  0.34055691220E+03  0.00000000000E+00 0.  1.
        -11    1    5    5    0    0  0.24996814528E+02  0.18568443621E+02  0.10438641139E+02  0.32841940623E+02  0.00000000000E+00 0. -1.
          2    1    6    6  503    0 -0.68808627247E+02  0.30899365038E+02  0.50434774279E+02  0.90736235319E+02  0.00000000000E+00 0. -1.
         -2    1    6    6    0  503 -0.41782344333E+03  0.40255583766E+03  0.21997694643E+03  0.62049777533E+03  0.00000000000E+00 0.  1.
<mgrwt>
<rscale>  0 0.15327905E+04</rscale>
<asrwt>0</asrwt>
<pdfrwt beam="1">  1        2 0.13803451E+00 0.15327905E+04</pdfrwt>
<pdfrwt beam="2">  1       -1 0.10071432E+00 0.15327905E+04</pdfrwt>
<totfact> 0.30383934E+01</totfact>
</mgrwt>
</event>
<event>
12    6  0.1462228E-007  0.1385500E+04  0.7818608E-02  0.8964382E-01
          2   -1    0    0  501    0  0.00000000000E+00  0.00000000000E+00  0.10547925103E+04  0.10547925103E+04  0.00000000000E+00 0. -1.
         -1   -1    0    0    0  501 -0.00000000000E+00 -0.00000000000E+00 -0.45497342165E+03  0.45497342165E+03  0.00000000000E+00 0.  1.
         24    2    1    2    0    0 -0.33610979080E+03  0.14151352933E+03  0.35674882138E+03  0.51602213822E+03  0.77545181178E+02 0.  0.
        254    2    1    2    0    0  0.33610979080E+03 -0.14151352933E+03  0.24307026722E+03  0.99374379369E+03  0.89187874861E+03 0.  0.
         23    2    4    4    0    0 -0.12718681767E+03  0.85199754336E+02  0.40720029944E+03  0.44479175531E+03  0.92693780792E+02 0.  0.
         23    2    4    4    0    0  0.46329660847E+03 -0.22671328367E+03 -0.16413003221E+03  0.54895203838E+03  0.91471375598E+02 0.  0.
          4    1    3    3  502    0 -0.32712324884E+03  0.14086996126E+03  0.36002955027E+03  0.50643384857E+03  0.00000000000E+00 0. -1.
         -3    1    3    3    0  502 -0.89865419626E+01  0.64356807561E+00 -0.32807288904E+01  0.95882896475E+01  0.00000000000E+00 0.  1.
         11    1    5    5    0    0 -0.41012681808E+02  0.74883659791E+02  0.14136212763E+03  0.16514494755E+03  0.00000000000E+00 0.  1.
        -11    1    5    5    0    0 -0.86174135866E+02  0.10316094545E+02  0.26583817181E+03  0.27964680776E+03  0.00000000000E+00 0. -1.
          3    1    6    6  503    0  0.15404369126E+03 -0.29221451523E+02 -0.43844387885E+02  0.16280565836E+03  0.00000000000E+00 0. -1.
         -3    1    6    6    0  503  0.30925291721E+03 -0.19749183215E+03 -0.12028564433E+03  0.38614638002E+03  0.00000000000E+00 0.  1.
<mgrwt>
<rscale>  0 0.13855000E+04</rscale>
<asrwt>0</asrwt>
<pdfrwt beam="1">  1        2 0.16227577E+00 0.13855000E+04</pdfrwt>
<pdfrwt beam="2">  1       -1 0.69995911E-01 0.13855000E+04</pdfrwt>
<totfact> 0.53319130E+01</totfact>
</mgrwt>
</event>
<event>
12    6  0.1462228E-007  0.1313858E+04  0.7818608E-02  0.9018647E-01
         -1   -1    0    0    0  501 -0.00000000000E+00  0.00000000000E+00  0.31726906271E+03  0.31726906271E+03  0.00000000000E+00 0.  1.
          2   -1    0    0  501    0  0.00000000000E+00 -0.00000000000E+00 -0.13602203602E+04  0.13602203602E+04  0.00000000000E+00 0. -1.
         24    2    1    2    0    0 -0.29367308614E+03 -0.37072240091E+02 -0.72315986560E+02  0.31500583830E+03  0.79880183667E+02 0.  0.
        254    2    1    2    0    0  0.29367308614E+03  0.37072240091E+02 -0.97063531093E+03  0.13624835846E+04  0.90918115852E+03 0.  0.
         23    2    4    4    0    0  0.31235222597E+02 -0.22399166583E+03 -0.94989934058E+03  0.98091160608E+03  0.93439371858E+02 0.  0.
         23    2    4    4    0    0  0.26243786354E+03  0.26106390592E+03 -0.20735970344E+02  0.38157197853E+03  0.90217510145E+02 0.  0.
          2    1    3    3  502    0 -0.46951917816E+02 -0.20745294711E+02 -0.41149543682E+02  0.65788561198E+02  0.00000000000E+00 0. -1.
         -1    1    3    3    0  502 -0.24672116833E+03 -0.16326945380E+02 -0.31166442878E+02  0.24921727710E+03  0.00000000000E+00 0.  1.
         11    1    5    5    0    0  0.94609298456E+01 -0.27181276960E+02 -0.37490940372E+02  0.47264168465E+02  0.00000000000E+00 0.  1.
        -11    1    5    5    0    0  0.21774292751E+02 -0.19681038887E+03 -0.91240840021E+03  0.93364743762E+03  0.00000000000E+00 0. -1.
          2    1    6    6  503    0  0.23320040055E+03  0.26002886751E+03 -0.72475938764E+01  0.34935650327E+03  0.00000000000E+00 0. -1.
         -2    1    6    6    0  503  0.29237462992E+02  0.10350384083E+01 -0.13488376468E+02  0.32215475264E+02  0.00000000000E+00 0.  1.
<mgrwt>
<rscale>  0 0.13138582E+04</rscale>
<asrwt>0</asrwt>
<pdfrwt beam="1">  1        2 0.20926467E+00 0.13138582E+04</pdfrwt>
<pdfrwt beam="2">  1       -1 0.48810626E-01 0.13138582E+04</pdfrwt>
<totfact> 0.71515334E+01</totfact>
</mgrwt>
</event>
<event>
12    6  0.1462228E-007  0.2824907E+04  0.7818608E-02  0.8295577E-01
         -1   -1    0    0    0  501 -0.00000000000E+00  0.00000000000E+00  0.81786749615E+03  0.81786749615E+03  0.00000000000E+00 0.  1.
          2   -1    0    0  501    0  0.00000000000E+00 -0.00000000000E+00 -0.24393008220E+04  0.24393008220E+04  0.00000000000E+00 0. -1.
         24    2    1    2    0    0  0.55464051154E+03 -0.76873898362E+03 -0.16951906603E+04  0.19439464796E+04  0.81675080650E+02 0.  0.
        254    2    1    2    0    0 -0.55464051154E+03  0.76873898362E+03  0.73757334404E+02  0.13132218386E+04  0.90582875369E+03 0.  0.
         23    2    4    4    0    0 -0.49426148467E+03  0.28616639627E+03  0.41542503197E+03  0.71191764035E+03  0.89795032562E+02 0.  0.
         23    2    4    4    0    0 -0.60379026867E+02  0.48257258735E+03 -0.34166769757E+03  0.60130419824E+03  0.91148199743E+02 0.  0.
          2    1    3    3  502    0  0.22792985197E+03 -0.37420650308E+03 -0.73624517589E+03  0.85676104217E+03  0.00000000000E+00 0. -1.
         -1    1    3    3    0  502  0.32671065957E+03 -0.39453248054E+03 -0.95894548441E+03  0.10871854374E+04  0.00000000000E+00 0.  1.
         11    1    5    5    0    0 -0.30457441741E+03  0.13130056658E+03  0.21268487114E+03  0.39400541740E+03  0.00000000000E+00 0. -1.
        -11    1    5    5    0    0 -0.18968706726E+03  0.15486582969E+03  0.20274016083E+03  0.31791222296E+03  0.00000000000E+00 0.  1.
          1    1    6    6  503    0 -0.69244507699E+01  0.32912281734E+03 -0.25973255263E+03  0.41932180459E+03  0.00000000000E+00 0. -1.
         -1    1    6    6    0  503 -0.53454576097E+02  0.15344977002E+03 -0.81935144932E+02  0.18198239365E+03  0.00000000000E+00 0.  1.
<mgrwt>
<rscale>  0 0.28249070E+04</rscale>
<asrwt>0</asrwt>
<pdfrwt beam="1">  1        2 0.37527704E+00 0.28249070E+04</pdfrwt>
<pdfrwt beam="2">  1       -1 0.12582577E+00 0.28249070E+04</pdfrwt>
<totfact> 0.20507224E+00</totfact>
</mgrwt>
</event>
<event>
12    6  0.1462228E-007  0.1585233E+04  0.7818608E-02  0.8829672E-01
          2   -1    0    0  501    0  0.00000000000E+00  0.00000000000E+00  0.93236157245E+03  0.93236157245E+03  0.00000000000E+00 0. -1.
         -1   -1    0    0    0  501 -0.00000000000E+00 -0.00000000000E+00 -0.67381640836E+03  0.67381640836E+03  0.00000000000E+00 0.  1.
         24    2    1    2    0    0 -0.11283198265E+02 -0.48106429430E+03  0.31879515357E+03  0.58285914521E+03  0.80896646431E+02 0.  0.
        254    2    1    2    0    0  0.11283198265E+02  0.48106429430E+03 -0.60249989474E+02  0.10233188356E+04  0.90111109873E+03 0.  0.
         23    2    4    4    0    0 -0.42304905295E+03  0.12653263206E+03  0.79123966249E+01  0.45093763481E+03  0.91110571788E+02 0.  0.
         23    2    4    4    0    0  0.43433225121E+03  0.35453166224E+03 -0.68162386099E+02  0.57238120079E+03  0.92935053495E+02 0.  0.
          4    1    3    3  502    0 -0.42450530140E+02 -0.36723857950E+03  0.24955258479E+03  0.44602994783E+03  0.00000000000E+00 0. -1.
         -3    1    3    3    0  502  0.31167331875E+02 -0.11382571479E+03  0.69242568780E+02  0.13682919738E+03  0.00000000000E+00 0.  1.
         11    1    5    5    0    0 -0.20781916005E+03  0.56771150042E+02  0.49118946439E+02  0.22096252547E+03  0.00000000000E+00 0. -1.
        -11    1    5    5    0    0 -0.21522989290E+03  0.69761482016E+02 -0.41206549815E+02  0.22997510934E+03  0.00000000000E+00 0.  1.
          3    1    6    6  503    0  0.65964819149E+02  0.10162229970E+03 -0.22464714419E+02  0.12321977339E+03  0.00000000000E+00 0. -1.
         -3    1    6    6    0  503  0.36836743207E+03  0.25290936255E+03 -0.45697671680E+02  0.44916142740E+03  0.00000000000E+00 0.  1.
<mgrwt>
<rscale>  0 0.15852325E+04</rscale>
<asrwt>0</asrwt>
<pdfrwt beam="1">  1        2 0.14344024E+00 0.15852325E+04</pdfrwt>
<pdfrwt beam="2">  1       -1 0.10366406E+00 0.15852325E+04</pdfrwt>
<totfact> 0.26807234E+01</totfact>
</mgrwt>
</event>
<event>
12    6  0.1462228E-007  0.1753037E+04  0.7818608E-02  0.8731681E-01
         -1   -1    0    0    0  501 -0.00000000000E+00  0.00000000000E+00  0.51605842030E+03  0.51605842030E+03  0.00000000000E+00 0.  1.
          2   -1    0    0  501    0  0.00000000000E+00 -0.00000000000E+00 -0.14887546456E+04  0.14887546456E+04  0.00000000000E+00 0. -1.
         24    2    1    2    0    0  0.13501292125E+03  0.43773956327E+03 -0.87517995572E+03  0.99098673712E+03  0.79185504365E+02 0.  0.
        254    2    1    2    0    0 -0.13501292125E+03 -0.43773956327E+03 -0.97516269535E+02  0.10138263287E+04  0.89916071302E+03 0.  0.
         23    2    4    4    0    0 -0.45935339923E+03 -0.47030738055E+02  0.58664259178E+02  0.47445712057E+03  0.91927298698E+02 0.  0.
         23    2    4    4    0    0  0.32434047798E+03 -0.39070882521E+03 -0.15618052871E+03  0.53936920816E+03  0.93148555599E+02 0.  0.
          4    1    3    3  502    0  0.97729813277E+02  0.28365768468E+03 -0.64659582306E+03  0.71281060379E+03  0.00000000000E+00 0. -1.
         -3    1    3    3    0  502  0.37283107977E+02  0.15408187859E+03 -0.22858413266E+03  0.27817613333E+03  0.00000000000E+00 0.  1.
         11    1    5    5    0    0 -0.25223835105E+03 -0.34090179700E+01 -0.84786154993E+01  0.25240383132E+03  0.00000000000E+00 0. -1.
        -11    1    5    5    0    0 -0.20711504818E+03 -0.43621720085E+02  0.67142874677E+02  0.22205328925E+03  0.00000000000E+00 0.  1.
          1    1    6    6  503    0  0.92859927527E+02 -0.99037450996E+02 -0.48058918784E+00  0.13576307969E+03  0.00000000000E+00 0. -1.
         -1    1    6    6    0  503  0.23148055045E+03 -0.29167137422E+03 -0.15569993952E+03  0.40360612847E+03  0.00000000000E+00 0.  1.
<mgrwt>
<rscale>  0 0.17530366E+04</rscale>
<asrwt>0</asrwt>
<pdfrwt beam="1">  1        2 0.22903918E+00 0.17530366E+04</pdfrwt>
<pdfrwt beam="2">  1       -1 0.79393602E-01 0.17530366E+04</pdfrwt>
<totfact> 0.22051074E+01</totfact>
</mgrwt>
</event>
<event>
12    6  0.1462228E-007  0.1906073E+04  0.7818608E-02  0.8651839E-01
          2   -1    0    0  501    0  0.00000000000E+00  0.00000000000E+00  0.49116364689E+03  0.49116364689E+03  0.00000000000E+00 0. -1.
         -1   -1    0    0    0  501 -0.00000000000E+00 -0.00000000000E+00 -0.18492388866E+04  0.18492388866E+04  0.00000000000E+00 0.  1.
         24    2    1    2    0    0  0.14545835617E+03 -0.69922287516E+03 -0.74221988298E+03  0.10331413980E+04  0.80125095828E+02 0.  0.
        254    2    1    2    0    0 -0.14545835617E+03  0.69922287516E+03 -0.61585535669E+03  0.13072611355E+04  0.90530828640E+03 0.  0.
         23    2    4    4    0    0 -0.19059157500E+02  0.69517256169E+03 -0.31276345566E+02  0.70227667817E+03  0.92661647422E+02 0.  0.
         23    2    4    4    0    0 -0.12639919867E+03  0.40503134748E+01 -0.58457901113E+03  0.60498445731E+03  0.90996762951E+02 0.  0.
          2    1    3    3  502    0  0.42359519807E+01 -0.50192090328E+01 -0.21774423662E+02  0.22743378692E+02  0.00000000000E+00 0. -1.
         -1    1    3    3    0  502  0.14122240419E+03 -0.69420366613E+03 -0.72044545932E+03  0.10103980193E+04  0.00000000000E+00 0.  1.
         11    1    5    5    0    0 -0.49819347380E+02  0.57700956052E+03 -0.33897429477E+02  0.58014742612E+03  0.00000000000E+00 0. -1.
        -11    1    5    5    0    0  0.30760189880E+02  0.11816300116E+03  0.26210839107E+01  0.12212925205E+03  0.00000000000E+00 0.  1.
          4    1    6    6  503    0 -0.38767921203E+02 -0.22334522893E+02 -0.35545099250E+03  0.35825576157E+03  0.00000000000E+00 0. -1.
         -4    1    6    6    0  503 -0.87631277465E+02  0.26384836368E+02 -0.22912801863E+03  0.24672869574E+03  0.00000000000E+00 0.  1.
<mgrwt>
<rscale>  0 0.19060734E+04</rscale>
<asrwt>0</asrwt>
<pdfrwt beam="1">  1        2 0.75563638E-01 0.19060734E+04</pdfrwt>
<pdfrwt beam="2">  1       -1 0.28449829E+00 0.19060734E+04</pdfrwt>
<totfact> 0.28003842E+00</totfact>
</mgrwt>
</event>
<event>
12    6  0.1462228E-007  0.1173783E+04  0.7818608E-02  0.9136119E-01
          2   -1    0    0  501    0  0.00000000000E+00  0.00000000000E+00  0.11336366707E+04  0.11336366707E+04  0.00000000000E+00 0. -1.
         -1   -1    0    0    0  501 -0.00000000000E+00 -0.00000000000E+00 -0.30383786461E+03  0.30383786461E+03  0.00000000000E+00 0.  1.
         24    2    1    2    0    0  0.36374499522E+02  0.22058599347E+03  0.28598926489E+03  0.37149271264E+03  0.78966392743E+02 0.  0.
        254    2    1    2    0    0 -0.36374499522E+02 -0.22058599347E+03  0.54380954124E+03  0.10659818227E+04  0.88916092159E+03 0.  0.
         23    2    4    4    0    0 -0.16228055674E+03 -0.45618341086E+03  0.47726552209E+02  0.49535071961E+03  0.93038853176E+02 0.  0.
         23    2    4    4    0    0  0.12590605722E+03  0.23559741739E+03  0.49608298904E+03  0.57063110310E+03  0.90349573820E+02 0.  0.
          2    1    3    3  502    0 -0.64668721133E+01 -0.19140152539E+01  0.24873599357E+02  0.25771686679E+02  0.00000000000E+00 0. -1.
         -1    1    3    3    0  502  0.42841371636E+02  0.22250000873E+03  0.26111566553E+03  0.34572102596E+03  0.00000000000E+00 0.  1.
         11    1    5    5    0    0 -0.14666543163E+03 -0.45382383748E+03  0.49319998523E+02  0.47947813981E+03  0.00000000000E+00 0. -1.
        -11    1    5    5    0    0 -0.15615125106E+02 -0.23595733807E+01 -0.15934463143E+01  0.15872579808E+02  0.00000000000E+00 0.  1.
          2    1    6    6  503    0  0.10362498518E+03  0.22794171218E+03  0.48206976889E+03  0.54321894645E+03  0.00000000000E+00 0. -1.
         -2    1    6    6    0  503  0.22281072035E+02  0.76557052029E+01  0.14013220148E+02  0.27412156648E+02  0.00000000000E+00 0.  1.
<mgrwt>
<rscale>  0 0.11737832E+04</rscale>
<asrwt>0</asrwt>
<pdfrwt beam="1">  1        2 0.17440564E+00 0.11737832E+04</pdfrwt>
<pdfrwt beam="2">  1       -1 0.46744287E-01 0.11737832E+04</pdfrwt>
<totfact> 0.10670809E+02</totfact>
</mgrwt>
</event>
<event>
12    6  0.1462228E-007  0.2199205E+04  0.7818608E-02  0.8518759E-01
         -1   -1    0    0    0  501 -0.00000000000E+00  0.00000000000E+00  0.16534221451E+04  0.16534221451E+04  0.00000000000E+00 0.  1.
          2   -1    0    0  501    0  0.00000000000E+00 -0.00000000000E+00 -0.73128649493E+03  0.73128649493E+03  0.00000000000E+00 0. -1.
         24    2    1    2    0    0  0.11557372639E+03  0.70335147674E+03 -0.13421303334E+03  0.72954685759E+03  0.78516832884E+02 0.  0.
        254    2    1    2    0    0 -0.11557372639E+03 -0.70335147674E+03  0.10563486835E+04  0.16551617824E+04  0.10562326443E+04 0.  0.
         23    2    4    4    0    0  0.86390622863E+02  0.23392976362E+03  0.43288066617E+03  0.50787075388E+03  0.91436084093E+02 0.  0.
         23    2    4    4    0    0 -0.20196434925E+03 -0.93728124035E+03  0.62346801734E+03  0.11472910286E+04  0.90986887493E+02 0.  0.
          2    1    3    3  502    0  0.60351357205E+02  0.54658281431E+03 -0.11907019342E+03  0.56264799847E+03  0.00000000000E+00 0. -1.
         -1    1    3    3    0  502  0.55222369185E+02  0.15676866242E+03 -0.15142839923E+02  0.16689885913E+03  0.00000000000E+00 0.  1.
         11    1    5    5    0    0  0.24299420797E+02  0.75584843773E+02  0.22893030749E+03  0.24230686359E+03  0.00000000000E+00 0.  1.
        -11    1    5    5    0    0  0.62091202066E+02  0.15834491984E+03  0.20395035869E+03  0.26556389029E+03  0.00000000000E+00 0. -1.
          3    1    6    6  503    0 -0.18473322369E+02 -0.12811393837E+03  0.12163894044E+03  0.17762453849E+03  0.00000000000E+00 0. -1.
         -3    1    6    6    0  503 -0.18349102688E+03 -0.80916730198E+03  0.50182907690E+03  0.96966649007E+03  0.00000000000E+00 0.  1.
<mgrwt>
<rscale>  0 0.21992047E+04</rscale>
<asrwt>0</asrwt>
<pdfrwt beam="1">  1        2 0.11250562E+00 0.21992047E+04</pdfrwt>
<pdfrwt beam="2">  1       -1 0.25437264E+00 0.21992047E+04</pdfrwt>
<totfact> 0.26385296E+00</totfact>
</mgrwt>
</event>
<event>
12    6  0.1462228E-007  0.1979987E+04  0.7818608E-02  0.8616035E-01
          2   -1    0    0  501    0  0.00000000000E+00  0.00000000000E+00  0.25949935923E+04  0.25949935923E+04  0.00000000000E+00 0. -1.
         -1   -1    0    0    0  501 -0.00000000000E+00 -0.00000000000E+00 -0.37768378235E+03  0.37768378235E+03  0.00000000000E+00 0.  1.
         24    2    1    2    0    0  0.33796464933E+03  0.45157096057E+03  0.16989243261E+04  0.17915980118E+04  0.73096741015E+02 0.  0.
        254    2    1    2    0    0 -0.33796464933E+03 -0.45157096057E+03  0.51838548391E+03  0.11810793629E+04  0.89893743657E+03 0.  0.
         23    2    4    4    0    0 -0.89183946314E+00 -0.54872730442E+03  0.59104211138E+03  0.81157237620E+03  0.90644880719E+02 0.  0.
         23    2    4    4    0    0 -0.33707280986E+03  0.97156343848E+02 -0.72656627475E+02  0.36950698667E+03  0.90548293103E+02 0.  0.
          4    1    3    3  502    0  0.13100279921E+03  0.14722034733E+03  0.69212959880E+03  0.71963806570E+03  0.00000000000E+00 0. -1.
         -3    1    3    3    0  502  0.20696185012E+03  0.30435061324E+03  0.10067947273E+04  0.10719599461E+04  0.00000000000E+00 0.  1.
         11    1    5    5    0    0  0.27693803947E+02 -0.49058614999E+03  0.52365807553E+03  0.71809435133E+03  0.00000000000E+00 0. -1.
        -11    1    5    5    0    0 -0.28585643411E+02 -0.58141154421E+02  0.67384035848E+02  0.93478024871E+02  0.00000000000E+00 0.  1.
          3    1    6    6  503    0 -0.67350776394E+02  0.17048147835E+02  0.21627362185E+02  0.72763378292E+02  0.00000000000E+00 0. -1.
         -3    1    6    6    0  503 -0.26972203347E+03  0.80108196013E+02 -0.94283989660E+02  0.29674360838E+03  0.00000000000E+00 0.  1.
<mgrwt>
<rscale>  0 0.19799869E+04</rscale>
<asrwt>0</asrwt>
<pdfrwt beam="1">  1        2 0.39922977E+00 0.19799869E+04</pdfrwt>
<pdfrwt beam="2">  1       -1 0.58105199E-01 0.19799869E+04</pdfrwt>
<totfact> 0.97479437E+00</totfact>
</mgrwt>
</event>
<event>
12    6  0.1462228E-007  0.1457996E+04  0.7818608E-02  0.8912876E-01
          2   -1    0    0  501    0  0.00000000000E+00  0.00000000000E+00  0.17335569970E+04  0.17335569970E+04  0.00000000000E+00 0. -1.
         -1   -1    0    0    0  501 -0.00000000000E+00 -0.00000000000E+00 -0.30655923984E+03  0.30655923984E+03  0.00000000000E+00 0.  1.
         24    2    1    2    0    0  0.60489857653E+01 -0.32472346867E+03  0.17031418180E+02  0.33230856435E+03  0.68242152667E+02 0.  0.
        254    2    1    2    0    0 -0.60489857653E+01  0.32472346867E+03  0.14099663390E+04  0.17078076725E+04  0.90725963641E+03 0.  0.
         23    2    4    4    0    0 -0.11391480998E+02 -0.30101966943E+02 -0.10880756471E+03  0.14594653529E+03  0.91790036341E+02 0.  0.
         23    2    4    4    0    0  0.53424952331E+01  0.35482543561E+03  0.15187739037E+04  0.15618611372E+04  0.82500965923E+02 0.  0.
          4    1    3    3  502    0  0.34317457196E+01  0.27428705482E+01  0.99324471928E-01  0.43943239388E+01  0.00000000000E+00 0. -1.
         -3    1    3    3    0  502  0.26172400457E+01 -0.32746633922E+03  0.16932093708E+02  0.32791424041E+03  0.00000000000E+00 0.  1.
         11    1    5    5    0    0 -0.28502474880E+02  0.25467508197E+02 -0.53070401289E+02  0.65402236513E+02  0.00000000000E+00 0. -1.
        -11    1    5    5    0    0  0.17110993881E+02 -0.55569475139E+02 -0.55737163420E+02  0.80544298774E+02  0.00000000000E+00 0.  1.
          1    1    6    6  503    0  0.32033638893E+02  0.31325078088E+03  0.13205997752E+04  0.13576214391E+04  0.00000000000E+00 0. -1.
         -1    1    6    6    0  503 -0.26691143660E+02  0.41574654736E+02  0.19817412853E+03  0.20423969811E+03  0.00000000000E+00 0.  1.
<mgrwt>
<rscale>  0 0.14579958E+04</rscale>
<asrwt>0</asrwt>
<pdfrwt beam="1">  1        2 0.26670107E+00 0.14579958E+04</pdfrwt>
<pdfrwt beam="2">  1       -1 0.47162961E-01 0.14579958E+04</pdfrwt>
<totfact> 0.46511450E+01</totfact>
</mgrwt>
</event>
<event>
12    6  0.1462228E-007  0.1449091E+04  0.7818608E-02  0.8919031E-01
          2   -1    0    0  501    0  0.00000000000E+00  0.00000000000E+00  0.68319870102E+03  0.68319870102E+03  0.00000000000E+00 0. -1.
         -1   -1    0    0    0  501 -0.00000000000E+00 -0.00000000000E+00 -0.76839467891E+03  0.76839467891E+03  0.00000000000E+00 0.  1.
         24    2    1    2    0    0  0.18432681119E+03  0.92421994356E+02  0.36109706363E+03  0.42341640575E+03  0.79825841261E+02 0.  0.
        254    2    1    2    0    0 -0.18432681119E+03 -0.92421994356E+02 -0.44629304152E+03  0.10281769742E+04  0.90302392713E+03 0.  0.
         23    2    4    4    0    0  0.17843990235E+03  0.31231060514E+03 -0.22863245333E+03  0.43582462210E+03  0.91058166453E+02 0.  0.
         23    2    4    4    0    0 -0.36276671355E+03 -0.40473259949E+03 -0.21766058819E+03  0.59235235208E+03  0.89983397460E+02 0.  0.
          2    1    3    3  502    0  0.11854718035E+03  0.50528820642E+02  0.29220060261E+03  0.31935526902E+03  0.00000000000E+00 0. -1.
         -1    1    3    3    0  502  0.65779630839E+02  0.41893173715E+02  0.68896461024E+02  0.10406113674E+03  0.00000000000E+00 0.  1.
         11    1    5    5    0    0  0.69378339098E+02  0.14490709555E+03 -0.15399135597E+03  0.22254158710E+03  0.00000000000E+00 0. -1.
        -11    1    5    5    0    0  0.10906156326E+03  0.16740350959E+03 -0.74641097363E+02  0.21328303500E+03  0.00000000000E+00 0.  1.
          3    1    6    6  503    0 -0.63817392097E+02 -0.12998068375E+03 -0.52727618471E+02  0.15410334011E+03  0.00000000000E+00 0. -1.
         -3    1    6    6    0  503 -0.29894932145E+03 -0.27475191574E+03 -0.16493296972E+03  0.43824901198E+03  0.00000000000E+00 0.  1.
<mgrwt>
<rscale>  0 0.14490911E+04</rscale>
<asrwt>0</asrwt>
<pdfrwt beam="1">  1        2 0.10510749E+00 0.14490911E+04</pdfrwt>
<pdfrwt beam="2">  1       -1 0.11821457E+00 0.14490911E+04</pdfrwt>
<totfact> 0.30069306E+01</totfact>
</mgrwt>
</event>
<event>
12    6  0.1462228E-007  0.1412898E+04  0.7818608E-02  0.8944535E-01
          2   -1    0    0  501    0  0.00000000000E+00  0.00000000000E+00  0.88580423204E+03  0.88580423204E+03  0.00000000000E+00 0. -1.
         -1   -1    0    0    0  501 -0.00000000000E+00 -0.00000000000E+00 -0.56340882606E+03  0.56340882606E+03  0.00000000000E+00 0.  1.
         24    2    1    2    0    0 -0.37468613712E+03 -0.19114147828E+02 -0.83611187278E+02  0.39258657426E+03  0.79864483075E+02 0.  0.
        254    2    1    2    0    0  0.37468613712E+03  0.19114147828E+02  0.40600659326E+03  0.10566264838E+04  0.90047938376E+03 0.  0.
         23    2    4    4    0    0 -0.17793789510E+03  0.28423156567E+03  0.21373000689E+03  0.40788633915E+03  0.90781453995E+02 0.  0.
         23    2    4    4    0    0  0.55262403222E+03 -0.26511741784E+03  0.19227658637E+03  0.64874014468E+03  0.90625181000E+02 0.  0.
          2    1    3    3  502    0 -0.18697999503E+02 -0.41301676692E+01  0.13329329736E+02  0.23331191602E+02  0.00000000000E+00 0. -1.
         -1    1    3    3    0  502 -0.35598813762E+03 -0.14983980158E+02 -0.96940517013E+02  0.36925538266E+03  0.00000000000E+00 0.  1.
         11    1    5    5    0    0 -0.54655171854E+02  0.16430965230E+03  0.13042948435E+03  0.21678722296E+03  0.00000000000E+00 0. -1.
        -11    1    5    5    0    0 -0.12328272324E+03  0.11992191337E+03  0.83300522538E+02  0.19109911620E+03  0.00000000000E+00 0.  1.
          1    1    6    6  503    0  0.13247296592E+03 -0.99710792751E+02  0.27464962644E+02  0.16806443129E+03  0.00000000000E+00 0. -1.
         -1    1    6    6    0  503  0.42015106630E+03 -0.16540662509E+03  0.16481162373E+03  0.48067571340E+03  0.00000000000E+00 0.  1.
<mgrwt>
<rscale>  0 0.14128976E+04</rscale>
<asrwt>0</asrwt>
<pdfrwt beam="1">  1        2 0.13627757E+00 0.14128976E+04</pdfrwt>
<pdfrwt beam="2">  1       -1 0.86678281E-01 0.14128976E+04</pdfrwt>
<totfact> 0.43671530E+01</totfact>
</mgrwt>
</event>
<event>
12    6  0.2081567E-007  0.1547785E+04  0.7818608E-02  0.8853284E-01
         -1   -1    0    0    0  501 -0.00000000000E+00  0.00000000000E+00  0.47107304814E+03  0.47107304814E+03  0.00000000000E+00 0.  1.
          2   -1    0    0  501    0  0.00000000000E+00 -0.00000000000E+00 -0.12713731565E+04  0.12713731565E+04  0.00000000000E+00 0. -1.
         24    2    1    2    0    0  0.20742260074E+03  0.98077055898E+02  0.24404772218E+03  0.34504453328E+03  0.82784026580E+02 0.  0.
        254    2    1    2    0    0 -0.20742260074E+03 -0.98077055898E+02 -0.10443478305E+04  0.13974016714E+04  0.89968094110E+03 0.  0.
         23    2    4    4    0    0 -0.92695805842E+02 -0.48099059277E+03 -0.42788223930E+03  0.65676886774E+03  0.91201272886E+02 0.  0.
         23    2    4    4    0    0 -0.11472679490E+03  0.38291353687E+03 -0.61646559124E+03  0.74063280362E+03  0.93392239662E+02 0.  0.
          4    1    3    3  502    0  0.19591983751E+02  0.28038853802E+02  0.75711884173E+01  0.35033498881E+02  0.00000000000E+00 0. -1.
         -3    1    3    3    0  502  0.18783061699E+03  0.70038202096E+02  0.23647653376E+03  0.31001103440E+03  0.00000000000E+00 0.  1.
         11    1    5    5    0    0 -0.27212685859E+02 -0.82048060095E+02 -0.12334726798E+03  0.15062192057E+03  0.00000000000E+00 0.  1.
        -11    1    5    5    0    0 -0.65483119982E+02 -0.39894253267E+03 -0.30453497131E+03  0.50614694717E+03  0.00000000000E+00 0. -1.
          3    1    6    6  503    0 -0.29845007482E+02  0.62763566920E+02 -0.54477755832E+02  0.88305241546E+02  0.00000000000E+00 0. -1.
         -3    1    6    6    0  503 -0.84881787414E+02  0.32014996995E+03 -0.56198783541E+03  0.65232756207E+03  0.00000000000E+00 0.  1.
<mgrwt>
<rscale>  0 0.15477850E+04</rscale>
<asrwt>0</asrwt>
<pdfrwt beam="1">  1        2 0.19559587E+00 0.15477850E+04</pdfrwt>
<pdfrwt beam="2">  1       -1 0.72472776E-01 0.15477850E+04</pdfrwt>
<totfact> 0.36218059E+01</totfact>
</mgrwt>
</event>
<event>
12    6  0.1462228E-007  0.2009207E+04  0.7818608E-02  0.8602328E-01
         -1   -1    0    0    0  501 -0.00000000000E+00  0.00000000000E+00  0.41146788018E+03  0.41146788018E+03  0.00000000000E+00 0.  1.
          2   -1    0    0  501    0  0.00000000000E+00 -0.00000000000E+00 -0.24527517308E+04  0.24527517308E+04  0.00000000000E+00 0. -1.
         24    2    1    2    0    0 -0.63893479225E+03  0.76697630246E+02 -0.13479512394E+03  0.66211319632E+03  0.78127870038E+02 0.  0.
        254    2    1    2    0    0  0.63893479225E+03 -0.76697630246E+02 -0.19064887267E+04  0.22021064146E+04  0.89468050232E+03 0.  0.
         23    2    4    4    0    0  0.75599767830E+03 -0.18071653927E+03 -0.95893941707E+03  0.12374946315E+04  0.87391076262E+02 0.  0.
         23    2    4    4    0    0 -0.11706288606E+03  0.10401890902E+03 -0.94754930961E+03  0.96461178315E+03  0.90014139558E+02 0.  0.
          4    1    3    3  502    0 -0.13215238329E+03 -0.11888775914E+02 -0.43310266102E+02  0.13957569470E+03  0.00000000000E+00 0. -1.
         -3    1    3    3    0  502 -0.50678240896E+03  0.88586406160E+02 -0.91484857833E+02  0.52253750162E+03  0.00000000000E+00 0.  1.
         11    1    5    5    0    0  0.18471953240E+03 -0.46440536323E+02 -0.17852132550E+03  0.26105151354E+03  0.00000000000E+00 0. -1.
        -11    1    5    5    0    0  0.57127814590E+03 -0.13427600294E+03 -0.78041809157E+03  0.97644311795E+03  0.00000000000E+00 0.  1.
          2    1    6    6  503    0 -0.83750086830E+01  0.45580583057E+02 -0.43294696612E+03  0.43542026342E+03  0.00000000000E+00 0. -1.
         -2    1    6    6    0  503 -0.10868787737E+03  0.58438325962E+02 -0.51460234349E+03  0.52919151973E+03  0.00000000000E+00 0.  1.
<mgrwt>
<rscale>  0 0.20092074E+04</rscale>
<asrwt>0</asrwt>
<pdfrwt beam="1">  1        2 0.37734643E+00 0.20092074E+04</pdfrwt>
<pdfrwt beam="2">  1       -1 0.63302750E-01 0.20092074E+04</pdfrwt>
<totfact> 0.99200268E+00</totfact>
</mgrwt>
</event>
<event>
12    6  0.1462228E-007  0.1803108E+04  0.7818608E-02  0.8704648E-01
         -1   -1    0    0    0  501 -0.00000000000E+00  0.00000000000E+00  0.60138099268E+03  0.60138099268E+03  0.00000000000E+00 0.  1.
          2   -1    0    0  501    0  0.00000000000E+00 -0.00000000000E+00 -0.13515554721E+04  0.13515554721E+04  0.00000000000E+00 0. -1.
         24    2    1    2    0    0  0.48013034535E+03 -0.33130964724E+03  0.89488783367E+02  0.59541163100E+03  0.78838677689E+02 0.  0.
        254    2    1    2    0    0 -0.48013034535E+03  0.33130964724E+03 -0.83966326282E+03  0.13575248338E+04  0.89305545663E+03 0.  0.
         23    2    4    4    0    0 -0.13269583095E+03  0.16364856575E+02 -0.86334400477E+03  0.87858806479E+03  0.93156454121E+02 0.  0.
         23    2    4    4    0    0 -0.34743451439E+03  0.31494479067E+03  0.23680741947E+02  0.47893676902E+03  0.94438806749E+02 0.  0.
          4    1    3    3  502    0  0.41071687691E+03 -0.29930904488E+03  0.10090959411E+03  0.51812836586E+03  0.00000000000E+00 0. -1.
         -3    1    3    3    0  502  0.69413468438E+02 -0.32000602359E+02 -0.11420810745E+02  0.77283265136E+02  0.00000000000E+00 0.  1.
         11    1    5    5    0    0 -0.10640839443E+03  0.26869180996E+02 -0.81658859637E+03  0.82393060085E+03  0.00000000000E+00 0.  1.
        -11    1    5    5    0    0 -0.26287436520E+02 -0.10504324421E+02 -0.46755408397E+02  0.54657463944E+02  0.00000000000E+00 0. -1.
          2    1    6    6  503    0 -0.57320617275E+02  0.98255321866E+02 -0.15140297089E+02  0.11475622003E+03  0.00000000000E+00 0. -1.
         -2    1    6    6    0  503 -0.29011389712E+03  0.21668946880E+03  0.38821039036E+02  0.36418054899E+03  0.00000000000E+00 0.  1.
<mgrwt>
<rscale>  0 0.18031082E+04</rscale>
<asrwt>0</asrwt>
<pdfrwt beam="1">  1        2 0.20793161E+00 0.18031082E+04</pdfrwt>
<pdfrwt beam="2">  1       -1 0.92520153E-01 0.18031082E+04</pdfrwt>
<totfact> 0.18859997E+01</totfact>
</mgrwt>
</event>
<event>
12    6  0.1462228E-007  0.2528137E+04  0.7818608E-02  0.8393030E-01
         -1   -1    0    0    0  501 -0.00000000000E+00  0.00000000000E+00  0.16162419183E+04  0.16162419183E+04  0.00000000000E+00 0.  1.
          2   -1    0    0  501    0  0.00000000000E+00 -0.00000000000E+00 -0.98863227787E+03  0.98863227787E+03  0.00000000000E+00 0. -1.
         24    2    1    2    0    0  0.10487738941E+04  0.59222314428E+02 -0.58372024408E+02  0.10539331022E+04  0.62719432775E+02 0.  0.
        254    2    1    2    0    0 -0.10487738941E+04 -0.59222314428E+02  0.68598166485E+03  0.15509410940E+04  0.91181876978E+03 0.  0.
         23    2    4    4    0    0 -0.10219067610E+04 -0.27817097173E+03  0.75341708897E+03  0.13029176836E+04  0.91020122317E+02 0.  0.
         23    2    4    4    0    0 -0.26867133102E+02  0.21894865730E+03 -0.67435424119E+02  0.24802341033E+03  0.91146685442E+02 0.  0.
          2    1    3    3  502    0  0.49680484119E+03  0.35977566760E+01 -0.79474453232E+01  0.49688143050E+03  0.00000000000E+00 0. -1.
         -1    1    3    3    0  502  0.55196905292E+03  0.55624557752E+02 -0.50424579085E+02  0.55705167173E+03  0.00000000000E+00 0.  1.
         11    1    5    5    0    0 -0.94064461767E+03 -0.23372712095E+03  0.70399133392E+03  0.11979334130E+04  0.00000000000E+00 0.  1.
        -11    1    5    5    0    0 -0.81262143331E+02 -0.44443850779E+02  0.49425755051E+02  0.10498427060E+03  0.00000000000E+00 0. -1.
          3    1    6    6  503    0  0.10844666244E+01  0.20441207872E+03 -0.70822879008E+02  0.21633620636E+03  0.00000000000E+00 0.  1.
         -3    1    6    6    0  503 -0.27951599726E+02  0.14536578589E+02  0.33874548895E+01  0.31687203963E+02  0.00000000000E+00 0. -1.
<mgrwt>
<rscale>  0 0.25281368E+04</rscale>
<asrwt>0</asrwt>
<pdfrwt beam="1">  1        2 0.15209727E+00 0.25281368E+04</pdfrwt>
<pdfrwt beam="2">  1       -1 0.24865260E+00 0.25281368E+04</pdfrwt>
<totfact> 0.18489453E+00</totfact>
</mgrwt>
</event>
<event>
12    6  0.1462228E-007  0.1414435E+04  0.7818608E-02  0.8943436E-01
          2   -1    0    0  501    0  0.00000000000E+00  0.00000000000E+00  0.10454995949E+04  0.10454995949E+04  0.00000000000E+00 0. -1.
         -1   -1    0    0    0  501 -0.00000000000E+00 -0.00000000000E+00 -0.47838998560E+03  0.47838998560E+03  0.00000000000E+00 0.  1.
         24    2    1    2    0    0  0.66511134351E+02 -0.13470499857E+03  0.59979540438E+03  0.62356193197E+03  0.80658466693E+02 0.  0.
        254    2    1    2    0    0 -0.66511134351E+02  0.13470499857E+03 -0.32685795120E+02  0.90032764850E+03  0.88710334562E+03 0.  0.
         23    2    4    4    0    0 -0.36852232824E+03 -0.95016785152E+02 -0.23901632375E+03  0.45909710849E+03  0.93832063448E+02 0.  0.
         23    2    4    4    0    0  0.30201119389E+03  0.22972178372E+03  0.20633052863E+03  0.44123054001E+03  0.90162316097E+02 0.  0.
          2    1    3    3  502    0  0.22894613177E+02 -0.12317247212E+03  0.45095619503E+03  0.46803537370E+03  0.00000000000E+00 0. -1.
         -1    1    3    3    0  502  0.43616521174E+02 -0.11532526454E+02  0.14883920935E+03  0.15552655826E+03  0.00000000000E+00 0.  1.
         11    1    5    5    0    0 -0.24017426996E+03 -0.77619731734E+02 -0.10698556800E+03  0.27414305475E+03  0.00000000000E+00 0.  1.
        -11    1    5    5    0    0 -0.12834805828E+03 -0.17397053418E+02 -0.13203075574E+03  0.18495405374E+03  0.00000000000E+00 0. -1.
          1    1    6    6  503    0  0.10478846294E+02 -0.68407460199E+01  0.15976104386E+02  0.20293790604E+02  0.00000000000E+00 0. -1.
         -1    1    6    6    0  503  0.29153234760E+03  0.23656252974E+03  0.19035442424E+03  0.42093674941E+03  0.00000000000E+00 0.  1.
<mgrwt>
<rscale>  0 0.14144349E+04</rscale>
<asrwt>0</asrwt>
<pdfrwt beam="1">  1        2 0.16084609E+00 0.14144349E+04</pdfrwt>
<pdfrwt beam="2">  1       -1 0.73598460E-01 0.14144349E+04</pdfrwt>
<totfact> 0.48610555E+01</totfact>
</mgrwt>
</event>
<event>
12    6  0.1462228E-007  0.1371068E+04  0.7818608E-02  0.8975031E-01
         -1   -1    0    0    0  501 -0.00000000000E+00  0.00000000000E+00  0.56642083118E+03  0.56642083118E+03  0.00000000000E+00 0.  1.
          2   -1    0    0  501    0  0.00000000000E+00 -0.00000000000E+00 -0.82969563589E+03  0.82969563589E+03  0.00000000000E+00 0. -1.
         24    2    1    2    0    0 -0.36098581955E+03 -0.38968344463E+02 -0.19408878707E+02  0.37198834930E+03  0.78545105852E+02 0.  0.
        254    2    1    2    0    0  0.36098581955E+03  0.38968344463E+02 -0.24386592600E+03  0.10241281178E+04  0.92603375639E+03 0.  0.
         23    2    4    4    0    0  0.43870651795E+03 -0.32183913970E+03  0.35270632335E+02  0.55259267980E+03  0.89837695493E+02 0.  0.
         23    2    4    4    0    0 -0.77720698400E+02  0.36080748417E+03 -0.27913655834E+03  0.47153543797E+03  0.90586442001E+02 0.  0.
          4    1    3    3  502    0 -0.54048104045E+02 -0.28043116898E+02  0.15629459554E+02  0.62864091198E+02  0.00000000000E+00 0. -1.
         -3    1    3    3    0  502 -0.30693771550E+03 -0.10925227565E+02 -0.35038338261E+02  0.30912425810E+03  0.00000000000E+00 0.  1.
         11    1    5    5    0    0  0.26484946065E+03 -0.24053976609E+03  0.18753931789E+01  0.35778224240E+03  0.00000000000E+00 0. -1.
        -11    1    5    5    0    0  0.17385705730E+03 -0.81299373608E+02  0.33395239156E+02  0.19481043740E+03  0.00000000000E+00 0.  1.
          1    1    6    6  503    0 -0.38115287236E+02  0.23368324861E+03 -0.12462333754E+03  0.26756608914E+03  0.00000000000E+00 0. -1.
         -1    1    6    6    0  503 -0.39605411164E+02  0.12712423556E+03 -0.15451322080E+03  0.20396934883E+03  0.00000000000E+00 0.  1.
<mgrwt>
<rscale>  0 0.13710680E+04</rscale>
<asrwt>0</asrwt>
<pdfrwt beam="1">  1        2 0.12764548E+00 0.13710680E+04</pdfrwt>
<pdfrwt beam="2">  1       -1 0.87141667E-01 0.13710680E+04</pdfrwt>
<totfact> 0.47378266E+01</totfact>
</mgrwt>
</event>
<event>
12    6  0.1462228E-007  0.1940758E+04  0.7818608E-02  0.8634830E-01
          2   -1    0    0  501    0  0.00000000000E+00  0.00000000000E+00  0.21657557913E+04  0.21657557913E+04  0.00000000000E+00 0. -1.
         -1   -1    0    0    0  501 -0.00000000000E+00 -0.00000000000E+00 -0.43478389896E+03  0.43478389896E+03  0.00000000000E+00 0.  1.
         24    2    1    2    0    0 -0.42245069001E+03 -0.44988417025E+03  0.12658480704E+04  0.14104929957E+04  0.79112587942E+02 0.  0.
        254    2    1    2    0    0  0.42245069001E+03  0.44988417025E+03  0.46512382202E+03  0.11900466946E+04  0.90499205156E+03 0.  0.
         23    2    4    4    0    0 -0.78113331302E+02  0.41541346030E+03 -0.84583055851E+02  0.44037161636E+03  0.90015729933E+02 0.  0.
         23    2    4    4    0    0  0.50056402131E+03  0.34470709953E+02  0.54970687787E+03  0.74967507824E+03  0.89902736761E+02 0.  0.
          4    1    3    3  502    0 -0.27049793226E+03 -0.31727046908E+03  0.92147760873E+03  0.10114102359E+04  0.00000000000E+00 0. -1.
         -3    1    3    3    0  502 -0.15195275774E+03 -0.13261370117E+03  0.34437046162E+03  0.39908275979E+03  0.00000000000E+00 0.  1.
         11    1    5    5    0    0  0.11585868541E+02  0.16355546667E+03 -0.45615982479E+02  0.17019236436E+03  0.00000000000E+00 0.  1.
        -11    1    5    5    0    0 -0.89699199843E+02  0.25185799363E+03 -0.38967073372E+02  0.27017925200E+03  0.00000000000E+00 0. -1.
          1    1    6    6  503    0  0.42873589868E+03  0.49299253866E+02  0.42952502991E+03  0.60888146512E+03  0.00000000000E+00 0. -1.
         -1    1    6    6    0  503  0.71828122632E+02 -0.14828543914E+02  0.12018184796E+03  0.14079361312E+03  0.00000000000E+00 0.  1.
<mgrwt>
<rscale>  0 0.19407584E+04</rscale>
<asrwt>0</asrwt>
<pdfrwt beam="1">  1        2 0.33319319E+00 0.19407584E+04</pdfrwt>
<pdfrwt beam="2">  1       -1 0.66889832E-01 0.19407584E+04</pdfrwt>
<totfact> 0.12991179E+01</totfact>
</mgrwt>
</event>
<event>
12    6  0.1462228E-007  0.2697159E+04  0.7818608E-02  0.8335927E-01
         -1   -1    0    0    0  501 -0.00000000000E+00  0.00000000000E+00  0.28596332801E+04  0.28596332801E+04  0.00000000000E+00 0.  1.
          2   -1    0    0  501    0  0.00000000000E+00 -0.00000000000E+00 -0.63597898081E+03  0.63597898081E+03  0.00000000000E+00 0. -1.
         24    2    1    2    0    0  0.78815853494E+03  0.12150353292E+03 -0.16977004865E+03  0.81933126841E+03  0.80776687712E+02 0.  0.
        254    2    1    2    0    0 -0.78815853494E+03 -0.12150353292E+03  0.23934243479E+04  0.26762809925E+04  0.89333244474E+03 0.  0.
         23    2    4    4    0    0 -0.67421979425E+03 -0.34892188120E+03  0.22340045156E+04  0.23612644215E+04  0.92058037321E+02 0.  0.
         23    2    4    4    0    0 -0.11393874069E+03  0.22741834829E+03  0.15941983233E+03  0.31501657102E+03  0.95496676972E+02 0.  0.
          2    1    3    3  502    0  0.52101871514E+03  0.11829919479E+03 -0.10675490929E+03  0.54484108846E+03  0.00000000000E+00 0. -1.
         -1    1    3    3    0  502  0.26713981979E+03  0.32043381247E+01 -0.63015139358E+02  0.27449017995E+03  0.00000000000E+00 0.  1.
         11    1    5    5    0    0 -0.42247392486E+03 -0.24209551470E+03  0.13066746458E+04  0.13944508186E+04  0.00000000000E+00 0. -1.
        -11    1    5    5    0    0 -0.25174586938E+03 -0.10682636650E+03  0.92732986977E+03  0.96681360287E+03  0.00000000000E+00 0.  1.
          2    1    6    6  503    0 -0.75061753115E+01  0.40101686977E+02  0.71508472248E+02  0.82328303574E+02  0.00000000000E+00 0. -1.
         -2    1    6    6    0  503 -0.10643256538E+03  0.18731666131E+03  0.87911360077E+02  0.23268826745E+03  0.00000000000E+00 0.  1.
<mgrwt>
<rscale>  0 0.26971590E+04</rscale>
<asrwt>0</asrwt>
<pdfrwt beam="1">  1        2 0.97842922E-01 0.26971590E+04</pdfrwt>
<pdfrwt beam="2">  1       -1 0.43994357E+00 0.26971590E+04</pdfrwt>
<totfact> 0.17537148E-01</totfact>
</mgrwt>
</event>
<event>
12    6  0.1462228E-007  0.2991499E+04  0.7818608E-02  0.8246163E-01
          2   -1    0    0  501    0  0.00000000000E+00  0.00000000000E+00  0.10074277216E+04  0.10074277216E+04  0.00000000000E+00 0. -1.
         -1   -1    0    0    0  501 -0.00000000000E+00 -0.00000000000E+00 -0.22207709903E+04  0.22207709903E+04  0.00000000000E+00 0.  1.
         24    2    1    2    0    0 -0.59255755572E+03  0.73976121823E+03  0.51171616629E+03  0.10801256551E+04  0.80292459290E+02 0.  0.
        254    2    1    2    0    0  0.59255755572E+03 -0.73976121823E+03 -0.17250594349E+04  0.21480730569E+04  0.86024222566E+03 0.  0.
         23    2    4    4    0    0  0.71858524286E+02 -0.67022862478E+03 -0.62017878641E+03  0.92117305780E+03  0.97816247695E+02 0.  0.
         23    2    4    4    0    0  0.52069903143E+03 -0.69532593447E+02 -0.11048806485E+04  0.12268999991E+04  0.92520794327E+02 0.  0.
          2    1    3    3  502    0 -0.42184027437E+03  0.47567000873E+03  0.36523570232E+03  0.73321776611E+03  0.00000000000E+00 0. -1.
         -1    1    3    3    0  502 -0.17071728135E+03  0.26409120950E+03  0.14648046397E+03  0.34690788895E+03  0.00000000000E+00 0.  1.
         11    1    5    5    0    0 -0.69827890128E+00 -0.26773434915E+03 -0.19499600676E+03  0.33121837504E+03  0.00000000000E+00 0. -1.
        -11    1    5    5    0    0  0.72556803187E+02 -0.40249427563E+03 -0.42518277965E+03  0.58995468276E+03  0.00000000000E+00 0.  1.
          4    1    6    6  503    0  0.50700370243E+03 -0.53725026235E+02 -0.10318885687E+04  0.11509705257E+04  0.00000000000E+00 0. -1.
         -4    1    6    6    0  503  0.13695329002E+02 -0.15807567212E+02 -0.72992079811E+02  0.75929473413E+02  0.00000000000E+00 0.  1.
<mgrwt>
<rscale>  0 0.29914988E+04</rscale>
<asrwt>0</asrwt>
<pdfrwt beam="1">  1        2 0.15498888E+00 0.29914988E+04</pdfrwt>
<pdfrwt beam="2">  1       -1 0.34165707E+00 0.29914988E+04</pdfrwt>
<totfact> 0.42901676E-01</totfact>
</mgrwt>
</event>
<event>
12    6  0.1462228E-007  0.1736939E+04  0.7818608E-02  0.8740572E-01
         -1   -1    0    0    0  501 -0.00000000000E+00  0.00000000000E+00  0.93949506117E+03  0.93949506117E+03  0.00000000000E+00 0.  1.
          2   -1    0    0  501    0  0.00000000000E+00 -0.00000000000E+00 -0.80281388533E+03  0.80281388533E+03  0.00000000000E+00 0. -1.
         24    2    1    2    0    0 -0.30171177348E+03 -0.51482312797E+03  0.26127444168E+03  0.65600483725E+03  0.77493001424E+02 0.  0.
        254    2    1    2    0    0  0.30171177348E+03  0.51482312797E+03 -0.12459326584E+03  0.10863041092E+04  0.89914419785E+03 0.  0.
         23    2    4    4    0    0  0.13386223517E+03 -0.18118007213E+03 -0.25600099692E+03  0.35294162642E+03  0.91027274455E+02 0.  0.
         23    2    4    4    0    0  0.16784953831E+03  0.69600320010E+03  0.13140773108E+03  0.73336248283E+03  0.89211083259E+02 0.  0.
          4    1    3    3  502    0 -0.47897620947E+02 -0.37714197137E+02  0.33315827385E+02  0.69472923593E+02  0.00000000000E+00 0. -1.
         -3    1    3    3    0  502 -0.25381415253E+03 -0.47710893084E+03  0.22795861430E+03  0.58653191366E+03  0.00000000000E+00 0.  1.
         11    1    5    5    0    0  0.11748959054E+03 -0.15424615742E+03 -0.25634948075E+03  0.32141987687E+03  0.00000000000E+00 0. -1.
        -11    1    5    5    0    0  0.16372644625E+02 -0.26933914710E+02  0.34848383504E+00  0.31521749549E+02  0.00000000000E+00 0.  1.
          2    1    6    6  503    0  0.96867267004E+02  0.53786940350E+03  0.12073668735E+03  0.55970001815E+03  0.00000000000E+00 0. -1.
         -2    1    6    6    0  503  0.70982271303E+02  0.15813379660E+03  0.10671043727E+02  0.17366246468E+03  0.00000000000E+00 0.  1.
<mgrwt>
<rscale>  0 0.17369395E+04</rscale>
<asrwt>0</asrwt>
<pdfrwt beam="1">  1        2 0.12350983E+00 0.17369395E+04</pdfrwt>
<pdfrwt beam="2">  1       -1 0.14453770E+00 0.17369395E+04</pdfrwt>
<totfact> 0.14310566E+01</totfact>
</mgrwt>
</event>
<event>
12    6  0.1462228E-007  0.1279167E+04  0.7818608E-02  0.9046251E-01
         -1   -1    0    0    0  501 -0.00000000000E+00  0.00000000000E+00  0.17006883160E+03  0.17006883160E+03  0.00000000000E+00 0.  1.
          2   -1    0    0  501    0  0.00000000000E+00 -0.00000000000E+00 -0.24053037561E+04  0.24053037561E+04  0.00000000000E+00 0. -1.
         24    2    1    2    0    0  0.16904561731E+03  0.14205377636E+03 -0.10413060388E+04  0.10673827876E+04  0.78943350748E+02 0.  0.
        254    2    1    2    0    0 -0.16904561731E+03 -0.14205377636E+03 -0.11939288857E+04  0.15079898001E+04  0.89432173021E+03 0.  0.
         23    2    4    4    0    0 -0.44071979842E+03 -0.43615599416E+02 -0.24926532884E+03  0.51590600392E+03  0.88823079662E+02 0.  0.
         23    2    4    4    0    0  0.27167418112E+03 -0.98438176941E+02 -0.94466355684E+03  0.99208379621E+03  0.91345978130E+02 0.  0.
          4    1    3    3  502    0  0.16438312254E+03  0.10263804378E+03 -0.82405563282E+03  0.84653651131E+03  0.00000000000E+00 0. -1.
         -3    1    3    3    0  502  0.46624947642E+01  0.39415732576E+02 -0.21725040599E+03  0.22084627625E+03  0.00000000000E+00 0.  1.
         11    1    5    5    0    0 -0.20213814130E+03 -0.59579597868E+02 -0.14005544186E+03  0.25303178347E+03  0.00000000000E+00 0. -1.
        -11    1    5    5    0    0 -0.23858165712E+03  0.15963998452E+02 -0.10920988698E+03  0.26287422044E+03  0.00000000000E+00 0.  1.
          4    1    6    6  503    0  0.57322419261E+01  0.42582949711E+01 -0.10700158404E+03  0.10723959465E+03  0.00000000000E+00 0. -1.
         -4    1    6    6    0  503  0.26594193919E+03 -0.10269647191E+03 -0.83766197280E+03  0.88484420156E+03  0.00000000000E+00 0.  1.
<mgrwt>
<rscale>  0 0.12791672E+04</rscale>
<asrwt>0</asrwt>
<pdfrwt beam="1">  1        2 0.37004670E+00 0.12791672E+04</pdfrwt>
<pdfrwt beam="2">  1       -1 0.26164438E-01 0.12791672E+04</pdfrwt>
<totfact> 0.57391241E+01</totfact>
</mgrwt>
</event>
<event>
12    6  0.1462228E-007  0.1937515E+04  0.7818608E-02  0.8636405E-01
          2   -1    0    0  501    0  0.00000000000E+00  0.00000000000E+00  0.20288025098E+04  0.20288025098E+04  0.00000000000E+00 0. -1.
         -1   -1    0    0    0  501 -0.00000000000E+00 -0.00000000000E+00 -0.46258391588E+03  0.46258391588E+03  0.00000000000E+00 0.  1.
         24    2    1    2    0    0  0.70736363665E+03 -0.25788869471E+03  0.52719514089E+03  0.92263994521E+03  0.80373245566E+02 0.  0.
        254    2    1    2    0    0 -0.70736363665E+03  0.25788869471E+03  0.10390234531E+04  0.15687464805E+04  0.90251088125E+03 0.  0.
         23    2    4    4    0    0 -0.10852292399E+03  0.49962204647E+03  0.40026857080E+03  0.65585530039E+03  0.92367916121E+02 0.  0.
         23    2    4    4    0    0 -0.59884071266E+03 -0.24173335175E+03  0.63875488226E+03  0.91289118012E+03  0.91199203021E+02 0.  0.
          4    1    3    3  502    0  0.66283906021E+03 -0.23690359347E+03  0.51425982008E+03  0.87174657722E+03  0.00000000000E+00 0. -1.
         -3    1    3    3    0  502  0.44524576438E+02 -0.20985101243E+02  0.12935320811E+02  0.50893367992E+02  0.00000000000E+00 0.  1.
         11    1    5    5    0    0 -0.28461262143E+02  0.20365715044E+03  0.10801672634E+03  0.23227976997E+03  0.00000000000E+00 0. -1.
        -11    1    5    5    0    0 -0.80061661847E+02  0.29596489603E+03  0.29225184446E+03  0.42357553042E+03  0.00000000000E+00 0.  1.
          2    1    6    6  503    0 -0.56737194015E+03 -0.24461869510E+03  0.62356828332E+03  0.87783063766E+03  0.00000000000E+00 0. -1.
         -2    1    6    6    0  503 -0.31468772516E+02  0.28853433416E+01  0.15186598941E+02  0.35060542456E+02  0.00000000000E+00 0.  1.
<mgrwt>
<rscale>  0 0.19375153E+04</rscale>
<asrwt>0</asrwt>
<pdfrwt beam="1">  1        2 0.31212346E+00 0.19375153E+04</pdfrwt>
<pdfrwt beam="2">  1       -1 0.71166757E-01 0.19375153E+04</pdfrwt>
<totfact> 0.13650962E+01</totfact>
</mgrwt>
</event>
<event>
12    6  0.1462228E-007  0.2176233E+04  0.7818608E-02  0.8528386E-01
          2   -1    0    0  501    0  0.00000000000E+00  0.00000000000E+00  0.22937925040E+04  0.22937925040E+04  0.00000000000E+00 0. -1.
         -1   -1    0    0    0  501 -0.00000000000E+00 -0.00000000000E+00 -0.51617478937E+03  0.51617478937E+03  0.00000000000E+00 0.  1.
         24    2    1    2    0    0 -0.83401569336E+03  0.31149982761E+03  0.54452784192E+03  0.10465475616E+04  0.78338423611E+02 0.  0.
        254    2    1    2    0    0  0.83401569336E+03 -0.31149982761E+03  0.12330898727E+04  0.17634197318E+04  0.89248204294E+03 0.  0.
         23    2    4    4    0    0  0.69331277315E+02  0.23954574316E+03  0.92200631976E+02  0.28073814449E+03  0.90133013672E+02 0.  0.
         23    2    4    4    0    0  0.76468441605E+03 -0.55104557078E+03  0.11408892408E+04  0.14826815873E+04  0.91230217189E+02 0.  0.
          4    1    3    3  502    0 -0.49080174963E+02  0.58709340268E+00  0.37049279029E+02  0.61496807476E+02  0.00000000000E+00 0. -1.
         -3    1    3    3    0  502 -0.78493551840E+03  0.31091273421E+03  0.50747856289E+03  0.98505075409E+03  0.00000000000E+00 0.  1.
         11    1    5    5    0    0  0.39133435574E+02  0.22655908741E+03  0.67492468514E+02  0.23961569059E+03  0.00000000000E+00 0. -1.
        -11    1    5    5    0    0  0.30197841741E+02  0.12986655750E+02  0.24708163462E+02  0.41122453903E+02  0.00000000000E+00 0.  1.
          4    1    6    6  503    0  0.70673109792E+03 -0.47639412223E+03  0.10191748348E+04  0.13285847916E+04  0.00000000000E+00 0. -1.
         -4    1    6    6    0  503  0.57953318124E+02 -0.74651448547E+02  0.12171440593E+03  0.15409679576E+03  0.00000000000E+00 0.  1.
<mgrwt>
<rscale>  0 0.21762333E+04</rscale>
<asrwt>0</asrwt>
<pdfrwt beam="1">  1        2 0.35289115E+00 0.21762333E+04</pdfrwt>
<pdfrwt beam="2">  1       -1 0.79411507E-01 0.21762333E+04</pdfrwt>
<totfact> 0.75485251E+00</totfact>
</mgrwt>
</event>
<event>
12    6  0.1462228E-007  0.1806569E+04  0.7818608E-02  0.8702814E-01
          2   -1    0    0  501    0  0.00000000000E+00  0.00000000000E+00  0.95159962794E+03  0.95159962794E+03  0.00000000000E+00 0. -1.
         -1   -1    0    0    0  501 -0.00000000000E+00 -0.00000000000E+00 -0.85742280419E+03  0.85742280419E+03  0.00000000000E+00 0.  1.
         24    2    1    2    0    0  0.68076581023E+03  0.47106082132E+02  0.35893604607E+02  0.68792141103E+03  0.79287108352E+02 0.  0.
        254    2    1    2    0    0 -0.68076581023E+03 -0.47106082132E+02  0.58283219147E+02  0.11211010211E+04  0.88758633076E+03 0.  0.
         23    2    4    4    0    0 -0.39064618405E+03  0.39348895170E+03  0.14172664073E+03  0.57940310243E+03  0.90462799987E+02 0.  0.
         23    2    4    4    0    0 -0.29011962618E+03 -0.44059503384E+03 -0.83443421587E+02  0.54169791868E+03  0.90445835517E+02 0.  0.
          4    1    3    3  502    0  0.68195035666E+03  0.47945230402E+02  0.38735502655E+02  0.68473021931E+03  0.00000000000E+00 0. -1.
         -3    1    3    3    0  502 -0.11845464341E+01 -0.83914827037E+00 -0.28418980477E+01  0.31911917191E+01  0.00000000000E+00 0.  1.
         11    1    5    5    0    0 -0.27505397403E+03  0.28162684617E+03  0.57523483226E+02  0.39784082274E+03  0.00000000000E+00 0. -1.
        -11    1    5    5    0    0 -0.11559221002E+03  0.11186210554E+03  0.84203157508E+02  0.18156227969E+03  0.00000000000E+00 0.  1.
          4    1    6    6  503    0 -0.79577037637E+02 -0.18459838653E+03 -0.49771315971E+01  0.20108167760E+03  0.00000000000E+00 0. -1.
         -4    1    6    6    0  503 -0.21054258854E+03 -0.25599664731E+03 -0.78466289990E+02  0.34061624108E+03  0.00000000000E+00 0.  1.
<mgrwt>
<rscale>  0 0.18065694E+04</rscale>
<asrwt>0</asrwt>
<pdfrwt beam="1">  1        2 0.14639994E+00 0.18065694E+04</pdfrwt>
<pdfrwt beam="2">  1       -1 0.13191120E+00 0.18065694E+04</pdfrwt>
<totfact> 0.14252224E+01</totfact>
</mgrwt>
</event>
<event>
12    6  0.1462228E-007  0.1794937E+04  0.7818608E-02  0.8708997E-01
         -1   -1    0    0    0  501 -0.00000000000E+00  0.00000000000E+00  0.33762597091E+03  0.33762597091E+03  0.00000000000E+00 0.  1.
          2   -1    0    0  501    0  0.00000000000E+00 -0.00000000000E+00 -0.23856270337E+04  0.23856270337E+04  0.00000000000E+00 0. -1.
         24    2    1    2    0    0 -0.23264695372E+03 -0.27289699246E+03 -0.16255266745E+04  0.16658534123E+04  0.64290343752E+02 0.  0.
        254    2    1    2    0    0  0.23264695372E+03  0.27289699246E+03 -0.42247438835E+03  0.10573995923E+04  0.90056199981E+03 0.  0.
         23    2    4    4    0    0  0.25518955900E+03  0.30614715326E+03  0.18001390697E+03  0.44695690393E+03  0.92291260681E+02 0.  0.
         23    2    4    4    0    0 -0.22542605281E+02 -0.33250160803E+02 -0.60248829532E+03  0.61044268841E+03  0.89634745401E+02 0.  0.
          2    1    3    3  502    0 -0.19917026920E+03 -0.23047484408E+03 -0.14693319426E+04  0.15005744925E+04  0.00000000000E+00 0. -1.
         -1    1    3    3    0  502 -0.33476684520E+02 -0.42422148380E+02 -0.15619473189E+03  0.16527891986E+03  0.00000000000E+00 0.  1.
         11    1    5    5    0    0  0.20270998283E+03  0.28963256313E+03  0.16361076116E+03  0.38954696756E+03  0.00000000000E+00 0. -1.
        -11    1    5    5    0    0  0.52479576168E+02  0.16514590125E+02  0.16403145809E+02  0.57409936372E+02  0.00000000000E+00 0.  1.
          2    1    6    6  503    0 -0.51933536450E+01 -0.12940011621E+02 -0.56053001275E+03  0.56070340646E+03  0.00000000000E+00 0. -1.
         -2    1    6    6    0  503 -0.17349251636E+02 -0.20310149182E+02 -0.41958282570E+02  0.49739281944E+02  0.00000000000E+00 0.  1.
<mgrwt>
<rscale>  0 0.17949369E+04</rscale>
<asrwt>0</asrwt>
<pdfrwt beam="1">  1        2 0.36701954E+00 0.17949369E+04</pdfrwt>
<pdfrwt beam="2">  1       -1 0.51942457E-01 0.17949369E+04</pdfrwt>
<totfact> 0.16271402E+01</totfact>
</mgrwt>
</event>
<event>
12    6  0.1462228E-007  0.2195194E+04  0.7818608E-02  0.8520431E-01
         -1   -1    0    0    0  501 -0.00000000000E+00  0.00000000000E+00  0.17900392099E+04  0.17900392099E+04  0.00000000000E+00 0.  1.
          2   -1    0    0  501    0  0.00000000000E+00 -0.00000000000E+00 -0.67301292921E+03  0.67301292921E+03  0.00000000000E+00 0. -1.
         24    2    1    2    0    0 -0.10885306537E+03  0.22406920855E+02 -0.54961575103E+03  0.56634815196E+03  0.79509090688E+02 0.  0.
        254    2    1    2    0    0  0.10885306537E+03 -0.22406920855E+02  0.16666420317E+04  0.18967039872E+04  0.89857625889E+03 0.  0.
         23    2    4    4    0    0 -0.17184416804E+03  0.36817870435E+03  0.74778950807E+03  0.85568715488E+03  0.89024615886E+02 0.  0.
         23    2    4    4    0    0  0.28069723341E+03 -0.39058562520E+03  0.91885252365E+03  0.10410168323E+04  0.89877791366E+02 0.  0.
          4    1    3    3  502    0 -0.10238394428E+03  0.24059956823E+02 -0.54969980490E+03  0.55967064339E+03  0.00000000000E+00 0. -1.
         -3    1    3    3    0  502 -0.64691210900E+01 -0.16530359680E+01  0.84053868515E-01  0.66775085654E+01  0.00000000000E+00 0.  1.
         11    1    5    5    0    0 -0.60238769118E+02  0.13022245363E+03  0.35681263140E+03  0.38458009655E+03  0.00000000000E+00 0.  1.
        -11    1    5    5    0    0 -0.11160539892E+03  0.23795625072E+03  0.39097687666E+03  0.47110705833E+03  0.00000000000E+00 0. -1.
          3    1    6    6  503    0  0.27415096836E+03 -0.37420387305E+03  0.90968961852E+03  0.10211378429E+04  0.00000000000E+00 0. -1.
         -3    1    6    6    0  503  0.65462650506E+01 -0.16381752151E+02  0.91629051284E+01  0.19878989412E+02  0.00000000000E+00 0.  1.
<mgrwt>
<rscale>  0 0.21951943E+04</rscale>
<asrwt>0</asrwt>
<pdfrwt beam="1">  1        2 0.10354045E+00 0.21951943E+04</pdfrwt>
<pdfrwt beam="2">  1       -1 0.27539065E+00 0.21951943E+04</pdfrwt>
<totfact> 0.21424383E+00</totfact>
</mgrwt>
</event>
<event>
12    6  0.1462228E-007  0.1690784E+04  0.7818608E-02  0.8766638E-01
          2   -1    0    0  501    0  0.00000000000E+00  0.00000000000E+00  0.18104859311E+04  0.18104859311E+04  0.00000000000E+00 0. -1.
         -1   -1    0    0    0  501 -0.00000000000E+00 -0.00000000000E+00 -0.39474898367E+03  0.39474898367E+03  0.00000000000E+00 0.  1.
         24    2    1    2    0    0 -0.49282171437E+03  0.29910183749E+03  0.28200736496E+03  0.64606475148E+03  0.74406705866E+02 0.  0.
        254    2    1    2    0    0  0.49282171437E+03 -0.29910183749E+03  0.11337295824E+04  0.15591701632E+04  0.90185014305E+03 0.  0.
         23    2    4    4    0    0 -0.18937304432E+03 -0.18319796903E+03  0.69657300208E+02  0.28654522423E+03  0.88500736074E+02 0.  0.
         23    2    4    4    0    0  0.68219475869E+03 -0.11590386846E+03  0.10640722822E+04  0.12726249390E+04  0.92200965828E+02 0.  0.
          4    1    3    3  502    0 -0.21048506650E+03  0.93355572461E+02  0.13606096742E+03  0.26745431944E+03  0.00000000000E+00 0. -1.
         -3    1    3    3    0  502 -0.28233664786E+03  0.20574626503E+03  0.14594639754E+03  0.37861043205E+03  0.00000000000E+00 0.  1.
         11    1    5    5    0    0 -0.64844403504E+02 -0.12096331397E+03  0.19778568137E+02  0.13866546704E+03  0.00000000000E+00 0.  1.
        -11    1    5    5    0    0 -0.12452864081E+03 -0.62234655063E+02  0.49878732070E+02  0.14787975719E+03  0.00000000000E+00 0. -1.
          3    1    6    6  503    0  0.18432511066E+03 -0.66649231126E+02  0.25982801652E+03  0.32546653376E+03  0.00000000000E+00 0. -1.
         -3    1    6    6    0  503  0.49786964803E+03 -0.49254637336E+02  0.80424426570E+03  0.94715840525E+03  0.00000000000E+00 0.  1.
<mgrwt>
<rscale>  0 0.16907838E+04</rscale>
<asrwt>0</asrwt>
<pdfrwt beam="1">  1        2 0.27853629E+00 0.16907838E+04</pdfrwt>
<pdfrwt beam="2">  1       -1 0.60730614E-01 0.16907838E+04</pdfrwt>
<totfact> 0.25391624E+01</totfact>
</mgrwt>
</event>
<event>
12    6  0.1462228E-007  0.1409860E+04  0.7818608E-02  0.8946712E-01
          2   -1    0    0  501    0  0.00000000000E+00  0.00000000000E+00  0.97986024415E+03  0.97986024415E+03  0.00000000000E+00 0. -1.
         -1   -1    0    0    0  501 -0.00000000000E+00 -0.00000000000E+00 -0.50714004428E+03  0.50714004428E+03  0.00000000000E+00 0.  1.
         24    2    1    2    0    0 -0.46940389495E+02 -0.58379111241E+02 -0.28054264741E+03  0.30015831747E+03  0.76021824094E+02 0.  0.
        254    2    1    2    0    0  0.46940389495E+02  0.58379111241E+02  0.75326284727E+03  0.11868419710E+04  0.91409924305E+03 0.  0.
         23    2    4    4    0    0 -0.87075991945E+02 -0.38711233756E+03  0.51498536849E+03  0.65629235056E+03  0.89841690637E+02 0.  0.
         23    2    4    4    0    0  0.13401638144E+03  0.44549144881E+03  0.23827747878E+03  0.53054962039E+03  0.91014951264E+02 0.  0.
          2    1    3    3  502    0  0.16564221199E+02 -0.34243162181E+02 -0.84178957616E+02  0.92374587877E+02  0.00000000000E+00 0. -1.
         -1    1    3    3    0  502 -0.63504610694E+02 -0.24135949061E+02 -0.19636368979E+03  0.20778372960E+03  0.00000000000E+00 0.  1.
         11    1    5    5    0    0 -0.35777054508E+02 -0.31518198789E+03  0.38043707009E+03  0.49533024076E+03  0.00000000000E+00 0. -1.
        -11    1    5    5    0    0 -0.51298937437E+02 -0.71930349674E+02  0.13454829841E+03  0.16096210980E+03  0.00000000000E+00 0.  1.
          4    1    6    6  503    0  0.55428953703E+02  0.16008868343E+03  0.39435729551E+02  0.17394232445E+03  0.00000000000E+00 0.  1.
         -4    1    6    6    0  503  0.78587427736E+02  0.28540276538E+03  0.19884174923E+03  0.35660729594E+03  0.00000000000E+00 0. -1.
<mgrwt>
<rscale>  0 0.14098601E+04</rscale>
<asrwt>0</asrwt>
<pdfrwt beam="1">  1        2 0.15074773E+00 0.14098601E+04</pdfrwt>
<pdfrwt beam="2">  1       -1 0.78021545E-01 0.14098601E+04</pdfrwt>
<totfact> 0.47397955E+01</totfact>
</mgrwt>
</event>
<event>
12    6  0.1462228E-007  0.1380612E+04  0.7818608E-02  0.8967973E-01
          2   -1    0    0  501    0  0.00000000000E+00  0.00000000000E+00  0.13714784598E+04  0.13714784598E+04  0.00000000000E+00 0. -1.
         -1   -1    0    0    0  501 -0.00000000000E+00 -0.00000000000E+00 -0.34745183892E+03  0.34745183892E+03  0.00000000000E+00 0.  1.
         24    2    1    2    0    0 -0.34180701253E+03 -0.20360140177E+03  0.20420601265E+03  0.45459509261E+03  0.81676422581E+02 0.  0.
        254    2    1    2    0    0  0.34180701253E+03  0.20360140177E+03  0.81982060826E+03  0.12643352061E+04  0.87644287842E+03 0.  0.
         23    2    4    4    0    0 -0.25668610129E+03  0.23044759687E+03  0.29945667367E+03  0.46548532280E+03  0.89489870050E+02 0.  0.
         23    2    4    4    0    0  0.59849311382E+03 -0.26846195096E+02  0.52036393459E+03  0.79884988334E+03  0.92020574905E+02 0.  0.
          2    1    3    3  502    0 -0.14525512852E+02  0.57491120343E+01 -0.13718866575E+00  0.15622472068E+02  0.00000000000E+00 0. -1.
         -1    1    3    3    0  502 -0.32728149968E+03 -0.20935051381E+03  0.20434320131E+03  0.43897262055E+03  0.00000000000E+00 0.  1.
         11    1    5    5    0    0 -0.23967838463E+03  0.18188384396E+03  0.22837287726E+03  0.37773222237E+03  0.00000000000E+00 0.  1.
        -11    1    5    5    0    0 -0.17007716658E+02  0.48563752913E+02  0.71083796407E+02  0.87753100427E+02  0.00000000000E+00 0. -1.
          3    1    6    6  503    0  0.29491761411E+03 -0.16781336189E+01  0.31475982184E+03  0.43133856851E+03  0.00000000000E+00 0.  1.
         -3    1    6    6    0  503  0.30357549971E+03 -0.25168061477E+02  0.20560411275E+03  0.36751131482E+03  0.00000000000E+00 0. -1.
<mgrwt>
<rscale>  0 0.13806125E+04</rscale>
<asrwt>0</asrwt>
<pdfrwt beam="1">  1        2 0.21099668E+00 0.13806125E+04</pdfrwt>
<pdfrwt beam="2">  1       -1 0.53454130E-01 0.13806125E+04</pdfrwt>
<totfact> 0.58932052E+01</totfact>
</mgrwt>
</event>
<event>
12    6  0.1462228E-007  0.1767208E+04  0.7818608E-02  0.8723935E-01
          2   -1    0    0  501    0  0.00000000000E+00  0.00000000000E+00  0.14011131621E+04  0.14011131621E+04  0.00000000000E+00 0. -1.
         -1   -1    0    0    0  501 -0.00000000000E+00 -0.00000000000E+00 -0.55723981159E+03  0.55723981159E+03  0.00000000000E+00 0.  1.
         24    2    1    2    0    0 -0.15212391183E+03 -0.31419196255E+03  0.92889348154E+03  0.99439701143E+03  0.64218707746E+02 0.  0.
        254    2    1    2    0    0  0.15212391183E+03  0.31419196255E+03 -0.85020131045E+02  0.96395596225E+03  0.89449673034E+03 0.  0.
         23    2    4    4    0    0  0.69169946265E+01  0.60942754211E+03 -0.25804224718E+02  0.61674887952E+03  0.90904061988E+02 0.  0.
         23    2    4    4    0    0  0.14520691720E+03 -0.29523557956E+03 -0.59215906327E+02  0.34720708272E+03  0.93793062055E+02 0.  0.
          2    1    3    3  502    0 -0.18271792798E+02 -0.40614463166E+02  0.19091029067E+03  0.19603604799E+03  0.00000000000E+00 0. -1.
         -1    1    3    3    0  502 -0.13385211903E+03 -0.27357749938E+03  0.73798319087E+03  0.79836096344E+03  0.00000000000E+00 0.  1.
         11    1    5    5    0    0  0.47412757917E+02  0.39493184125E+03 -0.10016968044E+02  0.39789379047E+03  0.00000000000E+00 0. -1.
        -11    1    5    5    0    0 -0.40495763290E+02  0.21449570086E+03 -0.15787256674E+02  0.21885508905E+03  0.00000000000E+00 0.  1.
          1    1    6    6  503    0  0.25920588959E+02 -0.14982645218E+03 -0.45105794172E+02  0.15860130949E+03  0.00000000000E+00 0. -1.
         -1    1    6    6    0  503  0.11928632824E+03 -0.14540912738E+03 -0.14110112155E+02  0.18860577323E+03  0.00000000000E+00 0.  1.
<mgrwt>
<rscale>  0 0.17672080E+04</rscale>
<asrwt>0</asrwt>
<pdfrwt beam="1">  1        2 0.21555587E+00 0.17672080E+04</pdfrwt>
<pdfrwt beam="2">  1       -1 0.85729202E-01 0.17672080E+04</pdfrwt>
<totfact> 0.20948771E+01</totfact>
</mgrwt>
</event>
<event>
12    6  0.1462228E-007  0.1571178E+04  0.7818608E-02  0.8838453E-01
         -1   -1    0    0    0  501 -0.00000000000E+00  0.00000000000E+00  0.10664028404E+04  0.10664028404E+04  0.00000000000E+00 0.  1.
          2   -1    0    0  501    0  0.00000000000E+00 -0.00000000000E+00 -0.57872156611E+03  0.57872156611E+03  0.00000000000E+00 0. -1.
         24    2    1    2    0    0 -0.23261225157E+03 -0.10060771757E+03  0.66912326294E+03  0.72007086300E+03  0.80905712458E+02 0.  0.
        254    2    1    2    0    0  0.23261225157E+03  0.10060771757E+03 -0.18144198869E+03  0.92505354348E+03  0.87096067111E+03 0.  0.
         23    2    4    4    0    0 -0.17977154414E+03 -0.13588852767E+03  0.19560550112E+03  0.31216874683E+03  0.91675047809E+02 0.  0.
         23    2    4    4    0    0  0.41238379572E+03  0.23649624525E+03 -0.37704748982E+03  0.61288479665E+03  0.86441282991E+02 0.  0.
          2    1    3    3  502    0 -0.14241445487E+03 -0.81158291514E+02  0.51480348492E+03  0.54026953766E+03  0.00000000000E+00 0. -1.
         -1    1    3    3    0  502 -0.90197796702E+02 -0.19449426060E+02  0.15431977803E+03  0.17980132534E+03  0.00000000000E+00 0.  1.
         11    1    5    5    0    0 -0.11179591166E+03 -0.54870591008E+02  0.15512400442E+03  0.19892854086E+03  0.00000000000E+00 0. -1.
        -11    1    5    5    0    0 -0.67975632478E+02 -0.81017936664E+02  0.40481496705E+02  0.11324020597E+03  0.00000000000E+00 0.  1.
          4    1    6    6  503    0  0.41176021936E+03  0.22507171308E+03 -0.35632096665E+03  0.58920996729E+03  0.00000000000E+00 0. -1.
         -4    1    6    6    0  503  0.62357635155E+00  0.11424532171E+02 -0.20726523167E+02  0.23674829364E+02  0.00000000000E+00 0.  1.
<mgrwt>
<rscale>  0 0.15711783E+04</rscale>
<asrwt>0</asrwt>
<pdfrwt beam="1">  1        2 0.89034087E-01 0.15711783E+04</pdfrwt>
<pdfrwt beam="2">  1       -1 0.16406198E+00 0.15711783E+04</pdfrwt>
<totfact> 0.15493716E+01</totfact>
</mgrwt>
</event>
<event>
12    6  0.1462228E-007  0.1976282E+04  0.7818608E-02  0.8617791E-01
         -1   -1    0    0    0  501 -0.00000000000E+00  0.00000000000E+00  0.30973360097E+03  0.30973360097E+03  0.00000000000E+00 0.  1.
          2   -1    0    0  501    0  0.00000000000E+00 -0.00000000000E+00 -0.31524598302E+04  0.31524598302E+04  0.00000000000E+00 0. -1.
         24    2    1    2    0    0 -0.39498781851E+03  0.29560177588E+03 -0.91378698857E+02  0.50828878018E+03  0.81311935003E+02 0.  0.
        254    2    1    2    0    0  0.39498781851E+03 -0.29560177588E+03 -0.27513475304E+04  0.29539046510E+04  0.95511447876E+03 0.  0.
         23    2    4    4    0    0  0.22885966294E+03 -0.50741574472E+03 -0.25335880360E+04  0.25955405433E+04  0.88965681340E+02 0.  0.
         23    2    4    4    0    0  0.16612815557E+03  0.21181396884E+03 -0.21775949445E+03  0.35836410775E+03  0.92422480141E+02 0.  0.
          4    1    3    3  502    0 -0.27074540958E+03  0.17567465919E+03 -0.26535050829E+02  0.32383448181E+03  0.00000000000E+00 0. -1.
         -3    1    3    3    0  502 -0.12424240893E+03  0.11992711670E+03 -0.64843648028E+02  0.18445429837E+03  0.00000000000E+00 0.  1.
         11    1    5    5    0    0  0.14937045944E+03 -0.41162485201E+03 -0.20437417791E+04  0.20901260758E+04  0.00000000000E+00 0.  1.
        -11    1    5    5    0    0  0.79489203504E+02 -0.95790892708E+02 -0.48984625688E+03  0.50541446752E+03  0.00000000000E+00 0. -1.
          2    1    6    6  503    0  0.53175267803E+02  0.12976996007E+03 -0.14177875605E+03  0.19942183258E+03  0.00000000000E+00 0. -1.
         -2    1    6    6    0  503  0.11295288777E+03  0.82044008767E+02 -0.75980738398E+02  0.15894227517E+03  0.00000000000E+00 0.  1.
<mgrwt>
<rscale>  0 0.19762821E+04</rscale>
<asrwt>0</asrwt>
<pdfrwt beam="1">  1        2 0.48499381E+00 0.19762821E+04</pdfrwt>
<pdfrwt beam="2">  1       -1 0.47651324E-01 0.19762821E+04</pdfrwt>
<totfact> 0.65099034E+00</totfact>
</mgrwt>
</event>
<event>
12    6  0.1462228E-007  0.1982997E+04  0.7818608E-02  0.8614612E-01
          2   -1    0    0  501    0  0.00000000000E+00  0.00000000000E+00  0.22096773621E+04  0.22096773621E+04  0.00000000000E+00 0. -1.
         -1   -1    0    0    0  501 -0.00000000000E+00 -0.00000000000E+00 -0.44489264008E+03  0.44489264008E+03  0.00000000000E+00 0.  1.
         24    2    1    2    0    0  0.44121577894E+03 -0.89790972916E+02 -0.16157327131E+03  0.48484152142E+03  0.78940461667E+02 0.  0.
        254    2    1    2    0    0 -0.44121577894E+03  0.89790972916E+02  0.19263579933E+04  0.21697284807E+04  0.89114127910E+03 0.  0.
         23    2    4    4    0    0 -0.66671052385E+03  0.16883292161E+03  0.16678163527E+04  0.18063322931E+04  0.90650364198E+02 0.  0.
         23    2    4    4    0    0  0.22549474490E+03 -0.79041948696E+02  0.25854164061E+03  0.36339618769E+03  0.90097167916E+02 0.  0.
          2    1    3    3  502    0  0.31807630354E+02 -0.16735585515E+02 -0.34910333393E+02  0.50105254703E+02  0.00000000000E+00 0. -1.
         -1    1    3    3    0  502  0.40940814859E+03 -0.73055387401E+02 -0.12666293791E+03  0.43473626672E+03  0.00000000000E+00 0.  1.
         11    1    5    5    0    0 -0.62221499668E+03  0.17911246873E+03  0.15747329774E+04  0.17026499137E+04  0.00000000000E+00 0. -1.
        -11    1    5    5    0    0 -0.44495527171E+02 -0.10279547119E+02  0.93083375314E+02  0.10368237935E+03  0.00000000000E+00 0.  1.
          4    1    6    6  503    0  0.22678145019E+03 -0.67778344169E+02  0.26041160222E+03  0.35190614183E+03  0.00000000000E+00 0. -1.
         -4    1    6    6    0  503 -0.12867052876E+01 -0.11263604528E+02 -0.18699616079E+01  0.11490045860E+02  0.00000000000E+00 0.  1.
<mgrwt>
<rscale>  0 0.19829969E+04</rscale>
<asrwt>0</asrwt>
<pdfrwt beam="1">  1        2 0.33995036E+00 0.19829969E+04</pdfrwt>
<pdfrwt beam="2">  1       -1 0.68445023E-01 0.19829969E+04</pdfrwt>
<totfact> 0.11670101E+01</totfact>
</mgrwt>
</event>
<event>
12    6  0.1462228E-007  0.2268882E+04  0.7818608E-02  0.8490292E-01
         -1   -1    0    0    0  501 -0.00000000000E+00  0.00000000000E+00  0.54305751953E+03  0.54305751953E+03  0.00000000000E+00 0.  1.
          2   -1    0    0  501    0  0.00000000000E+00 -0.00000000000E+00 -0.23698352541E+04  0.23698352541E+04  0.00000000000E+00 0. -1.
         24    2    1    2    0    0  0.26813528084E+03  0.23045046082E+03  0.36599247369E+03  0.51586782301E+03  0.84647364326E+02 0.  0.
        254    2    1    2    0    0 -0.26813528084E+03 -0.23045046082E+03 -0.21927702082E+04  0.23970249506E+04  0.90137865734E+03 0.  0.
         23    2    4    4    0    0 -0.44959903698E+03 -0.92651187236E+02 -0.49393944437E+03  0.68051843897E+03  0.91682247613E+02 0.  0.
         23    2    4    4    0    0  0.18146375613E+03 -0.13779927359E+03 -0.16988307639E+04  0.17165065116E+04  0.91928807226E+02 0.  0.
          2    1    3    3  502    0  0.11279312500E+03  0.56591278184E+02  0.16718425214E+03  0.20946464136E+03  0.00000000000E+00 0. -1.
         -1    1    3    3    0  502  0.15534215584E+03  0.17385918264E+03  0.19880822155E+03  0.30640318165E+03  0.00000000000E+00 0.  1.
         11    1    5    5    0    0 -0.43814792330E+03 -0.79515908358E+02 -0.44925113280E+03  0.63255273511E+03  0.00000000000E+00 0. -1.
        -11    1    5    5    0    0 -0.11451113674E+02 -0.13135278878E+02 -0.44688311570E+02  0.47965703858E+02  0.00000000000E+00 0.  1.
          3    1    6    6  503    0  0.16021058073E+03 -0.15084283807E+03 -0.14821771249E+04  0.14984225110E+04  0.00000000000E+00 0. -1.
         -3    1    6    6    0  503  0.21253175402E+02  0.13043564483E+02 -0.21665363896E+03  0.21808400059E+03  0.00000000000E+00 0.  1.
<mgrwt>
<rscale>  0 0.22688824E+04</rscale>
<asrwt>0</asrwt>
<pdfrwt beam="1">  1        2 0.36459004E+00 0.22688824E+04</pdfrwt>
<pdfrwt beam="2">  1       -1 0.83547310E-01 0.22688824E+04</pdfrwt>
<totfact> 0.60798934E+00</totfact>
</mgrwt>
</event>
<event>
12    6  0.1462228E-007  0.1691905E+04  0.7818608E-02  0.8765995E-01
          2   -1    0    0  501    0  0.00000000000E+00  0.00000000000E+00  0.11601856201E+04  0.11601856201E+04  0.00000000000E+00 0. -1.
         -1   -1    0    0    0  501 -0.00000000000E+00 -0.00000000000E+00 -0.61682853237E+03  0.61682853237E+03  0.00000000000E+00 0.  1.
         24    2    1    2    0    0  0.31184444784E+03 -0.27606448830E+03 -0.24988631150E+03  0.49107821475E+03  0.72498848111E+02 0.  0.
        254    2    1    2    0    0 -0.31184444784E+03  0.27606448830E+03  0.79324339926E+03  0.12859359377E+04  0.92246278198E+03 0.  0.
         23    2    4    4    0    0 -0.31552698685E+02 -0.30487925666E+03  0.10070531589E+03  0.33513513997E+03  0.90703183291E+02 0.  0.
         23    2    4    4    0    0 -0.28029174916E+03  0.58094374495E+03  0.69253808338E+03  0.95080079777E+03  0.91400550698E+02 0.  0.
          4    1    3    3  502    0  0.32480659037E+02 -0.53850621870E+02 -0.18015951628E+02  0.65417560336E+02  0.00000000000E+00 0. -1.
         -3    1    3    3    0  502  0.27936378881E+03 -0.22221386643E+03 -0.23187035988E+03  0.42566065442E+03  0.00000000000E+00 0.  1.
         11    1    5    5    0    0 -0.24241967530E+01 -0.20951991905E+03  0.27267669563E+02  0.21130073121E+03  0.00000000000E+00 0.  1.
        -11    1    5    5    0    0 -0.29128501932E+02 -0.95359337608E+02  0.73437646323E+02  0.12383440875E+03  0.00000000000E+00 0. -1.
          1    1    6    6  503    0 -0.35149803449E+02  0.16094334552E+03  0.16051723586E+03  0.23000880887E+03  0.00000000000E+00 0. -1.
         -1    1    6    6    0  503 -0.24514194571E+03  0.42000039943E+03  0.53202084752E+03  0.72079198890E+03  0.00000000000E+00 0.  1.
<mgrwt>
<rscale>  0 0.16919050E+04</rscale>
<asrwt>0</asrwt>
<pdfrwt beam="1">  1        2 0.17849009E+00 0.16919050E+04</pdfrwt>
<pdfrwt beam="2">  1       -1 0.94896698E-01 0.16919050E+04</pdfrwt>
<totfact> 0.23331647E+01</totfact>
</mgrwt>
</event>
<event>
12    6  0.1462228E-007  0.2909405E+04  0.7818608E-02  0.8270085E-01
          2   -1    0    0  501    0  0.00000000000E+00  0.00000000000E+00  0.17246641159E+04  0.17246641159E+04  0.00000000000E+00 0. -1.
         -1   -1    0    0    0  501 -0.00000000000E+00 -0.00000000000E+00 -0.12269977048E+04  0.12269977048E+04  0.00000000000E+00 0.  1.
         24    2    1    2    0    0 -0.13372400843E+03 -0.10390275494E+04  0.10317156471E+04  0.14728471684E+04  0.85914177609E+02 0.  0.
        254    2    1    2    0    0  0.13372400843E+03  0.10390275494E+04 -0.53404923597E+03  0.14788146523E+04  0.89678527563E+03 0.  0.
         23    2    4    4    0    0  0.16904220835E+03  0.53782242423E+03 -0.73381157248E+03  0.92993236662E+03  0.92013881399E+02 0.  0.
         23    2    4    4    0    0 -0.35318199918E+02  0.50120512521E+03  0.19976233650E+03  0.54888228572E+03  0.94407731167E+02 0.  0.
          4    1    3    3  502    0 -0.12819317919E+03 -0.95853000078E+03  0.98111204686E+03  0.13776044796E+04  0.00000000000E+00 0. -1.
         -3    1    3    3    0  502 -0.55308292397E+01 -0.80497548664E+02  0.50603600255E+02  0.95242688810E+02  0.00000000000E+00 0.  1.
         11    1    5    5    0    0 -0.53780710418E+01  0.96976233213E+02 -0.12499077896E+03  0.15829089766E+03  0.00000000000E+00 0. -1.
        -11    1    5    5    0    0  0.17442027939E+03  0.44084619102E+03 -0.60882079352E+03  0.77164146896E+03  0.00000000000E+00 0.  1.
          2    1    6    6  503    0 -0.16841406541E+02  0.12607271295E+03  0.86966649639E+01  0.12748958352E+03  0.00000000000E+00 0. -1.
         -2    1    6    6    0  503 -0.18476793377E+02  0.37513241226E+03  0.19106567154E+03  0.42139270220E+03  0.00000000000E+00 0.  1.
<mgrwt>
<rscale>  0 0.29094047E+04</rscale>
<asrwt>0</asrwt>
<pdfrwt beam="1">  1        2 0.26533294E+00 0.29094047E+04</pdfrwt>
<pdfrwt beam="2">  1       -1 0.18876888E+00 0.29094047E+04</pdfrwt>
<totfact> 0.16812998E+00</totfact>
</mgrwt>
</event>
<event>
12    6  0.1462228E-007  0.1843880E+04  0.7818608E-02  0.8683306E-01
         -1   -1    0    0    0  501 -0.00000000000E+00  0.00000000000E+00  0.41206143669E+03  0.41206143669E+03  0.00000000000E+00 0.  1.
          2   -1    0    0  501    0  0.00000000000E+00 -0.00000000000E+00 -0.20627344272E+04  0.20627344272E+04  0.00000000000E+00 0. -1.
         24    2    1    2    0    0 -0.35844921965E+03 -0.40377201166E+03 -0.25795446439E+02  0.54651437388E+03  0.80590789450E+02 0.  0.
        254    2    1    2    0    0  0.35844921965E+03  0.40377201166E+03 -0.16248775440E+04  0.19282814900E+04  0.88686232923E+03 0.  0.
         23    2    4    4    0    0 -0.27718652927E+03  0.11327808910E+03 -0.33451935132E+03  0.45783552891E+03  0.89698816319E+02 0.  0.
         23    2    4    4    0    0  0.63563574892E+03  0.29049392256E+03 -0.12903581927E+04  0.14704459611E+04  0.93635113893E+02 0.  0.
          2    1    3    3  502    0 -0.76668922085E+02 -0.11956747565E+03  0.20967501805E+02  0.14357625493E+03  0.00000000000E+00 0. -1.
         -1    1    3    3    0  502 -0.28178029756E+03 -0.28420453600E+03 -0.46762948245E+02  0.40293811895E+03  0.00000000000E+00 0.  1.
         11    1    5    5    0    0 -0.23530383226E+03  0.68186056748E+02 -0.29983350660E+03  0.38719163665E+03  0.00000000000E+00 0.  1.
        -11    1    5    5    0    0 -0.41882697008E+02  0.45092032351E+02 -0.34685844722E+02  0.70643892264E+02  0.00000000000E+00 0. -1.
          1    1    6    6  503    0  0.32053825760E+02  0.26730095653E+02 -0.43460599486E+02  0.60255866662E+02  0.00000000000E+00 0. -1.
         -1    1    6    6    0  503  0.60358192316E+03  0.26376382690E+03 -0.12468975932E+04  0.14101900944E+04  0.00000000000E+00 0.  1.
<mgrwt>
<rscale>  0 0.18438799E+04</rscale>
<asrwt>0</asrwt>
<pdfrwt beam="1">  1        2 0.31734376E+00 0.18438799E+04</pdfrwt>
<pdfrwt beam="2">  1       -1 0.63394066E-01 0.18438799E+04</pdfrwt>
<totfact> 0.16666533E+01</totfact>
</mgrwt>
</event>
<event>
12    6  0.1462228E-007  0.2290921E+04  0.7818608E-02  0.8481509E-01
          2   -1    0    0  501    0  0.00000000000E+00  0.00000000000E+00  0.21619399138E+04  0.21619399138E+04  0.00000000000E+00 0. -1.
         -1   -1    0    0    0  501 -0.00000000000E+00 -0.00000000000E+00 -0.60689938453E+03  0.60689938453E+03  0.00000000000E+00 0.  1.
         24    2    1    2    0    0  0.12519267395E+02  0.74578477219E+03 -0.85309294232E+02  0.75492063068E+03  0.79220101304E+02 0.  0.
        254    2    1    2    0    0 -0.12519267395E+02 -0.74578477219E+03  0.16403498235E+04  0.20139186676E+04  0.89931596113E+03 0.  0.
         23    2    4    4    0    0 -0.10155258526E+03  0.18446332817E+03  0.31831271574E+03  0.39231779859E+03  0.90832940483E+02 0.  0.
         23    2    4    4    0    0  0.89033317869E+02 -0.93024810036E+03  0.13220371077E+04  0.16216008690E+04  0.92297368912E+02 0.  0.
          4    1    3    3  502    0 -0.28830469231E+02  0.14693740830E+03 -0.21236780971E+02  0.15123755744E+03  0.00000000000E+00 0. -1.
         -3    1    3    3    0  502  0.41349736627E+02  0.59884736389E+03 -0.64072513262E+02  0.60368307324E+03  0.00000000000E+00 0.  1.
         11    1    5    5    0    0 -0.96388510099E+02  0.18671478809E+03  0.32276529971E+03  0.38513711282E+03  0.00000000000E+00 0.  1.
        -11    1    5    5    0    0 -0.51640751653E+01 -0.22514599273E+01 -0.44525839724E+01  0.71806857714E+01  0.00000000000E+00 0. -1.
          4    1    6    6  503    0  0.74190166013E+02 -0.79001905807E+03  0.10608383567E+04  0.13247687768E+04  0.00000000000E+00 0.  1.
         -4    1    6    6    0  503  0.14843151856E+02 -0.14022904229E+03  0.26119875103E+03  0.29683209227E+03  0.00000000000E+00 0. -1.
<mgrwt>
<rscale>  0 0.22909212E+04</rscale>
<asrwt>0</asrwt>
<pdfrwt beam="1">  1        2 0.33260614E+00 0.22909212E+04</pdfrwt>
<pdfrwt beam="2">  1       -1 0.93369137E-01 0.22909212E+04</pdfrwt>
<totfact> 0.62337316E+00</totfact>
</mgrwt>
</event>
<event>
12    6  0.1462228E-007  0.1311676E+04  0.7818608E-02  0.9020357E-01
         -1   -1    0    0    0  501 -0.00000000000E+00  0.00000000000E+00  0.12008415039E+04  0.12008415039E+04  0.00000000000E+00 0.  1.
          2   -1    0    0  501    0  0.00000000000E+00 -0.00000000000E+00 -0.35818510094E+03  0.35818510094E+03  0.00000000000E+00 0. -1.
         24    2    1    2    0    0  0.96493865617E+02  0.26852608435E+03  0.32961368162E+01  0.29906325215E+03  0.89502179815E+02 0.  0.
        254    2    1    2    0    0 -0.96493865617E+02 -0.26852608435E+03  0.83936026616E+03  0.12599633527E+04  0.89530144069E+03 0.  0.
         23    2    4    4    0    0 -0.30890746738E+03 -0.49371665131E+03  0.67955004084E+03  0.89992792894E+03  0.94350750371E+02 0.  0.
         23    2    4    4    0    0  0.21241360176E+03  0.22519056697E+03  0.15981022532E+03  0.36003542377E+03  0.90861810405E+02 0.  0.
          2    1    3    3  502    0  0.10016002023E+03  0.19564820657E+03 -0.24114371346E+02  0.22111479664E+03  0.00000000000E+00 0. -1.
         -1    1    3    3    0  502 -0.36661546139E+01  0.72877877772E+02  0.27410508162E+02  0.77948455507E+02  0.00000000000E+00 0.  1.
         11    1    5    5    0    0 -0.41322099349E+02 -0.34383702034E+02  0.33723839458E+02  0.63459059305E+02  0.00000000000E+00 0.  1.
        -11    1    5    5    0    0 -0.26758536803E+03 -0.45933294928E+03  0.64582620138E+03  0.83646886964E+03  0.00000000000E+00 0. -1.
          4    1    6    6  503    0  0.11594400190E+03  0.13501074427E+03  0.14015081160E+03  0.22652408843E+03  0.00000000000E+00 0.  1.
         -4    1    6    6    0  503  0.96469599860E+02  0.90179822693E+02  0.19659413724E+02  0.13351133535E+03  0.00000000000E+00 0. -1.
<mgrwt>
<rscale>  0 0.13116761E+04</rscale>
<asrwt>0</asrwt>
<pdfrwt beam="1">  1        2 0.55105401E-01 0.13116761E+04</pdfrwt>
<pdfrwt beam="2">  1       -1 0.18474484E+00 0.13116761E+04</pdfrwt>
<totfact> 0.19430948E+01</totfact>
</mgrwt>
</event>
<event>
12    6  0.1462228E-007  0.1245742E+04  0.7818608E-02  0.9073735E-01
          2   -1    0    0  501    0  0.00000000000E+00  0.00000000000E+00  0.39396512993E+03  0.39396512993E+03  0.00000000000E+00 0. -1.
         -1   -1    0    0    0  501 -0.00000000000E+00 -0.00000000000E+00 -0.98477750192E+03  0.98477750192E+03  0.00000000000E+00 0.  1.
         24    2    1    2    0    0 -0.89537829253E+02  0.15770745951E+02  0.16211508533E+03  0.20244753539E+03  0.80236926653E+02 0.  0.
        254    2    1    2    0    0  0.89537829253E+02 -0.15770745951E+02 -0.75292745732E+03  0.11762950965E+04  0.89916887106E+03 0.  0.
         23    2    4    4    0    0 -0.12786269763E+03  0.39614403966E+03 -0.30687753457E+03  0.52463207949E+03  0.88238472362E+02 0.  0.
         23    2    4    4    0    0  0.21740052689E+03 -0.41191478561E+03 -0.44604992275E+03  0.65166301698E+03  0.93634258792E+02 0.  0.
          4    1    3    3  502    0 -0.67642394485E+02  0.19548949561E+02  0.45723454956E+02  0.83954090393E+02  0.00000000000E+00 0. -1.
         -3    1    3    3    0  502 -0.21895434768E+02 -0.37782036100E+01  0.11639163037E+03  0.11849344500E+03  0.00000000000E+00 0.  1.
         11    1    5    5    0    0 -0.13546218907E+03  0.35043493992E+03 -0.25005441045E+03  0.45131126727E+03  0.00000000000E+00 0. -1.
        -11    1    5    5    0    0  0.75994914394E+01  0.45709099738E+02 -0.56823124122E+02  0.73320812215E+02  0.00000000000E+00 0.  1.
          3    1    6    6  503    0  0.21628895572E+03 -0.39988839414E+03 -0.40497217010E+03  0.60884653131E+03  0.00000000000E+00 0. -1.
         -3    1    6    6    0  503  0.11115711689E+01 -0.12026391466E+02 -0.41077752648E+02  0.42816485666E+02  0.00000000000E+00 0.  1.
<mgrwt>
<rscale>  0 0.12457415E+04</rscale>
<asrwt>0</asrwt>
<pdfrwt beam="1">  1        2 0.60610020E-01 0.12457415E+04</pdfrwt>
<pdfrwt beam="2">  1       -1 0.15150423E+00 0.12457415E+04</pdfrwt>
<totfact> 0.30935900E+01</totfact>
</mgrwt>
</event>
<event>
12    6  0.1462228E-007  0.2303921E+04  0.7818608E-02  0.8476377E-01
         -1   -1    0    0    0  501 -0.00000000000E+00  0.00000000000E+00  0.16323295067E+04  0.16323295067E+04  0.00000000000E+00 0.  1.
          2   -1    0    0  501    0  0.00000000000E+00 -0.00000000000E+00 -0.81295684759E+03  0.81295684759E+03  0.00000000000E+00 0. -1.
         24    2    1    2    0    0  0.17124315991E+03  0.34411214063E+02  0.13622979644E+04  0.13757862504E+04  0.80148060258E+02 0.  0.
        254    2    1    2    0    0 -0.17124315991E+03 -0.34411214063E+02 -0.54292530528E+03  0.10695001039E+04  0.90473987069E+03 0.  0.
         23    2    4    4    0    0 -0.21248449929E+02  0.38134875938E+03 -0.43110178299E+02  0.39613106916E+03  0.95827780817E+02 0.  0.
         23    2    4    4    0    0 -0.14999470998E+03 -0.41575997345E+03 -0.49981512698E+03  0.67336903472E+03  0.90862132983E+02 0.  0.
          4    1    3    3  502    0  0.30878744900E+02 -0.15555196396E+02  0.13020844577E+03  0.13472082383E+03  0.00000000000E+00 0. -1.
         -3    1    3    3    0  502  0.14036441501E+03  0.49966410459E+02  0.12320895186E+04  0.12410654266E+04  0.00000000000E+00 0.  1.
         11    1    5    5    0    0  0.12845548618E+02  0.32171969900E+02 -0.28720092766E+02  0.44998749927E+02  0.00000000000E+00 0. -1.
        -11    1    5    5    0    0 -0.34093998546E+02  0.34917678948E+03 -0.14390085533E+02  0.35113231924E+03  0.00000000000E+00 0.  1.
          4    1    6    6  503    0 -0.43381275121E+01 -0.52587465961E+02 -0.25865055408E+02  0.58764462201E+02  0.00000000000E+00 0. -1.
         -4    1    6    6    0  503 -0.14565658247E+03 -0.36317250748E+03 -0.47395007158E+03  0.61460457252E+03  0.00000000000E+00 0.  1.
<mgrwt>
<rscale>  0 0.23039214E+04</rscale>
<asrwt>0</asrwt>
<pdfrwt beam="1">  1        2 0.12507028E+00 0.23039214E+04</pdfrwt>
<pdfrwt beam="2">  1       -1 0.25112762E+00 0.23039214E+04</pdfrwt>
<totfact> 0.23892400E+00</totfact>
</mgrwt>
</event>
<event>
12    6  0.1462228E-007  0.1952073E+04  0.7818608E-02  0.8629362E-01
          2   -1    0    0  501    0  0.00000000000E+00  0.00000000000E+00  0.31840338072E+04  0.31840338072E+04  0.00000000000E+00 0. -1.
         -1   -1    0    0    0  501 -0.00000000000E+00 -0.00000000000E+00 -0.29919508046E+03  0.29919508046E+03  0.00000000000E+00 0.  1.
         24    2    1    2    0    0  0.72409391282E+03  0.23262068472E+03  0.11941895552E+04  0.14181135930E+04  0.80827540595E+02 0.  0.
        254    2    1    2    0    0 -0.72409391282E+03 -0.23262068472E+03  0.16906491716E+04  0.20651152947E+04  0.90993526226E+03 0.  0.
         23    2    4    4    0    0 -0.75907001586E+03  0.13400384841E+03  0.90222293215E+03  0.11900821591E+04  0.90249686080E+02 0.  0.
         23    2    4    4    0    0  0.34976103039E+02 -0.36662453314E+03  0.78842623943E+03  0.87503313556E+03  0.91815996578E+02 0.  0.
          2    1    3    3  502    0  0.40840348670E+03  0.16764183161E+03  0.65339510125E+03  0.78855713172E+03  0.00000000000E+00 0. -1.
         -1    1    3    3    0  502  0.31569042612E+03  0.64978853118E+02  0.54079445392E+03  0.62955646124E+03  0.00000000000E+00 0.  1.
         11    1    5    5    0    0 -0.30987435386E+02 -0.10383969995E+02  0.52254144269E+02  0.61632325754E+02  0.00000000000E+00 0. -1.
        -11    1    5    5    0    0 -0.72808258048E+03  0.14438781841E+03  0.84996878789E+03  0.11284498334E+04  0.00000000000E+00 0.  1.
          1    1    6    6  503    0 -0.60440308799E+01 -0.56405672822E+01  0.16567548838E+01  0.84315565163E+01  0.00000000000E+00 0. -1.
         -1    1    6    6    0  503  0.41020133919E+02 -0.36098396585E+03  0.78676948454E+03  0.86660157904E+03  0.00000000000E+00 0.  1.
<mgrwt>
<rscale>  0 0.19520730E+04</rscale>
<asrwt>0</asrwt>
<pdfrwt beam="1">  1        2 0.48985133E+00 0.19520730E+04</pdfrwt>
<pdfrwt beam="2">  1       -1 0.46030015E-01 0.19520730E+04</pdfrwt>
<totfact> 0.66442165E+00</totfact>
</mgrwt>
</event>
<event>
12    6  0.1462228E-007  0.1929973E+04  0.7818608E-02  0.8640079E-01
         -1   -1    0    0    0  501 -0.00000000000E+00  0.00000000000E+00  0.33849414060E+03  0.33849414060E+03  0.00000000000E+00 0.  1.
          2   -1    0    0  501    0  0.00000000000E+00 -0.00000000000E+00 -0.27510035452E+04  0.27510035452E+04  0.00000000000E+00 0. -1.
         24    2    1    2    0    0  0.33798708385E+03 -0.19148933350E+03 -0.19876174696E+04  0.20267587894E+04  0.78895826408E+02 0.  0.
        254    2    1    2    0    0 -0.33798708385E+03  0.19148933350E+03 -0.42489193504E+03  0.10627388964E+04  0.89329579186E+03 0.  0.
         23    2    4    4    0    0  0.37205222628E+02 -0.18766266163E+03 -0.47467562434E+03  0.51926518393E+03  0.87851464082E+02 0.  0.
         23    2    4    4    0    0 -0.37519230648E+03  0.37915199512E+03  0.49783689300E+02  0.54347371246E+03  0.91431713151E+02 0.  0.
          4    1    3    3  502    0  0.22982396487E+03 -0.86555489707E+02 -0.12083087160E+04  0.12330129199E+04  0.00000000000E+00 0. -1.
         -3    1    3    3    0  502  0.10816311897E+03 -0.10493384379E+03 -0.77930875359E+03  0.79374586947E+03  0.00000000000E+00 0.  1.
         11    1    5    5    0    0 -0.27483217718E+02 -0.54562673050E+02 -0.16766881787E+03  0.17845236068E+03  0.00000000000E+00 0.  1.
        -11    1    5    5    0    0  0.64688440346E+02 -0.13309998858E+03 -0.30700680647E+03  0.34081282325E+03  0.00000000000E+00 0. -1.
          4    1    6    6  503    0 -0.88438243698E+02  0.13860186074E+03  0.39264209573E+02  0.16903690988E+03  0.00000000000E+00 0.  1.
         -4    1    6    6    0  503 -0.28675406278E+03  0.24055013439E+03  0.10519479727E+02  0.37443680258E+03  0.00000000000E+00 0. -1.
<mgrwt>
<rscale>  0 0.19299726E+04</rscale>
<asrwt>0</asrwt>
<pdfrwt beam="1">  1        2 0.42323132E+00 0.19299726E+04</pdfrwt>
<pdfrwt beam="2">  1       -1 0.52076021E-01 0.19299726E+04</pdfrwt>
<totfact> 0.97914449E+00</totfact>
</mgrwt>
</event>
<event>
12    6  0.1462228E-007  0.1937688E+04  0.7818608E-02  0.8636321E-01
          2   -1    0    0  501    0  0.00000000000E+00  0.00000000000E+00  0.48589404209E+03  0.48589404209E+03  0.00000000000E+00 0. -1.
         -1   -1    0    0    0  501 -0.00000000000E+00 -0.00000000000E+00 -0.19318171001E+04  0.19318171001E+04  0.00000000000E+00 0.  1.
         24    2    1    2    0    0 -0.63642559087E+03  0.40579432514E+03 -0.70483569626E+03  0.10357971284E+04  0.79848390638E+02 0.  0.
        254    2    1    2    0    0  0.63642559087E+03 -0.40579432514E+03 -0.74108736173E+03  0.13819140138E+04  0.88925209961E+03 0.  0.
         23    2    4    4    0    0  0.64066272446E+03 -0.33803613811E+03 -0.10756604751E+03  0.73788537506E+03  0.90483230331E+02 0.  0.
         23    2    4    4    0    0 -0.42371335894E+01 -0.67758187021E+02 -0.63352131422E+03  0.64402863869E+03  0.93885604135E+02 0.  0.
          4    1    3    3  502    0 -0.46569298013E+03  0.25905280241E+03 -0.47112920612E+03  0.71129532196E+03  0.00000000000E+00 0. -1.
         -3    1    3    3    0  502 -0.17073261074E+03  0.14674152272E+03 -0.23370649014E+03  0.32450180646E+03  0.00000000000E+00 0.  1.
         11    1    5    5    0    0  0.39423246890E+03 -0.17686233678E+03 -0.99103357657E+02  0.44330689280E+03  0.00000000000E+00 0. -1.
        -11    1    5    5    0    0  0.24643025556E+03 -0.16117380134E+03 -0.84626898513E+01  0.29457848227E+03  0.00000000000E+00 0.  1.
          3    1    6    6  503    0 -0.16640452976E+02 -0.88944352633E+02 -0.46425043229E+03  0.47298675079E+03  0.00000000000E+00 0. -1.
         -3    1    6    6    0  503  0.12403319386E+02  0.21186165611E+02 -0.16927088194E+03  0.17104188790E+03  0.00000000000E+00 0.  1.
<mgrwt>
<rscale>  0 0.19376877E+04</rscale>
<asrwt>0</asrwt>
<pdfrwt beam="1">  1        2 0.74752930E-01 0.19376877E+04</pdfrwt>
<pdfrwt beam="2">  1       -1 0.29720263E+00 0.19376877E+04</pdfrwt>
<totfact> 0.23404459E+00</totfact>
</mgrwt>
</event>
<event>
12    6  0.1462228E-007  0.2151702E+04  0.7818608E-02  0.8538804E-01
          2   -1    0    0  501    0  0.00000000000E+00  0.00000000000E+00  0.57071982955E+03  0.57071982955E+03  0.00000000000E+00 0. -1.
         -3   -1    0    0    0  501 -0.00000000000E+00 -0.00000000000E+00 -0.20280626061E+04  0.20280626061E+04  0.00000000000E+00 0.  1.
         24    2    1    2    0    0 -0.53430637356E+03  0.53342602071E+03 -0.40773863589E+02  0.76018721043E+03  0.78711286090E+02 0.  0.
        254    2    1    2    0    0  0.53430637356E+03 -0.53342602071E+03 -0.14165689130E+04  0.18385952253E+04  0.89651452676E+03 0.  0.
         23    2    4    4    0    0  0.77772622956E+03 -0.39333181853E+03 -0.10369445669E+04  0.13576550943E+04  0.91680492038E+02 0.  0.
         23    2    4    4    0    0 -0.24341985600E+03 -0.14009420218E+03 -0.37962434609E+03  0.48094013096E+03  0.91154559094E+02 0.  0.
          4    1    3    3  502    0 -0.32017220664E+03  0.30853808261E+03 -0.61955304241E+02  0.44893702236E+03  0.00000000000E+00 0. -1.
         -3    1    3    3    0  502 -0.21413416692E+03  0.22488793810E+03  0.21181440652E+02  0.31125018807E+03  0.00000000000E+00 0.  1.
         11    1    5    5    0    0  0.50074680201E+03 -0.24314947629E+03 -0.72747022934E+03  0.91601417135E+03  0.00000000000E+00 0. -1.
        -11    1    5    5    0    0  0.27697942755E+03 -0.15018234224E+03 -0.30947433757E+03  0.44164092295E+03  0.00000000000E+00 0.  1.
          1    1    6    6  503    0 -0.20656288093E+03 -0.10382445469E+03 -0.24563714705E+03  0.33732084012E+03  0.00000000000E+00 0. -1.
         -1    1    6    6    0  503 -0.36856975075E+02 -0.36269747489E+02 -0.13398719904E+03  0.14361929084E+03  0.00000000000E+00 0.  1.
<mgrwt>
<rscale>  0 0.21517022E+04</rscale>
<asrwt>0</asrwt>
<pdfrwt beam="1">  1        2 0.87803050E-01 0.21517022E+04</pdfrwt>
<pdfrwt beam="2">  1       -3 0.31200964E+00 0.21517022E+04</pdfrwt>
<totfact> 0.98176506E-01</totfact>
</mgrwt>
</event>
<event>
12    6  0.1462228E-007  0.2409868E+04  0.7818608E-02  0.8435818E-01
          2   -1    0    0  501    0  0.00000000000E+00  0.00000000000E+00  0.38769180992E+04  0.38769180992E+04  0.00000000000E+00 0. -1.
         -1   -1    0    0    0  501 -0.00000000000E+00 -0.00000000000E+00 -0.37448980302E+03  0.37448980302E+03  0.00000000000E+00 0.  1.
         24    2    1    2    0    0  0.72377485752E+03 -0.69930819901E+03  0.19270735194E+04  0.21757150592E+04  0.85097989834E+02 0.  0.
        254    2    1    2    0    0 -0.72377485752E+03  0.69930819901E+03  0.15753547768E+04  0.20756928431E+04  0.90215082135E+03 0.  0.
         23    2    4    4    0    0 -0.24893913768E+03 -0.96804765190E+02  0.48113338911E+02  0.28664284637E+03  0.92235411634E+02 0.  0.
         23    2    4    4    0    0 -0.47483571984E+03  0.79611296420E+03  0.15272414379E+04  0.17890499967E+04  0.94703054596E+02 0.  0.
          2    1    3    3  502    0  0.63748359354E+03 -0.59198178847E+03  0.17114356727E+04  0.19198541173E+04  0.00000000000E+00 0. -1.
         -1    1    3    3    0  502  0.86291263980E+02 -0.10732641054E+03  0.21563784672E+03  0.25586094187E+03  0.00000000000E+00 0.  1.
         11    1    5    5    0    0 -0.19653779048E+03 -0.43615727539E+02  0.70775548073E+01  0.20144360640E+03  0.00000000000E+00 0. -1.
        -11    1    5    5    0    0 -0.52401347201E+02 -0.53189037651E+02  0.41035784103E+02  0.85199239972E+02  0.00000000000E+00 0.  1.
          4    1    6    6  503    0 -0.47781980781E+03  0.79037976048E+03  0.15041583694E+04  0.17650791299E+04  0.00000000000E+00 0. -1.
         -4    1    6    6    0  503  0.29840879706E+01  0.57332037219E+01  0.23083068504E+02  0.23970866849E+02  0.00000000000E+00 0.  1.
<mgrwt>
<rscale>  0 0.24098683E+04</rscale>
<asrwt>0</asrwt>
<pdfrwt beam="1">  1        2 0.59644891E+00 0.24098683E+04</pdfrwt>
<pdfrwt beam="2">  1       -1 0.57613819E-01 0.24098683E+04</pdfrwt>
<totfact> 0.13413539E+00</totfact>
</mgrwt>
</event>
<event>
12    6  0.1462228E-007  0.2245132E+04  0.7818608E-02  0.8499875E-01
         -1   -1    0    0    0  501 -0.00000000000E+00  0.00000000000E+00  0.12810045306E+04  0.12810045306E+04  0.00000000000E+00 0.  1.
          2   -1    0    0  501    0  0.00000000000E+00 -0.00000000000E+00 -0.98372319934E+03  0.98372319934E+03  0.00000000000E+00 0. -1.
         24    2    1    2    0    0 -0.27360221430E+03 -0.38710135740E+03 -0.68828825032E+03  0.83988131411E+03  0.83392287986E+02 0.  0.
        254    2    1    2    0    0  0.27360221430E+03  0.38710135740E+03  0.98556958157E+03  0.14248464158E+04  0.91330951815E+03 0.  0.
         23    2    4    4    0    0  0.20364505060E+03  0.63095288450E+03  0.39890046173E+03  0.77915419466E+03  0.91579646179E+02 0.  0.
         23    2    4    4    0    0  0.69957163698E+02 -0.24385152710E+03  0.58666911984E+03  0.64569222115E+03  0.91543521082E+02 0.  0.
          2    1    3    3  502    0 -0.24582248415E+03 -0.33400506255E+03 -0.54722244798E+03  0.68661523658E+03  0.00000000000E+00 0. -1.
         -1    1    3    3    0  502 -0.27779730145E+02 -0.53096294856E+02 -0.14106580234E+03  0.15326607754E+03  0.00000000000E+00 0.  1.
         11    1    5    5    0    0 -0.56279371634E+01  0.74689074483E+02  0.48232739342E+02  0.89087196994E+02  0.00000000000E+00 0. -1.
        -11    1    5    5    0    0  0.20927298776E+03  0.55626381002E+03  0.35066772239E+03  0.69006699766E+03  0.00000000000E+00 0.  1.
          1    1    6    6  503    0  0.20930553482E+01 -0.13618209236E+02  0.23267491090E+01  0.13973198091E+02  0.00000000000E+00 0. -1.
         -1    1    6    6    0  503  0.67864108350E+02 -0.23023331786E+03  0.58434237073E+03  0.63171902305E+03  0.00000000000E+00 0.  1.
<mgrwt>
<rscale>  0 0.22451315E+04</rscale>
<asrwt>0</asrwt>
<pdfrwt beam="1">  1        2 0.15134203E+00 0.22451315E+04</pdfrwt>
<pdfrwt beam="2">  1       -1 0.19707762E+00 0.22451315E+04</pdfrwt>
<totfact> 0.42259208E+00</totfact>
</mgrwt>
</event>
<event>
12    6  0.1462228E-007  0.1581281E+04  0.7818608E-02  0.8832131E-01
          2   -1    0    0  501    0  0.00000000000E+00  0.00000000000E+00  0.21660763253E+04  0.21660763253E+04  0.00000000000E+00 0. -1.
         -1   -1    0    0    0  501 -0.00000000000E+00 -0.00000000000E+00 -0.28859211695E+03  0.28859211695E+03  0.00000000000E+00 0.  1.
         24    2    1    2    0    0 -0.48843460928E+03 -0.24057385551E+03  0.60223347745E+03  0.81622966010E+03  0.84270689789E+02 0.  0.
        254    2    1    2    0    0  0.48843460928E+03  0.24057385551E+03  0.12752507309E+04  0.16384387822E+04  0.87279612092E+03 0.  0.
         23    2    4    4    0    0  0.45615282949E+03  0.32690442115E+03  0.27793030345E+03  0.63277584236E+03  0.90653784694E+02 0.  0.
         23    2    4    4    0    0  0.32281779790E+02 -0.86330565640E+02  0.99732042746E+03  0.10056629398E+04  0.90635719143E+02 0.  0.
          4    1    3    3  502    0 -0.27611040158E+03 -0.13483898988E+03  0.40086565388E+03  0.50508591300E+03  0.00000000000E+00 0. -1.
         -3    1    3    3    0  502 -0.21232420770E+03 -0.10573486563E+03  0.20136782357E+03  0.31114374709E+03  0.00000000000E+00 0.  1.
         11    1    5    5    0    0  0.43544227232E+03  0.28169081741E+03  0.24977606644E+03  0.57562815472E+03  0.00000000000E+00 0. -1.
        -11    1    5    5    0    0  0.20710557173E+02  0.45213603743E+02  0.28154237002E+02  0.57147687644E+02  0.00000000000E+00 0.  1.
          3    1    6    6  503    0  0.35008332360E+02 -0.10410060271E+03  0.79597257687E+03  0.80351407078E+03  0.00000000000E+00 0. -1.
         -3    1    6    6    0  503 -0.27265525694E+01  0.17770037071E+02  0.20134785059E+03  0.20214886901E+03  0.00000000000E+00 0.  1.
<mgrwt>
<rscale>  0 0.15812812E+04</rscale>
<asrwt>0</asrwt>
<pdfrwt beam="1">  1        2 0.33324250E+00 0.15812812E+04</pdfrwt>
<pdfrwt beam="2">  1       -1 0.44398789E-01 0.15812812E+04</pdfrwt>
<totfact> 0.29657971E+01</totfact>
</mgrwt>
</event>
<event>
12    6  0.1462228E-007  0.1590890E+04  0.7818608E-02  0.8826164E-01
          2   -1    0    0  501    0  0.00000000000E+00  0.00000000000E+00  0.67611649768E+03  0.67611649768E+03  0.00000000000E+00 0. -1.
         -1   -1    0    0    0  501 -0.00000000000E+00 -0.00000000000E+00 -0.93583386592E+03  0.93583386592E+03  0.00000000000E+00 0.  1.
         24    2    1    2    0    0 -0.26659865754E+03 -0.46071878376E+03 -0.14143398247E+02  0.53828050746E+03  0.78798648969E+02 0.  0.
        254    2    1    2    0    0  0.26659865754E+03  0.46071878376E+03 -0.24557396999E+03  0.10736698561E+04  0.89951305902E+03 0.  0.
         23    2    4    4    0    0 -0.10000146438E+03 -0.36750569702E+02 -0.40571222859E+03  0.42923694009E+03  0.91055153933E+02 0.  0.
         23    2    4    4    0    0  0.36660012192E+03  0.49746935346E+03  0.16013825860E+03  0.64443291606E+03  0.88193618833E+02 0.  0.
          2    1    3    3  502    0 -0.21803730381E+03 -0.37287933346E+03  0.19595362973E+02  0.43239246227E+03  0.00000000000E+00 0. -1.
         -1    1    3    3    0  502 -0.48561353732E+02 -0.87839450302E+02 -0.33738761220E+02  0.10588804519E+03  0.00000000000E+00 0.  1.
         11    1    5    5    0    0 -0.11219033601E+03 -0.13028736836E+02 -0.31248638715E+03  0.33227121698E+03  0.00000000000E+00 0.  1.
        -11    1    5    5    0    0  0.12188871633E+02 -0.23721832867E+02 -0.93225841438E+02  0.96965723109E+02  0.00000000000E+00 0. -1.
          3    1    6    6  503    0  0.51121444811E+02  0.12063859131E+03  0.53598298146E+02  0.14156217502E+03  0.00000000000E+00 0. -1.
         -3    1    6    6    0  503  0.31547867711E+03  0.37683076216E+03  0.10653996045E+03  0.50287074104E+03  0.00000000000E+00 0.  1.
<mgrwt>
<rscale>  0 0.15908900E+04</rscale>
<asrwt>0</asrwt>
<pdfrwt beam="1">  1        2 0.10401792E+00 0.15908900E+04</pdfrwt>
<pdfrwt beam="2">  1       -1 0.14397444E+00 0.15908900E+04</pdfrwt>
<totfact> 0.18270038E+01</totfact>
</mgrwt>
</event>
<event>
12    6  0.1462228E-007  0.2209455E+04  0.7818608E-02  0.8514503E-01
         -1   -1    0    0    0  501 -0.00000000000E+00  0.00000000000E+00  0.15277914648E+04  0.15277914648E+04  0.00000000000E+00 0.  1.
          2   -1    0    0  501    0  0.00000000000E+00 -0.00000000000E+00 -0.79881519040E+03  0.79881519040E+03  0.00000000000E+00 0. -1.
         24    2    1    2    0    0  0.32250407350E+03  0.28117622465E+03 -0.55463300348E+03  0.70519253879E+03  0.81300685652E+02 0.  0.
        254    2    1    2    0    0 -0.32250407350E+03 -0.28117622465E+03  0.12836092779E+04  0.16214141164E+04  0.89345509788E+03 0.  0.
         23    2    4    4    0    0  0.20481119017E+03 -0.19685499713E+03  0.92473478041E+03  0.97154317941E+03  0.89789876104E+02 0.  0.
         23    2    4    4    0    0 -0.52731526367E+03 -0.84321227519E+02  0.35887449750E+03  0.64987093704E+03  0.91487010751E+02 0.  0.
          4    1    3    3  502    0  0.25467127667E+03  0.24624048902E+03 -0.41137615533E+03  0.54288320914E+03  0.00000000000E+00 0. -1.
         -3    1    3    3    0  502  0.67832796832E+02  0.34935735626E+02 -0.14325684815E+03  0.16230932965E+03  0.00000000000E+00 0.  1.
         11    1    5    5    0    0 -0.18636599865E+01 -0.35729649668E+02  0.10352890558E+03  0.10953682205E+03  0.00000000000E+00 0. -1.
        -11    1    5    5    0    0  0.20667485015E+03 -0.16112534746E+03  0.82120587482E+03  0.86200635736E+03  0.00000000000E+00 0.  1.
          3    1    6    6  503    0 -0.14318699924E+03 -0.21422599032E+01  0.55665858131E+02  0.15364177099E+03  0.00000000000E+00 0. -1.
         -3    1    6    6    0  503 -0.38412826442E+03 -0.82178967615E+02  0.30320863937E+03  0.49622916605E+03  0.00000000000E+00 0.  1.
<mgrwt>
<rscale>  0 0.22094552E+04</rscale>
<asrwt>0</asrwt>
<pdfrwt beam="1">  1        2 0.12289465E+00 0.22094552E+04</pdfrwt>
<pdfrwt beam="2">  1       -1 0.23504484E+00 0.22094552E+04</pdfrwt>
<totfact> 0.31433721E+00</totfact>
</mgrwt>
</event>
<event>
12    6  0.1462228E-007  0.1593495E+04  0.7818608E-02  0.8824554E-01
          2   -1    0    0  501    0  0.00000000000E+00  0.00000000000E+00  0.47005864225E+04  0.47005864225E+04  0.00000000000E+00 0. -1.
         -1   -1    0    0    0  501 -0.00000000000E+00 -0.00000000000E+00 -0.13504832784E+03  0.13504832784E+03  0.00000000000E+00 0.  1.
         24    2    1    2    0    0  0.18681664416E+03 -0.31309793261E+03  0.35574500243E+03  0.51544368844E+03  0.78720488191E+02 0.  0.
        254    2    1    2    0    0 -0.18681664416E+03  0.31309793261E+03  0.42097930922E+04  0.43201910619E+04  0.89931204704E+03 0.  0.
         23    2    4    4    0    0  0.31341446221E+03  0.15476033006E+03  0.25836512788E+04  0.26089169888E+04  0.94944928630E+02 0.  0.
         23    2    4    4    0    0 -0.50023110638E+03  0.15833760255E+03  0.16261418135E+04  0.17112740731E+04  0.93913787408E+02 0.  0.
          4    1    3    3  502    0  0.14050860887E+02  0.14464537377E+01  0.12956844642E+02  0.19167648347E+02  0.00000000000E+00 0. -1.
         -3    1    3    3    0  502  0.17276578328E+03 -0.31454438635E+03  0.34278815779E+03  0.49627604009E+03  0.00000000000E+00 0.  1.
         11    1    5    5    0    0  0.29167103495E+03  0.16568546268E+03  0.24711918716E+04  0.24938550342E+04  0.00000000000E+00 0. -1.
        -11    1    5    5    0    0  0.21743427260E+02 -0.10925132622E+02  0.11245940716E+03  0.11506195467E+03  0.00000000000E+00 0.  1.
          2    1    6    6  503    0 -0.48867238243E+03  0.13785235898E+03  0.15783325405E+04  0.16579920322E+04  0.00000000000E+00 0. -1.
         -2    1    6    6    0  503 -0.11558723951E+02  0.20485243577E+02  0.47809272939E+02  0.53282040903E+02  0.00000000000E+00 0.  1.
<mgrwt>
<rscale>  0 0.15934947E+04</rscale>
<asrwt>0</asrwt>
<pdfrwt beam="1">  1        2 0.72316702E+00 0.15934947E+04</pdfrwt>
<pdfrwt beam="2">  1       -1 0.20776669E-01 0.15934947E+04</pdfrwt>
<totfact> 0.16653445E+00</totfact>
</mgrwt>
</event>
<event>
12    6  0.1462228E-007  0.1285400E+04  0.7818608E-02  0.9041224E-01
         -1   -1    0    0    0  501 -0.00000000000E+00  0.00000000000E+00  0.44839840918E+03  0.44839840918E+03  0.00000000000E+00 0.  1.
          2   -1    0    0  501    0  0.00000000000E+00 -0.00000000000E+00 -0.92119718131E+03  0.92119718131E+03  0.00000000000E+00 0. -1.
         24    2    1    2    0    0  0.29321380068E+03  0.11940854943E+03 -0.34719140746E+02  0.32773577106E+03  0.77282483853E+02 0.  0.
        254    2    1    2    0    0 -0.29321380068E+03 -0.11940854943E+03 -0.43807963138E+03  0.10418598194E+04  0.89068815268E+03 0.  0.
         23    2    4    4    0    0 -0.14194572775E+03 -0.12768054936E+03 -0.69645470124E+03  0.72787843872E+03  0.91142516795E+02 0.  0.
         23    2    4    4    0    0 -0.15126807293E+03  0.82719999358E+01  0.25837506986E+03  0.31398138071E+03  0.94213453594E+02 0.  0.
          2    1    3    3  502    0  0.42246176475E+02  0.24756464289E+02  0.21837901621E+02  0.53614512010E+02  0.00000000000E+00 0. -1.
         -1    1    3    3    0  502  0.25096762420E+03  0.94652085138E+02 -0.56557042367E+02  0.27412125905E+03  0.00000000000E+00 0.  1.
         11    1    5    5    0    0 -0.13053154168E+03 -0.81043938914E+02 -0.60930318712E+03  0.62837646140E+03  0.00000000000E+00 0.  1.
        -11    1    5    5    0    0 -0.11414186073E+02 -0.46636610448E+02 -0.87151514116E+02  0.99501977320E+02  0.00000000000E+00 0. -1.
          3    1    6    6  503    0 -0.30509061207E+02 -0.35854408853E+02  0.46645142844E+02  0.66273002051E+02  0.00000000000E+00 0. -1.
         -3    1    6    6    0  503 -0.12075901172E+03  0.44126408789E+02  0.21172992701E+03  0.24770837866E+03  0.00000000000E+00 0.  1.
<mgrwt>
<rscale>  0 0.12854001E+04</rscale>
<asrwt>0</asrwt>
<pdfrwt beam="1">  1        2 0.14172264E+00 0.12854001E+04</pdfrwt>
<pdfrwt beam="2">  1       -1 0.68984371E-01 0.12854001E+04</pdfrwt>
<totfact> 0.67554396E+01</totfact>
</mgrwt>
</event>
<event>
12    6  0.1462228E-007  0.2519559E+04  0.7818608E-02  0.8396050E-01
         -1   -1    0    0    0  501 -0.00000000000E+00  0.00000000000E+00  0.66150317311E+03  0.66150317311E+03  0.00000000000E+00 0.  1.
          2   -1    0    0  501    0  0.00000000000E+00 -0.00000000000E+00 -0.23991488321E+04  0.23991488321E+04  0.00000000000E+00 0. -1.
         24    2    1    2    0    0  0.24364458255E+03 -0.41212650502E+03 -0.19595891247E+04  0.20187908445E+04  0.79473250394E+02 0.  0.
        254    2    1    2    0    0 -0.24364458255E+03  0.41212650502E+03  0.22194346575E+03  0.10418611607E+04  0.89833447966E+03 0.  0.
         23    2    4    4    0    0 -0.56715463763E+03  0.31297940478E+03  0.62868667327E+02  0.65711564413E+03  0.90708376833E+02 0.  0.
         23    2    4    4    0    0  0.32351005508E+03  0.99147100241E+02  0.15907479842E+03  0.38474551653E+03  0.90749202607E+02 0.  0.
          2    1    3    3  502    0  0.24772062632E+03 -0.40036322842E+03 -0.19317591032E+04  0.19883031600E+04  0.00000000000E+00 0. -1.
         -1    1    3    3    0  502 -0.40760437739E+01 -0.11763276603E+02 -0.27830021558E+02  0.30487684550E+02  0.00000000000E+00 0.  1.
         11    1    5    5    0    0 -0.16836166075E+03  0.49573665937E+02  0.30014287392E+02  0.17805632427E+03  0.00000000000E+00 0.  1.
        -11    1    5    5    0    0 -0.39879297688E+03  0.26340573884E+03  0.32854379934E+02  0.47905931986E+03  0.00000000000E+00 0. -1.
          2    1    6    6  503    0  0.21483670927E+03  0.20086417872E+02  0.10361383159E+03  0.23936186398E+03  0.00000000000E+00 0. -1.
         -2    1    6    6    0  503  0.10867334581E+03  0.79060682369E+02  0.55460966837E+02  0.14538365255E+03  0.00000000000E+00 0.  1.
<mgrwt>
<rscale>  0 0.25195591E+04</rscale>
<asrwt>0</asrwt>
<pdfrwt beam="1">  1        2 0.36909982E+00 0.25195591E+04</pdfrwt>
<pdfrwt beam="2">  1       -1 0.10176972E+00 0.25195591E+04</pdfrwt>
<totfact> 0.36891721E+00</totfact>
</mgrwt>
</event>
<event>
12    6  0.1462228E-007  0.3855274E+04  0.7818608E-02  0.8034396E-01
         -1   -1    0    0    0  501 -0.00000000000E+00  0.00000000000E+00  0.12121143600E+04  0.12121143600E+04  0.00000000000E+00 0.  1.
          2   -1    0    0  501    0  0.00000000000E+00 -0.00000000000E+00 -0.30655396684E+04  0.30655396684E+04  0.00000000000E+00 0. -1.
         24    2    1    2    0    0  0.15848927826E+04 -0.80435808393E+03 -0.13305093988E+04  0.22224280470E+04  0.10027015668E+03 0.  0.
        254    2    1    2    0    0 -0.15848927826E+04  0.80435808393E+03 -0.52291590962E+03  0.20552259814E+04  0.88973913396E+03 0.  0.
         23    2    4    4    0    0 -0.14741244474E+04  0.61850117163E+03 -0.14408400963E+03  0.16077208558E+04  0.91758175627E+02 0.  0.
         23    2    4    4    0    0 -0.11076833528E+03  0.18585691230E+03 -0.37883189999E+03  0.44750512560E+03  0.99673532258E+02 0.  0.
          4    1    3    3  502    0  0.10173200443E+04 -0.46409615814E+03 -0.85256475680E+03  0.14061265878E+04  0.00000000000E+00 0. -1.
         -3    1    3    3    0  502  0.56757273835E+03 -0.34026192580E+03 -0.47794464202E+03  0.81630145921E+03  0.00000000000E+00 0.  1.
         11    1    5    5    0    0 -0.90607540344E+03  0.33871623877E+03 -0.63471132052E+02  0.96939667409E+03  0.00000000000E+00 0. -1.
        -11    1    5    5    0    0 -0.56804904392E+03  0.27978493287E+03 -0.80612877573E+02  0.63832418173E+03  0.00000000000E+00 0.  1.
          3    1    6    6  503    0 -0.90928476307E+02  0.19431005453E+03 -0.35894526230E+03  0.41816992530E+03  0.00000000000E+00 0. -1.
         -3    1    6    6    0  503 -0.19839858976E+02 -0.84531422350E+01 -0.19886637693E+02  0.29335200299E+02  0.00000000000E+00 0.  1.
<mgrwt>
<rscale>  0 0.38552741E+04</rscale>
<asrwt>0</asrwt>
<pdfrwt beam="1">  1        2 0.47162149E+00 0.38552741E+04</pdfrwt>
<pdfrwt beam="2">  1       -1 0.18647913E+00 0.38552741E+04</pdfrwt>
<totfact> 0.26821983E-01</totfact>
</mgrwt>
</event>
<event>
12    6  0.1462228E-007  0.1450027E+04  0.7818608E-02  0.8918382E-01
          2   -1    0    0  501    0  0.00000000000E+00  0.00000000000E+00  0.92433997319E+03  0.92433997319E+03  0.00000000000E+00 0. -1.
         -1   -1    0    0    0  501 -0.00000000000E+00 -0.00000000000E+00 -0.56867029805E+03  0.56867029805E+03  0.00000000000E+00 0.  1.
         24    2    1    2    0    0  0.17131437570E+03 -0.33196043681E+03  0.22658104840E+03  0.44385819322E+03  0.78260956227E+02 0.  0.
        254    2    1    2    0    0 -0.17131437570E+03  0.33196043681E+03  0.12908862673E+03  0.10491520780E+04  0.97185897245E+03 0.  0.
         23    2    4    4    0    0  0.37737087349E+03  0.19279782178E+03  0.18920258648E+03  0.47306678174E+03  0.91732137342E+02 0.  0.
         23    2    4    4    0    0 -0.54868524919E+03  0.13916261503E+03 -0.60113959744E+02  0.57608529627E+03  0.88537248248E+02 0.  0.
          2    1    3    3  502    0  0.10852987311E+03 -0.23967487574E+03  0.19613019759E+03  0.32816129239E+03  0.00000000000E+00 0. -1.
         -1    1    3    3    0  502  0.62784502584E+02 -0.92285561071E+02  0.30450850815E+02  0.11569690083E+03  0.00000000000E+00 0.  1.
         11    1    5    5    0    0  0.24055125351E+02 -0.96379243952E+01  0.16736013668E+02  0.30848546088E+02  0.00000000000E+00 0. -1.
        -11    1    5    5    0    0  0.35331574814E+03  0.20243574617E+03  0.17246657281E+03  0.44221823566E+03  0.00000000000E+00 0.  1.
          3    1    6    6  503    0 -0.48093471358E+02  0.99024296274E+01  0.19782073166E+02  0.52937420777E+02  0.00000000000E+00 0. -1.
         -3    1    6    6    0  503 -0.50059177783E+03  0.12926018541E+03 -0.79896032910E+02  0.52314787550E+03  0.00000000000E+00 0.  1.
<mgrwt>
<rscale>  0 0.14500272E+04</rscale>
<asrwt>0</asrwt>
<pdfrwt beam="1">  1        2 0.14220615E+00 0.14500272E+04</pdfrwt>
<pdfrwt beam="2">  1       -1 0.87487738E-01 0.14500272E+04</pdfrwt>
<totfact> 0.40186073E+01</totfact>
</mgrwt>
</event>
<event>
12    6  0.1462228E-007  0.2292266E+04  0.7818608E-02  0.8480977E-01
         -1   -1    0    0    0  501 -0.00000000000E+00  0.00000000000E+00  0.64103787761E+03  0.64103787761E+03  0.00000000000E+00 0.  1.
          2   -1    0    0  501    0  0.00000000000E+00 -0.00000000000E+00 -0.20492089699E+04  0.20492089699E+04  0.00000000000E+00 0. -1.
         24    2    1    2    0    0 -0.42596801604E+03  0.46210190547E+03 -0.14615968408E+04  0.15930741674E+04  0.81443574895E+02 0.  0.
        254    2    1    2    0    0  0.42596801604E+03 -0.46210190547E+03  0.53425748577E+02  0.10971726801E+04  0.89774531892E+03 0.  0.
         23    2    4    4    0    0 -0.21496592193E+03 -0.29154834367E+03  0.18306266551E+03  0.41580751984E+03  0.90405584798E+02 0.  0.
         23    2    4    4    0    0  0.64093393797E+03 -0.17055356180E+03 -0.12963691693E+03  0.68136516027E+03  0.86993799325E+02 0.  0.
          2    1    3    3  502    0 -0.41037347383E+03  0.41952865753E+03 -0.13250198148E+04  0.14491681034E+04  0.00000000000E+00 0. -1.
         -1    1    3    3    0  502 -0.15594542208E+02  0.42573247939E+02 -0.13657702605E+03  0.14390606392E+03  0.00000000000E+00 0.  1.
         11    1    5    5    0    0 -0.15784894076E+03 -0.25353807581E+03  0.11760110151E+03  0.32097953683E+03  0.00000000000E+00 0. -1.
        -11    1    5    5    0    0 -0.57116981174E+02 -0.38010267857E+02  0.65461563997E+02  0.94827983010E+02  0.00000000000E+00 0.  1.
          4    1    6    6  503    0  0.60668007426E+03 -0.16937916955E+03 -0.14059646778E+03  0.64538157886E+03  0.00000000000E+00 0. -1.
         -4    1    6    6    0  503  0.34253863704E+02 -0.11743922450E+01  0.10959550856E+02  0.35983581405E+02  0.00000000000E+00 0.  1.
<mgrwt>
<rscale>  0 0.22922658E+04</rscale>
<asrwt>0</asrwt>
<pdfrwt beam="1">  1        2 0.31526292E+00 0.22922658E+04</pdfrwt>
<pdfrwt beam="2">  1       -1 0.98621211E-01 0.22922658E+04</pdfrwt>
<totfact> 0.63706330E+00</totfact>
</mgrwt>
</event>
<event>
12    6  0.1462228E-007  0.1669389E+04  0.7818608E-02  0.8779018E-01
          2   -1    0    0  501    0  0.00000000000E+00  0.00000000000E+00  0.55688375365E+03  0.55688375365E+03  0.00000000000E+00 0. -1.
         -1   -1    0    0    0  501 -0.00000000000E+00 -0.00000000000E+00 -0.12510950560E+04  0.12510950560E+04  0.00000000000E+00 0.  1.
         24    2    1    2    0    0  0.26371436587E+03 -0.52425200490E+03 -0.33754079460E+03  0.68181248507E+03  0.80926172375E+02 0.  0.
        254    2    1    2    0    0 -0.26371436587E+03  0.52425200490E+03 -0.35667050780E+03  0.11261663246E+04  0.89255325229E+03 0.  0.
         23    2    4    4    0    0  0.21398828539E+03  0.23601205584E+03 -0.44410392971E+03  0.55447871299E+03  0.93411273336E+02 0.  0.
         23    2    4    4    0    0 -0.47770265126E+03  0.28823994905E+03  0.87433421906E+02  0.57168761164E+03  0.88882117338E+02 0.  0.
          2    1    3    3  502    0  0.32513539314E+02 -0.21411847221E+02 -0.23614080930E+02  0.45532650464E+02  0.00000000000E+00 0. -1.
         -1    1    3    3    0  502  0.23120082655E+03 -0.50284015767E+03 -0.31392671367E+03  0.63627983460E+03  0.00000000000E+00 0.  1.
         11    1    5    5    0    0  0.17393870803E+03  0.13401983780E+03 -0.26088188764E+03  0.34099171599E+03  0.00000000000E+00 0. -1.
        -11    1    5    5    0    0  0.40049577364E+02  0.10199221804E+03 -0.18322204207E+03  0.21348699700E+03  0.00000000000E+00 0.  1.
          4    1    6    6  503    0 -0.28643142406E+03  0.17478179176E+03  0.83375414794E+01  0.33565033892E+03  0.00000000000E+00 0. -1.
         -4    1    6    6    0  503 -0.19127122720E+03  0.11345815729E+03  0.79095880427E+02  0.23603727272E+03  0.00000000000E+00 0.  1.
<mgrwt>
<rscale>  0 0.16693885E+04</rscale>
<asrwt>0</asrwt>
<pdfrwt beam="1">  1        2 0.85674425E-01 0.16693885E+04</pdfrwt>
<pdfrwt beam="2">  1       -1 0.19247616E+00 0.16693885E+04</pdfrwt>
<totfact> 0.10035472E+01</totfact>
</mgrwt>
</event>
<event>
12    6  0.1462228E-007  0.2362135E+04  0.7818608E-02  0.8453817E-01
         -1   -1    0    0    0  501 -0.00000000000E+00  0.00000000000E+00  0.20398030402E+04  0.20398030402E+04  0.00000000000E+00 0.  1.
          2   -1    0    0  501    0  0.00000000000E+00 -0.00000000000E+00 -0.68385031275E+03  0.68385031275E+03  0.00000000000E+00 0. -1.
         24    2    1    2    0    0 -0.77722777164E+03  0.49090505738E+02  0.13116286362E+04  0.15274561679E+04  0.79118764940E+02 0.  0.
        254    2    1    2    0    0  0.77722777164E+03 -0.49090505738E+02  0.44324091287E+02  0.11961971850E+04  0.90687937104E+03 0.  0.
         23    2    4    4    0    0  0.77835206551E+03  0.73647516394E+02  0.34452534828E+03  0.85929172499E+03  0.91807725633E+02 0.  0.
         23    2    4    4    0    0 -0.11242938679E+01 -0.12273802213E+03 -0.30020125699E+03  0.33690546003E+03  0.91206404310E+02 0.  0.
          2    1    3    3  502    0 -0.12691207180E+03 -0.17718808543E+02  0.24316871350E+03  0.27486661014E+03  0.00000000000E+00 0. -1.
         -1    1    3    3    0  502 -0.65031569984E+03  0.66809314281E+02  0.10684599227E+04  0.12525895578E+04  0.00000000000E+00 0.  1.
         11    1    5    5    0    0  0.15980954880E+03  0.43090199796E+01  0.11046768411E+03  0.19432130294E+03  0.00000000000E+00 0. -1.
        -11    1    5    5    0    0  0.61854251670E+03  0.69338496414E+02  0.23405766416E+03  0.66497042205E+03  0.00000000000E+00 0.  1.
          4    1    6    6  503    0  0.21912056875E+02 -0.56560751470E+02 -0.54969797067E+02  0.81859241585E+02  0.00000000000E+00 0. -1.
         -4    1    6    6    0  503 -0.23036350743E+02 -0.66177270662E+02 -0.24523145992E+03  0.25504621844E+03  0.00000000000E+00 0.  1.
<mgrwt>
<rscale>  0 0.23621346E+04</rscale>
<asrwt>0</asrwt>
<pdfrwt beam="1">  1        2 0.10520774E+00 0.23621346E+04</pdfrwt>
<pdfrwt beam="2">  1       -1 0.31381585E+00 0.23621346E+04</pdfrwt>
<totfact> 0.11668213E+00</totfact>
</mgrwt>
</event>
<event>
12    6  0.1462228E-007  0.2180299E+04  0.7818608E-02  0.8526673E-01
          2   -1    0    0  501    0  0.00000000000E+00  0.00000000000E+00  0.23719333086E+04  0.23719333086E+04  0.00000000000E+00 0. -1.
         -1   -1    0    0    0  501 -0.00000000000E+00 -0.00000000000E+00 -0.50103680721E+03  0.50103680721E+03  0.00000000000E+00 0.  1.
         24    2    1    2    0    0 -0.10148625157E+03  0.75242252473E+03  0.14203923591E+04  0.16126102126E+04  0.80982275321E+02 0.  0.
        254    2    1    2    0    0  0.10148625157E+03 -0.75242252473E+03  0.45050414233E+03  0.12603599033E+04  0.89950763674E+03 0.  0.
         23    2    4    4    0    0  0.72818799669E+02 -0.90555457340E+03  0.17208719933E+03  0.92863916195E+03  0.86168590283E+02 0.  0.
         23    2    4    4    0    0  0.28667451906E+02  0.15313204867E+03  0.27841694300E+03  0.33172074132E+03  0.90837266290E+02 0.  0.
          2    1    3    3  502    0 -0.92138187347E+02  0.59645441234E+03  0.11889946075E+04  0.13333999731E+04  0.00000000000E+00 0. -1.
         -1    1    3    3    0  502 -0.93480642276E+01  0.15596811239E+03  0.23139775163E+03  0.27921023951E+03  0.00000000000E+00 0.  1.
         11    1    5    5    0    0  0.36947148340E+02 -0.53253269002E+03  0.14373533003E+03  0.55282547228E+03  0.00000000000E+00 0.  1.
        -11    1    5    5    0    0  0.35871651329E+02 -0.37302188338E+03  0.28351869307E+02  0.37581368967E+03  0.00000000000E+00 0. -1.
          1    1    6    6  503    0  0.12282530615E+02  0.12948295073E+01 -0.19059489431E+01  0.12496790914E+02  0.00000000000E+00 0. -1.
         -1    1    6    6    0  503  0.16384921291E+02  0.15183721916E+03  0.28032289194E+03  0.31922395041E+03  0.00000000000E+00 0.  1.
<mgrwt>
<rscale>  0 0.21802990E+04</rscale>
<asrwt>0</asrwt>
<pdfrwt beam="1">  1        2 0.36491281E+00 0.21802990E+04</pdfrwt>
<pdfrwt beam="2">  1       -1 0.77082587E-01 0.21802990E+04</pdfrwt>
<totfact> 0.72547221E+00</totfact>
</mgrwt>
</event>
<event>
12    6  0.1462228E-007  0.1295081E+04  0.7818608E-02  0.9033475E-01
         -1   -1    0    0    0  501 -0.00000000000E+00  0.00000000000E+00  0.54927470843E+03  0.54927470843E+03  0.00000000000E+00 0.  1.
          2   -1    0    0  501    0  0.00000000000E+00 -0.00000000000E+00 -0.76338658165E+03  0.76338658165E+03  0.00000000000E+00 0. -1.
         24    2    1    2    0    0  0.31278537407E+03 -0.81925510947E+02 -0.78883609680E+02  0.34260083612E+03  0.81278714682E+02 0.  0.
        254    2    1    2    0    0 -0.31278537407E+03  0.81925510947E+02 -0.13522826354E+03  0.97006045396E+03  0.90453530694E+03 0.  0.
         23    2    4    4    0    0 -0.13252875172E+03  0.54735746878E+02  0.38028466901E+03  0.41620349263E+03  0.89716474376E+02 0.  0.
         23    2    4    4    0    0 -0.18025662234E+03  0.27189764069E+02 -0.51551293255E+03  0.55385696133E+03  0.88160177090E+02 0.  0.
          2    1    3    3  502    0  0.19253505378E+03 -0.24026138001E+02 -0.14919182724E+02  0.19460109007E+03  0.00000000000E+00 0. -1.
         -1    1    3    3    0  502  0.12025032029E+03 -0.57899372947E+02 -0.63964426956E+02  0.14799974605E+03  0.00000000000E+00 0.  1.
         11    1    5    5    0    0 -0.31367961984E+02 -0.60116768325E+01  0.21470067370E+02  0.38484452579E+02  0.00000000000E+00 0. -1.
        -11    1    5    5    0    0 -0.10116078974E+03  0.60747423711E+02  0.35881460164E+03  0.37771904005E+03  0.00000000000E+00 0.  1.
          1    1    6    6  503    0 -0.16227019705E+03 -0.67785278655E+01 -0.44214577324E+03  0.47103126233E+03  0.00000000000E+00 0.  1.
         -1    1    6    6    0  503 -0.17986425294E+02  0.33968291934E+02 -0.73367159302E+02  0.82825699006E+02  0.00000000000E+00 0. -1.
<mgrwt>
<rscale>  0 0.12950814E+04</rscale>
<asrwt>0</asrwt>
<pdfrwt beam="1">  1        2 0.11744409E+00 0.12950814E+04</pdfrwt>
<pdfrwt beam="2">  1       -1 0.84503801E-01 0.12950814E+04</pdfrwt>
<totfact> 0.56915360E+01</totfact>
</mgrwt>
</event>
<event>
12    6  0.1462228E-007  0.1386899E+04  0.7818608E-02  0.8963357E-01
          2   -1    0    0  501    0  0.00000000000E+00  0.00000000000E+00  0.12805046343E+04  0.12805046343E+04  0.00000000000E+00 0. -1.
         -1   -1    0    0    0  501 -0.00000000000E+00 -0.00000000000E+00 -0.37553312952E+03  0.37553312952E+03  0.00000000000E+00 0.  1.
         24    2    1    2    0    0 -0.34382908696E+02 -0.25538383319E+02 -0.20573623068E+03  0.22475206753E+03  0.79697564649E+02 0.  0.
        254    2    1    2    0    0  0.34382908696E+02  0.25538383319E+02  0.11107077355E+04  0.14312856963E+04  0.90170542718E+03 0.  0.
         23    2    4    4    0    0  0.23261690404E+03  0.23616249764E+03  0.74619342646E+02  0.35188882915E+03  0.91511488076E+02 0.  0.
         23    2    4    4    0    0 -0.19823399534E+03 -0.21062411432E+03  0.10360883928E+04  0.10793968672E+04  0.89214374656E+02 0.  0.
          4    1    3    3  502    0 -0.51358955087E+02 -0.20687124906E+02 -0.77165847282E+02  0.94975088267E+02  0.00000000000E+00 0. -1.
         -3    1    3    3    0  502  0.16976046391E+02 -0.48512584131E+01 -0.12857038340E+03  0.12977697926E+03  0.00000000000E+00 0.  1.
         11    1    5    5    0    0  0.20726290557E+03  0.23924552290E+03  0.78314812529E+02  0.32608210947E+03  0.00000000000E+00 0. -1.
        -11    1    5    5    0    0  0.25353998474E+02 -0.30830252629E+01 -0.36954698831E+01  0.25806719688E+02  0.00000000000E+00 0.  1.
          2    1    6    6  503    0 -0.17563993627E+03 -0.18062376055E+03  0.98020894310E+03  0.10120691193E+04  0.00000000000E+00 0. -1.
         -2    1    6    6    0  503 -0.22594059071E+02 -0.30000353767E+02  0.55879449722E+02  0.67327747866E+02  0.00000000000E+00 0.  1.
<mgrwt>
<rscale>  0 0.13868986E+04</rscale>
<asrwt>0</asrwt>
<pdfrwt beam="1">  1        2 0.19700071E+00 0.13868986E+04</pdfrwt>
<pdfrwt beam="2">  1       -1 0.57774328E-01 0.13868986E+04</pdfrwt>
<totfact> 0.57195371E+01</totfact>
</mgrwt>
</event>
<event>
12    6  0.1462228E-007  0.2723405E+04  0.7818608E-02  0.8327451E-01
         -1   -1    0    0    0  501 -0.00000000000E+00  0.00000000000E+00  0.11351518613E+04  0.11351518613E+04  0.00000000000E+00 0.  1.
          2   -1    0    0  501    0  0.00000000000E+00 -0.00000000000E+00 -0.16334675902E+04  0.16334675902E+04  0.00000000000E+00 0. -1.
         24    2    1    2    0    0  0.30434996212E+03 -0.73958580516E+03 -0.11522749431E+04  0.14048971680E+04  0.79890210121E+02 0.  0.
        254    2    1    2    0    0 -0.30434996212E+03  0.73958580516E+03  0.65395921419E+03  0.13637222834E+04  0.89020208375E+03 0.  0.
         23    2    4    4    0    0  0.15203888445E+03  0.38131597108E+03 -0.77380739307E+02  0.42641050112E+03  0.85559595946E+02 0.  0.
         23    2    4    4    0    0 -0.45638884657E+03  0.35826983408E+03  0.73133995349E+03  0.93731178233E+03  0.83947581487E+02 0.  0.
          4    1    3    3  502    0  0.18084872930E+03 -0.49077247309E+03 -0.80835782846E+03  0.96281164413E+03  0.00000000000E+00 0. -1.
         -3    1    3    3    0  502  0.12350123282E+03 -0.24881333207E+03 -0.34391711462E+03  0.44208552391E+03  0.00000000000E+00 0.  1.
         11    1    5    5    0    0  0.83420621505E+02  0.26737901173E+03 -0.86365409506E+02  0.29310325819E+03  0.00000000000E+00 0. -1.
        -11    1    5    5    0    0  0.68618262947E+02  0.11393695936E+03  0.89846701998E+01  0.13330724292E+03  0.00000000000E+00 0.  1.
          1    1    6    6  503    0 -0.43349340044E+03  0.31211287743E+03  0.67812792252E+03  0.86324298768E+03  0.00000000000E+00 0. -1.
         -1    1    6    6    0  503 -0.22895446131E+02  0.46156956644E+02  0.53212030975E+02  0.74068794649E+02  0.00000000000E+00 0.  1.
<mgrwt>
<rscale>  0 0.27234051E+04</rscale>
<asrwt>0</asrwt>
<pdfrwt beam="1">  1        2 0.25130271E+00 0.27234051E+04</pdfrwt>
<pdfrwt beam="2">  1       -1 0.17463875E+00 0.27234051E+04</pdfrwt>
<totfact> 0.24232940E+00</totfact>
</mgrwt>
</event>
<event>
12    6  0.1462228E-007  0.2541914E+04  0.7818608E-02  0.8388204E-01
         -1   -1    0    0    0  501 -0.00000000000E+00  0.00000000000E+00  0.82104259670E+03  0.82104259670E+03  0.00000000000E+00 0.  1.
          2   -1    0    0  501    0  0.00000000000E+00 -0.00000000000E+00 -0.19674159188E+04  0.19674159188E+04  0.00000000000E+00 0. -1.
         24    2    1    2    0    0 -0.16710477287E+03  0.65795393447E+03 -0.14621581483E+04  0.16143456613E+04  0.85895741954E+02 0.  0.
        254    2    1    2    0    0  0.16710477287E+03 -0.65795393447E+03  0.31578482623E+03  0.11741128542E+04  0.90442996018E+03 0.  0.
         23    2    4    4    0    0 -0.14667022593E+03 -0.39963709602E+03 -0.22551457659E+03  0.49037097493E+03  0.91569127503E+02 0.  0.
         23    2    4    4    0    0  0.31377499879E+03 -0.25831683845E+03  0.54129940282E+03  0.68374187925E+03  0.96517226696E+02 0.  0.
          4    1    3    3  502    0 -0.16255905228E+03  0.52429285310E+03 -0.11297589615E+04  0.12560508558E+04  0.00000000000E+00 0. -1.
         -3    1    3    3    0  502 -0.45457205819E+01  0.13366108137E+03 -0.33239918680E+03  0.35829480548E+03  0.00000000000E+00 0.  1.
         11    1    5    5    0    0 -0.14080575813E+03 -0.33931516976E+03 -0.15875660507E+03  0.40020582905E+03  0.00000000000E+00 0. -1.
        -11    1    5    5    0    0 -0.58644677967E+01 -0.60321926256E+02 -0.66757971521E+02  0.90165145879E+02  0.00000000000E+00 0.  1.
          3    1    6    6  503    0  0.28830779204E+03 -0.19660015199E+03  0.47727471287E+03  0.59123950668E+03  0.00000000000E+00 0. -1.
         -3    1    6    6    0  503  0.25467206747E+02 -0.61716686457E+02  0.64024689950E+02  0.92502372564E+02  0.00000000000E+00 0.  1.
<mgrwt>
<rscale>  0 0.25419145E+04</rscale>
<asrwt>0</asrwt>
<pdfrwt beam="1">  1        2 0.30267937E+00 0.25419145E+04</pdfrwt>
<pdfrwt beam="2">  1       -1 0.12631425E+00 0.25419145E+04</pdfrwt>
<totfact> 0.38409124E+00</totfact>
</mgrwt>
</event>
<event>
12    6  0.1462228E-007  0.1731850E+04  0.7818608E-02  0.8743405E-01
         -1   -1    0    0    0  501 -0.00000000000E+00  0.00000000000E+00  0.68014413944E+03  0.68014413944E+03  0.00000000000E+00 0.  1.
          2   -1    0    0  501    0  0.00000000000E+00 -0.00000000000E+00 -0.11024518851E+04  0.11024518851E+04  0.00000000000E+00 0. -1.
         24    2    1    2    0    0  0.30156030920E+03  0.30255610045E+03 -0.64815350546E+03  0.78029069574E+03  0.79194628638E+02 0.  0.
        254    2    1    2    0    0 -0.30156030920E+03 -0.30255610045E+03  0.22584575980E+03  0.10023053288E+04  0.87814056446E+03 0.  0.
         23    2    4    4    0    0 -0.16877250359E+03 -0.58597605168E+03  0.20447880987E+02  0.61690805521E+03  0.91133647120E+02 0.  0.
         23    2    4    4    0    0 -0.13278780560E+03  0.28341995123E+03  0.20539787881E+03  0.38539727360E+03  0.91560361555E+02 0.  0.
          2    1    3    3  502    0  0.24892117803E+03  0.20085612432E+03 -0.47030990877E+03  0.56876739167E+03  0.00000000000E+00 0. -1.
         -1    1    3    3    0  502  0.52639131167E+02  0.10169997613E+03 -0.17784359670E+03  0.21152330406E+03  0.00000000000E+00 0.  1.
         11    1    5    5    0    0 -0.83941270191E+02 -0.14852843939E+03  0.15161684167E+02  0.17127962756E+03  0.00000000000E+00 0.  1.
        -11    1    5    5    0    0 -0.84831233404E+02 -0.43744761229E+03  0.52861968197E+01  0.44562842766E+03  0.00000000000E+00 0. -1.
          1    1    6    6  503    0 -0.24987963177E+01  0.83459759440E+01  0.36049694897E+02  0.37087461488E+02  0.00000000000E+00 0.  1.
         -1    1    6    6    0  503 -0.13028900928E+03  0.27507397528E+03  0.16934818392E+03  0.34830981211E+03  0.00000000000E+00 0. -1.
<mgrwt>
<rscale>  0 0.17318501E+04</rscale>
<asrwt>0</asrwt>
<pdfrwt beam="1">  1        2 0.16960798E+00 0.17318501E+04</pdfrwt>
<pdfrwt beam="2">  1       -1 0.10463756E+00 0.17318501E+04</pdfrwt>
<totfact> 0.20175059E+01</totfact>
</mgrwt>
</event>
<event>
12    6  0.1462228E-007  0.4169969E+04  0.7818608E-02  0.7971109E-01
         -1   -1    0    0    0  501 -0.00000000000E+00  0.00000000000E+00  0.12652624693E+04  0.12652624693E+04  0.00000000000E+00 0.  1.
          2   -1    0    0  501    0  0.00000000000E+00 -0.00000000000E+00 -0.34357780301E+04  0.34357780301E+04  0.00000000000E+00 0. -1.
         24    2    1    2    0    0 -0.13394267889E+04  0.12975260830E+04 -0.25325368978E+03  0.18835937513E+04  0.78421486406E+02 0.  0.
        254    2    1    2    0    0  0.13394267889E+04 -0.12975260830E+04 -0.19172618710E+04  0.28174467482E+04  0.88570595452E+03 0.  0.
         23    2    4    4    0    0  0.78590924369E+03 -0.10990724595E+04 -0.17213240158E+04  0.21902780395E+04  0.93530275991E+02 0.  0.
         23    2    4    4    0    0  0.55351754524E+03 -0.19845362346E+03 -0.19593785524E+03  0.62716870866E+03  0.95830227255E+02 0.  0.
          2    1    3    3  502    0 -0.21489329571E+03  0.24125955823E+03 -0.61824590436E+02  0.32894921031E+03  0.00000000000E+00 0. -1.
         -1    1    3    3    0  502 -0.11245334932E+04  0.10562665247E+04 -0.19142909935E+03  0.15546445410E+04  0.00000000000E+00 0.  1.
         11    1    5    5    0    0  0.76534995413E+03 -0.10819185757E+04 -0.16660208212E+04  0.21288338905E+04  0.00000000000E+00 0.  1.
        -11    1    5    5    0    0  0.20559289561E+02 -0.17153883832E+02 -0.55303194563E+02  0.61444149002E+02  0.00000000000E+00 0. -1.
          1    1    6    6  503    0  0.28025096240E+03 -0.13383027762E+03 -0.14084694503E+03  0.34101174035E+03  0.00000000000E+00 0. -1.
         -1    1    6    6    0  503  0.27326658284E+03 -0.64623345844E+02 -0.55090910209E+02  0.28615696831E+03  0.00000000000E+00 0.  1.
<mgrwt>
<rscale>  0 0.41699693E+04</rscale>
<asrwt>0</asrwt>
<pdfrwt beam="1">  1        2 0.52858123E+00 0.41699693E+04</pdfrwt>
<pdfrwt beam="2">  1       -1 0.19465577E+00 0.41699693E+04</pdfrwt>
<totfact> 0.13022809E-01</totfact>
</mgrwt>
</event>
<event>
12    6  0.1462228E-007  0.1631279E+04  0.7818608E-02  0.8801559E-01
         -1   -1    0    0    0  501 -0.00000000000E+00  0.00000000000E+00  0.35407327656E+03  0.35407327656E+03  0.00000000000E+00 0.  1.
          2   -1    0    0  501    0  0.00000000000E+00 -0.00000000000E+00 -0.18788992908E+04  0.18788992908E+04  0.00000000000E+00 0. -1.
         24    2    1    2    0    0 -0.14577140810E+03  0.53188630135E+03 -0.58135583386E+03  0.80498290307E+03  0.76619368805E+02 0.  0.
        254    2    1    2    0    0  0.14577140810E+03 -0.53188630135E+03 -0.94347018038E+03  0.14279896643E+04  0.91916601281E+03 0.  0.
         23    2    4    4    0    0  0.32066586818E+03 -0.20256222215E+03  0.20327257875E+02  0.39035525279E+03  0.90033177822E+02 0.  0.
         23    2    4    4    0    0 -0.17489446008E+03 -0.32932407920E+03 -0.96379743825E+03  0.10376344115E+04  0.93473251074E+02 0.  0.
          2    1    3    3  502    0 -0.10018829753E+03  0.30017687612E+03 -0.38106253990E+03  0.49533070896E+03  0.00000000000E+00 0. -1.
         -3    1    3    3    0  502 -0.45583110569E+02  0.23170942523E+03 -0.20029329396E+03  0.30965219411E+03  0.00000000000E+00 0.  1.
         11    1    5    5    0    0  0.20370184757E+03 -0.17381650111E+03  0.30344990030E+02  0.26949478136E+03  0.00000000000E+00 0. -1.
        -11    1    5    5    0    0  0.11696402061E+03 -0.28745721036E+02 -0.10017732155E+02  0.12086047143E+03  0.00000000000E+00 0.  1.
          3    1    6    6  503    0 -0.15884597480E+02 -0.12254757131E+03 -0.31153198556E+03  0.33514535011E+03  0.00000000000E+00 0. -1.
         -3    1    6    6    0  503 -0.15900986260E+03 -0.20677650789E+03 -0.65226545269E+03  0.70248906140E+03  0.00000000000E+00 0.  1.
<mgrwt>
<rscale>  0 0.16312793E+04</rscale>
<asrwt>0</asrwt>
<pdfrwt beam="1">  1        2 0.28906143E+00 0.16312793E+04</pdfrwt>
<pdfrwt beam="2">  1       -1 0.54472811E-01 0.16312793E+04</pdfrwt>
<totfact> 0.28938529E+01</totfact>
</mgrwt>
</event>
<event>
12    6  0.1462228E-007  0.1254980E+04  0.7818608E-02  0.9066048E-01
         -1   -1    0    0    0  501 -0.00000000000E+00  0.00000000000E+00  0.27388354753E+03  0.27388354753E+03  0.00000000000E+00 0.  1.
          2   -1    0    0  501    0  0.00000000000E+00 -0.00000000000E+00 -0.14376322073E+04  0.14376322073E+04  0.00000000000E+00 0. -1.
         24    2    1    2    0    0 -0.47416651886E+02  0.25504810836E+02 -0.82289776269E+03  0.82842170834E+03  0.78885770327E+02 0.  0.
        254    2    1    2    0    0  0.47416651886E+02 -0.25504810836E+02 -0.34085089712E+03  0.88309404653E+03  0.81288186515E+03 0.  0.
         23    2    4    4    0    0  0.22966265457E+03 -0.26649345810E+03 -0.42262813460E+03  0.55746345527E+03  0.91582016173E+02 0.  0.
         23    2    4    4    0    0 -0.18224600268E+03  0.24098864727E+03  0.81777237484E+02  0.32563059126E+03  0.89769882412E+02 0.  0.
          4    1    3    3  502    0 -0.52151955791E+02  0.37466083668E+02 -0.38375238412E+03  0.38908794152E+03  0.00000000000E+00 0. -1.
         -3    1    3    3    0  502  0.47353039045E+01 -0.11961272831E+02 -0.43914537858E+03  0.43933376683E+03  0.00000000000E+00 0.  1.
         11    1    5    5    0    0  0.16530433372E+03 -0.23383367027E+03 -0.29691836531E+03  0.41250966505E+03  0.00000000000E+00 0.  1.
        -11    1    5    5    0    0  0.64358320848E+02 -0.32659787832E+02 -0.12570976930E+03  0.14495379022E+03  0.00000000000E+00 0. -1.
          4    1    6    6  503    0 -0.18093516581E+03  0.23946344144E+03  0.62909483943E+02  0.30665595899E+03  0.00000000000E+00 0.  1.
         -4    1    6    6    0  503 -0.13108368753E+01  0.15252058239E+01  0.18867753541E+02  0.18974632271E+02  0.00000000000E+00 0. -1.
<mgrwt>
<rscale>  0 0.12549802E+04</rscale>
<asrwt>0</asrwt>
<pdfrwt beam="1">  1        2 0.22117418E+00 0.12549802E+04</pdfrwt>
<pdfrwt beam="2">  1       -1 0.42135931E-01 0.12549802E+04</pdfrwt>
<totfact> 0.85359281E+01</totfact>
</mgrwt>
</event>
<event>
12    6  0.1462228E-007  0.3272531E+04  0.7818608E-02  0.8169920E-01
          2   -1    0    0  501    0  0.00000000000E+00  0.00000000000E+00  0.16586068340E+04  0.16586068340E+04  0.00000000000E+00 0. -1.
         -1   -1    0    0    0  501 -0.00000000000E+00 -0.00000000000E+00 -0.16142251990E+04  0.16142251990E+04  0.00000000000E+00 0.  1.
         24    2    1    2    0    0 -0.96127515890E+03  0.79226960595E+03 -0.83596262684E+03  0.15023217218E+04  0.79974888501E+02 0.  0.
        254    2    1    2    0    0  0.96127515890E+03 -0.79226960595E+03  0.88034426183E+03  0.17705103111E+04  0.89886577568E+03 0.  0.
         23    2    4    4    0    0  0.35467129763E+03 -0.83367491866E+03  0.41780719504E+03  0.10011345326E+04  0.83077679544E+02 0.  0.
         23    2    4    4    0    0  0.60660386127E+03  0.41405312708E+02  0.46253706679E+03  0.76937577845E+03  0.91191588915E+02 0.  0.
          2    1    3    3  502    0 -0.34818517198E+03  0.30415504573E+03 -0.26689469839E+03  0.53383142083E+03  0.00000000000E+00 0. -1.
         -1    1    3    3    0  502 -0.61308998692E+03  0.48811456022E+03 -0.56906792845E+03  0.96849030101E+03  0.00000000000E+00 0.  1.
         11    1    5    5    0    0  0.12235215181E+02 -0.18943410421E+02 -0.21611216001E+01  0.22654441848E+02  0.00000000000E+00 0. -1.
        -11    1    5    5    0    0  0.34243608245E+03 -0.81473150824E+03  0.41996831664E+03  0.97848009079E+03  0.00000000000E+00 0.  1.
          3    1    6    6  503    0  0.71284223776E+02  0.20685455929E+02  0.90978192879E+02  0.11741533216E+03  0.00000000000E+00 0. -1.
         -3    1    6    6    0  503  0.53531963750E+03  0.20719856779E+02  0.37155887391E+03  0.65196044630E+03  0.00000000000E+00 0.  1.
<mgrwt>
<rscale>  0 0.32725311E+04</rscale>
<asrwt>0</asrwt>
<pdfrwt beam="1">  1        2 0.25517028E+00 0.32725311E+04</pdfrwt>
<pdfrwt beam="2">  1       -1 0.24834234E+00 0.32725311E+04</pdfrwt>
<totfact> 0.70432786E-01</totfact>
</mgrwt>
</event>
<event>
12    6  0.1462228E-007  0.2307788E+04  0.7818608E-02  0.8474857E-01
          2   -1    0    0  501    0  0.00000000000E+00  0.00000000000E+00  0.17294606983E+04  0.17294606983E+04  0.00000000000E+00 0. -1.
         -1   -1    0    0    0  501 -0.00000000000E+00 -0.00000000000E+00 -0.76987639272E+03  0.76987639272E+03  0.00000000000E+00 0.  1.
         24    2    1    2    0    0  0.78118759516E+03  0.13776999163E+03  0.10231987247E+04  0.12975668031E+04  0.86656499497E+02 0.  0.
        254    2    1    2    0    0 -0.78118759516E+03 -0.13776999163E+03 -0.63614419070E+02  0.12017702879E+04  0.90053895043E+03 0.  0.
         23    2    4    4    0    0 -0.63472354152E+02  0.18956681913E+03 -0.30058571919E+03  0.37241749269E+03  0.91535215217E+02 0.  0.
         23    2    4    4    0    0 -0.71771524101E+03 -0.32733681076E+03  0.23697130012E+03  0.82935279525E+03  0.96985086789E+02 0.  0.
          4    1    3    3  502    0  0.64692900119E+03  0.14378815157E+03  0.87244023286E+03  0.10956021746E+04  0.00000000000E+00 0. -1.
         -3    1    3    3    0  502  0.13425859397E+03 -0.60181599426E+01  0.15075849182E+03  0.20196462849E+03  0.00000000000E+00 0.  1.
         11    1    5    5    0    0  0.20909719429E+02  0.16730702446E+02 -0.27361298481E+02  0.38285420534E+02  0.00000000000E+00 0. -1.
        -11    1    5    5    0    0 -0.84382073581E+02  0.17283611668E+03 -0.27322442071E+03  0.33413207216E+03  0.00000000000E+00 0.  1.
          1    1    6    6  503    0 -0.21055523171E+03 -0.10294761536E+03  0.11694271955E+03  0.26192998447E+03  0.00000000000E+00 0. -1.
         -1    1    6    6    0  503 -0.50716000930E+03 -0.22438919540E+03  0.12002858057E+03  0.56742281078E+03  0.00000000000E+00 0.  1.
<mgrwt>
<rscale>  0 0.23077877E+04</rscale>
<asrwt>0</asrwt>
<pdfrwt beam="1">  1        2 0.26607088E+00 0.23077877E+04</pdfrwt>
<pdfrwt beam="2">  1       -1 0.11844252E+00 0.23077877E+04</pdfrwt>
<totfact> 0.62272196E+00</totfact>
</mgrwt>
</event>
<event>
12    6  0.1462228E-007  0.1123971E+04  0.7818608E-02  0.9182138E-01
          2   -1    0    0  501    0  0.00000000000E+00  0.00000000000E+00  0.16549681986E+04  0.16549681986E+04  0.00000000000E+00 0. -1.
         -3   -1    0    0    0  501 -0.00000000000E+00 -0.00000000000E+00 -0.19083613552E+03  0.19083613552E+03  0.00000000000E+00 0.  1.
         24    2    1    2    0    0  0.65339368680E+02 -0.17976447827E+03  0.28125686280E+03  0.34778153819E+03  0.72540159126E+02 0.  0.
        254    2    1    2    0    0 -0.65339368680E+02  0.17976447827E+03  0.11828752003E+04  0.14980227959E+04  0.89905175432E+03 0.  0.
         23    2    4    4    0    0  0.12245173356E+03 -0.50133665307E+02 -0.90851733156E+02  0.18690933781E+03  0.95777093782E+02 0.  0.
         23    2    4    4    0    0 -0.18779110224E+03  0.22989814358E+03  0.12737269334E+04  0.13111134581E+04  0.92301379254E+02 0.  0.
          4    1    3    3  502    0  0.40353119763E+02 -0.54408025256E+02  0.14991069331E+03  0.16450478247E+03  0.00000000000E+00 0. -1.
         -3    1    3    3    0  502  0.24986248917E+02 -0.12535645301E+03  0.13134616949E+03  0.18327675572E+03  0.00000000000E+00 0.  1.
         11    1    5    5    0    0  0.99066752710E+02 -0.75453805997E+02 -0.87673481488E+02  0.15229621692E+03  0.00000000000E+00 0.  1.
        -11    1    5    5    0    0  0.23384980854E+02  0.25320140690E+02 -0.31782516673E+01  0.34613120890E+02  0.00000000000E+00 0. -1.
          4    1    6    6  503    0 -0.41062946041E+02  0.36817006196E+01  0.17124726491E+03  0.17614013227E+03  0.00000000000E+00 0. -1.
         -4    1    6    6    0  503 -0.14672815620E+03  0.22621644296E+03  0.11024796685E+04  0.11349733258E+04  0.00000000000E+00 0.  1.
<mgrwt>
<rscale>  0 0.11239711E+04</rscale>
<asrwt>0</asrwt>
<pdfrwt beam="1">  1        2 0.25461048E+00 0.11239711E+04</pdfrwt>
<pdfrwt beam="2">  1       -3 0.29359407E-01 0.11239711E+04</pdfrwt>
<totfact> 0.75101900E+01</totfact>
</mgrwt>
</event>
<event>
12    6  0.1462228E-007  0.2456821E+04  0.7818608E-02  0.8418532E-01
         -1   -1    0    0    0  501 -0.00000000000E+00  0.00000000000E+00  0.68963009985E+03  0.68963009985E+03  0.00000000000E+00 0.  1.
          2   -1    0    0  501    0  0.00000000000E+00 -0.00000000000E+00 -0.21881176418E+04  0.21881176418E+04  0.00000000000E+00 0. -1.
         24    2    1    2    0    0  0.31508412931E+03 -0.73955875119E+03 -0.14646825736E+04  0.16727197869E+04  0.80444323422E+02 0.  0.
        254    2    1    2    0    0 -0.31508412931E+03  0.73955875119E+03 -0.33804968372E+02  0.12050279547E+04  0.89706434595E+03 0.  0.
         23    2    4    4    0    0 -0.29235497908E+03  0.20173483757E+03 -0.40255861184E+03  0.54478711390E+03  0.92580694677E+02 0.  0.
         23    2    4    4    0    0 -0.22729150233E+02  0.53782391363E+03  0.36875364347E+03  0.66024084083E+03  0.10083423023E+03 0.  0.
          2    1    3    3  502    0  0.31895980422E+03 -0.72496737991E+03 -0.14459430239E+04  0.16486552966E+04  0.00000000000E+00 0. -1.
         -1    1    3    3    0  502 -0.38756749054E+01 -0.14591371281E+02 -0.18739549686E+02  0.24064490318E+02  0.00000000000E+00 0.  1.
         11    1    5    5    0    0 -0.17304138383E+02  0.29936937726E+01  0.91510910465E+00  0.17585017267E+02  0.00000000000E+00 0. -1.
        -11    1    5    5    0    0 -0.27505084070E+03  0.19874114379E+03 -0.40347372094E+03  0.52720209664E+03  0.00000000000E+00 0.  1.
          2    1    6    6  503    0 -0.38268900908E+02  0.26450285464E+03  0.23348720568E+03  0.35488384593E+03  0.00000000000E+00 0.  1.
         -2    1    6    6    0  503  0.15539750675E+02  0.27332105899E+03  0.13526643779E+03  0.30535699489E+03  0.00000000000E+00 0. -1.
<mgrwt>
<rscale>  0 0.24568205E+04</rscale>
<asrwt>0</asrwt>
<pdfrwt beam="1">  1        2 0.33663347E+00 0.24568205E+04</pdfrwt>
<pdfrwt beam="2">  1       -1 0.10609694E+00 0.24568205E+04</pdfrwt>
<totfact> 0.44364172E+00</totfact>
</mgrwt>
</event>
<event>
12    6  0.1462228E-007  0.1232575E+04  0.7818608E-02  0.9084812E-01
         -1   -1    0    0    0  501 -0.00000000000E+00  0.00000000000E+00  0.44085736875E+03  0.44085736875E+03  0.00000000000E+00 0.  1.
          2   -1    0    0  501    0  0.00000000000E+00 -0.00000000000E+00 -0.86152593286E+03  0.86152593286E+03  0.00000000000E+00 0. -1.
         24    2    1    2    0    0 -0.27350034024E+03 -0.51552042876E+02 -0.66400607641E+02  0.29682188399E+03  0.78956575928E+02 0.  0.
        254    2    1    2    0    0  0.27350034024E+03  0.51552042876E+02 -0.35426795647E+03  0.10055614176E+04  0.89899273100E+03 0.  0.
         23    2    4    4    0    0  0.18426071608E+02 -0.19218384257E+03 -0.55143919817E+03  0.59163536281E+03  0.93129285337E+02 0.  0.
         23    2    4    4    0    0  0.25507426864E+03  0.24373588545E+03  0.19717124170E+03  0.41392605481E+03  0.89376819819E+02 0.  0.
          2    1    3    3  502    0 -0.69013661324E+02  0.49119141339E+01 -0.47328551016E+02  0.83827227623E+02  0.00000000000E+00 0. -1.
         -1    1    3    3    0  502 -0.20448667892E+03 -0.56463957010E+02 -0.19072056625E+02  0.21299465637E+03  0.00000000000E+00 0.  1.
         11    1    5    5    0    0  0.27810212252E+02 -0.19277079204E+03 -0.54806866773E+03  0.58164701556E+03  0.00000000000E+00 0. -1.
        -11    1    5    5    0    0 -0.93841406448E+01  0.58694946339E+00 -0.33705304462E+01  0.99883472508E+01  0.00000000000E+00 0.  1.
          4    1    6    6  503    0  0.20063864033E+03  0.22483383462E+03  0.18904875759E+03  0.35573241338E+03  0.00000000000E+00 0. -1.
         -4    1    6    6    0  503  0.54435628305E+02  0.18902050829E+02  0.81224841093E+01  0.58193641428E+02  0.00000000000E+00 0.  1.
<mgrwt>
<rscale>  0 0.12325746E+04</rscale>
<asrwt>0</asrwt>
<pdfrwt beam="1">  1        2 0.13254245E+00 0.12325746E+04</pdfrwt>
<pdfrwt beam="2">  1       -1 0.67824211E-01 0.12325746E+04</pdfrwt>
<totfact> 0.77092425E+01</totfact>
</mgrwt>
</event>
<event>
12    6  0.1462228E-007  0.2121896E+04  0.7818608E-02  0.8551659E-01
         -1   -1    0    0    0  501 -0.00000000000E+00  0.00000000000E+00  0.26052259380E+04  0.26052259380E+04  0.00000000000E+00 0.  1.
          2   -1    0    0  501    0  0.00000000000E+00 -0.00000000000E+00 -0.43205881708E+03  0.43205881708E+03  0.00000000000E+00 0. -1.
         24    2    1    2    0    0  0.60111129120E+03 -0.49199933696E+03  0.34060492627E+03  0.85168071449E+03  0.77137485531E+02 0.  0.
        254    2    1    2    0    0 -0.60111129120E+03  0.49199933696E+03  0.18325621946E+04  0.21856040406E+04  0.90287468288E+03 0.  0.
         23    2    4    4    0    0 -0.44017414891E+03 -0.38138740818E+02  0.27115863467E+03  0.52630575033E+03  0.90900455171E+02 0.  0.
         23    2    4    4    0    0 -0.16093714229E+03  0.53013807777E+03  0.15614035600E+04  0.16592982903E+04  0.91337799787E+02 0.  0.
          4    1    3    3  502    0  0.43520194195E+03 -0.37516958267E+03  0.21771701448E+03  0.61445394004E+03  0.00000000000E+00 0. -1.
         -3    1    3    3    0  502  0.16590934925E+03 -0.11682975429E+03  0.12288791179E+03  0.23722677445E+03  0.00000000000E+00 0.  1.
         11    1    5    5    0    0 -0.13195264746E+03 -0.24186704457E+02  0.37551089237E+02  0.13930750930E+03  0.00000000000E+00 0.  1.
        -11    1    5    5    0    0 -0.30822150145E+03 -0.13952036361E+02  0.23360754544E+03  0.38699824103E+03  0.00000000000E+00 0. -1.
          4    1    6    6  503    0 -0.56642268472E+02  0.14108302994E+03  0.32198717167E+03  0.35607373764E+03  0.00000000000E+00 0.  1.
         -4    1    6    6    0  503 -0.10429487382E+03  0.38905504783E+03  0.12394163883E+04  0.13032245526E+04  0.00000000000E+00 0. -1.
<mgrwt>
<rscale>  0 0.21218962E+04</rscale>
<asrwt>0</asrwt>
<pdfrwt beam="1">  1        2 0.66470589E-01 0.21218962E+04</pdfrwt>
<pdfrwt beam="2">  1       -1 0.40080398E+00 0.21218962E+04</pdfrwt>
<totfact> 0.54152377E-01</totfact>
</mgrwt>
</event>
<event>
12    6  0.1462228E-007  0.2199604E+04  0.7818608E-02  0.8518593E-01
         -1   -1    0    0    0  501 -0.00000000000E+00  0.00000000000E+00  0.75245157261E+03  0.75245157261E+03  0.00000000000E+00 0.  1.
          2   -1    0    0  501    0  0.00000000000E+00 -0.00000000000E+00 -0.16074983666E+04  0.16074983666E+04  0.00000000000E+00 0. -1.
         24    2    1    2    0    0 -0.86087048334E+03 -0.30239863249E+03 -0.37147397502E+03  0.98835658193E+03  0.79453740697E+02 0.  0.
        254    2    1    2    0    0  0.86087048334E+03  0.30239863249E+03 -0.48357281897E+03  0.13715933573E+04  0.90270856011E+03 0.  0.
         23    2    4    4    0    0  0.93807691918E+03  0.13113057549E+03 -0.12993941417E+03  0.96059753457E+03  0.93165647781E+02 0.  0.
         23    2    4    4    0    0 -0.77206435845E+02  0.17126805700E+03 -0.35363340480E+03  0.41099582272E+03  0.92560251845E+02 0.  0.
          4    1    3    3  502    0 -0.45397841821E+03 -0.16884505820E+03 -0.15536398281E+03  0.50866789267E+03  0.00000000000E+00 0. -1.
         -3    1    3    3    0  502 -0.40689206513E+03 -0.13355357429E+03 -0.21610999221E+03  0.47968868926E+03  0.00000000000E+00 0.  1.
         11    1    5    5    0    0  0.53128449440E+03  0.10352706550E+03 -0.11027135872E+03  0.55239554654E+03  0.00000000000E+00 0. -1.
        -11    1    5    5    0    0  0.40679242478E+03  0.27603509994E+02 -0.19668055446E+02  0.40820198803E+03  0.00000000000E+00 0.  1.
          2    1    6    6  503    0 -0.97040948050E+02  0.14905595803E+03 -0.31972868963E+03  0.36587027646E+03  0.00000000000E+00 0. -1.
         -2    1    6    6    0  503  0.19834512205E+02  0.22212098967E+02 -0.33904715166E+02  0.45125546262E+02  0.00000000000E+00 0.  1.
<mgrwt>
<rscale>  0 0.21996042E+04</rscale>
<asrwt>0</asrwt>
<pdfrwt beam="1">  1        2 0.24730744E+00 0.21996042E+04</pdfrwt>
<pdfrwt beam="2">  1       -1 0.11576178E+00 0.21996042E+04</pdfrwt>
<totfact> 0.77683157E+00</totfact>
</mgrwt>
</event>
<event>
12    6  0.1462228E-007  0.1382777E+04  0.7818608E-02  0.8966381E-01
          2   -1    0    0  501    0  0.00000000000E+00  0.00000000000E+00  0.40189238876E+03  0.40189238876E+03  0.00000000000E+00 0. -1.
         -1   -1    0    0    0  501 -0.00000000000E+00 -0.00000000000E+00 -0.11894177972E+04  0.11894177972E+04  0.00000000000E+00 0.  1.
         24    2    1    2    0    0 -0.12984761882E+03  0.14878314053E+03  0.15654611101E+03  0.26512537618E+03  0.82389035683E+02 0.  0.
        254    2    1    2    0    0  0.12984761882E+03 -0.14878314053E+03 -0.94407151947E+03  0.13261848098E+04  0.91021881373E+03 0.  0.
         23    2    4    4    0    0  0.49101516496E+01 -0.32304244748E+03  0.18269426821E+02  0.33616676303E+03  0.91070237408E+02 0.  0.
         23    2    4    4    0    0  0.12493746717E+03  0.17425930695E+03 -0.96234094629E+03  0.99001804678E+03  0.89777275974E+02 0.  0.
          4    1    3    3  502    0 -0.10643293647E+03  0.15107092784E+03  0.15559734807E+03  0.24158006939E+03  0.00000000000E+00 0. -1.
         -3    1    3    3    0  502 -0.23414682354E+02 -0.22877873020E+01  0.94876294076E+00  0.23545306785E+02  0.00000000000E+00 0.  1.
         11    1    5    5    0    0  0.25364923987E+01  0.56322519662E+01 -0.28558878444E+01  0.68053031732E+01  0.00000000000E+00 0. -1.
        -11    1    5    5    0    0  0.23736592509E+01 -0.32867469945E+03  0.21125314665E+02  0.32936145985E+03  0.00000000000E+00 0.  1.
          3    1    6    6  503    0  0.27746561127E+02  0.48351795107E+02 -0.45306821702E+03  0.45648502387E+03  0.00000000000E+00 0. -1.
         -3    1    6    6    0  503  0.97190906048E+02  0.12590751184E+03 -0.50927272927E+03  0.53353302291E+03  0.00000000000E+00 0.  1.
<mgrwt>
<rscale>  0 0.13827769E+04</rscale>
<asrwt>0</asrwt>
<pdfrwt beam="1">  1        2 0.61829598E-01 0.13827769E+04</pdfrwt>
<pdfrwt beam="2">  1       -1 0.18298736E+00 0.13827769E+04</pdfrwt>
<totfact> 0.17470591E+01</totfact>
</mgrwt>
</event>
<event>
12    6  0.1462228E-007  0.1940411E+04  0.7818608E-02  0.8634999E-01
          2   -1    0    0  501    0  0.00000000000E+00  0.00000000000E+00  0.18799158145E+04  0.18799158145E+04  0.00000000000E+00 0. -1.
         -3   -1    0    0    0  501 -0.00000000000E+00 -0.00000000000E+00 -0.50071320484E+03  0.50071320484E+03  0.00000000000E+00 0.  1.
         24    2    1    2    0    0 -0.71987954830E+03 -0.89579431454E+02  0.31777837947E+03  0.79745394057E+03  0.93266554977E+02 0.  0.
        254    2    1    2    0    0  0.71987954830E+03  0.89579431454E+02  0.10614242302E+04  0.15831750788E+04  0.92388900580E+03 0.  0.
         23    2    4    4    0    0  0.35855189783E+03  0.40071395012E+03  0.17427855121E+03  0.57199927334E+03  0.87630029281E+02 0.  0.
         23    2    4    4    0    0  0.36132765047E+03 -0.31113451867E+03  0.88714567904E+03  0.10111758055E+04  0.89926047656E+02 0.  0.
          2    1    3    3  502    0 -0.53375008228E+03 -0.96264578862E+02  0.26635475521E+03  0.60423577774E+03  0.00000000000E+00 0. -1.
         -1    1    3    3    0  502 -0.18612946601E+03  0.66851474073E+01  0.51423624253E+02  0.19321816282E+03  0.00000000000E+00 0.  1.
         11    1    5    5    0    0  0.36331508174E+02  0.14286085430E+02 -0.14105352552E+01  0.39064822191E+02  0.00000000000E+00 0. -1.
        -11    1    5    5    0    0  0.32222038965E+03  0.38642786469E+03  0.17568908646E+03  0.53293445115E+03  0.00000000000E+00 0.  1.
          3    1    6    6  503    0  0.94131124958E+02 -0.34520896447E+02  0.16764812338E+03  0.19534137875E+03  0.00000000000E+00 0. -1.
         -3    1    6    6    0  503  0.26719652551E+03 -0.27661362222E+03  0.71949755565E+03  0.81583442673E+03  0.00000000000E+00 0.  1.
<mgrwt>
<rscale>  0 0.19404110E+04</rscale>
<asrwt>0</asrwt>
<pdfrwt beam="1">  1        2 0.28921781E+00 0.19404110E+04</pdfrwt>
<pdfrwt beam="2">  1       -3 0.77032802E-01 0.19404110E+04</pdfrwt>
<totfact> 0.73524703E+00</totfact>
</mgrwt>
</event>
<event>
12    6  0.1462228E-007  0.2193454E+04  0.7818608E-02  0.8521158E-01
          2   -1    0    0  501    0  0.00000000000E+00  0.00000000000E+00  0.10545445379E+04  0.10545445379E+04  0.00000000000E+00 0. -1.
         -1   -1    0    0    0  501 -0.00000000000E+00 -0.00000000000E+00 -0.11405970025E+04  0.11405970025E+04  0.00000000000E+00 0.  1.
         24    2    1    2    0    0  0.43982666743E+03 -0.37964192061E+03 -0.73706324689E+03  0.94197744028E+03  0.80521939929E+02 0.  0.
        254    2    1    2    0    0 -0.43982666743E+03  0.37964192061E+03  0.65101078227E+03  0.12531641001E+04  0.89946080392E+03 0.  0.
         23    2    4    4    0    0 -0.69308326785E+03  0.32100362808E+03  0.59230364280E+03  0.97063492731E+03  0.88886508673E+02 0.  0.
         23    2    4    4    0    0  0.25325660041E+03  0.58638292532E+02  0.58707139468E+02  0.28252917275E+03  0.93802186695E+02 0.  0.
          2    1    3    3  502    0  0.14106119799E+03 -0.99669029603E+02 -0.16823126245E+03  0.24110979803E+03  0.00000000000E+00 0. -1.
         -1    1    3    3    0  502  0.29876546944E+03 -0.27997289100E+03 -0.56883198444E+03  0.70086764225E+03  0.00000000000E+00 0.  1.
         11    1    5    5    0    0 -0.34504581747E+03  0.11187012116E+03  0.29052517916E+03  0.46473263269E+03  0.00000000000E+00 0.  1.
        -11    1    5    5    0    0 -0.34803745038E+03  0.20913350691E+03  0.30177846364E+03  0.50590229462E+03  0.00000000000E+00 0. -1.
          2    1    6    6  503    0  0.20869405607E+03  0.79154391164E+01  0.44086073294E+02  0.21344658600E+03  0.00000000000E+00 0. -1.
         -2    1    6    6    0  503  0.44562544342E+02  0.50722853415E+02  0.14621066174E+02  0.69082586756E+02  0.00000000000E+00 0.  1.
<mgrwt>
<rscale>  0 0.21934542E+04</rscale>
<asrwt>0</asrwt>
<pdfrwt beam="1">  1        2 0.16223762E+00 0.21934542E+04</pdfrwt>
<pdfrwt beam="2">  1       -1 0.17547646E+00 0.21934542E+04</pdfrwt>
<totfact> 0.54419496E+00</totfact>
</mgrwt>
</event>
<event>
12    6  0.1462228E-007  0.1643012E+04  0.7818608E-02  0.8794551E-01
          2   -1    0    0  501    0  0.00000000000E+00  0.00000000000E+00  0.26635173415E+04  0.26635173415E+04  0.00000000000E+00 0. -1.
         -1   -1    0    0    0  501 -0.00000000000E+00 -0.00000000000E+00 -0.25337630541E+03  0.25337630541E+03  0.00000000000E+00 0.  1.
         24    2    1    2    0    0  0.30118525600E+03  0.42172608525E+03  0.12117886588E+04  0.13196375331E+04  0.66678450379E+02 0.  0.
        254    2    1    2    0    0 -0.30118525600E+03 -0.42172608525E+03  0.11983523773E+04  0.15972561138E+04  0.92011587506E+03 0.  0.
         23    2    4    4    0    0 -0.33974112589E+03 -0.12330523692E+03  0.12264875521E+04  0.12819525949E+04  0.92209142878E+02 0.  0.
         23    2    4    4    0    0  0.38555869895E+02 -0.29842084833E+03 -0.28135174804E+02  0.31530351893E+03  0.89906413372E+02 0.  0.
          4    1    3    3  502    0  0.27645576227E+03  0.34925140944E+03  0.10127302039E+04  0.11063574473E+04  0.00000000000E+00 0. -1.
         -3    1    3    3    0  502  0.24729493727E+02  0.72474675814E+02  0.19905845492E+03  0.21328008573E+03  0.00000000000E+00 0.  1.
         11    1    5    5    0    0 -0.32384009280E+03 -0.12811505893E+03  0.10857104919E+04  0.11401987310E+04  0.00000000000E+00 0.  1.
        -11    1    5    5    0    0 -0.15901033089E+02  0.48098220069E+01  0.14077706021E+03  0.14175386387E+03  0.00000000000E+00 0. -1.
          2    1    6    6  503    0  0.35556591560E+02 -0.28827105472E+03 -0.57161680925E+01  0.29051187028E+03  0.00000000000E+00 0.  1.
         -2    1    6    6    0  503  0.29992783347E+01 -0.10149793605E+02 -0.22419006711E+02  0.24791648648E+02  0.00000000000E+00 0. -1.
<mgrwt>
<rscale>  0 0.16430121E+04</rscale>
<asrwt>0</asrwt>
<pdfrwt beam="1">  1        2 0.40977188E+00 0.16430121E+04</pdfrwt>
<pdfrwt beam="2">  1       -1 0.38980972E-01 0.16430121E+04</pdfrwt>
<totfact> 0.19455428E+01</totfact>
</mgrwt>
</event>
<event>
12    6  0.1462228E-007  0.1878984E+04  0.7818608E-02  0.8665388E-01
          2   -1    0    0  501    0  0.00000000000E+00  0.00000000000E+00  0.66247882014E+03  0.66247882014E+03  0.00000000000E+00 0. -1.
         -1   -1    0    0    0  501 -0.00000000000E+00 -0.00000000000E+00 -0.13323379074E+04  0.13323379074E+04  0.00000000000E+00 0.  1.
         24    2    1    2    0    0 -0.29022542311E+03  0.27683859109E+02  0.39891673459E+03  0.50041096925E+03  0.79242568974E+02 0.  0.
        254    2    1    2    0    0  0.29022542311E+03 -0.27683859109E+02 -0.10687758219E+04  0.14944057583E+04  0.10029803691E+04 0.  0.
         23    2    4    4    0    0 -0.35519545590E+03  0.16282643746E+02 -0.54567662451E+03  0.65762769336E+03  0.91006967668E+02 0.  0.
         23    2    4    4    0    0  0.64542087900E+03 -0.43966502856E+02 -0.52309919737E+03  0.83677806496E+03  0.89797523815E+02 0.  0.
          2    1    3    3  502    0 -0.17484262435E+03 -0.22302608280E+02  0.22596894320E+03  0.28658212246E+03  0.00000000000E+00 0. -1.
         -1    1    3    3    0  502 -0.11538279876E+03  0.49986467389E+02  0.17294779139E+03  0.21382884679E+03  0.00000000000E+00 0.  1.
         11    1    5    5    0    0 -0.84246720414E+02 -0.83674672618E+01 -0.20394803143E+03  0.22082192811E+03  0.00000000000E+00 0. -1.
        -11    1    5    5    0    0 -0.27094873548E+03  0.24650111008E+02 -0.34172859308E+03  0.43680576526E+03  0.00000000000E+00 0.  1.
          1    1    6    6  503    0  0.34246692879E+03 -0.51525289241E+02 -0.32344956662E+03  0.47387559010E+03  0.00000000000E+00 0. -1.
         -1    1    6    6    0  503  0.30295395021E+03  0.75587863852E+01 -0.19964963075E+03  0.36290247486E+03  0.00000000000E+00 0.  1.
<mgrwt>
<rscale>  0 0.18789845E+04</rscale>
<asrwt>0</asrwt>
<pdfrwt beam="1">  1        2 0.10191982E+00 0.18789845E+04</pdfrwt>
<pdfrwt beam="2">  1       -1 0.20497506E+00 0.18789845E+04</pdfrwt>
<totfact> 0.65426684E+00</totfact>
</mgrwt>
</event>
<event>
12    6  0.1462228E-007  0.1400969E+04  0.7818608E-02  0.8953117E-01
         -3   -1    0    0    0  501 -0.00000000000E+00  0.00000000000E+00  0.24553308611E+04  0.24553308611E+04  0.00000000000E+00 0.  1.
          4   -1    0    0  501    0  0.00000000000E+00 -0.00000000000E+00 -0.19984225497E+03  0.19984225497E+03  0.00000000000E+00 0. -1.
         24    2    1    2    0    0 -0.38837275629E+03  0.26616915634E+03  0.85306477186E+03  0.97769600805E+03  0.80564021409E+02 0.  0.
        254    2    1    2    0    0  0.38837275629E+03 -0.26616915634E+03  0.14024238343E+04  0.16774771081E+04  0.79085865957E+03 0.  0.
         23    2    4    4    0    0  0.39184269875E+03  0.16099522646E+03  0.96527336300E+03  0.10586634516E+04  0.97752109276E+02 0.  0.
         23    2    4    4    0    0 -0.34699424648E+01 -0.42716438280E+03  0.43715047131E+03  0.61881365649E+03  0.96686899105E+02 0.  0.
          4    1    3    3  502    0 -0.10432709487E+03  0.79054823875E+02  0.16928395087E+03  0.21398799948E+03  0.00000000000E+00 0. -1.
         -3    1    3    3    0  502 -0.28404566142E+03  0.18711433247E+03  0.68378082099E+03  0.76370800856E+03  0.00000000000E+00 0.  1.
         11    1    5    5    0    0  0.92885198853E+02  0.21609087803E+02  0.13517670625E+03  0.16543081562E+03  0.00000000000E+00 0. -1.
        -11    1    5    5    0    0  0.29895749990E+03  0.13938613866E+03  0.83009665675E+03  0.89323263596E+03  0.00000000000E+00 0.  1.
          2    1    6    6  503    0  0.29741814221E+02 -0.17441483653E+03  0.23095560799E+03  0.29093917504E+03  0.00000000000E+00 0. -1.
         -2    1    6    6    0  503 -0.33211756686E+02 -0.25274954627E+03  0.20619486332E+03  0.32787448145E+03  0.00000000000E+00 0.  1.
<mgrwt>
<rscale>  0 0.14009695E+04</rscale>
<asrwt>0</asrwt>
<pdfrwt beam="1">  1        4 0.30744964E-01 0.14009695E+04</pdfrwt>
<pdfrwt beam="2">  1       -3 0.37774319E+00 0.14009695E+04</pdfrwt>
<totfact> 0.32541058E-01</totfact>
</mgrwt>
</event>
<event>
12    6  0.1462228E-007  0.2093368E+04  0.7818608E-02  0.8564170E-01
         -3   -1    0    0    0  501 -0.00000000000E+00  0.00000000000E+00  0.14229580075E+04  0.14229580075E+04  0.00000000000E+00 0.  1.
          4   -1    0    0  501    0  0.00000000000E+00 -0.00000000000E+00 -0.76990879729E+03  0.76990879729E+03  0.00000000000E+00 0. -1.
         24    2    1    2    0    0 -0.50535325967E+03  0.31063139849E+02 -0.42109868792E+03  0.66266111498E+03  0.73816072981E+02 0.  0.
        254    2    1    2    0    0  0.50535325967E+03 -0.31063139849E+02  0.10741478982E+04  0.15302056898E+04  0.96508492392E+03 0.  0.
         23    2    4    4    0    0  0.36231969069E+03 -0.49437089162E+02  0.12381869432E+04  0.12942941723E+04  0.91492699500E+02 0.  0.
         23    2    4    4    0    0  0.14303356897E+03  0.18373949312E+02 -0.16403904502E+03  0.23591151757E+03  0.89158465478E+02 0.  0.
          4    1    3    3  502    0 -0.17873674994E+03  0.42638142215E+02 -0.17251658413E+03  0.25204525139E+03  0.00000000000E+00 0. -1.
         -3    1    3    3    0  502 -0.32661650973E+03 -0.11575002366E+02 -0.24858210379E+03  0.41061586359E+03  0.00000000000E+00 0.  1.
         11    1    5    5    0    0  0.36362794011E+03 -0.52565047563E+02  0.12374275811E+04  0.12908196549E+04  0.00000000000E+00 0.  1.
        -11    1    5    5    0    0 -0.13082494195E+01  0.31279584013E+01  0.75936212743E+00  0.34745173974E+01  0.00000000000E+00 0. -1.
          3    1    6    6  503    0  0.46880782058E+02  0.30236502396E+01 -0.21886153614E+01  0.47029142288E+02  0.00000000000E+00 0. -1.
         -3    1    6    6    0  503  0.96152786916E+02  0.15350299072E+02 -0.16185042965E+03  0.18888237528E+03  0.00000000000E+00 0.  1.
<mgrwt>
<rscale>  0 0.20933685E+04</rscale>
<asrwt>0</asrwt>
<pdfrwt beam="1">  1        4 0.11844751E+00 0.20933685E+04</pdfrwt>
<pdfrwt beam="2">  1       -3 0.21891662E+00 0.20933685E+04</pdfrwt>
<totfact> 0.12888932E-01</totfact>
</mgrwt>
</event>
<event>
12    6  0.1462228E-007  0.2312308E+04  0.7818608E-02  0.8473084E-01
          2   -1    0    0  501    0  0.00000000000E+00  0.00000000000E+00  0.16343396902E+04  0.16343396902E+04  0.00000000000E+00 0. -1.
         -1   -1    0    0    0  501 -0.00000000000E+00 -0.00000000000E+00 -0.81787932323E+03  0.81787932323E+03  0.00000000000E+00 0.  1.
         24    2    1    2    0    0  0.20579694594E+03  0.83585890950E+03 -0.14390999699E+03  0.87629083654E+03  0.78505053436E+02 0.  0.
        254    2    1    2    0    0 -0.20579694594E+03 -0.83585890950E+03  0.96037036399E+03  0.15759281769E+04  0.90566322836E+03 0.  0.
         23    2    4    4    0    0  0.19004606397E+03  0.93250475058E+02  0.23580023097E+03  0.32968001473E+03  0.90961561418E+02 0.  0.
         23    2    4    4    0    0 -0.39584300992E+03 -0.92910938456E+03  0.72457013302E+03  0.12462481622E+04  0.90535446678E+02 0.  0.
          4    1    3    3  502    0  0.60114610219E+02  0.31408485425E+03 -0.88062121322E+02  0.33168961281E+03  0.00000000000E+00 0. -1.
         -3    1    3    3    0  502  0.14568233572E+03  0.52177405524E+03 -0.55847875672E+02  0.54460122373E+03  0.00000000000E+00 0.  1.
         11    1    5    5    0    0  0.18907498653E+03  0.96232527500E+02  0.19313368390E+03  0.28689836134E+03  0.00000000000E+00 0.  1.
        -11    1    5    5    0    0  0.97107744280E+00 -0.29820524416E+01  0.42666547069E+02  0.42781653392E+02  0.00000000000E+00 0. -1.
          2    1    6    6  503    0 -0.99506193165E+02 -0.33750987319E+03  0.26886725140E+03  0.44283630819E+03  0.00000000000E+00 0.  1.
         -2    1    6    6    0  503 -0.29633681675E+03 -0.59159951137E+03  0.45570288162E+03  0.80341185399E+03  0.00000000000E+00 0. -1.
<mgrwt>
<rscale>  0 0.23123085E+04</rscale>
<asrwt>0</asrwt>
<pdfrwt beam="1">  1        2 0.25143688E+00 0.23123085E+04</pdfrwt>
<pdfrwt beam="2">  1       -1 0.12582759E+00 0.23123085E+04</pdfrwt>
<totfact> 0.60581083E+00</totfact>
</mgrwt>
</event>
<event>
12    6  0.1462228E-007  0.1365858E+04  0.7818608E-02  0.8978910E-01
         -3   -1    0    0    0  501 -0.00000000000E+00  0.00000000000E+00  0.13728019622E+03  0.13728019622E+03  0.00000000000E+00 0.  1.
          2   -1    0    0  501    0  0.00000000000E+00 -0.00000000000E+00 -0.33973731189E+04  0.33973731189E+04  0.00000000000E+00 0. -1.
         24    2    1    2    0    0 -0.12718018301E+03  0.26718131168E+03 -0.30485600629E+03  0.43222806308E+03  0.79518939109E+02 0.  0.
        254    2    1    2    0    0  0.12718018301E+03 -0.26718131168E+03 -0.29552369164E+04  0.31024252521E+04  0.89669200970E+03 0.  0.
         23    2    4    4    0    0  0.61517941126E+02 -0.30364610266E+03 -0.28933685366E+03  0.43390942824E+03  0.92607582261E+02 0.  0.
         23    2    4    4    0    0  0.65662241888E+02  0.36464790975E+02 -0.26659000628E+04  0.26685158238E+04  0.91172070332E+02 0.  0.
          4    1    3    3  502    0 -0.38102653575E+02  0.16607593604E+03 -0.18957586830E+03  0.25489613293E+03  0.00000000000E+00 0. -1.
         -3    1    3    3    0  502 -0.89077529440E+02  0.10110537564E+03 -0.11528013799E+03  0.17733193015E+03  0.00000000000E+00 0.  1.
         11    1    5    5    0    0  0.58402633095E+02 -0.29829553591E+03 -0.24851417627E+03  0.39261990538E+03  0.00000000000E+00 0.  1.
        -11    1    5    5    0    0  0.31153080315E+01 -0.53505667472E+01 -0.40822677388E+02  0.41289522857E+02  0.00000000000E+00 0. -1.
          1    1    6    6  503    0 -0.37992069717E+01  0.70132403808E+01 -0.15706329259E+04  0.15706531786E+04  0.00000000000E+00 0. -1.
         -1    1    6    6    0  503  0.69461448860E+02  0.29451550594E+02 -0.10952671368E+04  0.10978626452E+04  0.00000000000E+00 0.  1.
<mgrwt>
<rscale>  0 0.13658580E+04</rscale>
<asrwt>0</asrwt>
<pdfrwt beam="1">  1        2 0.52267275E+00 0.13658580E+04</pdfrwt>
<pdfrwt beam="2">  1       -3 0.21120032E-01 0.13658580E+04</pdfrwt>
<totfact> 0.12910755E+01</totfact>
</mgrwt>
</event>
<event>
12    6  0.1462228E-007  0.1770979E+04  0.7818608E-02  0.8721887E-01
         -1   -1    0    0    0  501 -0.00000000000E+00  0.00000000000E+00  0.13626737377E+04  0.13626737377E+04  0.00000000000E+00 0.  1.
          2   -1    0    0  501    0  0.00000000000E+00 -0.00000000000E+00 -0.57540676255E+03  0.57540676255E+03  0.00000000000E+00 0. -1.
         24    2    1    2    0    0 -0.27178278409E+02 -0.49599511286E+03  0.76037812770E+03  0.91167923706E+03  0.78957731782E+02 0.  0.
        254    2    1    2    0    0  0.27178278409E+02  0.49599511286E+03  0.26888847414E+02  0.10264012631E+04  0.89778991534E+03 0.  0.
         23    2    4    4    0    0 -0.30278414529E+03  0.21214207079E+03 -0.29191411794E+03  0.47972315828E+03  0.90763205616E+02 0.  0.
         23    2    4    4    0    0  0.32996242370E+03  0.28385304206E+03  0.31880296536E+03  0.54667810487E+03  0.88169547355E+02 0.  0.
          4    1    3    3  502    0 -0.44947259023E+02 -0.21233025640E+03  0.29226147240E+03  0.36403456172E+03  0.00000000000E+00 0. -1.
         -3    1    3    3    0  502  0.17768980615E+02 -0.28366485646E+03  0.46811665530E+03  0.54764467534E+03  0.00000000000E+00 0.  1.
         11    1    5    5    0    0 -0.18504919890E+03  0.81036679634E+02 -0.12863352410E+03  0.23949265747E+03  0.00000000000E+00 0. -1.
        -11    1    5    5    0    0 -0.11773494639E+03  0.13110539116E+03 -0.16328059384E+03  0.24023050081E+03  0.00000000000E+00 0.  1.
          1    1    6    6  503    0  0.44981481593E+02  0.85640575867E+02  0.62352462897E+02  0.11508897232E+03  0.00000000000E+00 0. -1.
         -1    1    6    6    0  503  0.28498094211E+03  0.19821246620E+03  0.25645050246E+03  0.43158913255E+03  0.00000000000E+00 0.  1.
<mgrwt>
<rscale>  0 0.17709790E+04</rscale>
<asrwt>0</asrwt>
<pdfrwt beam="1">  1        2 0.88524118E-01 0.17709790E+04</pdfrwt>
<pdfrwt beam="2">  1       -1 0.20964211E+00 0.17709790E+04</pdfrwt>
<totfact> 0.72888588E+00</totfact>
</mgrwt>
</event>
<event>
12    6  0.1462228E-007  0.1591863E+04  0.7818608E-02  0.8825563E-01
         -1   -1    0    0    0  501 -0.00000000000E+00  0.00000000000E+00  0.52924964426E+03  0.52924964426E+03  0.00000000000E+00 0.  1.
          2   -1    0    0  501    0  0.00000000000E+00 -0.00000000000E+00 -0.11969900501E+04  0.11969900501E+04  0.00000000000E+00 0. -1.
         24    2    1    2    0    0  0.51058418630E+03  0.17114521771E+03 -0.19618968655E+03  0.57872442872E+03  0.80278729687E+02 0.  0.
        254    2    1    2    0    0 -0.51058418630E+03 -0.17114521771E+03 -0.47155071926E+03  0.11475152656E+04  0.89690819326E+03 0.  0.
         23    2    4    4    0    0  0.26952986264E+02 -0.29894766994E+03 -0.49547755983E+03  0.58687712064E+03  0.93971110515E+02 0.  0.
         23    2    4    4    0    0 -0.53753717256E+03  0.12780245223E+03  0.23926840570E+02  0.56063814497E+03  0.91994332500E+02 0.  0.
          2    1    3    3  502    0  0.24899041318E+03  0.71160586449E+02 -0.13512472610E+03  0.29209372900E+03  0.00000000000E+00 0. -1.
         -1    1    3    3    0  502  0.26159377312E+03  0.99984631264E+02 -0.61064960453E+02  0.28663069972E+03  0.00000000000E+00 0.  1.
         11    1    5    5    0    0 -0.69464318721E+01 -0.12667440317E+03 -0.13125865932E+03  0.18254723493E+03  0.00000000000E+00 0. -1.
        -11    1    5    5    0    0  0.33899418136E+02 -0.17227326677E+03 -0.36421890051E+03  0.40432988572E+03  0.00000000000E+00 0.  1.
          1    1    6    6  503    0 -0.74851832402E+01  0.12106620961E+02 -0.94429020086E+01  0.17081177874E+02  0.00000000000E+00 0. -1.
         -1    1    6    6    0  503 -0.53005198932E+03  0.11569583127E+03  0.33369742579E+02  0.54355696709E+03  0.00000000000E+00 0.  1.
<mgrwt>
<rscale>  0 0.15918625E+04</rscale>
<asrwt>0</asrwt>
<pdfrwt beam="1">  1        2 0.18415231E+00 0.15918625E+04</pdfrwt>
<pdfrwt beam="2">  1       -1 0.81423023E-01 0.15918625E+04</pdfrwt>
<totfact> 0.31263943E+01</totfact>
</mgrwt>
</event>
<event>
12    6  0.1462228E-007  0.1415451E+04  0.7818608E-02  0.8942710E-01
          2   -1    0    0  501    0  0.00000000000E+00  0.00000000000E+00  0.31855468155E+03  0.31855468155E+03  0.00000000000E+00 0. -1.
         -1   -1    0    0    0  501 -0.00000000000E+00 -0.00000000000E+00 -0.15723367577E+04  0.15723367577E+04  0.00000000000E+00 0.  1.
         24    2    1    2    0    0 -0.22531463150E+03  0.16519621433E+03 -0.79963485889E+03  0.85073893145E+03  0.79273889437E+02 0.  0.
        254    2    1    2    0    0  0.22531463150E+03 -0.16519621433E+03 -0.45414721724E+03  0.10401525078E+04  0.89309074124E+03 0.  0.
         23    2    4    4    0    0  0.37866866808E+02  0.19264497093E+02  0.25691826791E+03  0.27651439026E+03  0.92995651441E+02 0.  0.
         23    2    4    4    0    0  0.18744776469E+03 -0.18446071142E+03 -0.71106548514E+03  0.76363811750E+03  0.91469294277E+02 0.  0.
          2    1    3    3  502    0 -0.42933865461E+02 -0.18913133402E+01 -0.11095839191E+03  0.11899016180E+03  0.00000000000E+00 0. -1.
         -1    1    3    3    0  502 -0.18238076604E+03  0.16708752767E+03 -0.68867646697E+03  0.73174876965E+03  0.00000000000E+00 0.  1.
         11    1    5    5    0    0 -0.24282133474E+02  0.58704585604E+01  0.15044082817E+03  0.15250090843E+03  0.00000000000E+00 0. -1.
        -11    1    5    5    0    0  0.62149000282E+02  0.13394038532E+02  0.10647743973E+03  0.12401348183E+03  0.00000000000E+00 0.  1.
          3    1    6    6  503    0  0.15964269669E+03 -0.12163987155E+03 -0.60357071039E+03  0.63606576028E+03  0.00000000000E+00 0. -1.
         -3    1    6    6    0  503  0.27805068002E+02 -0.62820839872E+02 -0.10749477475E+03  0.12757235723E+03  0.00000000000E+00 0.  1.
<mgrwt>
<rscale>  0 0.14154508E+04</rscale>
<asrwt>0</asrwt>
<pdfrwt beam="1">  1        2 0.49008412E-01 0.14154508E+04</pdfrwt>
<pdfrwt beam="2">  1       -1 0.24189796E+00 0.14154508E+04</pdfrwt>
<totfact> 0.90109835E+00</totfact>
</mgrwt>
</event>
<event>
12    6  0.1462228E-007  0.1860114E+04  0.7818608E-02  0.8674969E-01
         -1   -1    0    0    0  501 -0.00000000000E+00  0.00000000000E+00  0.14458415872E+04  0.14458415872E+04  0.00000000000E+00 0.  1.
          2   -1    0    0  501    0  0.00000000000E+00 -0.00000000000E+00 -0.59827134979E+03  0.59827134979E+03  0.00000000000E+00 0. -1.
         24    2    1    2    0    0  0.33860782328E+03  0.50244384567E+01 -0.35791414612E+03  0.49892228422E+03  0.78360747366E+02 0.  0.
        254    2    1    2    0    0 -0.33860782328E+03 -0.50244384567E+01  0.12054843835E+04  0.15451906527E+04  0.90539552211E+03 0.  0.
         23    2    4    4    0    0 -0.28638774547E+03 -0.26231486691E+03  0.10830555460E+03  0.41335833188E+03  0.91148160803E+02 0.  0.
         23    2    4    4    0    0 -0.52220077805E+02  0.25729042845E+03  0.10971788289E+04  0.11318323208E+04  0.91201528667E+02 0.  0.
          4    1    3    3  502    0  0.28405434495E+03 -0.10652434726E+02 -0.25734522533E+03  0.38344088234E+03  0.00000000000E+00 0. -1.
         -3    1    3    3    0  502  0.54553478332E+02  0.15676873183E+02 -0.10056892079E+03  0.11548140188E+03  0.00000000000E+00 0.  1.
         11    1    5    5    0    0 -0.19027665683E+03 -0.11385988886E+03  0.68529656111E+02  0.23208962534E+03  0.00000000000E+00 0. -1.
        -11    1    5    5    0    0 -0.96111088643E+02 -0.14845497805E+03  0.39775898484E+02  0.18126870653E+03  0.00000000000E+00 0.  1.
          3    1    6    6  503    0 -0.13823309068E+02  0.13645970387E+03  0.74515744854E+03  0.75767536437E+03  0.00000000000E+00 0. -1.
         -3    1    6    6    0  503 -0.38396768738E+02  0.12083072458E+03  0.35202138035E+03  0.37415695647E+03  0.00000000000E+00 0.  1.
<mgrwt>
<rscale>  0 0.18601135E+04</rscale>
<asrwt>0</asrwt>
<pdfrwt beam="1">  1        2 0.92041746E-01 0.18601135E+04</pdfrwt>
<pdfrwt beam="2">  1       -1 0.22243717E+00 0.18601135E+04</pdfrwt>
<totfact> 0.56602370E+00</totfact>
</mgrwt>
</event>
<event>
12    6  0.1462228E-007  0.1790863E+04  0.7818608E-02  0.8711174E-01
          2   -1    0    0  501    0  0.00000000000E+00  0.00000000000E+00  0.57461448220E+03  0.57461448220E+03  0.00000000000E+00 0. -1.
         -1   -1    0    0    0  501 -0.00000000000E+00 -0.00000000000E+00 -0.13953655073E+04  0.13953655073E+04  0.00000000000E+00 0.  1.
         24    2    1    2    0    0  0.38783181965E+03  0.36057810111E+03  0.13643986248E+03  0.55264446045E+03  0.79812131017E+02 0.  0.
        254    2    1    2    0    0 -0.38783181965E+03 -0.36057810111E+03 -0.95719088754E+03  0.14173355290E+04  0.90121890753E+03 0.  0.
         23    2    4    4    0    0 -0.66841094785E+03 -0.26836435592E+03 -0.57750794171E+03  0.92763869336E+03  0.90584214711E+02 0.  0.
         23    2    4    4    0    0  0.28057912820E+03 -0.92213745192E+02 -0.37968294583E+03  0.48969683565E+03  0.91737830323E+02 0.  0.
          4    1    3    3  502    0  0.33961215264E+03  0.27370149508E+03  0.11083984988E+03  0.45003821499E+03  0.00000000000E+00 0. -1.
         -3    1    3    3    0  502  0.48219667008E+02  0.86876606030E+02  0.25600012592E+02  0.10260624546E+03  0.00000000000E+00 0.  1.
         11    1    5    5    0    0 -0.26823532700E+03 -0.10836699012E+03 -0.28959795493E+03  0.40934163079E+03  0.00000000000E+00 0.  1.
        -11    1    5    5    0    0 -0.40017562085E+03 -0.15999736580E+03 -0.28790998678E+03  0.51829706257E+03  0.00000000000E+00 0. -1.
          2    1    6    6  503    0  0.21141587341E+03 -0.42549489418E+02 -0.21619425374E+03  0.30536385826E+03  0.00000000000E+00 0.  1.
         -2    1    6    6    0  503  0.69163254786E+02 -0.49664255775E+02 -0.16348869209E+03  0.18433297739E+03  0.00000000000E+00 0. -1.
<mgrwt>
<rscale>  0 0.17908626E+04</rscale>
<asrwt>0</asrwt>
<pdfrwt beam="1">  1        2 0.88402229E-01 0.17908626E+04</pdfrwt>
<pdfrwt beam="2">  1       -1 0.21467161E+00 0.17908626E+04</pdfrwt>
<totfact> 0.67390358E+00</totfact>
</mgrwt>
</event>
<event>
12    6  0.1462228E-007  0.1789490E+04  0.7818608E-02  0.8711908E-01
         -1   -1    0    0    0  501 -0.00000000000E+00  0.00000000000E+00  0.23367544292E+03  0.23367544292E+03  0.00000000000E+00 0.  1.
          2   -1    0    0  501    0  0.00000000000E+00 -0.00000000000E+00 -0.34259859760E+04  0.34259859760E+04  0.00000000000E+00 0. -1.
         24    2    1    2    0    0  0.41090192500E+03 -0.32362241785E+03 -0.20232893952E+04  0.20913492657E+04  0.80435770381E+02 0.  0.
        254    2    1    2    0    0 -0.41090192500E+03  0.32362241785E+03 -0.11690211378E+04  0.15683121532E+04  0.90521860771E+03 0.  0.
         23    2    4    4    0    0 -0.69463645609E+02  0.27612807066E+03 -0.11748335651E+04  0.12122271168E+04  0.90491808565E+02 0.  0.
         23    2    4    4    0    0 -0.34143827939E+03  0.47494347188E+02  0.58124272884E+01  0.35608503639E+03  0.89033461043E+02 0.  0.
          4    1    3    3  502    0  0.39286602734E+03 -0.32311502384E+03 -0.19830393067E+04  0.20472400753E+04  0.00000000000E+00 0. -1.
         -3    1    3    3    0  502  0.18035897660E+02 -0.50739401426E+00 -0.40250088527E+02  0.44109190420E+02  0.00000000000E+00 0.  1.
         11    1    5    5    0    0 -0.21276381112E+02  0.15255311879E+03 -0.79806738167E+03  0.81279559800E+03  0.00000000000E+00 0. -1.
        -11    1    5    5    0    0 -0.48187264497E+02  0.12357495187E+03 -0.37676618346E+03  0.39943151877E+03  0.00000000000E+00 0.  1.
          1    1    6    6  503    0 -0.24649309930E+03  0.54129784215E+02 -0.30528361114E+02  0.25420633818E+03  0.00000000000E+00 0. -1.
         -1    1    6    6    0  503 -0.94945180092E+02 -0.66354370268E+01  0.36340788403E+02  0.10187869821E+03  0.00000000000E+00 0.  1.
<mgrwt>
<rscale>  0 0.17894902E+04</rscale>
<asrwt>0</asrwt>
<pdfrwt beam="1">  1        2 0.52707474E+00 0.17894902E+04</pdfrwt>
<pdfrwt beam="2">  1       -1 0.35950070E-01 0.17894902E+04</pdfrwt>
<totfact> 0.73347702E+00</totfact>
</mgrwt>
</event>
<event>
12    6  0.1462228E-007  0.1754168E+04  0.7818608E-02  0.8731059E-01
          2   -1    0    0  501    0  0.00000000000E+00  0.00000000000E+00  0.46468375837E+04  0.46468375837E+04  0.00000000000E+00 0. -1.
         -1   -1    0    0    0  501 -0.00000000000E+00 -0.00000000000E+00 -0.16554844959E+03  0.16554844959E+03  0.00000000000E+00 0.  1.
         24    2    1    2    0    0 -0.29075967335E+03 -0.32352654760E+03  0.36051648592E+03  0.57045760041E+03  0.78988116815E+02 0.  0.
        254    2    1    2    0    0  0.29075967335E+03  0.32352654760E+03  0.41207726482E+04  0.42419284329E+04  0.90773288852E+03 0.  0.
         23    2    4    4    0    0 -0.17811737567E+03 -0.51493431244E+02  0.25444940495E+04  0.25528842034E+04  0.91599210957E+02 0.  0.
         23    2    4    4    0    0  0.46887704901E+03  0.37501997885E+03  0.15762785988E+04  0.16890442295E+04  0.87923356124E+02 0.  0.
          4    1    3    3  502    0  0.46206745415E+01 -0.42162174639E+01  0.10133913164E+02  0.11908959608E+02  0.00000000000E+00 0. -1.
         -3    1    3    3    0  502 -0.29538034789E+03 -0.31931033014E+03  0.35038257276E+03  0.55854864081E+03  0.00000000000E+00 0.  1.
         11    1    5    5    0    0 -0.11566202608E+03 -0.75584904825E+02  0.15538066295E+04  0.15599377629E+04  0.00000000000E+00 0. -1.
        -11    1    5    5    0    0 -0.62455349588E+02  0.24091473581E+02  0.99068741995E+03  0.99294644056E+03  0.00000000000E+00 0.  1.
          4    1    6    6  503    0  0.69680510738E+02  0.97881954682E+02  0.34569182956E+03  0.36597690044E+03  0.00000000000E+00 0. -1.
         -4    1    6    6    0  503  0.39919653828E+03  0.27713802417E+03  0.12305867692E+04  0.13230673290E+04  0.00000000000E+00 0.  1.
<mgrwt>
<rscale>  0 0.17541685E+04</rscale>
<asrwt>0</asrwt>
<pdfrwt beam="1">  1        2 0.71489799E+00 0.17541685E+04</pdfrwt>
<pdfrwt beam="2">  1       -1 0.25468996E-01 0.17541685E+04</pdfrwt>
<totfact> 0.13144162E+00</totfact>
</mgrwt>
</event>
<event>
12    6  0.1462228E-007  0.1448132E+04  0.7818608E-02  0.8919697E-01
         -1   -1    0    0    0  501 -0.00000000000E+00  0.00000000000E+00  0.48708511631E+03  0.48708511631E+03  0.00000000000E+00 0.  1.
          2   -1    0    0  501    0  0.00000000000E+00 -0.00000000000E+00 -0.10763443287E+04  0.10763443287E+04  0.00000000000E+00 0. -1.
         24    2    1    2    0    0 -0.59437602959E+02  0.24589787388E+03  0.20608540077E+03  0.33836712645E+03  0.89568559345E+02 0.  0.
        254    2    1    2    0    0  0.59437602959E+02 -0.24589787388E+03 -0.79534461320E+03  0.12250623186E+04  0.89677535521E+03 0.  0.
         23    2    4    4    0    0 -0.37604275878E+03 -0.20163607408E+03 -0.19800904778E+03  0.47867448729E+03  0.88636442763E+02 0.  0.
         23    2    4    4    0    0  0.43548036173E+03 -0.44261799803E+02 -0.59733556541E+03  0.74638783132E+03  0.93181353558E+02 0.  0.
          2    1    3    3  502    0 -0.27291895722E+02  0.24195365970E+02  0.62242325242E+02  0.72141322125E+02  0.00000000000E+00 0. -1.
         -1    1    3    3    0  502 -0.32145707237E+02  0.22170250791E+03  0.14384307553E+03  0.26622580432E+03  0.00000000000E+00 0.  1.
         11    1    5    5    0    0 -0.20449395011E+03 -0.59390638860E+02 -0.95617557359E+02  0.23342609300E+03  0.00000000000E+00 0.  1.
        -11    1    5    5    0    0 -0.17154880866E+03 -0.14224543522E+03 -0.10239149043E+03  0.24524839430E+03  0.00000000000E+00 0. -1.
          4    1    6    6  503    0  0.63580316851E+02  0.48197490653E+01 -0.42455506601E+02  0.76603894893E+02  0.00000000000E+00 0. -1.
         -4    1    6    6    0  503  0.37190004488E+03 -0.49081548868E+02 -0.55488005881E+03  0.66978393642E+03  0.00000000000E+00 0.  1.
<mgrwt>
<rscale>  0 0.14481316E+04</rscale>
<asrwt>0</asrwt>
<pdfrwt beam="1">  1        2 0.16559143E+00 0.14481316E+04</pdfrwt>
<pdfrwt beam="2">  1       -1 0.74936172E-01 0.14481316E+04</pdfrwt>
<totfact> 0.44661407E+01</totfact>
</mgrwt>
</event>
<event>
12    6  0.1462228E-007  0.1282307E+04  0.7818608E-02  0.9043715E-01
         -1   -1    0    0    0  501 -0.00000000000E+00  0.00000000000E+00  0.15540683083E+03  0.15540683083E+03  0.00000000000E+00 0.  1.
          2   -1    0    0  501    0  0.00000000000E+00 -0.00000000000E+00 -0.26451709869E+04  0.26451709869E+04  0.00000000000E+00 0. -1.
         24    2    1    2    0    0  0.42124755113E+01 -0.95132857901E+02 -0.65499545816E+00  0.12421038167E+03  0.79748255740E+02 0.  0.
        254    2    1    2    0    0 -0.42124755113E+01  0.95132857901E+02 -0.24891091606E+04  0.26763674361E+04  0.97888213476E+03 0.  0.
         23    2    4    4    0    0  0.39825618371E+03  0.27928745424E+03 -0.16586302668E+04  0.17308521899E+04  0.90473594282E+02 0.  0.
         23    2    4    4    0    0 -0.40246865923E+03 -0.18415459634E+03 -0.83047889380E+03  0.94551524618E+03  0.91705783338E+02 0.  0.
          4    1    3    3  502    0  0.31623005969E+02 -0.22768630324E+02 -0.20908576452E+02  0.44222094055E+02  0.00000000000E+00 0. -1.
         -3    1    3    3    0  502 -0.27410530457E+02 -0.72364227576E+02  0.20253580994E+02  0.79988287616E+02  0.00000000000E+00 0.  1.
         11    1    5    5    0    0  0.33495482362E+03  0.20978271214E+03 -0.14309323914E+04  0.14845103667E+04  0.00000000000E+00 0. -1.
        -11    1    5    5    0    0  0.63301360098E+02  0.69504742098E+02 -0.22769787541E+03  0.24634182315E+03  0.00000000000E+00 0.  1.
          2    1    6    6  503    0 -0.18023101255E+03 -0.97357445931E+02 -0.29347190863E+03  0.35789307246E+03  0.00000000000E+00 0. -1.
         -2    1    6    6    0  503 -0.22223764667E+03 -0.86797150410E+02 -0.53700698518E+03  0.58762217372E+03  0.00000000000E+00 0.  1.
<mgrwt>
<rscale>  0 0.12823067E+04</rscale>
<asrwt>0</asrwt>
<pdfrwt beam="1">  1        2 0.40694935E+00 0.12823067E+04</pdfrwt>
<pdfrwt beam="2">  1       -1 0.23908745E-01 0.12823067E+04</pdfrwt>
<totfact> 0.48699487E+01</totfact>
</mgrwt>
</event>
<event>
12    6  0.1462228E-007  0.3350129E+04  0.7818608E-02  0.8150256E-01
          2   -1    0    0  501    0  0.00000000000E+00  0.00000000000E+00  0.13113764404E+04  0.13113764404E+04  0.00000000000E+00 0. -1.
         -1   -1    0    0    0  501 -0.00000000000E+00 -0.00000000000E+00 -0.21396153897E+04  0.21396153897E+04  0.00000000000E+00 0.  1.
         24    2    1    2    0    0 -0.91748524845E+03 -0.12270783752E+04 -0.63725531819E+03  0.16613650169E+04  0.80863210050E+02 0.  0.
        254    2    1    2    0    0  0.91748524845E+03  0.12270783752E+04 -0.19098363114E+03  0.17896268133E+04  0.90486952836E+03 0.  0.
         23    2    4    4    0    0 -0.17241152019E+03  0.18622570326E+03 -0.40922942167E+02  0.27217486374E+03  0.89435588027E+02 0.  0.
         23    2    4    4    0    0  0.10898967686E+04  0.10408526720E+04 -0.15006068897E+03  0.15174519495E+04  0.94302479943E+02 0.  0.
          4    1    3    3  502    0 -0.89652862727E+03 -0.11904251399E+04 -0.63231022530E+03  0.16188550937E+04  0.00000000000E+00 0. -1.
         -3    1    3    3    0  502 -0.20956621182E+02 -0.36653235290E+02 -0.49450928892E+01  0.42509923221E+02  0.00000000000E+00 0.  1.
         11    1    5    5    0    0 -0.20620073657E+01  0.20828185565E+02 -0.27231531161E+02  0.34345618028E+02  0.00000000000E+00 0. -1.
        -11    1    5    5    0    0 -0.17034951283E+03  0.16539751769E+03 -0.13691411006E+02  0.23782924571E+03  0.00000000000E+00 0.  1.
          2    1    6    6  503    0  0.94492012210E+02  0.13012966755E+03 -0.18961679126E+02  0.16193213400E+03  0.00000000000E+00 0. -1.
         -2    1    6    6    0  503  0.99540475643E+03  0.91072300443E+03 -0.13109900984E+03  0.13555198155E+04  0.00000000000E+00 0.  1.
<mgrwt>
<rscale>  0 0.33501291E+04</rscale>
<asrwt>0</asrwt>
<pdfrwt beam="1">  1        2 0.20175022E+00 0.33501291E+04</pdfrwt>
<pdfrwt beam="2">  1       -1 0.32917160E+00 0.33501291E+04</pdfrwt>
<totfact> 0.32868734E-01</totfact>
</mgrwt>
</event>
<event>
12    6  0.1462228E-007  0.1784027E+04  0.7818608E-02  0.8714840E-01
          2   -1    0    0  501    0  0.00000000000E+00  0.00000000000E+00  0.35541544266E+04  0.35541544266E+04  0.00000000000E+00 0. -1.
         -1   -1    0    0    0  501 -0.00000000000E+00 -0.00000000000E+00 -0.22387558971E+03  0.22387558971E+03  0.00000000000E+00 0.  1.
         24    2    1    2    0    0 -0.30673994412E+03 -0.12008810924E+03  0.43039045040E+02  0.34153874246E+03  0.79283074493E+02 0.  0.
        254    2    1    2    0    0  0.30673994412E+03  0.12008810924E+03  0.32872397919E+04  0.34364912739E+04  0.94605300000E+03 0.  0.
         23    2    4    4    0    0  0.27826979159E+03  0.25561295177E+03  0.45131951578E+03  0.59559247712E+03  0.90934236926E+02 0.  0.
         23    2    4    4    0    0  0.28470152526E+02 -0.13552484253E+03  0.28359202761E+04  0.28408987967E+04  0.95313317654E+02 0.  0.
          4    1    3    3  502    0 -0.26920057320E+01 -0.14681474454E+02 -0.58767842410E+01  0.16041483099E+02  0.00000000000E+00 0. -1.
         -3    1    3    3    0  502 -0.30404793839E+03 -0.10540663479E+03  0.48915829281E+02  0.32549725936E+03  0.00000000000E+00 0.  1.
         11    1    5    5    0    0  0.11267453581E+03  0.50747942406E+02  0.17031568930E+03  0.21042418754E+03  0.00000000000E+00 0. -1.
        -11    1    5    5    0    0  0.16559525578E+03  0.20486500937E+03  0.28100382648E+03  0.38516828958E+03  0.00000000000E+00 0.  1.
          2    1    6    6  503    0 -0.31199326271E+02 -0.17380260244E+02  0.62899032896E+03  0.63000341692E+03  0.00000000000E+00 0. -1.
         -2    1    6    6    0  503  0.59669478797E+02 -0.11814458228E+03  0.22069299471E+04  0.22108953798E+04  0.00000000000E+00 0.  1.
<mgrwt>
<rscale>  0 0.17840274E+04</rscale>
<asrwt>0</asrwt>
<pdfrwt beam="1">  1        2 0.54679295E+00 0.17840274E+04</pdfrwt>
<pdfrwt beam="2">  1       -1 0.34442401E-01 0.17840274E+04</pdfrwt>
<totfact> 0.64573861E+00</totfact>
</mgrwt>
</event>
<event>
12    6  0.1462228E-007  0.1770243E+04  0.7818608E-02  0.8722286E-01
         -1   -1    0    0    0  501 -0.00000000000E+00  0.00000000000E+00  0.45997263527E+03  0.45997263527E+03  0.00000000000E+00 0.  1.
          2   -1    0    0  501    0  0.00000000000E+00 -0.00000000000E+00 -0.17032328581E+04  0.17032328581E+04  0.00000000000E+00 0. -1.
         24    2    1    2    0    0 -0.15431425377E+03 -0.14303312872E+03  0.29528555698E+03  0.37244822429E+03  0.85163106982E+02 0.  0.
        254    2    1    2    0    0  0.15431425377E+03  0.14303312872E+03 -0.15385457798E+04  0.17907572691E+04  0.89186160103E+03 0.  0.
         23    2    4    4    0    0  0.40556721354E+03 -0.18492981008E+03 -0.53931455382E+03  0.70554814781E+03  0.90852636487E+02 0.  0.
         23    2    4    4    0    0 -0.25125295977E+03  0.32796293880E+03 -0.99923122601E+03  0.10852091213E+04  0.92347468301E+02 0.  0.
          2    1    3    3  502    0 -0.10680254323E+02 -0.24612480942E+02  0.45370094938E+01  0.27210779218E+02  0.00000000000E+00 0. -1.
         -1    1    3    3    0  502 -0.14363399944E+03 -0.11842064778E+03  0.29074854749E+03  0.34523744508E+03  0.00000000000E+00 0.  1.
         11    1    5    5    0    0  0.39920396601E+03 -0.19177077474E+03 -0.53672195393E+03  0.69585220583E+03  0.00000000000E+00 0. -1.
        -11    1    5    5    0    0  0.63632475249E+01  0.68409646676E+01 -0.25925998942E+01  0.96959419789E+01  0.00000000000E+00 0.  1.
          2    1    6    6  503    0 -0.19330277651E+03  0.30480342651E+03 -0.85290560484E+03  0.92613123421E+03  0.00000000000E+00 0. -1.
         -2    1    6    6    0  503 -0.57950183259E+02  0.23159512290E+02 -0.14632562117E+03  0.15907788709E+03  0.00000000000E+00 0.  1.
<mgrwt>
<rscale>  0 0.17702435E+04</rscale>
<asrwt>0</asrwt>
<pdfrwt beam="1">  1        2 0.26203582E+00 0.17702435E+04</pdfrwt>
<pdfrwt beam="2">  1       -1 0.70765021E-01 0.17702435E+04</pdfrwt>
<totfact> 0.21239013E+01</totfact>
</mgrwt>
</event>
<event>
12    6  0.1462228E-007  0.1409508E+04  0.7818608E-02  0.8946965E-01
         -1   -1    0    0    0  501 -0.00000000000E+00  0.00000000000E+00  0.89940954103E+03  0.89940954103E+03  0.00000000000E+00 0.  1.
          2   -1    0    0  501    0  0.00000000000E+00 -0.00000000000E+00 -0.55222687558E+03  0.55222687558E+03  0.00000000000E+00 0. -1.
         24    2    1    2    0    0  0.39739834228E+03 -0.99398370359E+02  0.71140595408E+02  0.42288985074E+03  0.77261653247E+02 0.  0.
        254    2    1    2    0    0 -0.39739834228E+03  0.99398370359E+02  0.27604207005E+03  0.10287465659E+04  0.90239392389E+03 0.  0.
         23    2    4    4    0    0  0.12232706759E+03 -0.28101827221E+03  0.19238109220E+03  0.37290336252E+03  0.90062491457E+02 0.  0.
         23    2    4    4    0    0 -0.51972540987E+03  0.38041664257E+03  0.83660977853E+02  0.65584320335E+03  0.91103372917E+02 0.  0.
          4    1    3    3  502    0  0.35535784740E+03 -0.66819581893E+02  0.75985944300E+02  0.36948331487E+03  0.00000000000E+00 0. -1.
         -3    1    3    3    0  502  0.42040494884E+02 -0.32578788466E+02 -0.48453488923E+01  0.53406535873E+02  0.00000000000E+00 0.  1.
         11    1    5    5    0    0  0.11218164719E+03 -0.26062776753E+03  0.20187230718E+03  0.34822978560E+03  0.00000000000E+00 0. -1.
        -11    1    5    5    0    0  0.10145420400E+02 -0.20390504675E+02 -0.94912149880E+01  0.24673576918E+02  0.00000000000E+00 0.  1.
          3    1    6    6  503    0 -0.32816000563E+03  0.21110321425E+03  0.12233890271E+02  0.39038855571E+03  0.00000000000E+00 0. -1.
         -3    1    6    6    0  503 -0.19156540424E+03  0.16931342832E+03  0.71427087582E+02  0.26545464764E+03  0.00000000000E+00 0.  1.
<mgrwt>
<rscale>  0 0.14095079E+04</rscale>
<asrwt>0</asrwt>
<pdfrwt beam="1">  1        2 0.84957981E-01 0.14095079E+04</pdfrwt>
<pdfrwt beam="2">  1       -1 0.13837070E+00 0.14095079E+04</pdfrwt>
<totfact> 0.26329984E+01</totfact>
</mgrwt>
</event>
<event>
12    6  0.1462228E-007  0.2192462E+04  0.7818608E-02  0.8521572E-01
          2   -1    0    0  501    0  0.00000000000E+00  0.00000000000E+00  0.13434089372E+04  0.13434089372E+04  0.00000000000E+00 0. -1.
         -1   -1    0    0    0  501 -0.00000000000E+00 -0.00000000000E+00 -0.89453202789E+03  0.89453202789E+03  0.00000000000E+00 0.  1.
         24    2    1    2    0    0  0.99469122062E+02 -0.88978080860E+03  0.34536594509E+03  0.96307147417E+03  0.81394316258E+02 0.  0.
        254    2    1    2    0    0 -0.99469122062E+02  0.88978080860E+03  0.10351096421E+03  0.12748694909E+04  0.90165054513E+03 0.  0.
         23    2    4    4    0    0  0.36392137238E+03  0.18495730298E+03 -0.15432642795E+02  0.41841746066E+03  0.90482239800E+02 0.  0.
         23    2    4    4    0    0 -0.46339049444E+03  0.70482350562E+03  0.11894360700E+03  0.85645203025E+03  0.88631676400E+02 0.  0.
          2    1    3    3  502    0  0.14844340514E+02 -0.23206028530E+02  0.17788520777E+02  0.32791853818E+02  0.00000000000E+00 0. -1.
         -1    1    3    3    0  502  0.84624781548E+02 -0.86657478007E+03  0.32757742432E+03  0.93027962035E+03  0.00000000000E+00 0.  1.
         11    1    5    5    0    0  0.19246101677E+03  0.10240412872E+03 -0.53202164359E+02  0.22440659270E+03  0.00000000000E+00 0.  1.
        -11    1    5    5    0    0  0.17146035561E+03  0.82553174263E+02  0.37769521564E+02  0.19401086796E+03  0.00000000000E+00 0. -1.
          1    1    6    6  503    0 -0.29531369544E+03  0.47741315373E+03  0.39661061407E+02  0.56276682370E+03  0.00000000000E+00 0. -1.
         -1    1    6    6    0  503 -0.16807679900E+03  0.22741035189E+03  0.79282545594E+02  0.29368520655E+03  0.00000000000E+00 0.  1.
<mgrwt>
<rscale>  0 0.21924619E+04</rscale>
<asrwt>0</asrwt>
<pdfrwt beam="1">  1        2 0.20667830E+00 0.21924619E+04</pdfrwt>
<pdfrwt beam="2">  1       -1 0.13762031E+00 0.21924619E+04</pdfrwt>
<totfact> 0.71270384E+00</totfact>
</mgrwt>
</event>
<event>
12    6  0.1462228E-007  0.1660675E+04  0.7818608E-02  0.8784116E-01
         -1   -1    0    0    0  501 -0.00000000000E+00  0.00000000000E+00  0.37804812507E+03  0.37804812507E+03  0.00000000000E+00 0.  1.
          2   -1    0    0  501    0  0.00000000000E+00 -0.00000000000E+00 -0.18237364134E+04  0.18237364134E+04  0.00000000000E+00 0. -1.
         24    2    1    2    0    0 -0.13620671890E+03  0.47769860153E+03 -0.10384423310E+03  0.51382651033E+03  0.80534674418E+02 0.  0.
        254    2    1    2    0    0  0.13620671890E+03 -0.47769860153E+03 -0.13418440552E+04  0.16879580282E+04  0.89549350197E+03 0.  0.
         23    2    4    4    0    0  0.23539985917E+03  0.15428373796E+03 -0.77155176544E+03  0.82616995391E+03  0.89711206098E+02 0.  0.
         23    2    4    4    0    0 -0.99193140266E+02 -0.63198233949E+03 -0.57029228980E+03  0.86178807425E+03  0.90578323057E+02 0.  0.
          4    1    3    3  502    0 -0.61069446308E+02  0.27161876086E+03 -0.95478672274E+02  0.29431684523E+03  0.00000000000E+00 0. -1.
         -3    1    3    3    0  502 -0.75137272593E+02  0.20607984067E+03 -0.83655608273E+01  0.21950966510E+03  0.00000000000E+00 0.  1.
         11    1    5    5    0    0  0.87233145679E+02  0.58283955820E+02 -0.17496497185E+03  0.20400829048E+03  0.00000000000E+00 0. -1.
        -11    1    5    5    0    0  0.14816671349E+03  0.95999782141E+02 -0.59658679358E+03  0.62216166343E+03  0.00000000000E+00 0.  1.
          2    1    6    6  503    0 -0.84556880088E+02 -0.55521934781E+03 -0.53635220551E+03  0.77659003246E+03  0.00000000000E+00 0. -1.
         -2    1    6    6    0  503 -0.14636260178E+02 -0.76762991681E+02 -0.33940084288E+02  0.85198041793E+02  0.00000000000E+00 0.  1.
<mgrwt>
<rscale>  0 0.16606747E+04</rscale>
<asrwt>0</asrwt>
<pdfrwt beam="1">  1        2 0.28057484E+00 0.16606747E+04</pdfrwt>
<pdfrwt beam="2">  1       -1 0.58161248E-01 0.16606747E+04</pdfrwt>
<totfact> 0.27258681E+01</totfact>
</mgrwt>
</event>
<event>
12    6  0.1462228E-007  0.1410994E+04  0.7818608E-02  0.8945899E-01
          2   -1    0    0  501    0  0.00000000000E+00  0.00000000000E+00  0.13173330088E+04  0.13173330088E+04  0.00000000000E+00 0. -1.
         -1   -1    0    0    0  501 -0.00000000000E+00 -0.00000000000E+00 -0.37782835668E+03  0.37782835668E+03  0.00000000000E+00 0.  1.
         24    2    1    2    0    0  0.54534099980E+02  0.25973674917E+03  0.67450613059E+03  0.72928136940E+03  0.80347051118E+02 0.  0.
        254    2    1    2    0    0 -0.54534099980E+02 -0.25973674917E+03  0.26499852152E+03  0.96587999606E+03  0.89009145791E+03 0.  0.
         23    2    4    4    0    0  0.33633098433E+03 -0.37285571169E+03  0.17359917935E+03  0.53913572867E+03  0.91601015806E+02 0.  0.
         23    2    4    4    0    0 -0.39086508431E+03  0.11311896252E+03  0.91399342167E+02  0.42674426739E+03  0.90473289926E+02 0.  0.
          4    1    3    3  502    0  0.37351044862E+02  0.47726105422E+02  0.10341677444E+03  0.11986622095E+03  0.00000000000E+00 0. -1.
         -3    1    3    3    0  502  0.17183055118E+02  0.21201064375E+03  0.57108935615E+03  0.60941514845E+03  0.00000000000E+00 0.  1.
         11    1    5    5    0    0  0.14563353104E+03 -0.99860037134E+02  0.45567541638E+02  0.18236653539E+03  0.00000000000E+00 0.  1.
        -11    1    5    5    0    0  0.19069745329E+03 -0.27299567456E+03  0.12803163771E+03  0.35676919328E+03  0.00000000000E+00 0. -1.
          2    1    6    6  503    0 -0.15692334889E+03  0.91414993313E+02  0.47702655242E+02  0.18776895842E+03  0.00000000000E+00 0. -1.
         -2    1    6    6    0  503 -0.23394173541E+03  0.21703969206E+02  0.43696686925E+02  0.23897530896E+03  0.00000000000E+00 0.  1.
<mgrwt>
<rscale>  0 0.14109936E+04</rscale>
<asrwt>0</asrwt>
<pdfrwt beam="1">  1        2 0.20266661E+00 0.14109936E+04</pdfrwt>
<pdfrwt beam="2">  1       -1 0.58127440E-01 0.14109936E+04</pdfrwt>
<totfact> 0.53686156E+01</totfact>
</mgrwt>
</event>
<event>
12    6  0.1462228E-007  0.2290614E+04  0.7818608E-02  0.8481631E-01
          2   -1    0    0  501    0  0.00000000000E+00  0.00000000000E+00  0.33882425284E+04  0.33882425284E+04  0.00000000000E+00 0. -1.
         -1   -1    0    0    0  501 -0.00000000000E+00 -0.00000000000E+00 -0.38714100311E+03  0.38714100311E+03  0.00000000000E+00 0.  1.
         24    2    1    2    0    0  0.92082923299E+03 -0.29423475408E+03  0.12509290336E+04  0.15829855191E+04  0.80741189340E+02 0.  0.
        254    2    1    2    0    0 -0.92082923299E+03  0.29423475408E+03  0.17501724917E+04  0.21923980124E+04  0.89944690084E+03 0.  0.
         23    2    4    4    0    0 -0.78984042980E+02 -0.15204751621E+03  0.87310953332E+03  0.89437953997E+03  0.90761104671E+02 0.  0.
         23    2    4    4    0    0 -0.84184519001E+03  0.44628227029E+03  0.87706295836E+03  0.12980184725E+04  0.87984846323E+02 0.  0.
          2    1    3    3  502    0  0.68369903597E+03 -0.25008931980E+03  0.96777920030E+03  0.12110266802E+04  0.00000000000E+00 0. -1.
         -1    1    3    3    0  502  0.23713019702E+03 -0.44145434282E+02  0.28314983333E+03  0.37195883888E+03  0.00000000000E+00 0.  1.
         11    1    5    5    0    0 -0.84204374172E+02 -0.99754100493E+02  0.73709037667E+03  0.74856093979E+03  0.00000000000E+00 0. -1.
        -11    1    5    5    0    0  0.52203311918E+01 -0.52293415718E+02  0.13601915665E+03  0.14581860018E+03  0.00000000000E+00 0.  1.
          1    1    6    6  503    0 -0.14255077948E+03  0.41328740996E+02  0.12323324695E+03  0.19291247424E+03  0.00000000000E+00 0. -1.
         -1    1    6    6    0  503 -0.69929441054E+03  0.40495352930E+03  0.75382971140E+03  0.11051059982E+04  0.00000000000E+00 0.  1.
<mgrwt>
<rscale>  0 0.22906136E+04</rscale>
<asrwt>0</asrwt>
<pdfrwt beam="1">  1        2 0.52126806E+00 0.22906136E+04</pdfrwt>
<pdfrwt beam="2">  1       -1 0.59560157E-01 0.22906136E+04</pdfrwt>
<totfact> 0.28713597E+00</totfact>
</mgrwt>
</event>
<event>
12    6  0.1462228E-007  0.1524101E+04  0.7818608E-02  0.8868582E-01
         -1   -1    0    0    0  501 -0.00000000000E+00  0.00000000000E+00  0.84073459777E+03  0.84073459777E+03  0.00000000000E+00 0.  1.
          2   -1    0    0  501    0  0.00000000000E+00 -0.00000000000E+00 -0.69073076089E+03  0.69073076089E+03  0.00000000000E+00 0. -1.
         24    2    1    2    0    0  0.27940066604E+03  0.79549735377E+02 -0.35778782098E+03  0.46836782726E+03  0.83447014276E+02 0.  0.
        254    2    1    2    0    0 -0.27940066604E+03 -0.79549735377E+02  0.50779165785E+03  0.10630975314E+04  0.88765483208E+03 0.  0.
         23    2    4    4    0    0 -0.52508329083E+03 -0.28312012439E+03  0.33527882904E+03  0.69023078130E+03  0.90206269764E+02 0.  0.
         23    2    4    4    0    0  0.24568262479E+03  0.20357038902E+03  0.17251282881E+03  0.37286675010E+03  0.86418064194E+02 0.  0.
          4    1    3    3  502    0  0.23702590878E+03  0.93930040440E+02 -0.32405286022E+03  0.41232801281E+03  0.00000000000E+00 0. -1.
         -3    1    3    3    0  502  0.42374757259E+02 -0.14380305063E+02 -0.33734960755E+02  0.56039814450E+02  0.00000000000E+00 0.  1.
         11    1    5    5    0    0 -0.33555040861E+03 -0.22862857648E+03  0.23102980044E+03  0.46716150461E+03  0.00000000000E+00 0. -1.
        -11    1    5    5    0    0 -0.18953288222E+03 -0.54491547912E+02  0.10424902860E+03  0.22306927668E+03  0.00000000000E+00 0.  1.
          1    1    6    6  503    0  0.10349778915E+03  0.14136456242E+03  0.85691955610E+02  0.19503549196E+03  0.00000000000E+00 0. -1.
         -1    1    6    6    0  503  0.14218483565E+03  0.62205826592E+02  0.86820873203E+02  0.17783125814E+03  0.00000000000E+00 0.  1.
<mgrwt>
<rscale>  0 0.15241014E+04</rscale>
<asrwt>0</asrwt>
<pdfrwt beam="1">  1        2 0.10626627E+00 0.15241014E+04</pdfrwt>
<pdfrwt beam="2">  1       -1 0.12934378E+00 0.15241014E+04</pdfrwt>
<totfact> 0.23584754E+01</totfact>
</mgrwt>
</event>
<event>
12    6  0.1462228E-007  0.2368234E+04  0.7818608E-02  0.8451493E-01
         -1   -1    0    0    0  501 -0.00000000000E+00  0.00000000000E+00  0.13648552665E+04  0.13648552665E+04  0.00000000000E+00 0.  1.
          2   -1    0    0  501    0  0.00000000000E+00 -0.00000000000E+00 -0.10273124900E+04  0.10273124900E+04  0.00000000000E+00 0. -1.
         24    2    1    2    0    0 -0.22765193533E+03 -0.78903967330E+03 -0.45477264680E+03  0.94215340845E+03  0.80161556027E+02 0.  0.
        254    2    1    2    0    0  0.22765193533E+03  0.78903967330E+03  0.79231542331E+03  0.14500143480E+04  0.89463337162E+03 0.  0.
         23    2    4    4    0    0  0.33133759395E+03  0.21952115329E+03 -0.63380628798E+02  0.41283371008E+03  0.91871813784E+02 0.  0.
         23    2    4    4    0    0 -0.10368565862E+03  0.56951852001E+03  0.85569605211E+03  0.10371806379E+04  0.91792600859E+02 0.  0.
          4    1    3    3  502    0 -0.17072289042E+03 -0.67018618809E+03 -0.40387924330E+03  0.80088343421E+03  0.00000000000E+00 0. -1.
         -3    1    3    3    0  502 -0.56929044910E+02 -0.11885348521E+03 -0.50893403501E+02  0.14126997424E+03  0.00000000000E+00 0.  1.
         11    1    5    5    0    0  0.20563942284E+03  0.17464103765E+03 -0.71539218630E+02  0.27911453574E+03  0.00000000000E+00 0. -1.
        -11    1    5    5    0    0  0.12569817111E+03  0.44880115644E+02  0.81585898318E+01  0.13371917435E+03  0.00000000000E+00 0.  1.
          1    1    6    6  503    0 -0.86785172031E+02  0.23082526529E+03  0.34151406361E+03  0.42124081572E+03  0.00000000000E+00 0.  1.
         -1    1    6    6    0  503 -0.16900486594E+02  0.33869325473E+03  0.51418198850E+03  0.61593982217E+03  0.00000000000E+00 0. -1.
<mgrwt>
<rscale>  0 0.23682338E+04</rscale>
<asrwt>0</asrwt>
<pdfrwt beam="1">  1        2 0.15804808E+00 0.23682338E+04</pdfrwt>
<pdfrwt beam="2">  1       -1 0.20997773E+00 0.23682338E+04</pdfrwt>
<totfact> 0.31985493E+00</totfact>
</mgrwt>
</event>
<event>
12    6  0.1462228E-007  0.1521993E+04  0.7818608E-02  0.8869958E-01
         -1   -1    0    0    0  501 -0.00000000000E+00  0.00000000000E+00  0.39217419194E+03  0.39217419194E+03  0.00000000000E+00 0.  1.
          2   -1    0    0  501    0  0.00000000000E+00 -0.00000000000E+00 -0.14766789698E+04  0.14766789698E+04  0.00000000000E+00 0. -1.
         24    2    1    2    0    0  0.35908020116E+03  0.35243069738E+03 -0.43523955968E+03  0.67012273978E+03  0.80529651295E+02 0.  0.
        254    2    1    2    0    0 -0.35908020116E+03 -0.35243069738E+03 -0.64926521816E+03  0.11987304219E+04  0.87307692310E+03 0.  0.
         23    2    4    4    0    0 -0.63333680385E+03 -0.31889977437E+03 -0.49574910768E+03  0.86993974262E+03  0.90638870307E+02 0.  0.
         23    2    4    4    0    0  0.27425660269E+03 -0.33530923011E+02 -0.15351611048E+03  0.32879067932E+03  0.90526834225E+02 0.  0.
          2    1    3    3  502    0  0.19764002044E+03  0.21760958846E+03 -0.20568074572E+03  0.35877580720E+03  0.00000000000E+00 0. -1.
         -1    1    3    3    0  502  0.16144018071E+03  0.13482110892E+03 -0.22955881396E+03  0.31134693258E+03  0.00000000000E+00 0.  1.
         11    1    5    5    0    0 -0.30935721625E+03 -0.16678247646E+03 -0.19181752589E+03  0.40039011593E+03  0.00000000000E+00 0.  1.
        -11    1    5    5    0    0 -0.32397958760E+03 -0.15211729791E+03 -0.30393158180E+03  0.46954962668E+03  0.00000000000E+00 0. -1.
          4    1    6    6  503    0  0.21958395581E+03 -0.55691676985E+01 -0.81838080392E+02  0.23440477956E+03  0.00000000000E+00 0. -1.
         -4    1    6    6    0  503  0.54672646884E+02 -0.27961755312E+02 -0.71678030085E+02  0.94385899764E+02  0.00000000000E+00 0.  1.
<mgrwt>
<rscale>  0 0.15219926E+04</rscale>
<asrwt>0</asrwt>
<pdfrwt beam="1">  1        2 0.22718138E+00 0.15219926E+04</pdfrwt>
<pdfrwt beam="2">  1       -1 0.60334492E-01 0.15219926E+04</pdfrwt>
<totfact> 0.40065995E+01</totfact>
</mgrwt>
</event>
<event>
12    6  0.1646183E-007  0.1739748E+04  0.7818608E-02  0.8739014E-01
          2   -1    0    0  501    0  0.00000000000E+00  0.00000000000E+00  0.10095092433E+04  0.10095092433E+04  0.00000000000E+00 0. -1.
         -1   -1    0    0    0  501 -0.00000000000E+00 -0.00000000000E+00 -0.74955271258E+03  0.74955271258E+03  0.00000000000E+00 0.  1.
         24    2    1    2    0    0  0.30718897130E+03  0.65071398132E+02  0.65415231315E+03  0.73048877974E+03  0.84257092203E+02 0.  0.
        254    2    1    2    0    0 -0.30718897130E+03 -0.65071398132E+02 -0.39419578246E+03  0.10285731761E+04  0.89664547775E+03 0.  0.
         23    2    4    4    0    0 -0.22711597772E+03 -0.33988569743E+03  0.11680148680E+03  0.43593071227E+03  0.96379686246E+02 0.  0.
         23    2    4    4    0    0 -0.80072993582E+02  0.27481429930E+03 -0.51099726926E+03  0.59264246385E+03  0.90400759750E+02 0.  0.
          4    1    3    3  502    0  0.28560592258E+03  0.77317278492E+02  0.56297533167E+03  0.63599522689E+03  0.00000000000E+00 0. -1.
         -3    1    3    3    0  502  0.21583048728E+02 -0.12245880360E+02  0.91176981484E+02  0.94493552852E+02  0.00000000000E+00 0.  1.
         11    1    5    5    0    0 -0.17262652661E+03 -0.31112147494E+03  0.81868111285E+02  0.36510118803E+03  0.00000000000E+00 0. -1.
        -11    1    5    5    0    0 -0.54489451109E+02 -0.28764222495E+02  0.34933375516E+02  0.70829524232E+02  0.00000000000E+00 0.  1.
          1    1    6    6  503    0 -0.83693710368E+02  0.24029530396E+03 -0.38148477618E+03  0.45855981586E+03  0.00000000000E+00 0. -1.
         -1    1    6    6    0  503  0.36207167855E+01  0.34518995345E+02 -0.12951249308E+03  0.13408264799E+03  0.00000000000E+00 0.  1.
<mgrwt>
<rscale>  0 0.17397476E+04</rscale>
<asrwt>0</asrwt>
<pdfrwt beam="1">  1        2 0.15530911E+00 0.17397476E+04</pdfrwt>
<pdfrwt beam="2">  1       -1 0.11531580E+00 0.17397476E+04</pdfrwt>
<totfact> 0.18331192E+01</totfact>
</mgrwt>
</event>
<event>
12    6  0.1462228E-007  0.2811125E+04  0.7818608E-02  0.8299823E-01
         -1   -1    0    0    0  501 -0.00000000000E+00  0.00000000000E+00  0.77658078336E+03  0.77658078336E+03  0.00000000000E+00 0.  1.
          2   -1    0    0  501    0  0.00000000000E+00 -0.00000000000E+00 -0.25439805578E+04  0.25439805578E+04  0.00000000000E+00 0. -1.
         24    2    1    2    0    0 -0.61542460376E+02  0.26688991472E+03  0.66351517027E+03  0.72244231542E+03  0.81564802007E+02 0.  0.
        254    2    1    2    0    0  0.61542460376E+02 -0.26688991472E+03 -0.24309149447E+04  0.25981190258E+04  0.87513273425E+03 0.  0.
         23    2    4    4    0    0  0.21827925437E+03 -0.10468209740E+03 -0.13431198815E+03  0.28864438549E+03  0.81680454888E+02 0.  0.
         23    2    4    4    0    0 -0.15673679399E+03 -0.16220781732E+03 -0.22966029566E+04  0.23094746403E+04  0.91707008032E+02 0.  0.
          2    1    3    3  502    0  0.11005181694E+02  0.13078133377E+03  0.28857063851E+03  0.31701401341E+03  0.00000000000E+00 0. -1.
         -1    1    3    3    0  502 -0.72547642070E+02  0.13610858095E+03  0.37494453175E+03  0.40542830201E+03  0.00000000000E+00 0.  1.
         11    1    5    5    0    0  0.23388519471E+02  0.13985886875E+02 -0.12364013848E+02  0.29924851097E+02  0.00000000000E+00 0. -1.
        -11    1    5    5    0    0  0.19489073490E+03 -0.11866798428E+03 -0.12194797430E+03  0.25871953439E+03  0.00000000000E+00 0.  1.
          3    1    6    6  503    0 -0.33798421689E+02 -0.37612459683E+02 -0.23106062473E+03  0.23652915832E+03  0.00000000000E+00 0. -1.
         -3    1    6    6    0  503 -0.12293837230E+03 -0.12459535764E+03 -0.20655423319E+04  0.20729454820E+04  0.00000000000E+00 0.  1.
<mgrwt>
<rscale>  0 0.28111253E+04</rscale>
<asrwt>0</asrwt>
<pdfrwt beam="1">  1        2 0.39138162E+00 0.28111253E+04</pdfrwt>
<pdfrwt beam="2">  1       -1 0.11947397E+00 0.28111253E+04</pdfrwt>
<totfact> 0.20292436E+00</totfact>
</mgrwt>
</event>
<event>
12    6  0.1462228E-007  0.3426532E+04  0.7818608E-02  0.8131425E-01
          2   -1    0    0  501    0  0.00000000000E+00  0.00000000000E+00  0.18586583281E+04  0.18586583281E+04  0.00000000000E+00 0. -1.
         -1   -1    0    0    0  501 -0.00000000000E+00 -0.00000000000E+00 -0.15792465933E+04  0.15792465933E+04  0.00000000000E+00 0.  1.
         24    2    1    2    0    0 -0.87869502290E+03 -0.90397705053E+03 -0.81836327754E+03  0.15047987159E+04  0.73629275516E+02 0.  0.
        254    2    1    2    0    0  0.87869502290E+03  0.90397705053E+03  0.10977750124E+04  0.19331062055E+04  0.97082963118E+03 0.  0.
         23    2    4    4    0    0  0.38755207536E+03  0.92576233017E+03  0.10071609699E+04  0.14250083703E+04  0.95095388270E+02 0.  0.
         23    2    4    4    0    0  0.49114294754E+03 -0.21785279647E+02  0.90614042463E+02  0.50809783524E+03  0.90865351841E+02 0.  0.
          2    1    3    3  502    0 -0.45532001876E+03 -0.48513968709E+03 -0.47330551139E+03  0.81651389613E+03  0.00000000000E+00 0. -1.
         -1    1    3    3    0  502 -0.42337500414E+03 -0.41883736344E+03 -0.34505776615E+03  0.68828481977E+03  0.00000000000E+00 0.  1.
         11    1    5    5    0    0  0.30743961311E+03  0.76273409421E+03  0.87185478599E+03  0.11985045607E+04  0.00000000000E+00 0. -1.
        -11    1    5    5    0    0  0.80112462253E+02  0.16302823596E+03  0.13530618394E+03  0.22650380955E+03  0.00000000000E+00 0.  1.
          1    1    6    6  503    0  0.44810511205E+03  0.30640833341E+01  0.67072515600E+02  0.45310738506E+03  0.00000000000E+00 0. -1.
         -1    1    6    6    0  503  0.43037835486E+02 -0.24849362981E+02  0.23541526863E+02  0.54990450179E+02  0.00000000000E+00 0.  1.
<mgrwt>
<rscale>  0 0.34265317E+04</rscale>
<asrwt>0</asrwt>
<pdfrwt beam="1">  1        2 0.28594743E+00 0.34265317E+04</pdfrwt>
<pdfrwt beam="2">  1       -1 0.24296102E+00 0.34265317E+04</pdfrwt>
<totfact> 0.58372389E-01</totfact>
</mgrwt>
</event>
<event>
12    6  0.1462228E-007  0.1097695E+04  0.7818608E-02  0.9207442E-01
         -3   -1    0    0    0  501 -0.00000000000E+00  0.00000000000E+00  0.48816490415E+03  0.48816490415E+03  0.00000000000E+00 0.  1.
          4   -1    0    0  501    0  0.00000000000E+00 -0.00000000000E+00 -0.61707308108E+03  0.61707308108E+03  0.00000000000E+00 0. -1.
         24    2    1    2    0    0 -0.10544629528E+03 -0.77829525440E+02  0.83310276411E+02  0.17389387381E+03  0.78243983644E+02 0.  0.
        254    2    1    2    0    0  0.10544629528E+03  0.77829525440E+02 -0.21221845335E+03  0.93134411141E+03  0.89732314453E+03 0.  0.
         23    2    4    4    0    0 -0.24203054131E+03  0.29200070103E+02 -0.43344870383E+03  0.50593467920E+03  0.93062848391E+02 0.  0.
         23    2    4    4    0    0  0.34747683658E+03  0.48629455337E+02  0.22123025048E+03  0.42540943221E+03  0.94474257855E+02 0.  0.
          2    1    3    3  502    0 -0.10285352868E+03 -0.85582803865E+02  0.55413327757E+02  0.14482369134E+03  0.00000000000E+00 0. -1.
         -1    1    3    3    0  502 -0.25927665957E+01  0.77532784256E+01  0.27896948654E+02  0.29070182476E+02  0.00000000000E+00 0.  1.
         11    1    5    5    0    0 -0.19986403490E+03 -0.55814507037E+01 -0.38050072314E+03  0.42983436967E+03  0.00000000000E+00 0. -1.
        -11    1    5    5    0    0 -0.42166506412E+02  0.34781520807E+02 -0.52947980687E+02  0.76100309536E+02  0.00000000000E+00 0.  1.
          4    1    6    6  503    0  0.31303975454E+03  0.57264088306E+02  0.22494978069E+03  0.38971203159E+03  0.00000000000E+00 0. -1.
         -4    1    6    6    0  503  0.34437082043E+02 -0.86346329697E+01 -0.37195302095E+01  0.35697400621E+02  0.00000000000E+00 0.  1.
<mgrwt>
<rscale>  0 0.10976947E+04</rscale>
<asrwt>0</asrwt>
<pdfrwt beam="1">  1        4 0.94934320E-01 0.10976947E+04</pdfrwt>
<pdfrwt beam="2">  1       -3 0.75102293E-01 0.10976947E+04</pdfrwt>
<totfact> 0.35423581E+00</totfact>
</mgrwt>
</event>
<event>
12    6  0.1543503E-007  0.1712590E+04  0.7818608E-02  0.8754216E-01
         -1   -1    0    0    0  501 -0.00000000000E+00  0.00000000000E+00  0.63975869215E+03  0.63975869215E+03  0.00000000000E+00 0.  1.
          2   -1    0    0  501    0  0.00000000000E+00 -0.00000000000E+00 -0.11461215802E+04  0.11461215802E+04  0.00000000000E+00 0. -1.
         24    2    1    2    0    0  0.61158297440E+03  0.70936036644E+02 -0.17763733374E+03  0.64576374466E+03  0.79938324459E+02 0.  0.
        254    2    1    2    0    0 -0.61158297440E+03 -0.70936036644E+02 -0.32872555430E+03  0.11401165277E+04  0.90152068792E+03 0.  0.
         23    2    4    4    0    0 -0.26029257906E+03 -0.88059717409E+02 -0.61342336377E+03  0.67829708065E+03  0.91060232022E+02 0.  0.
         23    2    4    4    0    0 -0.35129039534E+03  0.17123680765E+02  0.28469780947E+03  0.46181944702E+03  0.92337406450E+02 0.  0.
          2    1    3    3  502    0  0.11997475781E+03  0.26411583570E+02 -0.54316382027E+01  0.12296754430E+03  0.00000000000E+00 0. -1.
         -1    1    3    3    0  502  0.49160821659E+03  0.44524453074E+02 -0.17220569553E+03  0.52279620036E+03  0.00000000000E+00 0.  1.
         11    1    5    5    0    0 -0.17780759955E+03 -0.10034514654E+03 -0.46923884022E+03  0.51173213702E+03  0.00000000000E+00 0. -1.
        -11    1    5    5    0    0 -0.82484979515E+02  0.12285429131E+02 -0.14418452355E+03  0.16656494363E+03  0.00000000000E+00 0.  1.
          4    1    6    6  503    0 -0.26440331805E+03  0.50518357530E+02  0.22846631661E+03  0.35306950714E+03  0.00000000000E+00 0. -1.
         -4    1    6    6    0  503 -0.86887077289E+02 -0.33394676765E+02  0.56231492861E+02  0.10874993989E+03  0.00000000000E+00 0.  1.
<mgrwt>
<rscale>  0 0.17125901E+04</rscale>
<asrwt>0</asrwt>
<pdfrwt beam="1">  1        2 0.17632639E+00 0.17125901E+04</pdfrwt>
<pdfrwt beam="2">  1       -1 0.98424416E-01 0.17125901E+04</pdfrwt>
<totfact> 0.21874366E+01</totfact>
</mgrwt>
</event>
<event>
12    6  0.1462228E-007  0.1265842E+04  0.7818608E-02  0.9057100E-01
          2   -1    0    0  501    0  0.00000000000E+00  0.00000000000E+00  0.51308756245E+03  0.51308756245E+03  0.00000000000E+00 0. -1.
         -1   -1    0    0    0  501 -0.00000000000E+00 -0.00000000000E+00 -0.78074204409E+03  0.78074204409E+03  0.00000000000E+00 0.  1.
         24    2    1    2    0    0  0.25544751165E+03  0.15541943585E+03 -0.10958656367E+03  0.32822372865E+03  0.79454193493E+02 0.  0.
        254    2    1    2    0    0 -0.25544751165E+03 -0.15541943585E+03 -0.15806791797E+03  0.96560587790E+03  0.90443386298E+03 0.  0.
         23    2    4    4    0    0 -0.52449426672E+03  0.10471192764E+03  0.21577214890E+02  0.54289583850E+03  0.90617281165E+02 0.  0.
         23    2    4    4    0    0  0.26904675507E+03 -0.26013136349E+03 -0.17964513286E+03  0.42271003940E+03  0.79730301444E+02 0.  0.
          2    1    3    3  502    0 -0.90684899086E+00 -0.59338916167E+00  0.64016577798E+01  0.64927427271E+01  0.00000000000E+00 0. -1.
         -1    1    3    3    0  502  0.25635436064E+03  0.15601282501E+03 -0.11598822145E+03  0.32173098592E+03  0.00000000000E+00 0.  1.
         11    1    5    5    0    0 -0.46472684360E+03  0.89041504197E+02 -0.10461281797E+02  0.47329575009E+03  0.00000000000E+00 0. -1.
        -11    1    5    5    0    0 -0.59767423115E+02  0.15670423443E+02  0.32038496686E+02  0.69600088410E+02  0.00000000000E+00 0.  1.
          2    1    6    6  503    0  0.23629198190E+03 -0.21009122503E+03 -0.11984418741E+03  0.33813437093E+03  0.00000000000E+00 0. -1.
         -2    1    6    6    0  503  0.32754773172E+02 -0.50040138458E+02 -0.59800945443E+02  0.84575668476E+02  0.00000000000E+00 0.  1.
<mgrwt>
<rscale>  0 0.12658421E+04</rscale>
<asrwt>0</asrwt>
<pdfrwt beam="1">  1        2 0.78936548E-01 0.12658421E+04</pdfrwt>
<pdfrwt beam="2">  1       -1 0.12011416E+00 0.12658421E+04</pdfrwt>
<totfact> 0.41473171E+01</totfact>
</mgrwt>
</event>
<event>
12    6  0.1462228E-007  0.1397387E+04  0.7818608E-02  0.8955712E-01
          2   -1    0    0  501    0  0.00000000000E+00  0.00000000000E+00  0.15626409933E+04  0.15626409933E+04  0.00000000000E+00 0. -1.
         -1   -1    0    0    0  501 -0.00000000000E+00 -0.00000000000E+00 -0.31240226887E+03  0.31240226887E+03  0.00000000000E+00 0.  1.
         24    2    1    2    0    0  0.22781827455E+03 -0.25768188782E+03  0.66524460426E+03  0.75311389867E+03  0.79555259681E+02 0.  0.
        254    2    1    2    0    0 -0.22781827455E+03  0.25768188782E+03  0.58499412013E+03  0.11219293635E+04  0.89342389405E+03 0.  0.
         23    2    4    4    0    0 -0.37670606317E+02  0.48346367792E+03  0.64022209289E+03  0.80804735858E+03  0.88881961216E+02 0.  0.
         23    2    4    4    0    0 -0.19014766823E+03 -0.22578179010E+03 -0.55227972757E+02  0.31388200488E+03  0.91313917539E+02 0.  0.
          2    1    3    3  502    0  0.18490192151E+03 -0.20446427579E+03  0.59132581135E+03  0.65242668234E+03  0.00000000000E+00 0. -1.
         -1    1    3    3    0  502  0.42916353037E+02 -0.53217612026E+02  0.73918792911E+02  0.10068721633E+03  0.00000000000E+00 0.  1.
         11    1    5    5    0    0 -0.40618181425E+02  0.38039150075E+03  0.55607012756E+03  0.67495297411E+03  0.00000000000E+00 0. -1.
        -11    1    5    5    0    0  0.29475751076E+01  0.10307217717E+03  0.84151965329E+02  0.13309438446E+03  0.00000000000E+00 0.  1.
          4    1    6    6  503    0 -0.91333123542E+01 -0.65959170306E+02 -0.22024556791E+02  0.70136371761E+02  0.00000000000E+00 0.  1.
         -4    1    6    6    0  503 -0.18101435587E+03 -0.15982261980E+03 -0.33203415966E+02  0.24374563312E+03  0.00000000000E+00 0. -1.
<mgrwt>
<rscale>  0 0.13973870E+04</rscale>
<asrwt>0</asrwt>
<pdfrwt beam="1">  1        2 0.24040630E+00 0.13973870E+04</pdfrwt>
<pdfrwt beam="2">  1       -1 0.48061888E-01 0.13973870E+04</pdfrwt>
<totfact> 0.56160897E+01</totfact>
</mgrwt>
</event>
<event>
12    6  0.1462228E-007  0.1711466E+04  0.7818608E-02  0.8754852E-01
          2   -1    0    0  501    0  0.00000000000E+00  0.00000000000E+00  0.34901924151E+04  0.34901924151E+04  0.00000000000E+00 0. -1.
         -1   -1    0    0    0  501 -0.00000000000E+00 -0.00000000000E+00 -0.20981052439E+03  0.20981052439E+03  0.00000000000E+00 0.  1.
         24    2    1    2    0    0 -0.19711128536E+03  0.17672978805E+03  0.23904202359E+04  0.24064805559E+04  0.83387559308E+02 0.  0.
        254    2    1    2    0    0  0.19711128536E+03 -0.17672978805E+03  0.88996165481E+03  0.12935223836E+04  0.90060098432E+03 0.  0.
         23    2    4    4    0    0  0.28503432278E+03  0.12232541190E+03  0.91165484400E+03  0.96817901675E+03  0.10023962452E+03 0.  0.
         23    2    4    4    0    0 -0.87923037418E+02 -0.29905519995E+03 -0.21693189196E+02  0.32534336681E+03  0.90626920652E+02 0.  0.
          2    1    3    3  502    0 -0.96131159578E+02  0.80533513504E+02  0.14966107318E+04  0.15018556952E+04  0.00000000000E+00 0. -1.
         -1    1    3    3    0  502 -0.10098012578E+03  0.96196274546E+02  0.89380950411E+03  0.90462486074E+03  0.00000000000E+00 0.  1.
         11    1    5    5    0    0  0.34781298429E+02  0.16986177145E+02  0.41967873590E+02  0.57092655816E+02  0.00000000000E+00 0.  1.
        -11    1    5    5    0    0  0.25025302435E+03  0.10533923475E+03  0.86968697041E+03  0.91108636094E+03  0.00000000000E+00 0. -1.
          4    1    6    6  503    0 -0.50250497736E+02 -0.49432257059E+02 -0.18489682318E+02  0.72873375885E+02  0.00000000000E+00 0.  1.
         -4    1    6    6    0  503 -0.37672539681E+02 -0.24962294289E+03 -0.32035068780E+01  0.25246999093E+03  0.00000000000E+00 0. -1.
<mgrwt>
<rscale>  0 0.17114662E+04</rscale>
<asrwt>0</asrwt>
<pdfrwt beam="1">  1        2 0.53695264E+00 0.17114662E+04</pdfrwt>
<pdfrwt beam="2">  1       -1 0.32278545E-01 0.17114662E+04</pdfrwt>
<totfact> 0.80930979E+00</totfact>
</mgrwt>
</event>
<event>
12    6  0.1462228E-007  0.1489782E+04  0.7818608E-02  0.8891276E-01
          2   -1    0    0  501    0  0.00000000000E+00  0.00000000000E+00  0.66690603131E+03  0.66690603131E+03  0.00000000000E+00 0. -1.
         -1   -1    0    0    0  501 -0.00000000000E+00 -0.00000000000E+00 -0.83199568313E+03  0.83199568313E+03  0.00000000000E+00 0.  1.
         24    2    1    2    0    0 -0.22093954223E+03 -0.32829864879E+03 -0.28834648552E+03  0.49606301893E+03  0.79627500993E+02 0.  0.
        254    2    1    2    0    0  0.22093954223E+03  0.32829864879E+03  0.12325683370E+03  0.10028386955E+04  0.91318066013E+03 0.  0.
         23    2    4    4    0    0  0.45266385470E+03  0.48955314635E+03 -0.21374609029E+02  0.67307861188E+03  0.89504722777E+02 0.  0.
         23    2    4    4    0    0 -0.23172431247E+03 -0.16125449756E+03  0.14463144273E+03  0.32976008363E+03  0.90134835426E+02 0.  0.
          4    1    3    3  502    0 -0.11530423791E+02 -0.53790086851E+01  0.33283971681E+01  0.13151525955E+02  0.00000000000E+00 0. -1.
         -3    1    3    3    0  502 -0.20940911844E+03 -0.32291964011E+03 -0.29167488269E+03  0.48291149297E+03  0.00000000000E+00 0.  1.
         11    1    5    5    0    0  0.83969395877E+02  0.48500241504E+02  0.92106036473E+01  0.97406201494E+02  0.00000000000E+00 0. -1.
        -11    1    5    5    0    0  0.36869445882E+03  0.44105290484E+03 -0.30585212677E+02  0.57567241038E+03  0.00000000000E+00 0.  1.
          1    1    6    6  503    0 -0.10185080505E+03 -0.12073901248E+03  0.56983747780E+02  0.16792451619E+03  0.00000000000E+00 0. -1.
         -1    1    6    6    0  503 -0.12987350742E+03 -0.40515485074E+02  0.87647694951E+02  0.16183556744E+03  0.00000000000E+00 0.  1.
<mgrwt>
<rscale>  0 0.14897825E+04</rscale>
<asrwt>0</asrwt>
<pdfrwt beam="1">  1        2 0.10260093E+00 0.14897825E+04</pdfrwt>
<pdfrwt beam="2">  1       -1 0.12799934E+00 0.14897825E+04</pdfrwt>
<totfact> 0.25374344E+01</totfact>
</mgrwt>
</event>
<event>
12    6  0.1462228E-007  0.1455564E+04  0.7818608E-02  0.8914552E-01
          2   -1    0    0  501    0  0.00000000000E+00  0.00000000000E+00  0.60114743754E+03  0.60114743754E+03  0.00000000000E+00 0. -1.
         -1   -1    0    0    0  501 -0.00000000000E+00 -0.00000000000E+00 -0.88109318318E+03  0.88109318318E+03  0.00000000000E+00 0.  1.
         24    2    1    2    0    0 -0.23969652509E+03  0.28793671454E+03 -0.33479760053E+03  0.50855855261E+03  0.78615471735E+02 0.  0.
        254    2    1    2    0    0  0.23969652509E+03 -0.28793671454E+03  0.54851854881E+02  0.97368206811E+03  0.89704295775E+03 0.  0.
         23    2    4    4    0    0 -0.31745763643E+03 -0.23355913724E+03  0.39970304952E+02  0.40710649941E+03  0.93855501010E+02 0.  0.
         23    2    4    4    0    0  0.55715416152E+03 -0.54377577305E+02  0.14881549928E+02  0.56657556870E+03  0.86074002508E+02 0.  0.
          2    1    3    3  502    0 -0.14972511619E+03  0.19412783739E+03 -0.16846253587E+03  0.29746067582E+03  0.00000000000E+00 0. -1.
         -1    1    3    3    0  502 -0.89971408905E+02  0.93808877146E+02 -0.16633506465E+03  0.21109787679E+03  0.00000000000E+00 0.  1.
         11    1    5    5    0    0 -0.48248699896E+02 -0.84780580597E+02  0.86579341145E+01  0.97931831960E+02  0.00000000000E+00 0. -1.
        -11    1    5    5    0    0 -0.26920893653E+03 -0.14877855664E+03  0.31312370838E+02  0.30917466745E+03  0.00000000000E+00 0.  1.
          3    1    6    6  503    0  0.96405894375E+02  0.22304449581E+02  0.10086757984E+02  0.99465208129E+02  0.00000000000E+00 0. -1.
         -3    1    6    6    0  503  0.46074826714E+03 -0.76682026886E+02  0.47947919442E+01  0.46711036057E+03  0.00000000000E+00 0.  1.
<mgrwt>
<rscale>  0 0.14555644E+04</rscale>
<asrwt>0</asrwt>
<pdfrwt beam="1">  1        2 0.92484221E-01 0.14555644E+04</pdfrwt>
<pdfrwt beam="2">  1       -1 0.13555280E+00 0.14555644E+04</pdfrwt>
<totfact> 0.24990077E+01</totfact>
</mgrwt>
</event>
<event>
12    6  0.1462228E-007  0.2060307E+04  0.7818608E-02  0.8578933E-01
         -1   -1    0    0    0  501 -0.00000000000E+00  0.00000000000E+00  0.44968924107E+03  0.44968924107E+03  0.00000000000E+00 0.  1.
          2   -1    0    0  501    0  0.00000000000E+00 -0.00000000000E+00 -0.23598885753E+04  0.23598885753E+04  0.00000000000E+00 0. -1.
         24    2    1    2    0    0  0.17985372819E+03 -0.16559793570E+03  0.30695419853E+03  0.40102754921E+03  0.82656974137E+02 0.  0.
        254    2    1    2    0    0 -0.17985372819E+03  0.16559793570E+03 -0.22171535328E+04  0.24085502672E+04  0.90861133701E+03 0.  0.
         23    2    4    4    0    0 -0.98862331645E+02  0.48324946446E+03 -0.18020869457E+04  0.18712422805E+04  0.10356885066E+03 0.  0.
         23    2    4    4    0    0 -0.80991396550E+02 -0.31765152875E+03 -0.41506658707E+03  0.53730798670E+03  0.94644074472E+02 0.  0.
          2    1    3    3  502    0  0.12793271787E+03 -0.15840499176E+03  0.22227917734E+03  0.30144146097E+03  0.00000000000E+00 0. -1.
         -1    1    3    3    0  502  0.51921010328E+02 -0.71929439430E+01  0.84675021192E+02  0.99586088235E+02  0.00000000000E+00 0.  1.
         11    1    5    5    0    0 -0.94730641376E+02  0.28502298461E+03 -0.12152459999E+04  0.12518126203E+04  0.00000000000E+00 0. -1.
        -11    1    5    5    0    0 -0.41316902691E+01  0.19822647985E+03 -0.58684094585E+03  0.61942966017E+03  0.00000000000E+00 0.  1.
          3    1    6    6  503    0  0.85631073999E+01 -0.36358414743E+02 -0.15316652525E+02  0.40371536701E+02  0.00000000000E+00 0. -1.
         -3    1    6    6    0  503 -0.89554503950E+02 -0.28129311401E+03 -0.39974993455E+03  0.49693645000E+03  0.00000000000E+00 0.  1.
<mgrwt>
<rscale>  0 0.20603073E+04</rscale>
<asrwt>0</asrwt>
<pdfrwt beam="1">  1        2 0.36305978E+00 0.20603073E+04</pdfrwt>
<pdfrwt beam="2">  1       -1 0.69182961E-01 0.20603073E+04</pdfrwt>
<totfact> 0.93240456E+00</totfact>
</mgrwt>
</event>
<event>
12    6  0.1462228E-007  0.1214613E+04  0.7818608E-02  0.9100161E-01
         -1   -1    0    0    0  501 -0.00000000000E+00  0.00000000000E+00  0.15346822447E+03  0.15346822447E+03  0.00000000000E+00 0.  1.
          2   -1    0    0  501    0  0.00000000000E+00 -0.00000000000E+00 -0.24032413665E+04  0.24032413665E+04  0.00000000000E+00 0. -1.
         24    2    1    2    0    0  0.19045798626E+03  0.17942075474E+03 -0.24756250541E+03  0.37009485735E+03  0.84952678503E+02 0.  0.
        254    2    1    2    0    0 -0.19045798626E+03 -0.17942075474E+03 -0.20022106366E+04  0.21866147336E+04  0.83902950373E+03 0.  0.
         23    2    4    4    0    0  0.22073739133E+03  0.19818077122E+03 -0.78087524621E+03  0.84075442094E+03  0.95400378200E+02 0.  0.
         23    2    4    4    0    0 -0.41119537760E+03 -0.37760152597E+03 -0.12213353904E+04  0.13458603127E+04  0.89528176734E+02 0.  0.
          2    1    3    3  502    0  0.50782958808E+00  0.14708713758E+02  0.31321467313E+01  0.15047075943E+02  0.00000000000E+00 0. -1.
         -1    1    3    3    0  502  0.18995015668E+03  0.16471204098E+03 -0.25069465214E+03  0.35504778140E+03  0.00000000000E+00 0.  1.
         11    1    5    5    0    0  0.20852827030E+03  0.20234364092E+03 -0.77259251439E+03  0.82542484929E+03  0.00000000000E+00 0. -1.
        -11    1    5    5    0    0  0.12209121032E+02 -0.41628696942E+01 -0.82827318279E+01  0.15329571650E+02  0.00000000000E+00 0.  1.
          2    1    6    6  503    0 -0.25766795406E+01 -0.13916707796E+01  0.11229501138E+01  0.31364059004E+01  0.00000000000E+00 0.  1.
         -2    1    6    6    0  503 -0.40861869806E+03 -0.37620985519E+03 -0.12224583405E+04  0.13427239068E+04  0.00000000000E+00 0. -1.
<mgrwt>
<rscale>  0 0.12146130E+04</rscale>
<asrwt>0</asrwt>
<pdfrwt beam="1">  1        2 0.36972941E+00 0.12146130E+04</pdfrwt>
<pdfrwt beam="2">  1       -1 0.23610498E-01 0.12146130E+04</pdfrwt>
<totfact> 0.69005486E+01</totfact>
</mgrwt>
</event>
<event>
12    6  0.1792352E-007  0.2788183E+04  0.7818608E-02  0.8306946E-01
          2   -1    0    0  501    0  0.00000000000E+00  0.00000000000E+00  0.20024759801E+04  0.20024759801E+04  0.00000000000E+00 0. -1.
         -1   -1    0    0    0  501 -0.00000000000E+00 -0.00000000000E+00 -0.97054433902E+03  0.97054433902E+03  0.00000000000E+00 0.  1.
         24    2    1    2    0    0 -0.10689203320E+04  0.38003933163E+03 -0.88179234880E+02  0.11405069895E+04  0.77201333856E+02 0.  0.
        254    2    1    2    0    0  0.10689203320E+04 -0.38003933163E+03  0.11201108760E+04  0.18325133296E+04  0.90356856904E+03 0.  0.
         23    2    4    4    0    0  0.63649794372E+03 -0.33624226941E+03  0.11715517541E+03  0.73559955035E+03  0.95879441236E+02 0.  0.
         23    2    4    4    0    0  0.43242238827E+03 -0.43797062222E+02  0.10029557006E+04  0.10969137793E+04  0.91610028227E+02 0.  0.
          2    1    3    3  502    0 -0.69475757059E+02  0.41381844485E+02  0.57646498225E+01  0.81071382494E+02  0.00000000000E+00 0. -1.
         -1    1    3    3    0  502 -0.99944457494E+03  0.33865748714E+03 -0.93943884702E+02  0.10594356070E+04  0.00000000000E+00 0.  1.
         11    1    5    5    0    0  0.66642782298E+02 -0.62785016075E+02  0.35818289802E+02  0.98316674884E+02  0.00000000000E+00 0. -1.
        -11    1    5    5    0    0  0.56985516143E+03 -0.27345725333E+03  0.81336885605E+02  0.63728287547E+03  0.00000000000E+00 0.  1.
          2    1    6    6  503    0  0.77554262038E+02 -0.37812750085E+02  0.14968062685E+03  0.17276793013E+03  0.00000000000E+00 0. -1.
         -2    1    6    6    0  503  0.35486812624E+03 -0.59843121378E+01  0.85327507373E+03  0.92414584913E+03  0.00000000000E+00 0.  1.
<mgrwt>
<rscale>  0 0.27881834E+04</rscale>
<asrwt>0</asrwt>
<pdfrwt beam="1">  1        2 0.30807323E+00 0.27881834E+04</pdfrwt>
<pdfrwt beam="2">  1       -1 0.14931451E+00 0.27881834E+04</pdfrwt>
<totfact> 0.23310769E+00</totfact>
</mgrwt>
</event>
<event>
12    6  0.1462228E-007  0.2758086E+04  0.7818608E-02  0.8316400E-01
         -1   -1    0    0    0  501 -0.00000000000E+00  0.00000000000E+00  0.14408391995E+04  0.14408391995E+04  0.00000000000E+00 0.  1.
          2   -1    0    0  501    0  0.00000000000E+00 -0.00000000000E+00 -0.13198974556E+04  0.13198974556E+04  0.00000000000E+00 0. -1.
         24    2    1    2    0    0 -0.23030172684E+03 -0.90367678211E+03 -0.72773895348E+03  0.11854944555E+04  0.78246454898E+02 0.  0.
        254    2    1    2    0    0  0.23030172684E+03  0.90367678211E+03  0.84868069741E+03  0.15752421996E+04  0.94417077344E+03 0.  0.
         23    2    4    4    0    0 -0.27552526945E+03  0.11826155770E+03  0.46399241134E+03  0.55963975381E+03  0.89485899026E+02 0.  0.
         23    2    4    4    0    0  0.50582699629E+03  0.78541522441E+03  0.38468828607E+03  0.10156024458E+04  0.10356266513E+03 0.  0.
          2    1    3    3  502    0 -0.13618046368E+03 -0.64694141866E+03 -0.54254792985E+03  0.85524065272E+03  0.00000000000E+00 0. -1.
         -1    1    3    3    0  502 -0.94121263157E+02 -0.25673536345E+03 -0.18519102363E+03  0.33025380279E+03  0.00000000000E+00 0.  1.
         11    1    5    5    0    0 -0.31440202815E+02  0.13440013166E+02  0.13706690472E+02  0.36837395004E+02  0.00000000000E+00 0. -1.
        -11    1    5    5    0    0 -0.24408506664E+03  0.10482154454E+03  0.45028572086E+03  0.52280235880E+03  0.00000000000E+00 0.  1.
          2    1    6    6  503    0  0.35022082922E+03  0.47153239589E+03  0.20693640913E+03  0.62275204297E+03  0.00000000000E+00 0. -1.
         -2    1    6    6    0  503  0.15560616707E+03  0.31388282852E+03  0.17775187694E+03  0.39285040285E+03  0.00000000000E+00 0.  1.
<mgrwt>
<rscale>  0 0.27580863E+04</rscale>
<asrwt>0</asrwt>
<pdfrwt beam="1">  1        2 0.20306115E+00 0.27580863E+04</pdfrwt>
<pdfrwt beam="2">  1       -1 0.22166757E+00 0.27580863E+04</pdfrwt>
<totfact> 0.17172146E+00</totfact>
</mgrwt>
</event>
<event>
12    6  0.1462228E-007  0.1719886E+04  0.7818608E-02  0.8750103E-01
          2   -1    0    0  501    0  0.00000000000E+00  0.00000000000E+00  0.28221572538E+04  0.28221572538E+04  0.00000000000E+00 0. -1.
         -1   -1    0    0    0  501 -0.00000000000E+00 -0.00000000000E+00 -0.26203425254E+03  0.26203425254E+03  0.00000000000E+00 0.  1.
         24    2    1    2    0    0 -0.88935608202E+02 -0.23731154455E+03 -0.85308468463E+02  0.27909653752E+03  0.79943923350E+02 0.  0.
        254    2    1    2    0    0  0.88935608202E+02  0.23731154455E+03  0.26454314698E+04  0.28050949689E+04  0.89778828882E+03 0.  0.
         23    2    4    4    0    0  0.38947712760E+03  0.40716087168E+03  0.15259146231E+04  0.16294224355E+04  0.95549085454E+02 0.  0.
         23    2    4    4    0    0 -0.30054151940E+03 -0.16984932713E+03  0.11195168466E+04  0.11756725334E+04  0.98559307548E+02 0.  0.
          2    1    3    3  502    0  0.15386388887E+00 -0.37500014447E+02  0.12397918258E+02  0.39496621815E+02  0.00000000000E+00 0. -1.
         -1    1    3    3    0  502 -0.89089472091E+02 -0.19981153010E+03 -0.97706386721E+02  0.23959991570E+03  0.00000000000E+00 0.  1.
         11    1    5    5    0    0  0.11155042047E+03  0.16336951051E+03  0.62652616987E+03  0.65701456209E+03  0.00000000000E+00 0.  1.
        -11    1    5    5    0    0  0.27792670713E+03  0.24379136116E+03  0.89938845328E+03  0.97240787338E+03  0.00000000000E+00 0. -1.
          1    1    6    6  503    0 -0.95319509460E+02 -0.40258248557E+02  0.49393127123E+03  0.50465298588E+03  0.00000000000E+00 0. -1.
         -1    1    6    6    0  503 -0.20522200994E+03 -0.12959107857E+03  0.62558557540E+03  0.67101954752E+03  0.00000000000E+00 0.  1.
<mgrwt>
<rscale>  0 0.17198859E+04</rscale>
<asrwt>0</asrwt>
<pdfrwt beam="1">  1        2 0.43417802E+00 0.17198859E+04</pdfrwt>
<pdfrwt beam="2">  1       -1 0.40312964E-01 0.17198859E+04</pdfrwt>
<totfact> 0.14610837E+01</totfact>
</mgrwt>
</event>
<event>
12    6  0.1462228E-007  0.1377296E+04  0.7818608E-02  0.8970419E-01
         -1   -1    0    0    0  501 -0.00000000000E+00  0.00000000000E+00  0.19419052450E+03  0.19419052450E+03  0.00000000000E+00 0.  1.
          2   -1    0    0  501    0  0.00000000000E+00 -0.00000000000E+00 -0.24421167424E+04  0.24421167424E+04  0.00000000000E+00 0. -1.
         24    2    1    2    0    0  0.34997755456E+03 -0.33695490647E+02 -0.96447293408E+03  0.10297879195E+04  0.81458233307E+02 0.  0.
        254    2    1    2    0    0 -0.34997755456E+03  0.33695490647E+02 -0.12834532838E+04  0.16065193474E+04  0.90001800374E+03 0.  0.
         23    2    4    4    0    0  0.28944699708E+02  0.31540141085E+03 -0.98905821298E+03  0.10425718116E+04  0.91673268159E+02 0.  0.
         23    2    4    4    0    0 -0.37892225427E+03 -0.28170592020E+03 -0.29439507080E+03  0.56394753577E+03  0.91804494038E+02 0.  0.
          2    1    3    3  502    0  0.34838659466E+03 -0.26627122234E+02 -0.90892398906E+03  0.97376847395E+03  0.00000000000E+00 0. -1.
         -1    1    3    3    0  502  0.15909598951E+01 -0.70683684126E+01 -0.55548945022E+02  0.56019445539E+02  0.00000000000E+00 0.  1.
         11    1    5    5    0    0 -0.19021716065E+02  0.45679561307E+02 -0.23852094690E+03  0.24359944605E+03  0.00000000000E+00 0.  1.
        -11    1    5    5    0    0  0.47966415773E+02  0.26972184954E+03 -0.75053726607E+03  0.79897236556E+03  0.00000000000E+00 0. -1.
          3    1    6    6  503    0 -0.21747207203E+03 -0.12461532662E+03 -0.19577338100E+03  0.31804134708E+03  0.00000000000E+00 0. -1.
         -3    1    6    6    0  503 -0.16145018223E+03 -0.15709059358E+03 -0.98621689806E+02  0.24590618869E+03  0.00000000000E+00 0.  1.
<mgrwt>
<rscale>  0 0.13772958E+04</rscale>
<asrwt>0</asrwt>
<pdfrwt beam="1">  1        2 0.37571027E+00 0.13772958E+04</pdfrwt>
<pdfrwt beam="2">  1       -1 0.29875465E-01 0.13772958E+04</pdfrwt>
<totfact> 0.43058042E+01</totfact>
</mgrwt>
</event>
<event>
12    6  0.1462228E-007  0.1100752E+04  0.7818608E-02  0.9204459E-01
          2   -1    0    0  501    0  0.00000000000E+00  0.00000000000E+00  0.90528123486E+03  0.90528123486E+03  0.00000000000E+00 0. -1.
         -3   -1    0    0    0  501 -0.00000000000E+00 -0.00000000000E+00 -0.33460751037E+03  0.33460751037E+03  0.00000000000E+00 0.  1.
         24    2    1    2    0    0  0.75930730200E+02  0.13510263239E+02 -0.73075226476E+02  0.13285883538E+03  0.79771413497E+02 0.  0.
        254    2    1    2    0    0 -0.75930730200E+02 -0.13510263239E+02  0.64374895096E+03  0.11070299099E+04  0.89730402119E+03 0.  0.
         23    2    4    4    0    0 -0.40680467951E+03  0.21611872810E+03  0.45107518276E+03  0.65076320491E+03  0.88467940251E+02 0.  0.
         23    2    4    4    0    0  0.33087394931E+03 -0.22962899134E+03  0.19267376820E+03  0.45626670494E+03  0.94069554522E+02 0.  0.
          2    1    3    3  502    0 -0.83872936011E+01 -0.15500187608E+02 -0.82720783806E-01  0.17624112817E+02  0.00000000000E+00 0. -1.
         -1    1    3    3    0  502  0.84318023801E+02  0.29010450847E+02 -0.72992505692E+02  0.11523472256E+03  0.00000000000E+00 0.  1.
         11    1    5    5    0    0 -0.21288288317E+03  0.64204043963E+02  0.22696026311E+03  0.31772982586E+03  0.00000000000E+00 0. -1.
        -11    1    5    5    0    0 -0.19392179635E+03  0.15191468414E+03  0.22411491965E+03  0.33303337905E+03  0.00000000000E+00 0.  1.
          1    1    6    6  503    0  0.25877689441E+03 -0.13036086512E+03  0.11962944041E+03  0.31348148151E+03  0.00000000000E+00 0. -1.
         -1    1    6    6    0  503  0.72097054901E+02 -0.99268126217E+02  0.73044327789E+02  0.14278522343E+03  0.00000000000E+00 0.  1.
<mgrwt>
<rscale>  0 0.11007523E+04</rscale>
<asrwt>0</asrwt>
<pdfrwt beam="1">  1        2 0.13927404E+00 0.11007523E+04</pdfrwt>
<pdfrwt beam="2">  1       -3 0.51478079E-01 0.11007523E+04</pdfrwt>
<totfact> 0.68683636E+01</totfact>
</mgrwt>
</event>
<event>
12    6  0.1462228E-007  0.1793197E+04  0.7818608E-02  0.8709926E-01
         -1   -1    0    0    0  501 -0.00000000000E+00  0.00000000000E+00  0.73335582603E+03  0.73335582603E+03  0.00000000000E+00 0.  1.
          4   -1    0    0  501    0  0.00000000000E+00 -0.00000000000E+00 -0.10961784972E+04  0.10961784972E+04  0.00000000000E+00 0. -1.
         24    2    1    2    0    0 -0.38792609196E+03  0.54761355555E+03 -0.15036449502E+03  0.69253357265E+03  0.81400299919E+02 0.  0.
        254    2    1    2    0    0  0.38792609196E+03 -0.54761355555E+03 -0.21245817615E+03  0.11370007506E+04  0.89289695440E+03 0.  0.
         23    2    4    4    0    0  0.33516156954E+03 -0.22532989467E+03  0.30817873666E+03  0.51571696359E+03  0.88786337199E+02 0.  0.
         23    2    4    4    0    0  0.52764522419E+02 -0.32228366088E+03 -0.52063691281E+03  0.62128378700E+03  0.90993934479E+02 0.  0.
          2    1    3    3  502    0 -0.42301550172E+02  0.39620303426E+02 -0.33984914255E+02  0.67187528512E+02  0.00000000000E+00 0. -1.
         -1    1    3    3    0  502 -0.34562454179E+03  0.50799325213E+03 -0.11637958077E+03  0.62534604413E+03  0.00000000000E+00 0.  1.
         11    1    5    5    0    0  0.89819499803E+02 -0.79152458192E+02  0.46694314462E+02  0.12850296956E+03  0.00000000000E+00 0. -1.
        -11    1    5    5    0    0  0.24534206974E+03 -0.14617743648E+03  0.26148442220E+03  0.38721399403E+03  0.00000000000E+00 0.  1.
          1    1    6    6  503    0  0.41000365700E+02 -0.44115579025E+02 -0.10408461090E+03  0.12025315183E+03  0.00000000000E+00 0. -1.
         -1    1    6    6    0  503  0.11764156720E+02 -0.27816808186E+03 -0.41655230191E+03  0.50103063517E+03  0.00000000000E+00 0.  1.
<mgrwt>
<rscale>  0 0.17931970E+04</rscale>
<asrwt>0</asrwt>
<pdfrwt beam="1">  1        4 0.16864285E+00 0.17931970E+04</pdfrwt>
<pdfrwt beam="2">  1       -1 0.11282397E+00 0.17931970E+04</pdfrwt>
<totfact> 0.60385513E-01</totfact>
</mgrwt>
</event>
<event>
12    6  0.1462228E-007  0.1139008E+04  0.7818608E-02  0.9167984E-01
          2   -1    0    0  501    0  0.00000000000E+00  0.00000000000E+00  0.77904897742E+03  0.77904897742E+03  0.00000000000E+00 0. -1.
         -1   -1    0    0    0  501 -0.00000000000E+00 -0.00000000000E+00 -0.41632177211E+03  0.41632177211E+03  0.00000000000E+00 0.  1.
         24    2    1    2    0    0  0.13125362212E+03  0.10419156314E+03  0.16569969617E+03  0.25932843359E+03  0.10821946224E+03 0.  0.
        254    2    1    2    0    0 -0.13125362212E+03 -0.10419156314E+03  0.19702750914E+03  0.93604231594E+03  0.89959545504E+03 0.  0.
         23    2    4    4    0    0 -0.50699550465E+03 -0.11053096053E+03  0.89218033235E+02  0.53428945910E+03  0.90795559830E+02 0.  0.
         23    2    4    4    0    0  0.37574188253E+03  0.63393973869E+01  0.10780947591E+03  0.40175285684E+03  0.92522022433E+02 0.  0.
          2    1    3    3  502    0  0.56729107714E+02  0.37739535899E+02  0.14080331785E+03  0.15642262799E+03  0.00000000000E+00 0. -1.
         -1    1    3    3    0  502  0.74524514403E+02  0.66452027239E+02  0.24896378329E+02  0.10290580559E+03  0.00000000000E+00 0.  1.
         11    1    5    5    0    0 -0.10113858779E+03 -0.57124793903E+01 -0.14870226736E+02  0.10238539937E+03  0.00000000000E+00 0.  1.
        -11    1    5    5    0    0 -0.40585691686E+03 -0.10481848114E+03  0.10408825997E+03  0.43190405973E+03  0.00000000000E+00 0. -1.
          1    1    6    6  503    0  0.25554744493E+03  0.44475852267E+02  0.55649372614E+02  0.26529125639E+03  0.00000000000E+00 0. -1.
         -1    1    6    6    0  503  0.12019443760E+03 -0.38136454880E+02  0.52160103294E+02  0.13646160045E+03  0.00000000000E+00 0.  1.
<mgrwt>
<rscale>  0 0.11390084E+04</rscale>
<asrwt>0</asrwt>
<pdfrwt beam="1">  1        2 0.11985369E+00 0.11390084E+04</pdfrwt>
<pdfrwt beam="2">  1       -1 0.64049503E-01 0.11390084E+04</pdfrwt>
<totfact> 0.99765208E+01</totfact>
</mgrwt>
</event>
<event>
12    6  0.1462228E-007  0.1369158E+04  0.7818608E-02  0.8976451E-01
         -3   -1    0    0    0  501 -0.00000000000E+00  0.00000000000E+00  0.40819494891E+03  0.40819494891E+03  0.00000000000E+00 0.  1.
          2   -1    0    0  501    0  0.00000000000E+00 -0.00000000000E+00 -0.11480989717E+04  0.11480989717E+04  0.00000000000E+00 0. -1.
         24    2    1    2    0    0  0.31690774188E+03  0.14022888076E+03  0.40116240908E+02  0.35866221859E+03  0.83274356186E+02 0.  0.
        254    2    1    2    0    0 -0.31690774188E+03 -0.14022888076E+03 -0.78002026373E+03  0.11976317021E+04  0.84011631699E+03 0.  0.
         23    2    4    4    0    0 -0.33575286934E+03 -0.11289389063E+03  0.43886530326E+02  0.36814838663E+03  0.90178640619E+02 0.  0.
         23    2    4    4    0    0  0.18845127464E+02 -0.27334990132E+02 -0.82390679405E+03  0.82948331542E+03  0.90098972008E+02 0.  0.
          2    1    3    3  502    0  0.15863072188E+03  0.37560865718E+02 -0.10426031880E+02  0.16335001285E+03  0.00000000000E+00 0. -1.
         -3    1    3    3    0  502  0.15827702000E+03  0.10266801504E+03  0.50542272788E+02  0.19531220574E+03  0.00000000000E+00 0.  1.
         11    1    5    5    0    0 -0.33549893532E+03 -0.97323261125E+02  0.37573558258E+02  0.35134473816E+03  0.00000000000E+00 0.  1.
        -11    1    5    5    0    0 -0.25393402691E+00 -0.15570629504E+02  0.63129720676E+01  0.16803648472E+02  0.00000000000E+00 0. -1.
          2    1    6    6  503    0 -0.25070934567E+02 -0.20771210734E+02 -0.12510021122E+03  0.12926738879E+03  0.00000000000E+00 0. -1.
         -2    1    6    6    0  503  0.43916062031E+02 -0.65637793981E+01 -0.69880658283E+03  0.70021592663E+03  0.00000000000E+00 0.  1.
<mgrwt>
<rscale>  0 0.13691577E+04</rscale>
<asrwt>0</asrwt>
<pdfrwt beam="1">  1        2 0.17663061E+00 0.13691577E+04</pdfrwt>
<pdfrwt beam="2">  1       -3 0.62799224E-01 0.13691577E+04</pdfrwt>
<totfact> 0.31187871E+01</totfact>
</mgrwt>
</event>
<event>
12    6  0.1462228E-007  0.2006543E+04  0.7818608E-02  0.8603568E-01
          2   -1    0    0  501    0  0.00000000000E+00  0.00000000000E+00  0.20640883295E+04  0.20640883295E+04  0.00000000000E+00 0. -1.
         -1   -1    0    0    0  501 -0.00000000000E+00 -0.00000000000E+00 -0.48765039843E+03  0.48765039843E+03  0.00000000000E+00 0.  1.
         24    2    1    2    0    0 -0.23956258166E+03  0.20980912262E+03  0.15661595537E+04  0.16002033733E+04  0.79906131768E+02 0.  0.
        254    2    1    2    0    0  0.23956258166E+03 -0.20980912262E+03  0.10278377329E+02  0.95153535456E+03  0.89660681877E+03 0.  0.
         23    2    4    4    0    0 -0.99080875701E+02 -0.48412120155E+03  0.51321774672E+02  0.50510296377E+03  0.91130246018E+02 0.  0.
         23    2    4    4    0    0  0.33864345737E+03  0.27431207893E+03 -0.41043397343E+02  0.44643239079E+03  0.87697270304E+02 0.  0.
          2    1    3    3  502    0 -0.22949867952E+03  0.18318323281E+03  0.13122252367E+04  0.13446787023E+04  0.00000000000E+00 0. -1.
         -1    1    3    3    0  502 -0.10063902144E+02  0.26625889807E+02  0.25393431703E+03  0.25552467102E+03  0.00000000000E+00 0.  1.
         11    1    5    5    0    0 -0.88943221016E+02 -0.48312690623E+03  0.54905411143E+02  0.49430467150E+03  0.00000000000E+00 0. -1.
        -11    1    5    5    0    0 -0.10137654685E+02 -0.99429531287E+00 -0.35836364709E+01  0.10798292274E+02  0.00000000000E+00 0.  1.
          1    1    6    6  503    0  0.16787154853E+02  0.22086918873E+01 -0.17441458559E+02  0.24308257128E+02  0.00000000000E+00 0. -1.
         -1    1    6    6    0  503  0.32185630251E+03  0.27210338704E+03 -0.23601938784E+02  0.42212413366E+03  0.00000000000E+00 0.  1.
<mgrwt>
<rscale>  0 0.20065428E+04</rscale>
<asrwt>0</asrwt>
<pdfrwt beam="1">  1        2 0.31755205E+00 0.20065428E+04</pdfrwt>
<pdfrwt beam="2">  1       -1 0.75023139E-01 0.20065428E+04</pdfrwt>
<totfact> 0.11623363E+01</totfact>
</mgrwt>
</event>
<event>
12    6  0.1462228E-007  0.1536507E+04  0.7818608E-02  0.8860533E-01
          2   -1    0    0  501    0  0.00000000000E+00  0.00000000000E+00  0.26026525900E+04  0.26026525900E+04  0.00000000000E+00 0. -1.
         -1   -1    0    0    0  501 -0.00000000000E+00 -0.00000000000E+00 -0.22677368938E+03  0.22677368938E+03  0.00000000000E+00 0.  1.
         24    2    1    2    0    0  0.39609578158E+03  0.14693492261E+03  0.28272153748E+03  0.51440258723E+03  0.78719847087E+02 0.  0.
        254    2    1    2    0    0 -0.39609578158E+03 -0.14693492261E+03  0.20931573631E+04  0.23150236921E+04  0.89417291878E+03 0.  0.
         23    2    4    4    0    0  0.16831295517E+03  0.74337391901E+02  0.97801983276E+02  0.22761413554E+03  0.91584212886E+02 0.  0.
         23    2    4    4    0    0 -0.56440873676E+03 -0.22127231451E+03  0.19953553798E+04  0.20874095566E+04  0.91197071180E+02 0.  0.
          4    1    3    3  502    0  0.64871901438E+01 -0.46721174565E+01  0.17673436175E+02  0.19397491171E+02  0.00000000000E+00 0. -1.
         -3    1    3    3    0  502  0.38960859144E+03  0.15160704007E+03  0.26504810130E+03  0.49500509606E+03  0.00000000000E+00 0.  1.
         11    1    5    5    0    0  0.15874586701E+02 -0.92586089868E+01 -0.12036527230E+02  0.21968211831E+02  0.00000000000E+00 0.  1.
        -11    1    5    5    0    0  0.15243836847E+03  0.83596000888E+02  0.10983851051E+03  0.20564592371E+03  0.00000000000E+00 0. -1.
          3    1    6    6  503    0 -0.35209688067E+03 -0.17011842620E+03  0.11682190679E+04  0.12319286842E+04  0.00000000000E+00 0. -1.
         -3    1    6    6    0  503 -0.21231185608E+03 -0.51153888317E+02  0.82713631193E+03  0.85548087239E+03  0.00000000000E+00 0.  1.
<mgrwt>
<rscale>  0 0.15365066E+04</rscale>
<asrwt>0</asrwt>
<pdfrwt beam="1">  1        2 0.40040807E+00 0.15365066E+04</pdfrwt>
<pdfrwt beam="2">  1       -1 0.34888262E-01 0.15365066E+04</pdfrwt>
<totfact> 0.26052333E+01</totfact>
</mgrwt>
</event>
<event>
12    6  0.1462228E-007  0.1081210E+04  0.7818608E-02  0.9223702E-01
          2   -1    0    0  501    0  0.00000000000E+00  0.00000000000E+00  0.10264864893E+04  0.10264864893E+04  0.00000000000E+00 0. -1.
         -3   -1    0    0    0  501 -0.00000000000E+00 -0.00000000000E+00 -0.28471289125E+03  0.28471289125E+03  0.00000000000E+00 0.  1.
         24    2    1    2    0    0 -0.31407358853E+02  0.14506637559E+03  0.87857583721E+02  0.19001197200E+03  0.79717745638E+02 0.  0.
        254    2    1    2    0    0  0.31407358853E+02 -0.14506637559E+03  0.65391601431E+03  0.11211874085E+04  0.89856795833E+03 0.  0.
         23    2    4    4    0    0  0.57107231986E+02  0.24139728790E+03 -0.88624901418E+02  0.27862510660E+03  0.90794770375E+02 0.  0.
         23    2    4    4    0    0 -0.25699873133E+02 -0.38646366349E+03  0.74254091572E+03  0.84256230192E+03  0.92355695056E+02 0.  0.
          2    1    3    3  502    0 -0.23598159962E+02  0.23887151918E+01  0.32223876452E+01  0.23936643373E+02  0.00000000000E+00 0. -1.
         -1    1    3    3    0  502 -0.78091988910E+01  0.14267766040E+03  0.84635196076E+02  0.16607532863E+03  0.00000000000E+00 0.  1.
         11    1    5    5    0    0  0.55393680169E+02  0.24727654447E+03 -0.75939898572E+02  0.26453925502E+03  0.00000000000E+00 0.  1.
        -11    1    5    5    0    0  0.17135518171E+01 -0.58792565740E+01 -0.12685002847E+02  0.14085851587E+02  0.00000000000E+00 0. -1.
          1    1    6    6  503    0 -0.27743289510E+02 -0.27526400653E+02  0.66223413868E+02  0.76895600589E+02  0.00000000000E+00 0. -1.
         -1    1    6    6    0  503  0.20434163766E+01 -0.35893726284E+03  0.67631750186E+03  0.76566670133E+03  0.00000000000E+00 0.  1.
<mgrwt>
<rscale>  0 0.10812103E+04</rscale>
<asrwt>0</asrwt>
<pdfrwt beam="1">  1        2 0.15792100E+00 0.10812103E+04</pdfrwt>
<pdfrwt beam="2">  1       -3 0.43801984E-01 0.10812103E+04</pdfrwt>
<totfact> 0.79716274E+01</totfact>
</mgrwt>
</event>
<event>
12    6  0.1462228E-007  0.1505658E+04  0.7818608E-02  0.8880699E-01
         -1   -1    0    0    0  501 -0.00000000000E+00  0.00000000000E+00  0.32280866380E+03  0.32280866380E+03  0.00000000000E+00 0.  1.
          2   -1    0    0  501    0  0.00000000000E+00 -0.00000000000E+00 -0.17556892518E+04  0.17556892518E+04  0.00000000000E+00 0. -1.
         24    2    1    2    0    0 -0.42498867538E+01  0.44888503429E+03 -0.45862769194E+03  0.64893863327E+03  0.96260866366E+02 0.  0.
        254    2    1    2    0    0  0.42498867538E+01 -0.44888503429E+03 -0.97425289608E+03  0.14295592823E+04  0.94496306842E+03 0.  0.
         23    2    4    4    0    0 -0.20858889661E+03  0.23050165836E+03 -0.24072959408E+03  0.40341251125E+03  0.90280532073E+02 0.  0.
         23    2    4    4    0    0  0.21283878337E+03 -0.67938669265E+03 -0.73352330200E+03  0.10261467711E+04  0.89744835039E+02 0.  0.
          2    1    3    3  502    0 -0.59899706374E+01  0.42625643281E+03 -0.39417509427E+03  0.58060695070E+03  0.00000000000E+00 0. -1.
         -1    1    3    3    0  502  0.17400838835E+01  0.22628601484E+02 -0.64452597670E+02  0.68331682574E+02  0.00000000000E+00 0.  1.
         11    1    5    5    0    0 -0.65833480266E+02  0.18965876078E+02 -0.51805657256E+02  0.85892826843E+02  0.00000000000E+00 0.  1.
        -11    1    5    5    0    0 -0.14275541635E+03  0.21153578228E+03 -0.18892393683E+03  0.31751968441E+03  0.00000000000E+00 0. -1.
          2    1    6    6  503    0  0.20844622789E+03 -0.67924323397E+03 -0.73420012177E+03  0.10217000634E+04  0.00000000000E+00 0. -1.
         -2    1    6    6    0  503  0.43925554782E+01 -0.14345867759E+00  0.67681977845E+00  0.44467076623E+01  0.00000000000E+00 0.  1.
<mgrwt>
<rscale>  0 0.15056583E+04</rscale>
<asrwt>0</asrwt>
<pdfrwt beam="1">  1        2 0.27010604E+00 0.15056583E+04</pdfrwt>
<pdfrwt beam="2">  1       -1 0.49662871E-01 0.15056583E+04</pdfrwt>
<totfact> 0.40850815E+01</totfact>
</mgrwt>
</event>
<event>
12    6  0.1462228E-007  0.2692132E+04  0.7818608E-02  0.8337563E-01
         -1   -1    0    0    0  501 -0.00000000000E+00  0.00000000000E+00  0.82343382502E+03  0.82343382502E+03  0.00000000000E+00 0.  1.
          2   -1    0    0  501    0  0.00000000000E+00 -0.00000000000E+00 -0.22004112032E+04  0.22004112032E+04  0.00000000000E+00 0. -1.
         24    2    1    2    0    0 -0.17991834941E+03  0.23884502182E+03  0.68457967135E+03  0.75317778435E+03  0.95968179727E+02 0.  0.
        254    2    1    2    0    0  0.17991834941E+03 -0.23884502182E+03 -0.20615570495E+04  0.22706672439E+04  0.90360096670E+03 0.  0.
         23    2    4    4    0    0 -0.19739606021E+03  0.14967710024E+03 -0.19872259895E+03  0.32852457276E+03  0.84079038126E+02 0.  0.
         23    2    4    4    0    0  0.37731440961E+03 -0.38852212206E+03 -0.18628344506E+04  0.19421426711E+04  0.91925848609E+02 0.  0.
          4    1    3    3  502    0 -0.85063718040E+02  0.48498089723E+02  0.16670060229E+03  0.19333130020E+03  0.00000000000E+00 0. -1.
         -3    1    3    3    0  502 -0.94854631366E+02  0.19034693209E+03  0.51787906905E+03  0.55984648415E+03  0.00000000000E+00 0.  1.
         11    1    5    5    0    0  0.53843789043E+01  0.24670620162E+01 -0.19680936522E+02  0.20552790408E+02  0.00000000000E+00 0. -1.
        -11    1    5    5    0    0 -0.20278043911E+03  0.14721003823E+03 -0.17904166243E+03  0.30797178235E+03  0.00000000000E+00 0.  1.
          4    1    6    6  503    0  0.24356551401E+03 -0.19994044219E+03 -0.11733594819E+04  0.12149373703E+04  0.00000000000E+00 0.  1.
         -4    1    6    6    0  503  0.13374889560E+03 -0.18858167987E+03 -0.68947496869E+03  0.72720530079E+03  0.00000000000E+00 0. -1.
<mgrwt>
<rscale>  0 0.26921315E+04</rscale>
<asrwt>0</asrwt>
<pdfrwt beam="1">  1        2 0.33852479E+00 0.26921315E+04</pdfrwt>
<pdfrwt beam="2">  1       -1 0.12668213E+00 0.26921315E+04</pdfrwt>
<totfact> 0.27887047E+00</totfact>
</mgrwt>
</event>
<event>
12    6  0.1462228E-007  0.1402194E+04  0.7818608E-02  0.8952232E-01
          2   -1    0    0  501    0  0.00000000000E+00  0.00000000000E+00  0.70007993123E+03  0.70007993123E+03  0.00000000000E+00 0. -1.
         -1   -1    0    0    0  501 -0.00000000000E+00 -0.00000000000E+00 -0.70211594549E+03  0.70211594549E+03  0.00000000000E+00 0.  1.
         24    2    1    2    0    0  0.26766758863E+03  0.20980704739E+03  0.22442086257E+03  0.41686569620E+03  0.88019031909E+02 0.  0.
        254    2    1    2    0    0 -0.26766758863E+03 -0.20980704739E+03 -0.22645687683E+03  0.98533018052E+03  0.89662027216E+03 0.  0.
         23    2    4    4    0    0  0.14162396040E+03  0.26546477333E+03 -0.10425989093E+02  0.31459056839E+03  0.91266819989E+02 0.  0.
         23    2    4    4    0    0 -0.40929154903E+03 -0.47527182071E+03 -0.21603088774E+03  0.67073961214E+03  0.99092921852E+02 0.  0.
          4    1    3    3  502    0  0.55867610165E+02  0.62033189697E+02  0.99802661821E+02  0.13011486386E+03  0.00000000000E+00 0. -1.
         -3    1    3    3    0  502  0.21179997846E+03  0.14777385769E+03  0.12461820075E+03  0.28675083234E+03  0.00000000000E+00 0.  1.
         11    1    5    5    0    0  0.13146358284E+03  0.15398250520E+03 -0.76011249238E+01  0.20261061824E+03  0.00000000000E+00 0. -1.
        -11    1    5    5    0    0  0.10160377565E+02  0.11148226812E+03 -0.28248641688E+01  0.11197995015E+03  0.00000000000E+00 0.  1.
          2    1    6    6  503    0 -0.35133238114E+03 -0.45018673475E+03 -0.20433610463E+03  0.60651115558E+03  0.00000000000E+00 0.  1.
         -2    1    6    6    0  503 -0.57959167889E+02 -0.25085085963E+02 -0.11694783107E+02  0.64228456559E+02  0.00000000000E+00 0. -1.
<mgrwt>
<rscale>  0 0.14021944E+04</rscale>
<asrwt>0</asrwt>
<pdfrwt beam="1">  1        2 0.10770461E+00 0.14021944E+04</pdfrwt>
<pdfrwt beam="2">  1       -1 0.10801784E+00 0.14021944E+04</pdfrwt>
<totfact> 0.36292869E+01</totfact>
</mgrwt>
</event>
<event>
12    6  0.1462228E-007  0.1394287E+04  0.7818608E-02  0.8957964E-01
         -1   -1    0    0    0  501 -0.00000000000E+00  0.00000000000E+00  0.12060315064E+03  0.12060315064E+03  0.00000000000E+00 0.  1.
          2   -1    0    0  501    0  0.00000000000E+00 -0.00000000000E+00 -0.40298198022E+04  0.40298198022E+04  0.00000000000E+00 0. -1.
         24    2    1    2    0    0  0.27052260316E+03 -0.20244845615E+03 -0.49849395215E+03  0.60660549654E+03  0.72843337954E+02 0.  0.
        254    2    1    2    0    0 -0.27052260316E+03  0.20244845615E+03 -0.34107226994E+04  0.35438174563E+04  0.90080240627E+03 0.  0.
         23    2    4    4    0    0  0.10359630635E+03 -0.28557948296E+03 -0.15387660521E+04  0.15712544660E+04  0.93551045947E+02 0.  0.
         23    2    4    4    0    0 -0.37411890951E+03  0.48802793910E+03 -0.18719566473E+04  0.19725629903E+04  0.92988350581E+02 0.  0.
          4    1    3    3  502    0  0.60154769268E+01 -0.18434133721E+02 -0.11139609203E+02  0.22362784753E+02  0.00000000000E+00 0. -1.
         -3    1    3    3    0  502  0.26450712623E+03 -0.18401432242E+03 -0.48735434295E+03  0.58424271178E+03  0.00000000000E+00 0.  1.
         11    1    5    5    0    0  0.90572678754E+02 -0.23670639036E+03 -0.14155822507E+04  0.14380912467E+04  0.00000000000E+00 0. -1.
        -11    1    5    5    0    0  0.13023627599E+02 -0.48873092597E+02 -0.12318380139E+03  0.13316321933E+03  0.00000000000E+00 0.  1.
          3    1    6    6  503    0 -0.35603252738E+03  0.46875372950E+03 -0.17103219569E+04  0.18087814727E+04  0.00000000000E+00 0. -1.
         -3    1    6    6    0  503 -0.18086382129E+02  0.19274209603E+02 -0.16163469038E+03  0.16378151761E+03  0.00000000000E+00 0.  1.
<mgrwt>
<rscale>  0 0.13942869E+04</rscale>
<asrwt>0</asrwt>
<pdfrwt beam="1">  1        2 0.61997222E+00 0.13942869E+04</pdfrwt>
<pdfrwt beam="2">  1       -1 0.18554333E-01 0.13942869E+04</pdfrwt>
<totfact> 0.85642984E+00</totfact>
</mgrwt>
</event>
<event>
12    6  0.1462228E-007  0.2280462E+04  0.7818608E-02  0.8485665E-01
         -1   -1    0    0    0  501 -0.00000000000E+00  0.00000000000E+00  0.54032371286E+03  0.54032371286E+03  0.00000000000E+00 0.  1.
          2   -1    0    0  501    0  0.00000000000E+00 -0.00000000000E+00 -0.24061988884E+04  0.24061988884E+04  0.00000000000E+00 0. -1.
         24    2    1    2    0    0  0.46598284393E+03 -0.37130340911E+03  0.18720467191E+03  0.62988006834E+03  0.81835681985E+02 0.  0.
        254    2    1    2    0    0 -0.46598284393E+03  0.37130340911E+03 -0.20530798475E+04  0.23166425330E+04  0.89257466516E+03 0.  0.
         23    2    4    4    0    0  0.34566022022E+02 -0.84630327135E+02 -0.12743325789E+04  0.12808764362E+04  0.91453928962E+02 0.  0.
         23    2    4    4    0    0 -0.50054886596E+03  0.45593373625E+03 -0.77874726863E+03  0.10357660968E+04  0.89103084877E+02 0.  0.
          4    1    3    3  502    0  0.28766749134E+03 -0.17742379658E+03  0.10801223586E+03  0.35482169080E+03  0.00000000000E+00 0. -1.
         -3    1    3    3    0  502  0.17831535260E+03 -0.19387961253E+03  0.79192436050E+02  0.27505837754E+03  0.00000000000E+00 0.  1.
         11    1    5    5    0    0  0.24286068306E+02 -0.88375059762E+02 -0.12572784350E+04  0.12606145436E+04  0.00000000000E+00 0. -1.
        -11    1    5    5    0    0  0.10279953716E+02  0.37447326273E+01 -0.17054143854E+02  0.20261892643E+02  0.00000000000E+00 0.  1.
          3    1    6    6  503    0 -0.50429649612E+03  0.45181470223E+03 -0.77465973378E+03  0.10288581945E+04  0.00000000000E+00 0. -1.
         -3    1    6    6    0  503  0.37476301665E+01  0.41190340136E+01 -0.40875348483E+01  0.69079023014E+01  0.00000000000E+00 0.  1.
<mgrwt>
<rscale>  0 0.22804616E+04</rscale>
<asrwt>0</asrwt>
<pdfrwt beam="1">  1        2 0.37018445E+00 0.22804616E+04</pdfrwt>
<pdfrwt beam="2">  1       -1 0.83126724E-01 0.22804616E+04</pdfrwt>
<totfact> 0.58530515E+00</totfact>
</mgrwt>
</event>
<event>
12    6  0.1538332E-007  0.2111942E+04  0.7818608E-02  0.8556001E-01
          2   -1    0    0  501    0  0.00000000000E+00  0.00000000000E+00  0.14104947712E+04  0.14104947712E+04  0.00000000000E+00 0. -1.
         -1   -1    0    0    0  501 -0.00000000000E+00 -0.00000000000E+00 -0.79055603063E+03  0.79055603063E+03  0.00000000000E+00 0.  1.
         24    2    1    2    0    0  0.40617995953E+03 -0.22106435758E+03  0.98242920151E+03  0.10887011751E+04  0.79066446962E+02 0.  0.
        254    2    1    2    0    0 -0.40617995953E+03  0.22106435758E+03 -0.36249046093E+03  0.11123496267E+04  0.94449496985E+03 0.  0.
         23    2    4    4    0    0  0.15158019339E+02  0.80694225955E+00 -0.57581125018E+03  0.58279760828E+03  0.88679420803E+02 0.  0.
         23    2    4    4    0    0 -0.42133797887E+03  0.22025741532E+03  0.21332078925E+03  0.52955201844E+03  0.94236721395E+02 0.  0.
          2    1    3    3  502    0  0.32368971029E+03 -0.20001854803E+03  0.84983821073E+03  0.93113233889E+03  0.00000000000E+00 0. -1.
         -1    1    3    3    0  502  0.82490249241E+02 -0.21045809552E+02  0.13259099078E+03  0.15756883624E+03  0.00000000000E+00 0.  1.
         11    1    5    5    0    0 -0.33286044747E+02  0.87423531875E+01 -0.13730995454E+03  0.14155710201E+03  0.00000000000E+00 0. -1.
        -11    1    5    5    0    0  0.48444064086E+02 -0.79354109279E+01 -0.43850129564E+03  0.44124050627E+03  0.00000000000E+00 0.  1.
          2    1    6    6  503    0 -0.10428002376E+03  0.26201908141E+02  0.16025502706E+02  0.10870915363E+03  0.00000000000E+00 0. -1.
         -2    1    6    6    0  503 -0.31705795511E+03  0.19405550718E+03  0.19729528655E+03  0.42084286481E+03  0.00000000000E+00 0.  1.
<mgrwt>
<rscale>  0 0.21119424E+04</rscale>
<asrwt>0</asrwt>
<pdfrwt beam="1">  1        2 0.21699920E+00 0.21119424E+04</pdfrwt>
<pdfrwt beam="2">  1       -1 0.12162400E+00 0.21119424E+04</pdfrwt>
<totfact> 0.89681140E+00</totfact>
</mgrwt>
</event>
<event>
12    6  0.1462228E-007  0.2240333E+04  0.7818608E-02  0.8501826E-01
          2   -1    0    0  501    0  0.00000000000E+00  0.00000000000E+00  0.32515199907E+04  0.32515199907E+04  0.00000000000E+00 0. -1.
         -1   -1    0    0    0  501 -0.00000000000E+00 -0.00000000000E+00 -0.38590353211E+03  0.38590353211E+03  0.00000000000E+00 0.  1.
         24    2    1    2    0    0  0.35382839398E+03 -0.34350500684E+03  0.24949713497E+04  0.25445163351E+04  0.80567498218E+02 0.  0.
        254    2    1    2    0    0 -0.35382839398E+03  0.34350500684E+03  0.37064510891E+03  0.10929071877E+04  0.90215192848E+03 0.  0.
         23    2    4    4    0    0  0.28033003026E+02  0.55474041748E+03  0.10081122914E+03  0.57176827297E+03  0.90737390371E+02 0.  0.
         23    2    4    4    0    0 -0.38186139701E+03 -0.21123541065E+03  0.26983387977E+03  0.52113891473E+03  0.91306738736E+02 0.  0.
          4    1    3    3  502    0  0.12959635120E+03 -0.13888565486E+03  0.77340563999E+03  0.79639231748E+03  0.00000000000E+00 0. -1.
         -3    1    3    3    0  502  0.22423204278E+03 -0.20461935198E+03  0.17215657097E+04  0.17481240177E+04  0.00000000000E+00 0.  1.
         11    1    5    5    0    0 -0.24188952057E+02  0.35022855016E+03  0.49380996163E+02  0.35451886484E+03  0.00000000000E+00 0.  1.
        -11    1    5    5    0    0  0.52221955083E+02  0.20451186733E+03  0.51430232975E+02  0.21724940813E+03  0.00000000000E+00 0. -1.
          1    1    6    6  503    0 -0.20181643352E+03 -0.64819605181E+02  0.10544331512E+03  0.23674827720E+03  0.00000000000E+00 0. -1.
         -1    1    6    6    0  503 -0.18004496348E+03 -0.14641580547E+03  0.16439056465E+03  0.28439063753E+03  0.00000000000E+00 0.  1.
<mgrwt>
<rscale>  0 0.22403331E+04</rscale>
<asrwt>0</asrwt>
<pdfrwt beam="1">  1        2 0.50023383E+00 0.22403331E+04</pdfrwt>
<pdfrwt beam="2">  1       -1 0.59369776E-01 0.22403331E+04</pdfrwt>
<totfact> 0.35830818E+00</totfact>
</mgrwt>
</event>
<event>
12    6  0.1462228E-007  0.2014903E+04  0.7818608E-02  0.8599684E-01
          2   -1    0    0  501    0  0.00000000000E+00  0.00000000000E+00  0.11383467043E+04  0.11383467043E+04  0.00000000000E+00 0. -1.
         -1   -1    0    0    0  501 -0.00000000000E+00 -0.00000000000E+00 -0.89160777211E+03  0.89160777211E+03  0.00000000000E+00 0.  1.
         24    2    1    2    0    0 -0.53137632398E+03  0.12716914949E+03 -0.49657040987E+03  0.74257554763E+03  0.79394469044E+02 0.  0.
        254    2    1    2    0    0  0.53137632398E+03 -0.12716914949E+03  0.74330934210E+03  0.12873789288E+04  0.89794372768E+03 0.  0.
         23    2    4    4    0    0  0.66486116195E+03 -0.35794929840E+03  0.62045671179E+03  0.98099281585E+03  0.84925312215E+02 0.  0.
         23    2    4    4    0    0 -0.13348483797E+03  0.23078014891E+03  0.12285263031E+03  0.30638611298E+03  0.87761052601E+02 0.  0.
          4    1    3    3  502    0 -0.48010755605E+02 -0.78357044194E+01 -0.28893527128E+02  0.56579738665E+02  0.00000000000E+00 0. -1.
         -3    1    3    3    0  502 -0.48336556837E+03  0.13500485391E+03 -0.46767688274E+03  0.68599580896E+03  0.00000000000E+00 0.  1.
         11    1    5    5    0    0  0.32359146671E+03 -0.17496820068E+03  0.24757613319E+03  0.44341769282E+03  0.00000000000E+00 0.  1.
        -11    1    5    5    0    0  0.34126969524E+03 -0.18298109772E+03  0.37288057859E+03  0.53757512303E+03  0.00000000000E+00 0. -1.
          2    1    6    6  503    0  0.10139778828E+02  0.19325691614E+01  0.66117573481E+01  0.12258273674E+02  0.00000000000E+00 0. -1.
         -2    1    6    6    0  503 -0.14362461680E+03  0.22884757975E+03  0.11624087297E+03  0.29412783931E+03  0.00000000000E+00 0.  1.
<mgrwt>
<rscale>  0 0.20149032E+04</rscale>
<asrwt>0</asrwt>
<pdfrwt beam="1">  1        2 0.17513026E+00 0.20149032E+04</pdfrwt>
<pdfrwt beam="2">  1       -1 0.13717043E+00 0.20149032E+04</pdfrwt>
<totfact> 0.96544153E+00</totfact>
</mgrwt>
</event>
<event>
12    6  0.2040663E-007  0.1874582E+04  0.7818608E-02  0.8667613E-01
          2   -1    0    0  501    0  0.00000000000E+00  0.00000000000E+00  0.10982038904E+04  0.10982038904E+04  0.00000000000E+00 0. -1.
         -1   -1    0    0    0  501 -0.00000000000E+00 -0.00000000000E+00 -0.79995607762E+03  0.79995607762E+03  0.00000000000E+00 0.  1.
         24    2    1    2    0    0 -0.22116379281E+03 -0.32546800158E+03  0.72519035744E+03  0.82896711754E+03  0.80265709601E+02 0.  0.
        254    2    1    2    0    0  0.22116379281E+03  0.32546800158E+03 -0.42694254462E+03  0.10691928505E+04  0.89780319217E+03 0.  0.
         23    2    4    4    0    0  0.35021270643E+03 -0.20648863914E+03 -0.11377004515E+03  0.43207101313E+03  0.91952375548E+02 0.  0.
         23    2    4    4    0    0 -0.12904891362E+03  0.53195664072E+03 -0.31317249947E+03  0.63712183738E+03  0.90640672643E+02 0.  0.
          2    1    3    3  502    0 -0.18727064197E+03 -0.31426364066E+03  0.65601431356E+03  0.75112363083E+03  0.00000000000E+00 0. -1.
         -1    1    3    3    0  502 -0.33893150841E+02 -0.11204360918E+02  0.69176043875E+02  0.77843486713E+02  0.00000000000E+00 0.  1.
         11    1    5    5    0    0  0.32500856538E+03 -0.19758296664E+03 -0.12859381656E+03  0.40150462754E+03  0.00000000000E+00 0.  1.
        -11    1    5    5    0    0  0.25204141053E+02 -0.89056724982E+01  0.14823771414E+02  0.30566385586E+02  0.00000000000E+00 0. -1.
          3    1    6    6  503    0  0.33567731863E+01  0.16172450197E+02 -0.29399763364E+02  0.33721835025E+02  0.00000000000E+00 0. -1.
         -3    1    6    6    0  503 -0.13240568681E+03  0.51578419052E+03 -0.28377273611E+03  0.60340000236E+03  0.00000000000E+00 0.  1.
<mgrwt>
<rscale>  0 0.18745825E+04</rscale>
<asrwt>0</asrwt>
<pdfrwt beam="1">  1        2 0.16895445E+00 0.18745825E+04</pdfrwt>
<pdfrwt beam="2">  1       -1 0.12307016E+00 0.18745825E+04</pdfrwt>
<totfact> 0.13600489E+01</totfact>
</mgrwt>
</event>
<event>
12    6  0.1462228E-007  0.1066267E+04  0.7818608E-02  0.9238708E-01
          2   -1    0    0  501    0  0.00000000000E+00  0.00000000000E+00  0.21434354405E+04  0.21434354405E+04  0.00000000000E+00 0. -1.
         -1   -1    0    0    0  501 -0.00000000000E+00 -0.00000000000E+00 -0.13260558578E+03  0.13260558578E+03  0.00000000000E+00 0.  1.
         24    2    1    2    0    0 -0.94074796708E+02 -0.18952093692E+02  0.99047138556E+02  0.15979696619E+03  0.80718557452E+02 0.  0.
        254    2    1    2    0    0  0.94074796708E+02  0.18952093692E+02  0.19117827162E+04  0.21162440601E+04  0.90242258327E+03 0.  0.
         23    2    4    4    0    0  0.21856824242E+02  0.30035970668E+03  0.17367958556E+04  0.17650456816E+04  0.90734447609E+02 0.  0.
         23    2    4    4    0    0  0.72217972466E+02 -0.28140761299E+03  0.17498686060E+03  0.35119837850E+03  0.91182341963E+02 0.  0.
          2    1    3    3  502    0 -0.25300453491E+01  0.20958907367E+02  0.35880398361E+02  0.41630276411E+02  0.00000000000E+00 0. -1.
         -1    1    3    3    0  502 -0.91544751359E+02 -0.39911001059E+02  0.63166740194E+02  0.11816668978E+03  0.00000000000E+00 0.  1.
         11    1    5    5    0    0 -0.26806410792E+02  0.20846565018E+03  0.12009968962E+04  0.12192497921E+04  0.00000000000E+00 0. -1.
        -11    1    5    5    0    0  0.48663235034E+02  0.91894056506E+02  0.53579895942E+03  0.54579588949E+03  0.00000000000E+00 0.  1.
          4    1    6    6  503    0  0.23659330892E+02 -0.91986521083E+02  0.10955592777E+03  0.14499581135E+03  0.00000000000E+00 0. -1.
         -4    1    6    6    0  503  0.48558641574E+02 -0.18942109191E+03  0.65430932828E+02  0.20620256716E+03  0.00000000000E+00 0.  1.
<mgrwt>
<rscale>  0 0.10662673E+04</rscale>
<asrwt>0</asrwt>
<pdfrwt beam="1">  1        2 0.32975927E+00 0.10662673E+04</pdfrwt>
<pdfrwt beam="2">  1       -1 0.20400861E-01 0.10662673E+04</pdfrwt>
<totfact> 0.12509795E+02</totfact>
</mgrwt>
</event>
<event>
12    6  0.1462228E-007  0.1698694E+04  0.7818608E-02  0.8762109E-01
         -1   -1    0    0    0  501 -0.00000000000E+00  0.00000000000E+00  0.23785545270E+04  0.23785545270E+04  0.00000000000E+00 0.  1.
          2   -1    0    0  501    0  0.00000000000E+00 -0.00000000000E+00 -0.30328952375E+03  0.30328952375E+03  0.00000000000E+00 0. -1.
         24    2    1    2    0    0 -0.52270617696E+03  0.86626220690E+02  0.27090098869E+03  0.60046207948E+03  0.80259041038E+02 0.  0.
        254    2    1    2    0    0  0.52270617696E+03 -0.86626220690E+02  0.18043640146E+04  0.20813819713E+04  0.89201769254E+03 0.  0.
         23    2    4    4    0    0  0.73373041363E+02 -0.43626209631E+03  0.65224712480E+03  0.79301135834E+03  0.87934536881E+02 0.  0.
         23    2    4    4    0    0  0.44933313560E+03  0.34963587562E+03  0.11521168898E+04  0.12883706130E+04  0.91542320045E+02 0.  0.
          4    1    3    3  502    0 -0.31724421880E+03  0.12733925541E+02  0.15714079395E+03  0.35425877031E+03  0.00000000000E+00 0. -1.
         -3    1    3    3    0  502 -0.20546195817E+03  0.73892295148E+02  0.11376019474E+03  0.24620330916E+03  0.00000000000E+00 0.  1.
         11    1    5    5    0    0  0.29969352660E+02 -0.67407840461E+02  0.65798647427E+02  0.98850599683E+02  0.00000000000E+00 0. -1.
        -11    1    5    5    0    0  0.43403688703E+02 -0.36885425585E+03  0.58644847738E+03  0.69416075866E+03  0.00000000000E+00 0.  1.
          4    1    6    6  503    0  0.76554153663E+02  0.45045120001E+02  0.25855341090E+03  0.27338519998E+03  0.00000000000E+00 0. -1.
         -4    1    6    6    0  503  0.37277898194E+03  0.30459075561E+03  0.89356347887E+03  0.10149854130E+04  0.00000000000E+00 0.  1.
<mgrwt>
<rscale>  0 0.16986944E+04</rscale>
<asrwt>0</asrwt>
<pdfrwt beam="1">  1        2 0.46659928E-01 0.16986944E+04</pdfrwt>
<pdfrwt beam="2">  1       -1 0.36593145E+00 0.16986944E+04</pdfrwt>
<totfact> 0.14425175E+00</totfact>
</mgrwt>
</event>
<event>
12    6  0.1462228E-007  0.2336536E+04  0.7818608E-02  0.8463653E-01
          2   -1    0    0  501    0  0.00000000000E+00  0.00000000000E+00  0.14609601744E+04  0.14609601744E+04  0.00000000000E+00 0. -1.
         -1   -1    0    0    0  501 -0.00000000000E+00 -0.00000000000E+00 -0.93421479223E+03  0.93421479223E+03  0.00000000000E+00 0.  1.
         24    2    1    2    0    0  0.70664971743E+03 -0.27780448132E+03  0.87922085621E+03  0.11642768105E+04  0.77343549010E+02 0.  0.
        254    2    1    2    0    0 -0.70664971743E+03  0.27780448132E+03 -0.35247547407E+03  0.12308981561E+04  0.90240908560E+03 0.  0.
         23    2    4    4    0    0 -0.81805481350E+03  0.45993671710E+03 -0.32380607276E+03  0.99701483970E+03  0.91830039753E+02 0.  0.
         23    2    4    4    0    0  0.11140509608E+03 -0.18213223578E+03 -0.28669401318E+02  0.23388331636E+03  0.91083611888E+02 0.  0.
          4    1    3    3  502    0  0.52986977404E+03 -0.17191904081E+03  0.64999374717E+03  0.85604322636E+03  0.00000000000E+00 0. -1.
         -3    1    3    3    0  502  0.17677994339E+03 -0.10588544050E+03  0.22922710904E+03  0.30823358417E+03  0.00000000000E+00 0.  1.
         11    1    5    5    0    0 -0.45825321919E+02  0.52914654533E+02 -0.21667293587E+02  0.73276138031E+02  0.00000000000E+00 0. -1.
        -11    1    5    5    0    0 -0.77222949158E+03  0.40702206257E+03 -0.30213877917E+03  0.92373870167E+03  0.00000000000E+00 0.  1.
          1    1    6    6  503    0  0.39317814541E+01 -0.82751771544E+02 -0.28167957580E+02  0.87502848144E+02  0.00000000000E+00 0. -1.
         -1    1    6    6    0  503  0.10747331462E+03 -0.99380464239E+02 -0.50144373797E+00  0.14638046821E+03  0.00000000000E+00 0.  1.
<mgrwt>
<rscale>  0 0.23365364E+04</rscale>
<asrwt>0</asrwt>
<pdfrwt beam="1">  1        2 0.22476310E+00 0.23365364E+04</pdfrwt>
<pdfrwt beam="2">  1       -1 0.14372535E+00 0.23365364E+04</pdfrwt>
<totfact> 0.53802153E+00</totfact>
</mgrwt>
</event>
<event>
12    6  0.1462228E-007  0.3113922E+04  0.7818608E-02  0.8211927E-01
          2   -1    0    0  501    0  0.00000000000E+00  0.00000000000E+00  0.28377222604E+04  0.28377222604E+04  0.00000000000E+00 0. -1.
         -1   -1    0    0    0  501 -0.00000000000E+00 -0.00000000000E+00 -0.85425131121E+03  0.85425131121E+03  0.00000000000E+00 0.  1.
         24    2    1    2    0    0  0.46436184504E+03  0.13145170457E+04  0.58136279785E+03  0.15126205234E+04  0.80319103803E+02 0.  0.
        254    2    1    2    0    0 -0.46436184504E+03 -0.13145170457E+04  0.14021081513E+04  0.21793530482E+04  0.91656175673E+03 0.  0.
         23    2    4    4    0    0 -0.49584338559E+03 -0.18879099479E+03  0.47456969690E+03  0.71771008664E+03  0.91589674673E+02 0.  0.
         23    2    4    4    0    0  0.31481540553E+02 -0.11257260510E+04  0.92753845440E+03  0.14616429615E+04  0.88443956077E+02 0.  0.
          4    1    3    3  502    0  0.21167971579E+03  0.60202433752E+03  0.30953110792E+03  0.70926096172E+03  0.00000000000E+00 0. -1.
         -3    1    3    3    0  502  0.25268212925E+03  0.71249270822E+03  0.27183168992E+03  0.80335956169E+03  0.00000000000E+00 0.  1.
         11    1    5    5    0    0 -0.84583951403E+02 -0.42137565479E+02  0.43100094694E+02  0.10386355194E+03  0.00000000000E+00 0.  1.
        -11    1    5    5    0    0 -0.41125943419E+03 -0.14665342931E+03  0.43146960221E+03  0.61384653470E+03  0.00000000000E+00 0. -1.
          4    1    6    6  503    0  0.39576117342E+02 -0.95499391531E+03  0.74756483230E+03  0.12134384310E+04  0.00000000000E+00 0. -1.
         -4    1    6    6    0  503 -0.80945767885E+01 -0.17073213564E+03  0.17997362210E+03  0.24820453051E+03  0.00000000000E+00 0.  1.
<mgrwt>
<rscale>  0 0.31139223E+04</rscale>
<asrwt>0</asrwt>
<pdfrwt beam="1">  1        2 0.43657265E+00 0.31139223E+04</pdfrwt>
<pdfrwt beam="2">  1       -1 0.13142328E+00 0.31139223E+04</pdfrwt>
<totfact> 0.10421125E+00</totfact>
</mgrwt>
</event>
<event>
12    6  0.1462228E-007  0.1483284E+04  0.7818608E-02  0.8895646E-01
          2   -1    0    0  501    0  0.00000000000E+00  0.00000000000E+00  0.11727816695E+04  0.11727816695E+04  0.00000000000E+00 0. -1.
         -1   -1    0    0    0  501 -0.00000000000E+00 -0.00000000000E+00 -0.46899846788E+03  0.46899846788E+03  0.00000000000E+00 0.  1.
         24    2    1    2    0    0 -0.22576528676E+03  0.28417905958E+03  0.55036739066E+03  0.66392024100E+03  0.78473684090E+02 0.  0.
        254    2    1    2    0    0  0.22576528676E+03 -0.28417905958E+03  0.15341581094E+03  0.97785989637E+03  0.89495578845E+03 0.  0.
         23    2    4    4    0    0  0.11894470930E+03 -0.44248387969E+03  0.42731319036E+03  0.63301535588E+03  0.90399394228E+02 0.  0.
         23    2    4    4    0    0  0.10682057746E+03  0.15830482011E+03 -0.27389737941E+03  0.34484454049E+03  0.86179642707E+02 0.  0.
          2    1    3    3  502    0 -0.10504583394E+03  0.17620206747E+03  0.35642620890E+03  0.41124376981E+03  0.00000000000E+00 0. -1.
         -1    1    3    3    0  502 -0.12071945282E+03  0.10797699211E+03  0.19394118176E+03  0.25267647119E+03  0.00000000000E+00 0.  1.
         11    1    5    5    0    0  0.21505925586E+02 -0.25221761807E+03  0.22432336954E+03  0.33822655990E+03  0.00000000000E+00 0. -1.
        -11    1    5    5    0    0  0.97438783712E+02 -0.19026626161E+03  0.20298982082E+03  0.29478879598E+03  0.00000000000E+00 0.  1.
          4    1    6    6  503    0  0.11492440079E+03  0.12592548710E+03 -0.25423693234E+03  0.30610662189E+03  0.00000000000E+00 0. -1.
         -4    1    6    6    0  503 -0.81038233262E+01  0.32379333001E+02 -0.19660447068E+02  0.38737918595E+02  0.00000000000E+00 0.  1.
<mgrwt>
<rscale>  0 0.14832839E+04</rscale>
<asrwt>0</asrwt>
<pdfrwt beam="1">  1        2 0.18042795E+00 0.14832839E+04</pdfrwt>
<pdfrwt beam="2">  1       -1 0.72153611E-01 0.14832839E+04</pdfrwt>
<totfact> 0.42053248E+01</totfact>
</mgrwt>
</event>
<event>
12    6  0.1462228E-007  0.4934638E+04  0.7818608E-02  0.7838670E-01
          2   -1    0    0  501    0  0.00000000000E+00  0.00000000000E+00  0.46782544811E+04  0.46782544811E+04  0.00000000000E+00 0. -1.
         -1   -1    0    0    0  501 -0.00000000000E+00 -0.00000000000E+00 -0.13012680164E+04  0.13012680164E+04  0.00000000000E+00 0.  1.
         24    2    1    2    0    0  0.14443116878E+04 -0.81839066430E+03 -0.43915896189E+03  0.17189883299E+04  0.79124924431E+02 0.  0.
        254    2    1    2    0    0 -0.14443116878E+04  0.81839066430E+03  0.38161454266E+04  0.42605341676E+04  0.91289974527E+03 0.  0.
         23    2    4    4    0    0 -0.62701609452E+03  0.71651098509E+03  0.13171427598E+04  0.16278095218E+04  0.91441866915E+02 0.  0.
         23    2    4    4    0    0 -0.81729559329E+03  0.10187967921E+03  0.24990026668E+04  0.26327246458E+04  0.88730917884E+02 0.  0.
          4    1    3    3  502    0  0.34697172399E+03 -0.17877634005E+03 -0.13422189327E+03  0.41275401105E+03  0.00000000000E+00 0. -1.
         -3    1    3    3    0  502  0.10973399638E+04 -0.63961432425E+03 -0.30493706862E+03  0.13062343189E+04  0.00000000000E+00 0.  1.
         11    1    5    5    0    0 -0.24151888092E+03  0.24114515860E+03  0.53636814157E+03  0.63574612908E+03  0.00000000000E+00 0. -1.
        -11    1    5    5    0    0 -0.38549721361E+03  0.47536582650E+03  0.78077461823E+03  0.99206339272E+03  0.00000000000E+00 0.  1.
          4    1    6    6  503    0 -0.11700294828E+03 -0.31272693528E+01  0.28016854148E+03  0.30363445351E+03  0.00000000000E+00 0. -1.
         -4    1    6    6    0  503 -0.70029264500E+03  0.10500694856E+03  0.22188341254E+04  0.23290901923E+04  0.00000000000E+00 0.  1.
<mgrwt>
<rscale>  0 0.49346380E+04</rscale>
<asrwt>0</asrwt>
<pdfrwt beam="1">  1        2 0.71973145E+00 0.49346380E+04</pdfrwt>
<pdfrwt beam="2">  1       -1 0.20019508E+00 0.49346380E+04</pdfrwt>
<totfact> 0.99586212E-03</totfact>
</mgrwt>
</event>
<event>
12    6  0.1462228E-007  0.3563705E+04  0.7818608E-02  0.8098857E-01
         -1   -1    0    0    0  501 -0.00000000000E+00  0.00000000000E+00  0.15927785958E+04  0.15927785958E+04  0.00000000000E+00 0.  1.
          2   -1    0    0  501    0  0.00000000000E+00 -0.00000000000E+00 -0.19933704633E+04  0.19933704633E+04  0.00000000000E+00 0. -1.
         24    2    1    2    0    0 -0.14706011971E+04  0.27407706544E+03  0.54356462202E+03  0.15937762144E+04  0.82909616767E+02 0.  0.
        254    2    1    2    0    0  0.14706011971E+04 -0.27407706544E+03 -0.94415648945E+03  0.19923728447E+04  0.91669621850E+03 0.  0.
         23    2    4    4    0    0  0.77937349543E+03 -0.53606993407E+03 -0.78041420816E+03  0.12297324590E+04  0.91660050449E+02 0.  0.
         23    2    4    4    0    0  0.69122770166E+03  0.26199286863E+03 -0.16374228129E+03  0.76264038568E+03  0.91503138945E+02 0.  0.
          4    1    3    3  502    0 -0.15847820087E+03  0.31170440657E+02  0.31953888494E+02  0.16464503488E+03  0.00000000000E+00 0. -1.
         -3    1    3    3    0  502 -0.13121229962E+04  0.24290662478E+03  0.51161073352E+03  0.14291311795E+04  0.00000000000E+00 0.  1.
         11    1    5    5    0    0  0.37512306429E+03 -0.26530578659E+03 -0.32036887515E+03  0.56012560192E+03  0.00000000000E+00 0. -1.
        -11    1    5    5    0    0  0.40425043114E+03 -0.27076414748E+03 -0.46004533300E+03  0.66960685709E+03  0.00000000000E+00 0.  1.
          1    1    6    6  503    0  0.40950164542E+03  0.18731457076E+03 -0.13315859057E+03  0.46958445062E+03  0.00000000000E+00 0. -1.
         -1    1    6    6    0  503  0.28172605624E+03  0.74678297870E+02 -0.30583690715E+02  0.29305593506E+03  0.00000000000E+00 0.  1.
<mgrwt>
<rscale>  0 0.35637047E+04</rscale>
<asrwt>0</asrwt>
<pdfrwt beam="1">  1        2 0.30667238E+00 0.35637047E+04</pdfrwt>
<pdfrwt beam="2">  1       -1 0.24504286E+00 0.35637047E+04</pdfrwt>
<totfact> 0.47071958E-01</totfact>
</mgrwt>
</event>
<event>
12    6  0.1462228E-007  0.1485105E+04  0.7818608E-02  0.8894419E-01
         -1   -1    0    0    0  501 -0.00000000000E+00  0.00000000000E+00  0.11967268169E+03  0.11967268169E+03  0.00000000000E+00 0.  1.
          2   -1    0    0  501    0  0.00000000000E+00 -0.00000000000E+00 -0.46074382746E+04  0.46074382746E+04  0.00000000000E+00 0. -1.
         24    2    1    2    0    0 -0.27477106979E+03  0.32969085089E+03 -0.18736967201E+04  0.19238526652E+04  0.79211617562E+02 0.  0.
        254    2    1    2    0    0  0.27477106979E+03 -0.32969085089E+03 -0.26140688727E+04  0.28032582911E+04  0.91690009112E+03 0.  0.
         23    2    4    4    0    0  0.53537173239E+03 -0.45334591935E+03 -0.19222474235E+04  0.20482247418E+04  0.89688468272E+02 0.  0.
         23    2    4    4    0    0 -0.26060066261E+03  0.12365506846E+03 -0.69182144928E+03  0.75503354931E+03  0.90859570734E+02 0.  0.
          4    1    3    3  502    0 -0.18064777520E+03  0.23374116731E+03 -0.11222402277E+04  0.11604704566E+04  0.00000000000E+00 0. -1.
         -3    1    3    3    0  502 -0.94123294584E+02  0.95949683587E+02 -0.75145649244E+03  0.76338220859E+03  0.00000000000E+00 0.  1.
         11    1    5    5    0    0  0.47932537805E+03 -0.43447262729E+03 -0.17258325805E+04  0.18430999370E+04  0.00000000000E+00 0. -1.
        -11    1    5    5    0    0  0.56046354342E+02 -0.18873292061E+02 -0.19641484302E+03  0.20512480480E+03  0.00000000000E+00 0.  1.
          1    1    6    6  503    0 -0.22095229466E+03  0.83406400436E+02 -0.62129285061E+03  0.66466634514E+03  0.00000000000E+00 0. -1.
         -1    1    6    6    0  503 -0.39648367947E+02  0.40248668023E+02 -0.70528598674E+02  0.90367204170E+02  0.00000000000E+00 0.  1.
<mgrwt>
<rscale>  0 0.14851054E+04</rscale>
<asrwt>0</asrwt>
<pdfrwt beam="1">  1        2 0.70883654E+00 0.14851054E+04</pdfrwt>
<pdfrwt beam="2">  1       -1 0.18411185E-01 0.14851054E+04</pdfrwt>
<totfact> 0.25844110E+00</totfact>
</mgrwt>
</event>
<event>
12    6  0.1462228E-007  0.1489070E+04  0.7818608E-02  0.8891754E-01
         -1   -1    0    0    0  501 -0.00000000000E+00  0.00000000000E+00  0.16324051499E+03  0.16324051499E+03  0.00000000000E+00 0.  1.
          2   -1    0    0  501    0  0.00000000000E+00 -0.00000000000E+00 -0.33958030448E+04  0.33958030448E+04  0.00000000000E+00 0. -1.
         24    2    1    2    0    0 -0.12193171154E+03 -0.43281091913E+03 -0.70684629797E+03  0.84150847484E+03  0.79449293704E+02 0.  0.
        254    2    1    2    0    0  0.12193171154E+03  0.43281091913E+03 -0.25257162319E+04  0.27175350850E+04  0.89641609767E+03 0.  0.
         23    2    4    4    0    0 -0.11327089374E+03 -0.70603393348E+02 -0.17600633519E+04  0.17676421532E+04  0.94449164678E+02 0.  0.
         23    2    4    4    0    0  0.23520260528E+03  0.50341431248E+03 -0.76565288002E+03  0.94989293179E+03  0.85592135322E+02 0.  0.
          2    1    3    3  502    0 -0.15442427150E+00 -0.14480334695E+02 -0.48067337038E+01  0.15258067657E+02  0.00000000000E+00 0. -1.
         -1    1    3    3    0  502 -0.12177728727E+03 -0.41833058443E+03 -0.70203956427E+03  0.82625040718E+03  0.00000000000E+00 0.  1.
         11    1    5    5    0    0 -0.38071380628E+02 -0.64873404854E+02 -0.12227952574E+04  0.12251066199E+04  0.00000000000E+00 0. -1.
        -11    1    5    5    0    0 -0.75199513112E+02 -0.57299884935E+01 -0.53726809446E+03  0.54253553327E+03  0.00000000000E+00 0.  1.
          3    1    6    6  503    0  0.23945528756E+03  0.49639316280E+03 -0.73820962559E+03  0.92124831513E+03  0.00000000000E+00 0. -1.
         -3    1    6    6    0  503 -0.42526822788E+01  0.70211496723E+01 -0.27443254434E+02  0.28644616654E+02  0.00000000000E+00 0.  1.
<mgrwt>
<rscale>  0 0.14890704E+04</rscale>
<asrwt>0</asrwt>
<pdfrwt beam="1">  1        2 0.52243123E+00 0.14890704E+04</pdfrwt>
<pdfrwt beam="2">  1       -1 0.25113926E-01 0.14890704E+04</pdfrwt>
<totfact> 0.14877274E+01</totfact>
</mgrwt>
</event>
<event>
12    6  0.1462228E-007  0.1852079E+04  0.7818608E-02  0.8679085E-01
          2   -1    0    0  501    0  0.00000000000E+00  0.00000000000E+00  0.26380043491E+04  0.26380043491E+04  0.00000000000E+00 0. -1.
         -1   -1    0    0    0  501 -0.00000000000E+00 -0.00000000000E+00 -0.32507478989E+03  0.32507478989E+03  0.00000000000E+00 0.  1.
         24    2    1    2    0    0 -0.12240025840E+03  0.57207013477E+03  0.26015098753E+03  0.64550170214E+03  0.82145290823E+02 0.  0.
        254    2    1    2    0    0  0.12240025840E+03 -0.57207013477E+03  0.20527785717E+04  0.23175774368E+04  0.90278416528E+03 0.  0.
         23    2    4    4    0    0 -0.36199311989E+03 -0.37818419096E+03  0.83323880195E+03  0.98812691912E+03  0.89697302518E+02 0.  0.
         23    2    4    4    0    0  0.48439337829E+03 -0.19388594381E+03  0.12195397697E+04  0.13294505177E+04  0.89065846353E+02 0.  0.
          4    1    3    3  502    0 -0.55898171720E+02  0.21934929236E+03  0.14382508411E+03  0.26818719671E+03  0.00000000000E+00 0. -1.
         -3    1    3    3    0  502 -0.66502086682E+02  0.35272084241E+03  0.11632590342E+03  0.37731450543E+03  0.00000000000E+00 0.  1.
         11    1    5    5    0    0 -0.55593717976E+02 -0.75185074038E+02  0.21578800940E+03  0.23517636326E+03  0.00000000000E+00 0.  1.
        -11    1    5    5    0    0 -0.30639940191E+03 -0.30299911692E+03  0.61745079255E+03  0.75295055585E+03  0.00000000000E+00 0. -1.
          2    1    6    6  503    0  0.38663177747E+03 -0.11849521352E+03  0.97440216568E+03  0.10549809607E+04  0.00000000000E+00 0. -1.
         -2    1    6    6    0  503  0.97761600822E+02 -0.75390730293E+02  0.24513760405E+03  0.27446955701E+03  0.00000000000E+00 0.  1.
<mgrwt>
<rscale>  0 0.18520785E+04</rscale>
<asrwt>0</asrwt>
<pdfrwt beam="1">  1        2 0.40584681E+00 0.18520785E+04</pdfrwt>
<pdfrwt beam="2">  1       -1 0.50011508E-01 0.18520785E+04</pdfrwt>
<totfact> 0.12430673E+01</totfact>
</mgrwt>
</event>
<event>
12    6  0.1462228E-007  0.2623965E+04  0.7818608E-02  0.8360106E-01
         -1   -1    0    0    0  501 -0.00000000000E+00  0.00000000000E+00  0.40270587481E+03  0.40270587481E+03  0.00000000000E+00 0.  1.
          2   -1    0    0  501    0  0.00000000000E+00 -0.00000000000E+00 -0.42743312166E+04  0.42743312166E+04  0.00000000000E+00 0. -1.
         24    2    1    2    0    0 -0.28329753444E+03 -0.10770078835E+04 -0.22556933778E+04  0.25168372481E+04  0.78189798906E+02 0.  0.
        254    2    1    2    0    0  0.28329753444E+03  0.10770078835E+04 -0.16159319639E+04  0.21601998432E+04  0.90278667274E+03 0.  0.
         23    2    4    4    0    0 -0.12379273560E+03  0.39193368137E+03 -0.81756940423E+02  0.42883927230E+03  0.91006989740E+02 0.  0.
         23    2    4    4    0    0  0.40709027003E+03  0.68507420215E+03 -0.15341750235E+04  0.17313605709E+04  0.94166201108E+02 0.  0.
          4    1    3    3  502    0 -0.10362904180E+02 -0.46023311558E+02 -0.64818890167E+02  0.80168719039E+02  0.00000000000E+00 0. -1.
         -3    1    3    3    0  502 -0.27293463026E+03 -0.10309845720E+04 -0.21908744877E+04  0.24366685291E+04  0.00000000000E+00 0.  1.
         11    1    5    5    0    0 -0.11141126507E+03  0.32908335201E+03 -0.10124465145E+03  0.36188230407E+03  0.00000000000E+00 0.  1.
        -11    1    5    5    0    0 -0.12381470521E+02  0.62850329360E+02  0.19487711026E+02  0.66956968226E+02  0.00000000000E+00 0. -1.
          3    1    6    6  503    0  0.90849957722E+02  0.12847050923E+03 -0.38488476877E+03  0.41580605069E+03  0.00000000000E+00 0. -1.
         -3    1    6    6    0  503  0.31624031231E+03  0.55660369292E+03 -0.11492902547E+04  0.13155545202E+04  0.00000000000E+00 0.  1.
<mgrwt>
<rscale>  0 0.26239652E+04</rscale>
<asrwt>0</asrwt>
<pdfrwt beam="1">  1        2 0.65758943E+00 0.26239652E+04</pdfrwt>
<pdfrwt beam="2">  1       -1 0.61954749E-01 0.26239652E+04</pdfrwt>
<totfact> 0.53215722E-01</totfact>
</mgrwt>
</event>
<event>
12    6  0.1462228E-007  0.1569340E+04  0.7818608E-02  0.8839608E-01
         -3   -1    0    0    0  501 -0.00000000000E+00  0.00000000000E+00  0.28321266274E+03  0.28321266274E+03  0.00000000000E+00 0.  1.
          4   -1    0    0  501    0  0.00000000000E+00 -0.00000000000E+00 -0.21740094409E+04  0.21740094409E+04  0.00000000000E+00 0. -1.
         24    2    1    2    0    0  0.18065518473E+03 -0.48689841460E+02  0.12889293618E+03  0.23752244773E+03  0.69256968948E+02 0.  0.
        254    2    1    2    0    0 -0.18065518473E+03  0.48689841460E+02 -0.20196897143E+04  0.22196996559E+04  0.90161689415E+03 0.  0.
         23    2    4    4    0    0 -0.34638465982E+03 -0.16786632977E+03 -0.18374180996E+04  0.18794138188E+04  0.89048258840E+02 0.  0.
         23    2    4    4    0    0  0.16572947509E+03  0.21655617123E+03 -0.18227161472E+03  0.34028583708E+03  0.90601739325E+02 0.  0.
          4    1    3    3  502    0  0.48430842685E+02 -0.45596323553E+02  0.52872183268E+02  0.84970812684E+02  0.00000000000E+00 0. -1.
         -1    1    3    3    0  502  0.13222434204E+03 -0.30935179076E+01  0.76020752915E+02  0.15255163505E+03  0.00000000000E+00 0.  1.
         11    1    5    5    0    0 -0.19471705415E+03 -0.12659359737E+03 -0.12462322781E+04  0.12676890633E+04  0.00000000000E+00 0. -1.
        -11    1    5    5    0    0 -0.15166760567E+03 -0.41272732400E+02 -0.59118582146E+03  0.61172475555E+03  0.00000000000E+00 0.  1.
          4    1    6    6  503    0  0.68363470848E+02  0.15687730308E+03 -0.89291760354E+02  0.19302090777E+03  0.00000000000E+00 0. -1.
         -4    1    6    6    0  503  0.97366004246E+02  0.59678868153E+02 -0.92979854365E+02  0.14726492931E+03  0.00000000000E+00 0.  1.
<mgrwt>
<rscale>  0 0.15693400E+04</rscale>
<asrwt>0</asrwt>
<pdfrwt beam="1">  1        4 0.33446300E+00 0.15693400E+04</pdfrwt>
<pdfrwt beam="2">  1       -3 0.43571177E-01 0.15693400E+04</pdfrwt>
<totfact> 0.21696654E-01</totfact>
</mgrwt>
</event>
<event>
12    6  0.1462228E-007  0.2012345E+04  0.7818608E-02  0.8600871E-01
         -3   -1    0    0    0  501 -0.00000000000E+00  0.00000000000E+00  0.15453960932E+04  0.15453960932E+04  0.00000000000E+00 0.  1.
          2   -1    0    0  501    0  0.00000000000E+00 -0.00000000000E+00 -0.65509631432E+03  0.65509631432E+03  0.00000000000E+00 0. -1.
         24    2    1    2    0    0  0.28520288370E+03  0.32944405984E+03 -0.37802333176E+03  0.58302229469E+03  0.84494279803E+02 0.  0.
        254    2    1    2    0    0 -0.28520288370E+03 -0.32944405984E+03  0.12683231106E+04  0.16174701128E+04  0.90426322466E+03 0.  0.
         23    2    4    4    0    0 -0.60096453195E+03 -0.21204685819E+03  0.70530479804E+03  0.95469375152E+03  0.88673910067E+02 0.  0.
         23    2    4    4    0    0  0.31576164824E+03 -0.11739720165E+03  0.56301831260E+03  0.66277636131E+03  0.93783598425E+02 0.  0.
          2    1    3    3  502    0  0.21173075828E+03  0.28403229264E+03 -0.33021837012E+03  0.48430200209E+03  0.00000000000E+00 0. -1.
         -1    1    3    3    0  502  0.73472125425E+02  0.45411767204E+02 -0.47804961640E+02  0.98720292607E+02  0.00000000000E+00 0.  1.
         11    1    5    5    0    0 -0.11765016633E+03 -0.64751757763E+02  0.10786889992E+03  0.17224996761E+03  0.00000000000E+00 0.  1.
        -11    1    5    5    0    0 -0.48331436562E+03 -0.14729510042E+03  0.59743589812E+03  0.78244378391E+03  0.00000000000E+00 0. -1.
          2    1    6    6  503    0  0.17871893294E+03 -0.10119945457E+03  0.27327719131E+03  0.34185115165E+03  0.00000000000E+00 0. -1.
         -2    1    6    6    0  503  0.13704271530E+03 -0.16197747086E+02  0.28974112129E+03  0.32092520966E+03  0.00000000000E+00 0.  1.
<mgrwt>
<rscale>  0 0.20123452E+04</rscale>
<asrwt>0</asrwt>
<pdfrwt beam="1">  1        2 0.10078405E+00 0.20123452E+04</pdfrwt>
<pdfrwt beam="2">  1       -3 0.23775324E+00 0.20123452E+04</pdfrwt>
<totfact> 0.22310621E+00</totfact>
</mgrwt>
</event>
<event>
12    6  0.1462228E-007  0.1693591E+04  0.7818608E-02  0.8765028E-01
         -1   -1    0    0    0  501 -0.00000000000E+00  0.00000000000E+00  0.84875582182E+03  0.84875582182E+03  0.00000000000E+00 0.  1.
          2   -1    0    0  501    0  0.00000000000E+00 -0.00000000000E+00 -0.84484001800E+03  0.84484001800E+03  0.00000000000E+00 0. -1.
         24    2    1    2    0    0 -0.57617983519E+03  0.11548497218E+03  0.14238787625E+03  0.61002709744E+03  0.80862667676E+02 0.  0.
        254    2    1    2    0    0  0.57617983519E+03 -0.11548497218E+03 -0.13847207244E+03  0.10835687424E+04  0.89979260018E+03 0.  0.
         23    2    4    4    0    0  0.13581804946E+03  0.34114354782E+03 -0.21993638125E+03  0.43757518705E+03  0.90964662073E+02 0.  0.
         23    2    4    4    0    0  0.44036178574E+03 -0.45662852000E+03  0.81464308811E+02  0.64599355533E+03  0.90791697305E+02 0.  0.
          2    1    3    3  502    0 -0.50699191005E+03  0.79700001803E+02  0.14053036670E+03  0.53211058165E+03  0.00000000000E+00 0. -1.
         -1    1    3    3    0  502 -0.69187925146E+02  0.35784970377E+02  0.18575095564E+01  0.77916515789E+02  0.00000000000E+00 0.  1.
         11    1    5    5    0    0  0.16977622365E+02  0.16222165725E+03 -0.85184265444E+02  0.18401213227E+03  0.00000000000E+00 0. -1.
        -11    1    5    5    0    0  0.11884042709E+03  0.17892189057E+03 -0.13475211581E+03  0.25356305479E+03  0.00000000000E+00 0.  1.
          3    1    6    6  503    0  0.41768512996E+03 -0.40362968850E+03  0.57914732474E+02  0.58372245928E+03  0.00000000000E+00 0. -1.
         -3    1    6    6    0  503  0.22676655778E+02 -0.52998831500E+02  0.23549576336E+02  0.62271096050E+02  0.00000000000E+00 0.  1.
<mgrwt>
<rscale>  0 0.16935913E+04</rscale>
<asrwt>0</asrwt>
<pdfrwt beam="1">  1        2 0.12997539E+00 0.16935913E+04</pdfrwt>
<pdfrwt beam="2">  1       -1 0.13057782E+00 0.16935913E+04</pdfrwt>
<totfact> 0.17443385E+01</totfact>
</mgrwt>
</event>
<event>
12    6  0.1462228E-007  0.1792399E+04  0.7818608E-02  0.8710352E-01
         -1   -1    0    0    0  501 -0.00000000000E+00  0.00000000000E+00  0.45712824420E+03  0.45712824420E+03  0.00000000000E+00 0.  1.
          2   -1    0    0  501    0  0.00000000000E+00 -0.00000000000E+00 -0.17569992643E+04  0.17569992643E+04  0.00000000000E+00 0. -1.
         24    2    1    2    0    0  0.36206154120E+02 -0.64728106706E+03 -0.66243208410E+03  0.93033359813E+03  0.80129098294E+02 0.  0.
        254    2    1    2    0    0 -0.36206154120E+02  0.64728106706E+03 -0.63743893602E+03  0.12837939104E+04  0.90637450420E+03 0.  0.
         23    2    4    4    0    0 -0.43098006969E+03  0.53434619267E+03 -0.43048138599E+03  0.81521845237E+03  0.89427218017E+02 0.  0.
         23    2    4    4    0    0  0.39477391557E+03  0.11293487439E+03 -0.20695755004E+03  0.46857545803E+03  0.90170960302E+02 0.  0.
          2    1    3    3  502    0  0.22343529342E+02 -0.45088511526E+03 -0.40692810183E+03  0.60777224396E+03  0.00000000000E+00 0. -1.
         -1    1    3    3    0  502  0.13862624778E+02 -0.19639595179E+03 -0.25550398227E+03  0.32256135417E+03  0.00000000000E+00 0.  1.
         11    1    5    5    0    0 -0.42478142401E+03  0.52855579356E+03 -0.43498032829E+03  0.80561676440E+03  0.00000000000E+00 0. -1.
        -11    1    5    5    0    0 -0.61986456820E+01  0.57903991129E+01  0.44989423001E+01  0.96016879765E+01  0.00000000000E+00 0.  1.
          2    1    6    6  503    0  0.82717752190E+02 -0.22746431689E+00 -0.11909800537E+02  0.83571057288E+02  0.00000000000E+00 0. -1.
         -2    1    6    6    0  503  0.31205616338E+03  0.11316233870E+03 -0.19504774950E+03  0.38500440074E+03  0.00000000000E+00 0.  1.
<mgrwt>
<rscale>  0 0.17923995E+04</rscale>
<asrwt>0</asrwt>
<pdfrwt beam="1">  1        2 0.27030758E+00 0.17923995E+04</pdfrwt>
<pdfrwt beam="2">  1       -1 0.70327422E-01 0.17923995E+04</pdfrwt>
<totfact> 0.20044245E+01</totfact>
</mgrwt>
</event>
<event>
12    6  0.1462228E-007  0.1057834E+04  0.7818608E-02  0.9247293E-01
          2   -1    0    0  501    0  0.00000000000E+00  0.00000000000E+00  0.60573882855E+03  0.60573882855E+03  0.00000000000E+00 0. -1.
         -1   -1    0    0    0  501 -0.00000000000E+00 -0.00000000000E+00 -0.46183781390E+03  0.46183781390E+03  0.00000000000E+00 0.  1.
         24    2    1    2    0    0  0.58757842003E+02  0.37487180293E+02 -0.90730863019E+02  0.13992011921E+03  0.80546741533E+02 0.  0.
        254    2    1    2    0    0 -0.58757842003E+02 -0.37487180293E+02  0.23463187767E+03  0.92765652324E+03  0.89478306556E+03 0.  0.
         23    2    4    4    0    0 -0.11182040300E+03 -0.39019202964E+03 -0.10093875805E+03  0.42942426555E+03  0.97277666738E+02 0.  0.
         23    2    4    4    0    0  0.53062560993E+02  0.35270484935E+03  0.33557063572E+03  0.49823225769E+03  0.91713602659E+02 0.  0.
          2    1    3    3  502    0 -0.21770635609E+01  0.39497053547E+02 -0.59418098908E+02  0.71381141224E+02  0.00000000000E+00 0. -1.
         -1    1    3    3    0  502  0.60934905564E+02 -0.20098732544E+01 -0.31312764111E+02  0.68538977983E+02  0.00000000000E+00 0.  1.
         11    1    5    5    0    0 -0.28670267771E+02 -0.26292396757E+03 -0.50567797131E+02  0.26927327955E+03  0.00000000000E+00 0. -1.
        -11    1    5    5    0    0 -0.83150135226E+02 -0.12726806208E+03 -0.50370960915E+02  0.16015098600E+03  0.00000000000E+00 0.  1.
          3    1    6    6  503    0  0.53140422263E+01  0.16903154107E+03  0.10282321701E+03  0.19792047615E+03  0.00000000000E+00 0. -1.
         -3    1    6    6    0  503  0.47748518767E+02  0.18367330827E+03  0.23274741871E+03  0.30031178154E+03  0.00000000000E+00 0.  1.
<mgrwt>
<rscale>  0 0.10578338E+04</rscale>
<asrwt>0</asrwt>
<pdfrwt beam="1">  1        2 0.93190589E-01 0.10578338E+04</pdfrwt>
<pdfrwt beam="2">  1       -1 0.71051971E-01 0.10578338E+04</pdfrwt>
<totfact> 0.11160763E+02</totfact>
</mgrwt>
</event>
<event>
12    6  0.1462228E-007  0.2084814E+04  0.7818608E-02  0.8567963E-01
          2   -1    0    0  501    0  0.00000000000E+00  0.00000000000E+00  0.28596454890E+04  0.28596454890E+04  0.00000000000E+00 0. -1.
         -1   -1    0    0    0  501 -0.00000000000E+00 -0.00000000000E+00 -0.37998142379E+03  0.37998142379E+03  0.00000000000E+00 0.  1.
         24    2    1    2    0    0  0.41272154264E+01  0.75129869912E+03  0.16126639217E+04  0.17808653826E+04  0.79560148708E+02 0.  0.
        254    2    1    2    0    0 -0.41272154264E+01 -0.75129869912E+03  0.86700014350E+03  0.14587615302E+04  0.90101564024E+03 0.  0.
         23    2    4    4    0    0 -0.14958362636E+03 -0.77515513078E+03  0.27386121026E+03  0.84065367563E+03  0.91966851667E+02 0.  0.
         23    2    4    4    0    0  0.14545641094E+03  0.23856431660E+02  0.59313893324E+03  0.61810785457E+03  0.92286667225E+02 0.  0.
          2    1    3    3  502    0 -0.87862554387E+01  0.47017093505E+03  0.92009602536E+03  0.10333027641E+04  0.00000000000E+00 0. -1.
         -1    1    3    3    0  502  0.12913470865E+02  0.28112776407E+03  0.69256789633E+03  0.74756261844E+03  0.00000000000E+00 0.  1.
         11    1    5    5    0    0  0.69845500915E+01 -0.15521747869E+03  0.55728786580E+02  0.16506649352E+03  0.00000000000E+00 0. -1.
        -11    1    5    5    0    0 -0.15656817646E+03 -0.61993765210E+03  0.21813242368E+03  0.67558718211E+03  0.00000000000E+00 0.  1.
          3    1    6    6  503    0  0.10505087243E+03  0.38738403321E+02  0.27273042795E+03  0.29481898857E+03  0.00000000000E+00 0. -1.
         -3    1    6    6    0  503  0.40405538509E+02 -0.14881971661E+02  0.32040850528E+03  0.32328886600E+03  0.00000000000E+00 0.  1.
<mgrwt>
<rscale>  0 0.20848138E+04</rscale>
<asrwt>0</asrwt>
<pdfrwt beam="1">  1        2 0.43994545E+00 0.20848138E+04</pdfrwt>
<pdfrwt beam="2">  1       -1 0.58458682E-01 0.20848138E+04</pdfrwt>
<totfact> 0.66318078E+00</totfact>
</mgrwt>
</event>
<event>
12    6  0.1462228E-007  0.3869757E+04  0.7818608E-02  0.8031349E-01
         -1   -1    0    0    0  501 -0.00000000000E+00  0.00000000000E+00  0.11095593704E+04  0.11095593704E+04  0.00000000000E+00 0.  1.
          2   -1    0    0  501    0  0.00000000000E+00 -0.00000000000E+00 -0.33740912847E+04  0.33740912847E+04  0.00000000000E+00 0. -1.
         24    2    1    2    0    0  0.11953702084E+03 -0.18074951955E+04 -0.79075991567E+03  0.19782644986E+04  0.83073469336E+02 0.  0.
        254    2    1    2    0    0 -0.11953702084E+03  0.18074951955E+04 -0.14737719986E+04  0.25053861565E+04  0.90753948017E+03 0.  0.
         23    2    4    4    0    0  0.33418822381E+03  0.87384442201E+03 -0.95790255548E+03  0.13421560115E+04  0.92301736124E+02 0.  0.
         23    2    4    4    0    0 -0.45372524465E+03  0.93365077346E+03 -0.51586944312E+03  0.11632301450E+04  0.97019191109E+02 0.  0.
          4    1    3    3  502    0  0.87995596445E+02 -0.16274314350E+04 -0.69380162469E+03  0.17713376287E+04  0.00000000000E+00 0. -1.
         -3    1    3    3    0  502  0.31541424396E+02 -0.18006376052E+03 -0.96958290974E+02  0.20692686992E+03  0.00000000000E+00 0.  1.
         11    1    5    5    0    0  0.27681578803E+03  0.61958345199E+03 -0.71719538405E+03  0.98736004243E+03  0.00000000000E+00 0.  1.
        -11    1    5    5    0    0  0.57372435783E+02  0.25426097003E+03 -0.24070717143E+03  0.35479596904E+03  0.00000000000E+00 0. -1.
          4    1    6    6  503    0 -0.20395760321E+03  0.37837263280E+03 -0.16444537437E+03  0.46022476499E+03  0.00000000000E+00 0. -1.
         -4    1    6    6    0  503 -0.24976764144E+03  0.55527814067E+03 -0.35142406875E+03  0.70300538000E+03  0.00000000000E+00 0.  1.
<mgrwt>
<rscale>  0 0.38697569E+04</rscale>
<asrwt>0</asrwt>
<pdfrwt beam="1">  1        2 0.51909095E+00 0.38697569E+04</pdfrwt>
<pdfrwt beam="2">  1       -1 0.17070145E+00 0.38697569E+04</pdfrwt>
<totfact> 0.21817034E-01</totfact>
</mgrwt>
</event>
<event>
12    6  0.1462228E-007  0.2522559E+04  0.7818608E-02  0.8394993E-01
          2   -1    0    0  501    0  0.00000000000E+00  0.00000000000E+00  0.33965456211E+04  0.33965456211E+04  0.00000000000E+00 0. -1.
         -1   -1    0    0    0  501 -0.00000000000E+00 -0.00000000000E+00 -0.46836574364E+03  0.46836574364E+03  0.00000000000E+00 0.  1.
         24    2    1    2    0    0  0.13238670357E+03 -0.72658282344E+03  0.41397488364E+02  0.74392248573E+03  0.79107990266E+02 0.  0.
        254    2    1    2    0    0 -0.13238670357E+03  0.72658282344E+03  0.28867823891E+04  0.31209888790E+04  0.92822959567E+03 0.  0.
         23    2    4    4    0    0  0.32338883872E+03  0.33812420135E+03  0.19333802249E+04  0.19911930990E+04  0.89345100800E+02 0.  0.
         23    2    4    4    0    0 -0.45577554229E+03  0.38845862209E+03  0.95340216418E+03  0.11297957800E+04  0.93975378325E+02 0.  0.
          2    1    3    3  502    0  0.49002230510E+02 -0.37394275185E+03  0.55942410204E+02  0.38126625016E+03  0.00000000000E+00 0. -1.
         -1    1    3    3    0  502  0.83384473060E+02 -0.35264007159E+03 -0.14544921840E+02  0.36265623556E+03  0.00000000000E+00 0.  1.
         11    1    5    5    0    0  0.11409322743E+03  0.12248673502E+03  0.52225876281E+03  0.54842910219E+03  0.00000000000E+00 0. -1.
        -11    1    5    5    0    0  0.20929561129E+03  0.21563746633E+03  0.14111214621E+04  0.14427639969E+04  0.00000000000E+00 0.  1.
          1    1    6    6  503    0 -0.42686533830E+03  0.32998529286E+03  0.87285773686E+03  0.10261505442E+04  0.00000000000E+00 0. -1.
         -1    1    6    6    0  503 -0.28910203992E+02  0.58473329230E+02  0.80544427322E+02  0.10364523577E+03  0.00000000000E+00 0.  1.
<mgrwt>
<rscale>  0 0.25225587E+04</rscale>
<asrwt>0</asrwt>
<pdfrwt beam="1">  1        2 0.52254546E+00 0.25225587E+04</pdfrwt>
<pdfrwt beam="2">  1       -1 0.72056270E-01 0.25225587E+04</pdfrwt>
<totfact> 0.18876599E+00</totfact>
</mgrwt>
</event>
<event>
12    6  0.1462228E-007  0.2618379E+04  0.7818608E-02  0.8361985E-01
          2   -1    0    0  501    0  0.00000000000E+00  0.00000000000E+00  0.33806185705E+04  0.33806185705E+04  0.00000000000E+00 0. -1.
         -1   -1    0    0    0  501 -0.00000000000E+00 -0.00000000000E+00 -0.50700110928E+03  0.50700110928E+03  0.00000000000E+00 0.  1.
         24    2    1    2    0    0 -0.11527888564E+04 -0.17720682956E+03  0.11508041904E+04  0.16410232361E+04  0.91008620483E+02 0.  0.
        254    2    1    2    0    0  0.11527888564E+04  0.17720682956E+03  0.17228132708E+04  0.22465964436E+04  0.84781224729E+03 0.  0.
         23    2    4    4    0    0  0.69859607888E+03 -0.12385676890E+03  0.14779977729E+04  0.16420932638E+04  0.92821816058E+02 0.  0.
         23    2    4    4    0    0  0.45419277751E+03  0.30106359846E+03  0.24481549787E+03  0.60450317986E+03  0.92515387897E+02 0.  0.
          4    1    3    3  502    0 -0.10205178526E+03 -0.42274681610E+02  0.10435701810E+03  0.15196085946E+03  0.00000000000E+00 0. -1.
         -3    1    3    3    0  502 -0.10507370711E+04 -0.13493214795E+03  0.10464471723E+04  0.14890623767E+04  0.00000000000E+00 0.  1.
         11    1    5    5    0    0  0.28379173629E+03 -0.41791748089E+02  0.70247186397E+03  0.75878259038E+03  0.00000000000E+00 0.  1.
        -11    1    5    5    0    0  0.41480434259E+03 -0.82065020816E+02  0.77552590895E+03  0.88331067339E+03  0.00000000000E+00 0. -1.
          1    1    6    6  503    0  0.37502820792E+03  0.27646160214E+03  0.18080658487E+03  0.49976814156E+03  0.00000000000E+00 0. -1.
         -1    1    6    6    0  503  0.79164569594E+02  0.24601996322E+02  0.64008913009E+02  0.10473503829E+03  0.00000000000E+00 0.  1.
<mgrwt>
<rscale>  0 0.26183792E+04</rscale>
<asrwt>0</asrwt>
<pdfrwt beam="1">  1        2 0.52009515E+00 0.26183792E+04</pdfrwt>
<pdfrwt beam="2">  1       -1 0.78000173E-01 0.26183792E+04</pdfrwt>
<totfact> 0.16252646E+00</totfact>
</mgrwt>
</event>
<event>
12    6  0.1462228E-007  0.1600722E+04  0.7818608E-02  0.8820105E-01
         -1   -1    0    0    0  501 -0.00000000000E+00  0.00000000000E+00  0.17704713821E+03  0.17704713821E+03  0.00000000000E+00 0.  1.
          2   -1    0    0  501    0  0.00000000000E+00 -0.00000000000E+00 -0.36181182700E+04  0.36181182700E+04  0.00000000000E+00 0. -1.
         24    2    1    2    0    0  0.31789881985E+03  0.28688130246E+03 -0.16394312078E+04  0.16962916145E+04  0.79435603231E+02 0.  0.
        254    2    1    2    0    0 -0.31789881985E+03 -0.28688130246E+03 -0.18016399240E+04  0.20988737936E+04  0.98792927109E+03 0.  0.
         23    2    4    4    0    0 -0.83216590359E+02  0.33022698896E+03 -0.32150258050E+03  0.47574126424E+03  0.83612057033E+02 0.  0.
         23    2    4    4    0    0 -0.23468222949E+03 -0.61710829142E+03 -0.14801373435E+04  0.16231325294E+04  0.88624264848E+02 0.  0.
          2    1    3    3  502    0  0.27185515998E+03  0.21111735620E+03 -0.12221097319E+04  0.12696566319E+04  0.00000000000E+00 0. -1.
         -1    1    3    3    0  502  0.46043659866E+02  0.75763946260E+02 -0.41732147588E+03  0.42663498262E+03  0.00000000000E+00 0.  1.
         11    1    5    5    0    0 -0.52036491814E+02  0.12760670914E+03 -0.17976113635E+03  0.22650680969E+03  0.00000000000E+00 0. -1.
        -11    1    5    5    0    0 -0.31180098545E+02  0.20262027982E+03 -0.14174144415E+03  0.24923445454E+03  0.00000000000E+00 0.  1.
          1    1    6    6  503    0 -0.78745964804E+01 -0.74237952850E+02 -0.12189755006E+03  0.14294158116E+03  0.00000000000E+00 0. -1.
         -1    1    6    6    0  503 -0.22680763301E+03 -0.54287033857E+03 -0.13582397934E+04  0.14801909482E+04  0.00000000000E+00 0.  1.
<mgrwt>
<rscale>  0 0.16007217E+04</rscale>
<asrwt>0</asrwt>
<pdfrwt beam="1">  1        2 0.55663352E+00 0.16007217E+04</pdfrwt>
<pdfrwt beam="2">  1       -1 0.27238024E-01 0.16007217E+04</pdfrwt>
<totfact> 0.89566223E+00</totfact>
</mgrwt>
</event>
<event>
12    6  0.1462228E-007  0.1608322E+04  0.7818608E-02  0.8815452E-01
         -1   -1    0    0    0  501 -0.00000000000E+00  0.00000000000E+00  0.38022705501E+03  0.38022705501E+03  0.00000000000E+00 0.  1.
          2   -1    0    0  501    0  0.00000000000E+00 -0.00000000000E+00 -0.17007598011E+04  0.17007598011E+04  0.00000000000E+00 0. -1.
         24    2    1    2    0    0  0.11894814150E+03  0.36202322947E+03 -0.97530142718E+03  0.10496059099E+04  0.72458354278E+02 0.  0.
        254    2    1    2    0    0 -0.11894814150E+03 -0.36202322947E+03 -0.34523131892E+03  0.10313809463E+04  0.89406516188E+03 0.  0.
         23    2    4    4    0    0  0.34975328690E+01  0.36489740121E+02  0.26644676335E+03  0.28583117767E+03  0.96756656406E+02 0.  0.
         23    2    4    4    0    0 -0.12244567437E+03 -0.39851296959E+03 -0.61167808227E+03  0.74554976858E+03  0.88819203944E+02 0.  0.
          4    1    3    3  502    0  0.83402953953E+01  0.58564109696E+02 -0.22686128497E+03  0.23444691956E+03  0.00000000000E+00 0. -1.
         -1    1    3    3    0  502  0.11060784611E+03  0.30345911978E+03 -0.74844014221E+03  0.81515899030E+03  0.00000000000E+00 0.  1.
         11    1    5    5    0    0  0.34378618490E+02  0.21039756572E+02  0.23713923285E+03  0.24054017653E+03  0.00000000000E+00 0.  1.
        -11    1    5    5    0    0 -0.30881085621E+02  0.15449983549E+02  0.29307530499E+02  0.45291001145E+02  0.00000000000E+00 0. -1.
          3    1    6    6  503    0 -0.70726394266E+02 -0.33586909370E+03 -0.51992661748E+03  0.62300397954E+03  0.00000000000E+00 0. -1.
         -3    1    6    6    0  503 -0.51719280104E+02 -0.62643875890E+02 -0.91751464790E+02  0.12254578904E+03  0.00000000000E+00 0.  1.
<mgrwt>
<rscale>  0 0.16083220E+04</rscale>
<asrwt>0</asrwt>
<pdfrwt beam="1">  1        2 0.26165535E+00 0.16083220E+04</pdfrwt>
<pdfrwt beam="2">  1       -1 0.58496470E-01 0.16083220E+04</pdfrwt>
<totfact> 0.31674673E+01</totfact>
</mgrwt>
</event>
<event>
12    6  0.1462228E-007  0.1968892E+04  0.7818608E-02  0.8621305E-01
         -1   -1    0    0    0  501 -0.00000000000E+00  0.00000000000E+00  0.26236562114E+03  0.26236562114E+03  0.00000000000E+00 0.  1.
          2   -1    0    0  501    0  0.00000000000E+00 -0.00000000000E+00 -0.36938281042E+04  0.36938281042E+04  0.00000000000E+00 0. -1.
         24    2    1    2    0    0  0.26860114378E+03 -0.72404557955E+03 -0.15312725930E+04  0.17167614959E+04  0.78010922062E+02 0.  0.
        254    2    1    2    0    0 -0.26860114378E+03  0.72404557955E+03 -0.19001898900E+04  0.22394322294E+04  0.89885845180E+03 0.  0.
         23    2    4    4    0    0 -0.45146176869E+03  0.69153798881E+03 -0.18485605034E+04  0.20266498651E+04  0.89951222941E+02 0.  0.
         23    2    4    4    0    0  0.18286062491E+03  0.32507590736E+02 -0.51629386660E+02  0.21278236435E+03  0.90088786265E+02 0.  0.
          4    1    3    3  502    0  0.18733624160E+02 -0.24779100095E+02 -0.38280934819E+02  0.49298909180E+02  0.00000000000E+00 0. -1.
         -3    1    3    3    0  502  0.24986751962E+03 -0.69926647945E+03 -0.14929916582E+04  0.16674625867E+04  0.00000000000E+00 0.  1.
         11    1    5    5    0    0 -0.42681115687E+03  0.60470053810E+03 -0.16645463199E+04  0.18216873924E+04  0.00000000000E+00 0.  1.
        -11    1    5    5    0    0 -0.24650611823E+02  0.86837450713E+02 -0.18401418343E+03  0.20496247270E+03  0.00000000000E+00 0. -1.
          4    1    6    6  503    0 -0.80156381541E+01 -0.13487601449E+01  0.64904878165E+01  0.10401732598E+02  0.00000000000E+00 0. -1.
         -4    1    6    6    0  503  0.19087626307E+03  0.33856350881E+02 -0.58119874476E+02  0.20238063175E+03  0.00000000000E+00 0.  1.
<mgrwt>
<rscale>  0 0.19688916E+04</rscale>
<asrwt>0</asrwt>
<pdfrwt beam="1">  1        2 0.56828125E+00 0.19688916E+04</pdfrwt>
<pdfrwt beam="2">  1       -1 0.40363941E-01 0.19688916E+04</pdfrwt>
<totfact> 0.37753251E+00</totfact>
</mgrwt>
</event>
<event>
12    6  0.1462228E-007  0.1392579E+04  0.7818608E-02  0.8959208E-01
         -1   -1    0    0    0  501 -0.00000000000E+00  0.00000000000E+00  0.15303674059E+03  0.15303674059E+03  0.00000000000E+00 0.  1.
          2   -1    0    0  501    0  0.00000000000E+00 -0.00000000000E+00 -0.31679917685E+04  0.31679917685E+04  0.00000000000E+00 0. -1.
         24    2    1    2    0    0 -0.29048988788E+03 -0.21546612378E+03 -0.12196628729E+04  0.12751910883E+04  0.87890629349E+02 0.  0.
        254    2    1    2    0    0  0.29048988788E+03  0.21546612378E+03 -0.17952921551E+04  0.20458374208E+04  0.91190284844E+03 0.  0.
         23    2    4    4    0    0  0.10323388622E+03  0.55660431681E+03 -0.92769822391E+03  0.10906057168E+04  0.91275593953E+02 0.  0.
         23    2    4    4    0    0  0.18725600166E+03 -0.34113819303E+03 -0.86759393117E+03  0.95523170408E+03  0.91149888524E+02 0.  0.
          2    1    3    3  502    0 -0.17255878663E+03 -0.16394430778E+03 -0.89057880021E+03  0.92183776788E+03  0.00000000000E+00 0. -1.
         -1    1    3    3    0  502 -0.11793110126E+03 -0.51521816002E+02 -0.32908407266E+03  0.35335332042E+03  0.00000000000E+00 0.  1.
         11    1    5    5    0    0  0.76699324045E+02  0.27897031351E+03 -0.54537223731E+03  0.61736383062E+03  0.00000000000E+00 0. -1.
        -11    1    5    5    0    0  0.26534562177E+02  0.27763400330E+03 -0.38232598661E+03  0.47324188616E+03  0.00000000000E+00 0.  1.
          3    1    6    6  503    0  0.46369927505E+02 -0.17659302002E+03 -0.42036685089E+03  0.45830508858E+03  0.00000000000E+00 0. -1.
         -3    1    6    6    0  503  0.14088607416E+03 -0.16454517301E+03 -0.44722708028E+03  0.49692661549E+03  0.00000000000E+00 0.  1.
<mgrwt>
<rscale>  0 0.13925791E+04</rscale>
<asrwt>0</asrwt>
<pdfrwt beam="1">  1        2 0.48738332E+00 0.13925791E+04</pdfrwt>
<pdfrwt beam="2">  1       -1 0.23544115E-01 0.13925791E+04</pdfrwt>
<totfact> 0.23697508E+01</totfact>
</mgrwt>
</event>
<event>
12    6  0.1462228E-007  0.2604879E+04  0.7818608E-02  0.8366546E-01
         -1   -1    0    0    0  501 -0.00000000000E+00  0.00000000000E+00  0.98829660532E+03  0.98829660532E+03  0.00000000000E+00 0.  1.
          2   -1    0    0  501    0  0.00000000000E+00 -0.00000000000E+00 -0.17164371004E+04  0.17164371004E+04  0.00000000000E+00 0. -1.
         24    2    1    2    0    0 -0.39179222512E+03  0.65442098501E+03 -0.12095946111E+04  0.14321982764E+04  0.79402810522E+02 0.  0.
        254    2    1    2    0    0  0.39179222512E+03 -0.65442098501E+03  0.48145411600E+03  0.12725354294E+04  0.89765270563E+03 0.  0.
         23    2    4    4    0    0  0.37772944868E+03 -0.74022704190E+03  0.65592003023E+02  0.83809283407E+03  0.86496691862E+02 0.  0.
         23    2    4    4    0    0  0.14062776445E+02  0.85806056888E+02  0.41586211298E+03  0.43444259531E+03  0.90766902172E+02 0.  0.
          4    1    3    3  502    0 -0.34621551037E+03  0.51827750436E+03 -0.98024004771E+03  0.11616140935E+04  0.00000000000E+00 0. -1.
         -3    1    3    3    0  502 -0.45576714747E+02  0.13614348065E+03 -0.22935456338E+03  0.27058418283E+03  0.00000000000E+00 0.  1.
         11    1    5    5    0    0  0.23643483657E+03 -0.47698379407E+03  0.83100667487E+02  0.53881415413E+03  0.00000000000E+00 0.  1.
        -11    1    5    5    0    0  0.14129461211E+03 -0.26324324782E+03 -0.17508664464E+02  0.29927867994E+03  0.00000000000E+00 0. -1.
          4    1    6    6  503    0  0.13194254515E+02 -0.14560393263E+02  0.12989322111E+03  0.13137101010E+03  0.00000000000E+00 0. -1.
         -4    1    6    6    0  503  0.86852192937E+00  0.10036645015E+03  0.28596889187E+03  0.30307158521E+03  0.00000000000E+00 0.  1.
<mgrwt>
<rscale>  0 0.26048792E+04</rscale>
<asrwt>0</asrwt>
<pdfrwt beam="1">  1        2 0.26406724E+00 0.26048792E+04</pdfrwt>
<pdfrwt beam="2">  1       -1 0.15204563E+00 0.26048792E+04</pdfrwt>
<totfact> 0.32509723E+00</totfact>
</mgrwt>
</event>
<event>
12    6  0.1462228E-007  0.1680544E+04  0.7818608E-02  0.8772539E-01
          2   -1    0    0  501    0  0.00000000000E+00  0.00000000000E+00  0.37088059124E+04  0.37088059124E+04  0.00000000000E+00 0. -1.
         -1   -1    0    0    0  501 -0.00000000000E+00 -0.00000000000E+00 -0.19037308496E+03  0.19037308496E+03  0.00000000000E+00 0.  1.
         24    2    1    2    0    0 -0.53208358160E+03  0.27334179076E+03  0.12062496213E+04  0.13488256798E+04  0.80398341261E+02 0.  0.
        254    2    1    2    0    0  0.53208358160E+03 -0.27334179076E+03  0.23121832062E+04  0.25503533176E+04  0.89458492787E+03 0.  0.
         23    2    4    4    0    0  0.16980879737E+03  0.29045645419E+03  0.44677823618E+03  0.56612647480E+03  0.87683599934E+02 0.  0.
         23    2    4    4    0    0  0.36227478422E+03 -0.56379824495E+03  0.18654049700E+04  0.19842268428E+04  0.91153613447E+02 0.  0.
          4    1    3    3  502    0 -0.35521977607E+02  0.33552694566E+02  0.14251449021E+03  0.15065846848E+03  0.00000000000E+00 0. -1.
         -3    1    3    3    0  502 -0.49656160399E+03  0.23978909619E+03  0.10637351311E+04  0.11981672113E+04  0.00000000000E+00 0.  1.
         11    1    5    5    0    0  0.15536087072E+03  0.27859679186E+03  0.37678431965E+03  0.49367964928E+03  0.00000000000E+00 0.  1.
        -11    1    5    5    0    0  0.14447926658E+02  0.11859662326E+02  0.69993916538E+02  0.72446825517E+02  0.00000000000E+00 0. -1.
          4    1    6    6  503    0  0.21122039984E+03 -0.33097842300E+03  0.95827657729E+03  0.10355939225E+04  0.00000000000E+00 0. -1.
         -4    1    6    6    0  503  0.15105438439E+03 -0.23281982195E+03  0.90712839271E+03  0.94863292025E+03  0.00000000000E+00 0.  1.
<mgrwt>
<rscale>  0 0.16805437E+04</rscale>
<asrwt>0</asrwt>
<pdfrwt beam="1">  1        2 0.57058547E+00 0.16805437E+04</pdfrwt>
<pdfrwt beam="2">  1       -1 0.29288170E-01 0.16805437E+04</pdfrwt>
<totfact> 0.67281812E+00</totfact>
</mgrwt>
</event>
<event>
12    6  0.1462228E-007  0.3483292E+04  0.7818608E-02  0.8117761E-01
          2   -1    0    0  501    0  0.00000000000E+00  0.00000000000E+00  0.31655774499E+04  0.31655774499E+04  0.00000000000E+00 0. -1.
         -3   -1    0    0    0  501 -0.00000000000E+00 -0.00000000000E+00 -0.95822338506E+03  0.95822338506E+03  0.00000000000E+00 0.  1.
         24    2    1    2    0    0 -0.23341121931E+03 -0.10550518884E+04 -0.40764387645E+03  0.11577085005E+04  0.80623554063E+02 0.  0.
        254    2    1    2    0    0  0.23341121931E+03  0.10550518884E+04  0.26149979413E+04  0.29660923345E+04  0.88987314781E+03 0.  0.
         23    2    4    4    0    0  0.51149268651E+03  0.91340263582E+03  0.17410498789E+04  0.20335609420E+04  0.90478065159E+02 0.  0.
         23    2    4    4    0    0 -0.27808146719E+03  0.14164925259E+03  0.87394806232E+03  0.93253139249E+03  0.91846443515E+02 0.  0.
          4    1    3    3  502    0 -0.14984390318E+03 -0.50793441915E+03 -0.21738611046E+03  0.57245723901E+03  0.00000000000E+00 0. -1.
         -3    1    3    3    0  502 -0.83567316136E+02 -0.54711746927E+03 -0.19025776599E+03  0.58525126145E+03  0.00000000000E+00 0.  1.
         11    1    5    5    0    0  0.20676214531E+03  0.41842717574E+03  0.84943965875E+03  0.96921598212E+03  0.00000000000E+00 0.  1.
        -11    1    5    5    0    0  0.30473054120E+03  0.49497546008E+03  0.89161022019E+03  0.10643449599E+04  0.00000000000E+00 0. -1.
          2    1    6    6  503    0 -0.22532500886E+03  0.11930070688E+03  0.79570283721E+03  0.83555192742E+03  0.00000000000E+00 0. -1.
         -2    1    6    6    0  503 -0.52756458336E+02  0.22348545713E+02  0.78245225113E+02  0.96979465067E+02  0.00000000000E+00 0.  1.
<mgrwt>
<rscale>  0 0.34832917E+04</rscale>
<asrwt>0</asrwt>
<pdfrwt beam="1">  1        2 0.48701191E+00 0.34832917E+04</pdfrwt>
<pdfrwt beam="2">  1       -3 0.14741898E+00 0.34832917E+04</pdfrwt>
<totfact> 0.24126217E-01</totfact>
</mgrwt>
</event>
<event>
12    6  0.1462228E-007  0.1557777E+04  0.7818608E-02  0.8846915E-01
         -1   -1    0    0    0  501 -0.00000000000E+00  0.00000000000E+00  0.34327515612E+03  0.34327515612E+03  0.00000000000E+00 0.  1.
          2   -1    0    0  501    0  0.00000000000E+00 -0.00000000000E+00 -0.17672920542E+04  0.17672920542E+04  0.00000000000E+00 0. -1.
         24    2    1    2    0    0  0.17927186017E+03  0.23693753733E+03  0.93636507788E+02  0.32170323201E+03  0.80295563102E+02 0.  0.
        254    2    1    2    0    0 -0.17927186017E+03 -0.23693753733E+03 -0.15176534059E+04  0.17888639783E+04  0.89915775929E+03 0.  0.
         23    2    4    4    0    0  0.15586548470E+03 -0.15971838769E+03 -0.13907529372E+04  0.14115232416E+04  0.91652149326E+02 0.  0.
         23    2    4    4    0    0 -0.33513734487E+03 -0.77219149638E+02 -0.12690046871E+03  0.37734073677E+03  0.89456501565E+02 0.  0.
          4    1    3    3  502    0  0.15092169428E+02  0.75154824251E+02  0.14604559708E+02  0.78034058913E+02  0.00000000000E+00 0. -1.
         -3    1    3    3    0  502  0.16417969074E+03  0.16178271308E+03  0.79031948080E+02  0.24366917310E+03  0.00000000000E+00 0.  1.
         11    1    5    5    0    0  0.96100703091E+02 -0.13138802734E+03 -0.11638053306E+04  0.11751344631E+04  0.00000000000E+00 0.  1.
        -11    1    5    5    0    0  0.59764781612E+02 -0.28330360357E+02 -0.22694760656E+03  0.23638877842E+03  0.00000000000E+00 0. -1.
          3    1    6    6  503    0 -0.16659275330E+03 -0.44918392187E+02 -0.11062192654E+03  0.20495857640E+03  0.00000000000E+00 0. -1.
         -3    1    6    6    0  503 -0.16854459157E+03 -0.32300757451E+02 -0.16278542170E+02  0.17238216037E+03  0.00000000000E+00 0.  1.
<mgrwt>
<rscale>  0 0.15577772E+04</rscale>
<asrwt>0</asrwt>
<pdfrwt beam="1">  1        2 0.27189108E+00 0.15577772E+04</pdfrwt>
<pdfrwt beam="2">  1       -1 0.52811563E-01 0.15577772E+04</pdfrwt>
<totfact> 0.35636530E+01</totfact>
</mgrwt>
</event>
<event>
12    6  0.1462228E-007  0.1657506E+04  0.7818608E-02  0.8785978E-01
         -1   -1    0    0    0  501 -0.00000000000E+00  0.00000000000E+00  0.91945515235E+03  0.91945515235E+03  0.00000000000E+00 0.  1.
          2   -1    0    0  501    0  0.00000000000E+00 -0.00000000000E+00 -0.74699847333E+03  0.74699847333E+03  0.00000000000E+00 0. -1.
         24    2    1    2    0    0 -0.25271610093E+03 -0.41905015828E+03  0.34790566847E+03  0.60561605995E+03  0.79145404763E+02 0.  0.
        254    2    1    2    0    0  0.25271610093E+03  0.41905015828E+03 -0.17544898944E+03  0.10608375657E+04  0.92472997688E+03 0.  0.
         23    2    4    4    0    0 -0.16955944577E+03  0.33737178416E+03  0.24040035782E+03  0.45702458602E+03  0.92244315779E+02 0.  0.
         23    2    4    4    0    0  0.42227554670E+03  0.81678374119E+02 -0.41584934726E+03  0.60381297971E+03  0.81678887749E+02 0.  0.
          4    1    3    3  502    0 -0.14388430995E+03 -0.25433176037E+03  0.16040518698E+03  0.33334241103E+03  0.00000000000E+00 0. -1.
         -3    1    3    3    0  502 -0.10883179099E+03 -0.16471839791E+03  0.18750048148E+03  0.27227364892E+03  0.00000000000E+00 0.  1.
         11    1    5    5    0    0 -0.12322540882E+03  0.16393334305E+03  0.95046123348E+02  0.22603629776E+03  0.00000000000E+00 0. -1.
        -11    1    5    5    0    0 -0.46334036944E+02  0.17343844111E+03  0.14535423447E+03  0.23098828826E+03  0.00000000000E+00 0.  1.
          1    1    6    6  503    0  0.27688891743E+03  0.89171497672E+02 -0.25466633438E+03  0.38661863697E+03  0.00000000000E+00 0. -1.
         -1    1    6    6    0  503  0.14538662927E+03 -0.74931235531E+01 -0.16118301288E+03  0.21719434273E+03  0.00000000000E+00 0.  1.
<mgrwt>
<rscale>  0 0.16575061E+04</rscale>
<asrwt>0</asrwt>
<pdfrwt beam="1">  1        2 0.11492284E+00 0.16575061E+04</pdfrwt>
<pdfrwt beam="2">  1       -1 0.14145464E+00 0.16575061E+04</pdfrwt>
<totfact> 0.16765300E+01</totfact>
</mgrwt>
</event>
<event>
12    6  0.1462228E-007  0.1091438E+04  0.7818608E-02  0.9213577E-01
          2   -1    0    0  501    0  0.00000000000E+00  0.00000000000E+00  0.54266423850E+03  0.54266423850E+03  0.00000000000E+00 0. -1.
         -1   -1    0    0    0  501 -0.00000000000E+00 -0.00000000000E+00 -0.54879098019E+03  0.54879098019E+03  0.00000000000E+00 0.  1.
         24    2    1    2    0    0 -0.13393257548E+03  0.29365329556E+02  0.84860660417E+02  0.18014773935E+03  0.80321970530E+02 0.  0.
        254    2    1    2    0    0  0.13393257548E+03 -0.29365329556E+02 -0.90987402107E+02  0.91130747934E+03  0.89632714854E+03 0.  0.
         23    2    4    4    0    0  0.12759118282E+03  0.40517572630E+02 -0.47954477981E+03  0.50596454179E+03  0.90087391326E+02 0.  0.
         23    2    4    4    0    0  0.63413926585E+01 -0.69882902186E+02  0.38855737770E+03  0.40534293756E+03  0.91663667720E+02 0.  0.
          2    1    3    3  502    0 -0.14013907247E+03  0.14954843985E+02  0.84755865660E+02  0.16445717909E+03  0.00000000000E+00 0. -1.
         -1    1    3    3    0  502  0.62064969841E+01  0.14410485571E+02  0.10479475649E+00  0.15690560256E+02  0.00000000000E+00 0.  1.
         11    1    5    5    0    0  0.10140853486E+03  0.68783887204E+02 -0.37742416554E+03  0.39681723099E+03  0.00000000000E+00 0.  1.
        -11    1    5    5    0    0  0.26182647960E+02 -0.28266314574E+02 -0.10212061427E+03  0.10914731079E+03  0.00000000000E+00 0. -1.
          2    1    6    6  503    0  0.10667771892E+02 -0.73621593775E+02  0.15718152198E+03  0.17389643838E+03  0.00000000000E+00 0. -1.
         -2    1    6    6    0  503 -0.43263792333E+01  0.37386915888E+01  0.23137585572E+03  0.23144649918E+03  0.00000000000E+00 0.  1.
<mgrwt>
<rscale>  0 0.10914380E+04</rscale>
<asrwt>0</asrwt>
<pdfrwt beam="1">  1        2 0.83486806E-01 0.10914380E+04</pdfrwt>
<pdfrwt beam="2">  1       -1 0.84429382E-01 0.10914380E+04</pdfrwt>
<totfact> 0.88300919E+01</totfact>
</mgrwt>
</event>
<event>
12    6  0.1462228E-007  0.2511507E+04  0.7818608E-02  0.8398898E-01
          2   -1    0    0  501    0  0.00000000000E+00  0.00000000000E+00  0.16534497313E+04  0.16534497313E+04  0.00000000000E+00 0. -1.
         -1   -1    0    0    0  501 -0.00000000000E+00 -0.00000000000E+00 -0.95371305840E+03  0.95371305840E+03  0.00000000000E+00 0.  1.
         24    2    1    2    0    0  0.89600324235E+03 -0.51517404611E+03  0.63817677187E+03  0.12173795368E+04  0.80729402204E+02 0.  0.
        254    2    1    2    0    0 -0.89600324235E+03  0.51517404611E+03  0.61559900990E+02  0.13897832529E+04  0.92708239139E+03 0.  0.
         23    2    4    4    0    0 -0.29095925414E+03  0.33921057174E+03  0.45268636562E+03  0.64270786102E+03  0.91800596187E+02 0.  0.
         23    2    4    4    0    0 -0.60504398821E+03  0.17596347437E+03 -0.39112646463E+03  0.74707539183E+03  0.90001987594E+02 0.  0.
          4    1    3    3  502    0  0.88530599622E+03 -0.51630168542E+03  0.62511774418E+03  0.12004608829E+04  0.00000000000E+00 0. -1.
         -3    1    3    3    0  502  0.10697246127E+02  0.11276393124E+01  0.13059027691E+02  0.16918653887E+02  0.00000000000E+00 0.  1.
         11    1    5    5    0    0 -0.10570459477E+03  0.18143794746E+03  0.24607479450E+03  0.32349033158E+03  0.00000000000E+00 0. -1.
        -11    1    5    5    0    0 -0.18525465937E+03  0.15777262428E+03  0.20661157111E+03  0.31921752945E+03  0.00000000000E+00 0.  1.
          4    1    6    6  503    0 -0.25281330469E+03  0.11893981583E+03 -0.16047462122E+03  0.32220079279E+03  0.00000000000E+00 0. -1.
         -4    1    6    6    0  503 -0.35223068352E+03  0.57023658539E+02 -0.23065184341E+03  0.42487459904E+03  0.00000000000E+00 0.  1.
<mgrwt>
<rscale>  0 0.25115068E+04</rscale>
<asrwt>0</asrwt>
<pdfrwt beam="1">  1        2 0.25437688E+00 0.25115068E+04</pdfrwt>
<pdfrwt beam="2">  1       -1 0.14672509E+00 0.25115068E+04</pdfrwt>
<totfact> 0.39103732E+00</totfact>
</mgrwt>
</event>
<event>
12    6  0.1462228E-007  0.1707400E+04  0.7818608E-02  0.8757155E-01
          2   -1    0    0  501    0  0.00000000000E+00  0.00000000000E+00  0.13656679054E+04  0.13656679054E+04  0.00000000000E+00 0. -1.
         -3   -1    0    0    0  501 -0.00000000000E+00 -0.00000000000E+00 -0.53366121376E+03  0.53366121376E+03  0.00000000000E+00 0.  1.
         24    2    1    2    0    0 -0.56126854558E+03 -0.99242657344E+02  0.40014099221E+02  0.57693410344E+03  0.79877069835E+02 0.  0.
        254    2    1    2    0    0  0.56126854558E+03  0.99242657344E+02  0.79199259243E+03  0.13223950157E+04  0.89252721295E+03 0.  0.
         23    2    4    4    0    0  0.43879506145E+03 -0.23913032120E+03  0.80522265719E+03  0.95213188836E+03  0.91908588926E+02 0.  0.
         23    2    4    4    0    0  0.12247348413E+03  0.33837297855E+03 -0.13230064759E+02  0.37026312736E+03  0.86161023332E+02 0.  0.
          2    1    3    3  502    0 -0.24077378542E+03 -0.44044003805E+02  0.56853023423E+02  0.25128501007E+03  0.00000000000E+00 0. -1.
         -1    1    3    3    0  502 -0.32049476016E+03 -0.55198653539E+02 -0.16838924203E+02  0.32564909337E+03  0.00000000000E+00 0.  1.
         11    1    5    5    0    0  0.28368576608E+03 -0.16449438830E+03  0.44377808899E+03  0.55179254247E+03  0.00000000000E+00 0.  1.
        -11    1    5    5    0    0  0.15510929537E+03 -0.74635932908E+02  0.36144456820E+03  0.40033934590E+03  0.00000000000E+00 0. -1.
          1    1    6    6  503    0  0.10478485500E+03  0.23174858960E+03 -0.43483112317E+02  0.25802723825E+03  0.00000000000E+00 0. -1.
         -1    1    6    6    0  503  0.17688629133E+02  0.10662438894E+03  0.30253047558E+02  0.11223588911E+03  0.00000000000E+00 0.  1.
<mgrwt>
<rscale>  0 0.17074004E+04</rscale>
<asrwt>0</asrwt>
<pdfrwt beam="1">  1        2 0.21010275E+00 0.17074004E+04</pdfrwt>
<pdfrwt beam="2">  1       -3 0.82101726E-01 0.17074004E+04</pdfrwt>
<totfact> 0.12585551E+01</totfact>
</mgrwt>
</event>
<event>
12    6  0.1462228E-007  0.1887633E+04  0.7818608E-02  0.8661037E-01
         -1   -1    0    0    0  501 -0.00000000000E+00  0.00000000000E+00  0.55379799309E+03  0.55379799309E+03  0.00000000000E+00 0.  1.
          2   -1    0    0  501    0  0.00000000000E+00 -0.00000000000E+00 -0.16085103975E+04  0.16085103975E+04  0.00000000000E+00 0. -1.
         24    2    1    2    0    0  0.21667131603E+03 -0.60372482164E+03 -0.79186308967E+03  0.10221833505E+04  0.79884477596E+02 0.  0.
        254    2    1    2    0    0 -0.21667131603E+03  0.60372482164E+03 -0.26284931474E+03  0.11401250401E+04  0.90518795030E+03 0.  0.
         23    2    4    4    0    0 -0.40411947779E+02  0.80293714864E+03 -0.28538873330E+03  0.85808150523E+03  0.92281906854E+02 0.  0.
         23    2    4    4    0    0 -0.17625936825E+03 -0.19921232700E+03  0.22539418564E+02  0.28204353487E+03  0.91036333667E+02 0.  0.
          2    1    3    3  502    0  0.14261224768E+03 -0.34551194598E+03 -0.51577659199E+03  0.63697900346E+03  0.00000000000E+00 0. -1.
         -1    1    3    3    0  502  0.74059068344E+02 -0.25821287566E+03 -0.27608649767E+03  0.38520434701E+03  0.00000000000E+00 0.  1.
         11    1    5    5    0    0 -0.57859982718E+02  0.47080881427E+03 -0.19941320361E+03  0.51456228288E+03  0.00000000000E+00 0.  1.
        -11    1    5    5    0    0  0.17448034939E+02  0.33212833437E+03 -0.85975529696E+02  0.34351922235E+03  0.00000000000E+00 0. -1.
          1    1    6    6  503    0 -0.45363836518E+02 -0.52465305341E+02  0.47150308292E+02  0.83866784249E+02  0.00000000000E+00 0. -1.
         -1    1    6    6    0  503 -0.13089553173E+03 -0.14674702166E+03 -0.24610889729E+02  0.19817675062E+03  0.00000000000E+00 0.  1.
<mgrwt>
<rscale>  0 0.18876333E+04</rscale>
<asrwt>0</asrwt>
<pdfrwt beam="1">  1        2 0.24746314E+00 0.18876333E+04</pdfrwt>
<pdfrwt beam="2">  1       -1 0.85199692E-01 0.18876333E+04</pdfrwt>
<totfact> 0.16045736E+01</totfact>
</mgrwt>
</event>
<event>
12    6  0.1462228E-007  0.1562142E+04  0.7818608E-02  0.8844149E-01
          2   -1    0    0  501    0  0.00000000000E+00  0.00000000000E+00  0.13566615718E+04  0.13566615718E+04  0.00000000000E+00 0. -1.
         -1   -1    0    0    0  501 -0.00000000000E+00 -0.00000000000E+00 -0.44968613068E+03  0.44968613068E+03  0.00000000000E+00 0.  1.
         24    2    1    2    0    0  0.36726699869E+03  0.17824023655E+03 -0.97597875219E+02  0.42731107387E+03  0.80092311449E+02 0.  0.
        254    2    1    2    0    0 -0.36726699869E+03 -0.17824023655E+03  0.10045733163E+04  0.13790366286E+04  0.85200929858E+03 0.  0.
         23    2    4    4    0    0 -0.97379316265E+02 -0.18122034858E+03 -0.94707583970E+02  0.24391515020E+03  0.90562288294E+02 0.  0.
         23    2    4    4    0    0 -0.26988768243E+03  0.29801120281E+01  0.10992809003E+04  0.11351214784E+04  0.85053105550E+02 0.  0.
          4    1    3    3  502    0  0.11340828247E+03  0.32321016903E+02 -0.59344586908E+02  0.13201464563E+03  0.00000000000E+00 0. -1.
         -3    1    3    3    0  502  0.25385871622E+03  0.14591921965E+03 -0.38253288312E+02  0.29529642824E+03  0.00000000000E+00 0.  1.
         11    1    5    5    0    0 -0.10604803798E+03 -0.18597026957E+03 -0.85889950929E+02  0.23066905123E+03  0.00000000000E+00 0. -1.
        -11    1    5    5    0    0  0.86687217116E+01  0.47499209942E+01 -0.88176330416E+01  0.13246098974E+02  0.00000000000E+00 0.  1.
          3    1    6    6  503    0 -0.79719957807E+02  0.42535239111E+01  0.50165178129E+03  0.50796444148E+03  0.00000000000E+00 0. -1.
         -3    1    6    6    0  503 -0.19016772462E+03 -0.12734118830E+01  0.59762911899E+03  0.62715703690E+03  0.00000000000E+00 0.  1.
<mgrwt>
<rscale>  0 0.15621420E+04</rscale>
<asrwt>0</asrwt>
<pdfrwt beam="1">  1        2 0.20871716E+00 0.15621420E+04</pdfrwt>
<pdfrwt beam="2">  1       -1 0.69182482E-01 0.15621420E+04</pdfrwt>
<totfact> 0.35507982E+01</totfact>
</mgrwt>
</event>
<event>
12    6  0.1462228E-007  0.2368926E+04  0.7818608E-02  0.8451230E-01
          2   -1    0    0  501    0  0.00000000000E+00  0.00000000000E+00  0.36521922659E+04  0.36521922659E+04  0.00000000000E+00 0. -1.
         -1   -1    0    0    0  501 -0.00000000000E+00 -0.00000000000E+00 -0.38413980714E+03  0.38413980714E+03  0.00000000000E+00 0.  1.
         24    2    1    2    0    0 -0.23401267667E+03 -0.98328256422E+03  0.13221948410E+04  0.16669965848E+04  0.95246429334E+02 0.  0.
        254    2    1    2    0    0  0.23401267667E+03  0.98328256422E+03  0.19458576178E+04  0.23693354883E+04  0.89765374909E+03 0.  0.
         23    2    4    4    0    0 -0.51486975112E+02  0.97991108033E+03  0.17564805855E+04  0.20140122011E+04  0.90246689563E+02 0.  0.
         23    2    4    4    0    0  0.28549965179E+03  0.33714838867E+01  0.18937703231E+03  0.35532328717E+03  0.94178341281E+02 0.  0.
          4    1    3    3  502    0 -0.11877760268E+02 -0.63140588986E+02  0.50687864853E+02  0.81835657325E+02  0.00000000000E+00 0. -1.
         -3    1    3    3    0  502 -0.22213491641E+03 -0.92014197523E+03  0.12715069762E+04  0.15851609275E+04  0.00000000000E+00 0.  1.
         11    1    5    5    0    0  0.85806925038E+01  0.63004908095E+03  0.10989019741E+04  0.12667363662E+04  0.00000000000E+00 0.  1.
        -11    1    5    5    0    0 -0.60067667615E+02  0.34986199938E+03  0.65757861134E+03  0.74727583488E+03  0.00000000000E+00 0. -1.
          3    1    6    6  503    0  0.14525926809E+03  0.48000183212E+02  0.86316521594E+02  0.17565538550E+03  0.00000000000E+00 0. -1.
         -3    1    6    6    0  503  0.14024038369E+03 -0.44628699326E+02  0.10306051071E+03  0.17966790167E+03  0.00000000000E+00 0.  1.
<mgrwt>
<rscale>  0 0.23689259E+04</rscale>
<asrwt>0</asrwt>
<pdfrwt beam="1">  1        2 0.56187571E+00 0.23689259E+04</pdfrwt>
<pdfrwt beam="2">  1       -1 0.59098434E-01 0.23689259E+04</pdfrwt>
<totfact> 0.18889533E+00</totfact>
</mgrwt>
</event>
<event>
12    6  0.1462228E-007  0.1264242E+04  0.7818608E-02  0.9058412E-01
         -1   -1    0    0    0  501 -0.00000000000E+00  0.00000000000E+00  0.27351290354E+03  0.27351290354E+03  0.00000000000E+00 0.  1.
          2   -1    0    0  501    0  0.00000000000E+00 -0.00000000000E+00 -0.14609074346E+04  0.14609074346E+04  0.00000000000E+00 0. -1.
         24    2    1    2    0    0  0.24631078075E+03  0.59821804908E+02 -0.52717263564E+03  0.59042707942E+03  0.80283866936E+02 0.  0.
        254    2    1    2    0    0 -0.24631078075E+03 -0.59821804908E+02 -0.66022189546E+03  0.11439932588E+04  0.89921075159E+03 0.  0.
         23    2    4    4    0    0  0.62893058931E+02 -0.23845308090E+03  0.11404768944E+03  0.28648692775E+03  0.90843137612E+02 0.  0.
         23    2    4    4    0    0 -0.30920383968E+03  0.17863127599E+03 -0.77426958490E+03  0.85750633100E+03  0.91145874134E+02 0.  0.
          4    1    3    3  502    0  0.16707860692E+03  0.66209509986E+02 -0.42133436839E+03  0.45806288880E+03  0.00000000000E+00 0. -1.
         -3    1    3    3    0  502  0.79232173831E+02 -0.63877050779E+01 -0.10583826725E+03  0.13236419063E+03  0.00000000000E+00 0.  1.
         11    1    5    5    0    0  0.82516152554E+02 -0.15909003287E+03  0.62317243184E+02  0.18974191100E+03  0.00000000000E+00 0. -1.
        -11    1    5    5    0    0 -0.19623093624E+02 -0.79363048030E+02  0.51730446259E+02  0.96745016751E+02  0.00000000000E+00 0.  1.
          4    1    6    6  503    0 -0.30283443532E+03  0.14798240542E+03 -0.70063452576E+03  0.77749355381E+03  0.00000000000E+00 0. -1.
         -4    1    6    6    0  503 -0.63694043552E+01  0.30648870569E+02 -0.73635059140E+02  0.80012777189E+02  0.00000000000E+00 0.  1.
<mgrwt>
<rscale>  0 0.12642421E+04</rscale>
<asrwt>0</asrwt>
<pdfrwt beam="1">  1        2 0.22475499E+00 0.12642421E+04</pdfrwt>
<pdfrwt beam="2">  1       -1 0.42078908E-01 0.12642421E+04</pdfrwt>
<totfact> 0.82951354E+01</totfact>
</mgrwt>
</event>
<event>
12    6  0.1462228E-007  0.2350769E+04  0.7818608E-02  0.8458168E-01
         -1   -1    0    0    0  501 -0.00000000000E+00  0.00000000000E+00  0.80208590205E+03  0.80208590205E+03  0.00000000000E+00 0.  1.
          2   -1    0    0  501    0  0.00000000000E+00 -0.00000000000E+00 -0.17224199170E+04  0.17224199170E+04  0.00000000000E+00 0. -1.
         24    2    1    2    0    0  0.74655007306E+03  0.57428639496E+03 -0.75878139506E+03  0.12121473101E+04  0.80062605705E+02 0.  0.
        254    2    1    2    0    0 -0.74655007306E+03 -0.57428639496E+03 -0.16155261990E+03  0.13123585090E+04  0.89946858313E+03 0.  0.
         23    2    4    4    0    0 -0.21418129476E+03  0.21856775149E+03  0.67673399245E+02  0.32630202033E+03  0.90817567100E+02 0.  0.
         23    2    4    4    0    0 -0.53236877830E+03 -0.79285414645E+03 -0.22922601914E+03  0.98605648863E+03  0.87912554701E+02 0.  0.
          4    1    3    3  502    0  0.54822196871E+03  0.43552876641E+03 -0.60530883406E+03  0.92554384982E+03  0.00000000000E+00 0. -1.
         -3    1    3    3    0  502  0.19832810435E+03  0.13875762856E+03 -0.15347256100E+03  0.28660346027E+03  0.00000000000E+00 0.  1.
         11    1    5    5    0    0 -0.92456247498E+02  0.91912194588E+02 -0.16681914718E+02  0.13143171419E+03  0.00000000000E+00 0. -1.
        -11    1    5    5    0    0 -0.12172504726E+03  0.12665555690E+03  0.84355313963E+02  0.19487030615E+03  0.00000000000E+00 0.  1.
          2    1    6    6  503    0 -0.85202210213E+02 -0.10397139946E+03 -0.61460022507E+02  0.14780664023E+03  0.00000000000E+00 0. -1.
         -2    1    6    6    0  503 -0.44716656809E+03 -0.68888274699E+03 -0.16776599663E+03  0.83824984840E+03  0.00000000000E+00 0.  1.
<mgrwt>
<rscale>  0 0.23507690E+04</rscale>
<asrwt>0</asrwt>
<pdfrwt beam="1">  1        2 0.26498768E+00 0.23507690E+04</pdfrwt>
<pdfrwt beam="2">  1       -1 0.12339783E+00 0.23507690E+04</pdfrwt>
<totfact> 0.56607066E+00</totfact>
</mgrwt>
</event>
<event>
12    6  0.1462228E-007  0.1830777E+04  0.7818608E-02  0.8690102E-01
          2   -1    0    0  501    0  0.00000000000E+00  0.00000000000E+00  0.82909154014E+03  0.82909154014E+03  0.00000000000E+00 0. -1.
         -1   -1    0    0    0  501 -0.00000000000E+00 -0.00000000000E+00 -0.10106679075E+04  0.10106679075E+04  0.00000000000E+00 0.  1.
         24    2    1    2    0    0 -0.37109490771E+03 -0.36184514332E+03 -0.52315325548E+03  0.74087161243E+03  0.80981967776E+02 0.  0.
        254    2    1    2    0    0  0.37109490771E+03  0.36184514332E+03  0.34157688809E+03  0.10988878352E+04  0.90677249941E+03 0.  0.
         23    2    4    4    0    0  0.24914628386E+03  0.39091268893E+03  0.62003685865E+03  0.77956959780E+03  0.91632148308E+02 0.  0.
         23    2    4    4    0    0  0.12194862385E+03 -0.29067545610E+02 -0.27845997056E+03  0.31931823744E+03  0.93315553298E+02 0.  0.
          4    1    3    3  502    0 -0.62547490999E+02 -0.28809726798E+02 -0.90613425007E+02  0.11381116720E+03  0.00000000000E+00 0. -1.
         -3    1    3    3    0  502 -0.30854741671E+03 -0.33303541652E+03 -0.43253983048E+03  0.62706044523E+03  0.00000000000E+00 0.  1.
         11    1    5    5    0    0  0.12950754514E+03  0.26570888602E+03  0.34227026298E+03  0.45224147231E+03  0.00000000000E+00 0.  1.
        -11    1    5    5    0    0  0.11963873872E+03  0.12520380291E+03  0.27776659568E+03  0.32732812549E+03  0.00000000000E+00 0. -1.
          4    1    6    6  503    0  0.11550829562E+03  0.93359942864E+01 -0.18820474663E+03  0.22102116143E+03  0.00000000000E+00 0. -1.
         -4    1    6    6    0  503  0.64403282316E+01 -0.38403539896E+02 -0.90255223927E+02  0.98297076002E+02  0.00000000000E+00 0.  1.
<mgrwt>
<rscale>  0 0.18307771E+04</rscale>
<asrwt>0</asrwt>
<pdfrwt beam="1">  1        2 0.12755255E+00 0.18307771E+04</pdfrwt>
<pdfrwt beam="2">  1       -1 0.15548737E+00 0.18307771E+04</pdfrwt>
<totfact> 0.11165901E+01</totfact>
</mgrwt>
</event>
<event>
12    6  0.1462228E-007  0.1400338E+04  0.7818608E-02  0.8953574E-01
         -1   -1    0    0    0  501 -0.00000000000E+00  0.00000000000E+00  0.24737367484E+04  0.24737367484E+04  0.00000000000E+00 0.  1.
          2   -1    0    0  501    0  0.00000000000E+00 -0.00000000000E+00 -0.19817654971E+03  0.19817654971E+03  0.00000000000E+00 0. -1.
         24    2    1    2    0    0  0.26194636480E+03  0.31957534085E+03  0.73759833255E+03  0.84930941304E+03  0.80813874923E+02 0.  0.
        254    2    1    2    0    0 -0.26194636480E+03 -0.31957534085E+03  0.15379618661E+04  0.18226038851E+04  0.88646146204E+03 0.  0.
         23    2    4    4    0    0 -0.16860395160E+03  0.11447280879E+03  0.12833478591E+04  0.13025749571E+04  0.90490192127E+02 0.  0.
         23    2    4    4    0    0 -0.93342413202E+02 -0.43404814964E+03  0.25461400698E+03  0.52002892796E+03  0.92147658960E+02 0.  0.
          2    1    3    3  502    0  0.79022936190E+02  0.11674206522E+03  0.32781191563E+03  0.35683887998E+03  0.00000000000E+00 0. -1.
         -1    1    3    3    0  502  0.18292342861E+03  0.20283327563E+03  0.40978641692E+03  0.49247053306E+03  0.00000000000E+00 0.  1.
         11    1    5    5    0    0 -0.56012041983E+02  0.72088531864E+02  0.35875819463E+03  0.37019123097E+03  0.00000000000E+00 0. -1.
        -11    1    5    5    0    0 -0.11259190961E+03  0.42384276924E+02  0.92458966450E+03  0.93238372613E+03  0.00000000000E+00 0.  1.
          1    1    6    6  503    0 -0.78245537460E+02 -0.41831711028E+03  0.25843155518E+03  0.49789400237E+03  0.00000000000E+00 0. -1.
         -1    1    6    6    0  503 -0.15096875742E+02 -0.15731039362E+02 -0.38175481937E+01  0.22134925589E+02  0.00000000000E+00 0.  1.
<mgrwt>
<rscale>  0 0.14003380E+04</rscale>
<asrwt>0</asrwt>
<pdfrwt beam="1">  1        2 0.30488702E-01 0.14003380E+04</pdfrwt>
<pdfrwt beam="2">  1       -1 0.38057486E+00 0.14003380E+04</pdfrwt>
<totfact> 0.19080583E+00</totfact>
</mgrwt>
</event>
<event>
12    6  0.1462228E-007  0.2037256E+04  0.7818608E-02  0.8589398E-01
         -1   -1    0    0    0  501 -0.00000000000E+00  0.00000000000E+00  0.60623837753E+03  0.60623837753E+03  0.00000000000E+00 0.  1.
          2   -1    0    0  501    0  0.00000000000E+00 -0.00000000000E+00 -0.17115429213E+04  0.17115429213E+04  0.00000000000E+00 0. -1.
         24    2    1    2    0    0  0.27670719448E+03  0.51221720160E+03 -0.10953597442E+04  0.12429603440E+04  0.78766201295E+02 0.  0.
        254    2    1    2    0    0 -0.27670719448E+03 -0.51221720160E+03 -0.99447995787E+01  0.10748209548E+04  0.90344222440E+03 0.  0.
         23    2    4    4    0    0 -0.60041452141E+03 -0.30181195587E+03 -0.15903549256E+02  0.67843294631E+03  0.91816586356E+02 0.  0.
         23    2    4    4    0    0  0.32370732693E+03 -0.21040524573E+03  0.59587496773E+01  0.39638800853E+03  0.89616659571E+02 0.  0.
          4    1    3    3  502    0  0.24770242226E+03  0.41944286897E+03 -0.86108981472E+03  0.98932526468E+03  0.00000000000E+00 0. -1.
         -3    1    3    3    0  502  0.29004772223E+02  0.92774332635E+02 -0.23426992944E+03  0.25363507929E+03  0.00000000000E+00 0.  1.
         11    1    5    5    0    0 -0.34342463045E+03 -0.22279527757E+03 -0.70438560362E+01  0.40942377607E+03  0.00000000000E+00 0. -1.
        -11    1    5    5    0    0 -0.25698989096E+03 -0.79016678300E+02 -0.88596932197E+01  0.26900917023E+03  0.00000000000E+00 0.  1.
          2    1    6    6  503    0  0.13381372999E+03 -0.36168967820E+02  0.34864760321E+01  0.13865952575E+03  0.00000000000E+00 0. -1.
         -2    1    6    6    0  503  0.18989359693E+03 -0.17423627791E+03  0.24722736452E+01  0.25772848278E+03  0.00000000000E+00 0.  1.
<mgrwt>
<rscale>  0 0.20372560E+04</rscale>
<asrwt>0</asrwt>
<pdfrwt beam="1">  1        2 0.26331429E+00 0.20372560E+04</pdfrwt>
<pdfrwt beam="2">  1       -1 0.93267445E-01 0.20372560E+04</pdfrwt>
<totfact> 0.11374424E+01</totfact>
</mgrwt>
</event>
<event>
12    6  0.1462228E-007  0.1903710E+04  0.7818608E-02  0.8653012E-01
         -1   -1    0    0    0  501 -0.00000000000E+00  0.00000000000E+00  0.77271659054E+03  0.77271659054E+03  0.00000000000E+00 0.  1.
          2   -1    0    0  501    0  0.00000000000E+00 -0.00000000000E+00 -0.11725229033E+04  0.11725229033E+04  0.00000000000E+00 0. -1.
         24    2    1    2    0    0  0.16858346815E+03  0.35428708185E+03  0.48170336521E+03  0.62594615894E+03  0.76359280601E+02 0.  0.
        254    2    1    2    0    0 -0.16858346815E+03 -0.35428708185E+03 -0.88150967802E+03  0.13192933349E+04  0.89974211255E+03 0.  0.
         23    2    4    4    0    0 -0.32615714951E+03  0.18315557998E+03 -0.51635312339E+03  0.64446764245E+03  0.93773884859E+02 0.  0.
         23    2    4    4    0    0  0.15757368136E+03 -0.53744266183E+03 -0.36515655463E+03  0.67482569250E+03  0.91522270812E+02 0.  0.
          4    1    3    3  502    0  0.75004791297E+02  0.96726293677E+02  0.11321437531E+03  0.16673088911E+03  0.00000000000E+00 0. -1.
         -3    1    3    3    0  502  0.93578676850E+02  0.25756078817E+03  0.36848898991E+03  0.45921526983E+03  0.00000000000E+00 0.  1.
         11    1    5    5    0    0 -0.22090089455E+03  0.86577222203E+02 -0.37318732157E+03  0.44222347020E+03  0.00000000000E+00 0.  1.
        -11    1    5    5    0    0 -0.10525625496E+03  0.96578357777E+02 -0.14316580182E+03  0.20224417225E+03  0.00000000000E+00 0. -1.
          1    1    6    6  503    0 -0.20107842533E+01 -0.37340689697E+02 -0.39268798805E+01  0.37600408854E+02  0.00000000000E+00 0. -1.
         -1    1    6    6    0  503  0.15958446561E+03 -0.50010197213E+03 -0.36122967475E+03  0.63722528364E+03  0.00000000000E+00 0.  1.
<mgrwt>
<rscale>  0 0.19037100E+04</rscale>
<asrwt>0</asrwt>
<pdfrwt beam="1">  1        2 0.18038814E+00 0.19037100E+04</pdfrwt>
<pdfrwt beam="2">  1       -1 0.11887948E+00 0.19037100E+04</pdfrwt>
<totfact> 0.13307907E+01</totfact>
</mgrwt>
</event>
<event>
12    6  0.1462228E-007  0.1114445E+04  0.7818608E-02  0.9191226E-01
          2   -1    0    0  501    0  0.00000000000E+00  0.00000000000E+00  0.15613751981E+03  0.15613751981E+03  0.00000000000E+00 0. -1.
         -1   -1    0    0    0  501 -0.00000000000E+00 -0.00000000000E+00 -0.19886133977E+04  0.19886133977E+04  0.00000000000E+00 0.  1.
         24    2    1    2    0    0  0.46064947897E+01  0.69698018429E+02 -0.67900688092E+03  0.68694216530E+03  0.77202076185E+02 0.  0.
        254    2    1    2    0    0 -0.46064947897E+01 -0.69698018429E+02 -0.11534689970E+04  0.14578087522E+04  0.88872751586E+03 0.  0.
         23    2    4    4    0    0 -0.54250601213E+02 -0.42395149515E+03 -0.92645475496E+03  0.10243722822E+04  0.91335434481E+02 0.  0.
         23    2    4    4    0    0  0.49644106423E+02  0.35425347672E+03 -0.22701424199E+03  0.43343646997E+03  0.91496690466E+02 0.  0.
          2    1    3    3  502    0  0.16701059469E+01 -0.50699206037E+00  0.18067286919E+01  0.25120834758E+01  0.00000000000E+00 0. -1.
         -1    1    3    3    0  502  0.29363888429E+01  0.70205010489E+02 -0.68081360961E+03  0.68443008183E+03  0.00000000000E+00 0.  1.
         11    1    5    5    0    0 -0.30550557818E+02 -0.30566841906E+03 -0.56207428090E+03  0.64054197071E+03  0.00000000000E+00 0. -1.
        -11    1    5    5    0    0 -0.23700043395E+02 -0.11828307609E+03 -0.36438047406E+03  0.38383031150E+03  0.00000000000E+00 0.  1.
          1    1    6    6  503    0  0.67918159420E+02  0.25959434190E+03 -0.13588995354E+03  0.30077928485E+03  0.00000000000E+00 0.  1.
         -1    1    6    6    0  503 -0.18274052997E+02  0.94659134824E+02 -0.91124288452E+02  0.13265718512E+03  0.00000000000E+00 0. -1.
<mgrwt>
<rscale>  0 0.11144454E+04</rscale>
<asrwt>0</asrwt>
<pdfrwt beam="1">  1        2 0.24021156E-01 0.11144454E+04</pdfrwt>
<pdfrwt beam="2">  1       -1 0.30594053E+00 0.11144454E+04</pdfrwt>
<totfact> 0.79844930E+00</totfact>
</mgrwt>
</event>
<event>
12    6  0.1462228E-007  0.1746656E+04  0.7818608E-02  0.8735193E-01
          2   -1    0    0  501    0  0.00000000000E+00  0.00000000000E+00  0.26122652600E+04  0.26122652600E+04  0.00000000000E+00 0. -1.
         -1   -1    0    0    0  501 -0.00000000000E+00 -0.00000000000E+00 -0.29196960969E+03  0.29196960969E+03  0.00000000000E+00 0.  1.
         24    2    1    2    0    0  0.23800009310E+03  0.46827734015E+03  0.36482991341E+03  0.64467986745E+03  0.81139103805E+02 0.  0.
        254    2    1    2    0    0 -0.23800009310E+03 -0.46827734015E+03  0.19554657369E+04  0.22595550023E+04  0.10029032099E+04 0.  0.
         23    2    4    4    0    0 -0.11070805385E+03  0.30474271869E+03  0.48180965162E+03  0.58816552991E+03  0.93132982359E+02 0.  0.
         23    2    4    4    0    0 -0.12729203925E+03 -0.77302005884E+03  0.14736560853E+04  0.16713894724E+04  0.90095704218E+02 0.  0.
          4    1    3    3  502    0  0.95088052103E+02  0.14011339221E+03  0.15625471018E+03  0.23041057872E+03  0.00000000000E+00 0. -1.
         -3    1    3    3    0  502  0.14291204100E+03  0.32816394794E+03  0.20857520322E+03  0.41426928874E+03  0.00000000000E+00 0.  1.
         11    1    5    5    0    0 -0.18052903431E+02  0.15130656996E+03  0.16830010137E+03  0.22703415945E+03  0.00000000000E+00 0. -1.
        -11    1    5    5    0    0 -0.92655150415E+02  0.15343614873E+03  0.31350955025E+03  0.36113137046E+03  0.00000000000E+00 0.  1.
          1    1    6    6  503    0 -0.80329673476E+02 -0.29826655080E+03  0.64682804495E+03  0.71680004988E+03  0.00000000000E+00 0. -1.
         -1    1    6    6    0  503 -0.46962365777E+02 -0.47475350804E+03  0.82682804037E+03  0.95458942250E+03  0.00000000000E+00 0.  1.
<mgrwt>
<rscale>  0 0.17466563E+04</rscale>
<asrwt>0</asrwt>
<pdfrwt beam="1">  1        2 0.40188695E+00 0.17466563E+04</pdfrwt>
<pdfrwt beam="2">  1       -1 0.44918403E-01 0.17466563E+04</pdfrwt>
<totfact> 0.15908381E+01</totfact>
</mgrwt>
</event>
<event>
12    6  0.1462228E-007  0.1911494E+04  0.7818608E-02  0.8649156E-01
          2   -1    0    0  501    0  0.00000000000E+00  0.00000000000E+00  0.22776239411E+04  0.22776239411E+04  0.00000000000E+00 0. -1.
         -1   -1    0    0    0  501 -0.00000000000E+00 -0.00000000000E+00 -0.40105508953E+03  0.40105508953E+03  0.00000000000E+00 0.  1.
         24    2    1    2    0    0  0.31515688698E+02  0.73780693469E+03  0.62124147878E+03  0.96827798997E+03  0.79176886814E+02 0.  0.
        254    2    1    2    0    0 -0.31515688698E+02 -0.73780693469E+03  0.12553273727E+04  0.17104010406E+04  0.89681246395E+03 0.  0.
         23    2    4    4    0    0 -0.28520742060E+03 -0.76201234807E+03  0.11678896703E+04  0.14263440185E+04  0.92113439829E+02 0.  0.
         23    2    4    4    0    0  0.25369173190E+03  0.24205413384E+02  0.87437702453E+02  0.28405702211E+03  0.89986905310E+02 0.  0.
          2    1    3    3  502    0 -0.15118720044E+02  0.11468777752E+03  0.12521547999E+03  0.17047222189E+03  0.00000000000E+00 0. -1.
         -1    1    3    3    0  502  0.46634408742E+02  0.62311915717E+03  0.49602599879E+03  0.79780576808E+03  0.00000000000E+00 0.  1.
         11    1    5    5    0    0 -0.16435500647E+03 -0.55693726737E+03  0.81730922826E+03  0.10025896781E+04  0.00000000000E+00 0. -1.
        -11    1    5    5    0    0 -0.12085241412E+03 -0.20507508070E+03  0.35058044203E+03  0.42375434046E+03  0.00000000000E+00 0.  1.
          2    1    6    6  503    0  0.12664862482E+03  0.55151697209E+02  0.59187533594E+02  0.15028222785E+03  0.00000000000E+00 0. -1.
         -2    1    6    6    0  503  0.12704310708E+03 -0.30946283825E+02  0.28250168859E+02  0.13377479426E+03  0.00000000000E+00 0.  1.
<mgrwt>
<rscale>  0 0.19114944E+04</rscale>
<asrwt>0</asrwt>
<pdfrwt beam="1">  1        2 0.35040367E+00 0.19114944E+04</pdfrwt>
<pdfrwt beam="2">  1       -1 0.61700784E-01 0.19114944E+04</pdfrwt>
<totfact> 0.13252641E+01</totfact>
</mgrwt>
</event>
<event>
12    6  0.1462228E-007  0.2344266E+04  0.7818608E-02  0.8460670E-01
          2   -1    0    0  501    0  0.00000000000E+00  0.00000000000E+00  0.14782036963E+04  0.14782036963E+04  0.00000000000E+00 0. -1.
         -1   -1    0    0    0  501 -0.00000000000E+00 -0.00000000000E+00 -0.92943566259E+03  0.92943566259E+03  0.00000000000E+00 0.  1.
         24    2    1    2    0    0 -0.19924702923E+03 -0.71445377258E+03  0.91392868830E+03  0.11797658926E+04  0.80239280535E+02 0.  0.
        254    2    1    2    0    0  0.19924702923E+03  0.71445377258E+03 -0.36516065455E+03  0.12278734664E+04  0.90784766013E+03 0.  0.
         23    2    4    4    0    0 -0.24614664921E+03  0.33099564276E+03 -0.46132689071E+03  0.62560654372E+03  0.91731995491E+02 0.  0.
         23    2    4    4    0    0  0.44539367844E+03  0.38345812982E+03  0.96166236166E+02  0.60226692266E+03  0.89787722087E+02 0.  0.
          2    1    3    3  502    0 -0.38069396290E+02 -0.19388511185E+03  0.29576128196E+03  0.35569010590E+03  0.00000000000E+00 0. -1.
         -1    1    3    3    0  502 -0.16117763294E+03 -0.52056866073E+03  0.61816740634E+03  0.82407578665E+03  0.00000000000E+00 0.  1.
         11    1    5    5    0    0 -0.21644229549E+03  0.31173735298E+03 -0.38069890045E+03  0.53754915806E+03  0.00000000000E+00 0. -1.
        -11    1    5    5    0    0 -0.29704353723E+02  0.19258289779E+02 -0.80627990262E+02  0.88057385658E+02  0.00000000000E+00 0.  1.
          2    1    6    6  503    0  0.39956005634E+03  0.30281275498E+03  0.72708703817E+02  0.50658697063E+03  0.00000000000E+00 0. -1.
         -2    1    6    6    0  503  0.45833622102E+02  0.80645374832E+02  0.23457532349E+02  0.95679952031E+02  0.00000000000E+00 0.  1.
<mgrwt>
<rscale>  0 0.23442655E+04</rscale>
<asrwt>0</asrwt>
<pdfrwt beam="1">  1        2 0.22741595E+00 0.23442655E+04</pdfrwt>
<pdfrwt beam="2">  1       -1 0.14299010E+00 0.23442655E+04</pdfrwt>
<totfact> 0.53286475E+00</totfact>
</mgrwt>
</event>
<event>
12    6  0.1462228E-007  0.1965767E+04  0.7818608E-02  0.8622795E-01
         -1   -1    0    0    0  501 -0.00000000000E+00  0.00000000000E+00  0.61403945254E+03  0.61403945254E+03  0.00000000000E+00 0.  1.
          2   -1    0    0  501    0  0.00000000000E+00 -0.00000000000E+00 -0.15732869967E+04  0.15732869967E+04  0.00000000000E+00 0. -1.
         24    2    1    2    0    0 -0.41176430215E+03 -0.11416487206E+03  0.33915421460E+03  0.55136906575E+03  0.79992542410E+02 0.  0.
        254    2    1    2    0    0  0.41176430215E+03  0.11416487206E+03 -0.12984017588E+04  0.16359573835E+04  0.89884702529E+03 0.  0.
         23    2    4    4    0    0  0.17588143970E+03 -0.47070044785E+02 -0.13204586176E+04  0.13356605778E+04  0.85019693041E+02 0.  0.
         23    2    4    4    0    0  0.23588286246E+03  0.16123491684E+03  0.22056858849E+02  0.30029680572E+03  0.89745436079E+02 0.  0.
          4    1    3    3  502    0 -0.10109678199E+03  0.50055212881E+01  0.65629206629E+02  0.12063501703E+03  0.00000000000E+00 0. -1.
         -3    1    3    3    0  502 -0.31066752017E+03 -0.11917039334E+03  0.27352500797E+03  0.43073404872E+03  0.00000000000E+00 0.  1.
         11    1    5    5    0    0  0.26257299020E+01  0.13191969428E+02 -0.41795365532E+02  0.43906435689E+02  0.00000000000E+00 0.  1.
        -11    1    5    5    0    0  0.17325570980E+03 -0.60262014213E+02 -0.12786632521E+04  0.12917541421E+04  0.00000000000E+00 0. -1.
          4    1    6    6  503    0  0.16885889961E+03  0.15973126608E+03  0.16270373102E+02  0.23300671746E+03  0.00000000000E+00 0. -1.
         -4    1    6    6    0  503  0.67023962843E+02  0.15036507587E+01  0.57864857469E+01  0.67290088260E+02  0.00000000000E+00 0.  1.
<mgrwt>
<rscale>  0 0.19657673E+04</rscale>
<asrwt>0</asrwt>
<pdfrwt beam="1">  1        2 0.24204415E+00 0.19657673E+04</pdfrwt>
<pdfrwt beam="2">  1       -1 0.94467609E-01 0.19657673E+04</pdfrwt>
<totfact> 0.13284715E+01</totfact>
</mgrwt>
</event>
<event>
12    6  0.1462228E-007  0.2317825E+04  0.7818608E-02  0.8470926E-01
         -1   -1    0    0    0  501 -0.00000000000E+00  0.00000000000E+00  0.97242170309E+03  0.97242170309E+03  0.00000000000E+00 0.  1.
          2   -1    0    0  501    0  0.00000000000E+00 -0.00000000000E+00 -0.13811681190E+04  0.13811681190E+04  0.00000000000E+00 0. -1.
         24    2    1    2    0    0  0.96784369340E+03  0.63736921516E+02 -0.25423392751E+02  0.97352901593E+03  0.79552409955E+02 0.  0.
        254    2    1    2    0    0 -0.96784369340E+03 -0.63736921516E+02 -0.38332302316E+03  0.13800608062E+04  0.90379614882E+03 0.  0.
         23    2    4    4    0    0 -0.78520470872E+02  0.69243172443E+02 -0.45276781014E+03  0.47366644379E+03  0.91657671790E+02 0.  0.
         23    2    4    4    0    0 -0.88932322253E+03 -0.13298009396E+03  0.69444786979E+02  0.90639436238E+03  0.90269940719E+02 0.  0.
          2    1    3    3  502    0  0.65701848915E+03  0.11523122838E+02 -0.36738507203E+02  0.65814572502E+03  0.00000000000E+00 0. -1.
         -1    1    3    3    0  502  0.31082520425E+03  0.52213798678E+02  0.11315114452E+02  0.31538329091E+03  0.00000000000E+00 0.  1.
         11    1    5    5    0    0 -0.52020810529E+02  0.53586687931E+02 -0.13392500124E+03  0.15334146148E+03  0.00000000000E+00 0. -1.
        -11    1    5    5    0    0 -0.26499660342E+02  0.15656484513E+02 -0.31884280889E+03  0.32032498230E+03  0.00000000000E+00 0.  1.
          1    1    6    6  503    0 -0.65936273739E+03 -0.13449253120E+03  0.68604099518E+02  0.67642736704E+03  0.00000000000E+00 0. -1.
         -1    1    6    6    0  503 -0.22996048514E+03  0.15124372369E+01  0.84068746051E+00  0.22996699534E+03  0.00000000000E+00 0.  1.
<mgrwt>
<rscale>  0 0.23178247E+04</rscale>
<asrwt>0</asrwt>
<pdfrwt beam="1">  1        2 0.21248740E+00 0.23178247E+04</pdfrwt>
<pdfrwt beam="2">  1       -1 0.14960334E+00 0.23178247E+04</pdfrwt>
<totfact> 0.53777668E+00</totfact>
</mgrwt>
</event>
<event>
12    6  0.1462228E-007  0.1195571E+04  0.7818608E-02  0.9116742E-01
          2   -1    0    0  501    0  0.00000000000E+00  0.00000000000E+00  0.69484754068E+03  0.69484754068E+03  0.00000000000E+00 0. -1.
         -3   -1    0    0    0  501 -0.00000000000E+00 -0.00000000000E+00 -0.51428153428E+03  0.51428153428E+03  0.00000000000E+00 0.  1.
         24    2    1    2    0    0 -0.14925814528E+03 -0.18764712150E+03 -0.43209747861E+02  0.25577916730E+03  0.77887508453E+02 0.  0.
        254    2    1    2    0    0  0.14925814528E+03  0.18764712150E+03  0.22377575426E+03  0.95334990766E+03  0.89515977462E+03 0.  0.
         23    2    4    4    0    0  0.46427627458E+03  0.29857935505E+03  0.40130541222E+02  0.56102209547E+03  0.91832678605E+02 0.  0.
         23    2    4    4    0    0 -0.31501812930E+03 -0.11093223355E+03  0.18364521304E+03  0.39232781219E+03  0.93022393615E+02 0.  0.
          2    1    3    3  502    0 -0.50974797720E+02 -0.15238266044E+02 -0.29769845526E+01  0.53286932654E+02  0.00000000000E+00 0. -1.
         -1    1    3    3    0  502 -0.98283347562E+02 -0.17240885546E+03 -0.40232763309E+02  0.20249223464E+03  0.00000000000E+00 0.  1.
         11    1    5    5    0    0  0.56702277624E+02  0.36021889221E+02 -0.25343367510E+02  0.71798405745E+02  0.00000000000E+00 0. -1.
        -11    1    5    5    0    0  0.40757399696E+03  0.26255746583E+03  0.65473908731E+02  0.48922368972E+03  0.00000000000E+00 0.  1.
          1    1    6    6  503    0 -0.61020881499E+02  0.15234854118E+02  0.28368590346E+02  0.68995838115E+02  0.00000000000E+00 0. -1.
         -1    1    6    6    0  503 -0.25399724780E+03 -0.12616708767E+03  0.15527662269E+03  0.32333197407E+03  0.00000000000E+00 0.  1.
<mgrwt>
<rscale>  0 0.11955706E+04</rscale>
<asrwt>0</asrwt>
<pdfrwt beam="1">  1        2 0.10689962E+00 0.11955706E+04</pdfrwt>
<pdfrwt beam="2">  1       -3 0.79120236E-01 0.11955706E+04</pdfrwt>
<totfact> 0.38506681E+01</totfact>
</mgrwt>
</event>
<event>
12    6  0.1462228E-007  0.1454855E+04  0.7818608E-02  0.8915042E-01
         -1   -1    0    0    0  501 -0.00000000000E+00  0.00000000000E+00  0.68188306621E+03  0.68188306621E+03  0.00000000000E+00 0.  1.
          2   -1    0    0  501    0  0.00000000000E+00 -0.00000000000E+00 -0.77601351518E+03  0.77601351518E+03  0.00000000000E+00 0. -1.
         24    2    1    2    0    0 -0.10167085169E+03 -0.37599043617E+03  0.18642674358E+03  0.43908199633E+03  0.79575741286E+02 0.  0.
        254    2    1    2    0    0  0.10167085169E+03  0.37599043617E+03 -0.28055719256E+03  0.10188145851E+04  0.89864623198E+03 0.  0.
         23    2    4    4    0    0 -0.11090854959E+03  0.36579665884E+03  0.23210311603E+03  0.45639940016E+03  0.91217618926E+02 0.  0.
         23    2    4    4    0    0  0.21257940128E+03  0.10193777333E+02 -0.51266030858E+03  0.56241518490E+03  0.90533602975E+02 0.  0.
          2    1    3    3  502    0 -0.12877072834E+02 -0.53608308114E+02  0.60283866698E+02  0.81693416428E+02  0.00000000000E+00 0. -1.
         -1    1    3    3    0  502 -0.88793778858E+02 -0.32238212806E+03  0.12614287688E+03  0.35738857990E+03  0.00000000000E+00 0.  1.
         11    1    5    5    0    0 -0.49159385860E+02  0.18813178011E+03  0.65645918447E+02  0.20523059839E+03  0.00000000000E+00 0. -1.
        -11    1    5    5    0    0 -0.61749163728E+02  0.17766487873E+03  0.16645719758E+03  0.25116880177E+03  0.00000000000E+00 0.  1.
          3    1    6    6  503    0  0.13636275878E+03 -0.36683948826E+02 -0.33307842099E+03  0.36177582646E+03  0.00000000000E+00 0. -1.
         -3    1    6    6    0  503  0.76216642505E+02  0.46877726158E+02 -0.17958188760E+03  0.20063935845E+03  0.00000000000E+00 0.  1.
<mgrwt>
<rscale>  0 0.14548546E+04</rscale>
<asrwt>0</asrwt>
<pdfrwt beam="1">  1        2 0.11938670E+00 0.14548546E+04</pdfrwt>
<pdfrwt beam="2">  1       -1 0.10490509E+00 0.14548546E+04</pdfrwt>
<totfact> 0.33882385E+01</totfact>
</mgrwt>
</event>
<event>
12    6  0.1462228E-007  0.1550264E+04  0.7818608E-02  0.8851699E-01
         -1   -1    0    0    0  501 -0.00000000000E+00  0.00000000000E+00  0.33821139659E+03  0.33821139659E+03  0.00000000000E+00 0.  1.
          2   -1    0    0  501    0  0.00000000000E+00 -0.00000000000E+00 -0.17764916129E+04  0.17764916129E+04  0.00000000000E+00 0. -1.
         24    2    1    2    0    0  0.52115023114E+02 -0.47144600447E+03 -0.20968544355E+03  0.52445921228E+03  0.78180364163E+02 0.  0.
        254    2    1    2    0    0 -0.52115023114E+02  0.47144600447E+03 -0.12285947727E+04  0.15902437972E+04  0.89132087832E+03 0.  0.
         23    2    4    4    0    0  0.38702093863E+03  0.37973159871E+03 -0.69949552031E+03  0.88972067593E+03  0.91255708006E+02 0.  0.
         23    2    4    4    0    0 -0.43913596175E+03  0.91714405761E+02 -0.52909925244E+03  0.70052312126E+03  0.97645785223E+02 0.  0.
          2    1    3    3  502    0  0.50134015790E+02 -0.19018162498E+03 -0.58839319205E+02  0.20529134299E+03  0.00000000000E+00 0. -1.
         -1    1    3    3    0  502  0.19810073238E+01 -0.28126437949E+03 -0.15084612434E+03  0.31916786929E+03  0.00000000000E+00 0.  1.
         11    1    5    5    0    0  0.36523818918E+03  0.36900635391E+03 -0.69029822141E+03  0.86375705991E+03  0.00000000000E+00 0.  1.
        -11    1    5    5    0    0  0.21782749454E+02  0.10725244804E+02 -0.91972988993E+01  0.25963616022E+02  0.00000000000E+00 0. -1.
          1    1    6    6  503    0 -0.24816563895E+03  0.75794585804E+02 -0.23857708161E+03  0.35249117359E+03  0.00000000000E+00 0. -1.
         -1    1    6    6    0  503 -0.19097032280E+03  0.15919819957E+02 -0.29052217083E+03  0.34803194767E+03  0.00000000000E+00 0.  1.
<mgrwt>
<rscale>  0 0.15502641E+04</rscale>
<asrwt>0</asrwt>
<pdfrwt beam="1">  1        2 0.27330640E+00 0.15502641E+04</pdfrwt>
<pdfrwt beam="2">  1       -1 0.52032523E-01 0.15502641E+04</pdfrwt>
<totfact> 0.36262227E+01</totfact>
</mgrwt>
</event>
<event>
12    6  0.1462228E-007  0.1177285E+04  0.7818608E-02  0.9132975E-01
          2   -1    0    0  501    0  0.00000000000E+00  0.00000000000E+00  0.93000477895E+03  0.93000477895E+03  0.00000000000E+00 0. -1.
         -1   -1    0    0    0  501 -0.00000000000E+00 -0.00000000000E+00 -0.37257858548E+03  0.37257858548E+03  0.00000000000E+00 0.  1.
         24    2    1    2    0    0  0.22326038584E+03  0.80576850915E+02  0.98804965027E+02  0.26994095949E+03  0.82267075479E+02 0.  0.
        254    2    1    2    0    0 -0.22326038584E+03 -0.80576850915E+02  0.45862122844E+03  0.10326424049E+04  0.89424777132E+03 0.  0.
         23    2    4    4    0    0 -0.14163911846E+03  0.39423748536E+03  0.15451841619E+03  0.45570658829E+03  0.91146689052E+02 0.  0.
         23    2    4    4    0    0 -0.81621267373E+02 -0.47481433628E+03  0.30410281226E+03  0.57693581665E+03  0.90916065103E+02 0.  0.
          2    1    3    3  502    0  0.21109187128E+03  0.75496318165E+02  0.11258491457E+03  0.25086816292E+03  0.00000000000E+00 0. -1.
         -1    1    3    3    0  502  0.12168514559E+02  0.50805327508E+01 -0.13779949545E+02  0.19072796572E+02  0.00000000000E+00 0.  1.
         11    1    5    5    0    0 -0.47924190042E+02  0.20769082926E+03  0.11845242622E+03  0.24385074498E+03  0.00000000000E+00 0. -1.
        -11    1    5    5    0    0 -0.93714928423E+02  0.18654665610E+03  0.36065989968E+02  0.21185584330E+03  0.00000000000E+00 0.  1.
          3    1    6    6  503    0 -0.64159310448E+02 -0.24954661479E+03  0.11441158023E+03  0.28192186819E+03  0.00000000000E+00 0. -1.
         -3    1    6    6    0  503 -0.17461956926E+02 -0.22526772149E+03  0.18969123203E+03  0.29501394847E+03  0.00000000000E+00 0.  1.
<mgrwt>
<rscale>  0 0.11772848E+04</rscale>
<asrwt>0</asrwt>
<pdfrwt beam="1">  1        2 0.14307766E+00 0.11772848E+04</pdfrwt>
<pdfrwt beam="2">  1       -1 0.57319783E-01 0.11772848E+04</pdfrwt>
<totfact> 0.97268062E+01</totfact>
</mgrwt>
</event>
<event>
12    6  0.1462228E-007  0.1703380E+04  0.7818608E-02  0.8759439E-01
          2   -1    0    0  501    0  0.00000000000E+00  0.00000000000E+00  0.12564322937E+04  0.12564322937E+04  0.00000000000E+00 0. -1.
         -1   -1    0    0    0  501 -0.00000000000E+00 -0.00000000000E+00 -0.57733013468E+03  0.57733013468E+03  0.00000000000E+00 0.  1.
         24    2    1    2    0    0 -0.21212516346E+03  0.43516362081E+03 -0.15107145090E+03  0.51345406847E+03  0.80299659411E+02 0.  0.
        254    2    1    2    0    0  0.21212516346E+03 -0.43516362081E+03  0.83017360988E+03  0.13203083599E+04  0.90535157853E+03 0.  0.
         23    2    4    4    0    0 -0.29899449542E+03 -0.17966510529E+03  0.59490704569E+03  0.69585536971E+03  0.92860347809E+02 0.  0.
         23    2    4    4    0    0  0.51111965889E+03 -0.25549851553E+03  0.23526656419E+03  0.62445299016E+03  0.89824181382E+02 0.  0.
          4    1    3    3  502    0 -0.33756659979E+02  0.53231449563E+02 -0.48745776044E+02  0.79682181180E+02  0.00000000000E+00 0. -1.
         -3    1    3    3    0  502 -0.17836850348E+03  0.38193217125E+03 -0.10232567485E+03  0.43377188729E+03  0.00000000000E+00 0.  1.
         11    1    5    5    0    0 -0.75161609814E+02 -0.79698092975E+02  0.12777829143E+03  0.16831026521E+03  0.00000000000E+00 0.  1.
        -11    1    5    5    0    0 -0.22383288561E+03 -0.99967012314E+02  0.46712875426E+03  0.52754510450E+03  0.00000000000E+00 0. -1.
          2    1    6    6  503    0  0.63980755813E+02 -0.61545765470E+02  0.16865879681E+02  0.90365238112E+02  0.00000000000E+00 0. -1.
         -2    1    6    6    0  503  0.44713890307E+03 -0.19395275006E+03  0.21840068451E+03  0.53408775205E+03  0.00000000000E+00 0.  1.
<mgrwt>
<rscale>  0 0.17033804E+04</rscale>
<asrwt>0</asrwt>
<pdfrwt beam="1">  1        2 0.19329728E+00 0.17033804E+04</pdfrwt>
<pdfrwt beam="2">  1       -1 0.88820021E-01 0.17033804E+04</pdfrwt>
<totfact> 0.23652042E+01</totfact>
</mgrwt>
</event>
<event>
12    6  0.1462228E-007  0.2099381E+04  0.7818608E-02  0.8561516E-01
          2   -1    0    0  501    0  0.00000000000E+00  0.00000000000E+00  0.19636464473E+04  0.19636464473E+04  0.00000000000E+00 0. -1.
         -1   -1    0    0    0  501 -0.00000000000E+00 -0.00000000000E+00 -0.56112465954E+03  0.56112465954E+03  0.00000000000E+00 0.  1.
         24    2    1    2    0    0  0.10373245290E+03 -0.48804090001E+03  0.14102991351E+04  0.14980678304E+04  0.79493596903E+02 0.  0.
        254    2    1    2    0    0 -0.10373245290E+03  0.48804090001E+03 -0.77773473556E+01  0.10267032765E+04  0.89728188935E+03 0.  0.
         23    2    4    4    0    0 -0.16849905916E+03  0.61789187023E+03  0.26959000691E+03  0.70062297511E+03  0.89506900192E+02 0.  0.
         23    2    4    4    0    0  0.64766606259E+02 -0.12985097022E+03 -0.27736735427E+03  0.32608030138E+03  0.91322100194E+02 0.  0.
          4    1    3    3  502    0  0.11181750113E+03 -0.36577882387E+03  0.10489154528E+04  0.11164770167E+04  0.00000000000E+00 0. -1.
         -3    1    3    3    0  502 -0.80850482262E+01 -0.12226207615E+03  0.36138368230E+03  0.38159081370E+03  0.00000000000E+00 0.  1.
         11    1    5    5    0    0 -0.12850084406E+03  0.50679489847E+03  0.25482199477E+03  0.58162512416E+03  0.00000000000E+00 0. -1.
        -11    1    5    5    0    0 -0.39998215104E+02  0.11109697176E+03  0.14768012140E+02  0.11899785094E+03  0.00000000000E+00 0.  1.
          2    1    6    6  503    0  0.85398612370E+02 -0.83520797774E+02 -0.21211003804E+03  0.24343236205E+03  0.00000000000E+00 0. -1.
         -2    1    6    6    0  503 -0.20632006111E+02 -0.46330172446E+02 -0.65257316225E+02  0.82647939333E+02  0.00000000000E+00 0.  1.
<mgrwt>
<rscale>  0 0.20993813E+04</rscale>
<asrwt>0</asrwt>
<pdfrwt beam="1">  1        2 0.30209945E+00 0.20993813E+04</pdfrwt>
<pdfrwt beam="2">  1       -1 0.86326872E-01 0.20993813E+04</pdfrwt>
<totfact> 0.97205720E+00</totfact>
</mgrwt>
</event>
<event>
12    6  0.1462228E-007  0.1194422E+04  0.7818608E-02  0.9117753E-01
         -1   -1    0    0    0  501 -0.00000000000E+00  0.00000000000E+00  0.11227929851E+03  0.11227929851E+03  0.00000000000E+00 0.  1.
          2   -1    0    0  501    0  0.00000000000E+00 -0.00000000000E+00 -0.31765503433E+04  0.31765503433E+04  0.00000000000E+00 0. -1.
         24    2    1    2    0    0 -0.12318988876E+03  0.21619428124E+03 -0.68544604258E+03  0.73372969144E+03  0.81285096275E+02 0.  0.
        254    2    1    2    0    0  0.12318988876E+03 -0.21619428124E+03 -0.23788250023E+04  0.25550999504E+04  0.89878342738E+03 0.  0.
         23    2    4    4    0    0  0.34355681509E+03 -0.46488817048E+03 -0.13729771325E+04  0.14924486916E+04  0.90468749112E+02 0.  0.
         23    2    4    4    0    0 -0.22036692633E+03  0.24869388924E+03 -0.10058478698E+04  0.10626512588E+04  0.84187457019E+02 0.  0.
          4    1    3    3  502    0 -0.25452209994E+02  0.16001628988E+02 -0.16330414030E+03  0.16604851509E+03  0.00000000000E+00 0. -1.
         -3    1    3    3    0  502 -0.97737678762E+02  0.20019265225E+03 -0.52214190228E+03  0.56768117635E+03  0.00000000000E+00 0.  1.
         11    1    5    5    0    0  0.21469071572E+03 -0.35328273033E+03 -0.92714376479E+03  0.10151336619E+04  0.00000000000E+00 0. -1.
        -11    1    5    5    0    0  0.12886609937E+03 -0.11160544015E+03 -0.44583336769E+03  0.47731502971E+03  0.00000000000E+00 0.  1.
          1    1    6    6  503    0 -0.94869651542E+02  0.16810469411E+03 -0.59855441412E+03  0.62890923481E+03  0.00000000000E+00 0. -1.
         -1    1    6    6    0  503 -0.12549727479E+03  0.80589195130E+02 -0.40729345566E+03  0.43374202399E+03  0.00000000000E+00 0.  1.
<mgrwt>
<rscale>  0 0.11944218E+04</rscale>
<asrwt>0</asrwt>
<pdfrwt beam="1">  1        2 0.48870008E+00 0.11944218E+04</pdfrwt>
<pdfrwt beam="2">  1       -1 0.17273737E-01 0.11944218E+04</pdfrwt>
<totfact> 0.40149074E+01</totfact>
</mgrwt>
</event>
<event>
12    6  0.1462228E-007  0.2655957E+04  0.7818608E-02  0.8349438E-01
          2   -1    0    0  501    0  0.00000000000E+00  0.00000000000E+00  0.93265758475E+03  0.93265758475E+03  0.00000000000E+00 0. -1.
         -1   -1    0    0    0  501 -0.00000000000E+00 -0.00000000000E+00 -0.18908622339E+04  0.18908622339E+04  0.00000000000E+00 0.  1.
         24    2    1    2    0    0 -0.43184958429E+03  0.95860884671E+03  0.12643957762E+03  0.10619992036E+04  0.80189508109E+02 0.  0.
        254    2    1    2    0    0  0.43184958429E+03 -0.95860884671E+03 -0.10846442268E+04  0.17615206151E+04  0.90613287889E+03 0.  0.
         23    2    4    4    0    0  0.61620310375E+03 -0.30539472019E+03 -0.44152674581E+03  0.82226198128E+03  0.90535619489E+02 0.  0.
         23    2    4    4    0    0 -0.18435351946E+03 -0.65321412652E+03 -0.64311748100E+03  0.93925863382E+03  0.89060494140E+02 0.  0.
          4    1    3    3  502    0 -0.35033412618E+03  0.70372200585E+03  0.11157758736E+03  0.79398250578E+03  0.00000000000E+00 0. -1.
         -3    1    3    3    0  502 -0.81515458112E+02  0.25488684086E+03  0.14861990261E+02  0.26801669782E+03  0.00000000000E+00 0.  1.
         11    1    5    5    0    0  0.47733847666E+03 -0.25364750047E+03 -0.38507670332E+03  0.66368150738E+03  0.00000000000E+00 0. -1.
        -11    1    5    5    0    0  0.13886462708E+03 -0.51747219722E+02 -0.56450042495E+02  0.15858047390E+03  0.00000000000E+00 0.  1.
          4    1    6    6  503    0 -0.18301486079E+03 -0.52587866920E+03 -0.53554420285E+03  0.77256094076E+03  0.00000000000E+00 0. -1.
         -4    1    6    6    0  503 -0.13386586664E+01 -0.12733545732E+03 -0.10757327815E+03  0.16669769306E+03  0.00000000000E+00 0.  1.
<mgrwt>
<rscale>  0 0.26559571E+04</rscale>
<asrwt>0</asrwt>
<pdfrwt beam="1">  1        2 0.14348578E+00 0.26559571E+04</pdfrwt>
<pdfrwt beam="2">  1       -1 0.29090188E+00 0.26559571E+04</pdfrwt>
<totfact> 0.10585602E+00</totfact>
</mgrwt>
</event>
<event>
12    6  0.1462228E-007  0.3714445E+04  0.7818608E-02  0.8064768E-01
          2   -1    0    0  501    0  0.00000000000E+00  0.00000000000E+00  0.22088488053E+04  0.22088488053E+04  0.00000000000E+00 0. -1.
         -1   -1    0    0    0  501 -0.00000000000E+00 -0.00000000000E+00 -0.15615711939E+04  0.15615711939E+04  0.00000000000E+00 0.  1.
         24    2    1    2    0    0 -0.11298783970E+04 -0.22472622535E+03  0.16396554642E+04  0.20055516335E+04  0.81487698077E+02 0.  0.
        254    2    1    2    0    0  0.11298783970E+04  0.22472622535E+03 -0.99237785287E+03  0.17648683657E+04  0.89600194032E+03 0.  0.
         23    2    4    4    0    0  0.30858531184E+03  0.44447147965E+02 -0.84642576905E+03  0.90619668915E+03  0.86921880198E+02 0.  0.
         23    2    4    4    0    0  0.82129308517E+03  0.18027907739E+03 -0.14595208382E+03  0.85867167657E+03  0.94826999762E+02 0.  0.
          2    1    3    3  502    0 -0.10180003960E+04 -0.22646633655E+03  0.14724426900E+04  0.18043556421E+04  0.00000000000E+00 0. -1.
         -3    1    3    3    0  502 -0.11187800104E+03  0.17401111956E+01  0.16721277424E+03  0.20119599144E+03  0.00000000000E+00 0.  1.
         11    1    5    5    0    0  0.19887452354E+02 -0.15386725397E+02 -0.36903255943E+02  0.44655485428E+02  0.00000000000E+00 0. -1.
        -11    1    5    5    0    0  0.28869785948E+03  0.59833873362E+02 -0.80952251311E+03  0.86154120372E+03  0.00000000000E+00 0.  1.
          1    1    6    6  503    0  0.20269195189E+03  0.12331232782E+02 -0.61264072728E+02  0.21210698543E+03  0.00000000000E+00 0. -1.
         -1    1    6    6    0  503  0.61860113328E+03  0.16794784460E+03 -0.84688011089E+02  0.64656469114E+03  0.00000000000E+00 0.  1.
<mgrwt>
<rscale>  0 0.37144446E+04</rscale>
<asrwt>0</asrwt>
<pdfrwt beam="1">  1        2 0.33982289E+00 0.37144446E+04</pdfrwt>
<pdfrwt beam="2">  1       -1 0.24024172E+00 0.37144446E+04</pdfrwt>
<totfact> 0.37861432E-01</totfact>
</mgrwt>
</event>
<event>
12    6  0.1462228E-007  0.1864474E+04  0.7818608E-02  0.8672745E-01
          2   -1    0    0  501    0  0.00000000000E+00  0.00000000000E+00  0.25532270317E+04  0.25532270317E+04  0.00000000000E+00 0. -1.
         -1   -1    0    0    0  501 -0.00000000000E+00 -0.00000000000E+00 -0.34037923945E+03  0.34037923945E+03  0.00000000000E+00 0.  1.
         24    2    1    2    0    0 -0.67622948060E+03 -0.13586625673E+03  0.90092016277E+03  0.11374998642E+04  0.80640257546E+02 0.  0.
        254    2    1    2    0    0  0.67622948060E+03  0.13586625673E+03  0.13119276294E+04  0.17561064069E+04  0.94181190132E+03 0.  0.
         23    2    4    4    0    0  0.48973293749E+03 -0.83233687301E+02  0.13595811998E+04  0.14502965872E+04  0.90182897942E+02 0.  0.
         23    2    4    4    0    0  0.18649654311E+03  0.21909994403E+03 -0.47653570403E+02  0.30580981976E+03  0.91994766252E+02 0.  0.
          4    1    3    3  502    0 -0.63160899460E+03 -0.14469630093E+03  0.85577031267E+03  0.10734103454E+04  0.00000000000E+00 0. -1.
         -3    1    3    3    0  502 -0.44620486004E+02  0.88300441996E+01  0.45149850103E+02  0.64089518769E+02  0.00000000000E+00 0.  1.
         11    1    5    5    0    0  0.27404328435E+03 -0.15943416500E+02  0.83997275697E+03  0.88369007388E+03  0.00000000000E+00 0. -1.
        -11    1    5    5    0    0  0.21568965314E+03 -0.67290270801E+02  0.51960844286E+03  0.56660651330E+03  0.00000000000E+00 0.  1.
          1    1    6    6  503    0  0.26660014393E+01  0.66628177182E-01 -0.18142882256E+02  0.18337834647E+02  0.00000000000E+00 0. -1.
         -1    1    6    6    0  503  0.18383054168E+03  0.21903331586E+03 -0.29510688147E+02  0.28747198511E+03  0.00000000000E+00 0.  1.
<mgrwt>
<rscale>  0 0.18644736E+04</rscale>
<asrwt>0</asrwt>
<pdfrwt beam="1">  1        2 0.39280415E+00 0.18644736E+04</pdfrwt>
<pdfrwt beam="2">  1       -1 0.52366038E-01 0.18644736E+04</pdfrwt>
<totfact> 0.12747618E+01</totfact>
</mgrwt>
</event>
<event>
12    6  0.1462228E-007  0.1719629E+04  0.7818608E-02  0.8750248E-01
          2   -1    0    0  501    0  0.00000000000E+00  0.00000000000E+00  0.21588418659E+04  0.21588418659E+04  0.00000000000E+00 0. -1.
         -1   -1    0    0    0  501 -0.00000000000E+00 -0.00000000000E+00 -0.34244327573E+03  0.34244327573E+03  0.00000000000E+00 0.  1.
         24    2    1    2    0    0  0.22590989953E+03  0.29929023031E+03  0.13767065338E+04  0.14292526755E+04  0.82658366618E+02 0.  0.
        254    2    1    2    0    0 -0.22590989953E+03 -0.29929023031E+03  0.43969205639E+03  0.10720324661E+04  0.90294771683E+03 0.  0.
         23    2    4    4    0    0  0.75916078989E+02 -0.55720969885E+03  0.29260931822E+03  0.63946407994E+03  0.83953539958E+02 0.  0.
         23    2    4    4    0    0 -0.30182597852E+03  0.25791946854E+03  0.14708273817E+03  0.43256838620E+03  0.88660607437E+02 0.  0.
          2    1    3    3  502    0  0.16251316099E+03  0.26705162834E+03  0.11011071305E+04  0.11446239612E+04  0.00000000000E+00 0. -1.
         -1    1    3    3    0  502  0.63396738535E+02  0.32238601972E+02  0.27559940329E+03  0.28462871430E+03  0.00000000000E+00 0.  1.
         11    1    5    5    0    0  0.70514787690E+02 -0.34120795935E+03  0.14282945186E+03  0.37655737827E+03  0.00000000000E+00 0.  1.
        -11    1    5    5    0    0  0.54012912990E+01 -0.21600173950E+03  0.14977986636E+03  0.26290670167E+03  0.00000000000E+00 0. -1.
          4    1    6    6  503    0 -0.10213205548E+03  0.11043024392E+03  0.14469092987E+02  0.15111303776E+03  0.00000000000E+00 0. -1.
         -4    1    6    6    0  503 -0.19969392304E+03  0.14748922462E+03  0.13261364518E+03  0.28145534844E+03  0.00000000000E+00 0.  1.
<mgrwt>
<rscale>  0 0.17196289E+04</rscale>
<asrwt>0</asrwt>
<pdfrwt beam="1">  1        2 0.33212951E+00 0.17196289E+04</pdfrwt>
<pdfrwt beam="2">  1       -1 0.52683582E-01 0.17196289E+04</pdfrwt>
<totfact> 0.21406265E+01</totfact>
</mgrwt>
</event>
<event>
12    6  0.1462228E-007  0.2234920E+04  0.7818608E-02  0.8504033E-01
         -1   -1    0    0    0  501 -0.00000000000E+00  0.00000000000E+00  0.47046676797E+03  0.47046676797E+03  0.00000000000E+00 0.  1.
          2   -1    0    0  501    0  0.00000000000E+00 -0.00000000000E+00 -0.26542087847E+04  0.26542087847E+04  0.00000000000E+00 0. -1.
         24    2    1    2    0    0  0.42594668224E+03  0.15748106162E+03 -0.20657963504E+04  0.21166860597E+04  0.81329286309E+02 0.  0.
        254    2    1    2    0    0 -0.42594668224E+03 -0.15748106162E+03 -0.11794566630E+03  0.10079894930E+04  0.89213271263E+03 0.  0.
         23    2    4    4    0    0 -0.47690183405E+03 -0.40941857822E+03  0.11604203373E+03  0.64638693193E+03  0.96391808100E+02 0.  0.
         23    2    4    4    0    0  0.50955151818E+02  0.25193751660E+03 -0.23398770003E+03  0.36160256108E+03  0.99685649142E+02 0.  0.
          4    1    3    3  502    0  0.41094949918E+03  0.13982180210E+03 -0.20087003406E+04  0.20550685355E+04  0.00000000000E+00 0. -1.
         -1    1    3    3    0  502  0.14997183052E+02  0.17659259518E+02 -0.57096009853E+02  0.61617524191E+02  0.00000000000E+00 0.  1.
         11    1    5    5    0    0 -0.23628964250E+02 -0.56777375222E+02  0.79384333433E+01  0.62008201172E+02  0.00000000000E+00 0.  1.
        -11    1    5    5    0    0 -0.45327286980E+03 -0.35264120300E+03  0.10810360039E+03  0.58437873076E+03  0.00000000000E+00 0. -1.
          3    1    6    6  503    0  0.80851587169E+02  0.18025752985E+03 -0.17726779393E+03  0.26543102113E+03  0.00000000000E+00 0. -1.
         -3    1    6    6    0  503 -0.29896435351E+02  0.71679986748E+02 -0.56719906108E+02  0.96171539947E+02  0.00000000000E+00 0.  1.
<mgrwt>
<rscale>  0 0.22349202E+04</rscale>
<asrwt>0</asrwt>
<pdfrwt beam="1">  1        2 0.40833981E+00 0.22349202E+04</pdfrwt>
<pdfrwt beam="2">  1       -1 0.72379503E-01 0.22349202E+04</pdfrwt>
<totfact> 0.56471390E+00</totfact>
</mgrwt>
</event>
<event>
12    6  0.1462228E-007  0.1476726E+04  0.7818608E-02  0.8900079E-01
          2   -1    0    0  501    0  0.00000000000E+00  0.00000000000E+00  0.22686696312E+04  0.22686696312E+04  0.00000000000E+00 0. -1.
         -1   -1    0    0    0  501 -0.00000000000E+00 -0.00000000000E+00 -0.24030823525E+03  0.24030823525E+03  0.00000000000E+00 0.  1.
         24    2    1    2    0    0 -0.43959584341E+03 -0.67370425718E+02  0.79570879519E+03  0.91509429366E+03  0.80385320377E+02 0.  0.
        254    2    1    2    0    0  0.43959584341E+03  0.67370425718E+02  0.12326526007E+04  0.15938835728E+04  0.90733077190E+03 0.  0.
         23    2    4    4    0    0  0.61871726381E+03 -0.21639355225E+03  0.77798122376E+03  0.10211425903E+04  0.88544808909E+02 0.  0.
         23    2    4    4    0    0 -0.17912142040E+03  0.28376397797E+03  0.45467137698E+03  0.57274098249E+03  0.93272147668E+02 0.  0.
          4    1    3    3  502    0 -0.39192378988E+03 -0.76883200777E+02  0.66601602775E+03  0.77659038936E+03  0.00000000000E+00 0. -1.
         -3    1    3    3    0  502 -0.47672053534E+02  0.95127750589E+01  0.12969276745E+03  0.13850390430E+03  0.00000000000E+00 0.  1.
         11    1    5    5    0    0  0.54569081310E+03 -0.21784253006E+03  0.70712883750E+03  0.91938295842E+03  0.00000000000E+00 0.  1.
        -11    1    5    5    0    0  0.73026450707E+02  0.14489778040E+01  0.70852386261E+02  0.10175963187E+03  0.00000000000E+00 0. -1.
          3    1    6    6  503    0 -0.28989096034E+02  0.26676255652E+02  0.15859556490E+02  0.42467821189E+02  0.00000000000E+00 0. -1.
         -3    1    6    6    0  503 -0.15013232437E+03  0.25708772232E+03  0.43881182049E+03  0.53027316130E+03  0.00000000000E+00 0.  1.
<mgrwt>
<rscale>  0 0.14767261E+04</rscale>
<asrwt>0</asrwt>
<pdfrwt beam="1">  1        2 0.34902608E+00 0.14767261E+04</pdfrwt>
<pdfrwt beam="2">  1       -1 0.36970499E-01 0.14767261E+04</pdfrwt>
<totfact> 0.36657725E+01</totfact>
</mgrwt>
</event>
<event>
12    6  0.1462228E-007  0.1830265E+04  0.7818608E-02  0.8690368E-01
          2   -1    0    0  501    0  0.00000000000E+00  0.00000000000E+00  0.14527734838E+04  0.14527734838E+04  0.00000000000E+00 0. -1.
         -1   -1    0    0    0  501 -0.00000000000E+00 -0.00000000000E+00 -0.57646135633E+03  0.57646135633E+03  0.00000000000E+00 0.  1.
         24    2    1    2    0    0  0.46096895669E+03  0.46518051128E+03  0.52596549780E+03  0.84421033681E+03  0.84652825085E+02 0.  0.
        254    2    1    2    0    0 -0.46096895669E+03 -0.46518051128E+03  0.35034662966E+03  0.11850245033E+04  0.92339321279E+03 0.  0.
         23    2    4    4    0    0 -0.48915277502E+02 -0.26418246950E+02  0.53750576696E+03  0.54795002073E+03  0.90808301129E+02 0.  0.
         23    2    4    4    0    0 -0.41205367919E+03 -0.43876226433E+03 -0.18715913730E+03  0.63707448258E+03  0.92383951780E+02 0.  0.
          4    1    3    3  502    0  0.10745529764E+03  0.15763439023E+03  0.17356269496E+03  0.25791326267E+03  0.00000000000E+00 0. -1.
         -3    1    3    3    0  502  0.35351365905E+03  0.30754612105E+03  0.35240280284E+03  0.58629707415E+03  0.00000000000E+00 0.  1.
         11    1    5    5    0    0 -0.44723571037E+02 -0.14819403779E+02  0.53259558255E+03  0.53467547829E+03  0.00000000000E+00 0.  1.
        -11    1    5    5    0    0 -0.41917064650E+01 -0.11598843171E+02  0.49101844146E+01  0.13274542439E+02  0.00000000000E+00 0. -1.
          2    1    6    6  503    0 -0.31097607100E+03 -0.29812101452E+03 -0.16965891402E+03  0.46299719561E+03  0.00000000000E+00 0.  1.
         -2    1    6    6    0  503 -0.10107760819E+03 -0.14064124981E+03 -0.17500223284E+02  0.17407728698E+03  0.00000000000E+00 0. -1.
<mgrwt>
<rscale>  0 0.18302653E+04</rscale>
<asrwt>0</asrwt>
<pdfrwt beam="1">  1        2 0.22350361E+00 0.18302653E+04</pdfrwt>
<pdfrwt beam="2">  1       -1 0.88686363E-01 0.18302653E+04</pdfrwt>
<totfact> 0.18079794E+01</totfact>
</mgrwt>
</event>
<event>
12    6  0.1462228E-007  0.2464819E+04  0.7818608E-02  0.8415627E-01
         -1   -1    0    0    0  501 -0.00000000000E+00  0.00000000000E+00  0.99667940572E+03  0.99667940572E+03  0.00000000000E+00 0.  1.
          2   -1    0    0  501    0  0.00000000000E+00 -0.00000000000E+00 -0.15238936488E+04  0.15238936488E+04  0.00000000000E+00 0. -1.
         24    2    1    2    0    0 -0.18941685358E+03  0.56042050352E+03 -0.11515326737E+04  0.12970724712E+04  0.80122480597E+02 0.  0.
        254    2    1    2    0    0  0.18941685358E+03 -0.56042050352E+03  0.62431843066E+03  0.12235005832E+04  0.87018980063E+03 0.  0.
         23    2    4    4    0    0  0.18092437354E+03 -0.48821814248E+03  0.83253839645E+03  0.98621467812E+03  0.91698561485E+02 0.  0.
         23    2    4    4    0    0  0.84924800388E+01 -0.72202361044E+02 -0.20821996580E+03  0.23728590512E+03  0.87542809263E+02 0.  0.
          2    1    3    3  502    0 -0.18919834836E+03  0.51268782172E+03 -0.10204220964E+04  0.11575431191E+04  0.00000000000E+00 0. -1.
         -1    1    3    3    0  502 -0.21850521904E+00  0.47732681805E+02 -0.13111057724E+03  0.13952935219E+03  0.00000000000E+00 0.  1.
         11    1    5    5    0    0  0.54651299619E+02 -0.26241778526E+03  0.46556467107E+03  0.53721533999E+03  0.00000000000E+00 0.  1.
        -11    1    5    5    0    0  0.12627307393E+03 -0.22580035722E+03  0.36697372538E+03  0.44899933813E+03  0.00000000000E+00 0. -1.
          4    1    6    6  503    0  0.17892353062E+02 -0.71022232688E+02 -0.21400121591E+03  0.22618756431E+03  0.00000000000E+00 0.  1.
         -4    1    6    6    0  503 -0.93998730227E+01 -0.11801283563E+01  0.57812501198E+01  0.11098340810E+02  0.00000000000E+00 0. -1.
<mgrwt>
<rscale>  0 0.24648192E+04</rscale>
<asrwt>0</asrwt>
<pdfrwt beam="1">  1        2 0.23444518E+00 0.24648192E+04</pdfrwt>
<pdfrwt beam="2">  1       -1 0.15333529E+00 0.24648192E+04</pdfrwt>
<totfact> 0.41207804E+00</totfact>
</mgrwt>
</event>
<event>
12    6  0.1462228E-007  0.1232574E+04  0.7818608E-02  0.9084813E-01
          2   -1    0    0  501    0  0.00000000000E+00  0.00000000000E+00  0.16244225212E+04  0.16244225212E+04  0.00000000000E+00 0. -1.
         -1   -1    0    0    0  501 -0.00000000000E+00 -0.00000000000E+00 -0.23381215801E+03  0.23381215801E+03  0.00000000000E+00 0.  1.
         24    2    1    2    0    0  0.27768452160E+03  0.20684478126E+02  0.32406555319E+03  0.43445133613E+03  0.78695231876E+02 0.  0.
        254    2    1    2    0    0 -0.27768452160E+03 -0.20684478126E+02  0.10665448100E+04  0.14237833431E+04  0.90116848321E+03 0.  0.
         23    2    4    4    0    0  0.46938994331E+02 -0.33823186011E+03  0.83338804763E+03  0.90527448785E+03  0.91554355703E+02 0.  0.
         23    2    4    4    0    0 -0.32462351594E+03  0.31754738199E+03  0.23315676233E+03  0.51850885520E+03  0.90953780533E+02 0.  0.
          4    1    3    3  502    0  0.11177981461E+03  0.42616818008E+02  0.10808509930E+03  0.16122440516E+03  0.00000000000E+00 0. -1.
         -3    1    3    3    0  502  0.16590470700E+03 -0.21932339882E+02  0.21598045390E+03  0.27322693096E+03  0.00000000000E+00 0.  1.
         11    1    5    5    0    0  0.67591838791E+02 -0.18472773851E+03  0.41867452638E+03  0.46258118540E+03  0.00000000000E+00 0. -1.
        -11    1    5    5    0    0 -0.20652844460E+02 -0.15350412161E+03  0.41471352125E+03  0.44269330246E+03  0.00000000000E+00 0.  1.
          3    1    6    6  503    0 -0.31397741951E+03  0.31072843464E+03  0.20368057901E+03  0.48643576999E+03  0.00000000000E+00 0.  1.
         -3    1    6    6    0  503 -0.10646096423E+02  0.68189473527E+01  0.29476183319E+02  0.32073085214E+02  0.00000000000E+00 0. -1.
<mgrwt>
<rscale>  0 0.12325741E+04</rscale>
<asrwt>0</asrwt>
<pdfrwt beam="1">  1        2 0.24991115E+00 0.12325741E+04</pdfrwt>
<pdfrwt beam="2">  1       -1 0.35971102E-01 0.12325741E+04</pdfrwt>
<totfact> 0.89528135E+01</totfact>
</mgrwt>
</event>
<event>
12    6  0.1462228E-007  0.1654942E+04  0.7818608E-02  0.8787488E-01
          2   -1    0    0  501    0  0.00000000000E+00  0.00000000000E+00  0.13741926468E+04  0.13741926468E+04  0.00000000000E+00 0. -1.
         -1   -1    0    0    0  501 -0.00000000000E+00 -0.00000000000E+00 -0.49826199329E+03  0.49826199329E+03  0.00000000000E+00 0.  1.
         24    2    1    2    0    0  0.31832584067E+03 -0.28192741991E+03 -0.14373250968E+03  0.45566780309E+03  0.78483765829E+02 0.  0.
        254    2    1    2    0    0 -0.31832584067E+03  0.28192741991E+03  0.10196631632E+04  0.14167868370E+04  0.88699355365E+03 0.  0.
         23    2    4    4    0    0 -0.66149639300E+02  0.40992778203E+03  0.81666099901E+02  0.43289040099E+03  0.91149251966E+02 0.  0.
         23    2    4    4    0    0 -0.25217620137E+03 -0.12800036213E+03  0.93799706328E+03  0.98389643601E+03  0.90756690305E+02 0.  0.
          2    1    3    3  502    0  0.53995314687E+02 -0.24256205390E+02  0.90958895389E+00  0.59200378885E+02  0.00000000000E+00 0. -1.
         -1    1    3    3    0  502  0.26433052598E+03 -0.25767121452E+03 -0.14464209863E+03  0.39646742420E+03  0.00000000000E+00 0.  1.
         11    1    5    5    0    0  0.19365660833E+02  0.81238003209E+02  0.32963262757E+02  0.89784289697E+02  0.00000000000E+00 0. -1.
        -11    1    5    5    0    0 -0.85515300133E+02  0.32868977882E+03  0.48702837145E+02  0.34310611129E+03  0.00000000000E+00 0.  1.
          2    1    6    6  503    0 -0.10186877811E+01  0.65480806493E+01  0.70390551148E+02  0.70701801787E+02  0.00000000000E+00 0. -1.
         -2    1    6    6    0  503 -0.25115751359E+03 -0.13454844278E+03  0.86760651213E+03  0.91319463423E+03  0.00000000000E+00 0.  1.
<mgrwt>
<rscale>  0 0.16549417E+04</rscale>
<asrwt>0</asrwt>
<pdfrwt beam="1">  1        2 0.21141425E+00 0.16549417E+04</pdfrwt>
<pdfrwt beam="2">  1       -1 0.76655692E-01 0.16549417E+04</pdfrwt>
<totfact> 0.27830436E+01</totfact>
</mgrwt>
</event>
<event>
12    6  0.1462228E-007  0.2624589E+04  0.7818608E-02  0.8359896E-01
         -1   -1    0    0    0  501 -0.00000000000E+00  0.00000000000E+00  0.41699115298E+04  0.41699115298E+04  0.00000000000E+00 0.  1.
          2   -1    0    0  501    0  0.00000000000E+00 -0.00000000000E+00 -0.41298650350E+03  0.41298650350E+03  0.00000000000E+00 0. -1.
         24    2    1    2    0    0 -0.82698125642E+03 -0.22123364645E+03  0.30287298287E+03  0.91167025824E+03  0.81044995020E+02 0.  0.
        254    2    1    2    0    0  0.82698125642E+03  0.22123364645E+03  0.34540520434E+04  0.36712277751E+04  0.90254946284E+03 0.  0.
         23    2    4    4    0    0  0.58125120548E+03  0.27960818750E+03  0.32959842294E+04  0.33596413726E+04  0.87432314419E+02 0.  0.
         23    2    4    4    0    0  0.24573005094E+03 -0.58374541049E+02  0.15806781401E+03  0.31158640244E+03  0.91158144927E+02 0.  0.
          4    1    3    3  502    0 -0.39414735990E+03 -0.90224768811E+02  0.10307182577E+03  0.41727263449E+03  0.00000000000E+00 0. -1.
         -3    1    3    3    0  502 -0.43283389652E+03 -0.13100887764E+03  0.19980115710E+03  0.49439762375E+03  0.00000000000E+00 0.  1.
         11    1    5    5    0    0  0.44301373414E+03  0.17399176282E+03  0.23296904022E+04  0.23778123711E+04  0.00000000000E+00 0. -1.
        -11    1    5    5    0    0  0.13823747134E+03  0.10561642468E+03  0.96629382719E+03  0.98182900146E+03  0.00000000000E+00 0.  1.
          2    1    6    6  503    0  0.19927095149E+03 -0.65109221536E+02  0.88255234203E+02  0.22745792842E+03  0.00000000000E+00 0. -1.
         -2    1    6    6    0  503  0.46459099448E+02  0.67346804870E+01  0.69812579804E+02  0.84128474024E+02  0.00000000000E+00 0.  1.
<mgrwt>
<rscale>  0 0.26245892E+04</rscale>
<asrwt>0</asrwt>
<pdfrwt beam="1">  1        2 0.63536388E-01 0.26245892E+04</pdfrwt>
<pdfrwt beam="2">  1       -1 0.64152482E+00 0.26245892E+04</pdfrwt>
<totfact> 0.23743560E-02</totfact>
</mgrwt>
</event>
<event>
12    6  0.1462228E-007  0.2597818E+04  0.7818608E-02  0.8368943E-01
          2   -1    0    0  501    0  0.00000000000E+00  0.00000000000E+00  0.24462604876E+04  0.24462604876E+04  0.00000000000E+00 0. -1.
         -1   -1    0    0    0  501 -0.00000000000E+00 -0.00000000000E+00 -0.68969148060E+03  0.68969148060E+03  0.00000000000E+00 0.  1.
         24    2    1    2    0    0 -0.29481334605E+01  0.10443764573E+04  0.13079353331E+04  0.16756434811E+04  0.79720538124E+02 0.  0.
        254    2    1    2    0    0  0.29481334605E+01 -0.10443764573E+04  0.44863367399E+03  0.14603084872E+04  0.91678668639E+03 0.  0.
         23    2    4    4    0    0 -0.18691280199E+03 -0.45514492496E+03  0.63435719776E+03  0.80780934975E+03  0.89741812566E+02 0.  0.
         23    2    4    4    0    0  0.18986093546E+03 -0.58923153230E+03 -0.18572352378E+03  0.65249913743E+03  0.89559609226E+02 0.  0.
          2    1    3    3  502    0 -0.98223691639E+01  0.92839670326E+03  0.11983265849E+04  0.15159167265E+04  0.00000000000E+00 0. -1.
         -1    1    3    3    0  502  0.68742357034E+01  0.11597975399E+03  0.10960874813E+03  0.15972675455E+03  0.00000000000E+00 0.  1.
         11    1    5    5    0    0 -0.42025113745E+02 -0.62371285319E+02  0.14855627605E+03  0.16650902249E+03  0.00000000000E+00 0. -1.
        -11    1    5    5    0    0 -0.14488768825E+03 -0.39277363964E+03  0.48580092172E+03  0.64130032726E+03  0.00000000000E+00 0.  1.
          1    1    6    6  503    0  0.23668707588E+01 -0.89896025869E+02 -0.79526638143E+01  0.90278139137E+02  0.00000000000E+00 0. -1.
         -1    1    6    6    0  503  0.18749406470E+03 -0.49933550643E+03 -0.17777085996E+03  0.56222099830E+03  0.00000000000E+00 0.  1.
<mgrwt>
<rscale>  0 0.25978183E+04</rscale>
<asrwt>0</asrwt>
<pdfrwt beam="1">  1        2 0.37634776E+00 0.25978183E+04</pdfrwt>
<pdfrwt beam="2">  1       -1 0.10610638E+00 0.25978183E+04</pdfrwt>
<totfact> 0.31248281E+00</totfact>
</mgrwt>
</event>
<event>
12    6  0.1462228E-007  0.2393783E+04  0.7818608E-02  0.8441835E-01
          2   -1    0    0  501    0  0.00000000000E+00  0.00000000000E+00  0.12848429531E+04  0.12848429531E+04  0.00000000000E+00 0. -1.
         -1   -1    0    0    0  501 -0.00000000000E+00 -0.00000000000E+00 -0.11149606751E+04  0.11149606751E+04  0.00000000000E+00 0.  1.
         24    2    1    2    0    0 -0.14722609775E+03 -0.52349391268E+03  0.93199957691E+03  0.10817008501E+04  0.75710747190E+02 0.  0.
        254    2    1    2    0    0  0.14722609775E+03  0.52349391268E+03 -0.76211729886E+03  0.13181027782E+04  0.92782043311E+03 0.  0.
         23    2    4    4    0    0 -0.21952282305E+03  0.74420059064E+02 -0.68235196948E+03  0.72616813629E+03  0.89371902121E+02 0.  0.
         23    2    4    4    0    0  0.36674892080E+03  0.44907385362E+03 -0.79765329380E+02  0.59193464187E+03  0.88611599452E+02 0.  0.
          4    1    3    3  502    0 -0.19013694799E+02 -0.11094080613E+03  0.25310316454E+03  0.27700287896E+03  0.00000000000E+00 0. -1.
         -3    1    3    3    0  502 -0.12821240295E+03 -0.41255310655E+03  0.67889641237E+03  0.80469797112E+03  0.00000000000E+00 0.  1.
         11    1    5    5    0    0 -0.14555516743E+03  0.36839986401E+02 -0.54858364477E+03  0.56875962117E+03  0.00000000000E+00 0. -1.
        -11    1    5    5    0    0 -0.73967655613E+02  0.37580072663E+02 -0.13376832471E+03  0.15740851512E+03  0.00000000000E+00 0.  1.
          2    1    6    6  503    0  0.30424030409E+03  0.41094617569E+03 -0.85829885623E+02  0.51846474442E+03  0.00000000000E+00 0. -1.
         -2    1    6    6    0  503  0.62508616713E+02  0.38127677930E+02  0.60645562427E+01  0.73469897442E+02  0.00000000000E+00 0.  1.
<mgrwt>
<rscale>  0 0.23937831E+04</rscale>
<asrwt>0</asrwt>
<pdfrwt beam="1">  1        2 0.19766815E+00 0.23937831E+04</pdfrwt>
<pdfrwt beam="2">  1       -1 0.17153241E+00 0.23937831E+04</pdfrwt>
<totfact> 0.41479329E+00</totfact>
</mgrwt>
</event>
<event>
12    6  0.1462228E-007  0.2115618E+04  0.7818608E-02  0.8554395E-01
         -1   -1    0    0    0  501 -0.00000000000E+00  0.00000000000E+00  0.67802623803E+03  0.67802623803E+03  0.00000000000E+00 0.  1.
          2   -1    0    0  501    0  0.00000000000E+00 -0.00000000000E+00 -0.16503191108E+04  0.16503191108E+04  0.00000000000E+00 0. -1.
         24    2    1    2    0    0 -0.33734002303E+03 -0.58691442400E+03  0.10682632515E+03  0.69132685301E+03  0.90852197043E+02 0.  0.
        254    2    1    2    0    0  0.33734002303E+03  0.58691442400E+03 -0.10791191979E+04  0.16370184958E+04  0.10281364112E+04 0.  0.
         23    2    4    4    0    0  0.67194533384E+03  0.54480916652E+03 -0.66524433224E+03  0.10951355943E+04  0.91893354785E+02 0.  0.
         23    2    4    4    0    0 -0.33460531081E+03  0.42105257482E+02 -0.41387486568E+03  0.54188290156E+03  0.92796055070E+02 0.  0.
          2    1    3    3  502    0 -0.53856710599E+00 -0.11368434412E+01  0.84024413496E+01  0.84960866387E+01  0.00000000000E+00 0. -1.
         -1    1    3    3    0  502 -0.33680145592E+03 -0.58577758056E+03  0.98423883799E+02  0.68283076637E+03  0.00000000000E+00 0.  1.
         11    1    5    5    0    0  0.20378336457E+03  0.12441792892E+03 -0.21645099233E+03  0.32227086867E+03  0.00000000000E+00 0. -1.
        -11    1    5    5    0    0  0.46816196927E+03  0.42039123760E+03 -0.44879333991E+03  0.77286472559E+03  0.00000000000E+00 0.  1.
          3    1    6    6  503    0 -0.27957943688E+03  0.36666927934E+02 -0.28155740663E+03  0.39847672248E+03  0.00000000000E+00 0. -1.
         -3    1    6    6    0  503 -0.55025873926E+02  0.54383295474E+01 -0.13231745905E+03  0.14340617908E+03  0.00000000000E+00 0.  1.
<mgrwt>
<rscale>  0 0.21156178E+04</rscale>
<asrwt>0</asrwt>
<pdfrwt beam="1">  1        2 0.25389525E+00 0.21156178E+04</pdfrwt>
<pdfrwt beam="2">  1       -1 0.10431173E+00 0.21156178E+04</pdfrwt>
<totfact> 0.94722806E+00</totfact>
</mgrwt>
</event>
<event>
12    6  0.1462228E-007  0.1489754E+04  0.7818608E-02  0.8891295E-01
          2   -1    0    0  501    0  0.00000000000E+00  0.00000000000E+00  0.12864958413E+04  0.12864958413E+04  0.00000000000E+00 0. -1.
         -1   -1    0    0    0  501 -0.00000000000E+00 -0.00000000000E+00 -0.43128116019E+03  0.43128116019E+03  0.00000000000E+00 0.  1.
         24    2    1    2    0    0  0.30150033012E+03 -0.34322540146E+03  0.45183412375E+03  0.64741111400E+03  0.79252443950E+02 0.  0.
        254    2    1    2    0    0 -0.30150033012E+03  0.34322540146E+03  0.40338055732E+03  0.10703658875E+04  0.87992109518E+03 0.  0.
         23    2    4    4    0    0 -0.38273387900E+03  0.19253002792E+03  0.63240621801E+03  0.77071983121E+03  0.10255925048E+03 0.  0.
         23    2    4    4    0    0  0.81233548878E+02  0.15069537354E+03 -0.22902566069E+03  0.29964605624E+03  0.89593642061E+02 0.  0.
          4    1    3    3  502    0  0.20005809306E+03 -0.22010883769E+03  0.34449719800E+03  0.45513674918E+03  0.00000000000E+00 0. -1.
         -3    1    3    3    0  502  0.10144223706E+03 -0.12311656377E+03  0.10733692575E+03  0.19227436481E+03  0.00000000000E+00 0.  1.
         11    1    5    5    0    0 -0.15560135930E+02  0.29622739632E+02  0.88099728775E+02  0.94240048513E+02  0.00000000000E+00 0.  1.
        -11    1    5    5    0    0 -0.36717374307E+03  0.16290728829E+03  0.54430648924E+03  0.67647978270E+03  0.00000000000E+00 0. -1.
          4    1    6    6  503    0  0.75508920555E+02  0.47572980740E+02 -0.11889503245E+03  0.14866342630E+03  0.00000000000E+00 0. -1.
         -4    1    6    6    0  503  0.57246283225E+01  0.10312239280E+03 -0.11013062824E+03  0.15098262994E+03  0.00000000000E+00 0.  1.
<mgrwt>
<rscale>  0 0.14897536E+04</rscale>
<asrwt>0</asrwt>
<pdfrwt beam="1">  1        2 0.19792243E+00 0.14897536E+04</pdfrwt>
<pdfrwt beam="2">  1       -1 0.66350948E-01 0.14897536E+04</pdfrwt>
<totfact> 0.42714769E+01</totfact>
</mgrwt>
</event>
<event>
12    6  0.1462228E-007  0.2271631E+04  0.7818608E-02  0.8489192E-01
         -1   -1    0    0    0  501 -0.00000000000E+00  0.00000000000E+00  0.80592989193E+03  0.80592989193E+03  0.00000000000E+00 0.  1.
          2   -1    0    0  501    0  0.00000000000E+00 -0.00000000000E+00 -0.16007301747E+04  0.16007301747E+04  0.00000000000E+00 0. -1.
         24    2    1    2    0    0  0.31280951609E+03  0.81355210536E+03 -0.75689614409E+03  0.11572446987E+04  0.81281598869E+02 0.  0.
        254    2    1    2    0    0 -0.31280951609E+03 -0.81355210536E+03 -0.37904138654E+02  0.12494153679E+04  0.89436302263E+03 0.  0.
         23    2    4    4    0    0 -0.26612851526E+03 -0.99490995304E+03 -0.78852124466E+02  0.10370356041E+04  0.92493164010E+02 0.  0.
         23    2    4    4    0    0 -0.46681000837E+02  0.18135784768E+03  0.40947985812E+02  0.21237976375E+03  0.91425607755E+02 0.  0.
          2    1    3    3  502    0  0.22792193260E+03  0.67280171299E+03 -0.59658344900E+03  0.92764344658E+03  0.00000000000E+00 0. -1.
         -1    1    3    3    0  502  0.84887583494E+02  0.14075039237E+03 -0.16031269508E+03  0.22960125215E+03  0.00000000000E+00 0.  1.
         11    1    5    5    0    0 -0.17540655912E+03 -0.48026380338E+03 -0.48087607720E+02  0.51354960796E+03  0.00000000000E+00 0.  1.
        -11    1    5    5    0    0 -0.90721956137E+02 -0.51464614966E+03 -0.30764516745E+02  0.52348599616E+03  0.00000000000E+00 0. -1.
          1    1    6    6  503    0 -0.64315317863E+02  0.81432828100E+02  0.22811388798E+01  0.10379291497E+03  0.00000000000E+00 0. -1.
         -1    1    6    6    0  503  0.17634317026E+02  0.99925019579E+02  0.38666846932E+02  0.10858684877E+03  0.00000000000E+00 0.  1.
<mgrwt>
<rscale>  0 0.22716305E+04</rscale>
<asrwt>0</asrwt>
<pdfrwt beam="1">  1        2 0.24626618E+00 0.22716305E+04</pdfrwt>
<pdfrwt beam="2">  1       -1 0.12398921E+00 0.22716305E+04</pdfrwt>
<totfact> 0.65848166E+00</totfact>
</mgrwt>
</event>
<event>
12    6  0.1462228E-007  0.1157933E+04  0.7818608E-02  0.9150496E-01
          2   -1    0    0  501    0  0.00000000000E+00  0.00000000000E+00  0.31940220239E+03  0.31940220239E+03  0.00000000000E+00 0. -1.
         -1   -1    0    0    0  501 -0.00000000000E+00 -0.00000000000E+00 -0.10494674106E+04  0.10494674106E+04  0.00000000000E+00 0.  1.
         24    2    1    2    0    0 -0.37767905320E+02  0.19141958194E+03 -0.25729482996E+03  0.33273124945E+03  0.80259478004E+02 0.  0.
        254    2    1    2    0    0  0.37767905320E+02 -0.19141958194E+03 -0.47277037822E+03  0.10361383635E+04  0.90111209448E+03 0.  0.
         23    2    4    4    0    0 -0.18130942378E+03 -0.19570325375E+03 -0.67127889982E+03  0.72803663055E+03  0.90824574902E+02 0.  0.
         23    2    4    4    0    0  0.21907732910E+03  0.42836718041E+01  0.19850852160E+03  0.30810173297E+03  0.86647670148E+02 0.  0.
          2    1    3    3  502    0 -0.14874302532E+02  0.69020527515E+02 -0.37082536088E+02  0.79750815525E+02  0.00000000000E+00 0. -1.
         -1    1    3    3    0  502 -0.22893602788E+02  0.12239905443E+03 -0.22021229388E+03  0.25298043392E+03  0.00000000000E+00 0.  1.
         11    1    5    5    0    0 -0.11694996019E+03 -0.95878535309E+02 -0.47628449390E+03  0.49971682566E+03  0.00000000000E+00 0. -1.
        -11    1    5    5    0    0 -0.64359463595E+02 -0.99824718439E+02 -0.19499440591E+03  0.22831980489E+03  0.00000000000E+00 0.  1.
          3    1    6    6  503    0  0.38520451741E+02 -0.32585126008E+02  0.32071063781E+02  0.59784352228E+02  0.00000000000E+00 0. -1.
         -3    1    6    6    0  503  0.18055687736E+03  0.36868797812E+02  0.16643745782E+03  0.24831738074E+03  0.00000000000E+00 0.  1.
<mgrwt>
<rscale>  0 0.11579330E+04</rscale>
<asrwt>0</asrwt>
<pdfrwt beam="1">  1        2 0.49138800E-01 0.11579330E+04</pdfrwt>
<pdfrwt beam="2">  1       -1 0.16145653E+00 0.11579330E+04</pdfrwt>
<totfact> 0.33060568E+01</totfact>
</mgrwt>
</event>
<event>
12    6  0.1462228E-007  0.2278037E+04  0.7818608E-02  0.8486631E-01
         -1   -1    0    0    0  501 -0.00000000000E+00  0.00000000000E+00  0.46312804594E+03  0.46312804594E+03  0.00000000000E+00 0.  1.
          2   -1    0    0  501    0  0.00000000000E+00 -0.00000000000E+00 -0.28013056308E+04  0.28013056308E+04  0.00000000000E+00 0. -1.
         24    2    1    2    0    0 -0.64274110280E+03  0.40659867943E+03 -0.18262046661E+04  0.19798694688E+04  0.80131265119E+02 0.  0.
        254    2    1    2    0    0  0.64274110280E+03 -0.40659867943E+03 -0.51197291873E+03  0.12845642079E+04  0.89975014497E+03 0.  0.
         23    2    4    4    0    0  0.42505488635E+03 -0.65332164902E+03 -0.17317629890E+03  0.80356931687E+03  0.90734684822E+02 0.  0.
         23    2    4    4    0    0  0.21768621645E+03  0.24672296959E+03 -0.33879661983E+03  0.48099489104E+03  0.91177974531E+02 0.  0.
          2    1    3    3  502    0 -0.62574582725E+03  0.40092535892E+03 -0.18056249181E+04  0.19525829889E+04  0.00000000000E+00 0. -1.
         -1    1    3    3    0  502 -0.16995275552E+02  0.56733205169E+01 -0.20579748015E+02  0.27286479897E+02  0.00000000000E+00 0.  1.
         11    1    5    5    0    0  0.37109981799E+03 -0.55748821885E+03 -0.17970064509E+03  0.69339780135E+03  0.00000000000E+00 0.  1.
        -11    1    5    5    0    0  0.53955068360E+02 -0.95833430175E+02  0.65243461858E+01  0.11017151553E+03  0.00000000000E+00 0. -1.
          1    1    6    6  503    0  0.56876758591E+02  0.26593398886E+02 -0.10263296407E+03  0.12031500258E+03  0.00000000000E+00 0. -1.
         -1    1    6    6    0  503  0.16080945786E+03  0.22012957070E+03 -0.23616365576E+03  0.36067988846E+03  0.00000000000E+00 0.  1.
<mgrwt>
<rscale>  0 0.22780371E+04</rscale>
<asrwt>0</asrwt>
<pdfrwt beam="1">  1        2 0.43097009E+00 0.22780371E+04</pdfrwt>
<pdfrwt beam="2">  1       -1 0.71250470E-01 0.22780371E+04</pdfrwt>
<totfact> 0.47467073E+00</totfact>
</mgrwt>
</event>
<event>
12    6  0.1462228E-007  0.2498960E+04  0.7818608E-02  0.8403356E-01
         -1   -1    0    0    0  501 -0.00000000000E+00  0.00000000000E+00  0.14326661347E+04  0.14326661347E+04  0.00000000000E+00 0.  1.
          2   -1    0    0  501    0  0.00000000000E+00 -0.00000000000E+00 -0.10897171138E+04  0.10897171138E+04  0.00000000000E+00 0. -1.
         24    2    1    2    0    0 -0.94417920844E+03  0.38632565127E+03 -0.22691166665E+03  0.10480891371E+04  0.79246755630E+02 0.  0.
        254    2    1    2    0    0  0.94417920844E+03 -0.38632565127E+03  0.56986068755E+03  0.14742941114E+04  0.89893272122E+03 0.  0.
         23    2    4    4    0    0  0.40688207530E+03  0.26772007462E+03  0.11501279254E+03  0.50897436037E+03  0.92735621621E+02 0.  0.
         23    2    4    4    0    0  0.53729713314E+03 -0.65404572589E+03  0.45484789501E+03  0.96531975105E+03  0.92149841735E+02 0.  0.
          2    1    3    3  502    0 -0.82380466724E+03  0.33318488883E+03 -0.22420280207E+03  0.91647869390E+03  0.00000000000E+00 0. -1.
         -1    1    3    3    0  502 -0.12037454120E+03  0.53140762434E+02 -0.27088645798E+01  0.13161044316E+03  0.00000000000E+00 0.  1.
         11    1    5    5    0    0  0.80078637968E+02  0.67224017435E+02 -0.11620267408E+02  0.10519832410E+03  0.00000000000E+00 0.  1.
        -11    1    5    5    0    0  0.32680343733E+03  0.20049605718E+03  0.12663305995E+03  0.40377603627E+03  0.00000000000E+00 0. -1.
          2    1    6    6  503    0  0.44541981887E+03 -0.53218273474E+03  0.33154121884E+03  0.76911433350E+03  0.00000000000E+00 0. -1.
         -2    1    6    6    0  503  0.91877314276E+02 -0.12186299115E+03  0.12330667616E+03  0.19620541755E+03  0.00000000000E+00 0.  1.
<mgrwt>
<rscale>  0 0.24989604E+04</rscale>
<asrwt>0</asrwt>
<pdfrwt beam="1">  1        2 0.16764879E+00 0.24989604E+04</pdfrwt>
<pdfrwt beam="2">  1       -1 0.22041017E+00 0.24989604E+04</pdfrwt>
<totfact> 0.24580759E+00</totfact>
</mgrwt>
</event>
<event>
12    6  0.1462228E-007  0.1599834E+04  0.7818608E-02  0.8820650E-01
          2   -1    0    0  501    0  0.00000000000E+00  0.00000000000E+00  0.35854300305E+03  0.35854300305E+03  0.00000000000E+00 0. -1.
         -1   -1    0    0    0  501 -0.00000000000E+00 -0.00000000000E+00 -0.17846313815E+04  0.17846313815E+04  0.00000000000E+00 0.  1.
         24    2    1    2    0    0 -0.22311768224E+02  0.14759586166E+03  0.21188435755E+03  0.27058376852E+03  0.77706122217E+02 0.  0.
        254    2    1    2    0    0  0.22311768224E+02 -0.14759586166E+03 -0.16379727360E+04  0.18725906160E+04  0.89518633701E+03 0.  0.
         23    2    4    4    0    0  0.89924266959E+02 -0.29830796809E+03 -0.12701631378E+03  0.34988738933E+03  0.95989705886E+02 0.  0.
         23    2    4    4    0    0 -0.67612498736E+02  0.15071210643E+03 -0.15109564222E+04  0.15227032267E+04  0.91379525734E+02 0.  0.
          4    1    3    3  502    0  0.26548374832E+02  0.82244912220E+02  0.11658632873E+03  0.14512551064E+03  0.00000000000E+00 0. -1.
         -3    1    3    3    0  502 -0.48860143056E+02  0.65350949443E+02  0.95298028820E+02  0.12545825788E+03  0.00000000000E+00 0.  1.
         11    1    5    5    0    0  0.29756006614E+01  0.62981351774E+01 -0.10012018329E+02  0.12196770762E+02  0.00000000000E+00 0. -1.
        -11    1    5    5    0    0  0.86948666298E+02 -0.30460610327E+03 -0.11700429545E+03  0.33769061857E+03  0.00000000000E+00 0.  1.
          1    1    6    6  503    0  0.86846203686E+01  0.35301831908E+02 -0.13501551978E+03  0.13982429169E+03  0.00000000000E+00 0. -1.
         -1    1    6    6    0  503 -0.76297119104E+02  0.11541027452E+03 -0.13759409024E+04  0.13828789350E+04  0.00000000000E+00 0.  1.
<mgrwt>
<rscale>  0 0.15998339E+04</rscale>
<asrwt>0</asrwt>
<pdfrwt beam="1">  1        2 0.55160463E-01 0.15998339E+04</pdfrwt>
<pdfrwt beam="2">  1       -1 0.27455867E+00 0.15998339E+04</pdfrwt>
<totfact> 0.47686915E+00</totfact>
</mgrwt>
</event>
<event>
12    6  0.1462228E-007  0.1708702E+04  0.7818608E-02  0.8756417E-01
          2   -1    0    0  501    0  0.00000000000E+00  0.00000000000E+00  0.11918992776E+04  0.11918992776E+04  0.00000000000E+00 0. -1.
         -1   -1    0    0    0  501 -0.00000000000E+00 -0.00000000000E+00 -0.61239688768E+03  0.61239688768E+03  0.00000000000E+00 0.  1.
         24    2    1    2    0    0  0.53780419035E+03  0.20568502099E+03  0.43616463294E+03  0.72663391061E+03  0.78851620180E+02 0.  0.
        254    2    1    2    0    0 -0.53780419035E+03 -0.20568502099E+03  0.14333775699E+03  0.10776622547E+04  0.89959465736E+03 0.  0.
         23    2    4    4    0    0  0.64073162415E+02  0.24433450522E+03 -0.96998199662E+02  0.28470645900E+03  0.88568597600E+02 0.  0.
         23    2    4    4    0    0 -0.60187735276E+03 -0.45001952620E+03  0.24033595665E+03  0.79295579567E+03  0.79016454531E+02 0.  0.
          2    1    3    3  502    0  0.51227815441E+03  0.17524205306E+03  0.40491125950E+03  0.67608565487E+03  0.00000000000E+00 0. -1.
         -1    1    3    3    0  502  0.25526035932E+02  0.30442967932E+02  0.31253373440E+02  0.50548255739E+02  0.00000000000E+00 0.  1.
         11    1    5    5    0    0  0.53427802036E+02  0.54957444438E+02 -0.41066234250E+02  0.86955657234E+02  0.00000000000E+00 0.  1.
        -11    1    5    5    0    0  0.10645360379E+02  0.18937706078E+03 -0.55931965412E+02  0.19775080177E+03  0.00000000000E+00 0. -1.
          3    1    6    6  503    0 -0.55305832274E+03 -0.42529775402E+03  0.20264550557E+03  0.72651007485E+03  0.00000000000E+00 0. -1.
         -3    1    6    6    0  503 -0.48819030018E+02 -0.24721772185E+02  0.37690451085E+02  0.66445720817E+02  0.00000000000E+00 0.  1.
<mgrwt>
<rscale>  0 0.17087017E+04</rscale>
<asrwt>0</asrwt>
<pdfrwt beam="1">  1        2 0.18336912E+00 0.17087017E+04</pdfrwt>
<pdfrwt beam="2">  1       -1 0.94214906E-01 0.17087017E+04</pdfrwt>
<totfact> 0.22659424E+01</totfact>
</mgrwt>
</event>
<event>
12    6  0.1462228E-007  0.1246517E+04  0.7818608E-02  0.9073087E-01
         -1   -1    0    0    0  501 -0.00000000000E+00  0.00000000000E+00  0.20313428304E+03  0.20313428304E+03  0.00000000000E+00 0.  1.
          2   -1    0    0  501    0  0.00000000000E+00 -0.00000000000E+00 -0.19122865692E+04  0.19122865692E+04  0.00000000000E+00 0. -1.
         24    2    1    2    0    0  0.61059975963E+02 -0.35380595924E+02  0.51865111947E+02  0.13976045181E+03  0.10891688033E+03 0.  0.
        254    2    1    2    0    0 -0.61059975963E+02  0.35380595924E+02 -0.17610173981E+04  0.19756604005E+04  0.89278868393E+03 0.  0.
         23    2    4    4    0    0  0.37914014937E+03  0.12247197515E+02 -0.11685805518E+04  0.12316686540E+04  0.86775114251E+02 0.  0.
         23    2    4    4    0    0 -0.44020012534E+03  0.23133398408E+02 -0.59243684629E+03  0.74399174643E+03  0.90724844662E+02 0.  0.
          4    1    3    3  502    0  0.23222594220E+02  0.10839879394E+02 -0.29337195290E+02  0.38954626106E+02  0.00000000000E+00 0. -1.
         -3    1    3    3    0  502  0.37837381743E+02 -0.46220475318E+02  0.81202307237E+02  0.10080582571E+03  0.00000000000E+00 0.  1.
         11    1    5    5    0    0  0.42143994859E+02  0.60369323476E+01 -0.64481606831E+02  0.77268612479E+02  0.00000000000E+00 0.  1.
        -11    1    5    5    0    0  0.33699615452E+03  0.62102651678E+01 -0.11040989450E+04  0.11544000415E+04  0.00000000000E+00 0. -1.
          3    1    6    6  503    0 -0.10224706548E+03 -0.21956862317E+02 -0.18696211351E+03  0.21422277677E+03  0.00000000000E+00 0. -1.
         -3    1    6    6    0  503 -0.33795305986E+03  0.45090260726E+02 -0.40547473279E+03  0.52976896965E+03  0.00000000000E+00 0.  1.
<mgrwt>
<rscale>  0 0.12465167E+04</rscale>
<asrwt>0</asrwt>
<pdfrwt beam="1">  1        2 0.29419794E+00 0.12465167E+04</pdfrwt>
<pdfrwt beam="2">  1       -1 0.31251428E-01 0.12465167E+04</pdfrwt>
<totfact> 0.79586196E+01</totfact>
</mgrwt>
</event>
<event>
12    6  0.1462228E-007  0.1491496E+04  0.7818608E-02  0.8890128E-01
          2   -1    0    0  501    0  0.00000000000E+00  0.00000000000E+00  0.14351140143E+04  0.14351140143E+04  0.00000000000E+00 0. -1.
         -1   -1    0    0    0  501 -0.00000000000E+00 -0.00000000000E+00 -0.38752344334E+03  0.38752344334E+03  0.00000000000E+00 0.  1.
         24    2    1    2    0    0 -0.16009179490E+03 -0.38293520834E+03  0.60377342949E+03  0.73887974111E+03  0.95562341346E+02 0.  0.
        254    2    1    2    0    0  0.16009179490E+03  0.38293520834E+03  0.44381714150E+03  0.10837577166E+04  0.89737861383E+03 0.  0.
         23    2    4    4    0    0 -0.12235007780E+03  0.54650421666E+03  0.58440392445E+02  0.57040442571E+03  0.91156618160E+02 0.  0.
         23    2    4    4    0    0  0.28244187270E+03 -0.16356900832E+03  0.38537674906E+03  0.51335329086E+03  0.92131051167E+02 0.  0.
          2    1    3    3  502    0 -0.11476202849E+01 -0.60795781859E+02  0.13697660696E+03  0.14986672406E+03  0.00000000000E+00 0. -1.
         -1    1    3    3    0  502 -0.15894417461E+03 -0.32213942648E+03  0.46679682253E+03  0.58901301705E+03  0.00000000000E+00 0.  1.
         11    1    5    5    0    0 -0.13023739637E+03  0.46025323390E+03  0.68524579795E+02  0.48320848168E+03  0.00000000000E+00 0.  1.
        -11    1    5    5    0    0  0.78873185663E+01  0.86250982759E+02 -0.10084187350E+02  0.87195944031E+02  0.00000000000E+00 0. -1.
          3    1    6    6  503    0  0.94038131623E+02 -0.81339306474E+01  0.95104207339E+02  0.13399306430E+03  0.00000000000E+00 0. -1.
         -3    1    6    6    0  503  0.18840374108E+03 -0.15543507767E+03  0.29027254172E+03  0.37936022656E+03  0.00000000000E+00 0.  1.
<mgrwt>
<rscale>  0 0.14914963E+04</rscale>
<asrwt>0</asrwt>
<pdfrwt beam="1">  1        2 0.22078677E+00 0.14914963E+04</pdfrwt>
<pdfrwt beam="2">  1       -1 0.59618992E-01 0.14914963E+04</pdfrwt>
<totfact> 0.43420584E+01</totfact>
</mgrwt>
</event>
<event>
12    6  0.1462228E-007  0.1388312E+04  0.7818608E-02  0.8962323E-01
         -1   -1    0    0    0  501 -0.00000000000E+00  0.00000000000E+00  0.71269686233E+03  0.71269686233E+03  0.00000000000E+00 0.  1.
          2   -1    0    0  501    0  0.00000000000E+00 -0.00000000000E+00 -0.67609725934E+03  0.67609725934E+03  0.00000000000E+00 0. -1.
         24    2    1    2    0    0 -0.15588434479E+03 -0.16753981481E+03 -0.31695967670E+03  0.39911758464E+03  0.80385889399E+02 0.  0.
        254    2    1    2    0    0  0.15588434479E+03  0.16753981481E+03  0.35355927969E+03  0.98967653703E+03  0.89559252185E+03 0.  0.
         23    2    4    4    0    0 -0.15069257046E+03  0.22115597035E+03  0.54435269925E+03  0.61340402105E+03  0.91249207388E+02 0.  0.
         23    2    4    4    0    0  0.30657691525E+03 -0.53616155539E+02 -0.19079341956E+03  0.37627251598E+03  0.91185416775E+02 0.  0.
          2    1    3    3  502    0 -0.89012049582E+02 -0.75911596698E+02 -0.98371241037E+02  0.15284834493E+03  0.00000000000E+00 0. -1.
         -1    1    3    3    0  502 -0.66872295207E+02 -0.91628218117E+02 -0.21858843566E+03  0.24626923971E+03  0.00000000000E+00 0.  1.
         11    1    5    5    0    0 -0.13557487230E+03  0.22631476360E+03  0.52954733639E+03  0.59162428930E+03  0.00000000000E+00 0.  1.
        -11    1    5    5    0    0 -0.15117698163E+02 -0.51587932478E+01  0.14805362866E+02  0.21779731750E+02  0.00000000000E+00 0. -1.
          2    1    6    6  503    0  0.11502856950E+03 -0.31860058222E+02 -0.24873787853E+02  0.12192350238E+03  0.00000000000E+00 0. -1.
         -2    1    6    6    0  503  0.19154834575E+03 -0.21756097317E+02 -0.16591963171E+03  0.25434901360E+03  0.00000000000E+00 0.  1.
<mgrwt>
<rscale>  0 0.13883118E+04</rscale>
<asrwt>0</asrwt>
<pdfrwt beam="1">  1        2 0.10401496E+00 0.13883118E+04</pdfrwt>
<pdfrwt beam="2">  1       -1 0.10964567E+00 0.13883118E+04</pdfrwt>
<totfact> 0.36649972E+01</totfact>
</mgrwt>
</event>
<event>
12    6  0.1462228E-007  0.1206792E+04  0.7818608E-02  0.9106932E-01
          2   -1    0    0  501    0  0.00000000000E+00  0.00000000000E+00  0.11178293016E+04  0.11178293016E+04  0.00000000000E+00 0. -1.
         -1   -1    0    0    0  501 -0.00000000000E+00 -0.00000000000E+00 -0.32570870490E+03  0.32570870490E+03  0.00000000000E+00 0.  1.
         24    2    1    2    0    0  0.23751743062E+03 -0.67045073500E+02  0.16553576797E+03  0.30760368650E+03  0.79425221074E+02 0.  0.
        254    2    1    2    0    0 -0.23751743062E+03  0.67045073500E+02  0.62658482877E+03  0.11359343200E+04  0.91478339516E+03 0.  0.
         23    2    4    4    0    0 -0.14155634028E+03  0.48332270630E+03  0.32727575832E+03  0.60744390825E+03  0.90772483624E+02 0.  0.
         23    2    4    4    0    0 -0.95961090344E+02 -0.41627763280E+03  0.29930907044E+03  0.52849041179E+03  0.84974097645E+02 0.  0.
          4    1    3    3  502    0  0.18930777895E+03 -0.82498751740E+02  0.11637963379E+03  0.23703944476E+03  0.00000000000E+00 0. -1.
         -3    1    3    3    0  502  0.48209651671E+02  0.15453678240E+02  0.49156134184E+02  0.70564241747E+02  0.00000000000E+00 0.  1.
         11    1    5    5    0    0 -0.52887733751E+02  0.23847349614E+03  0.10828415979E+03  0.26719315111E+03  0.00000000000E+00 0. -1.
        -11    1    5    5    0    0 -0.88668606527E+02  0.24484921016E+03  0.21899159854E+03  0.34025075713E+03  0.00000000000E+00 0.  1.
          2    1    6    6  503    0 -0.10510352028E+01  0.42770726449E+01  0.36532157079E+01  0.57222382348E+01  0.00000000000E+00 0. -1.
         -2    1    6    6    0  503 -0.94910055141E+02 -0.42055470545E+03  0.29565585473E+03  0.52276817355E+03  0.00000000000E+00 0.  1.
<mgrwt>
<rscale>  0 0.12067920E+04</rscale>
<asrwt>0</asrwt>
<pdfrwt beam="1">  1        2 0.17197374E+00 0.12067920E+04</pdfrwt>
<pdfrwt beam="2">  1       -1 0.50109032E-01 0.12067920E+04</pdfrwt>
<totfact> 0.95465536E+01</totfact>
</mgrwt>
</event>
<event>
12    6  0.1462228E-007  0.1607610E+04  0.7818608E-02  0.8815887E-01
         -1   -1    0    0    0  501 -0.00000000000E+00  0.00000000000E+00  0.13334424743E+04  0.13334424743E+04  0.00000000000E+00 0.  1.
          2   -1    0    0  501    0  0.00000000000E+00 -0.00000000000E+00 -0.48453690905E+03  0.48453690905E+03  0.00000000000E+00 0. -1.
         24    2    1    2    0    0  0.53705602632E+03 -0.13248215599E+02  0.34864837910E+03  0.64346516286E+03  0.62346073993E+02 0.  0.
        254    2    1    2    0    0 -0.53705602632E+03  0.13248215599E+02  0.50025718612E+03  0.11745142205E+04  0.91685424750E+03 0.  0.
         23    2    4    4    0    0 -0.24189763834E+03 -0.70439668368E+02 -0.24473755208E+03  0.36382060901E+03  0.94830120894E+02 0.  0.
         23    2    4    4    0    0 -0.29515838798E+03  0.83687883967E+02  0.74499473820E+03  0.81069361144E+03  0.89915714751E+02 0.  0.
          4    1    3    3  502    0  0.85923476223E+02  0.15432456765E+02  0.39496457782E+02  0.95817402727E+02  0.00000000000E+00 0. -1.
         -3    1    3    3    0  502  0.45113255010E+03 -0.28680672364E+02  0.30915192132E+03  0.54764776014E+03  0.00000000000E+00 0.  1.
         11    1    5    5    0    0 -0.65845069127E+02 -0.33380368559E+02 -0.21061449836E+02  0.76768527423E+02  0.00000000000E+00 0.  1.
        -11    1    5    5    0    0 -0.17605256921E+03 -0.37059299809E+02 -0.22367610225E+03  0.28705208159E+03  0.00000000000E+00 0. -1.
          1    1    6    6  503    0 -0.63690048747E+02 -0.17966655442E+02  0.17754190069E+03  0.18947387555E+03  0.00000000000E+00 0. -1.
         -1    1    6    6    0  503 -0.23146833924E+03  0.10165453941E+03  0.56745283752E+03  0.62121973589E+03  0.00000000000E+00 0.  1.
<mgrwt>
<rscale>  0 0.16076095E+04</rscale>
<asrwt>0</asrwt>
<pdfrwt beam="1">  1        2 0.74544140E-01 0.16076095E+04</pdfrwt>
<pdfrwt beam="2">  1       -1 0.20514499E+00 0.16076095E+04</pdfrwt>
<totfact> 0.97065685E+00</totfact>
</mgrwt>
</event>
<event>
12    6  0.1462228E-007  0.1203609E+04  0.7818608E-02  0.9109703E-01
          2   -1    0    0  501    0  0.00000000000E+00  0.00000000000E+00  0.82023693741E+03  0.82023693741E+03  0.00000000000E+00 0. -1.
         -1   -1    0    0    0  501 -0.00000000000E+00 -0.00000000000E+00 -0.44154155748E+03  0.44154155748E+03  0.00000000000E+00 0.  1.
         24    2    1    2    0    0 -0.12493286797E+03  0.11119982213E+03  0.30095552290E+03  0.35329674163E+03  0.79187997456E+02 0.  0.
        254    2    1    2    0    0  0.12493286797E+03 -0.11119982213E+03  0.77739857024E+02  0.90848175326E+03  0.88956280762E+03 0.  0.
         23    2    4    4    0    0  0.12791945703E+03 -0.49084647726E+03  0.50755944691E+02  0.51783749082E+03  0.91026640324E+02 0.  0.
         23    2    4    4    0    0 -0.29865890593E+01  0.37964665513E+03  0.26983912334E+02  0.39064426244E+03  0.87944901991E+02 0.  0.
          2    1    3    3  502    0 -0.12222327870E+02  0.58264382009E+02  0.11506420592E+03  0.12955267266E+03  0.00000000000E+00 0. -1.
         -1    1    3    3    0  502 -0.11271054010E+03  0.52935440119E+02  0.18589131698E+03  0.22374406897E+03  0.00000000000E+00 0.  1.
         11    1    5    5    0    0  0.11225740896E+03 -0.42577707369E+03  0.74971102591E+02  0.44666375336E+03  0.00000000000E+00 0. -1.
        -11    1    5    5    0    0  0.15662048062E+02 -0.65069403576E+02 -0.24215157901E+02  0.71173737455E+02  0.00000000000E+00 0.  1.
          1    1    6    6  503    0 -0.12347664898E+02  0.69747701125E+02 -0.27255854822E+02  0.75895245324E+02  0.00000000000E+00 0. -1.
         -1    1    6    6    0  503  0.93610758385E+01  0.30989895401E+03  0.54239767155E+02  0.31474901712E+03  0.00000000000E+00 0.  1.
<mgrwt>
<rscale>  0 0.12036091E+04</rscale>
<asrwt>0</asrwt>
<pdfrwt beam="1">  1        2 0.12619030E+00 0.12036091E+04</pdfrwt>
<pdfrwt beam="2">  1       -1 0.67929471E-01 0.12036091E+04</pdfrwt>
<totfact> 0.82333651E+01</totfact>
</mgrwt>
</event>
<event>
12    6  0.1462228E-007  0.2961805E+04  0.7818608E-02  0.8254723E-01
          2   -1    0    0  501    0  0.00000000000E+00  0.00000000000E+00  0.20370139212E+04  0.20370139212E+04  0.00000000000E+00 0. -1.
         -1   -1    0    0    0  501 -0.00000000000E+00 -0.00000000000E+00 -0.10766112095E+04  0.10766112095E+04  0.00000000000E+00 0.  1.
         24    2    1    2    0    0 -0.10367858940E+04  0.61831480750E+03  0.10479410345E+04  0.16008587142E+04  0.85615533685E+02 0.  0.
        254    2    1    2    0    0  0.10367858940E+04 -0.61831480750E+03 -0.87538322846E+02  0.15127664165E+04  0.90750266215E+03 0.  0.
         23    2    4    4    0    0  0.83545549857E+03 -0.43818773925E+03  0.33399122527E+03  0.10048453221E+04  0.90385827624E+02 0.  0.
         23    2    4    4    0    0  0.20133039546E+03 -0.18012706825E+03 -0.42152954812E+03  0.50792109446E+03  0.85539402632E+02 0.  0.
          2    1    3    3  502    0 -0.86483112693E+03  0.48690359047E+03  0.88805747626E+03  0.13317860435E+04  0.00000000000E+00 0. -1.
         -1    1    3    3    0  502 -0.17195476711E+03  0.13141121703E+03  0.15988355827E+03  0.26907267066E+03  0.00000000000E+00 0.  1.
         11    1    5    5    0    0  0.36467797813E+03 -0.24138996973E+03  0.14592658354E+03  0.46103547911E+03  0.00000000000E+00 0. -1.
        -11    1    5    5    0    0  0.47077752045E+03 -0.19679776952E+03  0.18806464173E+03  0.54380984298E+03  0.00000000000E+00 0.  1.
          3    1    6    6  503    0  0.46347822303E+00  0.77686142839E+01 -0.17530610503E+02  0.19180419301E+02  0.00000000000E+00 0. -1.
         -3    1    6    6    0  503  0.20086691724E+03 -0.18789568254E+03 -0.40399893762E+03  0.48874067516E+03  0.00000000000E+00 0.  1.
<mgrwt>
<rscale>  0 0.29618049E+04</rscale>
<asrwt>0</asrwt>
<pdfrwt beam="1">  1        2 0.31338676E+00 0.29618049E+04</pdfrwt>
<pdfrwt beam="2">  1       -1 0.16563249E+00 0.29618049E+04</pdfrwt>
<totfact> 0.16497107E+00</totfact>
</mgrwt>
</event>
<event>
12    6  0.1462228E-007  0.1839013E+04  0.7818608E-02  0.8685824E-01
         -1   -1    0    0    0  501 -0.00000000000E+00  0.00000000000E+00  0.25261698442E+03  0.25261698442E+03  0.00000000000E+00 0.  1.
          2   -1    0    0  501    0  0.00000000000E+00 -0.00000000000E+00 -0.33469318418E+04  0.33469318418E+04  0.00000000000E+00 0. -1.
         24    2    1    2    0    0  0.91871285266E+02  0.28295615635E+03  0.53321949022E+02  0.31246358978E+03  0.79282691779E+02 0.  0.
        254    2    1    2    0    0 -0.91871285266E+02 -0.28295615635E+03 -0.31476368064E+04  0.32870852364E+04  0.89933718214E+03 0.  0.
         23    2    4    4    0    0 -0.48449136666E+03 -0.13346702490E+03 -0.15375293913E+04  0.16205845381E+04  0.98753658476E+02 0.  0.
         23    2    4    4    0    0  0.39262008140E+03 -0.14948913144E+03 -0.16101074151E+04  0.16665006983E+04  0.91000882029E+02 0.  0.
          4    1    3    3  502    0  0.29647891898E+02  0.21761656887E+02  0.20102053048E+02  0.41912524873E+02  0.00000000000E+00 0. -1.
         -3    1    3    3    0  502  0.62223393368E+02  0.26119449946E+03  0.33219895974E+02  0.27055106490E+03  0.00000000000E+00 0.  1.
         11    1    5    5    0    0 -0.40069622321E+03 -0.82216760030E+02 -0.11421776839E+04  0.12132134686E+04  0.00000000000E+00 0. -1.
        -11    1    5    5    0    0 -0.83795143452E+02 -0.51250264875E+02 -0.39535170738E+03  0.40737106947E+03  0.00000000000E+00 0.  1.
          2    1    6    6  503    0  0.28459290070E+03 -0.12857782282E+03 -0.13142783352E+04  0.13508711701E+04  0.00000000000E+00 0. -1.
         -2    1    6    6    0  503  0.10802718070E+03 -0.20911308629E+02 -0.29582907988E+03  0.31562952824E+03  0.00000000000E+00 0.  1.
<mgrwt>
<rscale>  0 0.18390126E+04</rscale>
<asrwt>0</asrwt>
<pdfrwt beam="1">  1        2 0.51491254E+00 0.18390126E+04</pdfrwt>
<pdfrwt beam="2">  1       -1 0.38864155E-01 0.18390126E+04</pdfrwt>
<totfact> 0.71699147E+00</totfact>
</mgrwt>
</event>
<event>
12    6  0.1462228E-007  0.1197729E+04  0.7818608E-02  0.9114846E-01
          2   -1    0    0  501    0  0.00000000000E+00  0.00000000000E+00  0.41148325366E+04  0.41148325366E+04  0.00000000000E+00 0. -1.
         -1   -1    0    0    0  501 -0.00000000000E+00 -0.00000000000E+00 -0.87157593219E+02  0.87157593219E+02  0.00000000000E+00 0.  1.
         24    2    1    2    0    0 -0.53807819087E+02 -0.24256498175E+03  0.11000319013E+04  0.11304310067E+04  0.77916783650E+02 0.  0.
        254    2    1    2    0    0  0.53807819087E+02  0.24256498175E+03  0.29276430420E+04  0.30715591231E+04  0.89534831961E+03 0.  0.
         23    2    4    4    0    0 -0.37154985568E+03 -0.37672052890E+02  0.89523516075E+03  0.97432557667E+03  0.91628911868E+02 0.  0.
         23    2    4    4    0    0  0.42535767477E+03  0.28023703464E+03  0.20324078813E+04  0.20972335464E+04  0.90800910448E+02 0.  0.
          2    1    3    3  502    0 -0.31776116315E+02 -0.16444720924E+03  0.88243435446E+03  0.89818873079E+03  0.00000000000E+00 0. -1.
         -1    1    3    3    0  502 -0.22031702773E+02 -0.78117772511E+02  0.21759754687E+03  0.23224227590E+03  0.00000000000E+00 0.  1.
         11    1    5    5    0    0 -0.37093721918E+03 -0.45178557307E+02  0.85063347911E+03  0.92909248108E+03  0.00000000000E+00 0.  1.
        -11    1    5    5    0    0 -0.61263650271E+00  0.75065044169E+01  0.44601681635E+02  0.45233095591E+02  0.00000000000E+00 0. -1.
          4    1    6    6  503    0  0.26563393219E+03  0.13332788575E+03  0.12873660145E+04  0.13212300960E+04  0.00000000000E+00 0. -1.
         -4    1    6    6    0  503  0.15972374258E+03  0.14690914890E+03  0.74504186674E+03  0.77600345049E+03  0.00000000000E+00 0.  1.
<mgrwt>
<rscale>  0 0.11977294E+04</rscale>
<asrwt>0</asrwt>
<pdfrwt beam="1">  1        2 0.63305101E+00 0.11977294E+04</pdfrwt>
<pdfrwt beam="2">  1       -1 0.13408864E-01 0.11977294E+04</pdfrwt>
<totfact> 0.12749950E+01</totfact>
</mgrwt>
</event>
<event>
12    6  0.1462228E-007  0.3058407E+04  0.7818608E-02  0.8227246E-01
         -1   -1    0    0    0  501 -0.00000000000E+00  0.00000000000E+00  0.17241584110E+04  0.17241584110E+04  0.00000000000E+00 0.  1.
          2   -1    0    0  501    0  0.00000000000E+00 -0.00000000000E+00 -0.13562925991E+04  0.13562925991E+04  0.00000000000E+00 0. -1.
         24    2    1    2    0    0  0.79317513680E+03  0.80340203398E+03 -0.66360353252E+03  0.13119070653E+04  0.78414754946E+02 0.  0.
        254    2    1    2    0    0 -0.79317513680E+03 -0.80340203398E+03  0.10314693444E+04  0.17685439447E+04  0.88839014526E+03 0.  0.
         23    2    4    4    0    0  0.54189208545E+02 -0.45363285390E+03  0.57682071818E+03  0.74151955927E+03  0.91705394564E+02 0.  0.
         23    2    4    4    0    0 -0.84736434534E+03 -0.34976918008E+03  0.45464862622E+03  0.10270243855E+04  0.87800352703E+02 0.  0.
          4    1    3    3  502    0  0.14359364398E+03  0.13444035771E+03 -0.83224526189E+02  0.21358760763E+03  0.00000000000E+00 0. -1.
         -3    1    3    3    0  502  0.64958149282E+03  0.66896167627E+03 -0.58037900633E+03  0.10983194577E+04  0.00000000000E+00 0.  1.
         11    1    5    5    0    0  0.40828975250E+01 -0.14018427296E+03  0.11626556282E+03  0.18217019936E+03  0.00000000000E+00 0.  1.
        -11    1    5    5    0    0  0.50106311020E+02 -0.31344858094E+03  0.46055515536E+03  0.55934935991E+03  0.00000000000E+00 0. -1.
          1    1    6    6  503    0 -0.32451338494E+03 -0.18016928372E+03  0.17726412011E+03  0.41133013029E+03  0.00000000000E+00 0. -1.
         -1    1    6    6    0  503 -0.52285096040E+03 -0.16959989636E+03  0.27738450610E+03  0.61569425518E+03  0.00000000000E+00 0.  1.
<mgrwt>
<rscale>  0 0.30584070E+04</rscale>
<asrwt>0</asrwt>
<pdfrwt beam="1">  1        2 0.20866040E+00 0.30584070E+04</pdfrwt>
<pdfrwt beam="2">  1       -1 0.26525514E+00 0.30584070E+04</pdfrwt>
<totfact> 0.82514444E-01</totfact>
</mgrwt>
</event>
<event>
12    6  0.1615302E-007  0.1547960E+04  0.7818608E-02  0.8853172E-01
          2   -1    0    0  501    0  0.00000000000E+00  0.00000000000E+00  0.17228854097E+04  0.17228854097E+04  0.00000000000E+00 0. -1.
         -1   -1    0    0    0  501 -0.00000000000E+00 -0.00000000000E+00 -0.34769885165E+03  0.34769885165E+03  0.00000000000E+00 0.  1.
         24    2    1    2    0    0  0.13275416799E+03 -0.26406018059E+03  0.88222245801E+03  0.93338946280E+03  0.74484735175E+02 0.  0.
        254    2    1    2    0    0 -0.13275416799E+03  0.26406018059E+03  0.49296410007E+03  0.11371947986E+04  0.98124765367E+03 0.  0.
         23    2    4    4    0    0  0.54565164041E+02  0.51597334182E+03  0.59376656565E+03  0.79384199839E+03  0.91763485816E+02 0.  0.
         23    2    4    4    0    0 -0.18731933203E+03 -0.25191316123E+03 -0.10080246558E+03  0.34335280018E+03  0.95818763170E+02 0.  0.
          4    1    3    3  502    0  0.14193661445E+03 -0.25241594843E+03  0.84833104867E+03  0.89639577290E+03  0.00000000000E+00 0. -1.
         -3    1    3    3    0  502 -0.91824464645E+01 -0.11644232158E+02  0.33891409335E+02  0.36993689899E+02  0.00000000000E+00 0.  1.
         11    1    5    5    0    0  0.69223407672E+02  0.49640920694E+03  0.57648752709E+03  0.76390565503E+03  0.00000000000E+00 0. -1.
        -11    1    5    5    0    0 -0.14658243631E+02  0.19564134879E+02  0.17279038562E+02  0.29936343356E+02  0.00000000000E+00 0.  1.
          1    1    6    6  503    0 -0.19267693457E+03 -0.20829919756E+03 -0.93840927440E+02  0.29886297275E+03  0.00000000000E+00 0. -1.
         -1    1    6    6    0  503  0.53576025389E+01 -0.43613963664E+02 -0.69615381355E+01  0.44489827429E+02  0.00000000000E+00 0.  1.
<mgrwt>
<rscale>  0 0.15479603E+04</rscale>
<asrwt>0</asrwt>
<pdfrwt beam="1">  1        2 0.26505929E+00 0.15479603E+04</pdfrwt>
<pdfrwt beam="2">  1       -1 0.53492132E-01 0.15479603E+04</pdfrwt>
<totfact> 0.36827446E+01</totfact>
</mgrwt>
</event>
<event>
12    6  0.1462228E-007  0.1364756E+04  0.7818608E-02  0.8979733E-01
         -1   -1    0    0    0  501 -0.00000000000E+00  0.00000000000E+00  0.45704177119E+03  0.45704177119E+03  0.00000000000E+00 0.  1.
          2   -1    0    0  501    0  0.00000000000E+00 -0.00000000000E+00 -0.10188122754E+04  0.10188122754E+04  0.00000000000E+00 0. -1.
         24    2    1    2    0    0  0.21894414748E+03 -0.23101472522E+03 -0.37594581105E+03  0.49892968477E+03  0.79317302731E+02 0.  0.
        254    2    1    2    0    0 -0.21894414748E+03  0.23101472522E+03 -0.18582469318E+03  0.97692436184E+03  0.90473534759E+03 0.  0.
         23    2    4    4    0    0 -0.43044609240E+02 -0.11388930732E+01 -0.51695198634E+03  0.52676804316E+03  0.91602836503E+02 0.  0.
         23    2    4    4    0    0 -0.17589953824E+03  0.23215361830E+03  0.33112729316E+03  0.45015631868E+03  0.90329823040E+02 0.  0.
          2    1    3    3  502    0  0.15122976960E+02 -0.49439354109E+02 -0.36226243736E+02  0.63129192155E+02  0.00000000000E+00 0. -1.
         -1    1    3    3    0  502  0.20382117052E+03 -0.18157537111E+03 -0.33971956732E+03  0.43580049262E+03  0.00000000000E+00 0.  1.
         11    1    5    5    0    0 -0.23948066551E+02 -0.28689002903E+02 -0.45321863859E+03  0.45475675162E+03  0.00000000000E+00 0.  1.
        -11    1    5    5    0    0 -0.19096542689E+02  0.27550109830E+02 -0.63733347753E+02  0.72011291545E+02  0.00000000000E+00 0. -1.
          2    1    6    6  503    0 -0.29057729061E+02  0.11051881166E+03  0.12396357253E+03  0.16859930801E+03  0.00000000000E+00 0. -1.
         -2    1    6    6    0  503 -0.14684180918E+03  0.12163480663E+03  0.20716372063E+03  0.28155701066E+03  0.00000000000E+00 0.  1.
<mgrwt>
<rscale>  0 0.13647560E+04</rscale>
<asrwt>0</asrwt>
<pdfrwt beam="1">  1        2 0.15674035E+00 0.13647560E+04</pdfrwt>
<pdfrwt beam="2">  1       -1 0.70314119E-01 0.13647560E+04</pdfrwt>
<totfact> 0.55758814E+01</totfact>
</mgrwt>
</event>
<event>
12    6  0.1462228E-007  0.4739860E+04  0.7818608E-02  0.7869939E-01
          2   -1    0    0  501    0  0.00000000000E+00  0.00000000000E+00  0.31757218737E+04  0.31757218737E+04  0.00000000000E+00 0. -1.
         -1   -1    0    0    0  501 -0.00000000000E+00 -0.00000000000E+00 -0.17685957166E+04  0.17685957166E+04  0.00000000000E+00 0.  1.
         24    2    1    2    0    0 -0.14013738838E+04 -0.37008570734E+03 -0.11363051184E+04  0.18436010933E+04  0.82846098335E+02 0.  0.
        254    2    1    2    0    0  0.14013738838E+04  0.37008570734E+03  0.25434312755E+04  0.31007164970E+04  0.10220508542E+04 0.  0.
         23    2    4    4    0    0  0.36278108838E+03  0.56054652741E+03  0.13229453897E+04  0.14842282428E+04  0.83225267131E+02 0.  0.
         23    2    4    4    0    0  0.10385927954E+04 -0.19046082007E+03  0.12204858858E+04  0.16164882542E+04  0.92185464646E+02 0.  0.
          4    1    3    3  502    0 -0.11837023074E+04 -0.33288063352E+03 -0.93413089478E+03  0.15442024470E+04  0.00000000000E+00 0. -1.
         -3    1    3    3    0  502 -0.21767157636E+03 -0.37205073816E+02 -0.20217422365E+03  0.29939864626E+03  0.00000000000E+00 0.  1.
         11    1    5    5    0    0  0.18133094580E+03  0.27937700890E+03  0.75172657987E+03  0.82220756254E+03  0.00000000000E+00 0.  1.
        -11    1    5    5    0    0  0.18145014259E+03  0.28116951851E+03  0.57121880983E+03  0.66202068025E+03  0.00000000000E+00 0. -1.
          2    1    6    6  503    0  0.31224069795E+03 -0.94636642223E+02  0.40916892788E+03  0.52332548098E+03  0.00000000000E+00 0. -1.
         -2    1    6    6    0  503  0.72635209748E+03 -0.95824177849E+02  0.81131695791E+03  0.10931627732E+04  0.00000000000E+00 0.  1.
<mgrwt>
<rscale>  0 0.47398600E+04</rscale>
<asrwt>0</asrwt>
<pdfrwt beam="1">  1        2 0.48857260E+00 0.47398600E+04</pdfrwt>
<pdfrwt beam="2">  1       -1 0.27209165E+00 0.47398600E+04</pdfrwt>
<totfact> 0.56810536E-02</totfact>
</mgrwt>
</event>
<event>
12    6  0.1462228E-007  0.1280625E+04  0.7818608E-02  0.9045072E-01
          2   -1    0    0  501    0  0.00000000000E+00  0.00000000000E+00  0.27593290093E+04  0.27593290093E+04  0.00000000000E+00 0. -1.
         -1   -1    0    0    0  501 -0.00000000000E+00 -0.00000000000E+00 -0.14858688440E+03  0.14858688440E+03  0.00000000000E+00 0.  1.
         24    2    1    2    0    0  0.21685400251E+03 -0.62927274039E+02  0.16556936763E+03  0.29202233355E+03  0.82935683351E+02 0.  0.
        254    2    1    2    0    0 -0.21685400251E+03  0.62927274039E+02  0.24451727573E+04  0.26158935601E+04  0.90168941710E+03 0.  0.
         23    2    4    4    0    0 -0.64665436856E+02 -0.39053464292E+03  0.14834888679E+04  0.15379733299E+04  0.89015820302E+02 0.  0.
         23    2    4    4    0    0 -0.15218856565E+03  0.45346191696E+03  0.96168388937E+03  0.10779202302E+04  0.91033236002E+02 0.  0.
          4    1    3    3  502    0  0.22624932206E+02  0.50989602963E+01 -0.61482839824E+01  0.23993506400E+02  0.00000000000E+00 0. -1.
         -3    1    3    3    0  502  0.19422907030E+03 -0.68026234335E+02  0.17171765162E+03  0.26802882715E+03  0.00000000000E+00 0.  1.
         11    1    5    5    0    0 -0.63123247263E+02 -0.12370079441E+03  0.51565847766E+03  0.53403192458E+03  0.00000000000E+00 0. -1.
        -11    1    5    5    0    0 -0.15421895933E+01 -0.26683384850E+03  0.96783039023E+03  0.10039414053E+04  0.00000000000E+00 0.  1.
          3    1    6    6  503    0 -0.35837060532E+02  0.20204433465E+03  0.48424386562E+03  0.52592616351E+03  0.00000000000E+00 0. -1.
         -3    1    6    6    0  503 -0.11635150512E+03  0.25141758230E+03  0.47744002375E+03  0.55199406673E+03  0.00000000000E+00 0.  1.
<mgrwt>
<rscale>  0 0.12806250E+04</rscale>
<asrwt>0</asrwt>
<pdfrwt beam="1">  1        2 0.42451212E+00 0.12806250E+04</pdfrwt>
<pdfrwt beam="2">  1       -1 0.22859523E-01 0.12806250E+04</pdfrwt>
<totfact> 0.45017314E+01</totfact>
</mgrwt>
</event>
<event>
12    6  0.1462228E-007  0.1393575E+04  0.7818608E-02  0.8958482E-01
          2   -1    0    0  501    0  0.00000000000E+00  0.00000000000E+00  0.42731537134E+03  0.42731537134E+03  0.00000000000E+00 0. -1.
         -1   -1    0    0    0  501 -0.00000000000E+00 -0.00000000000E+00 -0.11361937733E+04  0.11361937733E+04  0.00000000000E+00 0.  1.
         24    2    1    2    0    0  0.96369120897E+02 -0.23491852189E+03  0.13820013602E+03  0.29999170785E+03  0.80137555430E+02 0.  0.
        254    2    1    2    0    0 -0.96369120897E+02  0.23491852189E+03 -0.84707853793E+03  0.12635174368E+04  0.90247467786E+03 0.  0.
         23    2    4    4    0    0  0.20551999334E+03  0.89802303085E+02  0.94502044853E+02  0.25992113584E+03  0.91243844026E+02 0.  0.
         23    2    4    4    0    0 -0.30188911424E+03  0.14511621881E+03 -0.94158058279E+03  0.10035963009E+04  0.91846540870E+02 0.  0.
          4    1    3    3  502    0  0.10690424539E+03 -0.22859677165E+03  0.12388552675E+03  0.28112741850E+03  0.00000000000E+00 0. -1.
         -3    1    3    3    0  502 -0.10535124494E+02 -0.63217502406E+01  0.14314609266E+02  0.18864289349E+02  0.00000000000E+00 0.  1.
         11    1    5    5    0    0  0.85635305404E+02  0.85837347557E+02  0.58902126921E+02  0.13479954126E+03  0.00000000000E+00 0.  1.
        -11    1    5    5    0    0  0.11988468794E+03  0.39649555280E+01  0.35599917932E+02  0.12512159459E+03  0.00000000000E+00 0. -1.
          4    1    6    6  503    0 -0.18017085973E+02 -0.11993398535E+02 -0.82444717859E+02  0.85238421491E+02  0.00000000000E+00 0.  1.
         -4    1    6    6    0  503 -0.28387202827E+03  0.15710961734E+03 -0.85913586493E+03  0.91835787942E+03  0.00000000000E+00 0. -1.
<mgrwt>
<rscale>  0 0.13935754E+04</rscale>
<asrwt>0</asrwt>
<pdfrwt beam="1">  1        2 0.65740827E-01 0.13935754E+04</pdfrwt>
<pdfrwt beam="2">  1       -1 0.17479904E+00 0.13935754E+04</pdfrwt>
<totfact> 0.18651169E+01</totfact>
</mgrwt>
</event>
<event>
12    6  0.1462228E-007  0.1677089E+04  0.7818608E-02  0.8774540E-01
          2   -1    0    0  501    0  0.00000000000E+00  0.00000000000E+00  0.99167814299E+03  0.99167814299E+03  0.00000000000E+00 0. -1.
         -1   -1    0    0    0  501 -0.00000000000E+00 -0.00000000000E+00 -0.70905775536E+03  0.70905775536E+03  0.00000000000E+00 0.  1.
         24    2    1    2    0    0 -0.22693107297E+03 -0.16440951004E+03  0.62574392109E+03  0.69081138539E+03  0.84479089349E+02 0.  0.
        254    2    1    2    0    0  0.22693107297E+03  0.16440951004E+03 -0.34312353346E+03  0.10099245130E+04  0.90757124447E+03 0.  0.
         23    2    4    4    0    0 -0.27777831930E+03 -0.37663228974E+02  0.90642943506E+02  0.30843970031E+03  0.91321366757E+02 0.  0.
         23    2    4    4    0    0  0.50470939227E+03  0.20207273902E+03 -0.43376647696E+03  0.70148481265E+03  0.91447380236E+02 0.  0.
          4    1    3    3  502    0 -0.17007669875E+03 -0.11804583818E+03  0.36162969112E+03  0.41669765643E+03  0.00000000000E+00 0. -1.
         -3    1    3    3    0  502 -0.56854374210E+02 -0.46363671862E+02  0.26411422997E+03  0.27411372897E+03  0.00000000000E+00 0.  1.
         11    1    5    5    0    0 -0.61856133397E+02  0.84411126429E+01  0.58067570818E+02  0.85260051619E+02  0.00000000000E+00 0. -1.
        -11    1    5    5    0    0 -0.21592218591E+03 -0.46104341617E+02  0.32575372688E+02  0.22317964869E+03  0.00000000000E+00 0.  1.
          1    1    6    6  503    0  0.19949023086E+03  0.97510778426E+02 -0.23105624843E+03  0.32045544785E+03  0.00000000000E+00 0. -1.
         -1    1    6    6    0  503  0.30521916141E+03  0.10456196059E+03 -0.20271022854E+03  0.38102936481E+03  0.00000000000E+00 0.  1.
<mgrwt>
<rscale>  0 0.16770892E+04</rscale>
<asrwt>0</asrwt>
<pdfrwt beam="1">  1        2 0.15256587E+00 0.16770892E+04</pdfrwt>
<pdfrwt beam="2">  1       -1 0.10908581E+00 0.16770892E+04</pdfrwt>
<totfact> 0.21593466E+01</totfact>
</mgrwt>
</event>
<event>
12    6  0.1462228E-007  0.1699792E+04  0.7818608E-02  0.8761483E-01
         -1   -1    0    0    0  501 -0.00000000000E+00  0.00000000000E+00  0.80118307234E+03  0.80118307234E+03  0.00000000000E+00 0.  1.
          2   -1    0    0  501    0  0.00000000000E+00 -0.00000000000E+00 -0.90157043131E+03  0.90157043131E+03  0.00000000000E+00 0. -1.
         24    2    1    2    0    0  0.49303853808E+03 -0.28504153170E+03  0.17156391872E+03  0.60052616592E+03  0.82836120860E+02 0.  0.
        254    2    1    2    0    0 -0.49303853808E+03  0.28504153170E+03 -0.27195127769E+03  0.11022273377E+04  0.90366582971E+03 0.  0.
         23    2    4    4    0    0 -0.71697158398E+03  0.32078103040E+03 -0.31828998353E+03  0.85223959227E+03  0.89750138275E+02 0.  0.
         23    2    4    4    0    0  0.22393304590E+03 -0.35739498703E+02  0.46338705834E+02  0.24998774546E+03  0.94463095493E+02 0.  0.
          4    1    3    3  502    0  0.17273958878E+02  0.25534776665E+01 -0.32355545129E+01  0.17758905274E+02  0.00000000000E+00 0. -1.
         -3    1    3    3    0  502  0.47576457920E+03 -0.28759500937E+03  0.17479947323E+03  0.58276726064E+03  0.00000000000E+00 0.  1.
         11    1    5    5    0    0 -0.13805294958E+03  0.99429511896E+02 -0.54523628209E+02  0.17865517277E+03  0.00000000000E+00 0.  1.
        -11    1    5    5    0    0 -0.57891863439E+03  0.22135151851E+03 -0.26376635532E+03  0.67358441950E+03  0.00000000000E+00 0. -1.
          1    1    6    6  503    0  0.16683519986E+03  0.87632025102E+01  0.57618210697E+02  0.17672191667E+03  0.00000000000E+00 0. -1.
         -1    1    6    6    0  503  0.57097846044E+02 -0.44502701214E+02 -0.11279504863E+02  0.73265828789E+02  0.00000000000E+00 0.  1.
<mgrwt>
<rscale>  0 0.16997917E+04</rscale>
<asrwt>0</asrwt>
<pdfrwt beam="1">  1        2 0.13870314E+00 0.16997917E+04</pdfrwt>
<pdfrwt beam="2">  1       -1 0.12325893E+00 0.16997917E+04</pdfrwt>
<totfact> 0.18410211E+01</totfact>
</mgrwt>
</event>
<event>
12    6  0.1462228E-007  0.1686012E+04  0.7818608E-02  0.8769383E-01
         -1   -1    0    0    0  501 -0.00000000000E+00  0.00000000000E+00  0.61178849170E+03  0.61178849170E+03  0.00000000000E+00 0.  1.
          2   -1    0    0  501    0  0.00000000000E+00 -0.00000000000E+00 -0.11616086301E+04  0.11616086301E+04  0.00000000000E+00 0. -1.
         24    2    1    2    0    0 -0.21155381043E+02 -0.13918923676E+03  0.41424564795E+03  0.44480698906E+03  0.80203534141E+02 0.  0.
        254    2    1    2    0    0  0.21155381043E+02  0.13918923676E+03 -0.96406578632E+03  0.13285901327E+04  0.90327609657E+03 0.  0.
         23    2    4    4    0    0  0.40667309863E+03  0.24030147592E+03 -0.36647220056E+03  0.60467120179E+03  0.90540488236E+02 0.  0.
         23    2    4    4    0    0 -0.38551771759E+03 -0.10111223916E+03 -0.59759358576E+03  0.72391893093E+03  0.89960709941E+02 0.  0.
          2    1    3    3  502    0  0.27772548680E+01  0.26195982127E+01  0.90212417779E+02  0.90293165638E+02  0.00000000000E+00 0. -1.
         -1    1    3    3    0  502 -0.23932635911E+02 -0.14180883497E+03  0.32403323017E+03  0.35451382342E+03  0.00000000000E+00 0.  1.
         11    1    5    5    0    0  0.74605395843E+02  0.13178248953E+02 -0.35271035172E+02  0.83568398671E+02  0.00000000000E+00 0.  1.
        -11    1    5    5    0    0  0.33206770279E+03  0.22712322697E+03 -0.33120116539E+03  0.52110280312E+03  0.00000000000E+00 0. -1.
          1    1    6    6  503    0 -0.21881914190E+03 -0.23150795242E+02 -0.27138967166E+03  0.34938536040E+03  0.00000000000E+00 0. -1.
         -1    1    6    6    0  503 -0.16669857569E+03 -0.77961443918E+02 -0.32620391410E+03  0.37453357052E+03  0.00000000000E+00 0.  1.
<mgrwt>
<rscale>  0 0.16860116E+04</rscale>
<asrwt>0</asrwt>
<pdfrwt beam="1">  1        2 0.17870902E+00 0.16860116E+04</pdfrwt>
<pdfrwt beam="2">  1       -1 0.94121308E-01 0.16860116E+04</pdfrwt>
<totfact> 0.23729186E+01</totfact>
</mgrwt>
</event>
<event>
12    6  0.1462228E-007  0.1541335E+04  0.7818608E-02  0.8857422E-01
          2   -1    0    0  501    0  0.00000000000E+00  0.00000000000E+00  0.30306645376E+04  0.30306645376E+04  0.00000000000E+00 0. -1.
         -1   -1    0    0    0  501 -0.00000000000E+00 -0.00000000000E+00 -0.19597295115E+03  0.19597295115E+03  0.00000000000E+00 0.  1.
         24    2    1    2    0    0 -0.46527219546E+03 -0.10379006401E+03  0.53471391695E+03  0.72114413896E+03  0.82941563236E+02 0.  0.
        254    2    1    2    0    0  0.46527219546E+03  0.10379006401E+03  0.22999776695E+04  0.25054933498E+04  0.87197996103E+03 0.  0.
         23    2    4    4    0    0  0.46103788360E+03 -0.72501709973E+02  0.22526976049E+04  0.23022784193E+04  0.89593484890E+02 0.  0.
         23    2    4    4    0    0  0.42343118557E+01  0.17629177399E+03  0.47280064554E+02  0.20321493051E+03  0.89242279808E+02 0.  0.
          2    1    3    3  502    0 -0.65748101551E+02 -0.17291942267E+02  0.12552295675E+03  0.14275096075E+03  0.00000000000E+00 0. -1.
         -1    1    3    3    0  502 -0.39952409391E+03 -0.86498121747E+02  0.40919096020E+03  0.57839317820E+03  0.00000000000E+00 0.  1.
         11    1    5    5    0    0  0.69286685341E+02  0.17375410376E+01  0.50122719047E+03  0.50599640342E+03  0.00000000000E+00 0. -1.
        -11    1    5    5    0    0  0.39175119826E+03 -0.74239251010E+02  0.17514704145E+04  0.17962820158E+04  0.00000000000E+00 0.  1.
          3    1    6    6  503    0  0.65792409469E+01 -0.34240035018E+01 -0.11873542400E+02  0.13999686445E+02  0.00000000000E+00 0. -1.
         -3    1    6    6    0  503 -0.23449290913E+01  0.17971577749E+03  0.59153606954E+02  0.18921524406E+03  0.00000000000E+00 0.  1.
<mgrwt>
<rscale>  0 0.15413348E+04</rscale>
<asrwt>0</asrwt>
<pdfrwt beam="1">  1        2 0.46625605E+00 0.15413348E+04</pdfrwt>
<pdfrwt beam="2">  1       -1 0.30149687E-01 0.15413348E+04</pdfrwt>
<totfact> 0.18608087E+01</totfact>
</mgrwt>
</event>
<event>
12    6  0.1715585E-007  0.1538288E+04  0.7818608E-02  0.8859384E-01
         -1   -1    0    0    0  501 -0.00000000000E+00  0.00000000000E+00  0.32255687085E+03  0.32255687085E+03  0.00000000000E+00 0.  1.
          2   -1    0    0  501    0  0.00000000000E+00 -0.00000000000E+00 -0.18340407430E+04  0.18340407430E+04  0.00000000000E+00 0. -1.
         24    2    1    2    0    0 -0.43548471522E+03  0.66874434025E+02 -0.17442136713E+03  0.48098134408E+03  0.82468860337E+02 0.  0.
        254    2    1    2    0    0  0.43548471522E+03 -0.66874434025E+02 -0.13370625050E+04  0.16756162698E+04  0.90875443001E+03 0.  0.
         23    2    4    4    0    0 -0.43518741129E+02 -0.11452363484E+03 -0.11354558236E+04  0.11456944539E+04  0.91358144651E+02 0.  0.
         23    2    4    4    0    0  0.47900345635E+03  0.47649200814E+02 -0.20160668143E+03  0.52992181588E+03  0.91962597879E+02 0.  0.
          4    1    3    3  502    0 -0.36474735794E+02  0.26800665876E+02 -0.31969543551E+02  0.55414201767E+02  0.00000000000E+00 0. -1.
         -3    1    3    3    0  502 -0.39900997943E+03  0.40073768149E+02 -0.14245182358E+03  0.42556714232E+03  0.00000000000E+00 0.  1.
         11    1    5    5    0    0  0.72039875042E+01  0.11541872051E+02 -0.52002754148E+02  0.53753127215E+02  0.00000000000E+00 0. -1.
        -11    1    5    5    0    0 -0.50722728633E+02 -0.12606550689E+03 -0.10834530694E+04  0.10919413267E+04  0.00000000000E+00 0.  1.
          3    1    6    6  503    0  0.40482292386E+02 -0.13580759042E+02  0.16303324997E+01  0.42730679810E+02  0.00000000000E+00 0. -1.
         -3    1    6    6    0  503  0.43852116397E+03  0.61229959855E+02 -0.20323701393E+03  0.48719113607E+03  0.00000000000E+00 0.  1.
<mgrwt>
<rscale>  0 0.15382879E+04</rscale>
<asrwt>0</asrwt>
<pdfrwt beam="1">  1        2 0.28216010E+00 0.15382879E+04</pdfrwt>
<pdfrwt beam="2">  1       -1 0.49624136E-01 0.15382879E+04</pdfrwt>
<totfact> 0.36921117E+01</totfact>
</mgrwt>
</event>
<event>
12    6  0.1462228E-007  0.2138967E+04  0.7818608E-02  0.8544270E-01
          2   -1    0    0  501    0  0.00000000000E+00  0.00000000000E+00  0.10929135060E+04  0.10929135060E+04  0.00000000000E+00 0. -1.
         -3   -1    0    0    0  501 -0.00000000000E+00 -0.00000000000E+00 -0.10465559414E+04  0.10465559414E+04  0.00000000000E+00 0.  1.
         24    2    1    2    0    0  0.43299861043E+03 -0.62316858335E+03  0.45950232595E+03  0.89106462135E+03  0.83826558836E+02 0.  0.
        254    2    1    2    0    0 -0.43299861043E+03  0.62316858335E+03 -0.41314476133E+03  0.12484048261E+04  0.90110994668E+03 0.  0.
         23    2    4    4    0    0 -0.30877598920E+03  0.72965480256E+03 -0.31533466570E+01  0.79757468766E+03  0.91524293978E+02 0.  0.
         23    2    4    4    0    0 -0.12422262122E+03 -0.10648621922E+03 -0.40999141467E+03  0.45083013840E+03  0.91565709058E+02 0.  0.
          4    1    3    3  502    0  0.72852967835E+02 -0.93999578789E+02  0.38818203656E+02  0.12510127365E+03  0.00000000000E+00 0. -1.
         -3    1    3    3    0  502  0.36014564259E+03 -0.52916900456E+03  0.42068412230E+03  0.76596334770E+03  0.00000000000E+00 0.  1.
         11    1    5    5    0    0 -0.15928305528E+03  0.37556300262E+03 -0.47364333698E+02  0.41068484358E+03  0.00000000000E+00 0.  1.
        -11    1    5    5    0    0 -0.14949293392E+03  0.35409179994E+03  0.44210987041E+02  0.38688984408E+03  0.00000000000E+00 0. -1.
          4    1    6    6  503    0 -0.35314952168E+02  0.71467856094E+01 -0.14163754996E+03  0.14614861597E+03  0.00000000000E+00 0. -1.
         -4    1    6    6    0  503 -0.88907669057E+02 -0.11363300483E+03 -0.26835386471E+03  0.30468152243E+03  0.00000000000E+00 0.  1.
<mgrwt>
<rscale>  0 0.21389672E+04</rscale>
<asrwt>0</asrwt>
<pdfrwt beam="1">  1        2 0.16814054E+00 0.21389672E+04</pdfrwt>
<pdfrwt beam="2">  1       -3 0.16100861E+00 0.21389672E+04</pdfrwt>
<totfact> 0.34176783E+00</totfact>
</mgrwt>
</event>
<event>
12    6  0.1462228E-007  0.2146868E+04  0.7818608E-02  0.8540874E-01
          2   -1    0    0  501    0  0.00000000000E+00  0.00000000000E+00  0.14371266016E+04  0.14371266016E+04  0.00000000000E+00 0. -1.
         -1   -1    0    0    0  501 -0.00000000000E+00 -0.00000000000E+00 -0.80178060659E+03  0.80178060659E+03  0.00000000000E+00 0.  1.
         24    2    1    2    0    0 -0.44910872327E+03  0.74339619394E+03  0.44031839499E+03  0.97682412437E+03  0.77256290990E+02 0.  0.
        254    2    1    2    0    0  0.44910872327E+03 -0.74339619394E+03  0.19502760002E+03  0.12620830838E+04  0.89469626089E+03 0.  0.
         23    2    4    4    0    0  0.47995895305E+03 -0.50119315304E+03 -0.25273732237E+03  0.74405012230E+03  0.90439245393E+02 0.  0.
         23    2    4    4    0    0 -0.30850229779E+02 -0.24220304090E+03  0.44776492238E+03  0.51803296153E+03  0.90833219800E+02 0.  0.
          2    1    3    3  502    0 -0.29906572299E+03  0.53737560339E+03  0.34169991947E+03  0.70354223807E+03  0.00000000000E+00 0. -1.
         -1    1    3    3    0  502 -0.15004300028E+03  0.20602059055E+03  0.98618475528E+02  0.27328188630E+03  0.00000000000E+00 0.  1.
         11    1    5    5    0    0  0.72310367510E+02 -0.12598235880E+03 -0.41074682914E+02  0.15095520380E+03  0.00000000000E+00 0. -1.
        -11    1    5    5    0    0  0.40764858554E+03 -0.37521079425E+03 -0.21166263945E+03  0.59309491850E+03  0.00000000000E+00 0.  1.
          2    1    6    6  503    0 -0.62940911605E+01 -0.35662563702E+01 -0.26589583027E+01  0.77073878383E+01  0.00000000000E+00 0. -1.
         -2    1    6    6    0  503 -0.24556138619E+02 -0.23863678453E+03  0.45042388069E+03  0.51032557369E+03  0.00000000000E+00 0.  1.
<mgrwt>
<rscale>  0 0.21468677E+04</rscale>
<asrwt>0</asrwt>
<pdfrwt beam="1">  1        2 0.22109640E+00 0.21468677E+04</pdfrwt>
<pdfrwt beam="2">  1       -1 0.12335086E+00 0.21468677E+04</pdfrwt>
<totfact> 0.83382209E+00</totfact>
</mgrwt>
</event>
<event>
12    6  0.1462228E-007  0.1197914E+04  0.7818608E-02  0.9114684E-01
         -1   -1    0    0    0  501 -0.00000000000E+00  0.00000000000E+00  0.90807374640E+03  0.90807374640E+03  0.00000000000E+00 0.  1.
          2   -1    0    0  501    0  0.00000000000E+00 -0.00000000000E+00 -0.39506665052E+03  0.39506665052E+03  0.00000000000E+00 0. -1.
         24    2    1    2    0    0 -0.25207699617E+03 -0.14402306217E+02  0.91665074455E+02  0.28043149033E+03  0.80554928266E+02 0.  0.
        254    2    1    2    0    0  0.25207699617E+03  0.14402306217E+02  0.42134202143E+03  0.10227089066E+04  0.89702517812E+03 0.  0.
         23    2    4    4    0    0  0.39363220295E+03 -0.10526986586E+02  0.63227404312E+03  0.75090682532E+03  0.95044547795E+02 0.  0.
         23    2    4    4    0    0 -0.14155520678E+03  0.24929292802E+02 -0.21093202169E+03  0.27180208127E+03  0.93406142236E+02 0.  0.
          2    1    3    3  502    0 -0.34126030228E+02 -0.83952888571E+00 -0.15135247198E+02  0.37341216579E+02  0.00000000000E+00 0. -1.
         -1    1    3    3    0  502 -0.21795096594E+03 -0.13562777331E+02  0.10680032165E+03  0.24309027375E+03  0.00000000000E+00 0.  1.
         11    1    5    5    0    0  0.14057973842E+03  0.41738894393E+02  0.23414281938E+03  0.27627460619E+03  0.00000000000E+00 0.  1.
        -11    1    5    5    0    0  0.25305246453E+03 -0.52265880979E+02  0.39813122374E+03  0.47463221913E+03  0.00000000000E+00 0. -1.
          4    1    6    6  503    0 -0.96039626983E+02  0.34330165975E+02 -0.70780152984E+02  0.12414507764E+03  0.00000000000E+00 0. -1.
         -4    1    6    6    0  503 -0.45515579794E+02 -0.94008731726E+01 -0.14015186870E+03  0.14765700363E+03  0.00000000000E+00 0.  1.
<mgrwt>
<rscale>  0 0.11979143E+04</rscale>
<asrwt>0</asrwt>
<pdfrwt beam="1">  1        2 0.60779485E-01 0.11979143E+04</pdfrwt>
<pdfrwt beam="2">  1       -1 0.13970365E+00 0.11979143E+04</pdfrwt>
<totfact> 0.38400812E+01</totfact>
</mgrwt>
</event>
<event>
12    6  0.1462228E-007  0.1780605E+04  0.7818608E-02  0.8716682E-01
          2   -1    0    0  501    0  0.00000000000E+00  0.00000000000E+00  0.17670428840E+04  0.17670428840E+04  0.00000000000E+00 0. -1.
         -1   -1    0    0    0  501 -0.00000000000E+00 -0.00000000000E+00 -0.44856761662E+03  0.44856761662E+03  0.00000000000E+00 0.  1.
         24    2    1    2    0    0 -0.18121628800E+03 -0.54048241802E+03  0.94350021682E+03  0.11051871679E+04  0.79280702637E+02 0.  0.
        254    2    1    2    0    0  0.18121628800E+03  0.54048241802E+03  0.37497505055E+03  0.11104233327E+04  0.87605542175E+03 0.  0.
         23    2    4    4    0    0  0.52404447562E+03  0.32290240542E+03  0.28607227250E+03  0.68481016760E+03  0.90769183647E+02 0.  0.
         23    2    4    4    0    0 -0.34282818762E+03  0.21758001260E+03  0.88902778054E+02  0.42561316508E+03  0.91491170255E+02 0.  0.
          2    1    3    3  502    0 -0.12986144776E+03 -0.26321330808E+03  0.48845791930E+03  0.56985645569E+03  0.00000000000E+00 0. -1.
         -1    1    3    3    0  502 -0.51354840237E+02 -0.27726910995E+03  0.45504229752E+03  0.53533071225E+03  0.00000000000E+00 0.  1.
         11    1    5    5    0    0  0.47612694045E+03  0.25809223397E+03  0.24737626002E+03  0.59540194716E+03  0.00000000000E+00 0.  1.
        -11    1    5    5    0    0  0.47917535161E+02  0.64810171452E+02  0.38696012481E+02  0.89408220436E+02  0.00000000000E+00 0. -1.
          2    1    6    6  503    0 -0.50602747446E+02  0.12133208032E+02 -0.13967292452E+02  0.53878920226E+02  0.00000000000E+00 0. -1.
         -2    1    6    6    0  503 -0.29222544017E+03  0.20544680457E+03  0.10287007051E+03  0.37173424485E+03  0.00000000000E+00 0.  1.
<mgrwt>
<rscale>  0 0.17806046E+04</rscale>
<asrwt>0</asrwt>
<pdfrwt beam="1">  1        2 0.27185275E+00 0.17806046E+04</pdfrwt>
<pdfrwt beam="2">  1       -1 0.69010404E-01 0.17806046E+04</pdfrwt>
<totfact> 0.20591510E+01</totfact>
</mgrwt>
</event>
<event>
12    6  0.2065256E-007  0.2581067E+04  0.7818608E-02  0.8374661E-01
         -1   -1    0    0    0  501 -0.00000000000E+00  0.00000000000E+00  0.96138244331E+03  0.96138244331E+03  0.00000000000E+00 0.  1.
          2   -1    0    0  501    0  0.00000000000E+00 -0.00000000000E+00 -0.17323769180E+04  0.17323769180E+04  0.00000000000E+00 0. -1.
         24    2    1    2    0    0 -0.50646366146E+03 -0.67582456768E+03  0.43449551368E+03  0.95307297760E+03  0.79482467012E+02 0.  0.
        254    2    1    2    0    0  0.50646366146E+03  0.67582456768E+03 -0.12054899884E+04  0.17406863837E+04  0.92926782346E+03 0.  0.
         23    2    4    4    0    0 -0.15922990257E+03  0.52564971046E+03 -0.43198467821E+03  0.70501923898E+03  0.93699440472E+02 0.  0.
         23    2    4    4    0    0  0.66569356403E+03  0.15017485722E+03 -0.77350531015E+03  0.10356671447E+04  0.92712247793E+02 0.  0.
          2    1    3    3  502    0 -0.24702331080E+02 -0.20783454166E+02  0.33225019199E+02  0.46325576399E+02  0.00000000000E+00 0. -1.
         -1    1    3    3    0  502 -0.48176133038E+03 -0.65504111351E+03  0.40127049448E+03  0.90674740120E+03  0.00000000000E+00 0.  1.
         11    1    5    5    0    0 -0.11010315825E+02  0.90173961640E+02 -0.34850618324E+02  0.97299208681E+02  0.00000000000E+00 0. -1.
        -11    1    5    5    0    0 -0.14821958675E+03  0.43547574882E+03 -0.39713405988E+03  0.60772003030E+03  0.00000000000E+00 0.  1.
          1    1    6    6  503    0  0.17839422178E+02  0.17285132303E+02 -0.13747772110E+02  0.28390526948E+02  0.00000000000E+00 0. -1.
         -1    1    6    6    0  503  0.64785414185E+03  0.13288972492E+03 -0.75975753804E+03  0.10072766178E+04  0.00000000000E+00 0.  1.
<mgrwt>
<rscale>  0 0.25810670E+04</rscale>
<asrwt>0</asrwt>
<pdfrwt beam="1">  1        2 0.26651952E+00 0.25810670E+04</pdfrwt>
<pdfrwt beam="2">  1       -1 0.14790499E+00 0.25810670E+04</pdfrwt>
<totfact> 0.34384520E+00</totfact>
</mgrwt>
</event>
<event>
12    6  0.1462228E-007  0.1550705E+04  0.7818608E-02  0.8851418E-01
          2   -1    0    0  501    0  0.00000000000E+00  0.00000000000E+00  0.15883878595E+04  0.15883878595E+04  0.00000000000E+00 0. -1.
         -1   -1    0    0    0  501 -0.00000000000E+00 -0.00000000000E+00 -0.37847890989E+03  0.37847890989E+03  0.00000000000E+00 0.  1.
         24    2    1    2    0    0 -0.10973631628E+03  0.19282123522E+03  0.10677484863E+04  0.10934295799E+04  0.79242213537E+02 0.  0.
        254    2    1    2    0    0  0.10973631628E+03 -0.19282123522E+03  0.14216046330E+03  0.87343718946E+03  0.83274296078E+03 0.  0.
         23    2    4    4    0    0 -0.31275664198E+03 -0.26728915186E+03  0.45308472935E+02  0.42420205628E+03  0.92921036535E+02 0.  0.
         23    2    4    4    0    0  0.42249295826E+03  0.74467916640E+02  0.96851990367E+02  0.44923513317E+03  0.91575796209E+02 0.  0.
          2    1    3    3  502    0 -0.89573045747E+02  0.12834176334E+03  0.56921902764E+03  0.59034332398E+03  0.00000000000E+00 0. -1.
         -1    1    3    3    0  502 -0.20163270535E+02  0.64479471876E+02  0.49852945864E+03  0.50308625593E+03  0.00000000000E+00 0.  1.
         11    1    5    5    0    0 -0.10594000758E+03 -0.13838232827E+03  0.46964988268E+02  0.18049560689E+03  0.00000000000E+00 0. -1.
        -11    1    5    5    0    0 -0.20681663440E+03 -0.12890682359E+03 -0.16565153328E+01  0.24370644939E+03  0.00000000000E+00 0.  1.
          4    1    6    6  503    0  0.31569228633E+03  0.78216558540E+02  0.10575273294E+03  0.34199866989E+03  0.00000000000E+00 0. -1.
         -4    1    6    6    0  503  0.10680067193E+03 -0.37486418995E+01 -0.89007425703E+01  0.10723646329E+03  0.00000000000E+00 0.  1.
<mgrwt>
<rscale>  0 0.15507048E+04</rscale>
<asrwt>0</asrwt>
<pdfrwt beam="1">  1        2 0.24436736E+00 0.15507048E+04</pdfrwt>
<pdfrwt beam="2">  1       -1 0.58227525E-01 0.15507048E+04</pdfrwt>
<totfact> 0.37097949E+01</totfact>
</mgrwt>
</event>
<event>
12    6  0.1462228E-007  0.1941994E+04  0.7818608E-02  0.8634231E-01
         -1   -1    0    0    0  501 -0.00000000000E+00  0.00000000000E+00  0.56118267489E+03  0.56118267489E+03  0.00000000000E+00 0.  1.
          2   -1    0    0  501    0  0.00000000000E+00 -0.00000000000E+00 -0.16800857070E+04  0.16800857070E+04  0.00000000000E+00 0. -1.
         24    2    1    2    0    0 -0.72876891879E+03 -0.49776799003E+02 -0.70673101054E+03  0.10194853479E+04  0.79371195089E+02 0.  0.
        254    2    1    2    0    0  0.72876891879E+03  0.49776799003E+02 -0.41217202157E+03  0.12217830340E+04  0.88841777338E+03 0.  0.
         23    2    4    4    0    0  0.16759459512E+02  0.34366291189E+03 -0.29907346501E+02  0.35699566088E+03  0.90368003296E+02 0.  0.
         23    2    4    4    0    0  0.71200945928E+03 -0.29388611289E+03 -0.38226467507E+03  0.86478737311E+03  0.91675522571E+02 0.  0.
          4    1    3    3  502    0 -0.93886446306E+02 -0.32849362606E+02 -0.10378616446E+03  0.14375435074E+03  0.00000000000E+00 0. -1.
         -3    1    3    3    0  502 -0.63488247249E+03 -0.16927436397E+02 -0.60294484608E+03  0.87573099716E+03  0.00000000000E+00 0.  1.
         11    1    5    5    0    0  0.11059655365E+02  0.32444651764E+03 -0.45419779949E+01  0.32466673429E+03  0.00000000000E+00 0. -1.
        -11    1    5    5    0    0  0.56998041472E+01  0.19216394245E+02 -0.25365368506E+02  0.32328926592E+02  0.00000000000E+00 0.  1.
          1    1    6    6  503    0  0.68426922460E+03 -0.28483846145E+03 -0.34524207123E+03  0.81764870733E+03  0.00000000000E+00 0. -1.
         -1    1    6    6    0  503  0.27740234680E+02 -0.90476514343E+01 -0.37022603835E+02  0.47138665778E+02  0.00000000000E+00 0.  1.
<mgrwt>
<rscale>  0 0.19419938E+04</rscale>
<asrwt>0</asrwt>
<pdfrwt beam="1">  1        2 0.25847472E+00 0.19419938E+04</pdfrwt>
<pdfrwt beam="2">  1       -1 0.86335799E-01 0.19419938E+04</pdfrwt>
<totfact> 0.14155002E+01</totfact>
</mgrwt>
</event>
<event>
12    6  0.1462228E-007  0.1693070E+04  0.7818608E-02  0.8765327E-01
          2   -1    0    0  501    0  0.00000000000E+00  0.00000000000E+00  0.17966997239E+04  0.17966997239E+04  0.00000000000E+00 0. -1.
         -1   -1    0    0    0  501 -0.00000000000E+00 -0.00000000000E+00 -0.39885423003E+03  0.39885423003E+03  0.00000000000E+00 0.  1.
         24    2    1    2    0    0  0.20926876030E+03 -0.35468632655E+03 -0.68059852985E+02  0.42514788424E+03  0.80763702284E+02 0.  0.
        254    2    1    2    0    0 -0.20926876030E+03  0.35468632655E+03  0.14659053469E+04  0.17704060697E+04  0.90325154936E+03 0.  0.
         23    2    4    4    0    0 -0.97105242345E+02  0.48628892705E+00  0.13692486134E+04  0.13757203918E+04  0.91297133735E+02 0.  0.
         23    2    4    4    0    0 -0.11216351795E+03  0.35420003763E+03  0.96656733484E+02  0.39468567790E+03  0.91629355527E+02 0.  0.
          4    1    3    3  502    0  0.96267403238E+02 -0.19276705368E+03  0.24563618470E+01  0.21548221185E+03  0.00000000000E+00 0. -1.
         -3    1    3    3    0  502  0.11300135706E+03 -0.16191927288E+03 -0.70516214832E+02  0.20966567239E+03  0.00000000000E+00 0.  1.
         11    1    5    5    0    0 -0.43864016035E+02  0.22813226148E+02  0.24224660483E+03  0.24724059687E+03  0.00000000000E+00 0.  1.
        -11    1    5    5    0    0 -0.53241226309E+02 -0.22326937221E+02  0.11270020086E+04  0.11284797950E+04  0.00000000000E+00 0. -1.
          2    1    6    6  503    0 -0.12319198873E+03  0.27432726506E+03  0.89415922605E+02  0.31373065144E+03  0.00000000000E+00 0. -1.
         -2    1    6    6    0  503  0.11028470776E+02  0.79872772570E+02  0.72408108791E+01  0.80955026452E+02  0.00000000000E+00 0.  1.
<mgrwt>
<rscale>  0 0.16930697E+04</rscale>
<asrwt>0</asrwt>
<pdfrwt beam="1">  1        2 0.27641534E+00 0.16930697E+04</pdfrwt>
<pdfrwt beam="2">  1       -1 0.61362190E-01 0.16930697E+04</pdfrwt>
<totfact> 0.25311931E+01</totfact>
</mgrwt>
</event>
<event>
12    6  0.1462228E-007  0.1468930E+04  0.7818608E-02  0.8905381E-01
          2   -1    0    0  501    0  0.00000000000E+00  0.00000000000E+00  0.11827413136E+04  0.11827413136E+04  0.00000000000E+00 0. -1.
         -1   -1    0    0    0  501 -0.00000000000E+00 -0.00000000000E+00 -0.45609174366E+03  0.45609174366E+03  0.00000000000E+00 0.  1.
         24    2    1    2    0    0  0.30035481593E+02  0.25931471939E+02  0.73275471351E+03  0.73831292668E+03  0.81252299329E+02 0.  0.
        254    2    1    2    0    0 -0.30035481593E+02 -0.25931471939E+02 -0.61051435403E+01  0.90052013061E+03  0.89962473369E+03 0.  0.
         23    2    4    4    0    0 -0.25320639872E+03  0.17113025112E+03  0.31855516165E+03  0.45038189063E+03  0.89260367447E+02 0.  0.
         23    2    4    4    0    0  0.22317091712E+03 -0.19706172306E+03 -0.32466030519E+03  0.45013823997E+03  0.92636603864E+02 0.  0.
          2    1    3    3  502    0 -0.20712225269E+02  0.32874064396E+02  0.28438043355E+03  0.28702252764E+03  0.00000000000E+00 0. -1.
         -1    1    3    3    0  502  0.50747706862E+02 -0.69425924568E+01  0.44837427996E+03  0.45129039904E+03  0.00000000000E+00 0.  1.
         11    1    5    5    0    0 -0.17805318271E+03  0.12420238980E+03  0.16341353626E+03  0.27172256686E+03  0.00000000000E+00 0.  1.
        -11    1    5    5    0    0 -0.75153216005E+02  0.46927861319E+02  0.15514162539E+03  0.17865932378E+03  0.00000000000E+00 0. -1.
          3    1    6    6  503    0  0.16177453041E+03 -0.18533180497E+03 -0.28321489178E+03  0.37513937616E+03  0.00000000000E+00 0. -1.
         -3    1    6    6    0  503  0.61396386717E+02 -0.11729918091E+02 -0.41445413410E+02  0.74998863812E+02  0.00000000000E+00 0.  1.
<mgrwt>
<rscale>  0 0.14689296E+04</rscale>
<asrwt>0</asrwt>
<pdfrwt beam="1">  1        2 0.18196020E+00 0.14689296E+04</pdfrwt>
<pdfrwt beam="2">  1       -1 0.70167961E-01 0.14689296E+04</pdfrwt>
<totfact> 0.43982535E+01</totfact>
</mgrwt>
</event>
<event>
12    6  0.1462228E-007  0.2058420E+04  0.7818608E-02  0.8579784E-01
          2   -1    0    0  501    0  0.00000000000E+00  0.00000000000E+00  0.20544566641E+04  0.20544566641E+04  0.00000000000E+00 0. -1.
         -1   -1    0    0    0  501 -0.00000000000E+00 -0.00000000000E+00 -0.51559792721E+03  0.51559792721E+03  0.00000000000E+00 0.  1.
         24    2    1    2    0    0 -0.40125661574E+03 -0.62539504567E+03  0.16463689284E+03  0.76517595816E+03  0.79139785428E+02 0.  0.
        254    2    1    2    0    0  0.40125661574E+03  0.62539504567E+03  0.13742218440E+04  0.18048786331E+04  0.90386689776E+03 0.  0.
         23    2    4    4    0    0  0.54134138062E+03  0.69882175014E+03  0.78048210154E+03  0.11827804612E+04  0.91733198918E+02 0.  0.
         23    2    4    4    0    0 -0.14008476488E+03 -0.73426704470E+02  0.59373974249E+03  0.62209817189E+03  0.97283253368E+02 0.  0.
          4    1    3    3  502    0 -0.39439119343E+01 -0.26787814841E+02  0.16159125142E+02  0.31531869445E+02  0.00000000000E+00 0. -1.
         -3    1    3    3    0  502 -0.39731270380E+03 -0.59860723083E+03  0.14847776769E+03  0.73364408871E+03  0.00000000000E+00 0.  1.
         11    1    5    5    0    0  0.51007751340E+03  0.66741660554E+03  0.71176865299E+03  0.11010170800E+04  0.00000000000E+00 0. -1.
        -11    1    5    5    0    0  0.31263867221E+02  0.31405144602E+02  0.68713448543E+02  0.81763381240E+02  0.00000000000E+00 0.  1.
          4    1    6    6  503    0 -0.29253225458E+02 -0.57360317797E+02  0.31857142247E+03  0.32501339738E+03  0.00000000000E+00 0.  1.
         -4    1    6    6    0  503 -0.11083153942E+03 -0.16066386673E+02  0.27516832001E+03  0.29708477452E+03  0.00000000000E+00 0. -1.
<mgrwt>
<rscale>  0 0.20584204E+04</rscale>
<asrwt>0</asrwt>
<pdfrwt beam="1">  1        2 0.31607025E+00 0.20584204E+04</pdfrwt>
<pdfrwt beam="2">  1       -1 0.79322759E-01 0.20584204E+04</pdfrwt>
<totfact> 0.10416990E+01</totfact>
</mgrwt>
</event>
<event>
12    6  0.1462228E-007  0.3026562E+04  0.7818608E-02  0.8236186E-01
         -1   -1    0    0    0  501 -0.00000000000E+00  0.00000000000E+00  0.74179061411E+03  0.74179061411E+03  0.00000000000E+00 0.  1.
          2   -1    0    0  501    0  0.00000000000E+00 -0.00000000000E+00 -0.30871502619E+04  0.30871502619E+04  0.00000000000E+00 0. -1.
         24    2    1    2    0    0  0.18120074894E+03 -0.25941397433E+03 -0.27675661408E+04  0.27862605271E+04  0.60795230278E+02 0.  0.
        254    2    1    2    0    0 -0.18120074894E+03  0.25941397433E+03  0.42220649301E+03  0.10426803489E+04  0.89933012050E+03 0.  0.
         23    2    4    4    0    0 -0.39512636317E+03  0.29635262183E+02  0.55612099403E+03  0.68905448298E+03  0.92317002074E+02 0.  0.
         23    2    4    4    0    0  0.21392561423E+03  0.22977871214E+03 -0.13391450101E+03  0.35362586588E+03  0.92497213246E+02 0.  0.
          4    1    3    3  502    0  0.13340172844E+03 -0.19637132997E+03 -0.18241236539E+04  0.18395066798E+04  0.00000000000E+00 0. -1.
         -3    1    3    3    0  502  0.47799020501E+02 -0.63042644360E+02 -0.94344248692E+03  0.94675384737E+03  0.00000000000E+00 0.  1.
         11    1    5    5    0    0 -0.37842672534E+02 -0.18702139752E+02  0.32316456761E+02  0.53161934440E+02  0.00000000000E+00 0. -1.
        -11    1    5    5    0    0 -0.35728369064E+03  0.48337401935E+02  0.52380453727E+03  0.63589254854E+03  0.00000000000E+00 0.  1.
          2    1    6    6  503    0  0.58369728457E+02  0.72516213982E+02  0.36123949275E+01  0.93159411160E+02  0.00000000000E+00 0. -1.
         -2    1    6    6    0  503  0.15555588577E+03  0.15726249816E+03 -0.13752689594E+03  0.26046645472E+03  0.00000000000E+00 0.  1.
<mgrwt>
<rscale>  0 0.30265618E+04</rscale>
<asrwt>0</asrwt>
<pdfrwt beam="1">  1        2 0.47494618E+00 0.30265618E+04</pdfrwt>
<pdfrwt beam="2">  1       -1 0.11412164E+00 0.30265618E+04</pdfrwt>
<totfact> 0.10397385E+00</totfact>
</mgrwt>
</event>
<event>
12    6  0.1462228E-007  0.1746188E+04  0.7818608E-02  0.8735451E-01
          2   -1    0    0  501    0  0.00000000000E+00  0.00000000000E+00  0.17748159671E+04  0.17748159671E+04  0.00000000000E+00 0. -1.
         -1   -1    0    0    0  501 -0.00000000000E+00 -0.00000000000E+00 -0.42950564059E+03  0.42950564059E+03  0.00000000000E+00 0.  1.
         24    2    1    2    0    0  0.14012890290E+03  0.55505708192E+03  0.14110624340E+03  0.59519053507E+03  0.81340810695E+02 0.  0.
        254    2    1    2    0    0 -0.14012890290E+03 -0.55505708192E+03  0.12042040831E+04  0.16091310726E+04  0.90081677465E+03 0.  0.
         23    2    4    4    0    0  0.37524142739E+02 -0.98845007518E+02  0.10891666724E+04  0.10980583051E+04  0.90937364095E+02 0.  0.
         23    2    4    4    0    0 -0.17765304564E+03 -0.45621207441E+03  0.11503741068E+03  0.51107276757E+03  0.90948922122E+02 0.  0.
          2    1    3    3  502    0  0.12242508542E+03  0.46510936383E+03  0.14813499927E+03  0.50324805004E+03  0.00000000000E+00 0. -1.
         -3    1    3    3    0  502  0.17703817482E+02  0.89947718091E+02 -0.70287558668E+01  0.91942485023E+02  0.00000000000E+00 0.  1.
         11    1    5    5    0    0  0.29019577195E+02 -0.11487889390E+03  0.85221131930E+03  0.86040887307E+03  0.00000000000E+00 0. -1.
        -11    1    5    5    0    0  0.85045655444E+01  0.16033886381E+02  0.23695535313E+03  0.23764943199E+03  0.00000000000E+00 0.  1.
          3    1    6    6  503    0 -0.46842391840E+02 -0.16584923526E+03 -0.37217862468E+00  0.17233779918E+03  0.00000000000E+00 0. -1.
         -3    1    6    6    0  503 -0.13081065380E+03 -0.29036283914E+03  0.11540958931E+03  0.33873496839E+03  0.00000000000E+00 0.  1.
<mgrwt>
<rscale>  0 0.17461884E+04</rscale>
<asrwt>0</asrwt>
<pdfrwt beam="1">  1        2 0.27304861E+00 0.17461884E+04</pdfrwt>
<pdfrwt beam="2">  1       -1 0.66077792E-01 0.17461884E+04</pdfrwt>
<totfact> 0.22336553E+01</totfact>
</mgrwt>
</event>
<event>
12    6  0.1462228E-007  0.1282514E+04  0.7818608E-02  0.9043548E-01
          2   -1    0    0  501    0  0.00000000000E+00  0.00000000000E+00  0.91788865790E+03  0.91788865790E+03  0.00000000000E+00 0. -1.
         -1   -1    0    0    0  501 -0.00000000000E+00 -0.00000000000E+00 -0.44799606656E+03  0.44799606656E+03  0.00000000000E+00 0.  1.
         24    2    1    2    0    0 -0.23427886462E+03 -0.19018715716E+03  0.81033902467E+01  0.31273955942E+03  0.81747329821E+02 0.  0.
        254    2    1    2    0    0  0.23427886462E+03  0.19018715716E+03  0.46178920109E+03  0.10531451651E+04  0.89711076867E+03 0.  0.
         23    2    4    4    0    0 -0.16747173168E+03 -0.26838579587E+03  0.15067641470E+03  0.36214339496E+03  0.91469887032E+02 0.  0.
         23    2    4    4    0    0  0.40175059631E+03  0.45857295303E+03  0.31111278639E+03  0.69100177009E+03  0.94866145317E+02 0.  0.
          4    1    3    3  502    0 -0.10039472246E+02 -0.38777965264E+01  0.18068792029E+02  0.21031156750E+02  0.00000000000E+00 0. -1.
         -3    1    3    3    0  502 -0.22423939238E+03 -0.18630936063E+03 -0.99654017821E+01  0.29170840267E+03  0.00000000000E+00 0.  1.
         11    1    5    5    0    0 -0.10039903669E+03 -0.12050073213E+03  0.29659821333E+02  0.15962486653E+03  0.00000000000E+00 0.  1.
        -11    1    5    5    0    0 -0.67072694989E+02 -0.14788506374E+03  0.12101659337E+03  0.20251852844E+03  0.00000000000E+00 0. -1.
          2    1    6    6  503    0  0.24768518200E+03  0.30355607281E+03  0.15015295019E+03  0.41957138508E+03  0.00000000000E+00 0. -1.
         -2    1    6    6    0  503  0.15406541430E+03  0.15501688021E+03  0.16095983621E+03  0.27143038501E+03  0.00000000000E+00 0.  1.
<mgrwt>
<rscale>  0 0.12825140E+04</rscale>
<asrwt>0</asrwt>
<pdfrwt beam="1">  1        2 0.14121364E+00 0.12825140E+04</pdfrwt>
<pdfrwt beam="2">  1       -1 0.68922472E-01 0.12825140E+04</pdfrwt>
<totfact> 0.68039400E+01</totfact>
</mgrwt>
</event>
<event>
12    6  0.1462228E-007  0.1995557E+04  0.7818608E-02  0.8608701E-01
         -1   -1    0    0    0  501 -0.00000000000E+00  0.00000000000E+00  0.52098185444E+03  0.52098185444E+03  0.00000000000E+00 0.  1.
          2   -1    0    0  501    0  0.00000000000E+00 -0.00000000000E+00 -0.19109340319E+04  0.19109340319E+04  0.00000000000E+00 0. -1.
         24    2    1    2    0    0  0.62261439362E+03 -0.48518055145E+03 -0.56444713188E+03  0.97373556771E+03  0.80694116837E+02 0.  0.
        254    2    1    2    0    0 -0.62261439362E+03  0.48518055145E+03 -0.82550504557E+03  0.14581803186E+04  0.90652215124E+03 0.  0.
         23    2    4    4    0    0  0.17598668744E+03  0.76045615116E+02  0.32589824060E+02  0.21328708372E+03  0.87607269759E+02 0.  0.
         23    2    4    4    0    0 -0.79860108106E+03  0.40913493634E+03 -0.85809486963E+03  0.12448932349E+04  0.90979548346E+02 0.  0.
          2    1    3    3  502    0  0.42927781042E+03 -0.37899809261E+03 -0.41792734298E+03  0.70893036099E+03  0.00000000000E+00 0. -1.
         -1    1    3    3    0  502  0.19333658320E+03 -0.10618245884E+03 -0.14651978890E+03  0.26480520673E+03  0.00000000000E+00 0.  1.
         11    1    5    5    0    0  0.49143974138E+00  0.29116411769E+02  0.43582847864E+01  0.29444890789E+02  0.00000000000E+00 0. -1.
        -11    1    5    5    0    0  0.17549524770E+03  0.46929203348E+02  0.28231539273E+02  0.18384219293E+03  0.00000000000E+00 0.  1.
          2    1    6    6  503    0 -0.25453638493E+03  0.90784534680E+02 -0.28865164976E+03  0.39541165625E+03  0.00000000000E+00 0. -1.
         -2    1    6    6    0  503 -0.54406469612E+03  0.31835040166E+03 -0.56944321986E+03  0.84948157864E+03  0.00000000000E+00 0.  1.
<mgrwt>
<rscale>  0 0.19955570E+04</rscale>
<asrwt>0</asrwt>
<pdfrwt beam="1">  1        2 0.29398986E+00 0.19955570E+04</pdfrwt>
<pdfrwt beam="2">  1       -1 0.80151052E-01 0.19955570E+04</pdfrwt>
<totfact> 0.12310674E+01</totfact>
</mgrwt>
</event>
<event>
12    6  0.1462228E-007  0.2690113E+04  0.7818608E-02  0.8338220E-01
          2   -1    0    0  501    0  0.00000000000E+00  0.00000000000E+00  0.11398105075E+04  0.11398105075E+04  0.00000000000E+00 0. -1.
         -1   -1    0    0    0  501 -0.00000000000E+00 -0.00000000000E+00 -0.15872606371E+04  0.15872606371E+04  0.00000000000E+00 0.  1.
         24    2    1    2    0    0  0.73912904761E+03  0.77536652920E+03 -0.73121009085E+03  0.12994365636E+04  0.79763288100E+02 0.  0.
        254    2    1    2    0    0 -0.73912904761E+03 -0.77536652920E+03  0.28375996126E+03  0.14276345810E+04  0.90006431858E+03 0.  0.
         23    2    4    4    0    0 -0.40232008509E+03 -0.12108805925E+03 -0.26390484038E+03  0.50619368399E+03  0.10031207294E+03 0.  0.
         23    2    4    4    0    0 -0.33680896252E+03 -0.65427846996E+03  0.54766480163E+03  0.92144089700E+03  0.87155024122E+02 0.  0.
          2    1    3    3  502    0  0.40271286780E+02  0.69160389089E+02 -0.66354367190E+02  0.10396075222E+03  0.00000000000E+00 0. -1.
         -1    1    3    3    0  502  0.69885776083E+03  0.70620614011E+03 -0.66485572366E+03  0.11954758113E+04  0.00000000000E+00 0.  1.
         11    1    5    5    0    0 -0.19725857446E+03 -0.53664745765E+02 -0.18695975832E+03  0.27702852086E+03  0.00000000000E+00 0.  1.
        -11    1    5    5    0    0 -0.20506151063E+03 -0.67423313481E+02 -0.76945082058E+02  0.22916516313E+03  0.00000000000E+00 0. -1.
          1    1    6    6  503    0 -0.21839258966E+03 -0.32953606246E+03  0.28800683503E+03  0.48911887788E+03  0.00000000000E+00 0. -1.
         -1    1    6    6    0  503 -0.11841637285E+03 -0.32474240750E+03  0.25965796660E+03  0.43232201911E+03  0.00000000000E+00 0.  1.
<mgrwt>
<rscale>  0 0.26901125E+04</rscale>
<asrwt>0</asrwt>
<pdfrwt beam="1">  1        2 0.17535546E+00 0.26901125E+04</pdfrwt>
<pdfrwt beam="2">  1       -1 0.24419394E+00 0.26901125E+04</pdfrwt>
<totfact> 0.15679903E+00</totfact>
</mgrwt>
</event>
<event>
12    6  0.1462228E-007  0.1201618E+04  0.7818608E-02  0.9111442E-01
         -1   -1    0    0    0  501 -0.00000000000E+00  0.00000000000E+00  0.26617903351E+03  0.26617903351E+03  0.00000000000E+00 0.  1.
          2   -1    0    0  501    0  0.00000000000E+00 -0.00000000000E+00 -0.13561225710E+04  0.13561225710E+04  0.00000000000E+00 0. -1.
         24    2    1    2    0    0  0.19871844265E+02 -0.25400709134E+03 -0.22252301818E+03  0.34801784769E+03  0.81764515809E+02 0.  0.
        254    2    1    2    0    0 -0.19871844265E+02  0.25400709134E+03 -0.86742051935E+03  0.12742837569E+04  0.89803465578E+03 0.  0.
         23    2    4    4    0    0  0.71201265141E+02  0.27812675952E+03  0.84606499484E+02  0.31319978539E+03  0.92259044517E+02 0.  0.
         23    2    4    4    0    0 -0.91073109406E+02 -0.24119668184E+02 -0.95202701884E+03  0.96108397148E+03  0.91928700568E+02 0.  0.
          4    1    3    3  502    0  0.10473321137E+02 -0.17258735237E+03 -0.19712927189E+03  0.26221371911E+03  0.00000000000E+00 0. -1.
         -3    1    3    3    0  502  0.93985231284E+01 -0.81419738966E+02 -0.25393746289E+02  0.85804128577E+02  0.00000000000E+00 0.  1.
         11    1    5    5    0    0 -0.13039676421E+02  0.14115365747E+02  0.21773001006E+02  0.29040321695E+02  0.00000000000E+00 0.  1.
        -11    1    5    5    0    0  0.84240941562E+02  0.26401139377E+03  0.62833498478E+02  0.28415946370E+03  0.00000000000E+00 0. -1.
          1    1    6    6  503    0 -0.11659260834E+02 -0.18084065522E+02 -0.59034597603E+03  0.59073796493E+03  0.00000000000E+00 0. -1.
         -1    1    6    6    0  503 -0.79413848572E+02 -0.60356026612E+01 -0.36168104281E+03  0.37034600655E+03  0.00000000000E+00 0.  1.
<mgrwt>
<rscale>  0 0.12016179E+04</rscale>
<asrwt>0</asrwt>
<pdfrwt beam="1">  1        2 0.20863424E+00 0.12016179E+04</pdfrwt>
<pdfrwt beam="2">  1       -1 0.40950621E-01 0.12016179E+04</pdfrwt>
<totfact> 0.10054588E+02</totfact>
</mgrwt>
</event>
<event>
12    6  0.1462228E-007  0.1288559E+04  0.7818608E-02  0.9038687E-01
         -1   -1    0    0    0  501 -0.00000000000E+00  0.00000000000E+00  0.72050403073E+03  0.72050403073E+03  0.00000000000E+00 0.  1.
          2   -1    0    0  501    0  0.00000000000E+00 -0.00000000000E+00 -0.57611943429E+03  0.57611943429E+03  0.00000000000E+00 0. -1.
         24    2    1    2    0    0  0.19321058630E+03 -0.16374735785E+03  0.19569814419E+03  0.33038240114E+03  0.81922155009E+02 0.  0.
        254    2    1    2    0    0 -0.19321058630E+03  0.16374735785E+03 -0.51313547755E+02  0.96624106388E+03  0.93104521130E+03 0.  0.
         23    2    4    4    0    0 -0.43174303598E+03 -0.70123125351E+02  0.24534885766E+03  0.50986840364E+03  0.91926194591E+02 0.  0.
         23    2    4    4    0    0  0.23853244968E+03  0.23387048320E+03 -0.29666240541E+03  0.45637266024E+03  0.93135867230E+02 0.  0.
          4    1    3    3  502    0  0.83181537625E+01 -0.26958650213E+01  0.37668157437E+02  0.38669748576E+02  0.00000000000E+00 0. -1.
         -3    1    3    3    0  502  0.18489243254E+03 -0.16105149283E+03  0.15802998675E+03  0.29171265256E+03  0.00000000000E+00 0.  1.
         11    1    5    5    0    0 -0.37223345713E+03 -0.83334041681E+02  0.18445187790E+03  0.42370367519E+03  0.00000000000E+00 0. -1.
        -11    1    5    5    0    0 -0.59509578848E+02  0.13210916330E+02  0.60896979759E+02  0.86164728449E+02  0.00000000000E+00 0.  1.
          4    1    6    6  503    0  0.89146362917E+02  0.13494977828E+03 -0.99173900016E+02  0.18972079255E+03  0.00000000000E+00 0. -1.
         -4    1    6    6    0  503  0.14938608677E+03  0.98920704919E+02 -0.19748850540E+03  0.26665186769E+03  0.00000000000E+00 0.  1.
<mgrwt>
<rscale>  0 0.12885595E+04</rscale>
<asrwt>0</asrwt>
<pdfrwt beam="1">  1        2 0.88633759E-01 0.12885595E+04</pdfrwt>
<pdfrwt beam="2">  1       -1 0.11084677E+00 0.12885595E+04</pdfrwt>
<totfact> 0.43786734E+01</totfact>
</mgrwt>
</event>
<event>
12    6  0.1462228E-007  0.1262466E+04  0.7818608E-02  0.9059871E-01
         -1   -1    0    0    0  501 -0.00000000000E+00  0.00000000000E+00  0.37426832794E+03  0.37426832794E+03  0.00000000000E+00 0.  1.
          2   -1    0    0  501    0  0.00000000000E+00 -0.00000000000E+00 -0.10646243623E+04  0.10646243623E+04  0.00000000000E+00 0. -1.
         24    2    1    2    0    0 -0.64631249572E+02 -0.21001032761E+02  0.15067174611E+03  0.18351926165E+03  0.79743981107E+02 0.  0.
        254    2    1    2    0    0  0.64631249572E+02  0.21001032761E+02 -0.84102778046E+03  0.12553734286E+04  0.92952486566E+03 0.  0.
         23    2    4    4    0    0  0.33748860063E+03 -0.31193514174E+03 -0.56522488307E+03  0.73418098602E+03  0.91326138569E+02 0.  0.
         23    2    4    4    0    0 -0.27285735105E+03  0.33293617450E+03 -0.27580289740E+03  0.52119244257E+03  0.10137402856E+03 0.  0.
          2    1    3    3  502    0 -0.98414316345E+01  0.16339962082E+02  0.18785504363E+00  0.19075728741E+02  0.00000000000E+00 0. -1.
         -1    1    3    3    0  502 -0.54789817938E+02 -0.37340994843E+02  0.15048389107E+03  0.16444353291E+03  0.00000000000E+00 0.  1.
         11    1    5    5    0    0  0.19614852377E+03 -0.16995922253E+03 -0.38742651765E+03  0.46632573088E+03  0.00000000000E+00 0. -1.
        -11    1    5    5    0    0  0.14134007686E+03 -0.14197591920E+03 -0.17779836542E+03  0.26785525514E+03  0.00000000000E+00 0.  1.
          2    1    6    6  503    0 -0.12951532411E+03  0.13160341030E+03 -0.17461146591E+03  0.25413154234E+03  0.00000000000E+00 0.  1.
         -2    1    6    6    0  503 -0.14334202695E+03  0.20133276419E+03 -0.10119143148E+03  0.26706090023E+03  0.00000000000E+00 0. -1.
<mgrwt>
<rscale>  0 0.12624661E+04</rscale>
<asrwt>0</asrwt>
<pdfrwt beam="1">  1        2 0.16378836E+00 0.12624661E+04</pdfrwt>
<pdfrwt beam="2">  1       -1 0.57579743E-01 0.12624661E+04</pdfrwt>
<totfact> 0.78465138E+01</totfact>
</mgrwt>
</event>
<event>
12    6  0.1462228E-007  0.1167188E+04  0.7818608E-02  0.9142072E-01
         -1   -1    0    0    0  501 -0.00000000000E+00  0.00000000000E+00  0.22076552665E+03  0.22076552665E+03  0.00000000000E+00 0.  1.
          2   -1    0    0  501    0  0.00000000000E+00 -0.00000000000E+00 -0.15427318017E+04  0.15427318017E+04  0.00000000000E+00 0. -1.
         24    2    1    2    0    0 -0.10285088004E+03 -0.11771422862E+03 -0.50014437692E+03  0.53000512269E+03  0.79536715874E+02 0.  0.
        254    2    1    2    0    0  0.10285088004E+03  0.11771422862E+03 -0.82182189816E+03  0.12334922057E+04  0.90646392430E+03 0.  0.
         23    2    4    4    0    0 -0.53204904261E+02 -0.22485268378E+03 -0.80897986191E+03  0.84600817136E+03  0.88836466488E+02 0.  0.
         23    2    4    4    0    0  0.15605578430E+03  0.34256691240E+03 -0.12842036242E+02  0.38748403433E+03  0.90958571215E+02 0.  0.
          4    1    3    3  502    0 -0.16455389200E+02 -0.38297559059E+02 -0.25305125927E+03  0.25646134735E+03  0.00000000000E+00 0. -1.
         -3    1    3    3    0  502 -0.86395490845E+02 -0.79416669561E+02 -0.24709311764E+03  0.27354377534E+03  0.00000000000E+00 0.  1.
         11    1    5    5    0    0 -0.28455931564E+02 -0.19823155510E+03 -0.56729829571E+03  0.60160854864E+03  0.00000000000E+00 0.  1.
        -11    1    5    5    0    0 -0.24748972697E+02 -0.26621128678E+02 -0.24168156620E+03  0.24439962272E+03  0.00000000000E+00 0. -1.
          1    1    6    6  503    0  0.30807315297E+02  0.11994046386E+02 -0.76871440613E+01  0.33941714871E+02  0.00000000000E+00 0. -1.
         -1    1    6    6    0  503  0.12524846901E+03  0.33057286602E+03 -0.51548921803E+01  0.35354231946E+03  0.00000000000E+00 0.  1.
<mgrwt>
<rscale>  0 0.11671881E+04</rscale>
<asrwt>0</asrwt>
<pdfrwt beam="1">  1        2 0.23734336E+00 0.11671881E+04</pdfrwt>
<pdfrwt beam="2">  1       -1 0.33963927E-01 0.11671881E+04</pdfrwt>
<totfact> 0.11073456E+02</totfact>
</mgrwt>
</event>
<event>
12    6  0.1462228E-007  0.1596993E+04  0.7818608E-02  0.8822397E-01
          2   -1    0    0  501    0  0.00000000000E+00  0.00000000000E+00  0.74512121402E+03  0.74512121402E+03  0.00000000000E+00 0. -1.
         -3   -1    0    0    0  501 -0.00000000000E+00 -0.00000000000E+00 -0.85569547695E+03  0.85569547695E+03  0.00000000000E+00 0.  1.
         24    2    1    2    0    0 -0.35330800379E+03 -0.39950607668E+03 -0.12539752932E+03  0.55372282583E+03  0.80329176811E+02 0.  0.
        254    2    1    2    0    0  0.35330800379E+03  0.39950607668E+03  0.14823266398E+02  0.10470938651E+04  0.90097401869E+03 0.  0.
         23    2    4    4    0    0  0.25782246254E+03 -0.24925629505E+03 -0.81532433403E+02  0.37817945605E+03  0.88153505141E+02 0.  0.
         23    2    4    4    0    0  0.95485541247E+02  0.64876237173E+03  0.96355699801E+02  0.66891440909E+03  0.90288217670E+02 0.  0.
          4    1    3    3  502    0 -0.28958262744E+03 -0.27598590679E+03 -0.10129834442E+03  0.41265927040E+03  0.00000000000E+00 0. -1.
         -3    1    3    3    0  502 -0.63725376345E+02 -0.12352016989E+03 -0.24099184904E+02  0.14106355544E+03  0.00000000000E+00 0.  1.
         11    1    5    5    0    0  0.23639156303E+03 -0.20042056751E+03 -0.93116358421E+02  0.32360474526E+03  0.00000000000E+00 0. -1.
        -11    1    5    5    0    0  0.21430899511E+02 -0.48835727544E+02  0.11583925018E+02  0.54574710787E+02  0.00000000000E+00 0.  1.
          1    1    6    6  503    0  0.60808856180E+02  0.56375787173E+03  0.10512721312E+03  0.57669089282E+03  0.00000000000E+00 0. -1.
         -1    1    6    6    0  503  0.34676685067E+02  0.85004500002E+02 -0.87715133181E+01  0.92223516273E+02  0.00000000000E+00 0.  1.
<mgrwt>
<rscale>  0 0.15969932E+04</rscale>
<asrwt>0</asrwt>
<pdfrwt beam="1">  1        2 0.11463403E+00 0.15969932E+04</pdfrwt>
<pdfrwt beam="2">  1       -3 0.13164546E+00 0.15969932E+04</pdfrwt>
<totfact> 0.10286835E+01</totfact>
</mgrwt>
</event>
<event>
12    6  0.1462228E-007  0.2700341E+04  0.7818608E-02  0.8334894E-01
          2   -1    0    0  501    0  0.00000000000E+00  0.00000000000E+00  0.11363287042E+04  0.11363287042E+04  0.00000000000E+00 0. -1.
         -1   -1    0    0    0  501 -0.00000000000E+00 -0.00000000000E+00 -0.16042546580E+04  0.16042546580E+04  0.00000000000E+00 0.  1.
         24    2    1    2    0    0 -0.10122753060E+04  0.28770405908E+03 -0.79503469505E+03  0.13212369021E+04  0.78178414656E+02 0.  0.
        254    2    1    2    0    0  0.10122753060E+04 -0.28770405908E+03  0.32710874119E+03  0.14193464601E+04  0.89446594378E+03 0.  0.
         23    2    4    4    0    0  0.96137046350E+03 -0.52730062457E+03  0.16745041885E+03  0.11133339239E+04  0.95883609753E+02 0.  0.
         23    2    4    4    0    0  0.50904842456E+02  0.23959656548E+03  0.15965832234E+03  0.30601253619E+03  0.90305455164E+02 0.  0.
          2    1    3    3  502    0 -0.49186636866E+03  0.16170001014E+03 -0.43208439431E+03  0.67437107123E+03  0.00000000000E+00 0. -1.
         -1    1    3    3    0  502 -0.52040893729E+03  0.12600404894E+03 -0.36295030074E+03  0.64686583089E+03  0.00000000000E+00 0.  1.
         11    1    5    5    0    0  0.88654556752E+03 -0.50844454263E+03  0.17043762117E+03  0.10361119046E+04  0.00000000000E+00 0. -1.
        -11    1    5    5    0    0  0.74824895981E+02 -0.18856081940E+02 -0.29872023252E+01  0.77222019285E+02  0.00000000000E+00 0.  1.
          3    1    6    6  503    0  0.76495052122E+02  0.16911530559E+03  0.10531250079E+03  0.21340619112E+03  0.00000000000E+00 0. -1.
         -3    1    6    6    0  503 -0.25590209666E+02  0.70481259893E+02  0.54345821550E+02  0.92606345068E+02  0.00000000000E+00 0.  1.
<mgrwt>
<rscale>  0 0.27003412E+04</rscale>
<asrwt>0</asrwt>
<pdfrwt beam="1">  1        2 0.17481980E+00 0.27003412E+04</pdfrwt>
<pdfrwt beam="2">  1       -1 0.24680841E+00 0.27003412E+04</pdfrwt>
<totfact> 0.15135116E+00</totfact>
</mgrwt>
</event>
<event>
12    6  0.1462228E-007  0.1443116E+04  0.7818608E-02  0.8923187E-01
          2   -1    0    0  501    0  0.00000000000E+00  0.00000000000E+00  0.12844746663E+04  0.12844746663E+04  0.00000000000E+00 0. -1.
         -1   -1    0    0    0  501 -0.00000000000E+00 -0.00000000000E+00 -0.40533780277E+03  0.40533780277E+03  0.00000000000E+00 0.  1.
         24    2    1    2    0    0  0.41073999263E+03 -0.47527240584E+02  0.41113122108E+03  0.58870892529E+03  0.81136536912E+02 0.  0.
        254    2    1    2    0    0 -0.41073999263E+03  0.47527240584E+02  0.46800564241E+03  0.11011035437E+04  0.90688122297E+03 0.  0.
         23    2    4    4    0    0 -0.10651178750E+03  0.31878532516E+03  0.57184014574E+03  0.67060843404E+03  0.98720185975E+02 0.  0.
         23    2    4    4    0    0 -0.30422820513E+03 -0.27125808457E+03 -0.10383450333E+03  0.43049510970E+03  0.91698888477E+02 0.  0.
          4    1    3    3  502    0  0.15259409280E+03 -0.49434863872E+02  0.19121429644E+03  0.24958299238E+03  0.00000000000E+00 0. -1.
         -3    1    3    3    0  502  0.25814589983E+03  0.19076232874E+01  0.21991692465E+03  0.33912593291E+03  0.00000000000E+00 0.  1.
         11    1    5    5    0    0 -0.97251854740E+02  0.14985041571E+03  0.25380432179E+03  0.31037026936E+03  0.00000000000E+00 0. -1.
        -11    1    5    5    0    0 -0.92599327598E+01  0.16893490944E+03  0.31803582395E+03  0.36023816469E+03  0.00000000000E+00 0.  1.
          1    1    6    6  503    0 -0.49046456763E+01 -0.37763828860E+02 -0.70500330957E+01  0.38728094273E+02  0.00000000000E+00 0. -1.
         -1    1    6    6    0  503 -0.29932355946E+03 -0.23349425571E+03 -0.96784470238E+02  0.39176701543E+03  0.00000000000E+00 0.  1.
<mgrwt>
<rscale>  0 0.14431163E+04</rscale>
<asrwt>0</asrwt>
<pdfrwt beam="1">  1        2 0.19761148E+00 0.14431163E+04</pdfrwt>
<pdfrwt beam="2">  1       -1 0.62359663E-01 0.14431163E+04</pdfrwt>
<totfact> 0.48700044E+01</totfact>
</mgrwt>
</event>
<event>
12    6  0.1462228E-007  0.2695710E+04  0.7818608E-02  0.8336398E-01
          2   -1    0    0  501    0  0.00000000000E+00  0.00000000000E+00  0.21599949222E+04  0.21599949222E+04  0.00000000000E+00 0. -1.
         -1   -1    0    0    0  501 -0.00000000000E+00 -0.00000000000E+00 -0.84107294893E+03  0.84107294893E+03  0.00000000000E+00 0.  1.
         24    2    1    2    0    0  0.10199333487E+04  0.14764605771E+02  0.12691778909E+04  0.16298324517E+04  0.71128563328E+02 0.  0.
        254    2    1    2    0    0 -0.10199333487E+04 -0.14764605771E+02  0.49744082311E+02  0.13712354194E+04  0.91505741477E+03 0.  0.
         23    2    4    4    0    0 -0.57469921876E+03  0.39603016832E+03  0.21700295368E+03  0.73562559815E+03  0.83280564885E+02 0.  0.
         23    2    4    4    0    0 -0.44523412991E+03 -0.41079477409E+03 -0.16725887136E+03  0.63560982123E+03  0.95071225608E+02 0.  0.
          4    1    3    3  502    0  0.73059354027E+03  0.20240244179E+02  0.95672949110E+03  0.12039551103E+04  0.00000000000E+00 0. -1.
         -3    1    3    3    0  502  0.28933980840E+03 -0.54756384079E+01  0.31244839983E+03  0.42587734138E+03  0.00000000000E+00 0.  1.
         11    1    5    5    0    0 -0.38843718986E+03  0.26128903680E+03  0.10439686747E+03  0.47963957005E+03  0.00000000000E+00 0. -1.
        -11    1    5    5    0    0 -0.18626202890E+03  0.13474113152E+03  0.11260608621E+03  0.25598602810E+03  0.00000000000E+00 0.  1.
          4    1    6    6  503    0 -0.76490088954E+02 -0.11155048819E+03 -0.11126025707E+02  0.13571305601E+03  0.00000000000E+00 0. -1.
         -4    1    6    6    0  503 -0.36874404096E+03 -0.29924428590E+03 -0.15613284566E+03  0.49989676522E+03  0.00000000000E+00 0.  1.
<mgrwt>
<rscale>  0 0.26957101E+04</rscale>
<asrwt>0</asrwt>
<pdfrwt beam="1">  1        2 0.33230691E+00 0.26957101E+04</pdfrwt>
<pdfrwt beam="2">  1       -1 0.12939584E+00 0.26957101E+04</pdfrwt>
<totfact> 0.27853327E+00</totfact>
</mgrwt>
</event>
<event>
12    6  0.1462228E-007  0.1706011E+04  0.7818608E-02  0.8757943E-01
         -1   -1    0    0    0  501 -0.00000000000E+00  0.00000000000E+00  0.22868538616E+04  0.22868538616E+04  0.00000000000E+00 0.  1.
          2   -1    0    0  501    0  0.00000000000E+00 -0.00000000000E+00 -0.31817452664E+03  0.31817452664E+03  0.00000000000E+00 0. -1.
         24    2    1    2    0    0  0.57015202578E+03  0.22675688139E+03  0.65614322032E+03  0.90160800071E+03  0.76687975673E+02 0.  0.
        254    2    1    2    0    0 -0.57015202578E+03 -0.22675688139E+03  0.13125361146E+04  0.17034203875E+04  0.89576668205E+03 0.  0.
         23    2    4    4    0    0 -0.62116381123E+03  0.17737832327E+03  0.65742690287E+03  0.92634757485E+03  0.92747759415E+02 0.  0.
         23    2    4    4    0    0  0.51011785442E+02 -0.40413520466E+03  0.65510921178E+03  0.77707281269E+03  0.93523317759E+02 0.  0.
          4    1    3    3  502    0  0.59070696855E+02  0.93100983299E+01  0.39298165742E+02  0.71556767595E+02  0.00000000000E+00 0. -1.
         -3    1    3    3    0  502  0.51108132893E+03  0.21744678306E+03  0.61684505458E+03  0.83005123312E+03  0.00000000000E+00 0.  1.
         11    1    5    5    0    0 -0.10032853057E+03  0.51925605438E+02  0.78450936011E+02  0.13753774721E+03  0.00000000000E+00 0.  1.
        -11    1    5    5    0    0 -0.52083528066E+03  0.12545271783E+03  0.57897596686E+03  0.78880982764E+03  0.00000000000E+00 0. -1.
          4    1    6    6  503    0  0.40840074976E+02 -0.39480293424E+03  0.65136970020E+03  0.76277110259E+03  0.00000000000E+00 0. -1.
         -4    1    6    6    0  503  0.10171710466E+02 -0.93322704223E+01  0.37395115838E+01  0.14301710105E+02  0.00000000000E+00 0.  1.
<mgrwt>
<rscale>  0 0.17060113E+04</rscale>
<asrwt>0</asrwt>
<pdfrwt beam="1">  1        2 0.48949929E-01 0.17060113E+04</pdfrwt>
<pdfrwt beam="2">  1       -1 0.35182366E+00 0.17060113E+04</pdfrwt>
<totfact> 0.16962134E+00</totfact>
</mgrwt>
</event>
<event>
12    6  0.1462228E-007  0.1356446E+04  0.7818608E-02  0.8985963E-01
         -1   -1    0    0    0  501 -0.00000000000E+00  0.00000000000E+00  0.77578451069E+03  0.77578451069E+03  0.00000000000E+00 0.  1.
          2   -1    0    0  501    0  0.00000000000E+00 -0.00000000000E+00 -0.59293029999E+03  0.59293029999E+03  0.00000000000E+00 0. -1.
         24    2    1    2    0    0 -0.34027574262E+03 -0.46525185613E+02 -0.62493326966E+02  0.35790824777E+03  0.78998253103E+02 0.  0.
        254    2    1    2    0    0  0.34027574262E+03  0.46525185613E+02  0.24534753766E+03  0.10108065629E+04  0.91846737530E+03 0.  0.
         23    2    4    4    0    0  0.16119859424E+03  0.47008027906E+03  0.71661853410E+02  0.51061176687E+03  0.92889717887E+02 0.  0.
         23    2    4    4    0    0  0.17907714838E+03 -0.42355509345E+03  0.17368568425E+03  0.50019479604E+03  0.92523374457E+02 0.  0.
          2    1    3    3  502    0 -0.26392012933E+03 -0.18806138205E+02 -0.76615275573E+02  0.27545853763E+03  0.00000000000E+00 0. -1.
         -1    1    3    3    0  502 -0.76355613287E+02 -0.27719047408E+02  0.14121948607E+02  0.82449710139E+02  0.00000000000E+00 0.  1.
         11    1    5    5    0    0  0.15757405892E+03  0.36828453504E+03  0.34026081966E+02  0.40202096593E+03  0.00000000000E+00 0. -1.
        -11    1    5    5    0    0  0.36245353174E+01  0.10179574402E+03  0.37635771444E+02  0.10859080094E+03  0.00000000000E+00 0.  1.
          1    1    6    6  503    0  0.14852644843E+03 -0.40530060690E+03  0.14807813348E+03  0.45635054667E+03  0.00000000000E+00 0. -1.
         -1    1    6    6    0  503  0.30550699949E+02 -0.18254486548E+02  0.25607550764E+02  0.43844249368E+02  0.00000000000E+00 0.  1.
<mgrwt>
<rscale>  0 0.13564456E+04</rscale>
<asrwt>0</asrwt>
<pdfrwt beam="1">  1        2 0.91220046E-01 0.13564456E+04</pdfrwt>
<pdfrwt beam="2">  1       -1 0.11935146E+00 0.13564456E+04</pdfrwt>
<totfact> 0.35232655E+01</totfact>
</mgrwt>
</event>
<event>
12    6  0.1462228E-007  0.1667553E+04  0.7818608E-02  0.8780090E-01
          2   -1    0    0  501    0  0.00000000000E+00  0.00000000000E+00  0.24048164107E+04  0.24048164107E+04  0.00000000000E+00 0. -1.
         -1   -1    0    0    0  501 -0.00000000000E+00 -0.00000000000E+00 -0.28907945743E+03  0.28907945743E+03  0.00000000000E+00 0.  1.
         24    2    1    2    0    0 -0.84378424117E+02  0.53160052441E+03  0.36456157392E+03  0.65503629790E+03  0.80303016070E+02 0.  0.
        254    2    1    2    0    0  0.84378424117E+02 -0.53160052441E+03  0.17511753794E+04  0.20388595703E+04  0.89477053030E+03 0.  0.
         23    2    4    4    0    0 -0.88385573285E+02  0.21301919157E+03  0.25299927794E+03  0.35446189484E+03  0.91898937510E+02 0.  0.
         23    2    4    4    0    0  0.17276399740E+03 -0.74461971598E+03  0.14981761015E+04  0.16843976754E+04  0.91421976541E+02 0.  0.
          2    1    3    3  502    0 -0.11716322293E+02  0.31200494325E+03  0.22556941077E+03  0.38518296418E+03  0.00000000000E+00 0. -1.
         -1    1    3    3    0  502 -0.72662101825E+02  0.21959558116E+03  0.13899216314E+03  0.26985333372E+03  0.00000000000E+00 0.  1.
         11    1    5    5    0    0 -0.87387950738E+02  0.19390910752E+03  0.25830626426E+03  0.33460352967E+03  0.00000000000E+00 0.  1.
        -11    1    5    5    0    0 -0.99762254791E+00  0.19110084055E+02 -0.53069863254E+01  0.19858365170E+02  0.00000000000E+00 0. -1.
          1    1    6    6  503    0  0.17200262189E+03 -0.73399546029E+03  0.14930375160E+04  0.16725714519E+04  0.00000000000E+00 0. -1.
         -1    1    6    6    0  503  0.76137551034E+00 -0.10624255693E+02  0.51385854693E+01  0.11826223502E+02  0.00000000000E+00 0.  1.
<mgrwt>
<rscale>  0 0.16675527E+04</rscale>
<asrwt>0</asrwt>
<pdfrwt beam="1">  1        2 0.36997174E+00 0.16675527E+04</pdfrwt>
<pdfrwt beam="2">  1       -1 0.44473764E-01 0.16675527E+04</pdfrwt>
<totfact> 0.21512573E+01</totfact>
</mgrwt>
</event>
<event>
12    6  0.1462228E-007  0.1211139E+04  0.7818608E-02  0.9103162E-01
         -1   -1    0    0    0  501 -0.00000000000E+00  0.00000000000E+00  0.56394647067E+03  0.56394647067E+03  0.00000000000E+00 0.  1.
          2   -1    0    0  501    0  0.00000000000E+00 -0.00000000000E+00 -0.65026498311E+03  0.65026498311E+03  0.00000000000E+00 0. -1.
         24    2    1    2    0    0 -0.95200873360E+01  0.24841462828E+03 -0.79774323060E+02  0.27301093794E+03  0.79815850608E+02 0.  0.
        254    2    1    2    0    0  0.95200873360E+01 -0.24841462828E+03 -0.65441893725E+01  0.94120051584E+03  0.90775278849E+03 0.  0.
         23    2    4    4    0    0 -0.17924602384E+03 -0.20351538099E+03 -0.40015501986E+03  0.49300439903E+03  0.96858918945E+02 0.  0.
         23    2    4    4    0    0  0.18876611117E+03 -0.44899247291E+02  0.39361083049E+03  0.44819611682E+03  0.91113589074E+02 0.  0.
          2    1    3    3  502    0 -0.14799847808E+02  0.23888597585E+03 -0.92197827521E+02  0.25648778598E+03  0.00000000000E+00 0. -1.
         -1    1    3    3    0  502  0.52797604717E+01  0.95286524219E+01  0.12423504461E+02  0.16523151960E+02  0.00000000000E+00 0.  1.
         11    1    5    5    0    0 -0.18759828257E+03 -0.16912292916E+03 -0.35008590437E+03  0.43168949632E+03  0.00000000000E+00 0. -1.
        -11    1    5    5    0    0  0.83522587296E+01 -0.34392451822E+02 -0.50069115494E+02  0.61314902712E+02  0.00000000000E+00 0.  1.
          1    1    6    6  503    0  0.88770267556E+02 -0.55289510891E+02  0.13526743153E+03  0.17098060840E+03  0.00000000000E+00 0. -1.
         -1    1    6    6    0  503  0.99995843617E+02  0.10390263600E+02  0.25834339896E+03  0.27721550842E+03  0.00000000000E+00 0.  1.
<mgrwt>
<rscale>  0 0.12111394E+04</rscale>
<asrwt>0</asrwt>
<pdfrwt beam="1">  1        2 0.10004077E+00 0.12111394E+04</pdfrwt>
<pdfrwt beam="2">  1       -1 0.86760996E-01 0.12111394E+04</pdfrwt>
<totfact> 0.66319913E+01</totfact>
</mgrwt>
</event>
<event>
12    6  0.1462228E-007  0.1583483E+04  0.7818608E-02  0.8830760E-01
          2   -1    0    0  501    0  0.00000000000E+00  0.00000000000E+00  0.90601643812E+03  0.90601643812E+03  0.00000000000E+00 0. -1.
         -1   -1    0    0    0  501 -0.00000000000E+00 -0.00000000000E+00 -0.69187968954E+03  0.69187968954E+03  0.00000000000E+00 0.  1.
         24    2    1    2    0    0  0.29381872875E+03 -0.27142759946E+03 -0.27923479051E+03  0.49422122571E+03  0.79247489533E+02 0.  0.
        254    2    1    2    0    0 -0.29381872875E+03  0.27142759946E+03  0.49337153910E+03  0.11036749019E+04  0.90259649151E+03 0.  0.
         23    2    4    4    0    0  0.16520700085E+03 -0.22391556098E+03  0.67442188148E+02  0.30024116792E+03  0.90359164416E+02 0.  0.
         23    2    4    4    0    0 -0.45902572959E+03  0.49534316043E+03  0.42592935095E+03  0.80343373403E+03  0.89557165908E+02 0.  0.
          4    1    3    3  502    0  0.27411270100E+03 -0.22883591052E+03 -0.22305540407E+03  0.42101942957E+03  0.00000000000E+00 0. -1.
         -3    1    3    3    0  502  0.19706027746E+02 -0.42591688934E+02 -0.56179386446E+02  0.73201796134E+02  0.00000000000E+00 0.  1.
         11    1    5    5    0    0  0.13295528283E+03 -0.10869886729E+03  0.26396150561E+02  0.17375070575E+03  0.00000000000E+00 0.  1.
        -11    1    5    5    0    0  0.32251718017E+02 -0.11521669368E+03  0.41046037587E+02  0.12649046217E+03  0.00000000000E+00 0. -1.
          3    1    6    6  503    0 -0.45352482341E+03  0.46198609679E+03  0.40282297679E+03  0.76248427506E+03  0.00000000000E+00 0. -1.
         -3    1    6    6    0  503 -0.55009061811E+01  0.33357063642E+02  0.23106374160E+02  0.40949458976E+02  0.00000000000E+00 0.  1.
<mgrwt>
<rscale>  0 0.15834827E+04</rscale>
<asrwt>0</asrwt>
<pdfrwt beam="1">  1        2 0.13938714E+00 0.15834827E+04</pdfrwt>
<pdfrwt beam="2">  1       -1 0.10644303E+00 0.15834827E+04</pdfrwt>
<totfact> 0.26254729E+01</totfact>
</mgrwt>
</event>
<event>
12    6  0.1462228E-007  0.2166289E+04  0.7818608E-02  0.8532592E-01
         -1   -1    0    0    0  501 -0.00000000000E+00  0.00000000000E+00  0.18041817396E+04  0.18041817396E+04  0.00000000000E+00 0.  1.
          2   -1    0    0  501    0  0.00000000000E+00 -0.00000000000E+00 -0.65026808810E+03  0.65026808810E+03  0.00000000000E+00 0. -1.
         24    2    1    2    0    0  0.57876549747E+03  0.20208390152E+03 -0.27781930055E+03  0.67786008566E+03  0.80643212109E+02 0.  0.
        254    2    1    2    0    0 -0.57876549747E+03 -0.20208390152E+03  0.14317329521E+04  0.17765897421E+04  0.85475403552E+03 0.  0.
         23    2    4    4    0    0  0.77609104192E+02 -0.34807732059E+03  0.56455838482E+03  0.67500449550E+03  0.98609862146E+02 0.  0.
         23    2    4    4    0    0 -0.65637460166E+03  0.14599341907E+03  0.86717456727E+03  0.11015852466E+04  0.96729670952E+02 0.  0.
          4    1    3    3  502    0  0.54829597476E+03  0.20735898958E+03 -0.27267590712E+03  0.64651247229E+03  0.00000000000E+00 0. -1.
         -3    1    3    3    0  502  0.30469522705E+02 -0.52750880670E+01 -0.51433934330E+01  0.31347613370E+02  0.00000000000E+00 0.  1.
         11    1    5    5    0    0  0.19911410778E+02 -0.27294843419E+03  0.39072032228E+03  0.47703216061E+03  0.00000000000E+00 0. -1.
        -11    1    5    5    0    0  0.57697693414E+02 -0.75128886393E+02  0.17383806254E+03  0.19797233489E+03  0.00000000000E+00 0.  1.
          1    1    6    6  503    0 -0.49295879711E+03  0.93848724542E+02  0.70630705455E+03  0.86642115282E+03  0.00000000000E+00 0. -1.
         -1    1    6    6    0  503 -0.16341580455E+03  0.52144694528E+02  0.16086751271E+03  0.23516409375E+03  0.00000000000E+00 0.  1.
<mgrwt>
<rscale>  0 0.21662888E+04</rscale>
<asrwt>0</asrwt>
<pdfrwt beam="1">  1        2 0.10004124E+00 0.21662888E+04</pdfrwt>
<pdfrwt beam="2">  1       -1 0.27756642E+00 0.21662888E+04</pdfrwt>
<totfact> 0.21702769E+00</totfact>
</mgrwt>
</event>
<event>
12    6  0.1462228E-007  0.1269337E+04  0.7818608E-02  0.9054241E-01
         -1   -1    0    0    0  501 -0.00000000000E+00  0.00000000000E+00  0.79349597446E+03  0.79349597446E+03  0.00000000000E+00 0.  1.
          2   -1    0    0  501    0  0.00000000000E+00 -0.00000000000E+00 -0.50763192255E+03  0.50763192255E+03  0.00000000000E+00 0. -1.
         24    2    1    2    0    0  0.25731802357E+03  0.13396593878E+03  0.15587320456E+03  0.33926387457E+03  0.81511242640E+02 0.  0.
        254    2    1    2    0    0 -0.25731802357E+03 -0.13396593878E+03  0.12999084735E+03  0.96186402244E+03  0.90781349365E+03 0.  0.
         23    2    4    4    0    0 -0.19360694160E+03  0.20925188466E+03 -0.28329876460E+03  0.41262683269E+03  0.93448991253E+02 0.  0.
         23    2    4    4    0    0 -0.63711081975E+02 -0.34321782344E+03  0.41328961196E+03  0.54923718975E+03  0.94845194693E+02 0.  0.
          2    1    3    3  502    0  0.10028180044E+03  0.81583137884E+02  0.33924360887E+02  0.13365294665E+03  0.00000000000E+00 0. -1.
         -1    1    3    3    0  502  0.15703622313E+03  0.52382800900E+02  0.12194884368E+03  0.20561092791E+03  0.00000000000E+00 0.  1.
         11    1    5    5    0    0 -0.12523333850E+03  0.68057688900E+02 -0.14785983432E+03  0.20537226856E+03  0.00000000000E+00 0.  1.
        -11    1    5    5    0    0 -0.68373603093E+02  0.14119419576E+03 -0.13543893028E+03  0.20725456413E+03  0.00000000000E+00 0. -1.
          4    1    6    6  503    0 -0.75255318803E+02 -0.33450819679E+03  0.37404917030E+03  0.50741686859E+03  0.00000000000E+00 0. -1.
         -4    1    6    6    0  503  0.11544236828E+02 -0.87096266502E+01  0.39240441651E+02  0.41820321153E+02  0.00000000000E+00 0.  1.
<mgrwt>
<rscale>  0 0.12693367E+04</rscale>
<asrwt>0</asrwt>
<pdfrwt beam="1">  1        2 0.78097219E-01 0.12693367E+04</pdfrwt>
<pdfrwt beam="2">  1       -1 0.12207630E+00 0.12693367E+04</pdfrwt>
<totfact> 0.40343318E+01</totfact>
</mgrwt>
</event>
<event>
12    6  0.1462228E-007  0.1496261E+04  0.7818608E-02  0.8886943E-01
          2   -1    0    0  501    0  0.00000000000E+00  0.00000000000E+00  0.97705690245E+03  0.97705690245E+03  0.00000000000E+00 0. -1.
         -1   -1    0    0    0  501 -0.00000000000E+00 -0.00000000000E+00 -0.57284205184E+03  0.57284205184E+03  0.00000000000E+00 0.  1.
         24    2    1    2    0    0 -0.17564289890E+03 -0.30572709947E+03 -0.20205568121E+03  0.41413524873E+03  0.79762263295E+02 0.  0.
        254    2    1    2    0    0  0.17564289890E+03  0.30572709947E+03  0.60627053182E+03  0.11357637056E+04  0.89335085483E+03 0.  0.
         23    2    4    4    0    0  0.37008599257E+02 -0.27929774471E+03  0.31180174581E+02  0.29890049873E+03  0.94828467435E+02 0.  0.
         23    2    4    4    0    0  0.13863429964E+03  0.58502484418E+03  0.57509035724E+03  0.83686320683E+03  0.90208484106E+02 0.  0.
          2    1    3    3  502    0 -0.68020094069E+00 -0.12254599238E+02  0.64544796006E+01  0.13867162028E+02  0.00000000000E+00 0. -1.
         -1    1    3    3    0  502 -0.17496269796E+03 -0.29347250023E+03 -0.20851016081E+03  0.40026808670E+03  0.00000000000E+00 0.  1.
         11    1    5    5    0    0  0.78595549074E+01  0.63692218604E+01  0.13116584287E+01  0.10200982222E+02  0.00000000000E+00 0. -1.
        -11    1    5    5    0    0  0.29149044350E+02 -0.28566696657E+03  0.29868516152E+02  0.28869951651E+03  0.00000000000E+00 0.  1.
          3    1    6    6  503    0  0.43274041964E+01  0.12428044942E+00 -0.15521928669E+01  0.45990407049E+01  0.00000000000E+00 0. -1.
         -3    1    6    6    0  503  0.13430689545E+03  0.58490056373E+03  0.57664255011E+03  0.83226416613E+03  0.00000000000E+00 0.  1.
<mgrwt>
<rscale>  0 0.14962610E+04</rscale>
<asrwt>0</asrwt>
<pdfrwt beam="1">  1        2 0.15031645E+00 0.14962610E+04</pdfrwt>
<pdfrwt beam="2">  1       -1 0.88129546E-01 0.14962610E+04</pdfrwt>
<totfact> 0.36372636E+01</totfact>
</mgrwt>
</event>
<event>
12    6  0.1462228E-007  0.1695683E+04  0.7818608E-02  0.8763830E-01
          2   -1    0    0  501    0  0.00000000000E+00  0.00000000000E+00  0.17875319804E+04  0.17875319804E+04  0.00000000000E+00 0. -1.
         -1   -1    0    0    0  501 -0.00000000000E+00 -0.00000000000E+00 -0.40213824516E+03  0.40213824516E+03  0.00000000000E+00 0.  1.
         24    2    1    2    0    0 -0.48679033829E+02 -0.42295493685E+03  0.10531210285E+04  0.11390025991E+04  0.83680900982E+02 0.  0.
        254    2    1    2    0    0  0.48679033829E+02  0.42295493685E+03  0.33227270674E+03  0.10506676264E+04  0.90124180034E+03 0.  0.
         23    2    4    4    0    0  0.26493653539E+03 -0.39490316528E+02 -0.16877289680E+03  0.33004470239E+03  0.93243562753E+02 0.  0.
         23    2    4    4    0    0 -0.21625750156E+03  0.46244525338E+03  0.50104560354E+03  0.72062292406E+03  0.87337177115E+02 0.  0.
          4    1    3    3  502    0 -0.24568203646E+02 -0.35166243299E+03  0.78501450373E+03  0.86053345924E+03  0.00000000000E+00 0. -1.
         -3    1    3    3    0  502 -0.24110830183E+02 -0.71292503856E+02  0.26810652481E+03  0.27846913991E+03  0.00000000000E+00 0.  1.
         11    1    5    5    0    0  0.20722845985E+03 -0.69031539178E+02 -0.13715523196E+03  0.25791577235E+03  0.00000000000E+00 0. -1.
        -11    1    5    5    0    0  0.57708075535E+02  0.29541222649E+02 -0.31617664838E+02  0.72128930031E+02  0.00000000000E+00 0.  1.
          4    1    6    6  503    0 -0.21778177156E+03  0.40778827133E+03  0.46079960057E+03  0.65272999483E+03  0.00000000000E+00 0. -1.
         -4    1    6    6    0  503  0.15242700024E+01  0.54656982042E+02  0.40246002970E+02  0.67892929235E+02  0.00000000000E+00 0.  1.
<mgrwt>
<rscale>  0 0.16956827E+04</rscale>
<asrwt>0</asrwt>
<pdfrwt beam="1">  1        2 0.27500491E+00 0.16956827E+04</pdfrwt>
<pdfrwt beam="2">  1       -1 0.61867424E-01 0.16956827E+04</pdfrwt>
<totfact> 0.25189810E+01</totfact>
</mgrwt>
</event>
<event>
12    6  0.1462228E-007  0.2231274E+04  0.7818608E-02  0.8505523E-01
         -1   -1    0    0    0  501 -0.00000000000E+00  0.00000000000E+00  0.19565271152E+04  0.19565271152E+04  0.00000000000E+00 0.  1.
          2   -1    0    0  501    0  0.00000000000E+00 -0.00000000000E+00 -0.63615039203E+03  0.63615039203E+03  0.00000000000E+00 0. -1.
         24    2    1    2    0    0 -0.50095765873E+03 -0.45307598715E+03  0.13016717653E+04  0.14685751198E+04  0.78275614713E+02 0.  0.
        254    2    1    2    0    0  0.50095765873E+03  0.45307598715E+03  0.18704957920E+02  0.11241023875E+04  0.89834285002E+03 0.  0.
         23    2    4    4    0    0  0.58112041179E+03  0.52878175398E+03  0.26945670047E+03  0.83542965099E+03  0.89580756737E+02 0.  0.
         23    2    4    4    0    0 -0.80162753063E+02 -0.75705766833E+02 -0.25075174255E+03  0.28867273652E+03  0.91093810493E+02 0.  0.
          4    1    3    3  502    0 -0.93309909112E+02 -0.99182155103E+02  0.33046218492E+03  0.35742005357E+03  0.00000000000E+00 0. -1.
         -1    1    3    3    0  502 -0.40764774961E+03 -0.35389383205E+03  0.97120958037E+03  0.11111550662E+04  0.00000000000E+00 0.  1.
         11    1    5    5    0    0  0.46819189852E+03  0.46577296648E+03  0.24103197558E+03  0.70302526512E+03  0.00000000000E+00 0.  1.
        -11    1    5    5    0    0  0.11292851327E+03  0.63008787498E+02  0.28424724882E+02  0.13240438586E+03  0.00000000000E+00 0. -1.
          3    1    6    6  503    0 -0.10063908502E+03 -0.63835717782E+02 -0.20364731756E+03  0.23595646685E+03  0.00000000000E+00 0. -1.
         -3    1    6    6    0  503  0.20476331957E+02 -0.11870049051E+02 -0.47104424982E+02  0.52716269668E+02  0.00000000000E+00 0.  1.
<mgrwt>
<rscale>  0 0.22312736E+04</rscale>
<asrwt>0</asrwt>
<pdfrwt beam="1">  1        2 0.97869292E-01 0.22312736E+04</pdfrwt>
<pdfrwt beam="2">  1       -1 0.30100417E+00 0.22312736E+04</pdfrwt>
<totfact> 0.15637668E+00</totfact>
</mgrwt>
</event>
<event>
12    6  0.1462228E-007  0.1907861E+04  0.7818608E-02  0.8650953E-01
         -1   -1    0    0    0  501 -0.00000000000E+00  0.00000000000E+00  0.69595362643E+03  0.69595362643E+03  0.00000000000E+00 0.  1.
          2   -1    0    0  501    0  0.00000000000E+00 -0.00000000000E+00 -0.13075351498E+04  0.13075351498E+04  0.00000000000E+00 0. -1.
         24    2    1    2    0    0 -0.62716616759E+03  0.35148460597E+03 -0.40701742016E+03  0.83004045585E+03  0.80157021062E+02 0.  0.
        254    2    1    2    0    0  0.62716616759E+03 -0.35148460597E+03 -0.20456410324E+03  0.11734483204E+04  0.90457484949E+03 0.  0.
         23    2    4    4    0    0 -0.15318356923E+03 -0.32293863992E+03 -0.77312213166E+02  0.37697278737E+03  0.91524494411E+02 0.  0.
         23    2    4    4    0    0  0.78034973682E+03 -0.28545966051E+02 -0.12725189008E+03  0.79647553304E+03  0.91758635933E+02 0.  0.
          4    1    3    3  502    0 -0.40481065000E+03  0.23130551518E+03 -0.21948571670E+03  0.51531338382E+03  0.00000000000E+00 0. -1.
         -3    1    3    3    0  502 -0.22235551759E+03  0.12017909079E+03 -0.18753170346E+03  0.31472707203E+03  0.00000000000E+00 0.  1.
         11    1    5    5    0    0 -0.64762121715E+02 -0.21337283436E+03 -0.77831579177E+02  0.23617758905E+03  0.00000000000E+00 0.  1.
        -11    1    5    5    0    0 -0.88421447518E+02 -0.10956580555E+03  0.51936601150E+00  0.14079519832E+03  0.00000000000E+00 0. -1.
          2    1    6    6  503    0  0.30772376745E+03 -0.83662455010E+01 -0.50025365533E+01  0.30787811953E+03  0.00000000000E+00 0.  1.
         -2    1    6    6    0  503  0.47262596938E+03 -0.20179720550E+02 -0.12224935352E+03  0.48859741351E+03  0.00000000000E+00 0. -1.
<mgrwt>
<rscale>  0 0.19078615E+04</rscale>
<asrwt>0</asrwt>
<pdfrwt beam="1">  1        2 0.20115925E+00 0.19078615E+04</pdfrwt>
<pdfrwt beam="2">  1       -1 0.10706979E+00 0.19078615E+04</pdfrwt>
<totfact> 0.14202140E+01</totfact>
</mgrwt>
</event>
<event>
12    6  0.1462228E-007  0.1502300E+04  0.7818608E-02  0.8882925E-01
         -1   -1    0    0    0  501 -0.00000000000E+00  0.00000000000E+00  0.40124249638E+03  0.40124249638E+03  0.00000000000E+00 0.  1.
          2   -1    0    0  501    0  0.00000000000E+00 -0.00000000000E+00 -0.14061982903E+04  0.14061982903E+04  0.00000000000E+00 0. -1.
         24    2    1    2    0    0 -0.39792827717E+02  0.32622586478E+03  0.96933574518E+02  0.35125300215E+03  0.77303102533E+02 0.  0.
        254    2    1    2    0    0  0.39792827717E+02 -0.32622586478E+03 -0.11018893684E+04  0.14561877845E+04  0.89348525424E+03 0.  0.
         23    2    4    4    0    0  0.28802025963E+03 -0.53049446673E+03 -0.62064761090E+03  0.87064726750E+03  0.91886660082E+02 0.  0.
         23    2    4    4    0    0 -0.24822743192E+03  0.20426860195E+03 -0.48124175750E+03  0.58554051699E+03  0.89003079633E+02 0.  0.
          4    1    3    3  502    0 -0.35385666942E+02  0.13081959738E+03  0.59316831888E+01  0.13565064449E+03  0.00000000000E+00 0. -1.
         -3    1    3    3    0  502 -0.44071607749E+01  0.19540626740E+03  0.91001891330E+02  0.21560235766E+03  0.00000000000E+00 0.  1.
         11    1    5    5    0    0  0.49357503766E+01 -0.27535528765E+01 -0.26326702482E+02  0.26926547287E+02  0.00000000000E+00 0.  1.
        -11    1    5    5    0    0  0.28308450926E+03 -0.52774091385E+03 -0.59432090842E+03  0.84372072021E+03  0.00000000000E+00 0. -1.
          3    1    6    6  503    0 -0.24102221774E+03  0.21317317282E+03 -0.45939199707E+03  0.56087032194E+03  0.00000000000E+00 0. -1.
         -3    1    6    6    0  503 -0.72052141751E+01 -0.89045708661E+01 -0.21849760425E+02  0.24670195059E+02  0.00000000000E+00 0.  1.
<mgrwt>
<rscale>  0 0.15023003E+04</rscale>
<asrwt>0</asrwt>
<pdfrwt beam="1">  1        2 0.21633819E+00 0.15023003E+04</pdfrwt>
<pdfrwt beam="2">  1       -1 0.61729616E-01 0.15023003E+04</pdfrwt>
<totfact> 0.42059577E+01</totfact>
</mgrwt>
</event>
<event>
12    6  0.1462228E-007  0.1427048E+04  0.7818608E-02  0.8934469E-01
          2   -1    0    0  501    0  0.00000000000E+00  0.00000000000E+00  0.63008560629E+03  0.63008560629E+03  0.00000000000E+00 0. -1.
         -1   -1    0    0    0  501 -0.00000000000E+00 -0.00000000000E+00 -0.80801168644E+03  0.80801168644E+03  0.00000000000E+00 0.  1.
         24    2    1    2    0    0 -0.72200810723E+02  0.33178230152E+03  0.20920124313E+03  0.40641732116E+03  0.78213976621E+02 0.  0.
        254    2    1    2    0    0  0.72200810723E+02 -0.33178230152E+03 -0.38712732328E+03  0.10316799716E+04  0.89398184916E+03 0.  0.
         23    2    4    4    0    0 -0.38180309317E+03 -0.99347804600E+02 -0.35877735953E+02  0.40592396509E+03  0.88563340442E+02 0.  0.
         23    2    4    4    0    0  0.45400390389E+03 -0.23243449692E+03 -0.35124958733E+03  0.62575600648E+03  0.89716035002E+02 0.  0.
          2    1    3    3  502    0 -0.57180495887E+02  0.18458976016E+03  0.15876982869E+03  0.25010167366E+03  0.00000000000E+00 0. -1.
         -1    1    3    3    0  502 -0.15020314835E+02  0.14719254136E+03  0.50431414440E+02  0.15631564750E+03  0.00000000000E+00 0.  1.
         11    1    5    5    0    0 -0.30644642467E+03 -0.43712288559E+02 -0.14738927085E+02  0.30989903410E+03  0.00000000000E+00 0. -1.
        -11    1    5    5    0    0 -0.75356668493E+02 -0.55635516041E+02 -0.21138808867E+02  0.96024930991E+02  0.00000000000E+00 0.  1.
          1    1    6    6  503    0  0.32781474699E+03 -0.13157887754E+03 -0.20850084596E+03  0.41018058477E+03  0.00000000000E+00 0. -1.
         -1    1    6    6    0  503  0.12618915690E+03 -0.10085561939E+03 -0.14274874137E+03  0.21557542170E+03  0.00000000000E+00 0.  1.
<mgrwt>
<rscale>  0 0.14270480E+04</rscale>
<asrwt>0</asrwt>
<pdfrwt beam="1">  1        2 0.96936247E-01 0.14270480E+04</pdfrwt>
<pdfrwt beam="2">  1       -1 0.12430949E+00 0.14270480E+04</pdfrwt>
<totfact> 0.29433046E+01</totfact>
</mgrwt>
</event>
<event>
12    6  0.1462228E-007  0.3209969E+04  0.7818608E-02  0.8186189E-01
          2   -1    0    0  501    0  0.00000000000E+00  0.00000000000E+00  0.32197569147E+04  0.32197569147E+04  0.00000000000E+00 0. -1.
         -1   -1    0    0    0  501 -0.00000000000E+00 -0.00000000000E+00 -0.80005277874E+03  0.80005277874E+03  0.00000000000E+00 0.  1.
         24    2    1    2    0    0  0.35080066235E+03  0.42158663464E+03 -0.60289421086E+03  0.81869227747E+03  0.77325419434E+02 0.  0.
        254    2    1    2    0    0 -0.35080066235E+03 -0.42158663464E+03  0.30225983469E+04  0.32011174160E+04  0.90014196067E+03 0.  0.
         23    2    4    4    0    0 -0.10222337900E+03 -0.66672573567E+03  0.22000959685E+04  0.23029157792E+04  0.89587889277E+02 0.  0.
         23    2    4    4    0    0 -0.24857728335E+03  0.24513910103E+03  0.82250237839E+03  0.89820163678E+03  0.91499580328E+02 0.  0.
          2    1    3    3  502    0  0.13451856661E+03  0.18488950007E+03 -0.30369787815E+03  0.38014704155E+03  0.00000000000E+00 0. -1.
         -1    1    3    3    0  502  0.21628209574E+03  0.23669713457E+03 -0.29919633271E+03  0.43854523593E+03  0.00000000000E+00 0.  1.
         11    1    5    5    0    0 -0.64865453015E+02 -0.46759424784E+03  0.16693130131E+04  0.17347789033E+04  0.00000000000E+00 0.  1.
        -11    1    5    5    0    0 -0.37357925988E+02 -0.19913148783E+03  0.53078295531E+03  0.56813687588E+03  0.00000000000E+00 0. -1.
          1    1    6    6  503    0 -0.39298436047E+02  0.53538505864E+01  0.59792064020E+02  0.71750412623E+02  0.00000000000E+00 0. -1.
         -1    1    6    6    0  503 -0.20927884730E+03  0.23978525044E+03  0.76271031437E+03  0.82645122415E+03  0.00000000000E+00 0.  1.
<mgrwt>
<rscale>  0 0.32099691E+04</rscale>
<asrwt>0</asrwt>
<pdfrwt beam="1">  1        2 0.49534721E+00 0.32099691E+04</pdfrwt>
<pdfrwt beam="2">  1       -1 0.12308504E+00 0.32099691E+04</pdfrwt>
<totfact> 0.69875171E-01</totfact>
</mgrwt>
</event>
<event>
12    6  0.1462228E-007  0.3056808E+04  0.7818608E-02  0.8227692E-01
         -1   -1    0    0    0  501 -0.00000000000E+00  0.00000000000E+00  0.12863497442E+04  0.12863497442E+04  0.00000000000E+00 0.  1.
          2   -1    0    0  501    0  0.00000000000E+00 -0.00000000000E+00 -0.18160063063E+04  0.18160063063E+04  0.00000000000E+00 0. -1.
         24    2    1    2    0    0  0.25344525616E+03  0.12846227459E+03  0.11448009893E+04  0.11822031888E+04  0.79360068658E+02 0.  0.
        254    2    1    2    0    0 -0.25344525616E+03 -0.12846227459E+03 -0.16744575514E+04  0.19201528617E+04  0.89579119606E+03 0.  0.
         23    2    4    4    0    0 -0.29134836453E+03 -0.41731992896E+03 -0.54772716855E+03  0.75262392532E+03  0.86011215370E+02 0.  0.
         23    2    4    4    0    0  0.37903108375E+02  0.28885765438E+03 -0.11267303829E+04  0.11675289364E+04  0.93418796265E+02 0.  0.
          4    1    3    3  502    0  0.12606151088E+03  0.68909935022E+02  0.42011678662E+03  0.44400247530E+03  0.00000000000E+00 0. -1.
         -3    1    3    3    0  502  0.12738374527E+03  0.59552339564E+02  0.72468420270E+03  0.73820071345E+03  0.00000000000E+00 0.  1.
         11    1    5    5    0    0 -0.28068156667E+03 -0.36749257197E+03 -0.51461746148E+03  0.69185552248E+03  0.00000000000E+00 0. -1.
        -11    1    5    5    0    0 -0.10666797860E+02 -0.49827356999E+02 -0.33109707074E+02  0.60768402847E+02  0.00000000000E+00 0.  1.
          1    1    6    6  503    0  0.60969705520E+02  0.23563401788E+03 -0.97940470830E+03  0.10091948662E+04  0.00000000000E+00 0. -1.
         -1    1    6    6    0  503 -0.23066597145E+02  0.53223636501E+02 -0.14732567457E+03  0.15833407016E+03  0.00000000000E+00 0.  1.
<mgrwt>
<rscale>  0 0.30568083E+04</rscale>
<asrwt>0</asrwt>
<pdfrwt beam="1">  1        2 0.27938558E+00 0.30568083E+04</pdfrwt>
<pdfrwt beam="2">  1       -1 0.19789996E+00 0.30568083E+04</pdfrwt>
<totfact> 0.12756289E+00</totfact>
</mgrwt>
</event>
<event>
12    6  0.1462228E-007  0.2362126E+04  0.7818608E-02  0.8453821E-01
          2   -1    0    0  501    0  0.00000000000E+00  0.00000000000E+00  0.33178775478E+04  0.33178775478E+04  0.00000000000E+00 0. -1.
         -1   -1    0    0    0  501 -0.00000000000E+00 -0.00000000000E+00 -0.42042221227E+03  0.42042221227E+03  0.00000000000E+00 0.  1.
         24    2    1    2    0    0  0.44645274627E+03 -0.44451588048E+03  0.24315663960E+04  0.25131284331E+04  0.79905947536E+02 0.  0.
        254    2    1    2    0    0 -0.44645274627E+03  0.44451588048E+03  0.46588893953E+03  0.12251713270E+04  0.94184810547E+03 0.  0.
         23    2    4    4    0    0 -0.38941609767E+03  0.43300241577E+03  0.72879804888E+03  0.93850825142E+03  0.10254341887E+03 0.  0.
         23    2    4    4    0    0 -0.57036648598E+02  0.11513464710E+02 -0.26290910934E+03  0.28666307554E+03  0.98329954491E+02 0.  0.
          2    1    3    3  502    0  0.35094294990E+03 -0.36594602781E+03  0.20617943482E+04  0.21232224056E+04  0.00000000000E+00 0. -1.
         -1    1    3    3    0  502  0.95509796371E+02 -0.78569852670E+02  0.36977204785E+03  0.38990602755E+03  0.00000000000E+00 0.  1.
         11    1    5    5    0    0 -0.13352222198E+03  0.18871915632E+03  0.35681697602E+03  0.42516050863E+03  0.00000000000E+00 0. -1.
        -11    1    5    5    0    0 -0.25589387570E+03  0.24428325946E+03  0.37198107286E+03  0.51334774280E+03  0.00000000000E+00 0.  1.
          4    1    6    6  503    0  0.17087187743E+02 -0.20887406969E+02 -0.31270514065E+02  0.41304973124E+02  0.00000000000E+00 0.  1.
         -4    1    6    6    0  503 -0.74123836341E+02  0.32400871679E+02 -0.23163859528E+03  0.24535810242E+03  0.00000000000E+00 0. -1.
<mgrwt>
<rscale>  0 0.23621257E+04</rscale>
<asrwt>0</asrwt>
<pdfrwt beam="1">  1        2 0.51044268E+00 0.23621257E+04</pdfrwt>
<pdfrwt beam="2">  1       -1 0.64680343E-01 0.23621257E+04</pdfrwt>
<totfact> 0.26988474E+00</totfact>
</mgrwt>
</event>
<event>
12    6  0.1462228E-007  0.1506829E+04  0.7818608E-02  0.8879924E-01
         -1   -1    0    0    0  501 -0.00000000000E+00  0.00000000000E+00  0.66192568762E+03  0.66192568762E+03  0.00000000000E+00 0.  1.
          2   -1    0    0  501    0  0.00000000000E+00 -0.00000000000E+00 -0.85754891938E+03  0.85754891938E+03  0.00000000000E+00 0. -1.
         24    2    1    2    0    0 -0.55934995676E+02  0.42049145946E+03  0.16134539954E+03  0.46029990849E+03  0.76823672030E+02 0.  0.
        254    2    1    2    0    0  0.55934995676E+02 -0.42049145946E+03 -0.35696863130E+03  0.10591746985E+04  0.90248692346E+03 0.  0.
         23    2    4    4    0    0 -0.33950419795E+03 -0.12666182124E+03  0.93342722740E+02  0.38577942187E+03  0.93843385855E+02 0.  0.
         23    2    4    4    0    0  0.39543919362E+03 -0.29382963822E+03 -0.45031135404E+03  0.67339527664E+03  0.89290933869E+02 0.  0.
          4    1    3    3  502    0  0.16650526318E+02  0.14568073955E+03  0.62084454580E+02  0.15923127018E+03  0.00000000000E+00 0. -1.
         -3    1    3    3    0  502 -0.72585521993E+02  0.27481071991E+03  0.99260944961E+02  0.30106863831E+03  0.00000000000E+00 0.  1.
         11    1    5    5    0    0 -0.30303872021E+03 -0.14043955916E+03  0.93343798822E+02  0.34679792460E+03  0.00000000000E+00 0. -1.
        -11    1    5    5    0    0 -0.36465477735E+02  0.13777737925E+02 -0.10760820127E-02  0.38981497276E+02  0.00000000000E+00 0.  1.
          1    1    6    6  503    0  0.29676976491E+03 -0.17197729168E+03 -0.29012292634E+03  0.44924358048E+03  0.00000000000E+00 0. -1.
         -1    1    6    6    0  503  0.98669428715E+02 -0.12185234654E+03 -0.16018842770E+03  0.22415169615E+03  0.00000000000E+00 0.  1.
<mgrwt>
<rscale>  0 0.15068293E+04</rscale>
<asrwt>0</asrwt>
<pdfrwt beam="1">  1        2 0.13193060E+00 0.15068293E+04</pdfrwt>
<pdfrwt beam="2">  1       -1 0.10183472E+00 0.15068293E+04</pdfrwt>
<totfact> 0.31604216E+01</totfact>
</mgrwt>
</event>
<event>
12    6  0.1462228E-007  0.1175366E+04  0.7818608E-02  0.9134696E-01
         -1   -1    0    0    0  501 -0.00000000000E+00  0.00000000000E+00  0.95913791042E+02  0.95913791042E+02  0.00000000000E+00 0.  1.
          2   -1    0    0  501    0  0.00000000000E+00 -0.00000000000E+00 -0.36008511417E+04  0.36008511417E+04  0.00000000000E+00 0. -1.
         24    2    1    2    0    0  0.13626329675E+03  0.14548987946E+03 -0.11486769204E+04  0.11686377067E+04  0.80749186732E+02 0.  0.
        254    2    1    2    0    0 -0.13626329675E+03 -0.14548987946E+03 -0.23562604303E+04  0.25281272260E+04  0.89427572059E+03 0.  0.
         23    2    4    4    0    0 -0.28943148892E+03  0.30591412878E+03 -0.11035234143E+04  0.11845890765E+04  0.90184883676E+02 0.  0.
         23    2    4    4    0    0  0.15316819217E+03 -0.45140400824E+03 -0.12527370160E+04  0.13435381496E+04  0.92296555980E+02 0.  0.
          2    1    3    3  502    0  0.73937140188E+02  0.89497939567E+02 -0.86782186318E+03  0.87555203620E+03  0.00000000000E+00 0. -1.
         -1    1    3    3    0  502  0.62326156562E+02  0.55991939896E+02 -0.28085505717E+03  0.29308567052E+03  0.00000000000E+00 0.  1.
         11    1    5    5    0    0 -0.10454001975E+02 -0.54043841311E+01 -0.44962840185E+02  0.46477419492E+02  0.00000000000E+00 0. -1.
        -11    1    5    5    0    0 -0.27897748695E+03  0.31131851291E+03 -0.10585605741E+04  0.11381116570E+04  0.00000000000E+00 0.  1.
          4    1    6    6  503    0  0.71050211748E+02 -0.10819376831E+03 -0.40835900197E+03  0.42838195408E+03  0.00000000000E+00 0. -1.
         -4    1    6    6    0  503  0.82117980425E+02 -0.34321023993E+03 -0.84437801406E+03  0.91515619548E+03  0.00000000000E+00 0.  1.
<mgrwt>
<rscale>  0 0.11753660E+04</rscale>
<asrwt>0</asrwt>
<pdfrwt beam="1">  1        2 0.55397716E+00 0.11753660E+04</pdfrwt>
<pdfrwt beam="2">  1       -1 0.14755966E-01 0.11753660E+04</pdfrwt>
<totfact> 0.27021196E+01</totfact>
</mgrwt>
</event>
<event>
12    6  0.1462228E-007  0.2038126E+04  0.7818608E-02  0.8589000E-01
         -1   -1    0    0    0  501 -0.00000000000E+00  0.00000000000E+00  0.10083133289E+04  0.10083133289E+04  0.00000000000E+00 0.  1.
          2   -1    0    0  501    0  0.00000000000E+00 -0.00000000000E+00 -0.10299270577E+04  0.10299270577E+04  0.00000000000E+00 0. -1.
         24    2    1    2    0    0 -0.79611547254E+03 -0.18446406716E+03  0.68419110059E+02  0.82404144073E+03  0.80847286483E+02 0.  0.
        254    2    1    2    0    0  0.79611547254E+03  0.18446406716E+03 -0.90032838920E+02  0.12141989459E+04  0.89350228340E+03 0.  0.
         23    2    4    4    0    0 -0.11067593914E+03 -0.19021540881E+02  0.18992962914E+03  0.23904482099E+03  0.91968363538E+02 0.  0.
         23    2    4    4    0    0  0.90679141168E+03  0.20348560804E+03 -0.27996246806E+03  0.97515412491E+03  0.94178165331E+02 0.  0.
          4    1    3    3  502    0 -0.71420372867E+03 -0.18805854393E+03  0.51635908333E+02  0.74035076081E+03  0.00000000000E+00 0. -1.
         -3    1    3    3    0  502 -0.81911743864E+02  0.35944767673E+01  0.16783201726E+02  0.83690679924E+02  0.00000000000E+00 0.  1.
         11    1    5    5    0    0 -0.47782390345E+02  0.36397269749E+02  0.64052520881E+02  0.87810269921E+02  0.00000000000E+00 0.  1.
        -11    1    5    5    0    0 -0.62893548796E+02 -0.55418810630E+02  0.12587710826E+03  0.15123455107E+03  0.00000000000E+00 0. -1.
          2    1    6    6  503    0  0.49835141091E+03  0.13175102378E+03 -0.11056065329E+03  0.52719647104E+03  0.00000000000E+00 0. -1.
         -2    1    6    6    0  503  0.40844000077E+03  0.71734584259E+02 -0.16940181478E+03  0.44795765386E+03  0.00000000000E+00 0.  1.
<mgrwt>
<rscale>  0 0.20381258E+04</rscale>
<asrwt>0</asrwt>
<pdfrwt beam="1">  1        2 0.15845032E+00 0.20381258E+04</pdfrwt>
<pdfrwt beam="2">  1       -1 0.15512513E+00 0.20381258E+04</pdfrwt>
<totfact> 0.81081101E+00</totfact>
</mgrwt>
</event>
<event>
12    6  0.1462228E-007  0.1777319E+04  0.7818608E-02  0.8718455E-01
         -1   -1    0    0    0  501 -0.00000000000E+00  0.00000000000E+00  0.13438897926E+04  0.13438897926E+04  0.00000000000E+00 0.  1.
          2   -1    0    0  501    0  0.00000000000E+00 -0.00000000000E+00 -0.58763425810E+03  0.58763425810E+03  0.00000000000E+00 0. -1.
         24    2    1    2    0    0 -0.15677975043E+03  0.62360916408E+03  0.82163046308E+02  0.65370626239E+03  0.84337605096E+02 0.  0.
        254    2    1    2    0    0  0.15677975043E+03 -0.62360916408E+03  0.67409248821E+03  0.12778177883E+04  0.87461382213E+03 0.  0.
         23    2    4    4    0    0  0.28392955768E+03 -0.58667746549E+02 -0.88675180392E+02  0.31620411431E+03  0.89798975913E+02 0.  0.
         23    2    4    4    0    0 -0.12714980726E+03 -0.56494141754E+03  0.76276766861E+03  0.96161367404E+03  0.86950923476E+02 0.  0.
          4    1    3    3  502    0 -0.14605241263E+03  0.56208488604E+03  0.98756228861E+02  0.58908702166E+03  0.00000000000E+00 0. -1.
         -3    1    3    3    0  502 -0.10727337800E+02  0.61524278040E+02 -0.16593182553E+02  0.64619240724E+02  0.00000000000E+00 0.  1.
         11    1    5    5    0    0  0.25529281857E+02  0.15099620978E+02 -0.27842572442E+02  0.40681096667E+02  0.00000000000E+00 0. -1.
        -11    1    5    5    0    0  0.25840027583E+03 -0.73767367527E+02 -0.60832607949E+02  0.27552301764E+03  0.00000000000E+00 0.  1.
          3    1    6    6  503    0 -0.62159609684E+02 -0.38865784832E+03  0.46134755195E+03  0.60643243962E+03  0.00000000000E+00 0. -1.
         -3    1    6    6    0  503 -0.64990197574E+02 -0.17628356922E+03  0.30142011665E+03  0.35518123442E+03  0.00000000000E+00 0.  1.
<mgrwt>
<rscale>  0 0.17773190E+04</rscale>
<asrwt>0</asrwt>
<pdfrwt beam="1">  1        2 0.90405270E-01 0.17773190E+04</pdfrwt>
<pdfrwt beam="2">  1       -1 0.20675228E+00 0.17773190E+04</pdfrwt>
<totfact> 0.74319452E+00</totfact>
</mgrwt>
</event>
<event>
12    6  0.1462228E-007  0.2969693E+04  0.7818608E-02  0.8252439E-01
         -3   -1    0    0    0  501 -0.00000000000E+00  0.00000000000E+00  0.61620121766E+03  0.61620121766E+03  0.00000000000E+00 0.  1.
          2   -1    0    0  501    0  0.00000000000E+00 -0.00000000000E+00 -0.35780010336E+04  0.35780010336E+04  0.00000000000E+00 0. -1.
         24    2    1    2    0    0  0.12219066722E+03 -0.58390721724E+03  0.37172244015E+03  0.70752570999E+03  0.80850852109E+02 0.  0.
        254    2    1    2    0    0 -0.12219066722E+03  0.58390721724E+03 -0.33335222561E+04  0.34866765413E+04  0.82985810482E+03 0.  0.
         23    2    4    4    0    0  0.17572998612E+03  0.29657481068E+03 -0.45757491944E+03  0.57967885414E+03  0.88403171250E+02 0.  0.
         23    2    4    4    0    0 -0.29792065334E+03  0.28733240657E+03 -0.28759473367E+04  0.29069976872E+04  0.90806620242E+02 0.  0.
          4    1    3    3  502    0  0.68556996439E+02 -0.16450472907E+03  0.92099478165E+02  0.20060952501E+03  0.00000000000E+00 0. -1.
         -3    1    3    3    0  502  0.53633670778E+02 -0.41940248817E+03  0.27962296199E+03  0.50691618498E+03  0.00000000000E+00 0.  1.
         11    1    5    5    0    0 -0.70231139678E+01  0.36221385373E+02 -0.35877684562E+02  0.51463784720E+02  0.00000000000E+00 0. -1.
        -11    1    5    5    0    0  0.18275310009E+03  0.26035342530E+03 -0.42169723488E+03  0.52821506942E+03  0.00000000000E+00 0.  1.
          2    1    6    6  503    0 -0.19804024591E+03  0.22597786113E+03 -0.18302600878E+04  0.18547608799E+04  0.00000000000E+00 0.  1.
         -2    1    6    6    0  503 -0.99880407426E+02  0.61354545441E+02 -0.10456872489E+04  0.10522368072E+04  0.00000000000E+00 0. -1.
<mgrwt>
<rscale>  0 0.29696926E+04</rscale>
<asrwt>0</asrwt>
<pdfrwt beam="1">  1        2 0.55046170E+00 0.29696926E+04</pdfrwt>
<pdfrwt beam="2">  1       -3 0.94800187E-01 0.29696926E+04</pdfrwt>
<totfact> 0.38961511E-01</totfact>
</mgrwt>
</event>
<event>
12    6  0.1462228E-007  0.1741242E+04  0.7818608E-02  0.8738186E-01
         -1   -1    0    0    0  501 -0.00000000000E+00  0.00000000000E+00  0.36181054022E+03  0.36181054022E+03  0.00000000000E+00 0.  1.
          2   -1    0    0  501    0  0.00000000000E+00 -0.00000000000E+00 -0.20949652223E+04  0.20949652223E+04  0.00000000000E+00 0. -1.
         24    2    1    2    0    0 -0.22810744283E+03 -0.56434113603E+03 -0.35917651978E+03  0.71138645970E+03  0.80925888291E+02 0.  0.
        254    2    1    2    0    0  0.22810744283E+03  0.56434113603E+03 -0.13739781623E+04  0.17453893028E+04  0.88772400254E+03 0.  0.
         23    2    4    4    0    0 -0.11324500901E+03  0.77288437604E+01 -0.95249070346E+03  0.96342620879E+03  0.89818441924E+02 0.  0.
         23    2    4    4    0    0  0.34135245184E+03  0.55661229227E+03 -0.42148745885E+03  0.78196309405E+03  0.86463068507E+02 0.  0.
          2    1    3    3  502    0  0.59744655397E+01 -0.26020730754E+02 -0.20683459703E+02  0.33772446946E+02  0.00000000000E+00 0. -1.
         -1    1    3    3    0  502 -0.23408190837E+03 -0.53832040527E+03 -0.33849306008E+03  0.67761401275E+03  0.00000000000E+00 0.  1.
         11    1    5    5    0    0 -0.12815134239E+03  0.12553377501E+02 -0.82775789728E+03  0.83771325067E+03  0.00000000000E+00 0.  1.
        -11    1    5    5    0    0  0.14906333378E+02 -0.48245337409E+01 -0.12473280618E+03  0.12571295812E+03  0.00000000000E+00 0. -1.
          3    1    6    6  503    0  0.11753883897E+03  0.12224044295E+03 -0.96486732704E+02  0.19510969773E+03  0.00000000000E+00 0. -1.
         -3    1    6    6    0  503  0.22381361286E+03  0.43437184932E+03 -0.32500072615E+03  0.58685339633E+03  0.00000000000E+00 0.  1.
<mgrwt>
<rscale>  0 0.17412415E+04</rscale>
<asrwt>0</asrwt>
<pdfrwt beam="1">  1        2 0.32230234E+00 0.17412415E+04</pdfrwt>
<pdfrwt beam="2">  1       -1 0.55663160E-01 0.17412415E+04</pdfrwt>
<totfact> 0.20855780E+01</totfact>
</mgrwt>
</event>
<event>
12    6  0.1462228E-007  0.2276594E+04  0.7818608E-02  0.8487207E-01
          2   -1    0    0  501    0  0.00000000000E+00  0.00000000000E+00  0.22179896592E+04  0.22179896592E+04  0.00000000000E+00 0. -1.
         -1   -1    0    0    0  501 -0.00000000000E+00 -0.00000000000E+00 -0.58418665626E+03  0.58418665626E+03  0.00000000000E+00 0.  1.
         24    2    1    2    0    0  0.28170698753E+02  0.48518359780E+03 -0.32500501139E+03  0.59037613816E+03  0.81969599435E+02 0.  0.
        254    2    1    2    0    0 -0.28170698753E+02 -0.48518359780E+03  0.19588080143E+04  0.22118001773E+04  0.90494998508E+03 0.  0.
         23    2    4    4    0    0  0.15075639413E+03  0.13568176531E+03  0.11563748017E+04  0.11773864068E+04  0.88876527358E+02 0.  0.
         23    2    4    4    0    0 -0.17892709288E+03 -0.62086536311E+03  0.80243321257E+03  0.10344137704E+04  0.92865947360E+02 0.  0.
          4    1    3    3  502    0 -0.17123210186E+02  0.25191992355E+02 -0.16269366395E+02  0.34533072392E+02  0.00000000000E+00 0. -1.
         -3    1    3    3    0  502  0.45293908939E+02  0.45999160544E+03 -0.30873564500E+03  0.55584306576E+03  0.00000000000E+00 0.  1.
         11    1    5    5    0    0  0.10820487653E+03  0.75447053050E+02  0.92982136627E+03  0.93913168740E+03  0.00000000000E+00 0. -1.
        -11    1    5    5    0    0  0.42551517604E+02  0.60234712258E+02  0.22655343545E+03  0.23825471942E+03  0.00000000000E+00 0.  1.
          4    1    6    6  503    0 -0.18659776684E+03 -0.56050510561E+03  0.70818708872E+03  0.92223297091E+03  0.00000000000E+00 0. -1.
         -4    1    6    6    0  503  0.76706739523E+01 -0.60360257502E+02  0.94246123848E+02  0.11218079954E+03  0.00000000000E+00 0.  1.
<mgrwt>
<rscale>  0 0.22765939E+04</rscale>
<asrwt>0</asrwt>
<pdfrwt beam="1">  1        2 0.34122917E+00 0.22765939E+04</pdfrwt>
<pdfrwt beam="2">  1       -1 0.89874871E-01 0.22765939E+04</pdfrwt>
<totfact> 0.63173960E+00</totfact>
</mgrwt>
</event>
<event>
12    6  0.1462228E-007  0.1639045E+04  0.7818608E-02  0.8796914E-01
         -1   -1    0    0    0  501 -0.00000000000E+00  0.00000000000E+00  0.49784970269E+03  0.49784970269E+03  0.00000000000E+00 0.  1.
          2   -1    0    0  501    0  0.00000000000E+00 -0.00000000000E+00 -0.13490360542E+04  0.13490360542E+04  0.00000000000E+00 0. -1.
         24    2    1    2    0    0 -0.12205534735E+03  0.41946962785E+03  0.13053235357E+03  0.46293440493E+03  0.80107998566E+02 0.  0.
        254    2    1    2    0    0  0.12205534735E+03 -0.41946962785E+03 -0.98171870503E+03  0.13839513519E+04  0.87217971321E+03 0.  0.
         23    2    4    4    0    0 -0.30133886547E+03  0.45992107932E+02 -0.47085130475E+03  0.56835499953E+03  0.91684614157E+02 0.  0.
         23    2    4    4    0    0  0.42339421281E+03 -0.46546173579E+03 -0.51086740029E+03  0.81559635238E+03  0.91074817718E+02 0.  0.
          4    1    3    3  502    0 -0.56277806610E+02  0.14567499707E+03  0.95504573680E+01  0.15645960349E+03  0.00000000000E+00 0. -1.
         -3    1    3    3    0  502 -0.65777540738E+02  0.27379463079E+03  0.12098189620E+03  0.30647480144E+03  0.00000000000E+00 0.  1.
         11    1    5    5    0    0 -0.10210259617E+03 -0.27043511854E+02 -0.14181512316E+03  0.17682709305E+03  0.00000000000E+00 0. -1.
        -11    1    5    5    0    0 -0.19923626930E+03  0.73035619786E+02 -0.32903618158E+03  0.39152790648E+03  0.00000000000E+00 0.  1.
          1    1    6    6  503    0  0.17565333431E+03 -0.17101359131E+03 -0.25354065074E+03  0.35267917977E+03  0.00000000000E+00 0. -1.
         -1    1    6    6    0  503  0.24774087850E+03 -0.29444814448E+03 -0.25732674955E+03  0.46291717261E+03  0.00000000000E+00 0.  1.
<mgrwt>
<rscale>  0 0.16390451E+04</rscale>
<asrwt>0</asrwt>
<pdfrwt beam="1">  1        2 0.20754401E+00 0.16390451E+04</pdfrwt>
<pdfrwt beam="2">  1       -1 0.76592263E-01 0.16390451E+04</pdfrwt>
<totfact> 0.28863636E+01</totfact>
</mgrwt>
</event>
<event>
12    6  0.1462228E-007  0.2653630E+04  0.7818608E-02  0.8350209E-01
         -1   -1    0    0    0  501 -0.00000000000E+00  0.00000000000E+00  0.72439497324E+03  0.72439497324E+03  0.00000000000E+00 0.  1.
          2   -1    0    0  501    0  0.00000000000E+00 -0.00000000000E+00 -0.24302180244E+04  0.24302180244E+04  0.00000000000E+00 0. -1.
         24    2    1    2    0    0  0.10309492854E+04 -0.54410724225E+03 -0.90739470731E+03  0.14794363584E+04  0.80359590125E+02 0.  0.
        254    2    1    2    0    0 -0.10309492854E+04  0.54410724225E+03 -0.79842834386E+03  0.16751766392E+04  0.89989990129E+03 0.  0.
         23    2    4    4    0    0 -0.99722416919E+03  0.39267620674E+03 -0.26068697600E+03  0.11068747850E+04  0.92538874407E+02 0.  0.
         23    2    4    4    0    0 -0.33725116162E+02  0.15143103550E+03 -0.53774136786E+03  0.56830185423E+03  0.98653316387E+02 0.  0.
          4    1    3    3  502    0  0.10298369056E+04 -0.54198291251E+03 -0.90888635953E+03  0.14766123202E+04  0.00000000000E+00 0. -1.
         -3    1    3    3    0  502  0.11123797313E+01 -0.21243297330E+01  0.14916522231E+01  0.28240382143E+01  0.00000000000E+00 0.  1.
         11    1    5    5    0    0 -0.50848287789E+03  0.15309714748E+03 -0.11355570067E+03  0.54303634393E+03  0.00000000000E+00 0. -1.
        -11    1    5    5    0    0 -0.48874129130E+03  0.23957905927E+03 -0.14713127533E+03  0.56383844108E+03  0.00000000000E+00 0.  1.
          3    1    6    6  503    0 -0.64270379282E+01  0.21511443115E+02 -0.25454103904E+03  0.25552923425E+03  0.00000000000E+00 0. -1.
         -3    1    6    6    0  503 -0.27298078234E+02  0.12991959239E+03 -0.28320032882E+03  0.31277261997E+03  0.00000000000E+00 0.  1.
<mgrwt>
<rscale>  0 0.26536298E+04</rscale>
<asrwt>0</asrwt>
<pdfrwt beam="1">  1        2 0.37387969E+00 0.26536298E+04</pdfrwt>
<pdfrwt beam="2">  1       -1 0.11144538E+00 0.26536298E+04</pdfrwt>
<totfact> 0.28296100E+00</totfact>
</mgrwt>
</event>
<event>
12    6  0.1462228E-007  0.3681692E+04  0.7818608E-02  0.8072031E-01
          2   -1    0    0  501    0  0.00000000000E+00  0.00000000000E+00  0.24028541884E+04  0.24028541884E+04  0.00000000000E+00 0. -1.
         -1   -1    0    0    0  501 -0.00000000000E+00 -0.00000000000E+00 -0.14102868048E+04  0.14102868048E+04  0.00000000000E+00 0.  1.
         24    2    1    2    0    0  0.72151118744E+02  0.49445879232E+03 -0.12483591543E+04  0.13470946362E+04  0.81043812326E+02 0.  0.
        254    2    1    2    0    0 -0.72151118744E+02 -0.49445879232E+03  0.22409265378E+04  0.24660463571E+04  0.89996533600E+03 0.  0.
         23    2    4    4    0    0 -0.43015688606E+03 -0.39344281439E+03  0.94345052882E+03  0.11131085808E+04  0.95287026794E+02 0.  0.
         23    2    4    4    0    0  0.35800576731E+03 -0.10101597793E+03  0.12974760090E+04  0.13529377763E+04  0.92866976348E+02 0.  0.
          4    1    3    3  502    0  0.65464569527E+02  0.38494931719E+03 -0.10525199343E+04  0.11226173875E+04  0.00000000000E+00 0. -1.
         -3    1    3    3    0  502  0.66865492170E+01  0.10950947513E+03 -0.19583921998E+03  0.22447724866E+03  0.00000000000E+00 0.  1.
         11    1    5    5    0    0 -0.10922972908E+03 -0.13017248002E+03  0.34774553846E+03  0.38704388354E+03  0.00000000000E+00 0.  1.
        -11    1    5    5    0    0 -0.32092715698E+03 -0.26327033436E+03  0.59570499036E+03  0.72606469725E+03  0.00000000000E+00 0. -1.
          2    1    6    6  503    0  0.26964467300E+03 -0.59516700187E+02  0.80975467490E+03  0.85554258854E+03  0.00000000000E+00 0. -1.
         -2    1    6    6    0  503  0.88361094313E+02 -0.41499277744E+02  0.48772133410E+03  0.49739518774E+03  0.00000000000E+00 0.  1.
<mgrwt>
<rscale>  0 0.36816918E+04</rscale>
<asrwt>0</asrwt>
<pdfrwt beam="1">  1        2 0.36966987E+00 0.36816918E+04</pdfrwt>
<pdfrwt beam="2">  1       -1 0.21696720E+00 0.36816918E+04</pdfrwt>
<totfact> 0.42035378E-01</totfact>
</mgrwt>
</event>
<event>
12    6  0.1462228E-007  0.1560985E+04  0.7818608E-02  0.8844881E-01
          2   -1    0    0  501    0  0.00000000000E+00  0.00000000000E+00  0.84447313552E+03  0.84447313552E+03  0.00000000000E+00 0. -1.
         -1   -1    0    0    0  501 -0.00000000000E+00 -0.00000000000E+00 -0.72135933720E+03  0.72135933720E+03  0.00000000000E+00 0.  1.
         24    2    1    2    0    0  0.16582921843E+02  0.46475483305E+03  0.27431357911E+03  0.54536631828E+03  0.76840310324E+02 0.  0.
        254    2    1    2    0    0 -0.16582921843E+02 -0.46475483305E+03 -0.15119978079E+03  0.10204661544E+04  0.89566609320E+03 0.  0.
         23    2    4    4    0    0  0.47574056299E+02 -0.17519744746E+03 -0.50853471268E+03  0.54797769696E+03  0.93351839463E+02 0.  0.
         23    2    4    4    0    0 -0.64156978142E+02 -0.28955738560E+03  0.35733493190E+03  0.47248845749E+03  0.87163590497E+02 0.  0.
          2    1    3    3  502    0  0.12653534013E+02  0.46582058860E+03  0.27521663150E+03  0.54119601527E+03  0.00000000000E+00 0. -1.
         -1    1    3    3    0  502  0.39293878302E+01 -0.10657555470E+01 -0.90305239365E+00  0.41703030143E+01  0.00000000000E+00 0.  1.
         11    1    5    5    0    0  0.68192375470E+02 -0.94322264662E+02 -0.23931596918E+03  0.26611843752E+03  0.00000000000E+00 0. -1.
        -11    1    5    5    0    0 -0.20618319172E+02 -0.80875182796E+02 -0.26921874350E+03  0.28185925944E+03  0.00000000000E+00 0.  1.
          4    1    6    6  503    0 -0.66600737395E+02 -0.28270467460E+03  0.36179567494E+03  0.46395441766E+03  0.00000000000E+00 0. -1.
         -4    1    6    6    0  503  0.24437592531E+01 -0.68527109967E+01 -0.44607430424E+01  0.85340398278E+01  0.00000000000E+00 0.  1.
<mgrwt>
<rscale>  0 0.15609850E+04</rscale>
<asrwt>0</asrwt>
<pdfrwt beam="1">  1        2 0.12991894E+00 0.15609850E+04</pdfrwt>
<pdfrwt beam="2">  1       -1 0.11097836E+00 0.15609850E+04</pdfrwt>
<totfact> 0.26281266E+01</totfact>
</mgrwt>
</event>
<event>
12    6  0.1462228E-007  0.3205738E+04  0.7818608E-02  0.8187304E-01
         -1   -1    0    0    0  501 -0.00000000000E+00  0.00000000000E+00  0.10176776545E+04  0.10176776545E+04  0.00000000000E+00 0.  1.
          2   -1    0    0  501    0  0.00000000000E+00 -0.00000000000E+00 -0.25245600066E+04  0.25245600066E+04  0.00000000000E+00 0. -1.
         24    2    1    2    0    0 -0.69774911238E+03 -0.11635437436E+04  0.28939068051E+02  0.13594157281E+04  0.80534371271E+02 0.  0.
        254    2    1    2    0    0  0.69774911238E+03  0.11635437436E+04 -0.15358214201E+04  0.21828219331E+04  0.75184858186E+03 0.  0.
         23    2    4    4    0    0  0.12036557797E+03  0.54527625155E+03 -0.20156737189E+03  0.60039750348E+03  0.89630875882E+02 0.  0.
         23    2    4    4    0    0  0.57738353441E+03  0.61826749204E+03 -0.13342540482E+04  0.15824244296E+04  0.90591239755E+02 0.  0.
          4    1    3    3  502    0 -0.10386182650E+03 -0.19638080985E+03 -0.22580523449E+02  0.22329930927E+03  0.00000000000E+00 0. -1.
         -3    1    3    3    0  502 -0.59388728588E+03 -0.96716293374E+03  0.51519591500E+02  0.11361164188E+04  0.00000000000E+00 0.  1.
         11    1    5    5    0    0  0.94034873765E+01  0.62259224208E+02 -0.54936488107E+02  0.83562277969E+02  0.00000000000E+00 0. -1.
        -11    1    5    5    0    0  0.11096209059E+03  0.48301702734E+03 -0.14663088378E+03  0.51683522551E+03  0.00000000000E+00 0.  1.
          4    1    6    6  503    0  0.12832588154E+03  0.10856734617E+03 -0.32431171679E+03  0.36528412253E+03  0.00000000000E+00 0. -1.
         -4    1    6    6    0  503  0.44905765287E+03  0.50970014587E+03 -0.10099423314E+04  0.12171403071E+04  0.00000000000E+00 0.  1.
<mgrwt>
<rscale>  0 0.32057375E+04</rscale>
<asrwt>0</asrwt>
<pdfrwt beam="1">  1        2 0.38839384E+00 0.32057375E+04</pdfrwt>
<pdfrwt beam="2">  1       -1 0.15656580E+00 0.32057375E+04</pdfrwt>
<totfact> 0.99990972E-01</totfact>
</mgrwt>
</event>
<event>
12    6  0.1462228E-007  0.1774483E+04  0.7818608E-02  0.8719988E-01
          2   -1    0    0  501    0  0.00000000000E+00  0.00000000000E+00  0.78275122916E+03  0.78275122916E+03  0.00000000000E+00 0. -1.
         -1   -1    0    0    0  501 -0.00000000000E+00 -0.00000000000E+00 -0.10056799065E+04  0.10056799065E+04  0.00000000000E+00 0.  1.
         24    2    1    2    0    0  0.51326151326E+03  0.39800588478E+03  0.69917970223E+01  0.65437823794E+03  0.79472811341E+02 0.  0.
        254    2    1    2    0    0 -0.51326151326E+03 -0.39800588478E+03 -0.22992047436E+03  0.11340528977E+04  0.90075883841E+03 0.  0.
         23    2    4    4    0    0  0.15601436837E+03 -0.20254742135E+02  0.18218389321E+03  0.25740296788E+03  0.91184314499E+02 0.  0.
         23    2    4    4    0    0 -0.66927588163E+03 -0.37775114265E+03 -0.41210436757E+03  0.87664992984E+03  0.89771700575E+02 0.  0.
          2    1    3    3  502    0  0.28132402569E+03  0.18119888774E+03  0.30517656284E+02  0.33601721934E+03  0.00000000000E+00 0. -1.
         -1    1    3    3    0  502  0.23193748757E+03  0.21680699704E+03 -0.23525859262E+02  0.31836101859E+03  0.00000000000E+00 0.  1.
         11    1    5    5    0    0  0.74044296940E+02 -0.52468509780E+02  0.11575237120E+03  0.14708539651E+03  0.00000000000E+00 0.  1.
        -11    1    5    5    0    0  0.81970071429E+02  0.32213767645E+02  0.66431522006E+02  0.11031757137E+03  0.00000000000E+00 0. -1.
          4    1    6    6  503    0 -0.48389568366E+03 -0.31133595190E+03 -0.32988342237E+03  0.66325574250E+03  0.00000000000E+00 0. -1.
         -4    1    6    6    0  503 -0.18538019797E+03 -0.66415190750E+02 -0.82220945196E+02  0.21339418734E+03  0.00000000000E+00 0.  1.
<mgrwt>
<rscale>  0 0.17744827E+04</rscale>
<asrwt>0</asrwt>
<pdfrwt beam="1">  1        2 0.12042327E+00 0.17744827E+04</pdfrwt>
<pdfrwt beam="2">  1       -1 0.15471999E+00 0.17744827E+04</pdfrwt>
<totfact> 0.12280846E+01</totfact>
</mgrwt>
</event>
<event>
12    6  0.1462228E-007  0.2469596E+04  0.7818608E-02  0.8413898E-01
          2   -1    0    0  501    0  0.00000000000E+00  0.00000000000E+00  0.18917366676E+04  0.18917366676E+04  0.00000000000E+00 0. -1.
         -1   -1    0    0    0  501 -0.00000000000E+00 -0.00000000000E+00 -0.80599279694E+03  0.80599279694E+03  0.00000000000E+00 0.  1.
         24    2    1    2    0    0  0.65129631770E+03 -0.70216565878E+03 -0.51472573366E+02  0.96244402799E+03  0.80159686690E+02 0.  0.
        254    2    1    2    0    0 -0.65129631770E+03  0.70216565878E+03  0.11372164440E+04  0.17352854365E+04  0.89483562728E+03 0.  0.
         23    2    4    4    0    0 -0.49328006831E+03  0.88933534688E+03  0.10402303542E+04  0.14574700958E+04  0.88866783591E+02 0.  0.
         23    2    4    4    0    0 -0.15801624939E+03 -0.18716968810E+03  0.96986089790E+02  0.27781534075E+03  0.88167084160E+02 0.  0.
          2    1    3    3  502    0  0.48310738211E+03 -0.53762515542E+03 -0.61087277366E+01  0.72282146270E+03  0.00000000000E+00 0. -1.
         -1    1    3    3    0  502  0.16818893559E+03 -0.16454050337E+03 -0.45363845629E+02  0.23962256529E+03  0.00000000000E+00 0.  1.
         11    1    5    5    0    0 -0.47368796508E+03  0.80580225973E+03  0.96285293225E+03  0.13419326880E+04  0.00000000000E+00 0.  1.
        -11    1    5    5    0    0 -0.19592103230E+02  0.83533087153E+02  0.77377421951E+02  0.11553740773E+03  0.00000000000E+00 0. -1.
          2    1    6    6  503    0 -0.45317365097E+02 -0.73544958762E+02 -0.74667629264E+01  0.86707998980E+02  0.00000000000E+00 0. -1.
         -2    1    6    6    0  503 -0.11269888429E+03 -0.11362472934E+03  0.10445285272E+03  0.19110734177E+03  0.00000000000E+00 0.  1.
<mgrwt>
<rscale>  0 0.24695960E+04</rscale>
<asrwt>0</asrwt>
<pdfrwt beam="1">  1        2 0.29103641E+00 0.24695960E+04</pdfrwt>
<pdfrwt beam="2">  1       -1 0.12399889E+00 0.24695960E+04</pdfrwt>
<totfact> 0.44584650E+00</totfact>
</mgrwt>
</event>
<event>
12    6  0.1462228E-007  0.3151997E+04  0.7818608E-02  0.8201611E-01
          2   -1    0    0  501    0  0.00000000000E+00  0.00000000000E+00  0.11415717837E+04  0.11415717837E+04  0.00000000000E+00 0. -1.
         -1   -1    0    0    0  501 -0.00000000000E+00 -0.00000000000E+00 -0.21757471849E+04  0.21757471849E+04  0.00000000000E+00 0.  1.
         24    2    1    2    0    0 -0.70481142648E+03 -0.12470139383E+04 -0.68432731025E+03  0.15895251167E+04  0.80519065265E+02 0.  0.
        254    2    1    2    0    0  0.70481142648E+03  0.12470139383E+04 -0.34984809098E+03  0.17277938519E+04  0.90059702334E+03 0.  0.
         23    2    4    4    0    0  0.20866896230E+03  0.56608339483E+01 -0.31358578852E+03  0.38744635542E+03  0.90575110848E+02 0.  0.
         23    2    4    4    0    0  0.49614246418E+03  0.12413531044E+04 -0.36262302461E+02  0.13403474964E+04  0.90008788841E+02 0.  0.
          4    1    3    3  502    0 -0.65347342387E+03 -0.11556680976E+04 -0.61002202417E+03  0.14610691762E+04  0.00000000000E+00 0. -1.
         -3    1    3    3    0  502 -0.51338002610E+02 -0.91345840691E+02 -0.74305286075E+02  0.12845594055E+03  0.00000000000E+00 0.  1.
         11    1    5    5    0    0  0.79610065135E+02 -0.26268615444E+02 -0.67051854028E+02  0.10734874828E+03  0.00000000000E+00 0.  1.
        -11    1    5    5    0    0  0.12905889716E+03  0.31929449392E+02 -0.24653393449E+03  0.28009760715E+03  0.00000000000E+00 0. -1.
          4    1    6    6  503    0  0.44211633641E+03  0.10704341287E+04 -0.36411888965E+01  0.11581490996E+04  0.00000000000E+00 0. -1.
         -4    1    6    6    0  503  0.54026127776E+02  0.17091897572E+03 -0.32621113565E+02  0.18219839680E+03  0.00000000000E+00 0.  1.
<mgrwt>
<rscale>  0 0.31519972E+04</rscale>
<asrwt>0</asrwt>
<pdfrwt beam="1">  1        2 0.17562643E+00 0.31519972E+04</pdfrwt>
<pdfrwt beam="2">  1       -1 0.33473033E+00 0.31519972E+04</pdfrwt>
<totfact> 0.38767844E-01</totfact>
</mgrwt>
</event>
<event>
12    6  0.1462228E-007  0.2380742E+04  0.7818608E-02  0.8446749E-01
          2   -1    0    0  501    0  0.00000000000E+00  0.00000000000E+00  0.32129049298E+04  0.32129049298E+04  0.00000000000E+00 0. -1.
         -1   -1    0    0    0  501 -0.00000000000E+00 -0.00000000000E+00 -0.44102873573E+03  0.44102873573E+03  0.00000000000E+00 0.  1.
         24    2    1    2    0    0  0.24531180989E+03 -0.41809902330E+03  0.25432018828E+04  0.25901844321E+04  0.78707674645E+02 0.  0.
        254    2    1    2    0    0 -0.24531180989E+03  0.41809902330E+03  0.22867431126E+03  0.10637492335E+04  0.91885026728E+03 0.  0.
         23    2    4    4    0    0 -0.48095930661E+03  0.38074066635E+03  0.41620339234E+03  0.74695607810E+03  0.91830328296E+02 0.  0.
         23    2    4    4    0    0  0.23564749672E+03  0.37358356957E+02 -0.18752908107E+03  0.31679315535E+03  0.90914011484E+02 0.  0.
          2    1    3    3  502    0  0.23184822885E+03 -0.41418964365E+03  0.25029560915E+04  0.25475666543E+04  0.00000000000E+00 0. -1.
         -1    1    3    3    0  502  0.13463581048E+02 -0.39093796527E+01  0.40245791330E+02  0.42617777789E+02  0.00000000000E+00 0.  1.
         11    1    5    5    0    0  0.28653177679E+01  0.87038653814E+01  0.11228115766E+02  0.14492684436E+02  0.00000000000E+00 0.  1.
        -11    1    5    5    0    0 -0.48382462438E+03  0.37203680096E+03  0.40497527657E+03  0.73246339367E+03  0.00000000000E+00 0. -1.
          3    1    6    6  503    0  0.21756289833E+03  0.54780953540E+02 -0.14415561702E+03  0.26667472606E+03  0.00000000000E+00 0. -1.
         -3    1    6    6    0  503  0.18084598387E+02 -0.17422596583E+02 -0.43373464052E+02  0.50118429289E+02  0.00000000000E+00 0.  1.
<mgrwt>
<rscale>  0 0.23807422E+04</rscale>
<asrwt>0</asrwt>
<pdfrwt beam="1">  1        2 0.49429305E+00 0.23807422E+04</pdfrwt>
<pdfrwt beam="2">  1       -1 0.67850577E-01 0.23807422E+04</pdfrwt>
<totfact> 0.28687536E+00</totfact>
</mgrwt>
</event>
<event>
12    6  0.1462228E-007  0.2149496E+04  0.7818608E-02  0.8539748E-01
         -1   -1    0    0    0  501 -0.00000000000E+00  0.00000000000E+00  0.18088710960E+04  0.18088710960E+04  0.00000000000E+00 0.  1.
          2   -1    0    0  501    0  0.00000000000E+00 -0.00000000000E+00 -0.63856599530E+03  0.63856599530E+03  0.00000000000E+00 0. -1.
         24    2    1    2    0    0  0.27521814343E+03 -0.42604921419E+03  0.13464013948E+04  0.14410093761E+04  0.80301598130E+02 0.  0.
        254    2    1    2    0    0 -0.27521814343E+03  0.42604921419E+03 -0.17609629413E+03  0.10064277152E+04  0.85124842537E+03 0.  0.
         23    2    4    4    0    0 -0.57390142056E+03  0.30357834126E+03 -0.11635532402E+03  0.66569777544E+03  0.89957306459E+02 0.  0.
         23    2    4    4    0    0  0.29868327713E+03  0.12247087293E+03 -0.59740970104E+02  0.34072993975E+03  0.91198100724E+02 0.  0.
          4    1    3    3  502    0  0.25812976388E+02 -0.16581987464E+02  0.48537478488E+02  0.57420892332E+02  0.00000000000E+00 0. -1.
         -3    1    3    3    0  502  0.24940516704E+03 -0.40946722673E+03  0.12978639163E+04  0.13835884837E+04  0.00000000000E+00 0.  1.
         11    1    5    5    0    0 -0.34420413382E+03  0.22963576482E+03 -0.62681528871E+02  0.41849497522E+03  0.00000000000E+00 0.  1.
        -11    1    5    5    0    0 -0.22969728675E+03  0.73942576435E+02 -0.53673795151E+02  0.24720280021E+03  0.00000000000E+00 0. -1.
          2    1    6    6  503    0  0.16153544967E+02  0.26464686724E+02 -0.25940528822E+02  0.40425582172E+02  0.00000000000E+00 0. -1.
         -2    1    6    6    0  503  0.28252973217E+03  0.96006186210E+02 -0.33800441282E+02  0.30030435758E+03  0.00000000000E+00 0.  1.
<mgrwt>
<rscale>  0 0.21494963E+04</rscale>
<asrwt>0</asrwt>
<pdfrwt beam="1">  1        2 0.98240923E-01 0.21494963E+04</pdfrwt>
<pdfrwt beam="2">  1       -1 0.27828786E+00 0.21494963E+04</pdfrwt>
<totfact> 0.21990012E+00</totfact>
</mgrwt>
</event>
<event>
12    6  0.1462228E-007  0.1967321E+04  0.7818608E-02  0.8622053E-01
          2   -1    0    0  501    0  0.00000000000E+00  0.00000000000E+00  0.13026786862E+04  0.13026786862E+04  0.00000000000E+00 0. -1.
         -1   -1    0    0    0  501 -0.00000000000E+00 -0.00000000000E+00 -0.74276827324E+03  0.74276827324E+03  0.00000000000E+00 0.  1.
         24    2    1    2    0    0  0.63963550006E+03  0.24627699460E+03  0.54609799503E+03  0.87983491551E+03  0.78105872873E+02 0.  0.
        254    2    1    2    0    0 -0.63963550006E+03 -0.24627699460E+03  0.13812417967E+02  0.11656120440E+04  0.94269545619E+03 0.  0.
         23    2    4    4    0    0  0.23648367277E+03 -0.51272314638E+02 -0.32880533282E+02  0.26186516217E+03  0.94545523189E+02 0.  0.
         23    2    4    4    0    0 -0.87611917283E+03 -0.19500467996E+03  0.46692951249E+02  0.90374688178E+03  0.94691944863E+02 0.  0.
          4    1    3    3  502    0  0.48211730492E+03  0.19418570234E+03  0.45377692157E+03  0.68997005532E+03  0.00000000000E+00 0. -1.
         -3    1    3    3    0  502  0.15751819514E+03  0.52091292266E+02  0.92321073456E+02  0.18986486019E+03  0.00000000000E+00 0.  1.
         11    1    5    5    0    0  0.23263488256E+03 -0.59789616810E+02 -0.47177059862E+02  0.24478452124E+03  0.00000000000E+00 0.  1.
        -11    1    5    5    0    0  0.38487902103E+01  0.85173021716E+01  0.14296526580E+02  0.17080640931E+02  0.00000000000E+00 0. -1.
          1    1    6    6  503    0 -0.74840933187E+02  0.98431685101E+01  0.30113431337E+01  0.75545492480E+02  0.00000000000E+00 0. -1.
         -1    1    6    6    0  503 -0.80127823965E+03 -0.20484784847E+03  0.43681608115E+02  0.82820138930E+03  0.00000000000E+00 0.  1.
<mgrwt>
<rscale>  0 0.19673214E+04</rscale>
<asrwt>0</asrwt>
<pdfrwt beam="1">  1        2 0.20041211E+00 0.19673214E+04</pdfrwt>
<pdfrwt beam="2">  1       -1 0.11427204E+00 0.19673214E+04</pdfrwt>
<totfact> 0.12190798E+01</totfact>
</mgrwt>
</event>
<event>
12    6  0.1462228E-007  0.1857151E+04  0.7818608E-02  0.8676484E-01
          2   -1    0    0  501    0  0.00000000000E+00  0.00000000000E+00  0.78558170605E+03  0.78558170605E+03  0.00000000000E+00 0. -1.
         -1   -1    0    0    0  501 -0.00000000000E+00 -0.00000000000E+00 -0.10975972060E+04  0.10975972060E+04  0.00000000000E+00 0.  1.
         24    2    1    2    0    0 -0.63778675827E+03  0.17775910974E+03  0.14035586280E+03  0.68175939466E+03  0.82011303269E+02 0.  0.
        254    2    1    2    0    0  0.63778675827E+03 -0.17775910974E+03 -0.45237136273E+03  0.12014195174E+04  0.89465007506E+03 0.  0.
         23    2    4    4    0    0  0.54214673874E+03  0.29351007445E+03 -0.24542467897E+03  0.66969812791E+03  0.90504471487E+02 0.  0.
         23    2    4    4    0    0  0.95640019530E+02 -0.47126918419E+03 -0.20694668376E+03  0.53172138947E+03  0.93054010088E+02 0.  0.
          2    1    3    3  502    0 -0.39440091579E+03  0.12046075686E+03  0.12643089987E+03  0.43133241098E+03  0.00000000000E+00 0. -1.
         -1    1    3    3    0  502 -0.24338584248E+03  0.57298352876E+02  0.13924962931E+02  0.25042698368E+03  0.00000000000E+00 0.  1.
         11    1    5    5    0    0  0.48856607059E+03  0.23798824451E+03 -0.19429563024E+03  0.57713603404E+03  0.00000000000E+00 0. -1.
        -11    1    5    5    0    0  0.53580668151E+02  0.55521829934E+02 -0.51129048731E+02  0.92562093876E+02  0.00000000000E+00 0.  1.
          3    1    6    6  503    0  0.67536163915E+02 -0.40378616880E+03 -0.20670685136E+03  0.45861980545E+03  0.00000000000E+00 0. -1.
         -3    1    6    6    0  503  0.28103855615E+02 -0.67483015390E+02 -0.23983240541E+00  0.73101584020E+02  0.00000000000E+00 0.  1.
<mgrwt>
<rscale>  0 0.18571508E+04</rscale>
<asrwt>0</asrwt>
<pdfrwt beam="1">  1        2 0.12085872E+00 0.18571508E+04</pdfrwt>
<pdfrwt beam="2">  1       -1 0.16886111E+00 0.18571508E+04</pdfrwt>
<totfact> 0.94962713E+00</totfact>
</mgrwt>
</event>
<event>
12    6  0.1462228E-007  0.1606852E+04  0.7818608E-02  0.8816349E-01
         -1   -1    0    0    0  501 -0.00000000000E+00  0.00000000000E+00  0.32415063649E+03  0.32415063649E+03  0.00000000000E+00 0.  1.
          2   -1    0    0  501    0  0.00000000000E+00 -0.00000000000E+00 -0.19913381726E+04  0.19913381726E+04  0.00000000000E+00 0. -1.
         24    2    1    2    0    0 -0.13308897609E+03  0.43366208781E+03 -0.14588129688E+03  0.48312765668E+03  0.79721376740E+02 0.  0.
        254    2    1    2    0    0  0.13308897609E+03 -0.43366208781E+03 -0.15213062393E+04  0.18323611525E+04  0.91509520676E+03 0.  0.
         23    2    4    4    0    0  0.41065389832E+03 -0.26212910034E+03 -0.13770523723E+04  0.14635821619E+04  0.91930512503E+02 0.  0.
         23    2    4    4    0    0 -0.27756492223E+03 -0.17153298747E+03 -0.14425386695E+03  0.36877899054E+03  0.93396541089E+02 0.  0.
          4    1    3    3  502    0 -0.19785047156E+02  0.19710109629E+02  0.46583347309E+01  0.28313187652E+02  0.00000000000E+00 0. -1.
         -3    1    3    3    0  502 -0.11330392893E+03  0.41395197818E+03 -0.15053963161E+03  0.45481446902E+03  0.00000000000E+00 0.  1.
         11    1    5    5    0    0  0.19969865100E+03 -0.11811872841E+03 -0.52303815064E+03  0.57218921017E+03  0.00000000000E+00 0.  1.
        -11    1    5    5    0    0  0.21095524732E+03 -0.14401037193E+03 -0.85401422168E+03  0.89139295175E+03  0.00000000000E+00 0. -1.
          2    1    6    6  503    0 -0.17224907039E+02 -0.18079276519E+02  0.12956621182E+02  0.28132395817E+02  0.00000000000E+00 0. -1.
         -2    1    6    6    0  503 -0.26034001519E+03 -0.15345371095E+03 -0.15721048813E+03  0.34064659472E+03  0.00000000000E+00 0.  1.
<mgrwt>
<rscale>  0 0.16068522E+04</rscale>
<asrwt>0</asrwt>
<pdfrwt beam="1">  1        2 0.30635972E+00 0.16068522E+04</pdfrwt>
<pdfrwt beam="2">  1       -1 0.49869329E-01 0.16068522E+04</pdfrwt>
<totfact> 0.29757212E+01</totfact>
</mgrwt>
</event>
<event>
12    6  0.1462228E-007  0.2612554E+04  0.7818608E-02  0.8363949E-01
         -1   -1    0    0    0  501 -0.00000000000E+00  0.00000000000E+00  0.44640572975E+03  0.44640572975E+03  0.00000000000E+00 0.  1.
          2   -1    0    0  501    0  0.00000000000E+00 -0.00000000000E+00 -0.38224416580E+04  0.38224416580E+04  0.00000000000E+00 0. -1.
         24    2    1    2    0    0  0.69001362160E+03 -0.43811655222E+03 -0.28151450502E+04  0.29324903649E+04  0.79957332826E+02 0.  0.
        254    2    1    2    0    0 -0.69001362160E+03  0.43811655222E+03 -0.56089087808E+03  0.13363570229E+04  0.89620678654E+03 0.  0.
         23    2    4    4    0    0 -0.19474738379E+03  0.56359970461E+03 -0.42326330944E+02  0.60413789251E+03  0.87292063413E+02 0.  0.
         23    2    4    4    0    0 -0.49526623780E+03 -0.12548315239E+03 -0.51856454714E+03  0.73221913041E+03  0.78746412869E+02 0.  0.
          4    1    3    3  502    0  0.55419319204E+03 -0.36368833131E+03 -0.21681929639E+04  0.22672582617E+04  0.00000000000E+00 0. -1.
         -1    1    3    3    0  502  0.13582042955E+03 -0.74428220912E+02 -0.64695208624E+03  0.66523210313E+03  0.00000000000E+00 0.  1.
         11    1    5    5    0    0 -0.17569749513E+03  0.55364818577E+03 -0.44359840079E+02  0.58254932737E+03  0.00000000000E+00 0. -1.
        -11    1    5    5    0    0 -0.19049888665E+02  0.99515188434E+01  0.20335091351E+01  0.21588565141E+02  0.00000000000E+00 0.  1.
          1    1    6    6  503    0 -0.25652069804E+03 -0.54396830253E+02 -0.21197252701E+03  0.33718575871E+03  0.00000000000E+00 0. -1.
         -1    1    6    6    0  503 -0.23874553976E+03 -0.71086322138E+02 -0.30659202013E+03  0.39503337170E+03  0.00000000000E+00 0.  1.
<mgrwt>
<rscale>  0 0.26125542E+04</rscale>
<asrwt>0</asrwt>
<pdfrwt beam="1">  1        2 0.58806794E+00 0.26125542E+04</pdfrwt>
<pdfrwt beam="2">  1       -1 0.68677805E-01 0.26125542E+04</pdfrwt>
<totfact> 0.10193662E+00</totfact>
</mgrwt>
</event>
<event>
12    6  0.1462228E-007  0.1526975E+04  0.7818608E-02  0.8866710E-01
          2   -1    0    0  501    0  0.00000000000E+00  0.00000000000E+00  0.11742949170E+04  0.11742949170E+04  0.00000000000E+00 0. -1.
         -1   -1    0    0    0  501 -0.00000000000E+00 -0.00000000000E+00 -0.49639418279E+03  0.49639418279E+03  0.00000000000E+00 0.  1.
         24    2    1    2    0    0 -0.30637567072E+03 -0.38672157711E+03  0.22235728257E+03  0.54700488351E+03  0.79699132123E+02 0.  0.
        254    2    1    2    0    0  0.30637567072E+03  0.38672157711E+03  0.45554345168E+03  0.11236842163E+04  0.90095879586E+03 0.  0.
         23    2    4    4    0    0  0.26141074310E+03  0.55954698858E+03  0.60693394279E+03  0.87150993066E+03  0.98652619272E+02 0.  0.
         23    2    4    4    0    0  0.44964927618E+02 -0.17282541147E+03 -0.15139049111E+03  0.25217428566E+03  0.93714043692E+02 0.  0.
          4    1    3    3  502    0 -0.26197859509E+03 -0.35192716065E+03  0.21937000830E+03  0.49051881843E+03  0.00000000000E+00 0. -1.
         -3    1    3    3    0  502 -0.44397075624E+02 -0.34794416465E+02  0.29872742668E+01  0.56486065084E+02  0.00000000000E+00 0.  1.
         11    1    5    5    0    0  0.39508938742E+02  0.92978096739E+02  0.15541636943E+03  0.18536485805E+03  0.00000000000E+00 0.  1.
        -11    1    5    5    0    0  0.22190180436E+03  0.46656889184E+03  0.45151757337E+03  0.68614507261E+03  0.00000000000E+00 0. -1.
          1    1    6    6  503    0 -0.32793621216E+01 -0.13527992972E+03 -0.12932917525E+03  0.18718292970E+03  0.00000000000E+00 0. -1.
         -1    1    6    6    0  503  0.48244289740E+02 -0.37545481755E+02 -0.22061315864E+02  0.64991355967E+02  0.00000000000E+00 0.  1.
<mgrwt>
<rscale>  0 0.15269750E+04</rscale>
<asrwt>0</asrwt>
<pdfrwt beam="1">  1        2 0.18066076E+00 0.15269750E+04</pdfrwt>
<pdfrwt beam="2">  1       -1 0.76368336E-01 0.15269750E+04</pdfrwt>
<totfact> 0.37150351E+01</totfact>
</mgrwt>
</event>
<event>
12    6  0.1462228E-007  0.2047058E+04  0.7818608E-02  0.8584930E-01
         -1   -1    0    0    0  501 -0.00000000000E+00  0.00000000000E+00  0.10236750464E+04  0.10236750464E+04  0.00000000000E+00 0.  1.
          2   -1    0    0  501    0  0.00000000000E+00 -0.00000000000E+00 -0.10233826632E+04  0.10233826632E+04  0.00000000000E+00 0. -1.
         24    2    1    2    0    0 -0.84941605644E+02 -0.63183252898E+03 -0.52081185067E+03  0.82708138598E+03  0.79945069763E+02 0.  0.
        254    2    1    2    0    0  0.84941605644E+02  0.63183252898E+03  0.52110423384E+03  0.12199763237E+04  0.90020285867E+03 0.  0.
         23    2    4    4    0    0 -0.35738967454E+03  0.10311936000E+03  0.31176682125E+03  0.49399116309E+03  0.92020304819E+02 0.  0.
         23    2    4    4    0    0  0.44233128018E+03  0.52871316899E+03  0.20933741259E+03  0.72598516059E+03  0.89653358011E+02 0.  0.
          2    1    3    3  502    0 -0.92181229078E+02 -0.54734585181E+03 -0.47582199997E+03  0.73108921217E+03  0.00000000000E+00 0. -1.
         -1    1    3    3    0  502  0.72396234344E+01 -0.84486677169E+02 -0.44989850702E+02  0.95992173810E+02  0.00000000000E+00 0.  1.
         11    1    5    5    0    0 -0.21515857156E+03  0.27864207580E+02  0.21891699934E+03  0.30821141701E+03  0.00000000000E+00 0. -1.
        -11    1    5    5    0    0 -0.14223110298E+03  0.75255152419E+02  0.92849821916E+02  0.18577974607E+03  0.00000000000E+00 0.  1.
          3    1    6    6  503    0  0.33369897790E+03  0.42443578521E+03  0.19765744370E+03  0.57495148375E+03  0.00000000000E+00 0. -1.
         -3    1    6    6    0  503  0.10863230228E+03  0.10427738378E+03  0.11679968885E+02  0.15103367684E+03  0.00000000000E+00 0.  1.
<mgrwt>
<rscale>  0 0.20470577E+04</rscale>
<asrwt>0</asrwt>
<pdfrwt beam="1">  1        2 0.15744349E+00 0.20470577E+04</pdfrwt>
<pdfrwt beam="2">  1       -1 0.15748847E+00 0.20470577E+04</pdfrwt>
<totfact> 0.78456919E+00</totfact>
</mgrwt>
</event>
<event>
12    6  0.1462228E-007  0.1876534E+04  0.7818608E-02  0.8666626E-01
         -3   -1    0    0    0  501 -0.00000000000E+00  0.00000000000E+00  0.10636839629E+04  0.10636839629E+04  0.00000000000E+00 0.  1.
          4   -1    0    0  501    0  0.00000000000E+00 -0.00000000000E+00 -0.82763785320E+03  0.82763785320E+03  0.00000000000E+00 0. -1.
         24    2    1    2    0    0 -0.72706471001E+02 -0.14442426823E+03 -0.61803136951E+03  0.64373586734E+03  0.79300019059E+02 0.  0.
        254    2    1    2    0    0  0.72706471001E+02  0.14442426823E+03  0.85407747921E+03  0.12475859488E+04  0.89491773859E+03 0.  0.
         23    2    4    4    0    0 -0.14461117005E+03  0.35482613158E+03  0.66991227327E+02  0.39958554471E+03  0.91470262071E+02 0.  0.
         23    2    4    4    0    0  0.21731764106E+03 -0.21040186336E+03  0.78708625189E+03  0.84800040404E+03  0.90022309071E+02 0.  0.
          4    1    3    3  502    0 -0.33342946243E+02 -0.12631808043E+03 -0.52650781397E+03  0.54247441201E+03  0.00000000000E+00 0. -1.
         -3    1    3    3    0  502 -0.39363524759E+02 -0.18106187793E+02 -0.91523555541E+02  0.10126145534E+03  0.00000000000E+00 0.  1.
         11    1    5    5    0    0  0.52838950431E+01  0.41883613162E+02  0.27439008638E+02  0.50349337566E+02  0.00000000000E+00 0.  1.
        -11    1    5    5    0    0 -0.14989506510E+03  0.31294251842E+03  0.39552218688E+02  0.34923620714E+03  0.00000000000E+00 0. -1.
          2    1    6    6  503    0  0.17316058777E+03 -0.17954424096E+03  0.53598864993E+03  0.59118910382E+03  0.00000000000E+00 0. -1.
         -2    1    6    6    0  503  0.44157053281E+02 -0.30857622394E+02  0.25109760195E+03  0.25681130022E+03  0.00000000000E+00 0.  1.
<mgrwt>
<rscale>  0 0.18765342E+04</rscale>
<asrwt>0</asrwt>
<pdfrwt beam="1">  1        4 0.12732890E+00 0.18765342E+04</pdfrwt>
<pdfrwt beam="2">  1       -3 0.16364369E+00 0.18765342E+04</pdfrwt>
<totfact> 0.25085128E-01</totfact>
</mgrwt>
</event>
<event>
12    6  0.1462228E-007  0.2035150E+04  0.7818608E-02  0.8590361E-01
          2   -1    0    0  501    0  0.00000000000E+00  0.00000000000E+00  0.61709523976E+03  0.61709523976E+03  0.00000000000E+00 0. -1.
         -1   -1    0    0    0  501 -0.00000000000E+00 -0.00000000000E+00 -0.16779569879E+04  0.16779569879E+04  0.00000000000E+00 0.  1.
         24    2    1    2    0    0  0.48465597257E+03  0.26809046409E+03  0.27712066823E+03  0.62433492639E+03  0.78957753737E+02 0.  0.
        254    2    1    2    0    0 -0.48465597257E+03 -0.26809046409E+03 -0.13379824164E+04  0.16707173013E+04  0.83326793146E+03 0.  0.
         23    2    4    4    0    0 -0.43693732632E+03  0.21054453531E+03 -0.51623429267E+03  0.71411948834E+03  0.90694929406E+02 0.  0.
         23    2    4    4    0    0 -0.47718646252E+02 -0.47863499940E+03 -0.82174812371E+03  0.95659781295E+03  0.91874180600E+02 0.  0.
          2    1    3    3  502    0  0.21185206386E+03  0.73493144765E+02  0.11764584463E+03  0.25322536217E+03  0.00000000000E+00 0. -1.
         -1    1    3    3    0  502  0.27280390871E+03  0.19459731932E+03  0.15947482360E+03  0.37110956422E+03  0.00000000000E+00 0.  1.
         11    1    5    5    0    0 -0.39169756344E+03  0.15383298687E+03 -0.44415126182E+03  0.61185121756E+03  0.00000000000E+00 0.  1.
        -11    1    5    5    0    0 -0.45239762877E+02  0.56711548440E+02 -0.72083030850E+02  0.10226827078E+03  0.00000000000E+00 0. -1.
          1    1    6    6  503    0  0.21844082877E+02 -0.52937839920E+02 -0.11832156773E+03  0.13145178676E+03  0.00000000000E+00 0. -1.
         -1    1    6    6    0  503 -0.69562729129E+02 -0.42569715948E+03 -0.70342655598E+03  0.82514602619E+03  0.00000000000E+00 0.  1.
<mgrwt>
<rscale>  0 0.20351504E+04</rscale>
<asrwt>0</asrwt>
<pdfrwt beam="1">  1        2 0.94937731E-01 0.20351504E+04</pdfrwt>
<pdfrwt beam="2">  1       -1 0.25814723E+00 0.20351504E+04</pdfrwt>
<totfact> 0.31278894E+00</totfact>
</mgrwt>
</event>
<event>
12    6  0.1462228E-007  0.1270141E+04  0.7818608E-02  0.9053585E-01
          2   -1    0    0  501    0  0.00000000000E+00  0.00000000000E+00  0.21719974458E+04  0.21719974458E+04  0.00000000000E+00 0. -1.
         -1   -1    0    0    0  501 -0.00000000000E+00 -0.00000000000E+00 -0.18568820765E+03  0.18568820765E+03  0.00000000000E+00 0.  1.
         24    2    1    2    0    0  0.12005238523E+03  0.13413862687E+03  0.96033179547E+03  0.98024314306E+03  0.78953883362E+02 0.  0.
        254    2    1    2    0    0 -0.12005238523E+03 -0.13413862687E+03  0.10259774426E+04  0.13774425104E+04  0.90128375672E+03 0.  0.
         23    2    4    4    0    0 -0.49193472003E+03 -0.30384432903E+02  0.41950489473E+03  0.65265513036E+03  0.83972495218E+02 0.  0.
         23    2    4    4    0    0  0.37188233480E+03 -0.10375419397E+03  0.60647254791E+03  0.72478737999E+03  0.91904249791E+02 0.  0.
          2    1    3    3  502    0  0.11823714479E+03  0.99848043539E+02  0.65732532466E+03  0.67529714692E+03  0.00000000000E+00 0. -1.
         -1    1    3    3    0  502  0.18152404458E+01  0.34290583331E+02  0.30300647081E+03  0.30494599613E+03  0.00000000000E+00 0.  1.
         11    1    5    5    0    0 -0.33382782991E+03 -0.29389209957E+01  0.23572726311E+03  0.40867713400E+03  0.00000000000E+00 0. -1.
        -11    1    5    5    0    0 -0.15810689012E+03 -0.27445511908E+02  0.18377763161E+03  0.24397799636E+03  0.00000000000E+00 0.  1.
          2    1    6    6  503    0  0.10404188621E+02 -0.22178623775E+02  0.56924982733E+02  0.61972511266E+02  0.00000000000E+00 0. -1.
         -2    1    6    6    0  503  0.36147814618E+03 -0.81575570193E+02  0.54954756518E+03  0.66281486873E+03  0.00000000000E+00 0.  1.
<mgrwt>
<rscale>  0 0.12701406E+04</rscale>
<asrwt>0</asrwt>
<pdfrwt beam="1">  1        2 0.33415343E+00 0.12701406E+04</pdfrwt>
<pdfrwt beam="2">  1       -1 0.28567418E-01 0.12701406E+04</pdfrwt>
<totfact> 0.66737644E+01</totfact>
</mgrwt>
</event>
<event>
12    6  0.1462228E-007  0.1395004E+04  0.7818608E-02  0.8957443E-01
         -1   -1    0    0    0  501 -0.00000000000E+00  0.00000000000E+00  0.36549354343E+03  0.36549354343E+03  0.00000000000E+00 0.  1.
          2   -1    0    0  501    0  0.00000000000E+00 -0.00000000000E+00 -0.13311022952E+04  0.13311022952E+04  0.00000000000E+00 0. -1.
         24    2    1    2    0    0 -0.69338062042E+02  0.35111298099E+03 -0.58637995810E+02  0.37120915794E+03  0.79181639996E+02 0.  0.
        254    2    1    2    0    0  0.69338062042E+02 -0.35111298099E+03 -0.90697075596E+03  0.13253866807E+04  0.89775598517E+03 0.  0.
         23    2    4    4    0    0 -0.19108496539E+02 -0.64148247018E+03 -0.63375171766E+03  0.90616426504E+03  0.87335796801E+02 0.  0.
         23    2    4    4    0    0  0.88446558581E+02  0.29036948919E+03 -0.27321903830E+03  0.41922241565E+03  0.94665500142E+02 0.  0.
          2    1    3    3  502    0 -0.22862803120E+02  0.15788247004E+03 -0.65251469870E+02  0.17235816323E+03  0.00000000000E+00 0. -1.
         -1    1    3    3    0  502 -0.46475258923E+02  0.19323051096E+03  0.66134740605E+01  0.19885099471E+03  0.00000000000E+00 0.  1.
         11    1    5    5    0    0  0.14674356391E+02 -0.34796304033E+03 -0.39237209561E+03  0.52464223580E+03  0.00000000000E+00 0. -1.
        -11    1    5    5    0    0 -0.33782852930E+02 -0.29351942985E+03 -0.24137962205E+03  0.38152202924E+03  0.00000000000E+00 0.  1.
          2    1    6    6  503    0  0.27882176966E+02  0.22823970565E+03 -0.18124013228E+03  0.29277767089E+03  0.00000000000E+00 0. -1.
         -2    1    6    6    0  503  0.60564381615E+02  0.62129783544E+02 -0.91978906025E+02  0.12644474476E+03  0.00000000000E+00 0.  1.
<mgrwt>
<rscale>  0 0.13950044E+04</rscale>
<asrwt>0</asrwt>
<pdfrwt beam="1">  1        2 0.20478497E+00 0.13950044E+04</pdfrwt>
<pdfrwt beam="2">  1       -1 0.56229776E-01 0.13950044E+04</pdfrwt>
<totfact> 0.56311229E+01</totfact>
</mgrwt>
</event>
<event>
12    6  0.1462228E-007  0.1709016E+04  0.7818608E-02  0.8756239E-01
          2   -1    0    0  501    0  0.00000000000E+00  0.00000000000E+00  0.11950246472E+04  0.11950246472E+04  0.00000000000E+00 0. -1.
         -1   -1    0    0    0  501 -0.00000000000E+00 -0.00000000000E+00 -0.61102006736E+03  0.61102006736E+03  0.00000000000E+00 0.  1.
         24    2    1    2    0    0  0.50061926917E+03 -0.17860462621E+03 -0.12161471491E+03  0.54925899817E+03  0.66151666834E+02 0.  0.
        254    2    1    2    0    0 -0.50061926917E+03  0.17860462621E+03  0.70561929471E+03  0.12567857163E+04  0.89391972938E+03 0.  0.
         23    2    4    4    0    0 -0.54957779781E+03  0.32957603239E+03  0.81807765018E+03  0.10432278282E+04  0.91744988539E+02 0.  0.
         23    2    4    4    0    0  0.48958528644E+02 -0.15097140617E+03 -0.11245835548E+03  0.21355788810E+03  0.88152066588E+02 0.  0.
          2    1    3    3  502    0  0.23999810337E+03 -0.11591715302E+03 -0.43477639637E+02  0.27004847923E+03  0.00000000000E+00 0. -1.
         -1    1    3    3    0  502  0.26062116579E+03 -0.62687473194E+02 -0.78137075273E+02  0.27921051894E+03  0.00000000000E+00 0.  1.
         11    1    5    5    0    0 -0.51334333174E+02  0.77030094627E+01  0.44244273918E+02  0.68206347884E+02  0.00000000000E+00 0. -1.
        -11    1    5    5    0    0 -0.49824346464E+03  0.32187302292E+03  0.77383337627E+03  0.97502148036E+03  0.00000000000E+00 0.  1.
          3    1    6    6  503    0 -0.65743432758E+01  0.69461388291E+01 -0.20367904970E+02  0.22501608542E+02  0.00000000000E+00 0. -1.
         -3    1    6    6    0  503  0.55532871919E+02 -0.15791754500E+03 -0.92090450507E+02  0.19105627956E+03  0.00000000000E+00 0.  1.
<mgrwt>
<rscale>  0 0.17090161E+04</rscale>
<asrwt>0</asrwt>
<pdfrwt beam="1">  1        2 0.18384994E+00 0.17090161E+04</pdfrwt>
<pdfrwt beam="2">  1       -1 0.94003088E-01 0.17090161E+04</pdfrwt>
<totfact> 0.22675231E+01</totfact>
</mgrwt>
</event>
<event>
12    6  0.1462228E-007  0.1572424E+04  0.7818608E-02  0.8837670E-01
         -1   -1    0    0    0  501 -0.00000000000E+00  0.00000000000E+00  0.45318687731E+03  0.45318687731E+03  0.00000000000E+00 0.  1.
          2   -1    0    0  501    0  0.00000000000E+00 -0.00000000000E+00 -0.13639616109E+04  0.13639616109E+04  0.00000000000E+00 0. -1.
         24    2    1    2    0    0 -0.16210972947E+03  0.46543819546E+03 -0.47916438438E+03  0.69199410599E+03  0.79655867869E+02 0.  0.
        254    2    1    2    0    0  0.16210972947E+03 -0.46543819546E+03 -0.43161034917E+03  0.11251543822E+04  0.91475276006E+03 0.  0.
         23    2    4    4    0    0 -0.30561331700E+02 -0.24769148677E+03 -0.68096010585E+03  0.73127238628E+03  0.93635300810E+02 0.  0.
         23    2    4    4    0    0  0.19267106117E+03 -0.21774670868E+03  0.24934975668E+03  0.39388199590E+03  0.91825696748E+02 0.  0.
          2    1    3    3  502    0 -0.57015809723E+00  0.15737224807E+02 -0.66192693726E+00  0.15761455267E+02  0.00000000000E+00 0. -1.
         -1    1    3    3    0  502 -0.16153957137E+03  0.44970097065E+03 -0.47850245744E+03  0.67623265072E+03  0.00000000000E+00 0.  1.
         11    1    5    5    0    0 -0.37825048039E+02 -0.25215855582E+03 -0.63066522794E+03  0.68025973074E+03  0.00000000000E+00 0.  1.
        -11    1    5    5    0    0  0.72637163391E+01  0.44670690506E+01 -0.50294877913E+02  0.51012655540E+02  0.00000000000E+00 0. -1.
          1    1    6    6  503    0  0.19753277599E+02 -0.28844593723E+02  0.78764445765E+02  0.86174476962E+02  0.00000000000E+00 0. -1.
         -1    1    6    6    0  503  0.17291778357E+03 -0.18890211496E+03  0.17058531091E+03  0.30770751893E+03  0.00000000000E+00 0.  1.
<mgrwt>
<rscale>  0 0.15724242E+04</rscale>
<asrwt>0</asrwt>
<pdfrwt beam="1">  1        2 0.20984024E+00 0.15724242E+04</pdfrwt>
<pdfrwt beam="2">  1       -1 0.69721060E-01 0.15724242E+04</pdfrwt>
<totfact> 0.34582375E+01</totfact>
</mgrwt>
</event>
<event>
12    6  0.1462228E-007  0.1419198E+04  0.7818608E-02  0.8940038E-01
          2   -1    0    0  501    0  0.00000000000E+00  0.00000000000E+00  0.49392345553E+03  0.49392345553E+03  0.00000000000E+00 0. -1.
         -1   -1    0    0    0  501 -0.00000000000E+00 -0.00000000000E+00 -0.10194508374E+04  0.10194508374E+04  0.00000000000E+00 0.  1.
         24    2    1    2    0    0  0.30754952436E+03  0.25078360008E+03 -0.17180124811E+02  0.40521939148E+03  0.80177768350E+02 0.  0.
        254    2    1    2    0    0 -0.30754952436E+03 -0.25078360008E+03 -0.50834725701E+03  0.11081549014E+04  0.90117214104E+03 0.  0.
         23    2    4    4    0    0  0.31942493108E+02  0.29491623711E+03 -0.28536157318E+03  0.42187747391E+03  0.92484948857E+02 0.  0.
         23    2    4    4    0    0 -0.33949201747E+03 -0.54569983720E+03 -0.22298568383E+03  0.68627742749E+03  0.90614292720E+02 0.  0.
          2    1    3    3  502    0  0.26025835122E+03  0.23078007594E+03  0.82069455343E+01  0.34793851006E+03  0.00000000000E+00 0. -1.
         -1    1    3    3    0  502  0.47291173146E+02  0.20003524148E+02 -0.25387070345E+02  0.57280881423E+02  0.00000000000E+00 0.  1.
         11    1    5    5    0    0  0.61462429196E+02  0.13819904017E+03 -0.13931865328E+03  0.20563631016E+03  0.00000000000E+00 0.  1.
        -11    1    5    5    0    0 -0.29519936088E+02  0.15671719694E+03 -0.14604291990E+03  0.21624116375E+03  0.00000000000E+00 0. -1.
          3    1    6    6  503    0 -0.19174690005E+03 -0.38802581878E+03 -0.15556353867E+03  0.45992491157E+03  0.00000000000E+00 0. -1.
         -3    1    6    6    0  503 -0.14774511742E+03 -0.15767401841E+03 -0.67422145166E+02  0.22635251592E+03  0.00000000000E+00 0.  1.
<mgrwt>
<rscale>  0 0.14191979E+04</rscale>
<asrwt>0</asrwt>
<pdfrwt beam="1">  1        2 0.75988224E-01 0.14191979E+04</pdfrwt>
<pdfrwt beam="2">  1       -1 0.15683859E+00 0.14191979E+04</pdfrwt>
<totfact> 0.21444927E+01</totfact>
</mgrwt>
</event>
<event>
12    6  0.1462228E-007  0.2075735E+04  0.7818608E-02  0.8572008E-01
          2   -1    0    0  501    0  0.00000000000E+00  0.00000000000E+00  0.28263917849E+04  0.28263917849E+04  0.00000000000E+00 0. -1.
         -1   -1    0    0    0  501 -0.00000000000E+00 -0.00000000000E+00 -0.38111098180E+03  0.38111098180E+03  0.00000000000E+00 0.  1.
         24    2    1    2    0    0 -0.44683648923E+03  0.53504041817E+03  0.17003238034E+04  0.18394509849E+04  0.80918430053E+02 0.  0.
        254    2    1    2    0    0  0.44683648923E+03 -0.53504041817E+03  0.74495699976E+03  0.13680517818E+04  0.91141299591E+03 0.  0.
         23    2    4    4    0    0  0.90084424588E+02 -0.59585373511E+03  0.91255255007E+02  0.61545329458E+03  0.85430433984E+02 0.  0.
         23    2    4    4    0    0  0.35675206464E+03  0.60813316933E+02  0.65370174475E+03  0.75259848726E+03  0.90045637262E+02 0.  0.
          4    1    3    3  502    0 -0.44407290249E+03  0.51134495269E+03  0.16555039249E+04  0.17886776257E+04  0.00000000000E+00 0. -1.
         -3    1    3    3    0  502 -0.27635867388E+01  0.23695465487E+02  0.44819878498E+02  0.50773359204E+02  0.00000000000E+00 0.  1.
         11    1    5    5    0    0  0.36948391489E+02 -0.78758464579E+02  0.30077456135E+02  0.92047448330E+02  0.00000000000E+00 0. -1.
        -11    1    5    5    0    0  0.53136033100E+02 -0.51709527053E+03  0.61177798872E+02  0.52340584625E+03  0.00000000000E+00 0.  1.
          3    1    6    6  503    0  0.20703447618E+03  0.77467217334E+02  0.35826898450E+03  0.42097637623E+03  0.00000000000E+00 0. -1.
         -3    1    6    6    0  503  0.14971758846E+03 -0.16653900401E+02  0.29543276026E+03  0.33162211103E+03  0.00000000000E+00 0.  1.
<mgrwt>
<rscale>  0 0.20757350E+04</rscale>
<asrwt>0</asrwt>
<pdfrwt beam="1">  1        2 0.43482949E+00 0.20757350E+04</pdfrwt>
<pdfrwt beam="2">  1       -1 0.58632461E-01 0.20757350E+04</pdfrwt>
<totfact> 0.69130525E+00</totfact>
</mgrwt>
</event>
<event>
12    6  0.1462228E-007  0.1743280E+04  0.7818608E-02  0.8737058E-01
         -1   -1    0    0    0  501 -0.00000000000E+00  0.00000000000E+00  0.72633685125E+03  0.72633685125E+03  0.00000000000E+00 0.  1.
          2   -1    0    0  501    0  0.00000000000E+00 -0.00000000000E+00 -0.10460112651E+04  0.10460112651E+04  0.00000000000E+00 0. -1.
         24    2    1    2    0    0  0.37760393169E+03  0.47567146992E+03  0.83251578085E+02  0.61773831002E+03  0.76300182772E+02 0.  0.
        254    2    1    2    0    0 -0.37760393169E+03 -0.47567146992E+03 -0.40292599189E+03  0.11546098063E+04  0.89550341894E+03 0.  0.
         23    2    4    4    0    0  0.12515772188E+03 -0.12215237046E+03  0.20576832402E+03  0.28507172670E+03  0.91321570507E+02 0.  0.
         23    2    4    4    0    0 -0.50276165356E+03 -0.35351909947E+03 -0.60869431591E+03  0.86953807960E+03  0.88558837353E+02 0.  0.
          4    1    3    3  502    0  0.70851566282E+02  0.93738107491E+02 -0.13927494317E+02  0.11832477483E+03  0.00000000000E+00 0. -1.
         -3    1    3    3    0  502  0.30675236541E+03  0.38193336243E+03  0.97179072402E+02  0.49941353519E+03  0.00000000000E+00 0.  1.
         11    1    5    5    0    0  0.76720019593E+02 -0.19960202655E+02  0.54493025713E+02  0.96196990326E+02  0.00000000000E+00 0.  1.
        -11    1    5    5    0    0  0.48437702283E+02 -0.10219216780E+03  0.15127529830E+03  0.18887473637E+03  0.00000000000E+00 0. -1.
          4    1    6    6  503    0 -0.36702406189E+03 -0.23516886535E+03 -0.47873357743E+03  0.64745416471E+03  0.00000000000E+00 0. -1.
         -4    1    6    6    0  503 -0.13573759168E+03 -0.11835023411E+03 -0.12996073848E+03  0.22208391489E+03  0.00000000000E+00 0.  1.
<mgrwt>
<rscale>  0 0.17432803E+04</rscale>
<asrwt>0</asrwt>
<pdfrwt beam="1">  1        2 0.16092481E+00 0.17432803E+04</pdfrwt>
<pdfrwt beam="2">  1       -1 0.11174413E+00 0.17432803E+04</pdfrwt>
<totfact> 0.18728625E+01</totfact>
</mgrwt>
</event>
<event>
12    6  0.1462228E-007  0.1518319E+04  0.7818608E-02  0.8872362E-01
          2   -1    0    0  501    0  0.00000000000E+00  0.00000000000E+00  0.27251713407E+04  0.27251713407E+04  0.00000000000E+00 0. -1.
         -1   -1    0    0    0  501 -0.00000000000E+00 -0.00000000000E+00 -0.21148144657E+03  0.21148144657E+03  0.00000000000E+00 0.  1.
         24    2    1    2    0    0 -0.20436931377E+03 -0.40511849003E+03  0.11165539025E+04  0.12076738040E+04  0.76782759845E+02 0.  0.
        254    2    1    2    0    0  0.20436931377E+03  0.40511849003E+03  0.13971359916E+04  0.17289789833E+04  0.91186157844E+03 0.  0.
         23    2    4    4    0    0 -0.12527540668E+03  0.45727371546E+03  0.27702387942E+03  0.55664860956E+03  0.91226456628E+02 0.  0.
         23    2    4    4    0    0  0.32964472046E+03 -0.52155225423E+02  0.11201121122E+04  0.11723303737E+04  0.91222541249E+02 0.  0.
          4    1    3    3  502    0 -0.13204537996E+03 -0.30722434077E+03  0.88520899073E+03  0.94626515058E+03  0.00000000000E+00 0. -1.
         -3    1    3    3    0  502 -0.72323933809E+02 -0.97894149267E+02  0.23134491178E+03  0.26140865339E+03  0.00000000000E+00 0.  1.
         11    1    5    5    0    0 -0.13628898857E+02  0.44631635875E+01  0.18527653159E+02  0.23429482385E+02  0.00000000000E+00 0. -1.
        -11    1    5    5    0    0 -0.11164650783E+03  0.45281055187E+03  0.25849622626E+03  0.53321912717E+03  0.00000000000E+00 0.  1.
          1    1    6    6  503    0  0.12110913940E+03 -0.21235771272E+02  0.27353967880E+03  0.29990388044E+03  0.00000000000E+00 0. -1.
         -1    1    6    6    0  503  0.20853558106E+03 -0.30919454151E+02  0.84657243340E+03  0.87242649329E+03  0.00000000000E+00 0.  1.
<mgrwt>
<rscale>  0 0.15183190E+04</rscale>
<asrwt>0</asrwt>
<pdfrwt beam="1">  1        2 0.41925710E+00 0.15183190E+04</pdfrwt>
<pdfrwt beam="2">  1       -1 0.32535609E-01 0.15183190E+04</pdfrwt>
<totfact> 0.25026816E+01</totfact>
</mgrwt>
</event>
<event>
12    6  0.1462228E-007  0.2160067E+04  0.7818608E-02  0.8535235E-01
         -1   -1    0    0    0  501 -0.00000000000E+00  0.00000000000E+00  0.31857345732E+03  0.31857345732E+03  0.00000000000E+00 0.  1.
          2   -1    0    0  501    0  0.00000000000E+00 -0.00000000000E+00 -0.36615497948E+04  0.36615497948E+04  0.00000000000E+00 0. -1.
         24    2    1    2    0    0  0.72465866179E+03  0.49998977378E+03 -0.16677105938E+04  0.18876515236E+04  0.82762914439E+02 0.  0.
        254    2    1    2    0    0 -0.72465866179E+03 -0.49998977378E+03 -0.16752657437E+04  0.20924717285E+04  0.89263804120E+03 0.  0.
         23    2    4    4    0    0 -0.27410269384E+03 -0.56279668433E+03 -0.14403323304E+04  0.15731234531E+04  0.91037254851E+02 0.  0.
         23    2    4    4    0    0 -0.45055596795E+03  0.62806910554E+02 -0.23493341330E+03  0.51934827549E+03  0.87083490372E+02 0.  0.
          4    1    3    3  502    0  0.40198056744E+03  0.24224868888E+03 -0.94985958869E+03  0.10594838565E+04  0.00000000000E+00 0. -1.
         -3    1    3    3    0  502  0.32267809434E+03  0.25774108490E+03 -0.71785100508E+03  0.82816766715E+03  0.00000000000E+00 0.  1.
         11    1    5    5    0    0 -0.20035168565E+03 -0.38747034309E+03 -0.10984666547E+04  0.11819065345E+04  0.00000000000E+00 0.  1.
        -11    1    5    5    0    0 -0.73751008190E+02 -0.17532634125E+03 -0.34186567574E+03  0.39121691859E+03  0.00000000000E+00 0. -1.
          3    1    6    6  503    0 -0.21033982386E+03  0.29577486688E+02 -0.15868916249E+03  0.26514131989E+03  0.00000000000E+00 0. -1.
         -3    1    6    6    0  503 -0.24021614409E+03  0.33229423866E+02 -0.76244250808E+02  0.25420695559E+03  0.00000000000E+00 0.  1.
<mgrwt>
<rscale>  0 0.21600672E+04</rscale>
<asrwt>0</asrwt>
<pdfrwt beam="1">  1        2 0.56331536E+00 0.21600672E+04</pdfrwt>
<pdfrwt beam="2">  1       -1 0.49011301E-01 0.21600672E+04</pdfrwt>
<totfact> 0.27240282E+00</totfact>
</mgrwt>
</event>
<event>
12    6  0.2362957E-007  0.1951803E+04  0.7818608E-02  0.8629492E-01
         -1   -1    0    0    0  501 -0.00000000000E+00  0.00000000000E+00  0.33542257476E+03  0.33542257476E+03  0.00000000000E+00 0.  1.
          2   -1    0    0  501    0  0.00000000000E+00 -0.00000000000E+00 -0.28393563053E+04  0.28393563053E+04  0.00000000000E+00 0. -1.
         24    2    1    2    0    0 -0.46670413161E+03  0.16919641018E+03 -0.39397486323E+02  0.50444568478E+03  0.80455672803E+02 0.  0.
        254    2    1    2    0    0  0.46670413161E+03 -0.16919641018E+03 -0.24645362443E+04  0.26703331953E+04  0.90016681957E+03 0.  0.
         23    2    4    4    0    0  0.39026306265E+02  0.26401987030E+03 -0.26945688078E+03  0.39063668026E+03  0.93597333645E+02 0.  0.
         23    2    4    4    0    0  0.42767782535E+03 -0.43321628048E+03 -0.21950793635E+04  0.22796965151E+04  0.89767036516E+02 0.  0.
          2    1    3    3  502    0 -0.32571571313E+02  0.87979746566E+01  0.17735664623E+02  0.38116471708E+02  0.00000000000E+00 0. -1.
         -1    1    3    3    0  502 -0.43413256030E+03  0.16039843553E+03 -0.57133150945E+02  0.46632921307E+03  0.00000000000E+00 0.  1.
         11    1    5    5    0    0 -0.18933430450E+02  0.52080532192E+02 -0.95401331658E+02  0.11032801414E+03  0.00000000000E+00 0. -1.
        -11    1    5    5    0    0  0.57959736716E+02  0.21193933811E+03 -0.17405554913E+03  0.28030866612E+03  0.00000000000E+00 0.  1.
          3    1    6    6  503    0  0.94651481959E+02 -0.10620127144E+03 -0.38606604596E+03  0.41144210399E+03  0.00000000000E+00 0. -1.
         -3    1    6    6    0  503  0.33302634339E+03 -0.32701500905E+03 -0.18090133175E+04  0.18682544111E+04  0.00000000000E+00 0.  1.
<mgrwt>
<rscale>  0 0.19518035E+04</rscale>
<asrwt>0</asrwt>
<pdfrwt beam="1">  1        2 0.43682405E+00 0.19518035E+04</pdfrwt>
<pdfrwt beam="2">  1       -1 0.51603473E-01 0.19518035E+04</pdfrwt>
<totfact> 0.87967247E+00</totfact>
</mgrwt>
</event>
<event>
12    6  0.1462228E-007  0.1971338E+04  0.7818608E-02  0.8620140E-01
         -1   -1    0    0    0  501 -0.00000000000E+00  0.00000000000E+00  0.49977646348E+03  0.49977646348E+03  0.00000000000E+00 0.  1.
          2   -1    0    0  501    0  0.00000000000E+00 -0.00000000000E+00 -0.19439556606E+04  0.19439556606E+04  0.00000000000E+00 0. -1.
         24    2    1    2    0    0 -0.32935135093E+03  0.35775267685E+03 -0.13260355291E+04  0.14144595476E+04  0.76591756940E+02 0.  0.
        254    2    1    2    0    0  0.32935135093E+03 -0.35775267685E+03 -0.11814366801E+03  0.10292725765E+04  0.89943583442E+03 0.  0.
         23    2    4    4    0    0  0.28414112113E+03 -0.64875886844E+03 -0.72103363561E+02  0.71761186463E+03  0.90242158266E+02 0.  0.
         23    2    4    4    0    0  0.45210229803E+02  0.29100619159E+03 -0.46040304452E+02  0.31166071184E+03  0.91017148092E+02 0.  0.
          2    1    3    3  502    0 -0.25929965655E+03  0.27818748265E+03 -0.93685138536E+03  0.10110959923E+04  0.00000000000E+00 0. -1.
         -1    1    3    3    0  502 -0.70051694384E+02  0.79565194194E+02 -0.38918414374E+03  0.40336355531E+03  0.00000000000E+00 0.  1.
         11    1    5    5    0    0  0.23300101591E+03 -0.59440843263E+03 -0.75587008114E+02  0.64290298957E+03  0.00000000000E+00 0. -1.
        -11    1    5    5    0    0  0.51140105215E+02 -0.54350435808E+02  0.34836445528E+01  0.74708875064E+02  0.00000000000E+00 0.  1.
          2    1    6    6  503    0  0.58253075308E+02  0.21415613853E+03 -0.65343879398E+02  0.23135707257E+03  0.00000000000E+00 0. -1.
         -2    1    6    6    0  503 -0.13042845504E+02  0.76850053064E+02  0.19303574946E+02  0.80303639273E+02  0.00000000000E+00 0.  1.
<mgrwt>
<rscale>  0 0.19713379E+04</rscale>
<asrwt>0</asrwt>
<pdfrwt beam="1">  1        2 0.29907010E+00 0.19713379E+04</pdfrwt>
<pdfrwt beam="2">  1       -1 0.76888688E-01 0.19713379E+04</pdfrwt>
<totfact> 0.12914493E+01</totfact>
</mgrwt>
</event>
<event>
12    6  0.1462228E-007  0.1131428E+04  0.7818608E-02  0.9175090E-01
         -1   -1    0    0    0  501 -0.00000000000E+00  0.00000000000E+00  0.12023175386E+03  0.12023175386E+03  0.00000000000E+00 0.  1.
          2   -1    0    0  501    0  0.00000000000E+00 -0.00000000000E+00 -0.26617970867E+04  0.26617970867E+04  0.00000000000E+00 0. -1.
         24    2    1    2    0    0  0.40621024154E+02  0.92312930213E+02 -0.79674904608E+03  0.80698459338E+03  0.79014851959E+02 0.  0.
        254    2    1    2    0    0 -0.40621024154E+02 -0.92312930213E+02 -0.17448162868E+04  0.19750442472E+04  0.91991529996E+03 0.  0.
         23    2    4    4    0    0 -0.55263842466E+02 -0.49373433002E+03 -0.81528113845E+03  0.95837306294E+03  0.83474020717E+02 0.  0.
         23    2    4    4    0    0  0.14642818312E+02  0.40142139981E+03 -0.92953514831E+03  0.10166711842E+04  0.90725699607E+02 0.  0.
          2    1    3    3  502    0 -0.21850297082E+02  0.18815299546E+02 -0.26432857508E+03  0.26589668404E+03  0.00000000000E+00 0. -1.
         -1    1    3    3    0  502  0.62471321236E+02  0.73497630667E+02 -0.53242047101E+03  0.54108790935E+03  0.00000000000E+00 0.  1.
         11    1    5    5    0    0 -0.37481483476E+02 -0.68518524860E+02 -0.13320612982E+03  0.15441348022E+03  0.00000000000E+00 0.  1.
        -11    1    5    5    0    0 -0.17782358990E+02 -0.42521580516E+03 -0.68207500863E+03  0.80395958272E+03  0.00000000000E+00 0. -1.
          3    1    6    6  503    0  0.16421601385E+02  0.40569310776E+03 -0.90802216513E+03  0.99466618473E+03  0.00000000000E+00 0. -1.
         -3    1    6    6    0  503 -0.17787830739E+01 -0.42717079575E+01 -0.21512983180E+02  0.22004999509E+02  0.00000000000E+00 0.  1.
<mgrwt>
<rscale>  0 0.11314284E+04</rscale>
<asrwt>0</asrwt>
<pdfrwt beam="1">  1        2 0.40950722E+00 0.11314284E+04</pdfrwt>
<pdfrwt beam="2">  1       -1 0.18497194E-01 0.11314284E+04</pdfrwt>
<totfact> 0.74392076E+01</totfact>
</mgrwt>
</event>
<event>
12    6  0.1695372E-007  0.1834068E+04  0.7818608E-02  0.8688389E-01
          2   -1    0    0  501    0  0.00000000000E+00  0.00000000000E+00  0.19850644329E+04  0.19850644329E+04  0.00000000000E+00 0. -1.
         -1   -1    0    0    0  501 -0.00000000000E+00 -0.00000000000E+00 -0.42363936439E+03  0.42363936439E+03  0.00000000000E+00 0.  1.
         24    2    1    2    0    0  0.29639719023E+03 -0.45342002854E+03  0.11807663961E+04  0.13016331101E+04  0.81230870860E+02 0.  0.
        254    2    1    2    0    0 -0.29639719023E+03  0.45342002854E+03  0.38065867239E+03  0.11070706872E+04  0.88727868507E+03 0.  0.
         23    2    4    4    0    0 -0.37596209427E+03 -0.93135630120E+02 -0.49144598866E+02  0.40107383281E+03  0.91778460694E+02 0.  0.
         23    2    4    4    0    0  0.79564904036E+02  0.54655565866E+03  0.42980327126E+03  0.70599685441E+03  0.92989485886E+02 0.  0.
          4    1    3    3  502    0  0.22094707372E+03 -0.36980217297E+03  0.86391583916E+03  0.96536098620E+03  0.00000000000E+00 0. -1.
         -3    1    3    3    0  502  0.75450116509E+02 -0.83617855568E+02  0.31685055698E+03  0.33627212389E+03  0.00000000000E+00 0.  1.
         11    1    5    5    0    0 -0.36464691827E+03 -0.73527055852E+02 -0.58537091535E+02  0.37656366531E+03  0.00000000000E+00 0. -1.
        -11    1    5    5    0    0 -0.11315176001E+02 -0.19608574268E+02  0.93924926694E+01  0.24510167509E+02  0.00000000000E+00 0.  1.
          4    1    6    6  503    0  0.76807969108E+02  0.53711799742E+03  0.39853760255E+03  0.67322167814E+03  0.00000000000E+00 0. -1.
         -4    1    6    6    0  503  0.27569349286E+01  0.94376612407E+01  0.31265668705E+02  0.32775176269E+02  0.00000000000E+00 0.  1.
<mgrwt>
<rscale>  0 0.18340681E+04</rscale>
<asrwt>0</asrwt>
<pdfrwt beam="1">  1        2 0.30539452E+00 0.18340681E+04</pdfrwt>
<pdfrwt beam="2">  1       -1 0.65175288E-01 0.18340681E+04</pdfrwt>
<totfact> 0.17426845E+01</totfact>
</mgrwt>
</event>
<event>
12    6  0.1462228E-007  0.1586721E+04  0.7818608E-02  0.8828748E-01
          2   -1    0    0  501    0  0.00000000000E+00  0.00000000000E+00  0.11884485220E+04  0.11884485220E+04  0.00000000000E+00 0. -1.
         -1   -1    0    0    0  501 -0.00000000000E+00 -0.00000000000E+00 -0.52961562188E+03  0.52961562188E+03  0.00000000000E+00 0.  1.
         24    2    1    2    0    0 -0.21455779967E+03  0.16759118706E+03  0.71528044474E+03  0.76943283903E+03  0.79239660309E+02 0.  0.
        254    2    1    2    0    0  0.21455779967E+03 -0.16759118706E+03 -0.56447544623E+02  0.94863130485E+03  0.90696922322E+03 0.  0.
         23    2    4    4    0    0 -0.11357632119E+03  0.30117684485E+03 -0.14096433580E+03  0.36328554419E+03  0.92186604470E+02 0.  0.
         23    2    4    4    0    0  0.32813412086E+03 -0.46876803191E+03  0.84516791180E+02  0.58534576066E+03  0.89839314988E+02 0.  0.
          4    1    3    3  502    0 -0.17934307205E+03  0.16287011840E+03  0.66589271535E+03  0.70859277538E+03  0.00000000000E+00 0. -1.
         -3    1    3    3    0  502 -0.35214727617E+02  0.47210686579E+01  0.49387729385E+02  0.60840063644E+02  0.00000000000E+00 0.  1.
         11    1    5    5    0    0 -0.11071091214E+03  0.28056866539E+03 -0.10074303387E+03  0.31800132223E+03  0.00000000000E+00 0. -1.
        -11    1    5    5    0    0 -0.28654090579E+01  0.20608179453E+02 -0.40221301936E+02  0.45284221964E+02  0.00000000000E+00 0.  1.
          1    1    6    6  503    0  0.14856521602E+03 -0.27637860436E+03  0.20186710725E+02  0.31442687488E+03  0.00000000000E+00 0.  1.
         -1    1    6    6    0  503  0.17956890484E+03 -0.19238942755E+03  0.64330080456E+02  0.27091888578E+03  0.00000000000E+00 0. -1.
<mgrwt>
<rscale>  0 0.15867210E+04</rscale>
<asrwt>0</asrwt>
<pdfrwt beam="1">  1        2 0.18283823E+00 0.15867210E+04</pdfrwt>
<pdfrwt beam="2">  1       -1 0.81479327E-01 0.15867210E+04</pdfrwt>
<totfact> 0.31601286E+01</totfact>
</mgrwt>
</event>
<event>
12    6  0.1462228E-007  0.1082790E+04  0.7818608E-02  0.9222130E-01
         -1   -1    0    0    0  501 -0.00000000000E+00  0.00000000000E+00  0.35129009021E+03  0.35129009021E+03  0.00000000000E+00 0.  1.
          2   -1    0    0  501    0  0.00000000000E+00 -0.00000000000E+00 -0.83437761012E+03  0.83437761012E+03  0.00000000000E+00 0. -1.
         24    2    1    2    0    0  0.31773526996E+02 -0.46997611087E+02  0.63377717104E+02  0.11651637926E+03  0.79630390839E+02 0.  0.
        254    2    1    2    0    0 -0.31773526996E+02  0.46997611087E+02 -0.54646523702E+03  0.10691513211E+04  0.91719243324E+03 0.  0.
         23    2    4    4    0    0 -0.29153757680E+03 -0.17737238187E+03 -0.61452921848E+03  0.70806027097E+03  0.85135576730E+02 0.  0.
         23    2    4    4    0    0  0.25976404980E+03  0.22436999296E+03  0.68063981459E+02  0.36109105010E+03  0.89077413387E+02 0.  0.
          2    1    3    3  502    0  0.87037357263E+01  0.92518472115E+01 -0.13478601358E+02  0.18520917552E+02  0.00000000000E+00 0. -1.
         -1    1    3    3    0  502  0.23069791270E+02 -0.56249458299E+02  0.76856318462E+02  0.97995461709E+02  0.00000000000E+00 0.  1.
         11    1    5    5    0    0 -0.41797742846E+02 -0.47313087365E+02 -0.17533603814E+03  0.18635532140E+03  0.00000000000E+00 0.  1.
        -11    1    5    5    0    0 -0.24973983396E+03 -0.13005929451E+03 -0.43919318034E+03  0.52170494957E+03  0.00000000000E+00 0. -1.
          1    1    6    6  503    0  0.46464931460E+02  0.84525011480E+02  0.40279307728E+02  0.10452698241E+03  0.00000000000E+00 0.  1.
         -1    1    6    6    0  503  0.21329911834E+03  0.13984498148E+03  0.27784673731E+02  0.25656406768E+03  0.00000000000E+00 0. -1.
<mgrwt>
<rscale>  0 0.10827901E+04</rscale>
<asrwt>0</asrwt>
<pdfrwt beam="1">  1        2 0.12836578E+00 0.10827901E+04</pdfrwt>
<pdfrwt beam="2">  1       -1 0.54044630E-01 0.10827901E+04</pdfrwt>
<totfact> 0.12760330E+02</totfact>
</mgrwt>
</event>
<event>
12    6  0.1462228E-007  0.1614887E+04  0.7818608E-02  0.8811454E-01
          2   -1    0    0  501    0  0.00000000000E+00  0.00000000000E+00  0.89251793279E+03  0.89251793279E+03  0.00000000000E+00 0. -1.
         -1   -1    0    0    0  501 -0.00000000000E+00 -0.00000000000E+00 -0.73047810560E+03  0.73047810560E+03  0.00000000000E+00 0.  1.
         24    2    1    2    0    0  0.44246612122E+03  0.10318412388E+03  0.35350187116E+03  0.58152291290E+03  0.82353466655E+02 0.  0.
        254    2    1    2    0    0 -0.44246612122E+03 -0.10318412388E+03 -0.19146204396E+03  0.10414731255E+04  0.91737959700E+03 0.  0.
         23    2    4    4    0    0 -0.52594676316E+03 -0.34281629174E+03  0.10121649226E+03  0.64312769279E+03  0.96049171637E+02 0.  0.
         23    2    4    4    0    0  0.83480641943E+02  0.23963216786E+03 -0.29267853622E+03  0.39834543270E+03  0.92874995211E+02 0.  0.
          4    1    3    3  502    0  0.60852766806E+02  0.28490503338E+02  0.22478218967E+02  0.70852228874E+02  0.00000000000E+00 0. -1.
         -3    1    3    3    0  502  0.38161335441E+03  0.74693620540E+02  0.33102365219E+03  0.51067068403E+03  0.00000000000E+00 0.  1.
         11    1    5    5    0    0 -0.51978604515E+03 -0.31908320350E+03  0.91425289374E+02  0.61672539029E+03  0.00000000000E+00 0.  1.
        -11    1    5    5    0    0 -0.61607180091E+01 -0.23733088234E+02  0.97912028821E+01  0.26402302501E+02  0.00000000000E+00 0. -1.
          1    1    6    6  503    0  0.53023153002E+02  0.67730920823E+02 -0.50315250255E+02  0.99652179093E+02  0.00000000000E+00 0. -1.
         -1    1    6    6    0  503  0.30457488941E+02  0.17190124704E+03 -0.24236328597E+03  0.29869325361E+03  0.00000000000E+00 0.  1.
<mgrwt>
<rscale>  0 0.16148868E+04</rscale>
<asrwt>0</asrwt>
<pdfrwt beam="1">  1        2 0.13731045E+00 0.16148868E+04</pdfrwt>
<pdfrwt beam="2">  1       -1 0.11238125E+00 0.16148868E+04</pdfrwt>
<totfact> 0.23528654E+01</totfact>
</mgrwt>
</event>
<event>
12    6  0.1462228E-007  0.1577700E+04  0.7818608E-02  0.8834366E-01
         -1   -1    0    0    0  501 -0.00000000000E+00  0.00000000000E+00  0.19346584802E+03  0.19346584802E+03  0.00000000000E+00 0.  1.
          2   -1    0    0  501    0  0.00000000000E+00 -0.00000000000E+00 -0.32165060161E+04  0.32165060161E+04  0.00000000000E+00 0. -1.
         24    2    1    2    0    0 -0.14007257370E+03  0.45810896530E+03 -0.57200570321E+03  0.75044951402E+03  0.80621328448E+02 0.  0.
        254    2    1    2    0    0  0.14007257370E+03 -0.45810896530E+03 -0.24510344649E+04  0.26595223501E+04  0.91433310819E+03 0.  0.
         23    2    4    4    0    0  0.79823048424E+02 -0.99399046023E+02  0.21913971439E+02  0.15821019776E+03  0.91095307893E+02 0.  0.
         23    2    4    4    0    0  0.60249525274E+02 -0.35870991927E+03 -0.24729484363E+04  0.25013121524E+04  0.93732082846E+02 0.  0.
          2    1    3    3  502    0 -0.63909633613E+02  0.13241553612E+03 -0.13081674309E+03  0.19680278389E+03  0.00000000000E+00 0. -1.
         -1    1    3    3    0  502 -0.76162940085E+02  0.32569342918E+03 -0.44118896012E+03  0.55364673014E+03  0.00000000000E+00 0.  1.
         11    1    5    5    0    0 -0.83460066607E+01 -0.58777023518E+02  0.40615194755E+01  0.59505380103E+02  0.00000000000E+00 0. -1.
        -11    1    5    5    0    0  0.88169055085E+02 -0.40622022506E+02  0.17852451964E+02  0.98704817654E+02  0.00000000000E+00 0.  1.
          1    1    6    6  503    0  0.35660568254E+02 -0.69992566028E+02 -0.75764837297E+03  0.76170971669E+03  0.00000000000E+00 0. -1.
         -1    1    6    6    0  503  0.24588957020E+02 -0.28871735324E+03 -0.17153000634E+04  0.17396024357E+04  0.00000000000E+00 0.  1.
<mgrwt>
<rscale>  0 0.15776997E+04</rscale>
<asrwt>0</asrwt>
<pdfrwt beam="1">  1        2 0.49484709E+00 0.15776997E+04</pdfrwt>
<pdfrwt beam="2">  1       -1 0.29763976E-01 0.15776997E+04</pdfrwt>
<totfact> 0.14438365E+01</totfact>
</mgrwt>
</event>
<event>
12    6  0.1462228E-007  0.1615327E+04  0.7818608E-02  0.8811187E-01
         -1   -1    0    0    0  501 -0.00000000000E+00  0.00000000000E+00  0.58964377312E+03  0.58964377312E+03  0.00000000000E+00 0.  1.
          2   -1    0    0  501    0  0.00000000000E+00 -0.00000000000E+00 -0.11062950229E+04  0.11062950229E+04  0.00000000000E+00 0. -1.
         24    2    1    2    0    0 -0.82648081965E+01  0.12992681160E+03 -0.73856490581E+03  0.75435962984E+03  0.81431244660E+02 0.  0.
        254    2    1    2    0    0  0.82648081965E+01 -0.12992681160E+03  0.22191365604E+03  0.94157916617E+03  0.90574630665E+03 0.  0.
         23    2    4    4    0    0  0.81160378274E+02 -0.45535393819E+03 -0.86649369540E+02  0.47809002910E+03  0.84425983273E+02 0.  0.
         23    2    4    4    0    0 -0.72895570077E+02  0.32542712659E+03  0.30856302558E+03  0.46348913707E+03  0.91621288867E+02 0.  0.
          4    1    3    3  502    0  0.28656697593E+02  0.86608007892E+02 -0.54564318966E+03  0.55321663367E+03  0.00000000000E+00 0. -1.
         -3    1    3    3    0  502 -0.36921505790E+02  0.43318803709E+02 -0.19292171615E+03  0.20114299617E+03  0.00000000000E+00 0.  1.
         11    1    5    5    0    0  0.25012109954E+02 -0.22368594288E+03 -0.82363664511E+02  0.23967640668E+03  0.00000000000E+00 0. -1.
        -11    1    5    5    0    0  0.56148268320E+02 -0.23166799531E+03 -0.42857050287E+01  0.23841362242E+03  0.00000000000E+00 0.  1.
          1    1    6    6  503    0 -0.21240677827E+02  0.24068855167E+03  0.25260390260E+03  0.34955811663E+03  0.00000000000E+00 0. -1.
         -1    1    6    6    0  503 -0.51654892251E+02  0.84738574925E+02  0.55959122982E+02  0.11393102044E+03  0.00000000000E+00 0.  1.
<mgrwt>
<rscale>  0 0.16153266E+04</rscale>
<asrwt>0</asrwt>
<pdfrwt beam="1">  1        2 0.17019923E+00 0.16153266E+04</pdfrwt>
<pdfrwt beam="2">  1       -1 0.90714427E-01 0.16153266E+04</pdfrwt>
<totfact> 0.28003736E+01</totfact>
</mgrwt>
</event>
<event>
12    6  0.1462228E-007  0.2621363E+04  0.7818608E-02  0.8360981E-01
          2   -1    0    0  501    0  0.00000000000E+00  0.00000000000E+00  0.18186631789E+04  0.18186631789E+04  0.00000000000E+00 0. -1.
         -1   -1    0    0    0  501 -0.00000000000E+00 -0.00000000000E+00 -0.94458745173E+03  0.94458745173E+03  0.00000000000E+00 0.  1.
         24    2    1    2    0    0  0.81804809727E+02 -0.59174331485E+03  0.14267738549E+04  0.15488608112E+04  0.80212228538E+02 0.  0.
        254    2    1    2    0    0 -0.81804809727E+02  0.59174331485E+03 -0.55269812781E+03  0.12143898194E+04  0.90134079876E+03 0.  0.
         23    2    4    4    0    0  0.97091217793E+02  0.59876968849E+03 -0.72714783225E+03  0.95138996739E+03  0.91907865191E+02 0.  0.
         23    2    4    4    0    0 -0.17889602752E+03 -0.70263736369E+01  0.17444970444E+03  0.26299985204E+03  0.81750010432E+02 0.  0.
          2    1    3    3  502    0  0.63324035691E+02 -0.53575013342E+03  0.13337428114E+04  0.14387174934E+04  0.00000000000E+00 0. -1.
         -1    1    3    3    0  502  0.18480774036E+02 -0.55993181433E+02  0.93031043596E+02  0.11014331777E+03  0.00000000000E+00 0.  1.
         11    1    5    5    0    0 -0.76584991319E+00 -0.31953352482E+01 -0.67640250093E+01  0.75198888133E+01  0.00000000000E+00 0.  1.
        -11    1    5    5    0    0  0.97857067706E+02  0.60196502374E+03 -0.72038380724E+03  0.94387007858E+03  0.00000000000E+00 0. -1.
          2    1    6    6  503    0 -0.15733037817E+03 -0.11218550920E+02  0.18099239932E+03  0.24007697180E+03  0.00000000000E+00 0. -1.
         -2    1    6    6    0  503 -0.21565649351E+02  0.41921772835E+01 -0.65426948740E+01  0.22922880241E+02  0.00000000000E+00 0.  1.
<mgrwt>
<rscale>  0 0.26213633E+04</rscale>
<asrwt>0</asrwt>
<pdfrwt beam="1">  1        2 0.27979434E+00 0.26213633E+04</pdfrwt>
<pdfrwt beam="2">  1       -1 0.14532115E+00 0.26213633E+04</pdfrwt>
<totfact> 0.32162700E+00</totfact>
</mgrwt>
</event>
<event>
12    6  0.1462228E-007  0.1910146E+04  0.7818608E-02  0.8649823E-01
          2   -1    0    0  501    0  0.00000000000E+00  0.00000000000E+00  0.12417563124E+04  0.12417563124E+04  0.00000000000E+00 0. -1.
         -1   -1    0    0    0  501 -0.00000000000E+00 -0.00000000000E+00 -0.73457578900E+03  0.73457578900E+03  0.00000000000E+00 0.  1.
         24    2    1    2    0    0  0.51252487997E+03  0.53240603361E+03  0.25432468539E+03  0.78567616059E+03  0.80424166170E+02 0.  0.
        254    2    1    2    0    0 -0.51252487997E+03 -0.53240603361E+03  0.25285583802E+03  0.11906559408E+04  0.89865875469E+03 0.  0.
         23    2    4    4    0    0  0.10876206301E+03 -0.39836037860E+03 -0.13035476143E+03  0.44323600569E+03  0.94581263057E+02 0.  0.
         23    2    4    4    0    0 -0.62128694298E+03 -0.13404565501E+03  0.38321059945E+03  0.74741993514E+03  0.88433550015E+02 0.  0.
          4    1    3    3  502    0  0.32077181002E+02  0.67571102814E+02  0.22381040582E+02  0.78075030925E+02  0.00000000000E+00 0. -1.
         -3    1    3    3    0  502  0.48044769897E+03  0.46483493080E+03  0.23194364480E+03  0.70760112966E+03  0.00000000000E+00 0.  1.
         11    1    5    5    0    0  0.22662010638E+02 -0.17334395415E+03 -0.13148867515E+02  0.17531282293E+03  0.00000000000E+00 0. -1.
        -11    1    5    5    0    0  0.86100052372E+02 -0.22501642445E+03 -0.11720589391E+03  0.26792318276E+03  0.00000000000E+00 0.  1.
          1    1    6    6  503    0 -0.25769382116E+02  0.10181424111E+02  0.76336448006E+01  0.28740128471E+02  0.00000000000E+00 0. -1.
         -1    1    6    6    0  503 -0.59551756086E+03 -0.14422707912E+03  0.37557695465E+03  0.71867980667E+03  0.00000000000E+00 0.  1.
<mgrwt>
<rscale>  0 0.19101457E+04</rscale>
<asrwt>0</asrwt>
<pdfrwt beam="1">  1        2 0.19103943E+00 0.19101457E+04</pdfrwt>
<pdfrwt beam="2">  1       -1 0.11301166E+00 0.19101457E+04</pdfrwt>
<totfact> 0.13659549E+01</totfact>
</mgrwt>
</event>
<event>
12    6  0.1462228E-007  0.1273648E+04  0.7818608E-02  0.9050728E-01
         -1   -1    0    0    0  501 -0.00000000000E+00  0.00000000000E+00  0.11616416779E+04  0.11616416779E+04  0.00000000000E+00 0.  1.
          2   -1    0    0  501    0  0.00000000000E+00 -0.00000000000E+00 -0.34911353488E+03  0.34911353488E+03  0.00000000000E+00 0. -1.
         24    2    1    2    0    0 -0.18546605202E+03 -0.25347056046E+03  0.18731878061E+03  0.37429236970E+03  0.79758830079E+02 0.  0.
        254    2    1    2    0    0  0.18546605202E+03  0.25347056046E+03  0.62520936238E+03  0.11364628430E+04  0.89555349664E+03 0.  0.
         23    2    4    4    0    0  0.25996272968E+03  0.33747529115E+03  0.79929582995E+03  0.91032607582E+03  0.91375858906E+02 0.  0.
         23    2    4    4    0    0 -0.74496677661E+02 -0.84004730685E+02 -0.17408646756E+03  0.22613676723E+03  0.90692830719E+02 0.  0.
          2    1    3    3  502    0 -0.20693539587E+02 -0.31066146628E+02  0.57538118595E+02  0.68585444071E+02  0.00000000000E+00 0. -1.
         -1    1    3    3    0  502 -0.16477251243E+03 -0.22240441383E+03  0.12978066202E+03  0.30570692563E+03  0.00000000000E+00 0.  1.
         11    1    5    5    0    0  0.86460118309E+02  0.71226129862E+02  0.27907953960E+03  0.30072230223E+03  0.00000000000E+00 0.  1.
        -11    1    5    5    0    0  0.17350261137E+03  0.26624916128E+03  0.52021629034E+03  0.60960377359E+03  0.00000000000E+00 0. -1.
          2    1    6    6  503    0 -0.31637831506E+02  0.81184076449E+01 -0.11921275039E+02  0.34770356968E+02  0.00000000000E+00 0.  1.
         -2    1    6    6    0  503 -0.42858846155E+02 -0.92123138330E+02 -0.16216519252E+03  0.19136641026E+03  0.00000000000E+00 0. -1.
<mgrwt>
<rscale>  0 0.12736480E+04</rscale>
<asrwt>0</asrwt>
<pdfrwt beam="1">  1        2 0.53709775E-01 0.12736480E+04</pdfrwt>
<pdfrwt beam="2">  1       -1 0.17871410E+00 0.12736480E+04</pdfrwt>
<totfact> 0.22149889E+01</totfact>
</mgrwt>
</event>
<event>
12    6  0.1462228E-007  0.2656734E+04  0.7818608E-02  0.8349181E-01
          2   -1    0    0  501    0  0.00000000000E+00  0.00000000000E+00  0.20014376182E+04  0.20014376182E+04  0.00000000000E+00 0. -1.
         -1   -1    0    0    0  501 -0.00000000000E+00 -0.00000000000E+00 -0.88164550135E+03  0.88164550135E+03  0.00000000000E+00 0.  1.
         24    2    1    2    0    0 -0.83204847769E+03  0.19011448299E+03 -0.38368170001E+03  0.93935188829E+03  0.81988640857E+02 0.  0.
        254    2    1    2    0    0  0.83204847769E+03 -0.19011448299E+03  0.15034738169E+04  0.19437312313E+04  0.88837458063E+03 0.  0.
         23    2    4    4    0    0  0.81838257717E+03  0.17173633674E+03  0.88216298871E+03  0.12187761992E+04  0.89221483952E+02 0.  0.
         23    2    4    4    0    0  0.13665900528E+02 -0.36185081973E+03  0.62131082814E+03  0.72495503202E+03  0.91705401740E+02 0.  0.
          2    1    3    3  502    0 -0.36774339519E+03  0.12453744026E+03 -0.16253385977E+03  0.42090620606E+03  0.00000000000E+00 0. -1.
         -1    1    3    3    0  502 -0.46430508251E+03  0.65577042737E+02 -0.22114784024E+03  0.51844568223E+03  0.00000000000E+00 0.  1.
         11    1    5    5    0    0  0.42423477762E+03  0.10872604842E+03  0.40310902349E+03  0.59522549086E+03  0.00000000000E+00 0.  1.
        -11    1    5    5    0    0  0.39414779955E+03  0.63010288312E+02  0.47905396522E+03  0.62355070838E+03  0.00000000000E+00 0. -1.
          3    1    6    6  503    0 -0.16094670963E+02 -0.12298603200E+03  0.14162631248E+03  0.18826209094E+03  0.00000000000E+00 0. -1.
         -3    1    6    6    0  503  0.29760571492E+02 -0.23886478773E+03  0.47968451567E+03  0.53669294108E+03  0.00000000000E+00 0.  1.
<mgrwt>
<rscale>  0 0.26567337E+04</rscale>
<asrwt>0</asrwt>
<pdfrwt beam="1">  1        2 0.30791348E+00 0.26567337E+04</pdfrwt>
<pdfrwt beam="2">  1       -1 0.13563777E+00 0.26567337E+04</pdfrwt>
<totfact> 0.30400154E+00</totfact>
</mgrwt>
</event>
<event>
12    6  0.1462228E-007  0.1340806E+04  0.7818608E-02  0.8997817E-01
         -1   -1    0    0    0  501 -0.00000000000E+00  0.00000000000E+00  0.12990983354E+04  0.12990983354E+04  0.00000000000E+00 0.  1.
          2   -1    0    0  501    0  0.00000000000E+00 -0.00000000000E+00 -0.34596335821E+03  0.34596335821E+03  0.00000000000E+00 0. -1.
         24    2    1    2    0    0 -0.14447584421E+03  0.32644061622E+03  0.19308886913E+03  0.41361986669E+03  0.79757991804E+02 0.  0.
        254    2    1    2    0    0  0.14447584421E+03 -0.32644061622E+03  0.76004610805E+03  0.12314418269E+04  0.90074532540E+03 0.  0.
         23    2    4    4    0    0 -0.17088826131E+03 -0.53656764173E+01 -0.12751121109E+03  0.23227129083E+03  0.91974209700E+02 0.  0.
         23    2    4    4    0    0  0.31536410552E+03 -0.32107493981E+03  0.88755731914E+03  0.99917053609E+03  0.89666768629E+02 0.  0.
          4    1    3    3  502    0 -0.18711601512E-01 -0.17369721738E+01 -0.40702350377E+01  0.44254079720E+01  0.00000000000E+00 0. -1.
         -3    1    3    3    0  502 -0.14445713261E+03  0.32817758840E+03  0.19715910416E+03  0.40919445871E+03  0.00000000000E+00 0.  1.
         11    1    5    5    0    0 -0.15195114546E+03  0.20568730275E+02 -0.12862215346E+03  0.20013965532E+03  0.00000000000E+00 0.  1.
        -11    1    5    5    0    0 -0.18937115849E+02 -0.25934406693E+02  0.11109423646E+01  0.32131635503E+02  0.00000000000E+00 0. -1.
          3    1    6    6  503    0 -0.17323359726E+01 -0.19316806103E+02  0.22767636736E+02  0.29908280935E+02  0.00000000000E+00 0. -1.
         -3    1    6    6    0  503  0.31709644149E+03 -0.30175813370E+03  0.86478968241E+03  0.96926225515E+03  0.00000000000E+00 0.  1.
<mgrwt>
<rscale>  0 0.13408064E+04</rscale>
<asrwt>0</asrwt>
<pdfrwt beam="1">  1        2 0.53225133E-01 0.13408064E+04</pdfrwt>
<pdfrwt beam="2">  1       -1 0.19986128E+00 0.13408064E+04</pdfrwt>
<totfact> 0.15802247E+01</totfact>
</mgrwt>
</event>
<event>
12    6  0.1530556E-007  0.1366028E+04  0.7818608E-02  0.8978783E-01
         -1   -1    0    0    0  501 -0.00000000000E+00  0.00000000000E+00  0.43620689160E+03  0.43620689160E+03  0.00000000000E+00 0.  1.
          2   -1    0    0  501    0  0.00000000000E+00 -0.00000000000E+00 -0.10694655678E+04  0.10694655678E+04  0.00000000000E+00 0. -1.
         24    2    1    2    0    0 -0.22388406714E+03 -0.24166654046E+03 -0.35833311355E+03  0.49304577491E+03  0.78515753779E+02 0.  0.
        254    2    1    2    0    0  0.22388406714E+03  0.24166654046E+03 -0.27492556260E+03  0.10126266845E+04  0.91722513310E+03 0.  0.
         23    2    4    4    0    0 -0.32303606454E+03 -0.62473376526E+02 -0.94776164521E+02  0.35497567843E+03  0.93648220217E+02 0.  0.
         23    2    4    4    0    0  0.54692013167E+03  0.30413991699E+03 -0.18014939808E+03  0.65765100602E+03  0.91805885211E+02 0.  0.
          2    1    3    3  502    0 -0.21377843284E+03 -0.23210515165E+03 -0.30847534034E+03  0.44128341841E+03  0.00000000000E+00 0. -1.
         -1    1    3    3    0  502 -0.10105634300E+02 -0.95613888171E+01 -0.49857773209E+02  0.51762356496E+02  0.00000000000E+00 0.  1.
         11    1    5    5    0    0 -0.21869491176E+03 -0.76568837657E+02 -0.92981645786E+02  0.24967145968E+03  0.00000000000E+00 0. -1.
        -11    1    5    5    0    0 -0.10434115278E+03  0.14095461131E+02 -0.17945187353E+01  0.10530421874E+03  0.00000000000E+00 0.  1.
          4    1    6    6  503    0  0.49632671409E+03  0.29511645032E+03 -0.14492487599E+03  0.59534624047E+03  0.00000000000E+00 0. -1.
         -4    1    6    6    0  503  0.50593417585E+02  0.90234666690E+01 -0.35224522088E+02  0.62304765548E+02  0.00000000000E+00 0.  1.
<mgrwt>
<rscale>  0 0.13660282E+04</rscale>
<asrwt>0</asrwt>
<pdfrwt beam="1">  1        2 0.16453316E+00 0.13660282E+04</pdfrwt>
<pdfrwt beam="2">  1       -1 0.67108753E-01 0.13660282E+04</pdfrwt>
<totfact> 0.56974772E+01</totfact>
</mgrwt>
</event>
<event>
12    6  0.1462228E-007  0.1095551E+04  0.7818608E-02  0.9209539E-01
          2   -1    0    0  501    0  0.00000000000E+00  0.00000000000E+00  0.86744510332E+03  0.86744510332E+03  0.00000000000E+00 0. -1.
         -1   -1    0    0    0  501 -0.00000000000E+00 -0.00000000000E+00 -0.34590984602E+03  0.34590984602E+03  0.00000000000E+00 0.  1.
         24    2    1    2    0    0 -0.59628384364E+02 -0.56900195860E+02 -0.16871839070E+03  0.20431671444E+03  0.80537245590E+02 0.  0.
        254    2    1    2    0    0  0.59628384364E+02  0.56900195860E+02  0.69025364800E+03  0.10090382349E+04  0.73137875579E+03 0.  0.
         23    2    4    4    0    0 -0.16656164345E+03 -0.21496420321E+03  0.54156827030E+03  0.61331562120E+03  0.94379394382E+02 0.  0.
         23    2    4    4    0    0  0.22619002782E+03  0.27186439907E+03  0.14868537770E+03  0.39572261371E+03  0.97040534289E+02 0.  0.
          4    1    3    3  502    0  0.33081723963E+00 -0.29101216829E+02 -0.74649937692E+01  0.30045239106E+02  0.00000000000E+00 0. -1.
         -3    1    3    3    0  502 -0.59959201604E+02 -0.27798979030E+02 -0.16125339694E+03  0.17427147533E+03  0.00000000000E+00 0.  1.
         11    1    5    5    0    0 -0.62488768583E+02 -0.70029038299E+02  0.10043659330E+03  0.13746425600E+03  0.00000000000E+00 0. -1.
        -11    1    5    5    0    0 -0.10407287487E+03 -0.14493516491E+03  0.44113167700E+03  0.47585136520E+03  0.00000000000E+00 0.  1.
          4    1    6    6  503    0  0.10080729624E+03  0.17588671829E+03  0.11894746549E+03  0.23504626819E+03  0.00000000000E+00 0.  1.
         -4    1    6    6    0  503  0.12538273158E+03  0.95977680773E+02  0.29737912217E+02  0.16067634551E+03  0.00000000000E+00 0. -1.
<mgrwt>
<rscale>  0 0.10955506E+04</rscale>
<asrwt>0</asrwt>
<pdfrwt beam="1">  1        2 0.13345309E+00 0.10955506E+04</pdfrwt>
<pdfrwt beam="2">  1       -1 0.53216900E-01 0.10955506E+04</pdfrwt>
<totfact> 0.12454464E+02</totfact>
</mgrwt>
</event>
<event>
12    6  0.1462228E-007  0.1707571E+04  0.7818608E-02  0.8757058E-01
         -1   -1    0    0    0  501 -0.00000000000E+00  0.00000000000E+00  0.26666189717E+03  0.26666189717E+03  0.00000000000E+00 0.  1.
          2   -1    0    0  501    0  0.00000000000E+00 -0.00000000000E+00 -0.27336095030E+04  0.27336095030E+04  0.00000000000E+00 0. -1.
         24    2    1    2    0    0 -0.13363701125E+03  0.43529618759E+03 -0.17505117065E+03  0.49304074478E+03  0.71446777140E+02 0.  0.
        254    2    1    2    0    0  0.13363701125E+03 -0.43529618759E+03 -0.22918964351E+04  0.25072306554E+04  0.90888649900E+03 0.  0.
         23    2    4    4    0    0 -0.27207922716E+03 -0.69265089260E+02 -0.15680293478E+04  0.15955152661E+04  0.90156365237E+02 0.  0.
         23    2    4    4    0    0  0.40571623841E+03 -0.36603109833E+03 -0.72386708731E+03  0.91171538928E+03  0.93042785374E+02 0.  0.
          4    1    3    3  502    0 -0.10893333903E+03  0.26432491885E+03 -0.13264705780E+03  0.31516563427E+03  0.00000000000E+00 0. -1.
         -3    1    3    3    0  502 -0.24703672217E+02  0.17097126873E+03 -0.42404112844E+02  0.17787511051E+03  0.00000000000E+00 0.  1.
         11    1    5    5    0    0 -0.23035140833E+03 -0.89889259398E+02 -0.12661984723E+04  0.12901164372E+04  0.00000000000E+00 0.  1.
        -11    1    5    5    0    0 -0.41727818823E+02  0.20624170138E+02 -0.30183087555E+03  0.30539882890E+03  0.00000000000E+00 0. -1.
          3    1    6    6  503    0  0.84883075807E-01  0.43462693973E+01 -0.10597817209E+02  0.11454736680E+02  0.00000000000E+00 0. -1.
         -3    1    6    6    0  503  0.40563135533E+03 -0.37037736772E+03 -0.71326927010E+03  0.90026065260E+03  0.00000000000E+00 0.  1.
<mgrwt>
<rscale>  0 0.17075708E+04</rscale>
<asrwt>0</asrwt>
<pdfrwt beam="1">  1        2 0.42055534E+00 0.17075708E+04</pdfrwt>
<pdfrwt beam="2">  1       -1 0.41024904E-01 0.17075708E+04</pdfrwt>
<totfact> 0.16008774E+01</totfact>
</mgrwt>
</event>
<event>
12    6  0.1462228E-007  0.1673489E+04  0.7818608E-02  0.8776631E-01
          2   -1    0    0  501    0  0.00000000000E+00  0.00000000000E+00  0.35742087071E+04  0.35742087071E+04  0.00000000000E+00 0. -1.
         -1   -1    0    0    0  501 -0.00000000000E+00 -0.00000000000E+00 -0.19588710905E+03  0.19588710905E+03  0.00000000000E+00 0.  1.
         24    2    1    2    0    0 -0.21251406222E+03  0.54846355447E+03  0.11327918699E+04  0.12790114322E+04  0.81721024273E+02 0.  0.
        254    2    1    2    0    0  0.21251406222E+03 -0.54846355447E+03  0.22455297281E+04  0.24910843840E+04  0.90394864403E+03 0.  0.
         23    2    4    4    0    0  0.32617142660E+03 -0.56522448448E+02  0.17293234039E+04  0.17631700805E+04  0.92880087545E+02 0.  0.
         23    2    4    4    0    0 -0.11365736438E+03 -0.49194110603E+03  0.51620632418E+03  0.72791430349E+03  0.92012041720E+02 0.  0.
          4    1    3    3  502    0 -0.10547013686E+03  0.21656605575E+03  0.53919038092E+03  0.59055149915E+03  0.00000000000E+00 0. -1.
         -3    1    3    3    0  502 -0.10704392536E+03  0.33189749872E+03  0.59360148903E+03  0.68845993303E+03  0.00000000000E+00 0.  1.
         11    1    5    5    0    0  0.84035902908E+02 -0.51915227295E+02  0.61011355066E+03  0.61805806241E+03  0.00000000000E+00 0.  1.
        -11    1    5    5    0    0  0.24213552369E+03 -0.46072211524E+01  0.11192098532E+04  0.11451120181E+04  0.00000000000E+00 0. -1.
          1    1    6    6  503    0 -0.39348024087E+02 -0.23524878878E+03  0.30563438866E+03  0.38768884321E+03  0.00000000000E+00 0. -1.
         -1    1    6    6    0  503 -0.74309340293E+02 -0.25669231725E+03  0.21057193552E+03  0.34022546027E+03  0.00000000000E+00 0.  1.
<mgrwt>
<rscale>  0 0.16734891E+04</rscale>
<asrwt>0</asrwt>
<pdfrwt beam="1">  1        2 0.54987821E+00 0.16734891E+04</pdfrwt>
<pdfrwt beam="2">  1       -1 0.30136481E-01 0.16734891E+04</pdfrwt>
<totfact> 0.80080126E+00</totfact>
</mgrwt>
</event>
<event>
12    6  0.1462228E-007  0.2484332E+04  0.7818608E-02  0.8408589E-01
         -1   -1    0    0    0  501 -0.00000000000E+00  0.00000000000E+00  0.58447730041E+03  0.58447730041E+03  0.00000000000E+00 0.  1.
          2   -1    0    0  501    0  0.00000000000E+00 -0.00000000000E+00 -0.26399244383E+04  0.26399244383E+04  0.00000000000E+00 0. -1.
         24    2    1    2    0    0  0.24687232304E+03  0.10321954307E+04 -0.11333539455E+04  0.15547383929E+04  0.79667769850E+02 0.  0.
        254    2    1    2    0    0 -0.24687232304E+03 -0.10321954307E+04 -0.92209319241E+03  0.16696633458E+04  0.90063670907E+03 0.  0.
         23    2    4    4    0    0  0.67797340514E+02  0.77794995666E+02  0.62452773332E+02  0.15017887424E+03  0.89469573812E+02 0.  0.
         23    2    4    4    0    0 -0.31466966356E+03 -0.11099904264E+04 -0.98454596574E+03  0.15194844716E+04  0.91687277313E+02 0.  0.
          4    1    3    3  502    0  0.10420860270E+03  0.42131739233E+03 -0.52105394786E+03  0.67813346366E+03  0.00000000000E+00 0. -1.
         -3    1    3    3    0  502  0.14266372034E+03  0.61087803838E+03 -0.61229999761E+03  0.87660492924E+03  0.00000000000E+00 0.  1.
         11    1    5    5    0    0  0.39174078683E+02  0.86218239125E+02  0.71877420296E+02  0.11888884198E+03  0.00000000000E+00 0. -1.
        -11    1    5    5    0    0  0.28623261831E+02 -0.84232434589E+01 -0.94246469641E+01  0.31290032257E+02  0.00000000000E+00 0.  1.
          3    1    6    6  503    0 -0.31237391911E+03 -0.11064186858E+04 -0.98641569974E+03  0.15148451097E+04  0.00000000000E+00 0. -1.
         -3    1    6    6    0  503 -0.22957444508E+01 -0.35717405626E+01  0.18697340030E+01  0.46393618604E+01  0.00000000000E+00 0.  1.
<mgrwt>
<rscale>  0 0.24843316E+04</rscale>
<asrwt>0</asrwt>
<pdfrwt beam="1">  1        2 0.40614221E+00 0.24843316E+04</pdfrwt>
<pdfrwt beam="2">  1       -1 0.89919586E-01 0.24843316E+04</pdfrwt>
<totfact> 0.35433415E+00</totfact>
</mgrwt>
</event>
<event>
12    6  0.1462228E-007  0.1388976E+04  0.7818608E-02  0.8961837E-01
         -1   -1    0    0    0  501 -0.00000000000E+00  0.00000000000E+00  0.96508168036E+03  0.96508168036E+03  0.00000000000E+00 0.  1.
          2   -1    0    0  501    0  0.00000000000E+00 -0.00000000000E+00 -0.49976451033E+03  0.49976451033E+03  0.00000000000E+00 0. -1.
         24    2    1    2    0    0  0.30927918377E+03 -0.55638369711E+02  0.40739844123E+03  0.52106383349E+03  0.82369818224E+02 0.  0.
        254    2    1    2    0    0 -0.30927918377E+03  0.55638369711E+02  0.57918728795E+02  0.94378235720E+03  0.88804353323E+03 0.  0.
         23    2    4    4    0    0 -0.31248867371E+02 -0.34342421350E+03 -0.17731233585E+03  0.39659040984E+03  0.83232244969E+02 0.  0.
         23    2    4    4    0    0 -0.27803031640E+03  0.39906258321E+03  0.23523106465E+03  0.54719194735E+03  0.86796148038E+02 0.  0.
          2    1    3    3  502    0  0.10090731028E+03 -0.29812123053E+02  0.80236841124E+02  0.13232157277E+03  0.00000000000E+00 0. -1.
         -1    1    3    3    0  502  0.20837187350E+03 -0.25826246658E+02  0.32716160011E+03  0.38874226072E+03  0.00000000000E+00 0.  1.
         11    1    5    5    0    0 -0.41022339661E+02 -0.30788889439E+03 -0.18108722259E+03  0.35954274547E+03  0.00000000000E+00 0. -1.
        -11    1    5    5    0    0  0.97734722895E+01 -0.35535319117E+02  0.37748867390E+01  0.37047664369E+02  0.00000000000E+00 0.  1.
          1    1    6    6  503    0 -0.15104770842E+03  0.27602126760E+03  0.17710700220E+03  0.36106791690E+03  0.00000000000E+00 0. -1.
         -1    1    6    6    0  503 -0.12698260798E+03  0.12304131562E+03  0.58124062450E+02  0.18612403046E+03  0.00000000000E+00 0.  1.
<mgrwt>
<rscale>  0 0.13889760E+04</rscale>
<asrwt>0</asrwt>
<pdfrwt beam="1">  1        2 0.76886848E-01 0.13889760E+04</pdfrwt>
<pdfrwt beam="2">  1       -1 0.14847410E+00 0.13889760E+04</pdfrwt>
<totfact> 0.24614341E+01</totfact>
</mgrwt>
</event>
<event>
12    6  0.1462228E-007  0.1447678E+04  0.7818608E-02  0.8920012E-01
         -1   -1    0    0    0  501 -0.00000000000E+00  0.00000000000E+00  0.20362683456E+04  0.20362683456E+04  0.00000000000E+00 0.  1.
          2   -1    0    0  501    0  0.00000000000E+00 -0.00000000000E+00 -0.25730544468E+03  0.25730544468E+03  0.00000000000E+00 0. -1.
         24    2    1    2    0    0 -0.14627779887E+03  0.92357665401E+02 -0.84656246697E+02  0.20908127676E+03  0.81370556018E+02 0.  0.
        254    2    1    2    0    0  0.14627779887E+03 -0.92357665401E+02  0.18636191476E+04  0.20844925135E+04  0.91766310743E+03 0.  0.
         23    2    4    4    0    0 -0.52063322171E+02  0.23875522751E+03  0.15707888809E+04  0.15922817195E+04  0.90932489980E+02 0.  0.
         23    2    4    4    0    0  0.19834112104E+03 -0.33111289291E+03  0.29283026668E+03  0.49221079397E+03  0.86873197663E+02 0.  0.
          2    1    3    3  502    0 -0.14129445115E+03  0.52478680996E+02 -0.71228903640E+02  0.16670839990E+03  0.00000000000E+00 0. -1.
         -1    1    3    3    0  502 -0.49833477219E+01  0.39878984405E+02 -0.13427343057E+02  0.42372876859E+02  0.00000000000E+00 0.  1.
         11    1    5    5    0    0 -0.11917709237E+02  0.16943240629E+03  0.83186097560E+03  0.84902417800E+03  0.00000000000E+00 0.  1.
        -11    1    5    5    0    0 -0.40145612934E+02  0.69322821217E+02  0.73892790534E+03  0.74325754155E+03  0.00000000000E+00 0. -1.
          1    1    6    6  503    0  0.19760711415E+03 -0.28184712508E+03  0.23794736268E+03  0.41845587687E+03  0.00000000000E+00 0. -1.
         -1    1    6    6    0  503  0.73400689284E+00 -0.49265767832E+02  0.54882903994E+02  0.73754917105E+02  0.00000000000E+00 0.  1.
<mgrwt>
<rscale>  0 0.14476780E+04</rscale>
<asrwt>0</asrwt>
<pdfrwt beam="1">  1        2 0.39585454E-01 0.14476780E+04</pdfrwt>
<pdfrwt beam="2">  1       -1 0.31327204E+00 0.14476780E+04</pdfrwt>
<totfact> 0.39360809E+00</totfact>
</mgrwt>
</event>
<event>
12    6  0.1462228E-007  0.1630100E+04  0.7818608E-02  0.8802267E-01
         -1   -1    0    0    0  501 -0.00000000000E+00  0.00000000000E+00  0.30758952097E+03  0.30758952097E+03  0.00000000000E+00 0.  1.
          2   -1    0    0  501    0  0.00000000000E+00 -0.00000000000E+00 -0.21597170778E+04  0.21597170778E+04  0.00000000000E+00 0. -1.
         24    2    1    2    0    0  0.50602350087E+02  0.67027003066E+02  0.19613405668E+03  0.22761521250E+03  0.79289972883E+02 0.  0.
        254    2    1    2    0    0 -0.50602350087E+02 -0.67027003066E+02 -0.20482616135E+04  0.22396913863E+04  0.90210235084E+03 0.  0.
         23    2    4    4    0    0 -0.13141078118E+03  0.37341259476E+03 -0.13111179169E+04  0.13724152076E+04  0.88247100087E+02 0.  0.
         23    2    4    4    0    0  0.80808431094E+02 -0.44043959782E+03 -0.73714369662E+03  0.86727617870E+03  0.90940083566E+02 0.  0.
          2    1    3    3  502    0 -0.18275362585E+02  0.84713363356E+00  0.47859118780E+02  0.51236722801E+02  0.00000000000E+00 0. -1.
         -1    1    3    3    0  502  0.68877712672E+02  0.66179869433E+02  0.14827493790E+03  0.17637848970E+03  0.00000000000E+00 0.  1.
         11    1    5    5    0    0 -0.98960989591E+01  0.21232299483E+02 -0.29072303676E+02  0.37335534775E+02  0.00000000000E+00 0.  1.
        -11    1    5    5    0    0 -0.12151468222E+03  0.35218029527E+03 -0.12820456132E+04  0.13350796728E+04  0.00000000000E+00 0. -1.
          3    1    6    6  503    0 -0.38686250486E+01 -0.16400584470E+03 -0.32198456726E+03  0.36136815702E+03  0.00000000000E+00 0. -1.
         -3    1    6    6    0  503  0.84677056142E+02 -0.27643375313E+03 -0.41515912936E+03  0.50590802168E+03  0.00000000000E+00 0.  1.
<mgrwt>
<rscale>  0 0.16300998E+04</rscale>
<asrwt>0</asrwt>
<pdfrwt beam="1">  1        2 0.33226415E+00 0.16300998E+04</pdfrwt>
<pdfrwt beam="2">  1       -1 0.47321467E-01 0.16300998E+04</pdfrwt>
<totfact> 0.26428040E+01</totfact>
</mgrwt>
</event>
<event>
12    6  0.1462228E-007  0.2595077E+04  0.7818608E-02  0.8369875E-01
         -1   -1    0    0    0  501 -0.00000000000E+00  0.00000000000E+00  0.75455551577E+03  0.75455551577E+03  0.00000000000E+00 0.  1.
          2   -1    0    0  501    0  0.00000000000E+00 -0.00000000000E+00 -0.22312558436E+04  0.22312558436E+04  0.00000000000E+00 0. -1.
         24    2    1    2    0    0  0.57616363413E+02  0.50211209785E+03  0.52582942765E+03  0.73562815171E+03  0.95999929482E+02 0.  0.
        254    2    1    2    0    0 -0.57616363413E+02 -0.50211209785E+03 -0.20025297555E+04  0.22501832077E+04  0.89317570630E+03 0.  0.
         23    2    4    4    0    0  0.10649973067E+03  0.17944789779E+03 -0.98947306656E+03  0.10150847926E+04  0.88297486581E+02 0.  0.
         23    2    4    4    0    0 -0.16411609408E+03 -0.68155999564E+03 -0.10130566890E+04  0.12350984151E+04  0.87898349545E+02 0.  0.
          4    1    3    3  502    0 -0.88662077132E+01  0.10644808115E+01  0.10842258173E+02  0.14046256473E+02  0.00000000000E+00 0. -1.
         -3    1    3    3    0  502  0.66482571126E+02  0.50104761704E+03  0.51498716948E+03  0.72158189524E+03  0.00000000000E+00 0.  1.
         11    1    5    5    0    0  0.84019415968E+02  0.15700851482E+03 -0.93680766883E+03  0.95358247906E+03  0.00000000000E+00 0.  1.
        -11    1    5    5    0    0  0.22480314702E+02  0.22439382975E+02 -0.52665397727E+02  0.61502313575E+02  0.00000000000E+00 0. -1.
          3    1    6    6  503    0 -0.11131737962E+03 -0.29371517763E+03 -0.41843906010E+03  0.52321258738E+03  0.00000000000E+00 0. -1.
         -3    1    6    6    0  503 -0.52798714467E+02 -0.38784481801E+03 -0.59461762886E+03  0.71188582769E+03  0.00000000000E+00 0.  1.
<mgrwt>
<rscale>  0 0.25950772E+04</rscale>
<asrwt>0</asrwt>
<pdfrwt beam="1">  1        2 0.34327013E+00 0.25950772E+04</pdfrwt>
<pdfrwt beam="2">  1       -1 0.11608546E+00 0.25950772E+04</pdfrwt>
<totfact> 0.33487492E+00</totfact>
</mgrwt>
</event>
<event>
12    6  0.1462228E-007  0.1860735E+04  0.7818608E-02  0.8674652E-01
         -1   -1    0    0    0  501 -0.00000000000E+00  0.00000000000E+00  0.11381361325E+04  0.11381361325E+04  0.00000000000E+00 0.  1.
          2   -1    0    0  501    0  0.00000000000E+00 -0.00000000000E+00 -0.76052746840E+03  0.76052746840E+03  0.00000000000E+00 0. -1.
         24    2    1    2    0    0  0.52922953759E+03 -0.37152489257E+03  0.42496943909E+03  0.77807216869E+03  0.81747331898E+02 0.  0.
        254    2    1    2    0    0 -0.52922953759E+03  0.37152489257E+03 -0.47360774956E+02  0.11205914323E+04  0.91398439034E+03 0.  0.
         23    2    4    4    0    0 -0.20342874876E+03 -0.20896768279E+03  0.24154690384E+03  0.38998125279E+03  0.93218681099E+02 0.  0.
         23    2    4    4    0    0 -0.32580078883E+03  0.58049257536E+03 -0.28890767879E+03  0.73061017946E+03  0.84887003798E+02 0.  0.
          4    1    3    3  502    0  0.10649387017E+03 -0.37787870329E+02  0.80482278420E+02  0.13873090740E+03  0.00000000000E+00 0. -1.
         -3    1    3    3    0  502  0.42273566741E+03 -0.33373702224E+03  0.34448716067E+03  0.63934126129E+03  0.00000000000E+00 0.  1.
         11    1    5    5    0    0 -0.18813831665E+03 -0.19735198939E+03  0.24912937154E+03  0.36933626639E+03  0.00000000000E+00 0. -1.
        -11    1    5    5    0    0 -0.15290432111E+02 -0.11615693396E+02 -0.75824676998E+01  0.20644986405E+02  0.00000000000E+00 0.  1.
          2    1    6    6  503    0 -0.19161761318E+03  0.42006264365E+03 -0.19033109400E+03  0.49939549419E+03  0.00000000000E+00 0. -1.
         -2    1    6    6    0  503 -0.13418317565E+03  0.16042993171E+03 -0.98576584799E+02  0.23121468527E+03  0.00000000000E+00 0.  1.
<mgrwt>
<rscale>  0 0.18607351E+04</rscale>
<asrwt>0</asrwt>
<pdfrwt beam="1">  1        2 0.11700423E+00 0.18607351E+04</pdfrwt>
<pdfrwt beam="2">  1       -1 0.17509787E+00 0.18607351E+04</pdfrwt>
<totfact> 0.89180536E+00</totfact>
</mgrwt>
</event>
<event>
12    6  0.1462228E-007  0.1288332E+04  0.7818608E-02  0.9038870E-01
          2   -1    0    0  501    0  0.00000000000E+00  0.00000000000E+00  0.11007182135E+04  0.11007182135E+04  0.00000000000E+00 0. -1.
         -1   -1    0    0    0  501 -0.00000000000E+00 -0.00000000000E+00 -0.37698079046E+03  0.37698079046E+03  0.00000000000E+00 0.  1.
         24    2    1    2    0    0  0.14127129806E+03 -0.84347517271E+02 -0.12743030215E+03  0.22255563269E+03  0.78869794050E+02 0.  0.
        254    2    1    2    0    0 -0.14127129806E+03  0.84347517271E+02  0.85116772520E+03  0.12551433713E+04  0.90764877718E+03 0.  0.
         23    2    4    4    0    0 -0.18725266008E+02  0.12222187335E+03 -0.16611572204E+03  0.22569794312E+03  0.89756930129E+02 0.  0.
         23    2    4    4    0    0 -0.12254603205E+03 -0.37874356079E+02  0.10172834472E+04  0.10294454282E+04  0.91871000394E+02 0.  0.
          2    1    3    3  502    0  0.53571320871E+02 -0.30863653736E+02 -0.39750784279E+01  0.61953634198E+02  0.00000000000E+00 0. -1.
         -1    1    3    3    0  502  0.87699977186E+02 -0.53483863535E+02 -0.12345522372E+03  0.16060199849E+03  0.00000000000E+00 0.  1.
         11    1    5    5    0    0 -0.55066133618E+02  0.79416154600E+02 -0.10494891326E+03  0.14266561982E+03  0.00000000000E+00 0. -1.
        -11    1    5    5    0    0  0.36340867610E+02  0.42805718750E+02 -0.61166808779E+02  0.83032323300E+02  0.00000000000E+00 0.  1.
          4    1    6    6  503    0 -0.69661340745E+02 -0.52094701802E+02  0.82322444762E+03  0.82780737585E+03  0.00000000000E+00 0. -1.
         -4    1    6    6    0  503 -0.52884691303E+02  0.14220345723E+02  0.19405899962E+03  0.20163805231E+03  0.00000000000E+00 0.  1.
<mgrwt>
<rscale>  0 0.12883317E+04</rscale>
<asrwt>0</asrwt>
<pdfrwt beam="1">  1        2 0.16934126E+00 0.12883317E+04</pdfrwt>
<pdfrwt beam="2">  1       -1 0.57997045E-01 0.12883317E+04</pdfrwt>
<totfact> 0.73327523E+01</totfact>
</mgrwt>
</event>
<event>
12    6  0.1462228E-007  0.2524520E+04  0.7818608E-02  0.8394302E-01
         -3   -1    0    0    0  501 -0.00000000000E+00  0.00000000000E+00  0.27813641728E+04  0.27813641728E+04  0.00000000000E+00 0.  1.
          4   -1    0    0  501    0  0.00000000000E+00 -0.00000000000E+00 -0.57284865125E+03  0.57284865125E+03  0.00000000000E+00 0. -1.
         24    2    1    2    0    0 -0.79913844761E+02 -0.19941390535E+03  0.24038159791E+04  0.24147075640E+04  0.79556460638E+02 0.  0.
        254    2    1    2    0    0  0.79913844761E+02  0.19941390535E+03 -0.19530045751E+03  0.93950526001E+03  0.89351873883E+03 0.  0.
         23    2    4    4    0    0 -0.20897853232E+03  0.36388421983E+02  0.27313026688E+03  0.35904368645E+03  0.96519852217E+02 0.  0.
         23    2    4    4    0    0  0.28889237708E+03  0.16302548337E+03 -0.46843072438E+03  0.58046157356E+03  0.86441778484E+02 0.  0.
          2    1    3    3  502    0  0.21731301423E+01 -0.75872097607E+02  0.59535728229E+03  0.60017630016E+03  0.00000000000E+00 0. -1.
         -1    1    3    3    0  502 -0.82086974904E+02 -0.12354180774E+03  0.18084586968E+04  0.18145312639E+04  0.00000000000E+00 0.  1.
         11    1    5    5    0    0 -0.11008585581E+03 -0.26442674343E+02  0.10719433140E+03  0.15591258884E+03  0.00000000000E+00 0. -1.
        -11    1    5    5    0    0 -0.98892676510E+02  0.62831096327E+02  0.16593593548E+03  0.20313109761E+03  0.00000000000E+00 0.  1.
          3    1    6    6  503    0 -0.43692154149E+01 -0.23584638247E+01 -0.14315247984E+02  0.15151855325E+02  0.00000000000E+00 0. -1.
         -3    1    6    6    0  503  0.29326159250E+03  0.16538394719E+03 -0.45411547640E+03  0.56530971823E+03  0.00000000000E+00 0.  1.
<mgrwt>
<rscale>  0 0.25245203E+04</rscale>
<asrwt>0</asrwt>
<pdfrwt beam="1">  1        4 0.88130563E-01 0.25245203E+04</pdfrwt>
<pdfrwt beam="2">  1       -3 0.42790217E+00 0.25245203E+04</pdfrwt>
<totfact> 0.16812134E-02</totfact>
</mgrwt>
</event>
<event>
12    6  0.1462228E-007  0.1330021E+04  0.7818608E-02  0.9006091E-01
         -1   -1    0    0    0  501 -0.00000000000E+00  0.00000000000E+00  0.13730697299E+04  0.13730697299E+04  0.00000000000E+00 0.  1.
          2   -1    0    0  501    0  0.00000000000E+00 -0.00000000000E+00 -0.32208054396E+03  0.32208054396E+03  0.00000000000E+00 0. -1.
         24    2    1    2    0    0  0.27323573270E+03 -0.12434701137E+03  0.69713172833E+02  0.31824443011E+03  0.79370309142E+02 0.  0.
        254    2    1    2    0    0 -0.27323573270E+03  0.12434701137E+03  0.98127601314E+03  0.13769058438E+04  0.91806706935E+03 0.  0.
         23    2    4    4    0    0 -0.32308009463E+03  0.44122882847E+03  0.32931315276E+03  0.64461546585E+03  0.89545070289E+02 0.  0.
         23    2    4    4    0    0  0.49844361938E+02 -0.31688181711E+03  0.65196286038E+03  0.73229037793E+03  0.91077329078E+02 0.  0.
          2    1    3    3  502    0  0.21842526911E+03 -0.11733294798E+03  0.82897879682E+02  0.26143579962E+03  0.00000000000E+00 0. -1.
         -1    1    3    3    0  502  0.54810463585E+02 -0.70140633882E+01 -0.13184706849E+02  0.56808630492E+02  0.00000000000E+00 0.  1.
         11    1    5    5    0    0 -0.85574463964E+02  0.18481927141E+03  0.13982781416E+03  0.24704851665E+03  0.00000000000E+00 0.  1.
        -11    1    5    5    0    0 -0.23750563067E+03  0.25640955706E+03  0.18948533860E+03  0.39756694920E+03  0.00000000000E+00 0. -1.
          1    1    6    6  503    0  0.46191804040E+02 -0.22036739086E+03  0.53602367967E+03  0.58139216961E+03  0.00000000000E+00 0. -1.
         -1    1    6    6    0  503  0.36525578978E+01 -0.96514426241E+02  0.11593918071E+03  0.15089820832E+03  0.00000000000E+00 0.  1.
<mgrwt>
<rscale>  0 0.13300211E+04</rscale>
<asrwt>0</asrwt>
<pdfrwt beam="1">  1        2 0.49550854E-01 0.13300211E+04</pdfrwt>
<pdfrwt beam="2">  1       -1 0.21124149E+00 0.13300211E+04</pdfrwt>
<totfact> 0.14327316E+01</totfact>
</mgrwt>
</event>
<event>
12    6  0.1462228E-007  0.2566935E+04  0.7818608E-02  0.8379520E-01
          2   -1    0    0  501    0  0.00000000000E+00  0.00000000000E+00  0.10785004129E+04  0.10785004129E+04  0.00000000000E+00 0. -1.
         -1   -1    0    0    0  501 -0.00000000000E+00 -0.00000000000E+00 -0.15273887596E+04  0.15273887596E+04  0.00000000000E+00 0.  1.
         24    2    1    2    0    0  0.61309207396E+03 -0.12870016626E+03 -0.11300878643E+04  0.12945164995E+04  0.78922509657E+02 0.  0.
        254    2    1    2    0    0 -0.61309207396E+03  0.12870016626E+03  0.68119951749E+03  0.13113726730E+04  0.92909627107E+03 0.  0.
         23    2    4    4    0    0 -0.34839994651E+03 -0.15296327983E+03 -0.12663109372E+03  0.41149655708E+03  0.92269685649E+02 0.  0.
         23    2    4    4    0    0 -0.26469212745E+03  0.28166344609E+03  0.80783061122E+03  0.89987611591E+03  0.88263856559E+02 0.  0.
          4    1    3    3  502    0  0.12169260663E+03 -0.28893167727E+02 -0.29546539052E+03  0.32084841069E+03  0.00000000000E+00 0. -1.
         -3    1    3    3    0  502  0.49139946733E+03 -0.99806998532E+02 -0.83462247376E+03  0.97366808880E+03  0.00000000000E+00 0.  1.
         11    1    5    5    0    0 -0.34767705928E+03 -0.16093677663E+03 -0.12658747900E+03  0.40349023961E+03  0.00000000000E+00 0.  1.
        -11    1    5    5    0    0 -0.72288722724E+00  0.79734968012E+01 -0.43614722841E-01  0.80063174698E+01  0.00000000000E+00 0. -1.
          1    1    6    6  503    0 -0.17335606344E+01  0.31952093245E+02  0.92492967454E+02  0.97871806582E+02  0.00000000000E+00 0. -1.
         -1    1    6    6    0  503 -0.26295856682E+03  0.24971135285E+03  0.71533764376E+03  0.80200430933E+03  0.00000000000E+00 0.  1.
<mgrwt>
<rscale>  0 0.25669355E+04</rscale>
<asrwt>0</asrwt>
<pdfrwt beam="1">  1        2 0.16592314E+00 0.25669355E+04</pdfrwt>
<pdfrwt beam="2">  1       -1 0.23498289E+00 0.25669355E+04</pdfrwt>
<totfact> 0.19870818E+00</totfact>
</mgrwt>
</event>
<event>
12    6  0.1462228E-007  0.1092519E+04  0.7818608E-02  0.9212514E-01
          2   -1    0    0  501    0  0.00000000000E+00  0.00000000000E+00  0.90235844619E+03  0.90235844619E+03  0.00000000000E+00 0. -1.
         -1   -1    0    0    0  501 -0.00000000000E+00 -0.00000000000E+00 -0.33068866355E+03  0.33068866355E+03  0.00000000000E+00 0.  1.
         24    2    1    2    0    0  0.88826611344E+02  0.47202974748E+02 -0.47530666671E+02  0.13703695006E+03  0.80010459937E+02 0.  0.
        254    2    1    2    0    0 -0.88826611344E+02 -0.47202974748E+02  0.61920044931E+03  0.10960101597E+04  0.89872731460E+03 0.  0.
         23    2    4    4    0    0 -0.16569895441E+03  0.32220719673E+03  0.60092180997E+03  0.70756388641E+03  0.90917602981E+02 0.  0.
         23    2    4    4    0    0  0.76872343063E+02 -0.36941017147E+03  0.18278639335E+02  0.38844627328E+03  0.90460857027E+02 0.  0.
          4    1    3    3  502    0  0.99199828384E+02  0.39048056127E+02 -0.22819105015E+02  0.10902324611E+03  0.00000000000E+00 0. -1.
         -3    1    3    3    0  502 -0.10373217040E+02  0.81549186207E+01 -0.24711561655E+02  0.28013703948E+02  0.00000000000E+00 0.  1.
         11    1    5    5    0    0 -0.83000533209E+02  0.12866972871E+03  0.17534860873E+03  0.23279201486E+03  0.00000000000E+00 0.  1.
        -11    1    5    5    0    0 -0.82698421199E+02  0.19353746801E+03  0.42557320124E+03  0.47477187154E+03  0.00000000000E+00 0. -1.
          1    1    6    6  503    0  0.33066860867E+02 -0.87007626070E+02 -0.31699741844E+02  0.98329130550E+02  0.00000000000E+00 0. -1.
         -1    1    6    6    0  503  0.43805482196E+02 -0.28240254540E+03  0.49978381178E+02  0.29011714273E+03  0.00000000000E+00 0.  1.
<mgrwt>
<rscale>  0 0.10925195E+04</rscale>
<asrwt>0</asrwt>
<pdfrwt beam="1">  1        2 0.13882438E+00 0.10925195E+04</pdfrwt>
<pdfrwt beam="2">  1       -1 0.50875179E-01 0.10925195E+04</pdfrwt>
<totfact> 0.12851921E+02</totfact>
</mgrwt>
</event>
<event>
12    6  0.1462228E-007  0.2539907E+04  0.7818608E-02  0.8388905E-01
         -1   -1    0    0    0  501 -0.00000000000E+00  0.00000000000E+00  0.17347594424E+04  0.17347594424E+04  0.00000000000E+00 0.  1.
          2   -1    0    0  501    0  0.00000000000E+00 -0.00000000000E+00 -0.92968619805E+03  0.92968619805E+03  0.00000000000E+00 0. -1.
         24    2    1    2    0    0  0.15661734670E+03  0.10719597102E+04  0.61626874899E+03  0.12489390918E+04  0.80218889915E+02 0.  0.
        254    2    1    2    0    0 -0.15661734670E+03 -0.10719597102E+04  0.18880449533E+03  0.14155065486E+04  0.89128280478E+03 0.  0.
         23    2    4    4    0    0  0.74133829690E+02 -0.19342040791E+01  0.28856185880E+03  0.31252135592E+03  0.94350864845E+02 0.  0.
         23    2    4    4    0    0 -0.23075117639E+03 -0.10700255062E+04 -0.99757363473E+02  0.11029851927E+04  0.91782975251E+02 0.  0.
          4    1    3    3  502    0  0.89534038148E+01  0.16725288561E+02  0.20907094278E+01  0.19085852961E+02  0.00000000000E+00 0. -1.
         -3    1    3    3    0  502  0.14766394288E+03  0.10552344217E+04  0.61417803956E+03  0.12298532388E+04  0.00000000000E+00 0.  1.
         11    1    5    5    0    0  0.81315798717E+02 -0.21423949843E+02  0.14625112924E+03  0.16870280837E+03  0.00000000000E+00 0.  1.
        -11    1    5    5    0    0 -0.71819690277E+01  0.19489745764E+02  0.14231072957E+03  0.14381854755E+03  0.00000000000E+00 0. -1.
          3    1    6    6  503    0 -0.12164223226E+03 -0.75481688759E+03 -0.56626904074E+02  0.76664983710E+03  0.00000000000E+00 0. -1.
         -3    1    6    6    0  503 -0.10910894413E+03 -0.31520861858E+03 -0.43130459399E+02  0.33633535563E+03  0.00000000000E+00 0.  1.
<mgrwt>
<rscale>  0 0.25399070E+04</rscale>
<asrwt>0</asrwt>
<pdfrwt beam="1">  1        2 0.14302865E+00 0.25399070E+04</pdfrwt>
<pdfrwt beam="2">  1       -1 0.26688607E+00 0.25399070E+04</pdfrwt>
<totfact> 0.15364860E+00</totfact>
</mgrwt>
</event>
<event>
12    6  0.1462228E-007  0.2601861E+04  0.7818608E-02  0.8367569E-01
          2   -1    0    0  501    0  0.00000000000E+00  0.00000000000E+00  0.77664660408E+03  0.77664660408E+03  0.00000000000E+00 0. -1.
         -1   -1    0    0    0  501 -0.00000000000E+00 -0.00000000000E+00 -0.21791375671E+04  0.21791375671E+04  0.00000000000E+00 0.  1.
         24    2    1    2    0    0 -0.41882383860E+03 -0.21957186685E+02 -0.18234756805E+04  0.18727131789E+04  0.78074112453E+02 0.  0.
        254    2    1    2    0    0  0.41882383860E+03  0.21957186685E+02  0.42098471748E+03  0.10830709923E+04  0.90549385213E+03 0.  0.
         23    2    4    4    0    0  0.15552683492E+03 -0.42047835976E+03  0.30219004607E+03  0.54755765346E+03  0.86659751405E+02 0.  0.
         23    2    4    4    0    0  0.26329700368E+03  0.44243554644E+03  0.11879467142E+03  0.53551333887E+03  0.87108192746E+02 0.  0.
          4    1    3    3  502    0 -0.21015683623E+02  0.55623984313E+00 -0.39104938709E+02  0.44397799409E+02  0.00000000000E+00 0. -1.
         -3    1    3    3    0  502 -0.39780815498E+03 -0.22513426529E+02 -0.17843707418E+04  0.18283153795E+04  0.00000000000E+00 0.  1.
         11    1    5    5    0    0  0.13027224508E+03 -0.39814995789E+03  0.29683525924E+03  0.51342518241E+03  0.00000000000E+00 0.  1.
        -11    1    5    5    0    0  0.25254589836E+02 -0.22328401868E+02  0.53547868280E+01  0.34132471046E+02  0.00000000000E+00 0. -1.
          2    1    6    6  503    0  0.32031112618E+01 -0.13464380763E+01  0.88537877331E+01  0.95111710358E+01  0.00000000000E+00 0. -1.
         -2    1    6    6    0  503  0.26009389242E+03  0.44378198452E+03  0.10994088368E+03  0.52600216783E+03  0.00000000000E+00 0.  1.
<mgrwt>
<rscale>  0 0.26018607E+04</rscale>
<asrwt>0</asrwt>
<pdfrwt beam="1">  1        2 0.11948410E+00 0.26018607E+04</pdfrwt>
<pdfrwt beam="2">  1       -1 0.33525193E+00 0.26018607E+04</pdfrwt>
<totfact> 0.70271393E-01</totfact>
</mgrwt>
</event>
<event>
12    6  0.1462228E-007  0.1823057E+04  0.7818608E-02  0.8694133E-01
         -1   -1    0    0    0  501 -0.00000000000E+00  0.00000000000E+00  0.14904358126E+04  0.14904358126E+04  0.00000000000E+00 0.  1.
          2   -1    0    0  501    0  0.00000000000E+00 -0.00000000000E+00 -0.55747750520E+03  0.55747750520E+03  0.00000000000E+00 0. -1.
         24    2    1    2    0    0 -0.52717903939E+03 -0.92364486108E+02  0.83329391362E+03  0.99366221140E+03  0.80851134869E+02 0.  0.
        254    2    1    2    0    0  0.52717903939E+03  0.92364486108E+02  0.99664393746E+02  0.10542511064E+04  0.90280865417E+03 0.  0.
         23    2    4    4    0    0  0.36407286406E+03  0.47892494337E+03  0.13574565423E+03  0.62359076656E+03  0.92306065736E+02 0.  0.
         23    2    4    4    0    0  0.16310617533E+03 -0.38656045726E+03 -0.36081260480E+02  0.43066033981E+03  0.90187911477E+02 0.  0.
          2    1    3    3  502    0 -0.36096771222E+03 -0.30852338252E+02  0.52090611051E+03  0.63450195587E+03  0.00000000000E+00 0. -1.
         -1    1    3    3    0  502 -0.16621132717E+03 -0.61512147857E+02  0.31238780311E+03  0.35916025552E+03  0.00000000000E+00 0.  1.
         11    1    5    5    0    0  0.14882798327E+03  0.14179755506E+03  0.76044906197E+02  0.21917833602E+03  0.00000000000E+00 0.  1.
        -11    1    5    5    0    0  0.21524488079E+03  0.33712738831E+03  0.59700748029E+02  0.40441243054E+03  0.00000000000E+00 0. -1.
          1    1    6    6  503    0  0.16966144999E+02 -0.67802672704E+02  0.25949109451E+02  0.74554736826E+02  0.00000000000E+00 0. -1.
         -1    1    6    6    0  503  0.14614003033E+03 -0.31875778456E+03 -0.62030369931E+02  0.35610560299E+03  0.00000000000E+00 0.  1.
<mgrwt>
<rscale>  0 0.18230573E+04</rscale>
<asrwt>0</asrwt>
<pdfrwt beam="1">  1        2 0.85765771E-01 0.18230573E+04</pdfrwt>
<pdfrwt beam="2">  1       -1 0.22929782E+00 0.18230573E+04</pdfrwt>
<totfact> 0.55639380E+00</totfact>
</mgrwt>
</event>
<event>
12    6  0.1462228E-007  0.1415188E+04  0.7818608E-02  0.8942898E-01
          2   -1    0    0  501    0  0.00000000000E+00  0.00000000000E+00  0.37163306032E+03  0.37163306032E+03  0.00000000000E+00 0. -1.
         -1   -1    0    0    0  501 -0.00000000000E+00 -0.00000000000E+00 -0.13472671290E+04  0.13472671290E+04  0.00000000000E+00 0.  1.
         24    2    1    2    0    0  0.15124053061E+03  0.17203624460E+02 -0.68994588528E+03  0.71092289370E+03  0.78843981234E+02 0.  0.
        254    2    1    2    0    0 -0.15124053061E+03 -0.17203624460E+02 -0.28568818342E+03  0.10079772956E+04  0.95458411237E+03 0.  0.
         23    2    4    4    0    0 -0.11531136914E+03  0.24153341615E+02  0.34121477656E+03  0.37180324890E+03  0.89050751750E+02 0.  0.
         23    2    4    4    0    0 -0.35929161470E+02 -0.41356966075E+02 -0.62690295998E+03  0.63617404674E+03  0.93320915296E+02 0.  0.
          4    1    3    3  502    0  0.17336474901E+02 -0.13175707295E+02 -0.31377112786E+02  0.38192614882E+02  0.00000000000E+00 0. -1.
         -3    1    3    3    0  502  0.13390405571E+03  0.30379331756E+02 -0.65856877250E+03  0.67273027882E+03  0.00000000000E+00 0.  1.
         11    1    5    5    0    0 -0.11564320087E+03 -0.55869898665E+01  0.24278230769E+03  0.26897548827E+03  0.00000000000E+00 0. -1.
        -11    1    5    5    0    0  0.33183172740E+00  0.29740331481E+02  0.98432468863E+02  0.10282776063E+03  0.00000000000E+00 0.  1.
          1    1    6    6  503    0  0.27909928783E+02 -0.22575719434E+02 -0.32770887768E+03  0.32966913071E+03  0.00000000000E+00 0. -1.
         -1    1    6    6    0  503 -0.63839090252E+02 -0.18781246641E+02 -0.29919408230E+03  0.30650491603E+03  0.00000000000E+00 0.  1.
<mgrwt>
<rscale>  0 0.14151876E+04</rscale>
<asrwt>0</asrwt>
<pdfrwt beam="1">  1        2 0.57174317E-01 0.14151876E+04</pdfrwt>
<pdfrwt beam="2">  1       -1 0.20727187E+00 0.14151876E+04</pdfrwt>
<totfact> 0.12897547E+01</totfact>
</mgrwt>
</event>
<event>
12    6  0.1462228E-007  0.1400732E+04  0.7818608E-02  0.8953289E-01
          2   -1    0    0  501    0  0.00000000000E+00  0.00000000000E+00  0.14114589640E+04  0.14114589640E+04  0.00000000000E+00 0. -1.
         -1   -1    0    0    0  501 -0.00000000000E+00 -0.00000000000E+00 -0.34752166148E+03  0.34752166148E+03  0.00000000000E+00 0.  1.
         24    2    1    2    0    0 -0.32285246188E+02 -0.22112752373E+03 -0.11313603906E+03  0.26246645599E+03  0.78416569110E+02 0.  0.
        254    2    1    2    0    0  0.32285246188E+02  0.22112752373E+03  0.11770733416E+04  0.14965141695E+04  0.89672364145E+03 0.  0.
         23    2    4    4    0    0 -0.14756825351E+03  0.17781543607E+03  0.12522325378E+04  0.12762246997E+04  0.85255126589E+02 0.  0.
         23    2    4    4    0    0  0.17985349970E+03  0.43312087659E+02 -0.75159196278E+02  0.22028946974E+03  0.93034012076E+02 0.  0.
          4    1    3    3  502    0 -0.15754451393E+02 -0.13740728384E+03 -0.26430278889E+02  0.14081024122E+03  0.00000000000E+00 0. -1.
         -3    1    3    3    0  502 -0.16530794795E+02 -0.83720239892E+02 -0.86705760171E+02  0.12165621476E+03  0.00000000000E+00 0.  1.
         11    1    5    5    0    0 -0.11162077788E+03  0.68826327344E+02  0.70393949531E+03  0.71604963128E+03  0.00000000000E+00 0.  1.
        -11    1    5    5    0    0 -0.35947475629E+02  0.10898910873E+03  0.54829304253E+03  0.56017506845E+03  0.00000000000E+00 0. -1.
          3    1    6    6  503    0  0.14161524302E+03 -0.61844774912E+01 -0.68364810068E+02  0.15737494106E+03  0.00000000000E+00 0. -1.
         -3    1    6    6    0  503  0.38238256677E+02  0.49496565150E+02 -0.67943862102E+01  0.62914528682E+02  0.00000000000E+00 0.  1.
<mgrwt>
<rscale>  0 0.14007320E+04</rscale>
<asrwt>0</asrwt>
<pdfrwt beam="1">  1        2 0.21714753E+00 0.14007320E+04</pdfrwt>
<pdfrwt beam="2">  1       -1 0.53464872E-01 0.14007320E+04</pdfrwt>
<totfact> 0.55794056E+01</totfact>
</mgrwt>
</event>
<event>
12    6  0.1462228E-007  0.1346605E+04  0.7818608E-02  0.8993402E-01
          2   -1    0    0  501    0  0.00000000000E+00  0.00000000000E+00  0.52134445625E+03  0.52134445625E+03  0.00000000000E+00 0. -1.
         -1   -1    0    0    0  501 -0.00000000000E+00 -0.00000000000E+00 -0.86955198978E+03  0.86955198978E+03  0.00000000000E+00 0.  1.
         24    2    1    2    0    0 -0.32914075707E+03  0.10059536702E+03  0.21371794022E+02  0.35349944699E+03  0.77794855920E+02 0.  0.
        254    2    1    2    0    0  0.32914075707E+03 -0.10059536702E+03 -0.36957932755E+03  0.10373969990E+04  0.90617359729E+03 0.  0.
         23    2    4    4    0    0 -0.59775429705E+02  0.34907127430E+03 -0.15255072250E+03  0.39639276354E+03  0.91823981126E+02 0.  0.
         23    2    4    4    0    0  0.38891618678E+03 -0.44966664132E+03 -0.21702860505E+03  0.64100423550E+03  0.10163230720E+03 0.  0.
          4    1    3    3  502    0 -0.25072769580E+03  0.84651774154E+02  0.48436702035E+02  0.26902864980E+03  0.00000000000E+00 0. -1.
         -3    1    3    3    0  502 -0.78413061270E+02  0.15943592865E+02 -0.27064908014E+02  0.84470797185E+02  0.00000000000E+00 0.  1.
         11    1    5    5    0    0 -0.10931923533E+02  0.18543914843E+02  0.11245021162E+02  0.24286503058E+02  0.00000000000E+00 0. -1.
        -11    1    5    5    0    0 -0.48843506172E+02  0.33052735946E+03 -0.16379574366E+03  0.37210626048E+03  0.00000000000E+00 0.  1.
          2    1    6    6  503    0  0.72162714730E+02 -0.69534050925E+02  0.11804506843E+01  0.10021893583E+03  0.00000000000E+00 0. -1.
         -2    1    6    6    0  503  0.31675347205E+03 -0.38013259040E+03 -0.21820905574E+03  0.54078529967E+03  0.00000000000E+00 0.  1.
<mgrwt>
<rscale>  0 0.13466048E+04</rscale>
<asrwt>0</asrwt>
<pdfrwt beam="1">  1        2 0.80206840E-01 0.13466048E+04</pdfrwt>
<pdfrwt beam="2">  1       -1 0.13377723E+00 0.13466048E+04</pdfrwt>
<totfact> 0.30893781E+01</totfact>
</mgrwt>
</event>
<event>
12    6  0.1462228E-007  0.2238163E+04  0.7818608E-02  0.8502709E-01
          2   -1    0    0  501    0  0.00000000000E+00  0.00000000000E+00  0.82485911204E+03  0.82485911204E+03  0.00000000000E+00 0. -1.
         -1   -1    0    0    0  501 -0.00000000000E+00 -0.00000000000E+00 -0.15182518594E+04  0.15182518594E+04  0.00000000000E+00 0.  1.
         24    2    1    2    0    0 -0.14824619556E+03  0.49999491654E+03 -0.11028810019E+04  0.12225613803E+04  0.79611389235E+02 0.  0.
        254    2    1    2    0    0  0.14824619556E+03 -0.49999491654E+03  0.40948825448E+03  0.11205495912E+04  0.90331550669E+03 0.  0.
         23    2    4    4    0    0  0.13323781953E+03 -0.69172650121E+03  0.52136936905E+03  0.88170752070E+03  0.96665733565E+02 0.  0.
         23    2    4    4    0    0  0.15008376027E+02  0.19173158467E+03 -0.11188111457E+03  0.23884207046E+03  0.86844106973E+02 0.  0.
          4    1    3    3  502    0  0.89672231465E+01  0.23762685802E+02 -0.41392976495E+02  0.48563925198E+02  0.00000000000E+00 0. -1.
         -3    1    3    3    0  502 -0.15721341871E+03  0.47623223074E+03 -0.10614880254E+04  0.11739974551E+04  0.00000000000E+00 0.  1.
         11    1    5    5    0    0  0.12437216543E+02 -0.29140185008E+03  0.23981487043E+03  0.37759885417E+03  0.00000000000E+00 0. -1.
        -11    1    5    5    0    0  0.12080060299E+03 -0.40032465113E+03  0.28155449862E+03  0.50410866653E+03  0.00000000000E+00 0.  1.
          3    1    6    6  503    0 -0.21182513584E+01  0.15759625171E+03 -0.12202525135E+03  0.19932693624E+03  0.00000000000E+00 0. -1.
         -3    1    6    6    0  503  0.17126627386E+02  0.34135332960E+02  0.10144136786E+02  0.39515134228E+02  0.00000000000E+00 0.  1.
<mgrwt>
<rscale>  0 0.22381634E+04</rscale>
<asrwt>0</asrwt>
<pdfrwt beam="1">  1        2 0.12690140E+00 0.22381634E+04</pdfrwt>
<pdfrwt beam="2">  1       -1 0.23357721E+00 0.22381634E+04</pdfrwt>
<totfact> 0.30714782E+00</totfact>
</mgrwt>
</event>
<event>
12    6  0.1462228E-007  0.2835220E+04  0.7818608E-02  0.8292417E-01
          2   -1    0    0  501    0  0.00000000000E+00  0.00000000000E+00  0.15700517013E+04  0.15700517013E+04  0.00000000000E+00 0. -1.
         -1   -1    0    0    0  501 -0.00000000000E+00 -0.00000000000E+00 -0.12799692384E+04  0.12799692384E+04  0.00000000000E+00 0.  1.
         24    2    1    2    0    0  0.93836823802E+03 -0.70210017923E+03  0.63649556407E+03  0.13359454891E+04  0.78384533176E+02 0.  0.
        254    2    1    2    0    0 -0.93836823802E+03  0.70210017923E+03 -0.34641310114E+03  0.15140754506E+04  0.89383601494E+03 0.  0.
         23    2    4    4    0    0 -0.33987572950E+03 -0.10622974063E+03  0.14037241198E+03  0.39298006641E+03  0.89042962958E+02 0.  0.
         23    2    4    4    0    0 -0.59849250852E+03  0.80832991987E+03 -0.48678551311E+03  0.11210953842E+04  0.91127287493E+02 0.  0.
          2    1    3    3  502    0  0.64556776991E+03 -0.49430814040E+03  0.40120633534E+03  0.90667789580E+03  0.00000000000E+00 0. -1.
         -1    1    3    3    0  502  0.29280046811E+03 -0.20779203883E+03  0.23528922873E+03  0.42926759333E+03  0.00000000000E+00 0.  1.
         11    1    5    5    0    0 -0.18035144252E+03 -0.71828257129E+02  0.31153605876E+02  0.19661253394E+03  0.00000000000E+00 0. -1.
        -11    1    5    5    0    0 -0.15952428698E+03 -0.34401483505E+02  0.10921880610E+03  0.19636753247E+03  0.00000000000E+00 0.  1.
          3    1    6    6  503    0 -0.55709307859E+03  0.76231664023E+03 -0.43152376220E+03  0.10381195093E+04  0.00000000000E+00 0. -1.
         -3    1    6    6    0  503 -0.41399429929E+02  0.46013279635E+02 -0.55261750913E+02  0.82975874898E+02  0.00000000000E+00 0.  1.
<mgrwt>
<rscale>  0 0.28352198E+04</rscale>
<asrwt>0</asrwt>
<pdfrwt beam="1">  1        2 0.24154642E+00 0.28352198E+04</pdfrwt>
<pdfrwt beam="2">  1       -1 0.19691834E+00 0.28352198E+04</pdfrwt>
<totfact> 0.18103267E+00</totfact>
</mgrwt>
</event>
<event>
12    6  0.1462228E-007  0.2099325E+04  0.7818608E-02  0.8561541E-01
          2   -1    0    0  501    0  0.00000000000E+00  0.00000000000E+00  0.29544571398E+04  0.29544571398E+04  0.00000000000E+00 0. -1.
         -3   -1    0    0    0  501 -0.00000000000E+00 -0.00000000000E+00 -0.37292512525E+03  0.37292512525E+03  0.00000000000E+00 0.  1.
         24    2    1    2    0    0  0.41413309010E+03 -0.54830973969E+03  0.30939421662E+03  0.75778029299E+03  0.79727060706E+02 0.  0.
        254    2    1    2    0    0 -0.41413309010E+03  0.54830973969E+03  0.22721377979E+04  0.25696019720E+04  0.98391784977E+03 0.  0.
         23    2    4    4    0    0 -0.37349306000E+03  0.39928243968E+03  0.23186733341E+04  0.23839039479E+04  0.88478643072E+02 0.  0.
         23    2    4    4    0    0 -0.40640030100E+02  0.14902730001E+03 -0.46535536185E+02  0.18569802410E+03  0.91964405246E+02 0.  0.
          2    1    3    3  502    0  0.10359676575E+03 -0.11825657680E+03  0.37149328537E+02  0.16154559864E+03  0.00000000000E+00 0. -1.
         -1    1    3    3    0  502  0.31053632434E+03 -0.43005316289E+03  0.27224488808E+03  0.59623469434E+03  0.00000000000E+00 0.  1.
         11    1    5    5    0    0 -0.30297483063E+03  0.34601482661E+03  0.18042598867E+04  0.18619542816E+04  0.00000000000E+00 0. -1.
        -11    1    5    5    0    0 -0.70518229366E+02  0.53267613071E+02  0.51441344744E+03  0.52194966633E+03  0.00000000000E+00 0.  1.
          3    1    6    6  503    0 -0.66477125537E+02  0.10535542019E+03 -0.51316996602E+02  0.13473086849E+03  0.00000000000E+00 0. -1.
         -3    1    6    6    0  503  0.25837095438E+02  0.43671879813E+02  0.47814604174E+01  0.50967155608E+02  0.00000000000E+00 0.  1.
<mgrwt>
<rscale>  0 0.20993249E+04</rscale>
<asrwt>0</asrwt>
<pdfrwt beam="1">  1        2 0.45453185E+00 0.20993249E+04</pdfrwt>
<pdfrwt beam="2">  1       -3 0.57373098E-01 0.20993249E+04</pdfrwt>
<totfact> 0.32981697E+00</totfact>
</mgrwt>
</event>
<event>
12    6  0.1462228E-007  0.1650754E+04  0.7818608E-02  0.8789960E-01
         -1   -1    0    0    0  501 -0.00000000000E+00  0.00000000000E+00  0.58611340285E+03  0.58611340285E+03  0.00000000000E+00 0.  1.
          2   -1    0    0  501    0  0.00000000000E+00 -0.00000000000E+00 -0.11623133751E+04  0.11623133751E+04  0.00000000000E+00 0. -1.
         24    2    1    2    0    0 -0.19523265333E+03 -0.14636190838E+03  0.35233414008E+03  0.43630700849E+03  0.81773236712E+02 0.  0.
        254    2    1    2    0    0  0.19523265333E+03  0.14636190838E+03 -0.92853411234E+03  0.13121197695E+04  0.89439649738E+03 0.  0.
         23    2    4    4    0    0  0.12522962594E+03 -0.31466807512E+03 -0.70380455478E+03  0.78652215993E+03  0.92616413345E+02 0.  0.
         23    2    4    4    0    0  0.70003027398E+02  0.46102998350E+03 -0.22472955756E+03  0.52559760955E+03  0.91106550770E+02 0.  0.
          4    1    3    3  502    0 -0.52339699074E+01 -0.21880271768E+02  0.72370861251E+02  0.75787085258E+02  0.00000000000E+00 0. -1.
         -3    1    3    3    0  502 -0.18999868343E+03 -0.12448163661E+03  0.27996327883E+03  0.36051992323E+03  0.00000000000E+00 0.  1.
         11    1    5    5    0    0  0.30249736258E+02 -0.10141902410E+02 -0.56536631887E+02  0.64917605265E+02  0.00000000000E+00 0. -1.
        -11    1    5    5    0    0  0.94979889678E+02 -0.30452617271E+03 -0.64726792289E+03  0.72160455466E+03  0.00000000000E+00 0.  1.
          2    1    6    6  503    0  0.25302428774E+02  0.35572823583E+03 -0.13949225042E+03  0.38293717317E+03  0.00000000000E+00 0. -1.
         -2    1    6    6    0  503  0.44700598624E+02  0.10530174767E+03 -0.85237307139E+02  0.14266043638E+03  0.00000000000E+00 0.  1.
<mgrwt>
<rscale>  0 0.16507543E+04</rscale>
<asrwt>0</asrwt>
<pdfrwt beam="1">  1        2 0.17881744E+00 0.16507543E+04</pdfrwt>
<pdfrwt beam="2">  1       -1 0.90171293E-01 0.16507543E+04</pdfrwt>
<totfact> 0.26152345E+01</totfact>
</mgrwt>
</event>
<event>
12    6  0.1462228E-007  0.2113258E+04  0.7818608E-02  0.8555426E-01
          2   -1    0    0  501    0  0.00000000000E+00  0.00000000000E+00  0.22959536318E+04  0.22959536318E+04  0.00000000000E+00 0. -1.
         -1   -1    0    0    0  501 -0.00000000000E+00 -0.00000000000E+00 -0.48627481855E+03  0.48627481855E+03  0.00000000000E+00 0.  1.
         24    2    1    2    0    0  0.62794804681E+03 -0.53425429357E+03  0.10716044524E+04  0.13544838305E+04  0.80894654306E+02 0.  0.
        254    2    1    2    0    0 -0.62794804681E+03  0.53425429357E+03  0.73807436083E+03  0.14277446198E+04  0.90219429035E+03 0.  0.
         23    2    4    4    0    0  0.53439864155E+02  0.39025360025E+03  0.58001705798E+03  0.70770586415E+03  0.96302185950E+02 0.  0.
         23    2    4    4    0    0 -0.68138791097E+03  0.14400069332E+03  0.15805730285E+03  0.72003875565E+03  0.91913077185E+02 0.  0.
          2    1    3    3  502    0  0.52811045080E+03 -0.42489280383E+03  0.91804503586E+03  0.11411578466E+04  0.00000000000E+00 0. -1.
         -1    1    3    3    0  502  0.99837596008E+02 -0.10936148974E+03  0.15355941655E+03  0.21332598395E+03  0.00000000000E+00 0.  1.
         11    1    5    5    0    0  0.33787992257E+02  0.18686122072E+03  0.19718424906E+03  0.27375239233E+03  0.00000000000E+00 0. -1.
        -11    1    5    5    0    0  0.19651871897E+02  0.20339237953E+03  0.38283280892E+03  0.43395347182E+03  0.00000000000E+00 0.  1.
          2    1    6    6  503    0 -0.57317878682E+02  0.34809398902E+02 -0.41379404035E-01  0.67059937226E+02  0.00000000000E+00 0. -1.
         -2    1    6    6    0  503 -0.62407003228E+03  0.10919129442E+03  0.15809868226E+03  0.65297881842E+03  0.00000000000E+00 0.  1.
<mgrwt>
<rscale>  0 0.21132576E+04</rscale>
<asrwt>0</asrwt>
<pdfrwt beam="1">  1        2 0.35322363E+00 0.21132576E+04</pdfrwt>
<pdfrwt beam="2">  1       -1 0.74811512E-01 0.21132576E+04</pdfrwt>
<totfact> 0.85832037E+00</totfact>
</mgrwt>
</event>
<event>
12    6  0.1462228E-007  0.1741761E+04  0.7818608E-02  0.8737898E-01
         -1   -1    0    0    0  501 -0.00000000000E+00  0.00000000000E+00  0.43761779465E+03  0.43761779465E+03  0.00000000000E+00 0.  1.
          2   -1    0    0  501    0  0.00000000000E+00 -0.00000000000E+00 -0.17330948134E+04  0.17330948134E+04  0.00000000000E+00 0. -1.
         24    2    1    2    0    0  0.30208412101E+03  0.24274500765E+03 -0.11153602142E+04  0.11833873568E+04  0.78722765190E+02 0.  0.
        254    2    1    2    0    0 -0.30208412101E+03 -0.24274500765E+03 -0.18011680450E+03  0.98732525127E+03  0.89005007366E+03 0.  0.
         23    2    4    4    0    0  0.16446455541E+03  0.20688630746E+03 -0.17837330148E+03  0.33309595308E+03  0.96360495422E+02 0.  0.
         23    2    4    4    0    0 -0.46654867643E+03 -0.44963131511E+03 -0.17435030180E+01  0.65422929819E+03  0.90426477318E+02 0.  0.
          2    1    3    3  502    0  0.29246439218E+03  0.20801892759E+03 -0.10298290384E+04  0.10905756019E+04  0.00000000000E+00 0. -1.
         -1    1    3    3    0  502  0.96197288340E+01  0.34726080060E+02 -0.85531175774E+02  0.92811754904E+02  0.00000000000E+00 0.  1.
         11    1    5    5    0    0  0.17608704190E+03  0.18129891953E+03 -0.15448746332E+03  0.29621330299E+03  0.00000000000E+00 0.  1.
        -11    1    5    5    0    0 -0.11622486484E+02  0.25587387930E+02 -0.23885838155E+02  0.36882650088E+02  0.00000000000E+00 0. -1.
          1    1    6    6  503    0 -0.15020910342E+03 -0.13160320444E+03 -0.41266343427E+02  0.20392422433E+03  0.00000000000E+00 0. -1.
         -1    1    6    6    0  503 -0.31633957301E+03 -0.31802811067E+03  0.39522840408E+02  0.45030507386E+03  0.00000000000E+00 0.  1.
<mgrwt>
<rscale>  0 0.17417613E+04</rscale>
<asrwt>0</asrwt>
<pdfrwt beam="1">  1        2 0.26662996E+00 0.17417613E+04</pdfrwt>
<pdfrwt beam="2">  1       -1 0.67325817E-01 0.17417613E+04</pdfrwt>
<totfact> 0.22690921E+01</totfact>
</mgrwt>
</event>
<event>
12    6  0.1462228E-007  0.1686170E+04  0.7818608E-02  0.8769291E-01
         -1   -1    0    0    0  501 -0.00000000000E+00  0.00000000000E+00  0.10392769202E+04  0.10392769202E+04  0.00000000000E+00 0.  1.
          2   -1    0    0  501    0  0.00000000000E+00 -0.00000000000E+00 -0.68393004770E+03  0.68393004770E+03  0.00000000000E+00 0. -1.
         24    2    1    2    0    0 -0.54336546036E+03  0.69100548542E+02  0.32006602280E+03  0.63942321662E+03  0.79993010200E+02 0.  0.
        254    2    1    2    0    0  0.54336546036E+03 -0.69100548542E+02  0.35280849666E+02  0.10837837513E+04  0.93451675844E+03 0.  0.
         23    2    4    4    0    0  0.50780493253E+03 -0.37560487661E+03  0.26344295714E+03  0.69017217158E+03  0.89389943038E+02 0.  0.
         23    2    4    4    0    0  0.35560527827E+02  0.30650432807E+03 -0.22816210748E+03  0.39361157967E+03  0.87536701437E+02 0.  0.
          4    1    3    3  502    0 -0.37173396355E+03  0.99719247879E+01  0.20798362926E+03  0.42607836014E+03  0.00000000000E+00 0. -1.
         -3    1    3    3    0  502 -0.17163149681E+03  0.59128623754E+02  0.11208239354E+03  0.21334485647E+03  0.00000000000E+00 0.  1.
         11    1    5    5    0    0  0.48798163363E+03 -0.37867029134E+03  0.25217678844E+03  0.66716594408E+03  0.00000000000E+00 0.  1.
        -11    1    5    5    0    0  0.19823298897E+02  0.30654147289E+01  0.11266168704E+02  0.23006227503E+02  0.00000000000E+00 0. -1.
          2    1    6    6  503    0 -0.18147417565E+02  0.14451952992E+03 -0.72828052961E+02  0.16284700977E+03  0.00000000000E+00 0. -1.
         -2    1    6    6    0  503  0.53707945392E+02  0.16198479815E+03 -0.15533405452E+03  0.23076456990E+03  0.00000000000E+00 0.  1.
<mgrwt>
<rscale>  0 0.16861705E+04</rscale>
<asrwt>0</asrwt>
<pdfrwt beam="1">  1        2 0.10522001E+00 0.16861705E+04</pdfrwt>
<pdfrwt beam="2">  1       -1 0.15988876E+00 0.16861705E+04</pdfrwt>
<totfact> 0.13440615E+01</totfact>
</mgrwt>
</event>
<event>
12    6  0.1462228E-007  0.4031399E+04  0.7818608E-02  0.7998242E-01
         -1   -1    0    0    0  501 -0.00000000000E+00  0.00000000000E+00  0.17048674242E+04  0.17048674242E+04  0.00000000000E+00 0.  1.
          2   -1    0    0  501    0  0.00000000000E+00 -0.00000000000E+00 -0.23832028008E+04  0.23832028008E+04  0.00000000000E+00 0. -1.
         24    2    1    2    0    0 -0.14133571598E+04 -0.10335525963E+04 -0.11333140149E+04  0.20872451550E+04  0.79888987990E+02 0.  0.
        254    2    1    2    0    0  0.14133571598E+04  0.10335525963E+04  0.45497863831E+03  0.20008250700E+04  0.85468471907E+03 0.  0.
         23    2    4    4    0    0  0.58264852563E+03  0.38649806841E+03 -0.22954776041E+03  0.74170152449E+03  0.92568438627E+02 0.  0.
         23    2    4    4    0    0  0.83070863419E+03  0.64705452785E+03  0.68452639872E+03  0.12591235455E+04  0.89773689832E+02 0.  0.
          2    1    3    3  502    0 -0.98758721130E+03 -0.69214042672E+03 -0.81324318001E+03  0.14545622503E+04  0.00000000000E+00 0. -1.
         -1    1    3    3    0  502 -0.42576994852E+03 -0.34141216954E+03 -0.32007083489E+03  0.63268290471E+03  0.00000000000E+00 0.  1.
         11    1    5    5    0    0  0.54141750429E+03  0.38439989341E+03 -0.21651808100E+03  0.69840981623E+03  0.00000000000E+00 0.  1.
        -11    1    5    5    0    0  0.41231021333E+02  0.20981749922E+01 -0.13029679414E+02  0.43291708261E+02  0.00000000000E+00 0. -1.
          4    1    6    6  503    0  0.79628611893E+03  0.63691864797E+03  0.67162869780E+03  0.12209922420E+04  0.00000000000E+00 0.  1.
         -4    1    6    6    0  503  0.34422515261E+02  0.10135879876E+02  0.12897700919E+02  0.38131303502E+02  0.00000000000E+00 0. -1.
<mgrwt>
<rscale>  0 0.40313992E+04</rscale>
<asrwt>0</asrwt>
<pdfrwt beam="1">  1        2 0.36664658E+00 0.40313992E+04</pdfrwt>
<pdfrwt beam="2">  1       -1 0.26228730E+00 0.40313992E+04</pdfrwt>
<totfact> 0.21084371E-01</totfact>
</mgrwt>
</event>
<event>
12    6  0.1462228E-007  0.1330801E+04  0.7818608E-02  0.9005490E-01
         -1   -1    0    0    0  501 -0.00000000000E+00  0.00000000000E+00  0.63316964157E+03  0.63316964157E+03  0.00000000000E+00 0.  1.
          2   -1    0    0  501    0  0.00000000000E+00 -0.00000000000E+00 -0.69927234180E+03  0.69927234180E+03  0.00000000000E+00 0. -1.
         24    2    1    2    0    0  0.34853321447E+03  0.13167845134E+02 -0.79587149663E+02  0.36658068960E+03  0.79990586078E+02 0.  0.
        254    2    1    2    0    0 -0.34853321447E+03 -0.13167845134E+02  0.13484449436E+02  0.96586129377E+03  0.90058726102E+03 0.  0.
         23    2    4    4    0    0 -0.64490230228E+02  0.25887312656E+03  0.34368545817E+03  0.44438401276E+03  0.90460882080E+02 0.  0.
         23    2    4    4    0    0 -0.28404298424E+03 -0.27204097169E+03 -0.33020100874E+03  0.52147728102E+03  0.90659479762E+02 0.  0.
          2    1    3    3  502    0  0.29168891773E+03  0.30654939684E+02 -0.88697265395E+02  0.30641369901E+03  0.00000000000E+00 0. -1.
         -1    1    3    3    0  502  0.56844296738E+02 -0.17487094550E+02  0.91101157319E+01  0.60166990585E+02  0.00000000000E+00 0.  1.
         11    1    5    5    0    0 -0.83678659002E+02  0.23171916573E+03  0.28321554270E+03  0.37537572293E+03  0.00000000000E+00 0. -1.
        -11    1    5    5    0    0  0.19188428774E+02  0.27153960824E+02  0.60469915474E+02  0.69008289826E+02  0.00000000000E+00 0.  1.
          2    1    6    6  503    0 -0.12181507328E+03 -0.16583661272E+03 -0.13354703803E+03  0.24530696191E+03  0.00000000000E+00 0. -1.
         -2    1    6    6    0  503 -0.16222791096E+03 -0.10620435897E+03 -0.19665397071E+03  0.27617031910E+03  0.00000000000E+00 0.  1.
<mgrwt>
<rscale>  0 0.13308013E+04</rscale>
<asrwt>0</asrwt>
<pdfrwt beam="1">  1        2 0.10758036E+00 0.13308013E+04</pdfrwt>
<pdfrwt beam="2">  1       -1 0.97410715E-01 0.13308013E+04</pdfrwt>
<totfact> 0.46400601E+01</totfact>
</mgrwt>
</event>
<event>
12    6  0.1462228E-007  0.1386266E+04  0.7818608E-02  0.8963820E-01
         -1   -1    0    0    0  501 -0.00000000000E+00  0.00000000000E+00  0.32378179278E+03  0.32378179278E+03  0.00000000000E+00 0.  1.
          2   -1    0    0  501    0  0.00000000000E+00 -0.00000000000E+00 -0.14838182695E+04  0.14838182695E+04  0.00000000000E+00 0. -1.
         24    2    1    2    0    0 -0.58010101160E+02  0.26835843914E+03  0.30132019403E+02  0.28756833864E+03  0.80038660062E+02 0.  0.
        254    2    1    2    0    0  0.58010101160E+02 -0.26835843914E+03 -0.11901684962E+04  0.15200317237E+04  0.90477288202E+03 0.  0.
         23    2    4    4    0    0 -0.15217458704E+03  0.28844836704E+03 -0.51099138660E+03  0.61275381809E+03  0.89417442482E+02 0.  0.
         23    2    4    4    0    0  0.21018468820E+03 -0.55680680618E+03 -0.67917710957E+03  0.90727790558E+03  0.87522735549E+02 0.  0.
          4    1    3    3  502    0 -0.10275517796E+01 -0.57962309166E+01 -0.36881407801E+00  0.58981505001E+01  0.00000000000E+00 0. -1.
         -3    1    3    3    0  502 -0.56982549380E+02  0.27415467005E+03  0.30500833481E+02  0.28167018814E+03  0.00000000000E+00 0.  1.
         11    1    5    5    0    0 -0.38643522464E+01  0.86524969366E+02 -0.15276829455E+03  0.17561223010E+03  0.00000000000E+00 0.  1.
        -11    1    5    5    0    0 -0.14831023480E+03  0.20192339768E+03 -0.35822309205E+03  0.43714158799E+03  0.00000000000E+00 0. -1.
          2    1    6    6  503    0  0.12342424477E+03 -0.43272287990E+03 -0.51744121078E+03  0.68573175630E+03  0.00000000000E+00 0.  1.
         -2    1    6    6    0  503  0.86760443435E+02 -0.12408392628E+03 -0.16173589879E+03  0.22154614929E+03  0.00000000000E+00 0. -1.
<mgrwt>
<rscale>  0 0.13862660E+04</rscale>
<asrwt>0</asrwt>
<pdfrwt beam="1">  1        2 0.22827973E+00 0.13862660E+04</pdfrwt>
<pdfrwt beam="2">  1       -1 0.49812585E-01 0.13862660E+04</pdfrwt>
<totfact> 0.58177368E+01</totfact>
</mgrwt>
</event>
<event>
12    6  0.1462228E-007  0.1370129E+04  0.7818608E-02  0.8975729E-01
          2   -1    0    0  501    0  0.00000000000E+00  0.00000000000E+00  0.20158799415E+04  0.20158799415E+04  0.00000000000E+00 0. -1.
         -1   -1    0    0    0  501 -0.00000000000E+00 -0.00000000000E+00 -0.23280811254E+03  0.23280811254E+03  0.00000000000E+00 0.  1.
         24    2    1    2    0    0 -0.21456163042E+02 -0.81216758851E+02  0.11269587721E+04  0.11328381510E+04  0.78928280519E+02 0.  0.
        254    2    1    2    0    0  0.21456163042E+02  0.81216758851E+02  0.65611305680E+03  0.11158499030E+04  0.89865462435E+03 0.  0.
         23    2    4    4    0    0  0.41790569109E+03 -0.81457562974E+02  0.18765553592E+03  0.47418628901E+03  0.91419556519E+02 0.  0.
         23    2    4    4    0    0 -0.39644952805E+03  0.16267432183E+03  0.46845752087E+03  0.64166361398E+03  0.92976240909E+02 0.  0.
          2    1    3    3  502    0 -0.32229308612E+02 -0.86495611533E+02  0.10916784952E+04  0.10955738934E+04  0.00000000000E+00 0. -1.
         -1    1    3    3    0  502  0.10773145570E+02  0.52788526813E+01  0.35280276965E+02  0.37264257591E+02  0.00000000000E+00 0.  1.
         11    1    5    5    0    0  0.37429829398E+03 -0.74171676878E+02  0.13345598711E+03  0.40424145139E+03  0.00000000000E+00 0.  1.
        -11    1    5    5    0    0  0.43607397114E+02 -0.72858860959E+01  0.54199548807E+02  0.69944837623E+02  0.00000000000E+00 0. -1.
          3    1    6    6  503    0 -0.18313279694E+03  0.77913145052E+02  0.28605324721E+03  0.34847458978E+03  0.00000000000E+00 0. -1.
         -3    1    6    6    0  503 -0.21331673111E+03  0.84761176774E+02  0.18240427367E+03  0.29318902420E+03  0.00000000000E+00 0.  1.
<mgrwt>
<rscale>  0 0.13701288E+04</rscale>
<asrwt>0</asrwt>
<pdfrwt beam="1">  1        2 0.31013536E+00 0.13701288E+04</pdfrwt>
<pdfrwt beam="2">  1       -1 0.35816634E-01 0.13701288E+04</pdfrwt>
<totfact> 0.54190530E+01</totfact>
</mgrwt>
</event>
<event>
12    6  0.1462228E-007  0.1842499E+04  0.7818608E-02  0.8684020E-01
         -1   -1    0    0    0  501 -0.00000000000E+00  0.00000000000E+00  0.37247494233E+03  0.37247494233E+03  0.00000000000E+00 0.  1.
          2   -1    0    0  501    0  0.00000000000E+00 -0.00000000000E+00 -0.22785452904E+04  0.22785452904E+04  0.00000000000E+00 0. -1.
         24    2    1    2    0    0  0.21594671380E+03  0.63649958300E+03 -0.32517252639E+03  0.75183238678E+03  0.88034445126E+02 0.  0.
        254    2    1    2    0    0 -0.21594671380E+03 -0.63649958300E+03 -0.15808978217E+04  0.18991878460E+04  0.80988384924E+03 0.  0.
         23    2    4    4    0    0  0.24420305015E+03 -0.46813023387E+03 -0.64570346485E+03  0.83944791673E+03  0.94650910329E+02 0.  0.
         23    2    4    4    0    0 -0.46014976395E+03 -0.16836934913E+03 -0.93519435683E+03  0.10597399292E+04  0.91510597963E+02 0.  0.
          4    1    3    3  502    0  0.64331621370E+02  0.13521273114E+03 -0.10924178137E+03  0.18535049761E+03  0.00000000000E+00 0. -1.
         -3    1    3    3    0  502  0.15161509243E+03  0.50128685187E+03 -0.21593074502E+03  0.56648188917E+03  0.00000000000E+00 0.  1.
         11    1    5    5    0    0 -0.87288781012E+01 -0.11886134663E+02 -0.17297938985E+02  0.22730864552E+02  0.00000000000E+00 0. -1.
        -11    1    5    5    0    0  0.25293192825E+03 -0.45624409921E+03 -0.62840552586E+03  0.81671705218E+03  0.00000000000E+00 0.  1.
          2    1    6    6  503    0 -0.27276456328E+03 -0.14671278252E+03 -0.57048685359E+03  0.64913819612E+03  0.00000000000E+00 0. -1.
         -2    1    6    6    0  503 -0.18738520067E+03 -0.21656566615E+02 -0.36470750324E+03  0.41060173310E+03  0.00000000000E+00 0.  1.
<mgrwt>
<rscale>  0 0.18424994E+04</rscale>
<asrwt>0</asrwt>
<pdfrwt beam="1">  1        2 0.35054543E+00 0.18424994E+04</pdfrwt>
<pdfrwt beam="2">  1       -1 0.57303837E-01 0.18424994E+04</pdfrwt>
<totfact> 0.15409338E+01</totfact>
</mgrwt>
</event>
<event>
12    6  0.1462228E-007  0.1784700E+04  0.7818608E-02  0.8714479E-01
          2   -1    0    0  501    0  0.00000000000E+00  0.00000000000E+00  0.12506601033E+04  0.12506601033E+04  0.00000000000E+00 0. -1.
         -1   -1    0    0    0  501 -0.00000000000E+00 -0.00000000000E+00 -0.63669435086E+03  0.63669435086E+03  0.00000000000E+00 0.  1.
         24    2    1    2    0    0  0.22780103990E+03  0.18725852885E+03  0.85505720941E+03  0.90798095159E+03  0.79671241267E+02 0.  0.
        254    2    1    2    0    0 -0.22780103990E+03 -0.18725852885E+03 -0.24109145695E+03  0.97937350258E+03  0.90226841713E+03 0.  0.
         23    2    4    4    0    0  0.30153253096E+03 -0.19156029117E+03 -0.24749628914E+03  0.44323142148E+03  0.87077364854E+02 0.  0.
         23    2    4    4    0    0 -0.52933357086E+03  0.43017623172E+01  0.64048321958E+01  0.53614208110E+03  0.84822018647E+02 0.  0.
          2    1    3    3  502    0  0.22916503676E+03  0.19158619584E+03  0.82151382798E+03  0.87413205757E+03  0.00000000000E+00 0. -1.
         -1    1    3    3    0  502 -0.13639968553E+01 -0.43276669852E+01  0.33543381429E+02  0.33848894024E+02  0.00000000000E+00 0.  1.
         11    1    5    5    0    0  0.29308010585E+03 -0.16008465772E+03 -0.23490326566E+03  0.40829228537E+03  0.00000000000E+00 0. -1.
        -11    1    5    5    0    0  0.84524251177E+01 -0.31475633456E+02 -0.12593023486E+02  0.34939136113E+02  0.00000000000E+00 0.  1.
          1    1    6    6  503    0 -0.35079702592E+03 -0.22257272450E+02  0.35578747436E+02  0.35329843877E+03  0.00000000000E+00 0. -1.
         -1    1    6    6    0  503 -0.17853654495E+03  0.26559034767E+02 -0.29173915240E+02  0.18284364233E+03  0.00000000000E+00 0.  1.
<mgrwt>
<rscale>  0 0.17846997E+04</rscale>
<asrwt>0</asrwt>
<pdfrwt beam="1">  1        2 0.19240925E+00 0.17846997E+04</pdfrwt>
<pdfrwt beam="2">  1       -1 0.97952978E-01 0.17846997E+04</pdfrwt>
<totfact> 0.19029978E+01</totfact>
</mgrwt>
</event>
<event>
12    6  0.1462228E-007  0.2622214E+04  0.7818608E-02  0.8360695E-01
         -1   -1    0    0    0  501 -0.00000000000E+00  0.00000000000E+00  0.95825520306E+03  0.95825520306E+03  0.00000000000E+00 0.  1.
          2   -1    0    0  501    0  0.00000000000E+00 -0.00000000000E+00 -0.17938868024E+04  0.17938868024E+04  0.00000000000E+00 0. -1.
         24    2    1    2    0    0  0.48219349296E+03  0.98789040998E+03  0.11119312429E+01  0.11033814641E+04  0.94928352366E+02 0.  0.
        254    2    1    2    0    0 -0.48219349296E+03 -0.98789040998E+03 -0.83674353054E+03  0.16487605414E+04  0.89990752861E+03 0.  0.
         23    2    4    4    0    0 -0.60220239866E+03 -0.91807367970E+03 -0.38446845352E+03  0.11667734387E+04  0.89650740261E+02 0.  0.
         23    2    4    4    0    0  0.12000890569E+03 -0.69816730282E+02 -0.45227507702E+03  0.48198710264E+03  0.92099449222E+02 0.  0.
          4    1    3    3  502    0  0.46487935689E+03  0.97549707758E+03  0.90899665340E+01  0.10806433234E+04  0.00000000000E+00 0. -1.
         -3    1    3    3    0  502  0.17314136072E+02  0.12393332393E+02 -0.79780352911E+01  0.22738140707E+02  0.00000000000E+00 0.  1.
         11    1    5    5    0    0 -0.59364830938E+03 -0.88367377652E+03 -0.36035189585E+03  0.11238999721E+04  0.00000000000E+00 0.  1.
        -11    1    5    5    0    0 -0.85540892779E+01 -0.34399903176E+02 -0.24116557663E+02  0.42873466567E+02  0.00000000000E+00 0. -1.
          1    1    6    6  503    0  0.25322175539E+02  0.12757760388E+02 -0.17879697413E+03  0.18103129835E+03  0.00000000000E+00 0. -1.
         -1    1    6    6    0  503  0.94686730156E+02 -0.82574490671E+02 -0.27347810289E+03  0.30095580429E+03  0.00000000000E+00 0.  1.
<mgrwt>
<rscale>  0 0.26222138E+04</rscale>
<asrwt>0</asrwt>
<pdfrwt beam="1">  1        2 0.27598258E+00 0.26222138E+04</pdfrwt>
<pdfrwt beam="2">  1       -1 0.14742388E+00 0.26222138E+04</pdfrwt>
<totfact> 0.31947633E+00</totfact>
</mgrwt>
</event>
<event>
12    6  0.1462228E-007  0.1491082E+04  0.7818608E-02  0.8890405E-01
         -1   -1    0    0    0  501 -0.00000000000E+00  0.00000000000E+00  0.11745348572E+04  0.11745348572E+04  0.00000000000E+00 0.  1.
          2   -1    0    0  501    0  0.00000000000E+00 -0.00000000000E+00 -0.47323520263E+03  0.47323520263E+03  0.00000000000E+00 0. -1.
         24    2    1    2    0    0  0.28410656144E+03  0.32018977321E+03  0.30924726179E+01  0.43545852819E+03  0.79853223265E+02 0.  0.
        254    2    1    2    0    0 -0.28410656144E+03 -0.32018977321E+03  0.69820718200E+03  0.12123115317E+04  0.89385007229E+03 0.  0.
         23    2    4    4    0    0  0.29499585213E+03 -0.13905119422E+03  0.41791449618E+03  0.53778727495E+03  0.90580569640E+02 0.  0.
         23    2    4    4    0    0 -0.57910241357E+03 -0.18113857899E+03  0.28029268582E+03  0.67452425673E+03  0.90819562868E+02 0.  0.
          2    1    3    3  502    0  0.17307865141E+03  0.24750821499E+03  0.13715873887E+02  0.30233203810E+03  0.00000000000E+00 0. -1.
         -1    1    3    3    0  502  0.11102791003E+03  0.72681558220E+02 -0.10623401269E+02  0.13312649010E+03  0.00000000000E+00 0.  1.
         11    1    5    5    0    0  0.16099276564E+02  0.11647180251E+02  0.38862713444E+02  0.43648069945E+02  0.00000000000E+00 0.  1.
        -11    1    5    5    0    0  0.27889657556E+03 -0.15069837448E+03  0.37905178274E+03  0.49413920501E+03  0.00000000000E+00 0. -1.
          4    1    6    6  503    0 -0.41663012580E+03 -0.11742141576E+03  0.15536386239E+03  0.45989822824E+03  0.00000000000E+00 0. -1.
         -4    1    6    6    0  503 -0.16247228777E+03 -0.63717163232E+02  0.12492882343E+03  0.21462602849E+03  0.00000000000E+00 0.  1.
<mgrwt>
<rscale>  0 0.14910818E+04</rscale>
<asrwt>0</asrwt>
<pdfrwt beam="1">  1        2 0.72805416E-01 0.14910818E+04</pdfrwt>
<pdfrwt beam="2">  1       -1 0.18069767E+00 0.14910818E+04</pdfrwt>
<totfact> 0.14926089E+01</totfact>
</mgrwt>
</event>
<event>
12    6  0.1462228E-007  0.2215282E+04  0.7818608E-02  0.8512094E-01
          2   -1    0    0  501    0  0.00000000000E+00  0.00000000000E+00  0.21790184719E+04  0.21790184719E+04  0.00000000000E+00 0. -1.
         -1   -1    0    0    0  501 -0.00000000000E+00 -0.00000000000E+00 -0.56303716068E+03  0.56303716068E+03  0.00000000000E+00 0.  1.
         24    2    1    2    0    0 -0.30195430614E+03 -0.86695970005E+03  0.58825425550E+03  0.10933240836E+04  0.80740065527E+02 0.  0.
        254    2    1    2    0    0  0.30195430614E+03  0.86695970005E+03  0.10277270557E+04  0.16487315490E+04  0.90515042673E+03 0.  0.
         23    2    4    4    0    0  0.29961459556E+03  0.72757339173E+03  0.11810814641E+04  0.14221626295E+04  0.91984638286E+02 0.  0.
         23    2    4    4    0    0  0.23397105834E+01  0.13938630832E+03 -0.15335440840E+03  0.22656891945E+03  0.91552626876E+02 0.  0.
          2    1    3    3  502    0 -0.11788790229E+02 -0.86986012192E+02  0.37959798103E+02  0.95637273927E+02  0.00000000000E+00 0. -1.
         -1    1    3    3    0  502 -0.29016551591E+03 -0.77997368786E+03  0.55029445740E+03  0.99768680969E+03  0.00000000000E+00 0.  1.
         11    1    5    5    0    0  0.20849538111E+03  0.41122374075E+03  0.63957022333E+03  0.78843221615E+03  0.00000000000E+00 0.  1.
        -11    1    5    5    0    0  0.91119214453E+02  0.31634965097E+03  0.54151124082E+03  0.63373041339E+03  0.00000000000E+00 0. -1.
          2    1    6    6  503    0  0.44512623178E+02  0.88234879594E+02 -0.75852087765E+02  0.12458052343E+03  0.00000000000E+00 0. -1.
         -2    1    6    6    0  503 -0.42172912595E+02  0.51151428731E+02 -0.77502320640E+02  0.10198839602E+03  0.00000000000E+00 0.  1.
<mgrwt>
<rscale>  0 0.22152818E+04</rscale>
<asrwt>0</asrwt>
<pdfrwt beam="1">  1        2 0.33523361E+00 0.22152818E+04</pdfrwt>
<pdfrwt beam="2">  1       -1 0.86621103E-01 0.22152818E+04</pdfrwt>
<totfact> 0.72423622E+00</totfact>
</mgrwt>
</event>
<event>
12    6  0.1462228E-007  0.1582447E+04  0.7818608E-02  0.8831405E-01
         -1   -1    0    0    0  501 -0.00000000000E+00  0.00000000000E+00  0.59677597718E+03  0.59677597718E+03  0.00000000000E+00 0.  1.
          2   -1    0    0  501    0  0.00000000000E+00 -0.00000000000E+00 -0.10490280810E+04  0.10490280810E+04  0.00000000000E+00 0. -1.
         24    2    1    2    0    0 -0.10620422613E+03 -0.38197071951E+02 -0.69731878139E+03  0.71093541992E+03  0.80233001113E+02 0.  0.
        254    2    1    2    0    0  0.10620422613E+03  0.38197071951E+02  0.24506667754E+03  0.93486863828E+03  0.89508845398E+03 0.  0.
         23    2    4    4    0    0 -0.25876811449E+03  0.49362118273E+02 -0.20662742954E+03  0.34722680877E+03  0.92054365968E+02 0.  0.
         23    2    4    4    0    0  0.36497234062E+03 -0.11165046322E+02  0.45169410709E+03  0.58764182951E+03  0.89251810805E+02 0.  0.
          2    1    3    3  502    0 -0.11735833926E+03 -0.39812589044E+02 -0.67030621489E+03  0.68166593267E+03  0.00000000000E+00 0. -1.
         -1    1    3    3    0  502  0.11154113130E+02  0.16155170933E+01 -0.27012566496E+02  0.29269487250E+02  0.00000000000E+00 0.  1.
         11    1    5    5    0    0 -0.65305929094E+02  0.44687679356E+02 -0.28204926872E+02  0.84008160085E+02  0.00000000000E+00 0. -1.
        -11    1    5    5    0    0 -0.19346218540E+03  0.46744389171E+01 -0.17842250267E+03  0.26321864869E+03  0.00000000000E+00 0.  1.
          1    1    6    6  503    0  0.48927325890E+02 -0.22832613683E+02  0.10695781054E+03  0.11981312408E+03  0.00000000000E+00 0. -1.
         -1    1    6    6    0  503  0.31604501473E+03  0.11667567361E+02  0.34473629654E+03  0.46782870543E+03  0.00000000000E+00 0.  1.
<mgrwt>
<rscale>  0 0.15824472E+04</rscale>
<asrwt>0</asrwt>
<pdfrwt beam="1">  1        2 0.16138893E+00 0.15824472E+04</pdfrwt>
<pdfrwt beam="2">  1       -1 0.91811690E-01 0.15824472E+04</pdfrwt>
<totfact> 0.29681654E+01</totfact>
</mgrwt>
</event>
<event>
12    6  0.1462228E-007  0.2343414E+04  0.7818608E-02  0.8460998E-01
          2   -1    0    0  501    0  0.00000000000E+00  0.00000000000E+00  0.28138281347E+04  0.28138281347E+04  0.00000000000E+00 0. -1.
         -1   -1    0    0    0  501 -0.00000000000E+00 -0.00000000000E+00 -0.48791074307E+03  0.48791074307E+03  0.00000000000E+00 0.  1.
         24    2    1    2    0    0 -0.38084661436E+03  0.59178650595E+03  0.19620245473E+04  0.20869173721E+04  0.10211944606E+03 0.  0.
        254    2    1    2    0    0  0.38084661436E+03 -0.59178650595E+03  0.36389284430E+03  0.12148215057E+04  0.92093315515E+03 0.  0.
         23    2    4    4    0    0  0.28347674090E+03 -0.53075113994E+03 -0.19348827161E+03  0.63859030325E+03  0.91126445007E+02 0.  0.
         23    2    4    4    0    0  0.97369873468E+02 -0.61035366011E+02  0.55738111591E+03  0.57623120244E+03  0.90346456078E+02 0.  0.
          2    1    3    3  502    0 -0.24934558025E+03  0.38955766293E+03  0.11407767220E+04  0.12309751909E+04  0.00000000000E+00 0. -1.
         -1    1    3    3    0  502 -0.13150103411E+03  0.20222884302E+03  0.82124782534E+03  0.85594218119E+03  0.00000000000E+00 0.  1.
         11    1    5    5    0    0  0.87699489716E+02 -0.16697561349E+03 -0.10587369802E+03  0.21628984241E+03  0.00000000000E+00 0. -1.
        -11    1    5    5    0    0  0.19577725118E+03 -0.36377552645E+03 -0.87614573593E+02  0.42230046084E+03  0.00000000000E+00 0.  1.
          2    1    6    6  503    0  0.90695016315E+01 -0.45554340297E+02  0.10155194068E+03  0.11167027553E+03  0.00000000000E+00 0. -1.
         -2    1    6    6    0  503  0.88300371836E+02 -0.15481025713E+02  0.45582917523E+03  0.46456092691E+03  0.00000000000E+00 0.  1.
<mgrwt>
<rscale>  0 0.23434137E+04</rscale>
<asrwt>0</asrwt>
<pdfrwt beam="1">  1        2 0.43289663E+00 0.23434137E+04</pdfrwt>
<pdfrwt beam="2">  1       -1 0.75063193E-01 0.23434137E+04</pdfrwt>
<totfact> 0.41615564E+00</totfact>
</mgrwt>
</event>
<event>
12    6  0.1462228E-007  0.1802101E+04  0.7818608E-02  0.8705183E-01
          2   -1    0    0  501    0  0.00000000000E+00  0.00000000000E+00  0.23737490059E+04  0.23737490059E+04  0.00000000000E+00 0. -1.
         -1   -1    0    0    0  501 -0.00000000000E+00 -0.00000000000E+00 -0.34202934693E+03  0.34202934693E+03  0.00000000000E+00 0.  1.
         24    2    1    2    0    0  0.47080135049E+03  0.17719236226E+03  0.98922096902E+02  0.51892412992E+03  0.80284659109E+02 0.  0.
        254    2    1    2    0    0 -0.47080135049E+03 -0.17719236226E+03  0.19327975620E+04  0.21968542229E+04  0.91510164239E+03 0.  0.
         23    2    4    4    0    0 -0.60307535348E+03 -0.39239093978E+03  0.10659792900E+04  0.12892693174E+04  0.90735849665E+02 0.  0.
         23    2    4    4    0    0  0.13227400299E+03  0.21519857752E+03  0.86681827206E+03  0.90758490553E+03  0.92355857036E+02 0.  0.
          4    1    3    3  502    0  0.47713214594E+02 -0.86460183471E+00 -0.58831920349E+01  0.48082328684E+02  0.00000000000E+00 0. -1.
         -3    1    3    3    0  502  0.42308813590E+03  0.17805696410E+03  0.10480528894E+03  0.47084180124E+03  0.00000000000E+00 0.  1.
         11    1    5    5    0    0 -0.28980959709E+02 -0.45416198921E+02  0.67129993531E+02  0.86075334338E+02  0.00000000000E+00 0.  1.
        -11    1    5    5    0    0 -0.57409439377E+03 -0.34697474086E+03  0.99884929644E+03  0.12031939830E+04  0.00000000000E+00 0. -1.
          1    1    6    6  503    0  0.73782714534E+02  0.16763073000E+03  0.71490377055E+03  0.73799143068E+03  0.00000000000E+00 0.  1.
         -1    1    6    6    0  503  0.58491288454E+02  0.47567847526E+02  0.15191450151E+03  0.16959347485E+03  0.00000000000E+00 0. -1.
<mgrwt>
<rscale>  0 0.18021008E+04</rscale>
<asrwt>0</asrwt>
<pdfrwt beam="1">  1        2 0.36519214E+00 0.18021008E+04</pdfrwt>
<pdfrwt beam="2">  1       -1 0.52619901E-01 0.18021008E+04</pdfrwt>
<totfact> 0.16110949E+01</totfact>
</mgrwt>
</event>
<event>
12    6  0.1462228E-007  0.1252052E+04  0.7818608E-02  0.9068477E-01
         -1   -1    0    0    0  501 -0.00000000000E+00  0.00000000000E+00  0.34806049344E+03  0.34806049344E+03  0.00000000000E+00 0.  1.
          2   -1    0    0  501    0  0.00000000000E+00 -0.00000000000E+00 -0.11259774896E+04  0.11259774896E+04  0.00000000000E+00 0. -1.
         24    2    1    2    0    0 -0.17772647023E+03 -0.10510218576E+03 -0.40509430382E+03  0.46034296566E+03  0.71979742764E+02 0.  0.
        254    2    1    2    0    0  0.17772647023E+03  0.10510218576E+03 -0.37282269232E+03  0.10136950174E+04  0.91975413055E+03 0.  0.
         23    2    4    4    0    0 -0.90709249214E+02  0.14370291324E+03 -0.61078302024E+03  0.64163926304E+03  0.98824849547E+02 0.  0.
         23    2    4    4    0    0  0.26843571945E+03 -0.38600727473E+02  0.23796032792E+03  0.37205575434E+03  0.90843904809E+02 0.  0.
          2    1    3    3  502    0 -0.14473866576E+03 -0.87761163499E+02 -0.25776632674E+03  0.30837441915E+03  0.00000000000E+00 0. -1.
         -1    1    3    3    0  502 -0.32987804475E+02 -0.17341022264E+02 -0.14732797708E+03  0.15196854651E+03  0.00000000000E+00 0.  1.
         11    1    5    5    0    0 -0.95275557098E+02  0.11934807909E+03 -0.58954791791E+03  0.60900586473E+03  0.00000000000E+00 0. -1.
        -11    1    5    5    0    0  0.45663078835E+01  0.24354834144E+02 -0.21235102327E+02  0.32633398301E+02  0.00000000000E+00 0.  1.
          3    1    6    6  503    0  0.12898554531E+03 -0.61412073406E+02  0.98527568994E+02  0.17354076037E+03  0.00000000000E+00 0. -1.
         -3    1    6    6    0  503  0.13945017414E+03  0.22811345933E+02  0.13943275892E+03  0.19851499397E+03  0.00000000000E+00 0.  1.
<mgrwt>
<rscale>  0 0.12520516E+04</rscale>
<asrwt>0</asrwt>
<pdfrwt beam="1">  1        2 0.17322730E+00 0.12520516E+04</pdfrwt>
<pdfrwt beam="2">  1       -1 0.53547769E-01 0.12520516E+04</pdfrwt>
<totfact> 0.82845283E+01</totfact>
</mgrwt>
</event>
<event>
12    6  0.1462228E-007  0.2548301E+04  0.7818608E-02  0.8385977E-01
          2   -1    0    0  501    0  0.00000000000E+00  0.00000000000E+00  0.28641632565E+04  0.28641632565E+04  0.00000000000E+00 0. -1.
         -1   -1    0    0    0  501 -0.00000000000E+00 -0.00000000000E+00 -0.56681809039E+03  0.56681809039E+03  0.00000000000E+00 0.  1.
         24    2    1    2    0    0 -0.96791903455E+03 -0.88185220763E+02  0.17408105770E+04  0.19953435487E+04  0.79564577287E+02 0.  0.
        254    2    1    2    0    0  0.96791903455E+03  0.88185220763E+02  0.55653458917E+03  0.14356377982E+04  0.89815435645E+03 0.  0.
         23    2    4    4    0    0  0.10539777214E+04  0.16680294193E+03  0.25692762812E+03  0.11012326846E+04  0.89495032970E+02 0.  0.
         23    2    4    4    0    0 -0.86058686868E+02 -0.78617721168E+02  0.29960696106E+03  0.33440511355E+03  0.92063050070E+02 0.  0.
          4    1    3    3  502    0 -0.60451398436E+03 -0.75668381863E+02  0.11557684729E+04  0.13065081799E+04  0.00000000000E+00 0. -1.
         -3    1    3    3    0  502 -0.36340505019E+03 -0.12516838900E+02  0.58504210406E+03  0.68883536878E+03  0.00000000000E+00 0.  1.
         11    1    5    5    0    0  0.10068319198E+04  0.17541960701E+03  0.25467505630E+03  0.10532530263E+04  0.00000000000E+00 0.  1.
        -11    1    5    5    0    0  0.47145801655E+02 -0.86166650754E+01  0.22525718204E+01  0.47979658300E+02  0.00000000000E+00 0. -1.
          1    1    6    6  503    0 -0.58205638990E+02  0.51977414384E+01  0.94779995324E+02  0.11134702708E+03  0.00000000000E+00 0. -1.
         -1    1    6    6    0  503 -0.27853047878E+02 -0.83815462607E+02  0.20482696573E+03  0.22305808647E+03  0.00000000000E+00 0.  1.
<mgrwt>
<rscale>  0 0.25483010E+04</rscale>
<asrwt>0</asrwt>
<pdfrwt beam="1">  1        2 0.44064049E+00 0.25483010E+04</pdfrwt>
<pdfrwt beam="2">  1       -1 0.87202785E-01 0.25483010E+04</pdfrwt>
<totfact> 0.27641632E+00</totfact>
</mgrwt>
</event>
<event>
12    6  0.1462228E-007  0.2108571E+04  0.7818608E-02  0.8557477E-01
          2   -1    0    0  501    0  0.00000000000E+00  0.00000000000E+00  0.10232307013E+04  0.10232307013E+04  0.00000000000E+00 0. -1.
         -1   -1    0    0    0  501 -0.00000000000E+00 -0.00000000000E+00 -0.10862829080E+04  0.10862829080E+04  0.00000000000E+00 0.  1.
         24    2    1    2    0    0  0.21731053709E+03  0.82970987905E+03  0.36927400010E+02  0.86224520721E+03  0.80379173711E+02 0.  0.
        254    2    1    2    0    0 -0.21731053709E+03 -0.82970987905E+03 -0.99979606705E+02  0.12472684020E+04  0.90002232861E+03 0.  0.
         23    2    4    4    0    0 -0.47786837571E+03 -0.23914999274E+03 -0.21779223690E+03  0.58507804341E+03  0.96602043982E+02 0.  0.
         23    2    4    4    0    0  0.26055783862E+03 -0.59055988630E+03  0.11781263019E+03  0.66219035861E+03  0.89246224693E+02 0.  0.
          2    1    3    3  502    0  0.19668203460E+03  0.71967491109E+03  0.59656256971E+01  0.74609073783E+03  0.00000000000E+00 0. -1.
         -1    1    3    3    0  502  0.20628502497E+02  0.11003496795E+03  0.30961774313E+02  0.11615446938E+03  0.00000000000E+00 0.  1.
         11    1    5    5    0    0 -0.19856358329E+03 -0.14046341039E+03 -0.13171993900E+03  0.27660008785E+03  0.00000000000E+00 0.  1.
        -11    1    5    5    0    0 -0.27930479242E+03 -0.98686582348E+02 -0.86072297893E+02  0.30847795556E+03  0.00000000000E+00 0. -1.
          2    1    6    6  503    0  0.20039603228E+03 -0.50486419285E+03  0.12451600381E+03  0.55727072252E+03  0.00000000000E+00 0. -1.
         -2    1    6    6    0  503  0.60161806336E+02 -0.85695693455E+02 -0.67033736162E+01  0.10491963609E+03  0.00000000000E+00 0.  1.
<mgrwt>
<rscale>  0 0.21085711E+04</rscale>
<asrwt>0</asrwt>
<pdfrwt beam="1">  1        2 0.15742011E+00 0.21085711E+04</pdfrwt>
<pdfrwt beam="2">  1       -1 0.16712045E+00 0.21085711E+04</pdfrwt>
<totfact> 0.66066741E+00</totfact>
</mgrwt>
</event>
<event>
12    6  0.1462228E-007  0.2313662E+04  0.7818608E-02  0.8472554E-01
         -1   -1    0    0    0  501 -0.00000000000E+00  0.00000000000E+00  0.34595007234E+03  0.34595007234E+03  0.00000000000E+00 0.  1.
          2   -1    0    0  501    0  0.00000000000E+00 -0.00000000000E+00 -0.38683569787E+04  0.38683569787E+04  0.00000000000E+00 0. -1.
         24    2    1    2    0    0  0.35503245467E+03 -0.48273220787E+03 -0.83261098778E+02  0.61011859378E+03  0.78954794168E+02 0.  0.
        254    2    1    2    0    0 -0.35503245467E+03  0.48273220787E+03 -0.34391458076E+04  0.36041884573E+04  0.89631028182E+03 0.  0.
         23    2    4    4    0    0  0.32494825866E+02 -0.21581592340E+02  0.10829849578E+02  0.94949819281E+02  0.85886574641E+02 0.  0.
         23    2    4    4    0    0 -0.38752728054E+03  0.50431380021E+03 -0.34499756572E+04  0.35092386380E+04  0.88960559219E+02 0.  0.
          2    1    3    3  502    0  0.10566945575E+03 -0.10305734890E+03 -0.44797691341E+02  0.15425201519E+03  0.00000000000E+00 0. -1.
         -1    1    3    3    0  502  0.24936299893E+03 -0.37967485897E+03 -0.38463407437E+02  0.45586657859E+03  0.00000000000E+00 0.  1.
         11    1    5    5    0    0 -0.11913994284E+02  0.67426727024E+01 -0.26883156641E+02  0.30168046108E+02  0.00000000000E+00 0. -1.
        -11    1    5    5    0    0  0.44408820150E+02 -0.28324265043E+02  0.37713006219E+02  0.64781773173E+02  0.00000000000E+00 0.  1.
          2    1    6    6  503    0 -0.25123066972E+02  0.81035698907E+02 -0.43201157526E+03  0.44026350535E+03  0.00000000000E+00 0. -1.
         -2    1    6    6    0  503 -0.36240421357E+03  0.42327810130E+03 -0.30179640819E+04  0.30689751326E+04  0.00000000000E+00 0.  1.
<mgrwt>
<rscale>  0 0.23136624E+04</rscale>
<asrwt>0</asrwt>
<pdfrwt beam="1">  1        2 0.59513186E+00 0.23136624E+04</pdfrwt>
<pdfrwt beam="2">  1       -1 0.53223086E-01 0.23136624E+04</pdfrwt>
<totfact> 0.16037487E+00</totfact>
</mgrwt>
</event>
<event>
12    6  0.1462228E-007  0.3023391E+04  0.7818608E-02  0.8237083E-01
         -1   -1    0    0    0  501 -0.00000000000E+00  0.00000000000E+00  0.82472423765E+03  0.82472423765E+03  0.00000000000E+00 0.  1.
          2   -1    0    0  501    0  0.00000000000E+00 -0.00000000000E+00 -0.27708946004E+04  0.27708946004E+04  0.00000000000E+00 0. -1.
         24    2    1    2    0    0  0.10999423165E+03 -0.12506784342E+04 -0.21612291400E+03  0.12763922683E+04  0.78567372027E+02 0.  0.
        254    2    1    2    0    0 -0.10999423165E+03  0.12506784342E+04 -0.17300474487E+04  0.23192265697E+04  0.89969574312E+03 0.  0.
         23    2    4    4    0    0 -0.45464282606E+03  0.83812116896E+03 -0.13443381277E+04  0.16507769858E+04  0.93126054389E+02 0.  0.
         23    2    4    4    0    0  0.34464859440E+03  0.41255726520E+03 -0.38570932100E+03  0.66844958393E+03  0.95220876178E+02 0.  0.
          4    1    3    3  502    0  0.30578616991E+02 -0.27540713861E+03 -0.15465619785E+02  0.27753077164E+03  0.00000000000E+00 0. -1.
         -3    1    3    3    0  502  0.79415614660E+02 -0.97527129555E+03 -0.20065729422E+03  0.99886149666E+03  0.00000000000E+00 0.  1.
         11    1    5    5    0    0 -0.19049667770E+03  0.38102677163E+03 -0.67686942421E+03  0.79976409168E+03  0.00000000000E+00 0.  1.
        -11    1    5    5    0    0 -0.26414614835E+03  0.45709439732E+03 -0.66746870350E+03  0.85101289409E+03  0.00000000000E+00 0. -1.
          1    1    6    6  503    0 -0.65781972105E+00  0.17956594998E+01  0.45434741471E+01  0.49295311288E+01  0.00000000000E+00 0. -1.
         -1    1    6    6    0  503  0.34530641413E+03  0.41076160570E+03 -0.39025279514E+03  0.66352005280E+03  0.00000000000E+00 0.  1.
<mgrwt>
<rscale>  0 0.30233914E+04</rscale>
<asrwt>0</asrwt>
<pdfrwt beam="1">  1        2 0.42629148E+00 0.30233914E+04</pdfrwt>
<pdfrwt beam="2">  1       -1 0.12688065E+00 0.30233914E+04</pdfrwt>
<totfact> 0.12597774E+00</totfact>
</mgrwt>
</event>
<event>
12    6  0.1462228E-007  0.1644802E+04  0.7818608E-02  0.8793488E-01
          2   -1    0    0  501    0  0.00000000000E+00  0.00000000000E+00  0.73293706542E+03  0.73293706542E+03  0.00000000000E+00 0. -1.
         -1   -1    0    0    0  501 -0.00000000000E+00 -0.00000000000E+00 -0.92278461147E+03  0.92278461147E+03  0.00000000000E+00 0.  1.
         24    2    1    2    0    0 -0.50562164296E+03  0.28152360781E+03 -0.79247054113E+02  0.59034981367E+03  0.85580484574E+02 0.  0.
        254    2    1    2    0    0  0.50562164296E+03 -0.28152360781E+03 -0.11060049194E+03  0.10653718632E+04  0.88762376633E+03 0.  0.
         23    2    4    4    0    0  0.46321836762E+03 -0.53405616468E+03  0.10191284788E+03  0.71966905814E+03  0.88034547473E+02 0.  0.
         23    2    4    4    0    0  0.42403275342E+02  0.25253255687E+03 -0.21251333982E+03  0.34570280508E+03  0.93689806270E+02 0.  0.
          2    1    3    3  502    0 -0.33765761208E+03  0.16256957665E+03 -0.85695881109E+02  0.38442855551E+03  0.00000000000E+00 0. -1.
         -1    1    3    3    0  502 -0.16796403088E+03  0.11895403115E+03  0.64488269962E+01  0.20592125817E+03  0.00000000000E+00 0.  1.
         11    1    5    5    0    0  0.38872029504E+03 -0.49143714970E+03  0.89612699307E+02  0.63296475081E+03  0.00000000000E+00 0.  1.
        -11    1    5    5    0    0  0.74498072577E+02 -0.42619014976E+02  0.12300148576E+02  0.86704307334E+02  0.00000000000E+00 0. -1.
          1    1    6    6  503    0 -0.42158753150E+00 -0.75263711308E+01 -0.13432990997E+02  0.15403546526E+02  0.00000000000E+00 0. -1.
         -1    1    6    6    0  503  0.42824862873E+02  0.26005892801E+03 -0.19908034882E+03  0.33029925856E+03  0.00000000000E+00 0.  1.
<mgrwt>
<rscale>  0 0.16448016E+04</rscale>
<asrwt>0</asrwt>
<pdfrwt beam="1">  1        2 0.11275955E+00 0.16448016E+04</pdfrwt>
<pdfrwt beam="2">  1       -1 0.14196686E+00 0.16448016E+04</pdfrwt>
<totfact> 0.17037397E+01</totfact>
</mgrwt>
</event>
<event>
12    6  0.1462228E-007  0.2976846E+04  0.7818608E-02  0.8250374E-01
          2   -1    0    0  501    0  0.00000000000E+00  0.00000000000E+00  0.13311966123E+04  0.13311966123E+04  0.00000000000E+00 0. -1.
         -1   -1    0    0    0  501 -0.00000000000E+00 -0.00000000000E+00 -0.16642194025E+04  0.16642194025E+04  0.00000000000E+00 0.  1.
         24    2    1    2    0    0  0.53721559431E+03 -0.10709223451E+04 -0.78767252885E+03  0.14360917976E+04  0.80351567582E+02 0.  0.
        254    2    1    2    0    0 -0.53721559431E+03  0.10709223451E+04  0.45464973861E+03  0.15593242171E+04  0.88843140715E+03 0.  0.
         23    2    4    4    0    0 -0.92431094004E+02  0.10210233600E+04  0.37761241123E+03  0.10959998157E+04  0.87133541825E+02 0.  0.
         23    2    4    4    0    0 -0.44478450031E+03  0.49898985127E+02  0.77037327373E+02  0.46332440141E+03  0.91714724532E+02 0.  0.
          2    1    3    3  502    0  0.54755061931E+02 -0.99336300764E+02 -0.10369336549E+03  0.15368191664E+03  0.00000000000E+00 0. -1.
         -1    1    3    3    0  502  0.48246053238E+03 -0.97158604438E+03 -0.68397916336E+03  0.12824098810E+04  0.00000000000E+00 0.  1.
         11    1    5    5    0    0 -0.10611587039E+03  0.83301864654E+03  0.29324951021E+03  0.88948070169E+03  0.00000000000E+00 0.  1.
        -11    1    5    5    0    0  0.13684776385E+02  0.18800471347E+03  0.84362901027E+02  0.20651911404E+03  0.00000000000E+00 0. -1.
          1    1    6    6  503    0 -0.16373509102E+03  0.56553520568E+02  0.53083104458E+02  0.18117752813E+03  0.00000000000E+00 0. -1.
         -1    1    6    6    0  503 -0.28104940929E+03 -0.66545354406E+01  0.23954222914E+02  0.28214687328E+03  0.00000000000E+00 0.  1.
<mgrwt>
<rscale>  0 0.29768461E+04</rscale>
<asrwt>0</asrwt>
<pdfrwt beam="1">  1        2 0.20479948E+00 0.29768461E+04</pdfrwt>
<pdfrwt beam="2">  1       -1 0.25603375E+00 0.29768461E+04</pdfrwt>
<totfact> 0.98616794E-01</totfact>
</mgrwt>
</event>
<event>
12    6  0.1462228E-007  0.2879146E+04  0.7818608E-02  0.8279109E-01
         -1   -1    0    0    0  501 -0.00000000000E+00  0.00000000000E+00  0.94144625961E+03  0.94144625961E+03  0.00000000000E+00 0.  1.
          2   -1    0    0  501    0  0.00000000000E+00 -0.00000000000E+00 -0.22012626646E+04  0.22012626646E+04  0.00000000000E+00 0. -1.
         24    2    1    2    0    0 -0.13339341079E+03 -0.12903892561E+04 -0.60845628052E+03  0.14353611893E+04  0.84524932132E+02 0.  0.
        254    2    1    2    0    0  0.13339341079E+03  0.12903892561E+04 -0.65136012445E+03  0.17073477349E+04  0.89881479833E+03 0.  0.
         23    2    4    4    0    0 -0.14985721008E+03  0.12000746712E+04 -0.32249002258E+03  0.12550559193E+04  0.92353375489E+02 0.  0.
         23    2    4    4    0    0  0.28325062086E+03  0.90314584884E+02 -0.32887010187E+03  0.45229181556E+03  0.89580712562E+02 0.  0.
          4    1    3    3  502    0 -0.84971456860E+02 -0.10232671845E+04 -0.51106225484E+03  0.11469439863E+04  0.00000000000E+00 0. -1.
         -3    1    3    3    0  502 -0.48421953925E+02 -0.26712207161E+03 -0.97394025686E+02  0.28841720303E+03  0.00000000000E+00 0.  1.
         11    1    5    5    0    0 -0.17424531982E+02  0.59308938926E+02  0.13929992536E+01  0.61831262305E+02  0.00000000000E+00 0. -1.
        -11    1    5    5    0    0 -0.13243267809E+03  0.11407657323E+04 -0.32388302183E+03  0.11932246570E+04  0.00000000000E+00 0.  1.
          1    1    6    6  503    0  0.44512615388E+02  0.39784028320E+02 -0.31138817377E+02  0.67333259135E+02  0.00000000000E+00 0. -1.
         -1    1    6    6    0  503  0.23873800547E+03  0.50530556564E+02 -0.29773128449E+03  0.38495855643E+03  0.00000000000E+00 0.  1.
<mgrwt>
<rscale>  0 0.28791461E+04</rscale>
<asrwt>0</asrwt>
<pdfrwt beam="1">  1        2 0.33865579E+00 0.28791461E+04</pdfrwt>
<pdfrwt beam="2">  1       -1 0.14483789E+00 0.28791461E+04</pdfrwt>
<totfact> 0.19421617E+00</totfact>
</mgrwt>
</event>
<event>
12    6  0.1462228E-007  0.1496739E+04  0.7818608E-02  0.8886624E-01
          2   -1    0    0  501    0  0.00000000000E+00  0.00000000000E+00  0.69618634566E+03  0.69618634566E+03  0.00000000000E+00 0. -1.
         -1   -1    0    0    0  501 -0.00000000000E+00 -0.00000000000E+00 -0.80446400588E+03  0.80446400588E+03  0.00000000000E+00 0.  1.
         24    2    1    2    0    0 -0.16733590311E+02 -0.27766703620E+03 -0.41875554100E+03  0.50923755913E+03  0.81164601130E+02 0.  0.
        254    2    1    2    0    0  0.16733590311E+02  0.27766703620E+03  0.31047788078E+03  0.99141279241E+03  0.89951309855E+03 0.  0.
         23    2    4    4    0    0  0.35723076668E+03  0.14127621154E+03  0.44161171416E+03  0.59104910660E+03  0.82130090202E+02 0.  0.
         23    2    4    4    0    0 -0.34049717637E+03  0.13639082465E+03 -0.13113383337E+03  0.40036368581E+03  0.92488996620E+02 0.  0.
          2    1    3    3  502    0 -0.33661692964E+02 -0.44803148182E+02 -0.89673805115E+02  0.10574413924E+03  0.00000000000E+00 0. -1.
         -3    1    3    3    0  502  0.16928102653E+02 -0.23286388801E+03 -0.32908173589E+03  0.40349341989E+03  0.00000000000E+00 0.  1.
         11    1    5    5    0    0  0.36647144647E+02  0.43931025192E+02  0.53463230993E+02  0.78302396217E+02  0.00000000000E+00 0. -1.
        -11    1    5    5    0    0  0.32058362204E+03  0.97345186353E+02  0.38814848316E+03  0.51274671038E+03  0.00000000000E+00 0.  1.
          4    1    6    6  503    0 -0.25386558975E+03  0.61765797530E+02 -0.11271774671E+03  0.28454883909E+03  0.00000000000E+00 0.  1.
         -4    1    6    6    0  503 -0.86631586619E+02  0.74625027122E+02 -0.18416086666E+02  0.11581484672E+03  0.00000000000E+00 0. -1.
<mgrwt>
<rscale>  0 0.14967389E+04</rscale>
<asrwt>0</asrwt>
<pdfrwt beam="1">  1        2 0.10710559E+00 0.14967389E+04</pdfrwt>
<pdfrwt beam="2">  1       -1 0.12376369E+00 0.14967389E+04</pdfrwt>
<totfact> 0.26132050E+01</totfact>
</mgrwt>
</event>
<event>
12    6  0.1462228E-007  0.2116614E+04  0.7818608E-02  0.8553960E-01
          2   -1    0    0  501    0  0.00000000000E+00  0.00000000000E+00  0.28873267949E+04  0.28873267949E+04  0.00000000000E+00 0. -1.
         -1   -1    0    0    0  501 -0.00000000000E+00 -0.00000000000E+00 -0.38790663366E+03  0.38790663366E+03  0.00000000000E+00 0.  1.
         24    2    1    2    0    0  0.60000561514E+03 -0.34056608605E+03  0.23607375085E+03  0.73355530768E+03  0.79878510329E+02 0.  0.
        254    2    1    2    0    0 -0.60000561514E+03  0.34056608605E+03  0.22633464104E+04  0.25416781209E+04  0.92811567144E+03 0.  0.
         23    2    4    4    0    0 -0.81609685581E+03  0.32032741734E+03  0.20138987617E+04  0.21983123923E+04  0.90362709372E+02 0.  0.
         23    2    4    4    0    0  0.21609124067E+03  0.20238668716E+02  0.24944764870E+03  0.34336572863E+03  0.92578972468E+02 0.  0.
          2    1    3    3  502    0 -0.22677142415E+01  0.59247699569E+00  0.80303839650E+00  0.24775850213E+01  0.00000000000E+00 0. -1.
         -1    1    3    3    0  502  0.60227332938E+03 -0.34115856305E+03  0.23527071245E+03  0.73107772265E+03  0.00000000000E+00 0.  1.
         11    1    5    5    0    0 -0.68146424576E+03  0.27528018205E+03  0.17624100128E+04  0.19095187222E+04  0.00000000000E+00 0. -1.
        -11    1    5    5    0    0 -0.13463261006E+03  0.45047235285E+02  0.25148874889E+03  0.28879367014E+03  0.00000000000E+00 0.  1.
          1    1    6    6  503    0  0.21806980662E+03  0.29282479907E+02  0.21475809001E+03  0.30746209753E+03  0.00000000000E+00 0. -1.
         -1    1    6    6    0  503 -0.19785659452E+01 -0.90438111912E+01  0.34689558689E+02  0.35903631100E+02  0.00000000000E+00 0.  1.
<mgrwt>
<rscale>  0 0.21166135E+04</rscale>
<asrwt>0</asrwt>
<pdfrwt beam="1">  1        2 0.44420411E+00 0.21166135E+04</pdfrwt>
<pdfrwt beam="2">  1       -1 0.59677945E-01 0.21166135E+04</pdfrwt>
<totfact> 0.61062585E+00</totfact>
</mgrwt>
</event>
<event>
12    6  0.1462228E-007  0.1154113E+04  0.7818608E-02  0.9153997E-01
          2   -1    0    0  501    0  0.00000000000E+00  0.00000000000E+00  0.13258750285E+04  0.13258750285E+04  0.00000000000E+00 0. -1.
         -1   -1    0    0    0  501 -0.00000000000E+00 -0.00000000000E+00 -0.25115065603E+03  0.25115065603E+03  0.00000000000E+00 0.  1.
         24    2    1    2    0    0 -0.13547682266E+03  0.30495431560E+02  0.45691790270E+03  0.48419931385E+03  0.79944136117E+02 0.  0.
        254    2    1    2    0    0  0.13547682266E+03 -0.30495431560E+02  0.61780646973E+03  0.10928263707E+04  0.89067429598E+03 0.  0.
         23    2    4    4    0    0 -0.21492598935E+03 -0.34215362599E+03  0.36664782705E+03  0.55310296254E+03  0.90719200923E+02 0.  0.
         23    2    4    4    0    0  0.35040281201E+03  0.31165819443E+03  0.25115864268E+03  0.53972340811E+03  0.91146764349E+02 0.  0.
          4    1    3    3  502    0 -0.83435901859E+02  0.57648232243E+02  0.28024121268E+03  0.29802685397E+03  0.00000000000E+00 0. -1.
         -3    1    3    3    0  502 -0.52040920803E+02 -0.27152800683E+02  0.17667669002E+03  0.18617245989E+03  0.00000000000E+00 0.  1.
         11    1    5    5    0    0 -0.54486895911E+02 -0.32850070043E+02  0.77837000028E+02  0.10053132597E+03  0.00000000000E+00 0. -1.
        -11    1    5    5    0    0 -0.16043909344E+03 -0.30930355594E+03  0.28881082702E+03  0.45257163657E+03  0.00000000000E+00 0.  1.
          2    1    6    6  503    0  0.18960652711E+03  0.13820022650E+03  0.80471958857E+02  0.24804369351E+03  0.00000000000E+00 0. -1.
         -2    1    6    6    0  503  0.16079628490E+03  0.17345796792E+03  0.17068668383E+03  0.29167971460E+03  0.00000000000E+00 0.  1.
<mgrwt>
<rscale>  0 0.11541133E+04</rscale>
<asrwt>0</asrwt>
<pdfrwt beam="1">  1        2 0.20398077E+00 0.11541133E+04</pdfrwt>
<pdfrwt beam="2">  1       -1 0.38638563E-01 0.11541133E+04</pdfrwt>
<totfact> 0.11677559E+02</totfact>
</mgrwt>
</event>
<event>
12    6  0.1462228E-007  0.1791593E+04  0.7818608E-02  0.8710783E-01
          2   -1    0    0  501    0  0.00000000000E+00  0.00000000000E+00  0.23787894191E+04  0.23787894191E+04  0.00000000000E+00 0. -1.
         -1   -1    0    0    0  501 -0.00000000000E+00 -0.00000000000E+00 -0.33733603664E+03  0.33733603664E+03  0.00000000000E+00 0.  1.
         24    2    1    2    0    0 -0.45772090401E+03 -0.42851769822E+03  0.40731305597E+03  0.75187837129E+03  0.79254753784E+02 0.  0.
        254    2    1    2    0    0  0.45772090401E+03  0.42851769822E+03  0.16341403265E+04  0.19642470845E+04  0.89146854035E+03 0.  0.
         23    2    4    4    0    0  0.57792961552E+03  0.48257414857E+03  0.16370260607E+04  0.18040718216E+04  0.89108724381E+02 0.  0.
         23    2    4    4    0    0 -0.12020871152E+03 -0.54056450346E+02 -0.28857342025E+01  0.16017526284E+03  0.90970067686E+02 0.  0.
          4    1    3    3  502    0 -0.67948965026E+02 -0.35548816550E+02  0.31728177152E+02  0.82990706899E+02  0.00000000000E+00 0. -1.
         -3    1    3    3    0  502 -0.38977193898E+03 -0.39296888167E+03  0.37558487881E+03  0.66888766439E+03  0.00000000000E+00 0.  1.
         11    1    5    5    0    0  0.54619721973E+03  0.47348642654E+03  0.15318420801E+04  0.16938302622E+04  0.00000000000E+00 0.  1.
        -11    1    5    5    0    0  0.31732395790E+02  0.90877220281E+01  0.10518398067E+03  0.11024155942E+03  0.00000000000E+00 0. -1.
          3    1    6    6  503    0 -0.54992780552E+02 -0.83145169857E+01 -0.43641877658E+02  0.70696185124E+02  0.00000000000E+00 0. -1.
         -3    1    6    6    0  503 -0.65215930965E+02 -0.45741933360E+02  0.40756143456E+02  0.89479077714E+02  0.00000000000E+00 0.  1.
<mgrwt>
<rscale>  0 0.17915930E+04</rscale>
<asrwt>0</asrwt>
<pdfrwt beam="1">  1        2 0.36596759E+00 0.17915930E+04</pdfrwt>
<pdfrwt beam="2">  1       -1 0.51897853E-01 0.17915930E+04</pdfrwt>
<totfact> 0.16450114E+01</totfact>
</mgrwt>
</event>
<event>
12    6  0.1462228E-007  0.2436534E+04  0.7818608E-02  0.8425951E-01
          2   -1    0    0  501    0  0.00000000000E+00  0.00000000000E+00  0.15426783041E+04  0.15426783041E+04  0.00000000000E+00 0. -1.
         -1   -1    0    0    0  501 -0.00000000000E+00 -0.00000000000E+00 -0.96207618775E+03  0.96207618775E+03  0.00000000000E+00 0.  1.
         24    2    1    2    0    0 -0.13305302782E+03  0.85843067213E+03 -0.35224407856E+03  0.94077148325E+03  0.79804547158E+02 0.  0.
        254    2    1    2    0    0  0.13305302782E+03 -0.85843067213E+03  0.93284619496E+03  0.15639830087E+04  0.90621989651E+03 0.  0.
         23    2    4    4    0    0 -0.79262387363E+01 -0.23830876616E+03 -0.15646079244E+03  0.29924765387E+03  0.90638212071E+02 0.  0.
         23    2    4    4    0    0  0.14097926656E+03 -0.62012190597E+03  0.10893069874E+04  0.12647353548E+04  0.92409268896E+02 0.  0.
          4    1    3    3  502    0 -0.24535791914E+01  0.23770120994E+03 -0.10716285732E+03  0.26075230248E+03  0.00000000000E+00 0. -1.
         -3    1    3    3    0  502 -0.13059944863E+03  0.62072946219E+03 -0.24508122124E+03  0.68001918077E+03  0.00000000000E+00 0.  1.
         11    1    5    5    0    0  0.11093481437E+01 -0.42905589171E+02 -0.76916520516E+02  0.88081049969E+02  0.00000000000E+00 0. -1.
        -11    1    5    5    0    0 -0.90355868799E+01 -0.19540317699E+03 -0.79544271924E+02  0.21116660390E+03  0.00000000000E+00 0.  1.
          3    1    6    6  503    0  0.14357735324E+02 -0.17311168546E+03  0.23449299218E+03  0.29182317178E+03  0.00000000000E+00 0. -1.
         -3    1    6    6    0  503  0.12662153124E+03 -0.44701022051E+03  0.85481399521E+03  0.97291218300E+03  0.00000000000E+00 0.  1.
<mgrwt>
<rscale>  0 0.24365337E+04</rscale>
<asrwt>0</asrwt>
<pdfrwt beam="1">  1        2 0.23733512E+00 0.24365337E+04</pdfrwt>
<pdfrwt beam="2">  1       -1 0.14801172E+00 0.24365337E+04</pdfrwt>
<totfact> 0.44351961E+00</totfact>
</mgrwt>
</event>
<event>
12    6  0.1462228E-007  0.2092228E+04  0.7818608E-02  0.8564675E-01
         -1   -1    0    0    0  501 -0.00000000000E+00  0.00000000000E+00  0.36322700486E+03  0.36322700486E+03  0.00000000000E+00 0.  1.
          2   -1    0    0  501    0  0.00000000000E+00 -0.00000000000E+00 -0.30128661882E+04  0.30128661882E+04  0.00000000000E+00 0. -1.
         24    2    1    2    0    0  0.40238090454E+03 -0.61775979459E+03 -0.17788643582E+04  0.19272644187E+04  0.80325453069E+02 0.  0.
        254    2    1    2    0    0 -0.40238090454E+03  0.61775979459E+03 -0.87077482514E+03  0.14488287744E+04  0.89292690925E+03 0.  0.
         23    2    4    4    0    0  0.13470229035E+03  0.53918634262E+03 -0.24025242712E+03  0.61249995945E+03  0.92565395810E+02 0.  0.
         23    2    4    4    0    0 -0.53708319489E+03  0.78573451975E+02 -0.63052239803E+03  0.83632881494E+03  0.85177736004E+02 0.  0.
          2    1    3    3  502    0  0.38226502231E+03 -0.54543946403E+03 -0.16189296052E+04  0.17505895643E+04  0.00000000000E+00 0. -1.
         -1    1    3    3    0  502  0.20115882229E+02 -0.72320330558E+02 -0.15993475302E+03  0.17667485433E+03  0.00000000000E+00 0.  1.
         11    1    5    5    0    0  0.14799097738E+03  0.47186130580E+03 -0.21704173595E+03  0.54005697518E+03  0.00000000000E+00 0.  1.
        -11    1    5    5    0    0 -0.13288687032E+02  0.67325036822E+02 -0.23210691169E+02  0.72442984275E+02  0.00000000000E+00 0. -1.
          4    1    6    6  503    0 -0.24949533877E+02  0.23547771065E+02 -0.36578771452E+02  0.50149609009E+02  0.00000000000E+00 0. -1.
         -4    1    6    6    0  503 -0.51213366101E+03  0.55025680909E+02 -0.59394362657E+03  0.78617920594E+03  0.00000000000E+00 0.  1.
<mgrwt>
<rscale>  0 0.20922279E+04</rscale>
<asrwt>0</asrwt>
<pdfrwt beam="1">  1        2 0.46351789E+00 0.20922279E+04</pdfrwt>
<pdfrwt beam="2">  1       -1 0.55881075E-01 0.20922279E+04</pdfrwt>
<totfact> 0.58208357E+00</totfact>
</mgrwt>
</event>
<event>
12    6  0.1462228E-007  0.1709934E+04  0.7818608E-02  0.8755719E-01
         -1   -1    0    0    0  501 -0.00000000000E+00  0.00000000000E+00  0.85401088772E+03  0.85401088772E+03  0.00000000000E+00 0.  1.
          2   -1    0    0  501    0  0.00000000000E+00 -0.00000000000E+00 -0.85592389154E+03  0.85592389154E+03  0.00000000000E+00 0. -1.
         24    2    1    2    0    0  0.58917046439E+03  0.81357814925E+02  0.15623344308E+03  0.62009853346E+03  0.79827140167E+02 0.  0.
        254    2    1    2    0    0 -0.58917046439E+03 -0.81357814925E+02 -0.15814644690E+03  0.10898362458E+04  0.89943972218E+03 0.  0.
         23    2    4    4    0    0 -0.17984252693E+03 -0.46317955081E+03 -0.12983640373E+03  0.52182490506E+03  0.92547874254E+02 0.  0.
         23    2    4    4    0    0 -0.40932793746E+03  0.38182173588E+03 -0.28310043169E+02  0.56801134073E+03  0.92185824737E+02 0.  0.
          2    1    3    3  502    0  0.55795088642E+03  0.64154046901E+02  0.13180706276E+03  0.57688650113E+03  0.00000000000E+00 0. -1.
         -1    1    3    3    0  502  0.31219577964E+02  0.17203768024E+02  0.24426380318E+02  0.43212032328E+02  0.00000000000E+00 0.  1.
         11    1    5    5    0    0 -0.10726702704E+03 -0.21877683074E+03 -0.10614785525E+03  0.26577600330E+03  0.00000000000E+00 0.  1.
        -11    1    5    5    0    0 -0.72575499886E+02 -0.24440272007E+03 -0.23688548482E+02  0.25604890176E+03  0.00000000000E+00 0. -1.
          4    1    6    6  503    0 -0.25318074707E+03  0.21605574126E+03  0.26145285750E+02  0.33386247167E+03  0.00000000000E+00 0.  1.
         -4    1    6    6    0  503 -0.15614719038E+03  0.16576599462E+03 -0.54455328919E+02  0.23414886906E+03  0.00000000000E+00 0. -1.
<mgrwt>
<rscale>  0 0.17099337E+04</rscale>
<asrwt>0</asrwt>
<pdfrwt beam="1">  1        2 0.13168060E+00 0.17099337E+04</pdfrwt>
<pdfrwt beam="2">  1       -1 0.13138629E+00 0.17099337E+04</pdfrwt>
<totfact> 0.16846386E+01</totfact>
</mgrwt>
</event>
<event>
12    6  0.1462228E-007  0.2476220E+04  0.7818608E-02  0.8411507E-01
          2   -1    0    0  501    0  0.00000000000E+00  0.00000000000E+00  0.20369089026E+04  0.20369089026E+04  0.00000000000E+00 0. -1.
         -1   -1    0    0    0  501 -0.00000000000E+00 -0.00000000000E+00 -0.75256965216E+03  0.75256965216E+03  0.00000000000E+00 0.  1.
         24    2    1    2    0    0 -0.60567272043E+03 -0.80730516592E+03  0.15529650389E+03  0.10241988602E+04  0.79279416586E+02 0.  0.
        254    2    1    2    0    0  0.60567272043E+03  0.80730516592E+03  0.11290427466E+04  0.17652796946E+04  0.90713494111E+03 0.  0.
         23    2    4    4    0    0  0.15739000070E+02  0.74136996973E+03  0.72673965699E+03  0.10424338855E+04  0.92955518476E+02 0.  0.
         23    2    4    4    0    0  0.58993372036E+03  0.65935196184E+02  0.40230308961E+03  0.72284580913E+03  0.91044183530E+02 0.  0.
          2    1    3    3  502    0 -0.17626649977E+03 -0.24599211079E+03  0.10593043718E+02  0.30281051845E+03  0.00000000000E+00 0. -1.
         -1    1    3    3    0  502 -0.42940622067E+03 -0.56131305513E+03  0.14470346017E+03  0.72138834174E+03  0.00000000000E+00 0.  1.
         11    1    5    5    0    0 -0.26878568164E+02  0.55920517234E+03  0.55940910265E+03  0.79143630592E+03  0.00000000000E+00 0.  1.
        -11    1    5    5    0    0  0.42617568234E+02  0.18216479739E+03  0.16733055435E+03  0.25099757957E+03  0.00000000000E+00 0. -1.
          2    1    6    6  503    0  0.32575670024E+03 -0.89082733389E+01  0.22475624400E+03  0.39586885998E+03  0.00000000000E+00 0. -1.
         -2    1    6    6    0  503  0.26417702012E+03  0.74843469523E+02  0.17754684561E+03  0.32697694916E+03  0.00000000000E+00 0.  1.
<mgrwt>
<rscale>  0 0.24762196E+04</rscale>
<asrwt>0</asrwt>
<pdfrwt beam="1">  1        2 0.31337060E+00 0.24762196E+04</pdfrwt>
<pdfrwt beam="2">  1       -1 0.11577995E+00 0.24762196E+04</pdfrwt>
<totfact> 0.43754612E+00</totfact>
</mgrwt>
</event>
<event>
12    6  0.1462228E-007  0.1958293E+04  0.7818608E-02  0.8626372E-01
          2   -1    0    0  501    0  0.00000000000E+00  0.00000000000E+00  0.29673521707E+04  0.29673521707E+04  0.00000000000E+00 0. -1.
         -1   -1    0    0    0  501 -0.00000000000E+00 -0.00000000000E+00 -0.32309194949E+03  0.32309194949E+03  0.00000000000E+00 0.  1.
         24    2    1    2    0    0  0.23803534865E+02  0.24711496981E+03  0.23077853483E+04  0.23225426729E+04  0.81846422001E+02 0.  0.
        254    2    1    2    0    0 -0.23803534865E+02 -0.24711496981E+03  0.33647487292E+03  0.96790144734E+03  0.87291778255E+03 0.  0.
         23    2    4    4    0    0 -0.29037860814E+03 -0.19890609860E+03 -0.15799541619E+03  0.39668858475E+03  0.92281686216E+02 0.  0.
         23    2    4    4    0    0  0.26657507327E+03 -0.48208871207E+02  0.49447028911E+03  0.57121286259E+03  0.91634614743E+02 0.  0.
          2    1    3    3  502    0  0.44496180590E+02  0.16147839920E+03  0.12647164325E+04  0.12757597102E+04  0.00000000000E+00 0. -1.
         -1    1    3    3    0  502 -0.20692645726E+02  0.85636570609E+02  0.10430689158E+04  0.10467829627E+04  0.00000000000E+00 0.  1.
         11    1    5    5    0    0 -0.18180475455E+02 -0.10320169945E+01 -0.33025337559E+02  0.37712964186E+02  0.00000000000E+00 0.  1.
        -11    1    5    5    0    0 -0.27219813268E+03 -0.19787408161E+03 -0.12497007863E+03  0.35897562057E+03  0.00000000000E+00 0. -1.
          3    1    6    6  503    0  0.21908146044E+03 -0.51199611234E+02  0.46119280251E+03  0.51314411970E+03  0.00000000000E+00 0. -1.
         -3    1    6    6    0  503  0.47493612834E+02  0.29907400268E+01  0.33277486605E+02  0.58068742888E+02  0.00000000000E+00 0.  1.
<mgrwt>
<rscale>  0 0.19582927E+04</rscale>
<asrwt>0</asrwt>
<pdfrwt beam="1">  1        2 0.45651570E+00 0.19582927E+04</pdfrwt>
<pdfrwt beam="2">  1       -1 0.49706456E-01 0.19582927E+04</pdfrwt>
<totfact> 0.78801269E+00</totfact>
</mgrwt>
</event>
<event>
12    6  0.1462228E-007  0.2175576E+04  0.7818608E-02  0.8528663E-01
          2   -1    0    0  501    0  0.00000000000E+00  0.00000000000E+00  0.17393954044E+04  0.17393954044E+04  0.00000000000E+00 0. -1.
         -1   -1    0    0    0  501 -0.00000000000E+00 -0.00000000000E+00 -0.68028363721E+03  0.68028363721E+03  0.00000000000E+00 0.  1.
         24    2    1    2    0    0  0.55624503179E+03  0.59373424307E+03  0.87651576259E+03  0.11986450385E+04  0.80877434734E+02 0.  0.
        254    2    1    2    0    0 -0.55624503179E+03 -0.59373424307E+03  0.18259600464E+03  0.12210340032E+04  0.89199431006E+03 0.  0.
         23    2    4    4    0    0 -0.13444672546E+03 -0.72029264864E+03  0.72461066736E+01  0.73822773173E+03  0.89611696552E+02 0.  0.
         23    2    4    4    0    0 -0.42179830633E+03  0.12655840557E+03  0.17534989797E+03  0.48280627143E+03  0.91779451789E+02 0.  0.
          4    1    3    3  502    0  0.11466038973E+03  0.10802461418E+03  0.12732324538E+03  0.20255253901E+03  0.00000000000E+00 0. -1.
         -3    1    3    3    0  502  0.44158464206E+03  0.48570962888E+03  0.74919251720E+03  0.99609249949E+03  0.00000000000E+00 0.  1.
         11    1    5    5    0    0 -0.15244612595E+02 -0.30882493277E+03 -0.11705166012E+02  0.30942244299E+03  0.00000000000E+00 0.  1.
        -11    1    5    5    0    0 -0.11920211287E+03 -0.41146771587E+03  0.18951272686E+02  0.42880528874E+03  0.00000000000E+00 0. -1.
          4    1    6    6  503    0 -0.15002573890E+03  0.91483143914E+02  0.73314315670E+02  0.19039925639E+03  0.00000000000E+00 0. -1.
         -4    1    6    6    0  503 -0.27177256743E+03  0.35075261659E+02  0.10203558230E+03  0.29240701504E+03  0.00000000000E+00 0.  1.
<mgrwt>
<rscale>  0 0.21755755E+04</rscale>
<asrwt>0</asrwt>
<pdfrwt beam="1">  1        2 0.26759929E+00 0.21755755E+04</pdfrwt>
<pdfrwt beam="2">  1       -1 0.10465902E+00 0.21755755E+04</pdfrwt>
<totfact> 0.83417582E+00</totfact>
</mgrwt>
</event>
<event>
12    6  0.1462228E-007  0.1572184E+04  0.7818608E-02  0.8837821E-01
         -1   -1    0    0    0  501 -0.00000000000E+00  0.00000000000E+00  0.25860004644E+03  0.25860004644E+03  0.00000000000E+00 0.  1.
          2   -1    0    0  501    0  0.00000000000E+00 -0.00000000000E+00 -0.23895597230E+04  0.23895597230E+04  0.00000000000E+00 0. -1.
         24    2    1    2    0    0  0.35064520683E+03 -0.22877104708E+03 -0.12410525822E+04  0.13124375341E+04  0.83621266035E+02 0.  0.
        254    2    1    2    0    0 -0.35064520683E+03  0.22877104708E+03 -0.88990709431E+03  0.13357222353E+04  0.90384235366E+03 0.  0.
         23    2    4    4    0    0 -0.49997699652E+03  0.45576366256E+03 -0.47691964283E+03  0.83272835794E+03  0.91031089437E+02 0.  0.
         23    2    4    4    0    0  0.14933178969E+03 -0.22699261549E+03 -0.41298745149E+03  0.50299387734E+03  0.92836278796E+02 0.  0.
          4    1    3    3  502    0  0.30259334856E+03 -0.17243849809E+03 -0.94098005226E+03  0.10033649530E+04  0.00000000000E+00 0. -1.
         -3    1    3    3    0  502  0.48051858272E+02 -0.56332548985E+02 -0.30007252997E+03  0.30907258112E+03  0.00000000000E+00 0.  1.
         11    1    5    5    0    0 -0.53749371481E+02  0.88367320301E+02 -0.90606984077E+02  0.13750419556E+03  0.00000000000E+00 0.  1.
        -11    1    5    5    0    0 -0.44622762504E+03  0.36739634226E+03 -0.38631265875E+03  0.69522416238E+03  0.00000000000E+00 0. -1.
          2    1    6    6  503    0  0.13940547777E+03 -0.23569344285E+03 -0.39113033361E+03  0.47746018065E+03  0.00000000000E+00 0. -1.
         -2    1    6    6    0  503  0.99263119161E+01  0.87008273602E+01 -0.21857117877E+02  0.25533696694E+02  0.00000000000E+00 0.  1.
<mgrwt>
<rscale>  0 0.15721835E+04</rscale>
<asrwt>0</asrwt>
<pdfrwt beam="1">  1        2 0.36762458E+00 0.15721835E+04</pdfrwt>
<pdfrwt beam="2">  1       -1 0.39784622E-01 0.15721835E+04</pdfrwt>
<totfact> 0.27180888E+01</totfact>
</mgrwt>
</event>
<event>
12    6  0.1462228E-007  0.2816306E+04  0.7818608E-02  0.8298224E-01
         -1   -1    0    0    0  501 -0.00000000000E+00  0.00000000000E+00  0.13281320656E+04  0.13281320656E+04  0.00000000000E+00 0.  1.
          2   -1    0    0  501    0  0.00000000000E+00 -0.00000000000E+00 -0.14929948927E+04  0.14929948927E+04  0.00000000000E+00 0. -1.
         24    2    1    2    0    0 -0.19729945134E+02  0.12356407675E+04  0.19276834765E+03  0.12532595639E+04  0.79388422464E+02 0.  0.
        254    2    1    2    0    0  0.19729945134E+02 -0.12356407675E+04 -0.35763117478E+03  0.15678673944E+04  0.89616445603E+03 0.  0.
         23    2    4    4    0    0 -0.10748270710E+03 -0.10072201273E+04 -0.61566024647E+03  0.11889004115E+04  0.91660963093E+02 0.  0.
         23    2    4    4    0    0  0.12721265224E+03 -0.22842064014E+03  0.25802907169E+03  0.37896698289E+03  0.93155378546E+02 0.  0.
          4    1    3    3  502    0 -0.36480531998E+02  0.59639696014E+03  0.63663763303E+02  0.60089369945E+03  0.00000000000E+00 0. -1.
         -3    1    3    3    0  502  0.16750586863E+02  0.63924380732E+03  0.12910458435E+03  0.65236586442E+03  0.00000000000E+00 0.  1.
         11    1    5    5    0    0 -0.48327570872E+02 -0.45776199896E+03 -0.22665154847E+03  0.51308140311E+03  0.00000000000E+00 0. -1.
        -11    1    5    5    0    0 -0.59155136233E+02 -0.54945812836E+03 -0.38900869800E+03  0.67581900838E+03  0.00000000000E+00 0.  1.
          1    1    6    6  503    0  0.29596222822E+02 -0.25229215262E+02  0.36240699896E+01  0.39058719786E+02  0.00000000000E+00 0. -1.
         -1    1    6    6    0  503  0.97616429417E+02 -0.20319142488E+03  0.25440500170E+03  0.33990826311E+03  0.00000000000E+00 0.  1.
<mgrwt>
<rscale>  0 0.28163057E+04</rscale>
<asrwt>0</asrwt>
<pdfrwt beam="1">  1        2 0.22969152E+00 0.28163057E+04</pdfrwt>
<pdfrwt beam="2">  1       -1 0.20432801E+00 0.28163057E+04</pdfrwt>
<totfact> 0.17815782E+00</totfact>
</mgrwt>
</event>
<event>
12    6  0.1462228E-007  0.2018421E+04  0.7818608E-02  0.8598056E-01
         -1   -1    0    0    0  501 -0.00000000000E+00  0.00000000000E+00  0.54735333698E+03  0.54735333698E+03  0.00000000000E+00 0.  1.
          2   -1    0    0  501    0  0.00000000000E+00 -0.00000000000E+00 -0.18607837697E+04  0.18607837697E+04  0.00000000000E+00 0. -1.
         24    2    1    2    0    0 -0.12290172038E+03  0.52992945333E+03  0.18400847781E+03  0.57987608123E+03  0.80418227351E+02 0.  0.
        254    2    1    2    0    0  0.12290172038E+03 -0.52992945333E+03 -0.14974389105E+04  0.18282610255E+04  0.89681939543E+03 0.  0.
         23    2    4    4    0    0 -0.44787251867E+02 -0.75034149086E+03 -0.10781713273E+04  0.13174728757E+04  0.90901684913E+02 0.  0.
         23    2    4    4    0    0  0.16768897225E+03  0.22041203753E+03 -0.41926758328E+03  0.51078814980E+03  0.91750585198E+02 0.  0.
          2    1    3    3  502    0  0.86365413706E+01  0.79585735600E+02  0.37265965838E+02  0.88301932978E+02  0.00000000000E+00 0. -1.
         -1    1    3    3    0  502 -0.13153826176E+03  0.45034371773E+03  0.14674251198E+03  0.49157414825E+03  0.00000000000E+00 0.  1.
         11    1    5    5    0    0 -0.46440279415E+02 -0.15498252756E+03 -0.23140526619E+03  0.28235559251E+03  0.00000000000E+00 0. -1.
        -11    1    5    5    0    0  0.16530275487E+01 -0.59535896331E+03 -0.84676606108E+03  0.10351172832E+04  0.00000000000E+00 0.  1.
          2    1    6    6  503    0  0.48256674336E+02  0.13677489195E+03 -0.18894726111E+03  0.23819560274E+03  0.00000000000E+00 0. -1.
         -2    1    6    6    0  503  0.11943229791E+03  0.83637145582E+02 -0.23032032217E+03  0.27259254706E+03  0.00000000000E+00 0.  1.
<mgrwt>
<rscale>  0 0.20184214E+04</rscale>
<asrwt>0</asrwt>
<pdfrwt beam="1">  1        2 0.28627442E+00 0.20184214E+04</pdfrwt>
<pdfrwt beam="2">  1       -1 0.84208206E-01 0.20184214E+04</pdfrwt>
<totfact> 0.11782337E+01</totfact>
</mgrwt>
</event>
<event>
12    6  0.1462228E-007  0.1222066E+04  0.7818608E-02  0.9093759E-01
         -1   -1    0    0    0  501 -0.00000000000E+00  0.00000000000E+00  0.13988243323E+03  0.13988243323E+03  0.00000000000E+00 0.  1.
          2   -1    0    0  501    0  0.00000000000E+00 -0.00000000000E+00 -0.26691075687E+04  0.26691075687E+04  0.00000000000E+00 0. -1.
         24    2    1    2    0    0 -0.59717837826E+02 -0.26439085741E+03 -0.58599964583E+03  0.65044317999E+03  0.78816241032E+02 0.  0.
        254    2    1    2    0    0  0.59717837826E+02  0.26439085741E+03 -0.19432254896E+04  0.21585468219E+04  0.89985017269E+03 0.  0.
         23    2    4    4    0    0 -0.68866597843E+02 -0.41975571515E+02  0.53082149918E+02  0.13267253968E+03  0.90993028536E+02 0.  0.
         23    2    4    4    0    0  0.12858443567E+03  0.30636642892E+03 -0.19963076395E+04  0.20258742822E+04  0.92347549573E+02 0.  0.
          4    1    3    3  502    0 -0.28144652605E+02 -0.25695721017E+02 -0.12016271192E+03  0.12606136952E+03  0.00000000000E+00 0. -1.
         -3    1    3    3    0  502 -0.31573185222E+02 -0.23869513639E+03 -0.46583693391E+03  0.52438181047E+03  0.00000000000E+00 0.  1.
         11    1    5    5    0    0 -0.87886600953E+02 -0.45288970928E+02  0.31615535126E+02  0.10380119256E+03  0.00000000000E+00 0. -1.
        -11    1    5    5    0    0  0.19020003110E+02  0.33133994134E+01  0.21466614792E+02  0.28871347121E+02  0.00000000000E+00 0.  1.
          2    1    6    6  503    0  0.12307132931E+03  0.25596675539E+03 -0.14741310522E+04  0.15012421160E+04  0.00000000000E+00 0. -1.
         -2    1    6    6    0  503  0.55131063628E+01  0.50399673533E+02 -0.52217658737E+03  0.52463216622E+03  0.00000000000E+00 0.  1.
<mgrwt>
<rscale>  0 0.12220659E+04</rscale>
<asrwt>0</asrwt>
<pdfrwt beam="1">  1        2 0.41063192E+00 0.12220659E+04</pdfrwt>
<pdfrwt beam="2">  1       -1 0.21520375E-01 0.12220659E+04</pdfrwt>
<totfact> 0.56683751E+01</totfact>
</mgrwt>
</event>
<event>
12    6  0.1462228E-007  0.2067018E+04  0.7818608E-02  0.8575913E-01
          2   -1    0    0  501    0  0.00000000000E+00  0.00000000000E+00  0.12715216685E+04  0.12715216685E+04  0.00000000000E+00 0. -1.
         -1   -1    0    0    0  501 -0.00000000000E+00 -0.00000000000E+00 -0.84004960267E+03  0.84004960267E+03  0.00000000000E+00 0.  1.
         24    2    1    2    0    0 -0.33299728830E+03 -0.62059765092E+03 -0.27940992787E+03  0.76182011185E+03  0.79191771583E+02 0.  0.
        254    2    1    2    0    0  0.33299728830E+03  0.62059765092E+03  0.71088199370E+03  0.13497511593E+04  0.90578493295E+03 0.  0.
         23    2    4    4    0    0 -0.14312447941E+03  0.57742167372E+03  0.60308803961E+03  0.85201340435E+03  0.91166067050E+02 0.  0.
         23    2    4    4    0    0  0.47612176770E+03  0.43175977200E+02  0.10779395408E+03  0.49773775496E+03  0.86989847026E+02 0.  0.
          2    1    3    3  502    0 -0.23493757854E+03 -0.44051914126E+03 -0.15863849381E+03  0.52385012298E+03  0.00000000000E+00 0. -1.
         -1    1    3    3    0  502 -0.98059709757E+02 -0.18007850967E+03 -0.12077143406E+03  0.23796998888E+03  0.00000000000E+00 0.  1.
         11    1    5    5    0    0 -0.65148885290E+02  0.11329161920E+03  0.11678841968E+03  0.17526808953E+03  0.00000000000E+00 0.  1.
        -11    1    5    5    0    0 -0.77975594115E+02  0.46413005453E+03  0.48629961993E+03  0.67674531482E+03  0.00000000000E+00 0. -1.
          2    1    6    6  503    0  0.37123972564E+03  0.52382312825E+02  0.11513300480E+03  0.39219695229E+03  0.00000000000E+00 0. -1.
         -2    1    6    6    0  503  0.10488204206E+03 -0.92063356259E+01 -0.73390507119E+01  0.10554080267E+03  0.00000000000E+00 0.  1.
<mgrwt>
<rscale>  0 0.20670184E+04</rscale>
<asrwt>0</asrwt>
<pdfrwt beam="1">  1        2 0.19561872E+00 0.20670184E+04</pdfrwt>
<pdfrwt beam="2">  1       -1 0.12923840E+00 0.20670184E+04</pdfrwt>
<totfact> 0.93145204E+00</totfact>
</mgrwt>
</event>
<event>
12    6  0.1462228E-007  0.1782817E+04  0.7818608E-02  0.8715491E-01
         -1   -1    0    0    0  501 -0.00000000000E+00  0.00000000000E+00  0.54355521633E+03  0.54355521633E+03  0.00000000000E+00 0.  1.
          2   -1    0    0  501    0  0.00000000000E+00 -0.00000000000E+00 -0.14618735024E+04  0.14618735024E+04  0.00000000000E+00 0. -1.
         24    2    1    2    0    0 -0.54791335614E+02 -0.40982853588E+03 -0.93624706579E+03  0.10265878635E+04  0.79765619172E+02 0.  0.
        254    2    1    2    0    0  0.54791335614E+02  0.40982853588E+03  0.17928779752E+02  0.97884085521E+03  0.88704366262E+03 0.  0.
         23    2    4    4    0    0  0.82812289831E+02 -0.25005630252E+02  0.38298133724E+03  0.40344302393E+03  0.92781528304E+02 0.  0.
         23    2    4    4    0    0 -0.28020954218E+02  0.43483416613E+03 -0.36505255749E+03  0.57539783128E+03  0.89181660666E+02 0.  0.
          4    1    3    3  502    0 -0.56303917367E+02 -0.30681320096E+03 -0.77278104224E+03  0.83336367250E+03  0.00000000000E+00 0. -1.
         -3    1    3    3    0  502  0.15125817533E+01 -0.10301533493E+03 -0.16346602356E+03  0.19322419101E+03  0.00000000000E+00 0.  1.
         11    1    5    5    0    0  0.20003156599E+02 -0.48930836566E+02  0.23563073476E+03  0.24148746594E+03  0.00000000000E+00 0. -1.
        -11    1    5    5    0    0  0.62809133232E+02  0.23925206314E+02  0.14735060248E+03  0.16195555799E+03  0.00000000000E+00 0.  1.
          1    1    6    6  503    0  0.26175706913E+02  0.93889593194E+02 -0.58281477234E+02  0.11356563711E+03  0.00000000000E+00 0. -1.
         -1    1    6    6    0  503 -0.54196661131E+02  0.34094457294E+03 -0.30677108025E+03  0.46183219417E+03  0.00000000000E+00 0.  1.
<mgrwt>
<rscale>  0 0.17828168E+04</rscale>
<asrwt>0</asrwt>
<pdfrwt beam="1">  1        2 0.22490361E+00 0.17828168E+04</pdfrwt>
<pdfrwt beam="2">  1       -1 0.83623880E-01 0.17828168E+04</pdfrwt>
<totfact> 0.20385577E+01</totfact>
</mgrwt>
</event>
<event>
12    6  0.1462228E-007  0.1548255E+04  0.7818608E-02  0.8852983E-01
         -1   -1    0    0    0  501 -0.00000000000E+00  0.00000000000E+00  0.43420721300E+03  0.43420721300E+03  0.00000000000E+00 0.  1.
          2   -1    0    0  501    0  0.00000000000E+00 -0.00000000000E+00 -0.13801545513E+04  0.13801545513E+04  0.00000000000E+00 0. -1.
         24    2    1    2    0    0  0.37768156458E+02  0.49400172097E+03 -0.44169735801E+03  0.66808875941E+03  0.76038808583E+02 0.  0.
        254    2    1    2    0    0 -0.37768156458E+02 -0.49400172097E+03 -0.50424998024E+03  0.11462730048E+04  0.90233564991E+03 0.  0.
         23    2    4    4    0    0 -0.45559978157E+03 -0.29410767661E+03 -0.20487359334E+03  0.58686048090E+03  0.91441502543E+02 0.  0.
         23    2    4    4    0    0  0.41783162511E+03 -0.19989404437E+03 -0.29937638690E+03  0.55941252395E+03  0.93676331058E+02 0.  0.
          4    1    3    3  502    0  0.20690888044E+01  0.21037054221E+03 -0.14141630058E+03  0.25349283270E+03  0.00000000000E+00 0. -1.
         -3    1    3    3    0  502  0.35699067654E+02  0.28363117876E+03 -0.30028105743E+03  0.41459592672E+03  0.00000000000E+00 0.  1.
         11    1    5    5    0    0 -0.24838659573E+02 -0.11176723144E+01 -0.26183311365E+02  0.36107810718E+02  0.00000000000E+00 0.  1.
        -11    1    5    5    0    0 -0.43076112200E+03 -0.29299000429E+03 -0.17869028197E+03  0.55075267018E+03  0.00000000000E+00 0. -1.
          1    1    6    6  503    0  0.41637881321E+03 -0.20702801289E+03 -0.29221799885E+03  0.54920239717E+03  0.00000000000E+00 0. -1.
         -1    1    6    6    0  503  0.14528119054E+01  0.71339685231E+01 -0.71583880460E+01  0.10210126774E+02  0.00000000000E+00 0.  1.
<mgrwt>
<rscale>  0 0.15482546E+04</rscale>
<asrwt>0</asrwt>
<pdfrwt beam="1">  1        2 0.21233147E+00 0.15482546E+04</pdfrwt>
<pdfrwt beam="2">  1       -1 0.66801109E-01 0.15482546E+04</pdfrwt>
<totfact> 0.37006883E+01</totfact>
</mgrwt>
</event>
<event>
12    6  0.1462228E-007  0.1412315E+04  0.7818608E-02  0.8944952E-01
          2   -1    0    0  501    0  0.00000000000E+00  0.00000000000E+00  0.39664208277E+03  0.39664208277E+03  0.00000000000E+00 0. -1.
         -1   -1    0    0    0  501 -0.00000000000E+00 -0.00000000000E+00 -0.12572007369E+04  0.12572007369E+04  0.00000000000E+00 0.  1.
         24    2    1    2    0    0 -0.33654416336E+03 -0.20471781635E+03 -0.92989581096E+02  0.41305478971E+03  0.82436878175E+02 0.  0.
        254    2    1    2    0    0  0.33654416336E+03  0.20471781635E+03 -0.76756907308E+03  0.12407880300E+04  0.89175181257E+03 0.  0.
         23    2    4    4    0    0  0.40315359184E+03  0.34964521640E+03 -0.87452677894E+03  0.10282221006E+04  0.87515742328E+02 0.  0.
         23    2    4    4    0    0 -0.66609428479E+02 -0.14492740005E+03  0.10695770586E+03  0.21256592938E+03  0.91123851121E+02 0.  0.
          2    1    3    3  502    0 -0.10438770744E+03 -0.50818290467E+02  0.89664934369E+01  0.11644608244E+03  0.00000000000E+00 0. -1.
         -1    1    3    3    0  502 -0.23215645591E+03 -0.15389952589E+03 -0.10195607453E+03  0.29660870727E+03  0.00000000000E+00 0.  1.
         11    1    5    5    0    0  0.29809802707E+03  0.30545585883E+03 -0.69096855024E+03  0.81215962277E+03  0.00000000000E+00 0.  1.
        -11    1    5    5    0    0  0.10505556476E+03  0.44189357571E+02 -0.18355822870E+03  0.21606247785E+03  0.00000000000E+00 0. -1.
          3    1    6    6  503    0 -0.89037234315E+00 -0.66799816064E+02  0.30190497663E+01  0.66873932519E+02  0.00000000000E+00 0. -1.
         -3    1    6    6    0  503 -0.65719056136E+02 -0.78127583986E+02  0.10393865610E+03  0.14569199686E+03  0.00000000000E+00 0.  1.
<mgrwt>
<rscale>  0 0.14123154E+04</rscale>
<asrwt>0</asrwt>
<pdfrwt beam="1">  1        2 0.61021860E-01 0.14123154E+04</pdfrwt>
<pdfrwt beam="2">  1       -1 0.19341550E+00 0.14123154E+04</pdfrwt>
<totfact> 0.14936246E+01</totfact>
</mgrwt>
</event>
<event>
12    6  0.1462228E-007  0.2997679E+04  0.7818608E-02  0.8244394E-01
         -1   -1    0    0    0  501 -0.00000000000E+00  0.00000000000E+00  0.61933990181E+03  0.61933990181E+03  0.00000000000E+00 0.  1.
          2   -1    0    0  501    0  0.00000000000E+00 -0.00000000000E+00 -0.36272797882E+04  0.36272797882E+04  0.00000000000E+00 0. -1.
         24    2    1    2    0    0  0.33595868652E+03  0.11931145709E+04 -0.21964218668E+04  0.25231550819E+04  0.75179331338E+02 0.  0.
        254    2    1    2    0    0 -0.33595868652E+03 -0.11931145709E+04 -0.81151801958E+03  0.17234646081E+04  0.88055558661E+03 0.  0.
         23    2    4    4    0    0  0.49946721827E+02 -0.95466694777E+03 -0.24326702820E+03  0.99041838722E+03  0.88690915744E+02 0.  0.
         23    2    4    4    0    0 -0.38590540835E+03 -0.23844762310E+03 -0.56825099138E+03  0.73304622092E+03  0.93098440627E+02 0.  0.
          4    1    3    3  502    0 -0.15175328645E+01 -0.66279279405E-03 -0.10967580351E+01  0.18723740603E+01  0.00000000000E+00 0. -1.
         -3    1    3    3    0  502  0.33747621939E+03  0.11931152337E+04 -0.21953251088E+04  0.25212827078E+04  0.00000000000E+00 0.  1.
         11    1    5    5    0    0  0.25001243717E+02 -0.59635230799E+02 -0.18506172584E+02  0.67259953639E+02  0.00000000000E+00 0. -1.
        -11    1    5    5    0    0  0.24945478111E+02 -0.89503171697E+03 -0.22476085561E+03  0.92315843358E+03  0.00000000000E+00 0.  1.
          2    1    6    6  503    0 -0.94754760784E+01 -0.41886800831E+01  0.21655527304E+01  0.10583917346E+02  0.00000000000E+00 0. -1.
         -2    1    6    6    0  503 -0.37642993227E+03 -0.23425894302E+03 -0.57041654411E+03  0.72246230358E+03  0.00000000000E+00 0.  1.
<mgrwt>
<rscale>  0 0.29976785E+04</rscale>
<asrwt>0</asrwt>
<pdfrwt beam="1">  1        2 0.55804304E+00 0.29976785E+04</pdfrwt>
<pdfrwt beam="2">  1       -1 0.95283063E-01 0.29976785E+04</pdfrwt>
<totfact> 0.68204195E-01</totfact>
</mgrwt>
</event>
<event>
12    6  0.1462228E-007  0.1590064E+04  0.7818608E-02  0.8826675E-01
          2   -1    0    0  501    0  0.00000000000E+00  0.00000000000E+00  0.16355332784E+04  0.16355332784E+04  0.00000000000E+00 0. -1.
         -1   -1    0    0    0  501 -0.00000000000E+00 -0.00000000000E+00 -0.38646493333E+03  0.38646493333E+03  0.00000000000E+00 0.  1.
         24    2    1    2    0    0  0.36870089300E+03  0.30225042993E+03  0.12438772929E+03  0.49907029333E+03  0.79392566367E+02 0.  0.
        254    2    1    2    0    0 -0.36870089300E+03 -0.30225042993E+03  0.11246806158E+04  0.15229279184E+04  0.90945438931E+03 0.  0.
         23    2    4    4    0    0  0.16349002264E+03 -0.32489800332E+03  0.82410866241E+03  0.90539765811E+03  0.91116034780E+02 0.  0.
         23    2    4    4    0    0 -0.53219091564E+03  0.22647573398E+02  0.30057195336E+03  0.61753026028E+03  0.85205868030E+02 0.  0.
          2    1    3    3  502    0  0.74229520482E+02  0.60317602404E+02 -0.71144597621E+01  0.95910637620E+02  0.00000000000E+00 0. -1.
         -1    1    3    3    0  502  0.29447137252E+03  0.24193282752E+03  0.13150218905E+03  0.40315965571E+03  0.00000000000E+00 0.  1.
         11    1    5    5    0    0  0.10430621772E+03 -0.10961379526E+03  0.31329019259E+03  0.34791624845E+03  0.00000000000E+00 0. -1.
        -11    1    5    5    0    0  0.59183804919E+02 -0.21528420806E+03  0.51081846982E+03  0.55748140966E+03  0.00000000000E+00 0.  1.
          1    1    6    6  503    0 -0.21969313501E+03 -0.28234427800E+02  0.14519186442E+03  0.26484511319E+03  0.00000000000E+00 0. -1.
         -1    1    6    6    0  503 -0.31249778062E+03  0.50882001197E+02  0.15538008894E+03  0.35268514709E+03  0.00000000000E+00 0.  1.
<mgrwt>
<rscale>  0 0.15900645E+04</rscale>
<asrwt>0</asrwt>
<pdfrwt beam="1">  1        2 0.25162050E+00 0.15900645E+04</pdfrwt>
<pdfrwt beam="2">  1       -1 0.59456144E-01 0.15900645E+04</pdfrwt>
<totfact> 0.33400727E+01</totfact>
</mgrwt>
</event>
<event>
12    6  0.1462228E-007  0.1883815E+04  0.7818608E-02  0.8662955E-01
          2   -1    0    0  501    0  0.00000000000E+00  0.00000000000E+00  0.14301627242E+04  0.14301627242E+04  0.00000000000E+00 0. -1.
         -1   -1    0    0    0  501 -0.00000000000E+00 -0.00000000000E+00 -0.62034197526E+03  0.62034197526E+03  0.00000000000E+00 0.  1.
         24    2    1    2    0    0  0.62747999958E+03  0.13702649378E+03  0.68113013347E+03  0.93969744407E+03  0.81151819494E+02 0.  0.
        254    2    1    2    0    0 -0.62747999958E+03 -0.13702649378E+03  0.12869061545E+03  0.11108072554E+04  0.89711987727E+03 0.  0.
         23    2    4    4    0    0 -0.60300456439E+03  0.99886668102E+02  0.40190063008E+03  0.73713233682E+03  0.90819130111E+02 0.  0.
         23    2    4    4    0    0 -0.24475435193E+02 -0.23691316188E+03 -0.27321001462E+03  0.37367491855E+03  0.90897411737E+02 0.  0.
          4    1    3    3  502    0  0.45177800641E+03  0.11991009569E+03  0.53587151646E+03  0.71108373647E+03  0.00000000000E+00 0. -1.
         -3    1    3    3    0  502  0.17570199316E+03  0.17116398093E+02  0.14525861701E+03  0.22861370760E+03  0.00000000000E+00 0.  1.
         11    1    5    5    0    0 -0.22456378233E+03  0.80446268658E+02  0.16908151070E+03  0.29238510861E+03  0.00000000000E+00 0. -1.
        -11    1    5    5    0    0 -0.37844078206E+03  0.19440399444E+02  0.23281911937E+03  0.44474722821E+03  0.00000000000E+00 0.  1.
          1    1    6    6  503    0 -0.53325066781E+02 -0.16410811650E+03 -0.21716957812E+03  0.27737639105E+03  0.00000000000E+00 0. -1.
         -1    1    6    6    0  503  0.28849631588E+02 -0.72805045378E+02 -0.56040436502E+02  0.96298527499E+02  0.00000000000E+00 0.  1.
<mgrwt>
<rscale>  0 0.18838152E+04</rscale>
<asrwt>0</asrwt>
<pdfrwt beam="1">  1        2 0.22002503E+00 0.18838152E+04</pdfrwt>
<pdfrwt beam="2">  1       -1 0.95437227E-01 0.18838152E+04</pdfrwt>
<totfact> 0.15751074E+01</totfact>
</mgrwt>
</event>
<event>
12    6  0.1462228E-007  0.2124484E+04  0.7818608E-02  0.8550534E-01
          2   -1    0    0  501    0  0.00000000000E+00  0.00000000000E+00  0.36342652466E+04  0.36342652466E+04  0.00000000000E+00 0. -1.
         -1   -1    0    0    0  501 -0.00000000000E+00 -0.00000000000E+00 -0.31047774184E+03  0.31047774184E+03  0.00000000000E+00 0.  1.
         24    2    1    2    0    0  0.18123350393E+03  0.14724767915E+03 -0.18814213159E+03  0.31045319302E+03  0.80350864453E+02 0.  0.
        254    2    1    2    0    0 -0.18123350393E+03 -0.14724767915E+03  0.35119296364E+04  0.36342897954E+04  0.90547506013E+03 0.  0.
         23    2    4    4    0    0 -0.20411580152E+03  0.34206110535E+03  0.11554609712E+04  0.12257236967E+04  0.92948719202E+02 0.  0.
         23    2    4    4    0    0  0.22882297591E+02 -0.48930878450E+03  0.23564686651E+04  0.24085660987E+04  0.91101021424E+02 0.  0.
          4    1    3    3  502    0  0.34881791258E+02 -0.25920171992E+01 -0.12639694495E+02  0.37191662929E+02  0.00000000000E+00 0. -1.
         -3    1    3    3    0  502  0.14635171267E+03  0.14983969634E+03 -0.17550243709E+03  0.27326153009E+03  0.00000000000E+00 0.  1.
         11    1    5    5    0    0 -0.10032334025E+03  0.88865579317E+02  0.33410889563E+03  0.35998696911E+03  0.00000000000E+00 0. -1.
        -11    1    5    5    0    0 -0.10379246127E+03  0.25319552603E+03  0.82135207560E+03  0.86573672760E+03  0.00000000000E+00 0.  1.
          1    1    6    6  503    0  0.10075895667E+02 -0.24787323500E+02  0.62235292243E+02  0.67743388463E+02  0.00000000000E+00 0. -1.
         -1    1    6    6    0  503  0.12806401924E+02 -0.46452146100E+03  0.22942333729E+04  0.23408227103E+04  0.00000000000E+00 0.  1.
<mgrwt>
<rscale>  0 0.21244844E+04</rscale>
<asrwt>0</asrwt>
<pdfrwt beam="1">  1        2 0.55911770E+00 0.21244844E+04</pdfrwt>
<pdfrwt beam="2">  1       -1 0.47765809E-01 0.21244844E+04</pdfrwt>
<totfact> 0.30037227E+00</totfact>
</mgrwt>
</event>
<event>
12    6  0.1462228E-007  0.1194317E+04  0.7818608E-02  0.9117846E-01
          2   -1    0    0  501    0  0.00000000000E+00  0.00000000000E+00  0.32715699895E+03  0.32715699895E+03  0.00000000000E+00 0. -1.
         -1   -1    0    0    0  501 -0.00000000000E+00 -0.00000000000E+00 -0.10899904027E+04  0.10899904027E+04  0.00000000000E+00 0.  1.
         24    2    1    2    0    0 -0.62219706584E+02  0.22789449301E+03 -0.24402408736E+03  0.34898683315E+03  0.80230060909E+02 0.  0.
        254    2    1    2    0    0  0.62219706584E+02 -0.22789449301E+03 -0.51880931643E+03  0.10681605685E+04  0.90332535751E+03 0.  0.
         23    2    4    4    0    0  0.29195604439E+03 -0.48682254738E+03 -0.31247479455E+03  0.65472322132E+03  0.93741531975E+02 0.  0.
         23    2    4    4    0    0 -0.22973633781E+03  0.25892805437E+03 -0.20633452189E+03  0.41343734721E+03  0.92379558891E+02 0.  0.
          4    1    3    3  502    0 -0.55286783244E+02  0.21243179928E+03 -0.24839388104E+03  0.33148667829E+03  0.00000000000E+00 0. -1.
         -3    1    3    3    0  502 -0.69329233403E+01  0.15462693731E+02  0.43697936822E+01  0.17500154865E+02  0.00000000000E+00 0.  1.
         11    1    5    5    0    0  0.11455359219E+03 -0.24939866370E+03 -0.10942645767E+03  0.29545958874E+03  0.00000000000E+00 0. -1.
        -11    1    5    5    0    0  0.17740245220E+03 -0.23742388368E+03 -0.20304833688E+03  0.35926363258E+03  0.00000000000E+00 0.  1.
          2    1    6    6  503    0 -0.48402380355E+02  0.77825886372E+02 -0.10091514972E+03  0.13632140865E+03  0.00000000000E+00 0. -1.
         -2    1    6    6    0  503 -0.18133395745E+03  0.18110216800E+03 -0.10541937217E+03  0.27711593856E+03  0.00000000000E+00 0.  1.
<mgrwt>
<rscale>  0 0.11943165E+04</rscale>
<asrwt>0</asrwt>
<pdfrwt beam="1">  1        2 0.50331847E-01 0.11943165E+04</pdfrwt>
<pdfrwt beam="2">  1       -1 0.16769083E+00 0.11943165E+04</pdfrwt>
<totfact> 0.28837902E+01</totfact>
</mgrwt>
</event>
<event>
12    6  0.1462228E-007  0.1851072E+04  0.7818608E-02  0.8679602E-01
         -1   -1    0    0    0  501 -0.00000000000E+00  0.00000000000E+00  0.31735540921E+03  0.31735540921E+03  0.00000000000E+00 0.  1.
          2   -1    0    0  501    0  0.00000000000E+00 -0.00000000000E+00 -0.26992355107E+04  0.26992355107E+04  0.00000000000E+00 0. -1.
         24    2    1    2    0    0 -0.59709456504E+03  0.35459691848E+03 -0.11008594442E+04  0.13041128294E+04  0.80980625830E+02 0.  0.
        254    2    1    2    0    0  0.59709456504E+03 -0.35459691848E+03 -0.12810206573E+04  0.17124780906E+04  0.89961457963E+03 0.  0.
         23    2    4    4    0    0  0.17753666378E+03 -0.48791741040E+03 -0.24113908864E+03  0.57969575959E+03  0.91194557187E+02 0.  0.
         23    2    4    4    0    0  0.41955790126E+03  0.13332049192E+03 -0.10398815687E+04  0.11327823310E+04  0.89660171394E+02 0.  0.
          4    1    3    3  502    0 -0.14193313479E+03  0.89998540961E+02 -0.20592062137E+03  0.26579701735E+03  0.00000000000E+00 0. -1.
         -3    1    3    3    0  502 -0.45516143024E+03  0.26459837752E+03 -0.89493882280E+03  0.10383158120E+04  0.00000000000E+00 0.  1.
         11    1    5    5    0    0  0.17166181116E+03 -0.46705756929E+03 -0.24927116929E+03  0.55654888939E+03  0.00000000000E+00 0. -1.
        -11    1    5    5    0    0  0.58748526172E+01 -0.20859841112E+02  0.81320806492E+01  0.23146870203E+02  0.00000000000E+00 0.  1.
          3    1    6    6  503    0  0.24294884442E+03  0.11454539608E+03 -0.55983683763E+03  0.62093644887E+03  0.00000000000E+00 0. -1.
         -3    1    6    6    0  503  0.17660905684E+03  0.18775095833E+02 -0.48004473107E+03  0.51184588209E+03  0.00000000000E+00 0.  1.
<mgrwt>
<rscale>  0 0.18510721E+04</rscale>
<asrwt>0</asrwt>
<pdfrwt beam="1">  1        2 0.41526699E+00 0.18510721E+04</pdfrwt>
<pdfrwt beam="2">  1       -1 0.48823911E-01 0.18510721E+04</pdfrwt>
<totfact> 0.11971901E+01</totfact>
</mgrwt>
</event>
<event>
12    6  0.1462228E-007  0.2831563E+04  0.7818608E-02  0.8293536E-01
          2   -1    0    0  501    0  0.00000000000E+00  0.00000000000E+00  0.19584150264E+04  0.19584150264E+04  0.00000000000E+00 0. -1.
         -1   -1    0    0    0  501 -0.00000000000E+00 -0.00000000000E+00 -0.10234994045E+04  0.10234994045E+04  0.00000000000E+00 0.  1.
         24    2    1    2    0    0 -0.98160827994E+03 -0.61072217893E+03  0.97452678558E+03  0.15140593826E+04  0.78338770961E+02 0.  0.
        254    2    1    2    0    0  0.98160827994E+03  0.61072217893E+03 -0.39611163693E+02  0.14678550482E+04  0.90360002396E+03 0.  0.
         23    2    4    4    0    0  0.11354679819E+04  0.58105435170E+03  0.14452411914E+02  0.12787710614E+04  0.90193446550E+02 0.  0.
         23    2    4    4    0    0 -0.15385970194E+03  0.29667827229E+02 -0.54063575606E+02  0.18908398683E+03  0.90977447848E+02 0.  0.
          4    1    3    3  502    0 -0.66582301658E+03 -0.38693070760E+03  0.61051282653E+03  0.98273168935E+03  0.00000000000E+00 0. -1.
         -3    1    3    3    0  502 -0.31578526336E+03 -0.22379147133E+03  0.36401395905E+03  0.53132769322E+03  0.00000000000E+00 0.  1.
         11    1    5    5    0    0  0.10643209531E+04  0.52494217191E+03  0.28490599162E+02  0.11870783838E+04  0.00000000000E+00 0. -1.
        -11    1    5    5    0    0  0.71147028730E+02  0.56112179793E+02 -0.14038187248E+02  0.91692677567E+02  0.00000000000E+00 0.  1.
          1    1    6    6  503    0 -0.10809365715E+03  0.60070309180E+02 -0.51855169493E+02  0.13409563514E+03  0.00000000000E+00 0. -1.
         -1    1    6    6    0  503 -0.45766044788E+02 -0.30402481950E+02 -0.22084061130E+01  0.54988351692E+02  0.00000000000E+00 0.  1.
<mgrwt>
<rscale>  0 0.28315625E+04</rscale>
<asrwt>0</asrwt>
<pdfrwt beam="1">  1        2 0.30129462E+00 0.28315625E+04</pdfrwt>
<pdfrwt beam="2">  1       -1 0.15746145E+00 0.28315625E+04</pdfrwt>
<totfact> 0.21260005E+00</totfact>
</mgrwt>
</event>
<event>
12    6  0.1462228E-007  0.2425667E+04  0.7818608E-02  0.8429956E-01
          2   -1    0    0  501    0  0.00000000000E+00  0.00000000000E+00  0.13131543544E+04  0.13131543544E+04  0.00000000000E+00 0. -1.
         -1   -1    0    0    0  501 -0.00000000000E+00 -0.00000000000E+00 -0.11201768932E+04  0.11201768932E+04  0.00000000000E+00 0.  1.
         24    2    1    2    0    0 -0.29251318599E+03 -0.81832744822E+03 -0.54605841432E+03  0.10293199003E+04  0.78076173083E+02 0.  0.
        254    2    1    2    0    0  0.29251318599E+03  0.81832744822E+03  0.73903587551E+03  0.14040113474E+04  0.81844368275E+03 0.  0.
         23    2    4    4    0    0  0.50483468549E+03  0.81495093859E+03  0.59657871508E+03  0.11323990871E+04  0.86130349721E+02 0.  0.
         23    2    4    4    0    0 -0.21232149951E+03  0.33765096285E+01  0.14245716044E+03  0.27161226032E+03  0.91582517027E+02 0.  0.
          4    1    3    3  502    0 -0.51510447056E+02 -0.12983991134E+03 -0.55742109721E+02  0.15039584944E+03  0.00000000000E+00 0. -1.
         -3    1    3    3    0  502 -0.24100273893E+03 -0.68848753688E+03 -0.49031630460E+03  0.87892405085E+03  0.00000000000E+00 0.  1.
         11    1    5    5    0    0  0.16559864747E+03  0.19595906496E+03  0.15211166837E+03  0.29826301621E+03  0.00000000000E+00 0. -1.
        -11    1    5    5    0    0  0.33923603802E+03  0.61899187363E+03  0.44446704670E+03  0.83413607087E+03  0.00000000000E+00 0.  1.
          4    1    6    6  503    0 -0.16468954927E+03  0.39665997242E+02  0.12027431266E+03  0.20775454089E+03  0.00000000000E+00 0. -1.
         -4    1    6    6    0  503 -0.47631950233E+02 -0.36289487614E+02  0.22182847780E+02  0.63857719423E+02  0.00000000000E+00 0.  1.
<mgrwt>
<rscale>  0 0.24256671E+04</rscale>
<asrwt>0</asrwt>
<pdfrwt beam="1">  1        2 0.20202375E+00 0.24256671E+04</pdfrwt>
<pdfrwt beam="2">  1       -1 0.17233491E+00 0.24256671E+04</pdfrwt>
<totfact> 0.39287123E+00</totfact>
</mgrwt>
</event>
<event>
12    6  0.1462228E-007  0.1853071E+04  0.7818608E-02  0.8678575E-01
         -1   -1    0    0    0  501 -0.00000000000E+00  0.00000000000E+00  0.74000875093E+03  0.74000875093E+03  0.00000000000E+00 0.  1.
          2   -1    0    0  501    0  0.00000000000E+00 -0.00000000000E+00 -0.11600787784E+04  0.11600787784E+04  0.00000000000E+00 0. -1.
         24    2    1    2    0    0  0.31816673693E+03  0.63177095871E+03 -0.14845521289E+03  0.72725754059E+03  0.80622350233E+02 0.  0.
        254    2    1    2    0    0 -0.31816673693E+03 -0.63177095871E+03 -0.27161481454E+03  0.11728299887E+04  0.89520442255E+03 0.  0.
         23    2    4    4    0    0 -0.13842136958E+03  0.62321257363E+01 -0.45177771957E+03  0.47968841517E+03  0.82453337118E+02 0.  0.
         23    2    4    4    0    0 -0.17974536735E+03 -0.63800308445E+03  0.18016290503E+03  0.69314157352E+03  0.92899062180E+02 0.  0.
          2    1    3    3  502    0  0.71118223267E+02  0.16618076604E+03 -0.42362316452E+01  0.18080872308E+03  0.00000000000E+00 0. -1.
         -1    1    3    3    0  502  0.24704851366E+03  0.46559019267E+03 -0.14421898124E+03  0.54644881751E+03  0.00000000000E+00 0.  1.
         11    1    5    5    0    0 -0.23582158705E+02 -0.17799803282E+02 -0.30854774836E+02  0.42719648129E+02  0.00000000000E+00 0. -1.
        -11    1    5    5    0    0 -0.11483921087E+03  0.24031929018E+02 -0.42092294473E+03  0.43696876704E+03  0.00000000000E+00 0.  1.
          4    1    6    6  503    0 -0.12667964953E+03 -0.52934887545E+03  0.17638526851E+03  0.57216232705E+03  0.00000000000E+00 0. -1.
         -4    1    6    6    0  503 -0.53065717817E+02 -0.10865420900E+03  0.37776365124E+01  0.12097924647E+03  0.00000000000E+00 0.  1.
<mgrwt>
<rscale>  0 0.18530714E+04</rscale>
<asrwt>0</asrwt>
<pdfrwt beam="1">  1        2 0.17847366E+00 0.18530714E+04</pdfrwt>
<pdfrwt beam="2">  1       -1 0.11384750E+00 0.18530714E+04</pdfrwt>
<totfact> 0.15092310E+01</totfact>
</mgrwt>
</event>
<event>
12    6  0.1462228E-007  0.1141784E+04  0.7818608E-02  0.9165396E-01
          2   -1    0    0  501    0  0.00000000000E+00  0.00000000000E+00  0.22653431281E+04  0.22653431281E+04  0.00000000000E+00 0. -1.
         -1   -1    0    0    0  501 -0.00000000000E+00 -0.00000000000E+00 -0.14387131059E+03  0.14387131059E+03  0.00000000000E+00 0.  1.
         24    2    1    2    0    0 -0.25336998810E+02  0.18733187446E+03  0.24590540486E+03  0.32028208675E+03  0.79849560152E+02 0.  0.
        254    2    1    2    0    0  0.25336998810E+02 -0.18733187446E+03  0.18755664127E+04  0.20889323519E+04  0.90008544486E+03 0.  0.
         23    2    4    4    0    0  0.18649567542E+03  0.31664337127E+03  0.83648306364E+03  0.91923088645E+03  0.10118223819E+03 0.  0.
         23    2    4    4    0    0 -0.16115867661E+03 -0.50397524573E+03  0.10390833490E+04  0.11697014655E+04  0.92434543616E+02 0.  0.
          2    1    3    3  502    0  0.14391608327E+02  0.35108742776E+01  0.33226715013E+02  0.36379379035E+02  0.00000000000E+00 0. -1.
         -1    1    3    3    0  502 -0.39728607137E+02  0.18382100018E+03  0.21267868984E+03  0.28390270771E+03  0.00000000000E+00 0.  1.
         11    1    5    5    0    0  0.17464902624E+03  0.32191954417E+03  0.78649425503E+03  0.86758728004E+03  0.00000000000E+00 0. -1.
        -11    1    5    5    0    0  0.11846649173E+02 -0.52761728958E+01  0.49988808607E+02  0.51643606410E+02  0.00000000000E+00 0.  1.
          4    1    6    6  503    0 -0.41620498949E+02 -0.20244852413E+03  0.49268854725E+03  0.53428426464E+03  0.00000000000E+00 0.  1.
         -4    1    6    6    0  503 -0.11953817766E+03 -0.30152672159E+03  0.54639480177E+03  0.63541720086E+03  0.00000000000E+00 0. -1.
<mgrwt>
<rscale>  0 0.11417844E+04</rscale>
<asrwt>0</asrwt>
<pdfrwt beam="1">  1        2 0.34851430E+00 0.11417844E+04</pdfrwt>
<pdfrwt beam="2">  1       -1 0.22134049E-01 0.11417844E+04</pdfrwt>
<totfact> 0.92676651E+01</totfact>
</mgrwt>
</event>
<event>
12    6  0.1462228E-007  0.1614893E+04  0.7818608E-02  0.8811451E-01
         -1   -1    0    0    0  501 -0.00000000000E+00  0.00000000000E+00  0.53290414635E+03  0.53290414635E+03  0.00000000000E+00 0.  1.
          2   -1    0    0  501    0  0.00000000000E+00 -0.00000000000E+00 -0.12234273417E+04  0.12234273417E+04  0.00000000000E+00 0. -1.
         24    2    1    2    0    0  0.27773672844E+02 -0.53212726780E+03 -0.24840939473E+03  0.59316745332E+03  0.78800978752E+02 0.  0.
        254    2    1    2    0    0 -0.27773672844E+02  0.53212726780E+03 -0.44211380058E+03  0.11631640347E+04  0.93464172436E+03 0.  0.
         23    2    4    4    0    0  0.24803131294E+03 -0.31796134588E+02  0.14122853825E+03  0.30194284605E+03  0.93238703832E+02 0.  0.
         23    2    4    4    0    0 -0.27580498578E+03  0.56392340239E+03 -0.58334233882E+03  0.86122118864E+03  0.85648453345E+02 0.  0.
          2    1    3    3  502    0  0.24649644997E+02 -0.30759976566E+03 -0.10158277610E+03  0.32487579355E+03  0.00000000000E+00 0. -1.
         -1    1    3    3    0  502  0.31240278471E+01 -0.22452750214E+03 -0.14682661863E+03  0.26829165977E+03  0.00000000000E+00 0.  1.
         11    1    5    5    0    0  0.23374334065E+03 -0.27864521644E+02  0.15489127797E+03  0.28178660163E+03  0.00000000000E+00 0. -1.
        -11    1    5    5    0    0  0.14287972288E+02 -0.39316129440E+01 -0.13662739724E+02  0.20156244422E+02  0.00000000000E+00 0.  1.
          1    1    6    6  503    0 -0.22345171432E+03  0.41602867092E+03 -0.47998943235E+03  0.67335011608E+03  0.00000000000E+00 0. -1.
         -1    1    6    6    0  503 -0.52353271461E+02  0.14789473147E+03 -0.10335290648E+03  0.18787107257E+03  0.00000000000E+00 0.  1.
<mgrwt>
<rscale>  0 0.16148926E+04</rscale>
<asrwt>0</asrwt>
<pdfrwt beam="1">  1        2 0.18821959E+00 0.16148926E+04</pdfrwt>
<pdfrwt beam="2">  1       -1 0.81985253E-01 0.16148926E+04</pdfrwt>
<totfact> 0.29651831E+01</totfact>
</mgrwt>
</event>
<event>
12    6  0.1462228E-007  0.2516388E+04  0.7818608E-02  0.8397170E-01
          2   -1    0    0  501    0  0.00000000000E+00  0.00000000000E+00  0.23656703541E+04  0.23656703541E+04  0.00000000000E+00 0. -1.
         -1   -1    0    0    0  501 -0.00000000000E+00 -0.00000000000E+00 -0.66917708181E+03  0.66917708181E+03  0.00000000000E+00 0.  1.
         24    2    1    2    0    0  0.92909978476E+03 -0.53746151956E+03  0.41829776912E+03  0.11554805254E+04  0.89838331893E+02 0.  0.
        254    2    1    2    0    0 -0.92909978476E+03  0.53746151956E+03  0.12781955032E+04  0.18793669106E+04  0.86379681927E+03 0.  0.
         23    2    4    4    0    0  0.95451636474E+02 -0.73054384711E+02  0.46448663317E+02  0.16252021773E+03  0.99032241294E+02 0.  0.
         23    2    4    4    0    0 -0.10245514212E+04  0.61051590428E+03  0.12317468399E+04  0.17168466928E+04  0.89033729124E+02 0.  0.
          2    1    3    3  502    0  0.14323301924E+03 -0.91279170166E+02  0.32735172034E+02  0.17297160517E+03  0.00000000000E+00 0. -1.
         -1    1    3    3    0  502  0.78586676552E+03 -0.44618234940E+03  0.38556259708E+03  0.98250892023E+03  0.00000000000E+00 0.  1.
         11    1    5    5    0    0 -0.70827844840E+01 -0.38249724445E+01 -0.20376331455E+02  0.21908699957E+02  0.00000000000E+00 0. -1.
        -11    1    5    5    0    0  0.10253442096E+03 -0.69229412267E+02  0.66824994772E+02  0.14061151777E+03  0.00000000000E+00 0.  1.
          2    1    6    6  503    0 -0.46557728191E+03  0.26585266923E+03  0.61591022798E+03  0.81656919859E+03  0.00000000000E+00 0. -1.
         -2    1    6    6    0  503 -0.55897413933E+03  0.34466323505E+03  0.61583661192E+03  0.90027749423E+03  0.00000000000E+00 0.  1.
<mgrwt>
<rscale>  0 0.25163882E+04</rscale>
<asrwt>0</asrwt>
<pdfrwt beam="1">  1        2 0.36394928E+00 0.25163882E+04</pdfrwt>
<pdfrwt beam="2">  1       -1 0.10295032E+00 0.25163882E+04</pdfrwt>
<totfact> 0.37551709E+00</totfact>
</mgrwt>
</event>
<event>
12    6  0.1462228E-007  0.1397256E+04  0.7818608E-02  0.8955807E-01
          2   -1    0    0  501    0  0.00000000000E+00  0.00000000000E+00  0.12521635639E+04  0.12521635639E+04  0.00000000000E+00 0. -1.
         -1   -1    0    0    0  501 -0.00000000000E+00 -0.00000000000E+00 -0.38979019421E+03  0.38979019421E+03  0.00000000000E+00 0.  1.
         24    2    1    2    0    0  0.32623076086E+03 -0.44869593081E+02  0.53237107749E+03  0.63163202793E+03  0.84263069305E+02 0.  0.
        254    2    1    2    0    0 -0.32623076086E+03  0.44869593081E+02  0.33000229218E+03  0.10103217301E+04  0.89633068443E+03 0.  0.
         23    2    4    4    0    0 -0.11826736662E+03  0.27980799205E+03  0.53789152099E+03  0.62442856013E+03  0.91126592845E+02 0.  0.
         23    2    4    4    0    0 -0.20796339424E+03 -0.23493839897E+03 -0.20788922881E+03  0.38589317002E+03  0.85151527027E+02 0.  0.
          2    1    3    3  502    0  0.21741476888E+03  0.56936138386E+01  0.30585943944E+03  0.37530200594E+03  0.00000000000E+00 0. -1.
         -1    1    3    3    0  502  0.10881599198E+03 -0.50563206919E+02  0.22651163805E+03  0.25633002199E+03  0.00000000000E+00 0.  1.
         11    1    5    5    0    0 -0.38389819602E+01  0.10310687202E+03  0.13566828812E+03  0.17044544359E+03  0.00000000000E+00 0. -1.
        -11    1    5    5    0    0 -0.11442838466E+03  0.17670112004E+03  0.40222323287E+03  0.45398311654E+03  0.00000000000E+00 0.  1.
          4    1    6    6  503    0 -0.27959215366E+02 -0.13873561630E+01 -0.62772940768E+01  0.28688794013E+02  0.00000000000E+00 0. -1.
         -4    1    6    6    0  503 -0.18000417888E+03 -0.23355104281E+03 -0.20161193474E+03  0.35720437601E+03  0.00000000000E+00 0.  1.
<mgrwt>
<rscale>  0 0.13972560E+04</rscale>
<asrwt>0</asrwt>
<pdfrwt beam="1">  1        2 0.19264055E+00 0.13972560E+04</pdfrwt>
<pdfrwt beam="2">  1       -1 0.59967723E-01 0.13972560E+04</pdfrwt>
<totfact> 0.55184168E+01</totfact>
</mgrwt>
</event>
<event>
12    6  0.1462228E-007  0.3411304E+04  0.7818608E-02  0.8135138E-01
         -1   -1    0    0    0  501 -0.00000000000E+00  0.00000000000E+00  0.18430016960E+04  0.18430016960E+04  0.00000000000E+00 0.  1.
          2   -1    0    0  501    0  0.00000000000E+00 -0.00000000000E+00 -0.15785380780E+04  0.15785380780E+04  0.00000000000E+00 0. -1.
         24    2    1    2    0    0  0.94232560954E+02 -0.83087786021E+03  0.14763043952E+04  0.17001342077E+04  0.10836910388E+03 0.  0.
        254    2    1    2    0    0 -0.94232560954E+02  0.83087786021E+03 -0.12118407773E+04  0.17214055663E+04  0.89187513702E+03 0.  0.
         23    2    4    4    0    0 -0.50482435689E+02  0.94060503342E+03 -0.67289575054E+03  0.11613919515E+04  0.93574936184E+02 0.  0.
         23    2    4    4    0    0 -0.43750125265E+02 -0.10972717321E+03 -0.53894502675E+03  0.56001361481E+03  0.95913403200E+02 0.  0.
          4    1    3    3  502    0  0.39690520205E+02 -0.17067879995E+03  0.23519475686E+03  0.29329705726E+03  0.00000000000E+00 0. -1.
         -3    1    3    3    0  502  0.54542040749E+02 -0.66019906026E+03  0.12411096384E+04  0.14068371505E+04  0.00000000000E+00 0.  1.
         11    1    5    5    0    0  0.18329064647E+02  0.21711139474E+03 -0.12451515283E+03  0.25095285538E+03  0.00000000000E+00 0. -1.
        -11    1    5    5    0    0 -0.68811500336E+02  0.72349363868E+03 -0.54838059771E+03  0.91043909611E+03  0.00000000000E+00 0.  1.
          2    1    6    6  503    0  0.43362056191E+01  0.88493797446E+01 -0.15490335267E+03  0.15521650321E+03  0.00000000000E+00 0. -1.
         -2    1    6    6    0  503 -0.48086330884E+02 -0.11857655295E+03 -0.38404167408E+03  0.40479711160E+03  0.00000000000E+00 0.  1.
<mgrwt>
<rscale>  0 0.34113038E+04</rscale>
<asrwt>0</asrwt>
<pdfrwt beam="1">  1        2 0.24285201E+00 0.34113038E+04</pdfrwt>
<pdfrwt beam="2">  1       -1 0.28353872E+00 0.34113038E+04</pdfrwt>
<totfact> 0.45604681E-01</totfact>
</mgrwt>
</event>
<event>
12    6  0.1462228E-007  0.1507434E+04  0.7818608E-02  0.8879524E-01
         -1   -1    0    0    0  501 -0.00000000000E+00  0.00000000000E+00  0.25548567799E+03  0.25548567799E+03  0.00000000000E+00 0.  1.
          2   -1    0    0  501    0  0.00000000000E+00 -0.00000000000E+00 -0.22235660719E+04  0.22235660719E+04  0.00000000000E+00 0. -1.
         24    2    1    2    0    0  0.30345151607E+03  0.34459111356E+03 -0.86418059305E+03  0.98242115930E+03  0.86702818204E+02 0.  0.
        254    2    1    2    0    0 -0.30345151607E+03 -0.34459111356E+03 -0.11038998009E+04  0.14966305906E+04  0.90026801353E+03 0.  0.
         23    2    4    4    0    0  0.49887962628E+02  0.26468615670E+03 -0.43935866361E+03  0.52449781866E+03  0.97541561004E+02 0.  0.
         23    2    4    4    0    0 -0.35333947870E+03 -0.60927727026E+03 -0.66454113724E+03  0.97213277192E+03  0.85788250365E+02 0.  0.
          4    1    3    3  502    0  0.30013814129E+03  0.30658844499E+03 -0.78849728084E+03  0.89766772268E+03  0.00000000000E+00 0. -1.
         -3    1    3    3    0  502  0.33133747808E+01  0.38002668570E+02 -0.75683312207E+02  0.84753436612E+02  0.00000000000E+00 0.  1.
         11    1    5    5    0    0  0.36793412242E+02  0.10195198331E+03 -0.26148289922E+03  0.28305700605E+03  0.00000000000E+00 0.  1.
        -11    1    5    5    0    0  0.13094550386E+02  0.16273417339E+03 -0.17787576439E+03  0.24144081261E+03  0.00000000000E+00 0. -1.
          2    1    6    6  503    0 -0.72058243743E+02 -0.10013750799E+03 -0.16065928425E+03  0.20256188342E+03  0.00000000000E+00 0. -1.
         -2    1    6    6    0  503 -0.28128123495E+03 -0.50913976227E+03 -0.50388185299E+03  0.76957088850E+03  0.00000000000E+00 0.  1.
<mgrwt>
<rscale>  0 0.15074340E+04</rscale>
<asrwt>0</asrwt>
<pdfrwt beam="1">  1        2 0.34208709E+00 0.15074340E+04</pdfrwt>
<pdfrwt beam="2">  1       -1 0.39305488E-01 0.15074340E+04</pdfrwt>
<totfact> 0.34684520E+01</totfact>
</mgrwt>
</event>
<event>
12    6  0.1462228E-007  0.1683391E+04  0.7818608E-02  0.8770894E-01
         -1   -1    0    0    0  501 -0.00000000000E+00  0.00000000000E+00  0.72650524910E+03  0.72650524910E+03  0.00000000000E+00 0.  1.
          2   -1    0    0  501    0  0.00000000000E+00 -0.00000000000E+00 -0.97514995523E+03  0.97514995523E+03  0.00000000000E+00 0. -1.
         24    2    1    2    0    0  0.27551540606E+03  0.35281783099E+02 -0.61013119896E+03  0.67513172035E+03  0.79932575864E+02 0.  0.
        254    2    1    2    0    0 -0.27551540606E+03 -0.35281783099E+02  0.36148649283E+03  0.10265234840E+04  0.91974150469E+03 0.  0.
         23    2    4    4    0    0 -0.49069924392E+03  0.55694440752E+02  0.52529351080E+03  0.72668078260E+03  0.90796853486E+02 0.  0.
         23    2    4    4    0    0  0.21518383786E+03 -0.90976223852E+02 -0.16380701796E+03  0.29984270137E+03  0.92152856985E+02 0.  0.
          2    1    3    3  502    0  0.12424222806E+03  0.32863114333E+02 -0.36615564891E+03  0.38805421624E+03  0.00000000000E+00 0. -1.
         -1    1    3    3    0  502  0.15127317801E+03  0.24186687660E+01 -0.24397555005E+03  0.28707750411E+03  0.00000000000E+00 0.  1.
         11    1    5    5    0    0 -0.37131210630E+03  0.19967736162E+02  0.34315621317E+03  0.50599167722E+03  0.00000000000E+00 0. -1.
        -11    1    5    5    0    0 -0.11938713762E+03  0.35726704591E+02  0.18213729762E+03  0.22068910538E+03  0.00000000000E+00 0.  1.
          2    1    6    6  503    0  0.18876622375E+03 -0.80114937886E+02 -0.96316451442E+02  0.22655672429E+03  0.00000000000E+00 0. -1.
         -2    1    6    6    0  503  0.26417614107E+02 -0.10861285966E+02 -0.67490566520E+02  0.73285977084E+02  0.00000000000E+00 0.  1.
<mgrwt>
<rscale>  0 0.16833913E+04</rscale>
<asrwt>0</asrwt>
<pdfrwt beam="1">  1        2 0.15002307E+00 0.16833913E+04</pdfrwt>
<pdfrwt beam="2">  1       -1 0.11177004E+00 0.16833913E+04</pdfrwt>
<totfact> 0.20884275E+01</totfact>
</mgrwt>
</event>
<event>
12    6  0.1462228E-007  0.2230116E+04  0.7818608E-02  0.8505997E-01
         -1   -1    0    0    0  501 -0.00000000000E+00  0.00000000000E+00  0.12129256617E+04  0.12129256617E+04  0.00000000000E+00 0.  1.
          2   -1    0    0  501    0  0.00000000000E+00 -0.00000000000E+00 -0.10250868513E+04  0.10250868513E+04  0.00000000000E+00 0. -1.
         24    2    1    2    0    0  0.64697521711E+03 -0.63933787799E+03  0.18929725822E+03  0.93244781386E+03  0.79344942033E+02 0.  0.
        254    2    1    2    0    0 -0.64697521711E+03  0.63933787799E+03 -0.14584477849E+01  0.13055646992E+04  0.93657204895E+03 0.  0.
         23    2    4    4    0    0 -0.25500536405E+03 -0.73481740114E+02 -0.32128716014E+03  0.42614162189E+03  0.89128787803E+02 0.  0.
         23    2    4    4    0    0 -0.39196985306E+03  0.71281961810E+03  0.31982871235E+03  0.87942307728E+03  0.96655935916E+02 0.  0.
          4    1    3    3  502    0  0.12551027107E+02 -0.31404093385E+02  0.13152513504E+02  0.36286829212E+02  0.00000000000E+00 0. -1.
         -3    1    3    3    0  502  0.63442419000E+03 -0.60793378460E+03  0.17614474472E+03  0.89616098465E+03  0.00000000000E+00 0.  1.
         11    1    5    5    0    0 -0.91521135842E+02  0.14878697099E+02 -0.87472388070E+02  0.12747122267E+03  0.00000000000E+00 0. -1.
        -11    1    5    5    0    0 -0.16348422821E+03 -0.88360437213E+02 -0.23381477207E+03  0.29867039923E+03  0.00000000000E+00 0.  1.
          4    1    6    6  503    0 -0.18845944534E+03  0.30061605366E+03  0.18616938264E+03  0.40068193531E+03  0.00000000000E+00 0. -1.
         -4    1    6    6    0  503 -0.20351040772E+03  0.41220356445E+03  0.13365932971E+03  0.47874114197E+03  0.00000000000E+00 0.  1.
<mgrwt>
<rscale>  0 0.22301158E+04</rscale>
<asrwt>0</asrwt>
<pdfrwt beam="1">  1        2 0.15770567E+00 0.22301158E+04</pdfrwt>
<pdfrwt beam="2">  1       -1 0.18660395E+00 0.22301158E+04</pdfrwt>
<totfact> 0.47126269E+00</totfact>
</mgrwt>
</event>
<event>
12    6  0.1462228E-007  0.1671234E+04  0.7818608E-02  0.8777943E-01
          2   -1    0    0  501    0  0.00000000000E+00  0.00000000000E+00  0.17311535660E+04  0.17311535660E+04  0.00000000000E+00 0. -1.
         -3   -1    0    0    0  501 -0.00000000000E+00 -0.00000000000E+00 -0.40334726553E+03  0.40334726553E+03  0.00000000000E+00 0.  1.
         24    2    1    2    0    0  0.21516490485E+03 -0.19794953145E+03  0.11325183155E+04  0.11734548383E+04  0.94438177829E+02 0.  0.
        254    2    1    2    0    0 -0.21516490485E+03  0.19794953145E+03  0.19528798501E+03  0.96104599322E+03  0.89442274720E+03 0.  0.
         23    2    4    4    0    0 -0.43165523789E+03  0.27230457012E+03 -0.14740227902E+03  0.53888727162E+03  0.90531963152E+02 0.  0.
         23    2    4    4    0    0  0.21649033304E+03 -0.74355038670E+02  0.34269026402E+03  0.42215872160E+03  0.91567642142E+02 0.  0.
          4    1    3    3  502    0  0.22414308405E+03 -0.18640006703E+03  0.10961927518E+04  0.11342943429E+04  0.00000000000E+00 0. -1.
         -3    1    3    3    0  502 -0.89781791998E+01 -0.11549464413E+02  0.36325563663E+02  0.39160495469E+02  0.00000000000E+00 0.  1.
         11    1    5    5    0    0 -0.80295043849E+02  0.94124683837E+02 -0.23739579120E+02  0.12597744953E+03  0.00000000000E+00 0. -1.
        -11    1    5    5    0    0 -0.35136019404E+03  0.17817988628E+03 -0.12366269990E+03  0.41290982209E+03  0.00000000000E+00 0.  1.
          1    1    6    6  503    0  0.13774014182E+03 -0.73731449298E+02  0.16204682497E+03  0.22509519490E+03  0.00000000000E+00 0. -1.
         -1    1    6    6    0  503  0.78750191219E+02 -0.62358937130E+00  0.18064343905E+03  0.19706352669E+03  0.00000000000E+00 0.  1.
<mgrwt>
<rscale>  0 0.16712343E+04</rscale>
<asrwt>0</asrwt>
<pdfrwt beam="1">  1        2 0.26633131E+00 0.16712343E+04</pdfrwt>
<pdfrwt beam="2">  1       -3 0.62053426E-01 0.16712343E+04</pdfrwt>
<totfact> 0.14541932E+01</totfact>
</mgrwt>
</event>
<event>
12    6  0.1462228E-007  0.2494340E+04  0.7818608E-02  0.8405005E-01
         -1   -1    0    0    0  501 -0.00000000000E+00  0.00000000000E+00  0.72413925819E+03  0.72413925819E+03  0.00000000000E+00 0.  1.
          2   -1    0    0  501    0  0.00000000000E+00 -0.00000000000E+00 -0.21479749426E+04  0.21479749426E+04  0.00000000000E+00 0. -1.
         24    2    1    2    0    0 -0.35165525924E+03 -0.82909844292E+03  0.62523980740E+02  0.90635089901E+03  0.80604308611E+02 0.  0.
        254    2    1    2    0    0  0.35165525924E+03  0.82909844292E+03 -0.14863596652E+04  0.19657633018E+04  0.91863739039E+03 0.  0.
         23    2    4    4    0    0  0.28821094874E+03 -0.11841471629E+03 -0.31079606759E+03  0.45149682522E+03  0.10083447600E+03 0.  0.
         23    2    4    4    0    0  0.63444310501E+02  0.94751315921E+03 -0.11755635976E+04  0.15142664766E+04  0.96160400876E+02 0.  0.
          4    1    3    3  502    0 -0.21920960796E+01 -0.26657497269E+02 -0.89435288088E+01  0.28203087657E+02  0.00000000000E+00 0. -1.
         -3    1    3    3    0  502 -0.34946316316E+03 -0.80244094565E+03  0.71467509549E+02  0.87814781135E+03  0.00000000000E+00 0.  1.
         11    1    5    5    0    0  0.22147043420E+02  0.17789059824E+02 -0.31472030426E+02  0.42396118700E+02  0.00000000000E+00 0. -1.
        -11    1    5    5    0    0  0.26606390532E+03 -0.13620377611E+03 -0.27932403717E+03  0.40910070653E+03  0.00000000000E+00 0.  1.
          4    1    6    6  503    0  0.49618222315E+02  0.38189362895E+03 -0.41243396984E+03  0.56427519111E+03  0.00000000000E+00 0. -1.
         -4    1    6    6    0  503  0.13826088186E+02  0.56561953026E+03 -0.76312962773E+03  0.94999128546E+03  0.00000000000E+00 0.  1.
<mgrwt>
<rscale>  0 0.24943400E+04</rscale>
<asrwt>0</asrwt>
<pdfrwt beam="1">  1        2 0.33045768E+00 0.24943400E+04</pdfrwt>
<pdfrwt beam="2">  1       -1 0.11140604E+00 0.24943400E+04</pdfrwt>
<totfact> 0.41516101E+00</totfact>
</mgrwt>
</event>
<event>
12    6  0.1462228E-007  0.2205152E+04  0.7818608E-02  0.8516287E-01
         -1   -1    0    0    0  501 -0.00000000000E+00  0.00000000000E+00  0.14688421644E+04  0.14688421644E+04  0.00000000000E+00 0.  1.
          2   -1    0    0  501    0  0.00000000000E+00 -0.00000000000E+00 -0.82764058866E+03  0.82764058866E+03  0.00000000000E+00 0. -1.
         24    2    1    2    0    0 -0.76161320086E+01  0.59637745260E+03  0.98676383297E+03  0.11557950845E+04  0.80220594927E+02 0.  0.
        254    2    1    2    0    0  0.76161320086E+01 -0.59637745260E+03 -0.34556225719E+03  0.11406876686E+04  0.90886248259E+03 0.  0.
         23    2    4    4    0    0 -0.43506327417E+03 -0.20171591210E+03 -0.14369251018E+03  0.50835337903E+03  0.88353034827E+02 0.  0.
         23    2    4    4    0    0  0.44267940618E+03 -0.39466154050E+03 -0.20186974701E+03  0.63233428957E+03  0.85863093364E+02 0.  0.
          2    1    3    3  502    0  0.28294702057E+01  0.27927929104E+03  0.38662406131E+03  0.47695187712E+03  0.00000000000E+00 0. -1.
         -1    1    3    3    0  502 -0.10445602214E+02  0.31709816156E+03  0.60013977166E+03  0.67884320737E+03  0.00000000000E+00 0.  1.
         11    1    5    5    0    0 -0.22759464447E+03 -0.15192686694E+03 -0.68012064094E+02  0.28196938832E+03  0.00000000000E+00 0. -1.
        -11    1    5    5    0    0 -0.20746862970E+03 -0.49789045157E+02 -0.75680446088E+02  0.22638399071E+03  0.00000000000E+00 0.  1.
          3    1    6    6  503    0  0.30050383012E+03 -0.22729151072E+03 -0.97515880647E+02  0.38919574733E+03  0.00000000000E+00 0. -1.
         -3    1    6    6    0  503  0.14217557606E+03 -0.16737002979E+03 -0.10435386636E+03  0.24313854224E+03  0.00000000000E+00 0.  1.
<mgrwt>
<rscale>  0 0.22051516E+04</rscale>
<asrwt>0</asrwt>
<pdfrwt beam="1">  1        2 0.12732932E+00 0.22051516E+04</pdfrwt>
<pdfrwt beam="2">  1       -1 0.22597572E+00 0.22051516E+04</pdfrwt>
<totfact> 0.34434714E+00</totfact>
</mgrwt>
</event>
<event>
12    6  0.1462228E-007  0.1496255E+04  0.7818608E-02  0.8886947E-01
          2   -1    0    0  501    0  0.00000000000E+00  0.00000000000E+00  0.12960182751E+04  0.12960182751E+04  0.00000000000E+00 0. -1.
         -1   -1    0    0    0  501 -0.00000000000E+00 -0.00000000000E+00 -0.43185697812E+03  0.43185697812E+03  0.00000000000E+00 0.  1.
         24    2    1    2    0    0 -0.11931607374E+03  0.39504579294E+02 -0.25076647550E+03  0.29160732178E+03  0.79712405817E+02 0.  0.
        254    2    1    2    0    0  0.11931607374E+03 -0.39504579294E+02  0.11149277725E+04  0.14362679315E+04  0.89666308937E+03 0.  0.
         23    2    4    4    0    0 -0.26448258337E+03  0.26404343941E+03  0.65064752377E+03  0.75577787325E+03  0.90487671537E+02 0.  0.
         23    2    4    4    0    0  0.38379865711E+03 -0.30354801870E+03  0.46428024874E+03  0.68049005823E+03  0.89820716578E+02 0.  0.
          4    1    3    3  502    0 -0.27882319524E+02 -0.11905380192E+02 -0.12103307761E+03  0.12477246369E+03  0.00000000000E+00 0. -1.
         -3    1    3    3    0  502 -0.91433754218E+02  0.51409959485E+02 -0.12973339789E+03  0.16683485808E+03  0.00000000000E+00 0.  1.
         11    1    5    5    0    0 -0.22771175545E+03  0.18271589033E+03  0.45327049827E+03  0.53915849687E+03  0.00000000000E+00 0. -1.
        -11    1    5    5    0    0 -0.36770827920E+02  0.81327549082E+02  0.19737702550E+03  0.21661937637E+03  0.00000000000E+00 0.  1.
          1    1    6    6  503    0  0.74089278195E+02 -0.18356943538E+02  0.77571267569E+02  0.10882784603E+03  0.00000000000E+00 0.  1.
         -1    1    6    6    0  503  0.30970937891E+03 -0.28519107516E+03  0.38670898117E+03  0.57166221220E+03  0.00000000000E+00 0. -1.
<mgrwt>
<rscale>  0 0.14962547E+04</rscale>
<asrwt>0</asrwt>
<pdfrwt beam="1">  1        2 0.19938743E+00 0.14962547E+04</pdfrwt>
<pdfrwt beam="2">  1       -1 0.66439536E-01 0.14962547E+04</pdfrwt>
<totfact> 0.42034886E+01</totfact>
</mgrwt>
</event>
<event>
12    6  0.1462228E-007  0.1632262E+04  0.7818608E-02  0.8800970E-01
          2   -1    0    0  501    0  0.00000000000E+00  0.00000000000E+00  0.50793500226E+03  0.50793500226E+03  0.00000000000E+00 0. -1.
         -1   -1    0    0    0  501 -0.00000000000E+00 -0.00000000000E+00 -0.13113281485E+04  0.13113281485E+04  0.00000000000E+00 0.  1.
         24    2    1    2    0    0  0.34031813136E+03 -0.45267567262E+03 -0.30797691208E+03  0.64960961110E+03  0.80069802946E+02 0.  0.
        254    2    1    2    0    0 -0.34031813136E+03  0.45267567262E+03 -0.49541623413E+03  0.11696535396E+04  0.89550011871E+03 0.  0.
         23    2    4    4    0    0 -0.51271415015E+03  0.16041993273E+02 -0.45236343747E+03  0.69002557534E+03  0.91484806093E+02 0.  0.
         23    2    4    4    0    0  0.17239601879E+03  0.43663367935E+03 -0.43052796666E+02  0.47962796429E+03  0.88431236527E+02 0.  0.
          2    1    3    3  502    0  0.18955332028E+03 -0.28496772550E+03 -0.22364279581E+03  0.40884369375E+03  0.00000000000E+00 0. -1.
         -1    1    3    3    0  502  0.15076481108E+03 -0.16770794712E+03 -0.84334116264E+02  0.24076591734E+03  0.00000000000E+00 0.  1.
         11    1    5    5    0    0 -0.24687697567E+02  0.11651725370E+02 -0.52169337218E+02  0.58880258670E+02  0.00000000000E+00 0.  1.
        -11    1    5    5    0    0 -0.48802645258E+03  0.43902679025E+01 -0.40019410025E+03  0.63114531666E+03  0.00000000000E+00 0. -1.
          4    1    6    6  503    0  0.16425792635E+03  0.33135594631E+03 -0.52812320865E+02  0.37358609551E+03  0.00000000000E+00 0. -1.
         -4    1    6    6    0  503  0.81380924437E+01  0.10527773303E+03  0.97595241993E+01  0.10604186878E+03  0.00000000000E+00 0.  1.
<mgrwt>
<rscale>  0 0.16322616E+04</rscale>
<asrwt>0</asrwt>
<pdfrwt beam="1">  1        2 0.78143846E-01 0.16322616E+04</pdfrwt>
<pdfrwt beam="2">  1       -1 0.20174279E+00 0.16322616E+04</pdfrwt>
<totfact> 0.96757635E+00</totfact>
</mgrwt>
</event>
<event>
12    6  0.1462228E-007  0.3027023E+04  0.7818608E-02  0.8236056E-01
         -3   -1    0    0    0  501 -0.00000000000E+00  0.00000000000E+00  0.16252553343E+04  0.16252553343E+04  0.00000000000E+00 0.  1.
          2   -1    0    0  501    0  0.00000000000E+00 -0.00000000000E+00 -0.14094509748E+04  0.14094509748E+04  0.00000000000E+00 0. -1.
         24    2    1    2    0    0  0.10062714979E+04  0.80607730729E+03  0.55990299976E+03  0.14079367528E+04  0.80321714378E+02 0.  0.
        254    2    1    2    0    0 -0.10062714979E+04 -0.80607730729E+03 -0.34409864026E+03  0.16267695563E+04  0.93039365984E+03 0.  0.
         23    2    4    4    0    0 -0.50523521063E+03  0.59771222053E+01  0.16728817886E+03  0.54013055648E+03  0.91963792904E+02 0.  0.
         23    2    4    4    0    0 -0.50103628728E+03 -0.81205442949E+03 -0.51138681913E+03  0.10866389998E+04  0.93798078563E+02 0.  0.
          4    1    3    3  502    0  0.27860859900E+03  0.17925102661E+03  0.13565659130E+03  0.35798937518E+03  0.00000000000E+00 0. -1.
         -3    1    3    3    0  502  0.72766289891E+03  0.62682628068E+03  0.42424640846E+03  0.10499473776E+04  0.00000000000E+00 0.  1.
         11    1    5    5    0    0 -0.14130479477E+03  0.42918250445E+02  0.43491933222E+02  0.15394989283E+03  0.00000000000E+00 0. -1.
        -11    1    5    5    0    0 -0.36393041586E+03 -0.36941128240E+02  0.12379624564E+03  0.38618066365E+03  0.00000000000E+00 0.  1.
          4    1    6    6  503    0 -0.29872419523E+03 -0.54749233986E+03 -0.29921870319E+03  0.69174839310E+03  0.00000000000E+00 0. -1.
         -4    1    6    6    0  503 -0.20231209206E+03 -0.26456208963E+03 -0.21216811593E+03  0.39489060673E+03  0.00000000000E+00 0.  1.
<mgrwt>
<rscale>  0 0.30270234E+04</rscale>
<asrwt>0</asrwt>
<pdfrwt beam="1">  1        2 0.21683861E+00 0.30270234E+04</pdfrwt>
<pdfrwt beam="2">  1       -3 0.25003928E+00 0.30270234E+04</pdfrwt>
<totfact> 0.56116882E-01</totfact>
</mgrwt>
</event>
<event>
12    6  0.1462228E-007  0.2314877E+04  0.7818608E-02  0.8472078E-01
          2   -1    0    0  501    0  0.00000000000E+00  0.00000000000E+00  0.17539398615E+04  0.17539398615E+04  0.00000000000E+00 0. -1.
         -1   -1    0    0    0  501 -0.00000000000E+00 -0.00000000000E+00 -0.76380272319E+03  0.76380272319E+03  0.00000000000E+00 0.  1.
         24    2    1    2    0    0 -0.37444805351E+03 -0.33635704659E+03  0.13408352700E+04  0.14343132838E+04  0.77897158633E+02 0.  0.
        254    2    1    2    0    0  0.37444805351E+03  0.33635704659E+03 -0.35069813163E+03  0.10834293009E+04  0.89301873609E+03 0.  0.
         23    2    4    4    0    0 -0.46925725822E+02  0.50429686651E+03 -0.20836305825E+02  0.51504017420E+03  0.91185942404E+02 0.  0.
         23    2    4    4    0    0  0.42137377933E+03 -0.16793981992E+03 -0.32986182580E+03  0.56838912672E+03  0.92183134226E+02 0.  0.
          2    1    3    3  502    0 -0.27774227644E+03 -0.20083135858E+03  0.88954169137E+03  0.95328821843E+03  0.00000000000E+00 0. -1.
         -1    1    3    3    0  502 -0.96705777062E+02 -0.13552568800E+03  0.45129357861E+03  0.48102506538E+03  0.00000000000E+00 0.  1.
         11    1    5    5    0    0 -0.34558819330E+02  0.45341055960E+03 -0.45800987556E+02  0.45702645220E+03  0.00000000000E+00 0. -1.
        -11    1    5    5    0    0 -0.12366906492E+02  0.50886306903E+02  0.24964681731E+02  0.58013722001E+02  0.00000000000E+00 0.  1.
          3    1    6    6  503    0  0.16498361821E+03 -0.10495545775E+03 -0.10706445475E+03  0.22293057184E+03  0.00000000000E+00 0. -1.
         -3    1    6    6    0  503  0.25639016112E+03 -0.62984362172E+02 -0.22279737105E+03  0.34545855488E+03  0.00000000000E+00 0.  1.
<mgrwt>
<rscale>  0 0.23148771E+04</rscale>
<asrwt>0</asrwt>
<pdfrwt beam="1">  1        2 0.26983690E+00 0.23148771E+04</pdfrwt>
<pdfrwt beam="2">  1       -1 0.11750811E+00 0.23148771E+04</pdfrwt>
<totfact> 0.61482823E+00</totfact>
</mgrwt>
</event>
<event>
12    6  0.1462228E-007  0.1129342E+04  0.7818608E-02  0.9177056E-01
          2   -1    0    0  501    0  0.00000000000E+00  0.00000000000E+00  0.17257543046E+03  0.17257543046E+03  0.00000000000E+00 0. -1.
         -1   -1    0    0    0  501 -0.00000000000E+00 -0.00000000000E+00 -0.18476166137E+04  0.18476166137E+04  0.00000000000E+00 0.  1.
         24    2    1    2    0    0 -0.73398721013E+02  0.83718967845E+02 -0.61624233171E+02  0.14932982854E+03  0.78138426884E+02 0.  0.
        254    2    1    2    0    0  0.73398721013E+02 -0.83718967845E+02 -0.16134169501E+04  0.18708622156E+04  0.94053970530E+03 0.  0.
         23    2    4    4    0    0 -0.16922267596E+03 -0.29106145153E+03 -0.16709053987E+03  0.38689157516E+03  0.91721097871E+02 0.  0.
         23    2    4    4    0    0  0.24262139697E+03  0.20734248368E+03 -0.14463264102E+04  0.14839706405E+04  0.91938724645E+02 0.  0.
          2    1    3    3  502    0 -0.41913826890E+02  0.90574446500E+02 -0.30078690907E+02  0.10423639906E+03  0.00000000000E+00 0. -1.
         -3    1    3    3    0  502 -0.31484894124E+02 -0.68554786544E+01 -0.31545542264E+02  0.45093429480E+02  0.00000000000E+00 0.  1.
         11    1    5    5    0    0  0.71110516600E+01  0.15549537571E+01 -0.27683307082E+01  0.77877205785E+01  0.00000000000E+00 0. -1.
        -11    1    5    5    0    0 -0.17633372762E+03 -0.29261640528E+03 -0.16432220916E+03  0.37910385459E+03  0.00000000000E+00 0.  1.
          3    1    6    6  503    0 -0.24921538660E+01 -0.36542562738E+01 -0.70626899183E+02  0.70765269080E+02  0.00000000000E+00 0. -1.
         -3    1    6    6    0  503  0.24511355084E+03  0.21099673996E+03 -0.13756995110E+04  0.14132053714E+04  0.00000000000E+00 0.  1.
<mgrwt>
<rscale>  0 0.11293418E+04</rscale>
<asrwt>0</asrwt>
<pdfrwt beam="1">  1        2 0.26550067E-01 0.11293418E+04</pdfrwt>
<pdfrwt beam="2">  1       -1 0.28424870E+00 0.11293418E+04</pdfrwt>
<totfact> 0.97961434E+00</totfact>
</mgrwt>
</event>
<event>
12    6  0.1462228E-007  0.1385192E+04  0.7818608E-02  0.8964608E-01
         -1   -1    0    0    0  501 -0.00000000000E+00  0.00000000000E+00  0.11627433225E+04  0.11627433225E+04  0.00000000000E+00 0.  1.
          2   -1    0    0  501    0  0.00000000000E+00 -0.00000000000E+00 -0.41254958328E+03  0.41254958328E+03  0.00000000000E+00 0. -1.
         24    2    1    2    0    0  0.56757222033E+01  0.18346689499E+03  0.67011824098E+03  0.69928182711E+03  0.79020892486E+02 0.  0.
        254    2    1    2    0    0 -0.56757222033E+01 -0.18346689499E+03  0.80075498277E+02  0.87601107870E+03  0.85281358409E+03 0.  0.
         23    2    4    4    0    0 -0.39207385846E+03  0.14985792696E+02  0.14329980625E+03  0.42772206301E+03  0.92004588162E+02 0.  0.
         23    2    4    4    0    0  0.38639813626E+03 -0.19845268768E+03 -0.63224307970E+02  0.44828901569E+03  0.90987578943E+02 0.  0.
          2    1    3    3  502    0  0.69398815048E+01 -0.21470893684E+01  0.87697854936E+02  0.87998214234E+02  0.00000000000E+00 0. -1.
         -1    1    3    3    0  502 -0.12641593015E+01  0.18561398436E+03  0.58242038604E+03  0.61128361287E+03  0.00000000000E+00 0.  1.
         11    1    5    5    0    0 -0.37495910689E+03  0.28079120051E+00  0.15050187616E+03  0.40403616844E+03  0.00000000000E+00 0.  1.
        -11    1    5    5    0    0 -0.17114751573E+02  0.14705001496E+02 -0.72020699125E+01  0.23685894566E+02  0.00000000000E+00 0. -1.
          2    1    6    6  503    0  0.15564223051E+03 -0.57230613080E+02  0.15430249774E+02  0.16654710925E+03  0.00000000000E+00 0. -1.
         -2    1    6    6    0  503  0.23075590575E+03 -0.14122207460E+03 -0.78654557743E+02  0.28174190644E+03  0.00000000000E+00 0.  1.
<mgrwt>
<rscale>  0 0.13851921E+04</rscale>
<asrwt>0</asrwt>
<pdfrwt beam="1">  1        2 0.63469167E-01 0.13851921E+04</pdfrwt>
<pdfrwt beam="2">  1       -1 0.17888359E+00 0.13851921E+04</pdfrwt>
<totfact> 0.18145380E+01</totfact>
</mgrwt>
</event>
<event>
12    6  0.1462228E-007  0.1339192E+04  0.7818608E-02  0.8999050E-01
         -1   -1    0    0    0  501 -0.00000000000E+00  0.00000000000E+00  0.22346532758E+03  0.22346532758E+03  0.00000000000E+00 0.  1.
          2   -1    0    0  501    0  0.00000000000E+00 -0.00000000000E+00 -0.20063921038E+04  0.20063921038E+04  0.00000000000E+00 0. -1.
         24    2    1    2    0    0  0.27003553004E+03  0.28002128141E+03 -0.56034701174E+03  0.68679115870E+03  0.79763504061E+02 0.  0.
        254    2    1    2    0    0 -0.27003553004E+03 -0.28002128141E+03 -0.12225797645E+04  0.15430662727E+04  0.85733373656E+03 0.  0.
         23    2    4    4    0    0 -0.51977665941E+03 -0.37848559932E+03 -0.75075674110E+03  0.99253045562E+03  0.89788064118E+02 0.  0.
         23    2    4    4    0    0  0.24974112937E+03  0.98464317904E+02 -0.47182302336E+03  0.55053581705E+03  0.91688968154E+02 0.  0.
          2    1    3    3  502    0  0.26732700922E+03  0.24698336855E+03 -0.51392357313E+03  0.62974753134E+03  0.00000000000E+00 0. -1.
         -3    1    3    3    0  502  0.27085208159E+01  0.33037912861E+02 -0.46423438602E+02  0.57043627364E+02  0.00000000000E+00 0.  1.
         11    1    5    5    0    0 -0.43771079360E+03 -0.29375926541E+03 -0.65377419249E+03  0.83982494581E+03  0.00000000000E+00 0. -1.
        -11    1    5    5    0    0 -0.82065865810E+02 -0.84726333907E+02 -0.96982548618E+02  0.15270550981E+03  0.00000000000E+00 0.  1.
          2    1    6    6  503    0  0.23217391493E+03  0.65942175014E+02 -0.36575897699E+03  0.43821538822E+03  0.00000000000E+00 0. -1.
         -2    1    6    6    0  503  0.17567214443E+02  0.32522142890E+02 -0.10606404636E+03  0.11232042883E+03  0.00000000000E+00 0.  1.
<mgrwt>
<rscale>  0 0.13391924E+04</rscale>
<asrwt>0</asrwt>
<pdfrwt beam="1">  1        2 0.30867571E+00 0.13391924E+04</pdfrwt>
<pdfrwt beam="2">  1       -1 0.34379281E-01 0.13391924E+04</pdfrwt>
<totfact> 0.59173303E+01</totfact>
</mgrwt>
</event>
<event>
12    6  0.1462228E-007  0.2881471E+04  0.7818608E-02  0.8278412E-01
          2   -1    0    0  501    0  0.00000000000E+00  0.00000000000E+00  0.23505852816E+04  0.23505852816E+04  0.00000000000E+00 0. -1.
         -1   -1    0    0    0  501 -0.00000000000E+00 -0.00000000000E+00 -0.88306461204E+03  0.88306461204E+03  0.00000000000E+00 0.  1.
         24    2    1    2    0    0 -0.11593423625E+04 -0.55781574686E+03  0.69308540668E+03  0.14635705408E+04  0.80238556698E+02 0.  0.
        254    2    1    2    0    0  0.11593423625E+04  0.55781574686E+03  0.77443526289E+03  0.17700793529E+04  0.93712209348E+03 0.  0.
         23    2    4    4    0    0  0.66710637232E+03  0.75375633077E+03  0.30214681421E+03  0.10548721493E+04  0.91011185035E+02 0.  0.
         23    2    4    4    0    0  0.49223599017E+03 -0.19594058391E+03  0.47228844868E+03  0.71520720359E+03  0.88181533521E+02 0.  0.
          4    1    3    3  502    0 -0.12775770553E+03 -0.56344327203E+02  0.10415987366E+03  0.17420101553E+03  0.00000000000E+00 0. -1.
         -3    1    3    3    0  502 -0.10315846570E+04 -0.50147141965E+03  0.58892553302E+03  0.12893695253E+04  0.00000000000E+00 0.  1.
         11    1    5    5    0    0  0.52588502581E+03  0.53424575424E+03  0.22193636922E+03  0.78181157466E+03  0.00000000000E+00 0. -1.
        -11    1    5    5    0    0  0.14122134651E+03  0.21951057654E+03  0.80210444988E+02  0.27306057461E+03  0.00000000000E+00 0.  1.
          1    1    6    6  503    0  0.26901520052E+03 -0.14503521389E+03  0.30391732801E+03  0.43101059575E+03  0.00000000000E+00 0. -1.
         -1    1    6    6    0  503  0.22322078966E+03 -0.50905370022E+02  0.16837112067E+03  0.28419660784E+03  0.00000000000E+00 0.  1.
<mgrwt>
<rscale>  0 0.28814709E+04</rscale>
<asrwt>0</asrwt>
<pdfrwt beam="1">  1        2 0.36162850E+00 0.28814709E+04</pdfrwt>
<pdfrwt beam="2">  1       -1 0.13585609E+00 0.28814709E+04</pdfrwt>
<totfact> 0.18894460E+00</totfact>
</mgrwt>
</event>
<event>
12    6  0.1462228E-007  0.3063350E+04  0.7818608E-02  0.8225869E-01
         -3   -1    0    0    0  501 -0.00000000000E+00  0.00000000000E+00  0.13615915273E+04  0.13615915273E+04  0.00000000000E+00 0.  1.
          2   -1    0    0  501    0  0.00000000000E+00 -0.00000000000E+00 -0.17230048921E+04  0.17230048921E+04  0.00000000000E+00 0. -1.
         24    2    1    2    0    0  0.20887382043E+02  0.45363159419E+03 -0.14961524073E+04  0.15663509342E+04  0.93623273328E+02 0.  0.
        254    2    1    2    0    0 -0.20887382043E+02 -0.45363159419E+03  0.11347390424E+04  0.15182454851E+04  0.90067683034E+03 0.  0.
         23    2    4    4    0    0  0.39372350064E+03 -0.34415673662E+03  0.41275710505E+03  0.67341679812E+03  0.98283782469E+02 0.  0.
         23    2    4    4    0    0 -0.41461088268E+03 -0.10947485757E+03  0.72198193739E+03  0.84482868702E+03  0.92685835036E+02 0.  0.
          2    1    3    3  502    0  0.23261013877E+02  0.45720511222E+03 -0.14638468690E+04  0.15337617955E+04  0.00000000000E+00 0. -1.
         -1    1    3    3    0  502 -0.23736318344E+01 -0.35735180296E+01 -0.32305538278E+02  0.32589138722E+02  0.00000000000E+00 0.  1.
         11    1    5    5    0    0  0.31637442476E+03 -0.22236547058E+03  0.31957267808E+03  0.50166310978E+03  0.00000000000E+00 0. -1.
        -11    1    5    5    0    0  0.77349075880E+02 -0.12179126605E+03  0.93184426976E+02  0.17175368833E+03  0.00000000000E+00 0.  1.
          2    1    6    6  503    0 -0.33005546483E+03 -0.89498836385E+02  0.63863627112E+03  0.72443283911E+03  0.00000000000E+00 0. -1.
         -2    1    6    6    0  503 -0.84555417846E+02 -0.19976021185E+02  0.83345666273E+02  0.12039584792E+03  0.00000000000E+00 0.  1.
<mgrwt>
<rscale>  0 0.30633504E+04</rscale>
<asrwt>0</asrwt>
<pdfrwt beam="1">  1        2 0.26507768E+00 0.30633504E+04</pdfrwt>
<pdfrwt beam="2">  1       -3 0.20947562E+00 0.30633504E+04</pdfrwt>
<totfact> 0.65408426E-01</totfact>
</mgrwt>
</event>
<event>
12    6  0.1462228E-007  0.1840464E+04  0.7818608E-02  0.8685072E-01
         -1   -1    0    0    0  501 -0.00000000000E+00  0.00000000000E+00  0.31514113851E+03  0.31514113851E+03  0.00000000000E+00 0.  1.
          2   -1    0    0  501    0  0.00000000000E+00 -0.00000000000E+00 -0.26871348264E+04  0.26871348264E+04  0.00000000000E+00 0. -1.
         24    2    1    2    0    0  0.29941596618E+02 -0.68389031328E+03 -0.74326175487E+03  0.10135886394E+04  0.79507445445E+02 0.  0.
        254    2    1    2    0    0 -0.29941596618E+02  0.68389031328E+03 -0.16287319331E+04  0.19886873255E+04  0.91296610517E+03 0.  0.
         23    2    4    4    0    0  0.34504749245E+03  0.56716890359E+02 -0.31130503796E+03  0.47943235651E+03  0.10329559581E+03 0.  0.
         23    2    4    4    0    0 -0.37498908906E+03  0.62717342292E+03 -0.13174268951E+04  0.15092549690E+04  0.90959431999E+02 0.  0.
          2    1    3    3  502    0  0.29997421293E+02 -0.54728960708E+03 -0.54606649735E+03  0.77370173764E+03  0.00000000000E+00 0. -1.
         -1    1    3    3    0  502 -0.55824675295E-01 -0.13660070619E+03 -0.19719525752E+03  0.23988690177E+03  0.00000000000E+00 0.  1.
         11    1    5    5    0    0  0.15991183117E+03  0.65237099883E+02 -0.10506172703E+03  0.20215251528E+03  0.00000000000E+00 0. -1.
        -11    1    5    5    0    0  0.18513566128E+03 -0.85202095238E+01 -0.20624331093E+03  0.27727984123E+03  0.00000000000E+00 0.  1.
          1    1    6    6  503    0 -0.97411750669E+02  0.19934408228E+03 -0.47928718093E+03  0.52815084409E+03  0.00000000000E+00 0. -1.
         -1    1    6    6    0  503 -0.27757733840E+03  0.42782934064E+03 -0.83813971416E+03  0.98110412493E+03  0.00000000000E+00 0.  1.
<mgrwt>
<rscale>  0 0.18404638E+04</rscale>
<asrwt>0</asrwt>
<pdfrwt beam="1">  1        2 0.41340536E+00 0.18404638E+04</pdfrwt>
<pdfrwt beam="2">  1       -1 0.48483251E-01 0.18404638E+04</pdfrwt>
<totfact> 0.12345512E+01</totfact>
</mgrwt>
</event>
<event>
12    6  0.1462228E-007  0.1235908E+04  0.7818608E-02  0.9081994E-01
          2   -1    0    0  501    0  0.00000000000E+00  0.00000000000E+00  0.20272365727E+04  0.20272365727E+04  0.00000000000E+00 0. -1.
         -1   -1    0    0    0  501 -0.00000000000E+00 -0.00000000000E+00 -0.18836844249E+03  0.18836844249E+03  0.00000000000E+00 0.  1.
         24    2    1    2    0    0  0.15700053047E+02  0.27236448591E+03  0.81743452527E+03  0.86551733509E+03  0.80573875287E+02 0.  0.
        254    2    1    2    0    0 -0.15700053047E+02 -0.27236448591E+03  0.10214336049E+04  0.13500876801E+04  0.83963160365E+03 0.  0.
         23    2    4    4    0    0  0.27718384253E+03 -0.18601508295E+03  0.96644501573E+03  0.10265646521E+04  0.91577960270E+02 0.  0.
         23    2    4    4    0    0 -0.29288389558E+03 -0.86349402959E+02  0.54988589221E+02  0.32352302805E+03  0.91685380823E+02 0.  0.
          4    1    3    3  502    0 -0.94980608697E+01  0.20234057393E+01  0.62335428786E+02  0.63087344317E+02  0.00000000000E+00 0. -1.
         -3    1    3    3    0  502  0.25198113917E+02  0.27034108017E+03  0.75509909649E+03  0.80242999077E+03  0.00000000000E+00 0.  1.
         11    1    5    5    0    0  0.93027073882E+02 -0.11646137208E+03  0.43548245649E+03  0.46028497431E+03  0.00000000000E+00 0.  1.
        -11    1    5    5    0    0  0.18415676865E+03 -0.69553710875E+02  0.53096255923E+03  0.56627967776E+03  0.00000000000E+00 0. -1.
          4    1    6    6  503    0 -0.88813313989E+02 -0.19912392762E+01 -0.18605529926E+02  0.90763073545E+02  0.00000000000E+00 0. -1.
         -4    1    6    6    0  503 -0.20407058159E+03 -0.84358163683E+02  0.73594119148E+02  0.23275995451E+03  0.00000000000E+00 0.  1.
<mgrwt>
<rscale>  0 0.12359084E+04</rscale>
<asrwt>0</asrwt>
<pdfrwt beam="1">  1        2 0.31188253E+00 0.12359084E+04</pdfrwt>
<pdfrwt beam="2">  1       -1 0.28979762E-01 0.12359084E+04</pdfrwt>
<totfact> 0.78549017E+01</totfact>
</mgrwt>
</event>
<event>
12    6  0.1462228E-007  0.2163292E+04  0.7818608E-02  0.8533864E-01
         -1   -1    0    0    0  501 -0.00000000000E+00  0.00000000000E+00  0.43577677313E+03  0.43577677313E+03  0.00000000000E+00 0.  1.
          2   -1    0    0  501    0  0.00000000000E+00 -0.00000000000E+00 -0.26847655198E+04  0.26847655198E+04  0.00000000000E+00 0. -1.
         24    2    1    2    0    0  0.44410563866E+03 -0.73965221237E+03 -0.12188605161E+04  0.14955469475E+04  0.82003054185E+02 0.  0.
        254    2    1    2    0    0 -0.44410563866E+03  0.73965221237E+03 -0.10301282306E+04  0.16249953454E+04  0.91385474104E+03 0.  0.
         23    2    4    4    0    0  0.18744719789E+03  0.54498207018E+03 -0.56104105694E+03  0.80943040408E+03  0.90931857183E+02 0.  0.
         23    2    4    4    0    0 -0.63155283655E+03  0.19467014218E+03 -0.46908717363E+03  0.81556494136E+03  0.91367102924E+02 0.  0.
          4    1    3    3  502    0  0.29247151368E+03 -0.46342172930E+03 -0.83735657828E+03  0.10007323941E+04  0.00000000000E+00 0. -1.
         -3    1    3    3    0  502  0.15163412498E+03 -0.27623048307E+03 -0.38150393786E+03  0.49481455338E+03  0.00000000000E+00 0.  1.
         11    1    5    5    0    0  0.17420950610E+03  0.38915991956E+03 -0.39273286147E+03  0.57968396173E+03  0.00000000000E+00 0.  1.
        -11    1    5    5    0    0  0.13237691795E+02  0.15582215063E+03 -0.16830819547E+03  0.22974644235E+03  0.00000000000E+00 0. -1.
          1    1    6    6  503    0 -0.10400970024E+03  0.64045617094E+02 -0.65299872985E+02  0.13850607288E+03  0.00000000000E+00 0. -1.
         -1    1    6    6    0  503 -0.52754313631E+03  0.13062452509E+03 -0.40378730064E+03  0.67705886848E+03  0.00000000000E+00 0.  1.
<mgrwt>
<rscale>  0 0.21632924E+04</rscale>
<asrwt>0</asrwt>
<pdfrwt beam="1">  1        2 0.41304084E+00 0.21632924E+04</pdfrwt>
<pdfrwt beam="2">  1       -1 0.67042583E-01 0.21632924E+04</pdfrwt>
<totfact> 0.63791465E+00</totfact>
</mgrwt>
</event>
<event>
12    6  0.1462228E-007  0.1308421E+04  0.7818608E-02  0.9022914E-01
          2   -1    0    0  501    0  0.00000000000E+00  0.00000000000E+00  0.15937285800E+04  0.15937285800E+04  0.00000000000E+00 0. -1.
         -1   -1    0    0    0  501 -0.00000000000E+00 -0.00000000000E+00 -0.26854705182E+03  0.26854705182E+03  0.00000000000E+00 0.  1.
         24    2    1    2    0    0  0.26055536781E+03  0.21600830881E+03  0.24445974146E+03  0.42549687442E+03  0.82087366705E+02 0.  0.
        254    2    1    2    0    0 -0.26055536781E+03 -0.21600830881E+03  0.10807217867E+04  0.14367787574E+04  0.88420864521E+03 0.  0.
         23    2    4    4    0    0 -0.82408705570E+02  0.33681981860E+03  0.43533358206E+03  0.56393823378E+03  0.90951739410E+02 0.  0.
         23    2    4    4    0    0 -0.17814666224E+03 -0.55282812740E+03  0.64538820464E+03  0.87284052361E+03  0.89271906227E+02 0.  0.
          4    1    3    3  502    0  0.35233813042E+02  0.14176755346E+02  0.60561950201E+02  0.71485325668E+02  0.00000000000E+00 0. -1.
         -3    1    3    3    0  502  0.22532155477E+03  0.20183155346E+03  0.18389779126E+03  0.35401154875E+03  0.00000000000E+00 0.  1.
         11    1    5    5    0    0  0.24410786822E+01  0.51676505260E+02  0.11862309924E+03  0.12941352223E+03  0.00000000000E+00 0. -1.
        -11    1    5    5    0    0 -0.84849784253E+02  0.28514331334E+03  0.31671048281E+03  0.43452471156E+03  0.00000000000E+00 0.  1.
          4    1    6    6  503    0 -0.60629017366E+02 -0.18510584930E+03  0.15621065088E+03  0.24968344087E+03  0.00000000000E+00 0. -1.
         -4    1    6    6    0  503 -0.11751764488E+03 -0.36772227810E+03  0.48917755376E+03  0.62315708274E+03  0.00000000000E+00 0.  1.
<mgrwt>
<rscale>  0 0.13084206E+04</rscale>
<asrwt>0</asrwt>
<pdfrwt beam="1">  1        2 0.24518901E+00 0.13084206E+04</pdfrwt>
<pdfrwt beam="2">  1       -1 0.41314932E-01 0.13084206E+04</pdfrwt>
<totfact> 0.72000724E+01</totfact>
</mgrwt>
</event>
<event>
12    6  0.1462228E-007  0.2740804E+04  0.7818608E-02  0.8321886E-01
          2   -1    0    0  501    0  0.00000000000E+00  0.00000000000E+00  0.39044789394E+04  0.39044789394E+04  0.00000000000E+00 0. -1.
         -1   -1    0    0    0  501 -0.00000000000E+00 -0.00000000000E+00 -0.48098655973E+03  0.48098655973E+03  0.00000000000E+00 0.  1.
         24    2    1    2    0    0  0.10764770913E+04  0.20730125314E+03  0.23568841110E+04  0.26007300671E+04  0.84364872930E+02 0.  0.
        254    2    1    2    0    0 -0.10764770913E+04 -0.20730125314E+03  0.10666082687E+04  0.17847354320E+04  0.91970137852E+03 0.  0.
         23    2    4    4    0    0 -0.78351697477E+03 -0.55329050272E+03  0.78860525145E+03  0.12451776527E+04  0.92411655107E+02 0.  0.
         23    2    4    4    0    0 -0.29296011656E+03  0.34598924959E+03  0.27800301722E+03  0.53955777928E+03  0.91119311218E+02 0.  0.
          2    1    3    3  502    0  0.15248281084E+03  0.23883835379E+02  0.40504241766E+03  0.43345219494E+03  0.00000000000E+00 0. -1.
         -1    1    3    3    0  502  0.92399428048E+03  0.18341741776E+03  0.19518416933E+04  0.21672778722E+04  0.00000000000E+00 0.  1.
         11    1    5    5    0    0 -0.15278164901E+03 -0.10574797452E+03  0.10771162827E+03  0.21477118348E+03  0.00000000000E+00 0. -1.
        -11    1    5    5    0    0 -0.63073532576E+03 -0.44754252821E+03  0.68089362318E+03  0.10304064692E+04  0.00000000000E+00 0.  1.
          1    1    6    6  503    0 -0.10687834891E+03  0.18835985954E+03  0.10591241850E+03  0.24108060591E+03  0.00000000000E+00 0. -1.
         -1    1    6    6    0  503 -0.18608176765E+03  0.15762939005E+03  0.17209059873E+03  0.29847717338E+03  0.00000000000E+00 0.  1.
<mgrwt>
<rscale>  0 0.27408042E+04</rscale>
<asrwt>0</asrwt>
<pdfrwt beam="1">  1        2 0.60068905E+00 0.27408042E+04</pdfrwt>
<pdfrwt beam="2">  1       -1 0.73997935E-01 0.27408042E+04</pdfrwt>
<totfact> 0.74591563E-01</totfact>
</mgrwt>
</event>
<event>
12    6  0.1462228E-007  0.1361759E+04  0.7818608E-02  0.8981974E-01
         -1   -1    0    0    0  501 -0.00000000000E+00  0.00000000000E+00  0.14047633331E+04  0.14047633331E+04  0.00000000000E+00 0.  1.
          2   -1    0    0  501    0  0.00000000000E+00 -0.00000000000E+00 -0.33001769432E+03  0.33001769432E+03  0.00000000000E+00 0. -1.
         24    2    1    2    0    0 -0.28958821325E+03  0.19301870767E+03  0.22978897690E+03  0.42489467000E+03  0.81332354732E+02 0.  0.
        254    2    1    2    0    0  0.28958821325E+03 -0.19301870767E+03  0.84495666191E+03  0.13098863574E+04  0.93847373653E+03 0.  0.
         23    2    4    4    0    0 -0.13979584121E+03 -0.45287927823E+03  0.32791919154E+03  0.58333059908E+03  0.90005965211E+02 0.  0.
         23    2    4    4    0    0  0.42938405446E+03  0.25986057055E+03  0.51703747036E+03  0.72655575837E+03  0.93044838111E+02 0.  0.
          2    1    3    3  502    0 -0.27773013812E+03  0.15673189772E+03  0.21061470073E+03  0.38217465843E+03  0.00000000000E+00 0. -1.
         -1    1    3    3    0  502 -0.11858075139E+02  0.36286809952E+02  0.19174276167E+02  0.42720011575E+02  0.00000000000E+00 0.  1.
         11    1    5    5    0    0 -0.14567298655E+03 -0.45040350733E+03  0.31408214638E+03  0.56809465153E+03  0.00000000000E+00 0. -1.
        -11    1    5    5    0    0  0.58771453425E+01 -0.24757709025E+01  0.13837045161E+02  0.15235947550E+02  0.00000000000E+00 0.  1.
          4    1    6    6  503    0  0.26694927355E+03  0.21248474664E+03  0.34072258854E+03  0.48218623429E+03  0.00000000000E+00 0. -1.
         -4    1    6    6    0  503  0.16243478092E+03  0.47375823918E+02  0.17631488183E+03  0.24436952408E+03  0.00000000000E+00 0.  1.
<mgrwt>
<rscale>  0 0.13617588E+04</rscale>
<asrwt>0</asrwt>
<pdfrwt beam="1">  1        2 0.50771954E-01 0.13617588E+04</pdfrwt>
<pdfrwt beam="2">  1       -1 0.21611743E+00 0.13617588E+04</pdfrwt>
<totfact> 0.12892726E+01</totfact>
</mgrwt>
</event>
<event>
12    6  0.1462228E-007  0.2005185E+04  0.7818608E-02  0.8604200E-01
         -1   -1    0    0    0  501 -0.00000000000E+00  0.00000000000E+00  0.26579875177E+03  0.26579875177E+03  0.00000000000E+00 0.  1.
          2   -1    0    0  501    0  0.00000000000E+00 -0.00000000000E+00 -0.37817790620E+04  0.37817790620E+04  0.00000000000E+00 0. -1.
         24    2    1    2    0    0 -0.54359896521E+03  0.11688645865E+03 -0.25541609924E+04  0.26151607109E+04  0.78516807878E+02 0.  0.
        254    2    1    2    0    0  0.54359896521E+03 -0.11688645865E+03 -0.96181931775E+03  0.14324171029E+04  0.90419028828E+03 0.  0.
         23    2    4    4    0    0 -0.13692579255E+03 -0.28724855350E+03 -0.17367236874E+03  0.37366895887E+03  0.90586947203E+02 0.  0.
         23    2    4    4    0    0  0.68052475776E+03  0.17036209485E+03 -0.78814694900E+03  0.10587481440E+04  0.87377513861E+02 0.  0.
          4    1    3    3  502    0 -0.50444201403E+03  0.10164535132E+03 -0.22488585625E+04  0.23069803547E+04  0.00000000000E+00 0. -1.
         -3    1    3    3    0  502 -0.39156951185E+02  0.15241107323E+02 -0.30530242994E+03  0.30818035614E+03  0.00000000000E+00 0.  1.
         11    1    5    5    0    0 -0.51149921599E+02 -0.20643884292E+03 -0.11969054653E+03  0.24404740784E+03  0.00000000000E+00 0.  1.
        -11    1    5    5    0    0 -0.85775870948E+02 -0.80809710584E+02 -0.53981822212E+02  0.12962155103E+03  0.00000000000E+00 0. -1.
          3    1    6    6  503    0  0.64104758099E+03  0.16176579644E+03 -0.76870315383E+03  0.10139106039E+04  0.00000000000E+00 0. -1.
         -3    1    6    6    0  503  0.39477176766E+02  0.85962984161E+01 -0.19443795169E+02  0.44837540103E+02  0.00000000000E+00 0.  1.
<mgrwt>
<rscale>  0 0.20051854E+04</rscale>
<asrwt>0</asrwt>
<pdfrwt beam="1">  1        2 0.58181216E+00 0.20051854E+04</pdfrwt>
<pdfrwt beam="2">  1       -1 0.40892116E-01 0.20051854E+04</pdfrwt>
<totfact> 0.31601193E+00</totfact>
</mgrwt>
</event>
<event>
12    6  0.1462228E-007  0.1428511E+04  0.7818608E-02  0.8933436E-01
         -1   -1    0    0    0  501 -0.00000000000E+00  0.00000000000E+00  0.13625525444E+03  0.13625525444E+03  0.00000000000E+00 0.  1.
          2   -1    0    0  501    0  0.00000000000E+00 -0.00000000000E+00 -0.37441546042E+04  0.37441546042E+04  0.00000000000E+00 0. -1.
         24    2    1    2    0    0  0.14347973301E+03  0.17203297351E+02 -0.21929712697E+04  0.21989956174E+04  0.74674952846E+02 0.  0.
        254    2    1    2    0    0 -0.14347973301E+03 -0.17203297351E+02 -0.14149280800E+04  0.16814142412E+04  0.89679986146E+03 0.  0.
         23    2    4    4    0    0 -0.88477333225E+02  0.13375451305E+03 -0.14758608210E+04  0.14873253485E+04  0.90846139307E+02 0.  0.
         23    2    4    4    0    0 -0.55002399788E+02 -0.15095781040E+03  0.60932740989E+02  0.19408889266E+03  0.90245082007E+02 0.  0.
          4    1    3    3  502    0  0.62923361897E+02 -0.64693312787E+01 -0.14339544647E+04  0.14353489501E+04  0.00000000000E+00 0. -1.
         -3    1    3    3    0  502  0.80556371116E+02  0.23672628630E+02 -0.75901680504E+03  0.76364666739E+03  0.00000000000E+00 0.  1.
         11    1    5    5    0    0 -0.12671456249E+02 -0.59477682485E+01 -0.35227153820E+03  0.35254954032E+03  0.00000000000E+00 0. -1.
        -11    1    5    5    0    0 -0.75805876975E+02  0.13970228130E+03 -0.11235892828E+04  0.11347758082E+04  0.00000000000E+00 0.  1.
          1    1    6    6  503    0  0.20128724626E+02 -0.36212944236E+02  0.35579615508E+02  0.54611829534E+02  0.00000000000E+00 0. -1.
         -1    1    6    6    0  503 -0.75131124414E+02 -0.11474486617E+03  0.25353125481E+02  0.13947706313E+03  0.00000000000E+00 0.  1.
<mgrwt>
<rscale>  0 0.14285107E+04</rscale>
<asrwt>0</asrwt>
<pdfrwt beam="1">  1        2 0.57602370E+00 0.14285107E+04</pdfrwt>
<pdfrwt beam="2">  1       -1 0.20962350E-01 0.14285107E+04</pdfrwt>
<totfact> 0.11555477E+01</totfact>
</mgrwt>
</event>
<event>
12    6  0.1462228E-007  0.1437039E+04  0.7818608E-02  0.8927436E-01
         -1   -1    0    0    0  501 -0.00000000000E+00  0.00000000000E+00  0.32575031734E+03  0.32575031734E+03  0.00000000000E+00 0.  1.
          2   -1    0    0  501    0  0.00000000000E+00 -0.00000000000E+00 -0.15848640499E+04  0.15848640499E+04  0.00000000000E+00 0. -1.
         24    2    1    2    0    0  0.24706552559E+03  0.11740079255E+03  0.57315682557E+02  0.29050551217E+03  0.79271969234E+02 0.  0.
        254    2    1    2    0    0 -0.24706552559E+03 -0.11740079255E+03 -0.13164294151E+04  0.16201088551E+04  0.90384842605E+03 0.  0.
         23    2    4    4    0    0 -0.19601491724E+03  0.34164399338E+03 -0.91776000428E+03  0.10028365686E+04  0.90858637222E+02 0.  0.
         23    2    4    4    0    0 -0.51050608349E+02 -0.45904478593E+03 -0.39866941081E+03  0.61727228640E+03  0.93592181012E+02 0.  0.
          4    1    3    3  502    0  0.50019996369E+01 -0.67088708365E+01 -0.70801420245E+01  0.10961631236E+02  0.00000000000E+00 0. -1.
         -3    1    3    3    0  502  0.24206352595E+03  0.12410966338E+03  0.64395824581E+02  0.27954388093E+03  0.00000000000E+00 0.  1.
         11    1    5    5    0    0 -0.82942512358E+02  0.70315121790E+02 -0.21054542550E+03  0.23696635396E+03  0.00000000000E+00 0. -1.
        -11    1    5    5    0    0 -0.11307240488E+03  0.27132887159E+03 -0.70721457878E+03  0.76587021469E+03  0.00000000000E+00 0.  1.
          2    1    6    6  503    0 -0.43362841606E+02 -0.27045189092E+03 -0.29244455076E+03  0.40068488443E+03  0.00000000000E+00 0. -1.
         -2    1    6    6    0  503 -0.76877667427E+01 -0.18859289501E+03 -0.10622486005E+03  0.21658740198E+03  0.00000000000E+00 0.  1.
<mgrwt>
<rscale>  0 0.14370386E+04</rscale>
<asrwt>0</asrwt>
<pdfrwt beam="1">  1        2 0.24382524E+00 0.14370386E+04</pdfrwt>
<pdfrwt beam="2">  1       -1 0.50115433E-01 0.14370386E+04</pdfrwt>
<totfact> 0.50256647E+01</totfact>
</mgrwt>
</event>
<event>
12    6  0.1462228E-007  0.1322751E+04  0.7818608E-02  0.9011716E-01
          2   -1    0    0  501    0  0.00000000000E+00  0.00000000000E+00  0.12083361123E+04  0.12083361123E+04  0.00000000000E+00 0. -1.
         -1   -1    0    0    0  501 -0.00000000000E+00 -0.00000000000E+00 -0.36199970369E+03  0.36199970369E+03  0.00000000000E+00 0.  1.
         24    2    1    2    0    0 -0.56062166427E+02  0.29899643709E+02 -0.17538784818E+03  0.20337750274E+03  0.81021948473E+02 0.  0.
        254    2    1    2    0    0  0.56062166427E+02 -0.29899643709E+02  0.10217242567E+04  0.13669583132E+04  0.90587947214E+03 0.  0.
         23    2    4    4    0    0  0.12160596555E+03  0.37266253531E+03  0.21171700384E+03  0.45524432134E+03  0.93583793031E+02 0.  0.
         23    2    4    4    0    0 -0.65543799125E+02 -0.40256217902E+03  0.81000725291E+03  0.91171399187E+03  0.93586086705E+02 0.  0.
          4    1    3    3  502    0 -0.21555658184E+02 -0.25951237782E+02 -0.86718235542E+02  0.93049263929E+02  0.00000000000E+00 0. -1.
         -3    1    3    3    0  502 -0.34506508243E+02  0.55850881491E+02 -0.88669612635E+02  0.11032823881E+03  0.00000000000E+00 0.  1.
         11    1    5    5    0    0  0.73911034548E+02  0.26381551883E+03  0.98595681065E+02  0.29117447918E+03  0.00000000000E+00 0. -1.
        -11    1    5    5    0    0  0.47694931004E+02  0.10884701649E+03  0.11312132277E+03  0.16406984216E+03  0.00000000000E+00 0.  1.
          1    1    6    6  503    0 -0.25656684515E+02 -0.15600394735E+03  0.21906296139E+03  0.27015565532E+03  0.00000000000E+00 0. -1.
         -1    1    6    6    0  503 -0.39887114610E+02 -0.24655823167E+03  0.59094429152E+03  0.64155833655E+03  0.00000000000E+00 0.  1.
<mgrwt>
<rscale>  0 0.13227506E+04</rscale>
<asrwt>0</asrwt>
<pdfrwt beam="1">  1        2 0.18589786E+00 0.13227506E+04</pdfrwt>
<pdfrwt beam="2">  1       -1 0.55692262E-01 0.13227506E+04</pdfrwt>
<totfact> 0.68116718E+01</totfact>
</mgrwt>
</event>
<event>
12    6  0.1462228E-007  0.1340457E+04  0.7818608E-02  0.8998083E-01
          2   -1    0    0  501    0  0.00000000000E+00  0.00000000000E+00  0.17594435899E+04  0.17594435899E+04  0.00000000000E+00 0. -1.
         -1   -1    0    0    0  501 -0.00000000000E+00 -0.00000000000E+00 -0.25531170594E+03  0.25531170594E+03  0.00000000000E+00 0.  1.
         24    2    1    2    0    0 -0.34261811115E+03 -0.16685371198E+02  0.23329534082E+03  0.42209445973E+03  0.77919478843E+02 0.  0.
        254    2    1    2    0    0  0.34261811115E+03  0.16685371198E+02  0.12708365432E+04  0.15926608361E+04  0.89659213014E+03 0.  0.
         23    2    4    4    0    0  0.52716921004E+02 -0.26919903096E+03  0.38005932671E+02  0.29112207596E+03  0.89779842723E+02 0.  0.
         23    2    4    4    0    0  0.28990119015E+03  0.28588440216E+03  0.12328306105E+04  0.13015387602E+04  0.91428872032E+02 0.  0.
          4    1    3    3  502    0 -0.83155666037E+02  0.78495322909E+01  0.21450043900E+02  0.86235632627E+02  0.00000000000E+00 0. -1.
         -3    1    3    3    0  502 -0.25946244512E+03 -0.24534903489E+02  0.21184529692E+03  0.33585882711E+03  0.00000000000E+00 0.  1.
         11    1    5    5    0    0  0.30179402331E+02 -0.23561327756E+02 -0.10560014841E+02  0.39717079502E+02  0.00000000000E+00 0.  1.
        -11    1    5    5    0    0  0.22537518672E+02 -0.24563770321E+03  0.48565947512E+02  0.25140499645E+03  0.00000000000E+00 0. -1.
          1    1    6    6  503    0  0.27646992462E+03  0.25604848783E+03  0.11858911967E+04  0.12443208500E+04  0.00000000000E+00 0. -1.
         -1    1    6    6    0  503  0.13431265534E+02  0.29835914331E+02  0.46939413759E+02  0.57217910149E+02  0.00000000000E+00 0.  1.
<mgrwt>
<rscale>  0 0.13404575E+04</rscale>
<asrwt>0</asrwt>
<pdfrwt beam="1">  1        2 0.27068362E+00 0.13404575E+04</pdfrwt>
<pdfrwt beam="2">  1       -1 0.39278725E-01 0.13404575E+04</pdfrwt>
<totfact> 0.63728771E+01</totfact>
</mgrwt>
</event>
<event>
12    6  0.1462228E-007  0.1925720E+04  0.7818608E-02  0.8642159E-01
          2   -1    0    0  501    0  0.00000000000E+00  0.00000000000E+00  0.49356623926E+03  0.49356623926E+03  0.00000000000E+00 0. -1.
         -1   -1    0    0    0  501 -0.00000000000E+00 -0.00000000000E+00 -0.18783683354E+04  0.18783683354E+04  0.00000000000E+00 0.  1.
         24    2    1    2    0    0  0.34469623224E+02  0.67271169608E+03 -0.94624761688E+03  0.11641149674E+04  0.77781256226E+02 0.  0.
        254    2    1    2    0    0 -0.34469623224E+02 -0.67271169608E+03 -0.43855447923E+03  0.12078196073E+04  0.90153701614E+03 0.  0.
         23    2    4    4    0    0 -0.34426814071E+03 -0.57389734876E+03 -0.52813075632E+03  0.85740825300E+03  0.91367920605E+02 0.  0.
         23    2    4    4    0    0  0.30979851748E+03 -0.98814347317E+02  0.89576277089E+02  0.35041135426E+03  0.94999005843E+02 0.  0.
          2    1    3    3  502    0  0.49346805877E+01  0.26168236122E+02 -0.68939291633E+02  0.73903677751E+02  0.00000000000E+00 0. -1.
         -1    1    3    3    0  502  0.29534942637E+02  0.64654345996E+03 -0.87730832525E+03  0.10902112896E+04  0.00000000000E+00 0.  1.
         11    1    5    5    0    0 -0.30943134591E+02 -0.66042232083E+02 -0.25700165014E+02  0.77327566097E+02  0.00000000000E+00 0. -1.
        -11    1    5    5    0    0 -0.31332500611E+03 -0.50785511668E+03 -0.50243059131E+03  0.78008068690E+03  0.00000000000E+00 0.  1.
          3    1    6    6  503    0  0.27941083951E+03 -0.66518599155E+02  0.51159306690E+02  0.29174032277E+03  0.00000000000E+00 0. -1.
         -3    1    6    6    0  503  0.30387677969E+02 -0.32295748162E+02  0.38416970399E+02  0.58671031492E+02  0.00000000000E+00 0.  1.
<mgrwt>
<rscale>  0 0.19257198E+04</rscale>
<asrwt>0</asrwt>
<pdfrwt beam="1">  1        2 0.75933267E-01 0.19257198E+04</pdfrwt>
<pdfrwt beam="2">  1       -1 0.28897975E+00 0.19257198E+04</pdfrwt>
<totfact> 0.26003964E+00</totfact>
</mgrwt>
</event>
<event>
12    6  0.1462228E-007  0.1625308E+04  0.7818608E-02  0.8805149E-01
          2   -1    0    0  501    0  0.00000000000E+00  0.00000000000E+00  0.22960601607E+04  0.22960601607E+04  0.00000000000E+00 0. -1.
         -1   -1    0    0    0  501 -0.00000000000E+00 -0.00000000000E+00 -0.28762605077E+03  0.28762605077E+03  0.00000000000E+00 0.  1.
         24    2    1    2    0    0  0.25287061277E+03 -0.31546121980E+03  0.70544734532E+02  0.41850681469E+03  0.81927201680E+02 0.  0.
        254    2    1    2    0    0 -0.25287061277E+03  0.31546121980E+03  0.19378893754E+04  0.21651793968E+04  0.87699900851E+03 0.  0.
         23    2    4    4    0    0 -0.45090905482E+03  0.49880472813E+03  0.12780292237E+04  0.14467622358E+04  0.87390720007E+02 0.  0.
         23    2    4    4    0    0  0.19803844205E+03 -0.18334350833E+03  0.65986015173E+03  0.71841716094E+03  0.88734044908E+02 0.  0.
          2    1    3    3  502    0  0.50929403490E+02 -0.52022661494E+02 -0.17942861582E+02  0.74980715724E+02  0.00000000000E+00 0. -1.
         -1    1    3    3    0  502  0.20194120928E+03 -0.26343855831E+03  0.88487596114E+02  0.34352609897E+03  0.00000000000E+00 0.  1.
         11    1    5    5    0    0 -0.35575569797E+02  0.73695447647E+02  0.19283864401E+03  0.20948360984E+03  0.00000000000E+00 0. -1.
        -11    1    5    5    0    0 -0.41533348502E+03  0.42510928048E+03  0.10851905797E+04  0.12372786260E+04  0.00000000000E+00 0.  1.
          1    1    6    6  503    0  0.21822862473E+02 -0.59944432976E+02  0.99635783559E+02  0.11830833334E+03  0.00000000000E+00 0. -1.
         -1    1    6    6    0  503  0.17621557958E+03 -0.12339907535E+03  0.56022436817E+03  0.60010882761E+03  0.00000000000E+00 0.  1.
<mgrwt>
<rscale>  0 0.16253082E+04</rscale>
<asrwt>0</asrwt>
<pdfrwt beam="1">  1        2 0.35324001E+00 0.16253082E+04</pdfrwt>
<pdfrwt beam="2">  1       -1 0.44250163E-01 0.16253082E+04</pdfrwt>
<totfact> 0.25127355E+01</totfact>
</mgrwt>
</event>
<event>
12    6  0.1462228E-007  0.3033948E+04  0.7818608E-02  0.8234103E-01
          2   -1    0    0  501    0  0.00000000000E+00  0.00000000000E+00  0.29170518214E+04  0.29170518214E+04  0.00000000000E+00 0. -1.
         -1   -1    0    0    0  501 -0.00000000000E+00 -0.00000000000E+00 -0.78888231127E+03  0.78888231127E+03  0.00000000000E+00 0.  1.
         24    2    1    2    0    0 -0.11169062637E+04  0.12371291935E+03  0.19702999606E+04  0.22696306251E+04  0.79729236954E+02 0.  0.
        254    2    1    2    0    0  0.11169062637E+04 -0.12371291935E+03  0.15786954952E+03  0.14363035076E+04  0.88048877506E+03 0.  0.
         23    2    4    4    0    0  0.86231816492E+03  0.28629015843E+03 -0.20647030643E+02  0.91336425603E+03  0.90847630430E+02 0.  0.
         23    2    4    4    0    0  0.25458809877E+03 -0.41000307777E+03  0.17851658016E+03  0.52293925157E+03  0.93164733781E+02 0.  0.
          2    1    3    3  502    0 -0.20164691435E+02 -0.68343126424E+01  0.50236445721E+02  0.54562103044E+02  0.00000000000E+00 0. -1.
         -1    1    3    3    0  502 -0.10967415723E+04  0.13054723199E+03  0.19200635149E+04  0.22150685221E+04  0.00000000000E+00 0.  1.
         11    1    5    5    0    0  0.23785569742E+03  0.98900204190E+02 -0.42220377491E+02  0.26103475527E+03  0.00000000000E+00 0.  1.
        -11    1    5    5    0    0  0.62446246751E+03  0.18738995424E+03  0.21573346848E+02  0.65232950077E+03  0.00000000000E+00 0. -1.
          2    1    6    6  503    0  0.25878675502E+03 -0.39729010460E+03  0.16066061586E+03  0.50062145907E+03  0.00000000000E+00 0. -1.
         -2    1    6    6    0  503 -0.41986562496E+01 -0.12712973170E+02  0.17855964299E+02  0.22317792502E+02  0.00000000000E+00 0.  1.
<mgrwt>
<rscale>  0 0.30339483E+04</rscale>
<asrwt>0</asrwt>
<pdfrwt beam="1">  1        2 0.44877720E+00 0.30339483E+04</pdfrwt>
<pdfrwt beam="2">  1       -1 0.12136651E+00 0.30339483E+04</pdfrwt>
<totfact> 0.11444676E+00</totfact>
</mgrwt>
</event>
<event>
12    6  0.1462228E-007  0.1720412E+04  0.7818608E-02  0.8749808E-01
          2   -1    0    0  501    0  0.00000000000E+00  0.00000000000E+00  0.20460721855E+04  0.20460721855E+04  0.00000000000E+00 0. -1.
         -1   -1    0    0    0  501 -0.00000000000E+00 -0.00000000000E+00 -0.36164617087E+03  0.36164617087E+03  0.00000000000E+00 0.  1.
         24    2    1    2    0    0  0.66613390893E+02 -0.62092349033E+03  0.61066427331E+03  0.87694677276E+03  0.78367485972E+02 0.  0.
        254    2    1    2    0    0 -0.66613390893E+02  0.62092349033E+03  0.10737617414E+04  0.15307715837E+04  0.89460272716E+03 0.  0.
         23    2    4    4    0    0 -0.24726327267E+01  0.11516646335E+02  0.87437933407E+03  0.87934527261E+03  0.92575059061E+02 0.  0.
         23    2    4    4    0    0 -0.64140758166E+02  0.60940684400E+03  0.19938240729E+03  0.65142631105E+03  0.95457613733E+02 0.  0.
          2    1    3    3  502    0  0.82762046815E+01 -0.38335341703E+02  0.15817214752E+02  0.42288039325E+02  0.00000000000E+00 0. -1.
         -1    1    3    3    0  502  0.58337186211E+02 -0.58258814863E+03  0.59484705856E+03  0.83465873343E+03  0.00000000000E+00 0.  1.
         11    1    5    5    0    0 -0.12167724067E+02 -0.27980430001E+02  0.11824939491E+03  0.12212238684E+03  0.00000000000E+00 0.  1.
        -11    1    5    5    0    0  0.96950913404E+01  0.39497076336E+02  0.75612993916E+03  0.75722288576E+03  0.00000000000E+00 0. -1.
          3    1    6    6  503    0 -0.34226141049E+02  0.39293271753E+03  0.17513095448E+03  0.43155347345E+03  0.00000000000E+00 0. -1.
         -3    1    6    6    0  503 -0.29914617117E+02  0.21647412647E+03  0.24251452818E+02  0.21987283760E+03  0.00000000000E+00 0.  1.
<mgrwt>
<rscale>  0 0.17204118E+04</rscale>
<asrwt>0</asrwt>
<pdfrwt beam="1">  1        2 0.31478033E+00 0.17204118E+04</pdfrwt>
<pdfrwt beam="2">  1       -1 0.55637873E-01 0.17204118E+04</pdfrwt>
<totfact> 0.22264874E+01</totfact>
</mgrwt>
</event>
<event>
12    6  0.1462228E-007  0.2680453E+04  0.7818608E-02  0.8341375E-01
          2   -1    0    0  501    0  0.00000000000E+00  0.00000000000E+00  0.11466400326E+04  0.11466400326E+04  0.00000000000E+00 0. -1.
         -1   -1    0    0    0  501 -0.00000000000E+00 -0.00000000000E+00 -0.15664960334E+04  0.15664960334E+04  0.00000000000E+00 0.  1.
         24    2    1    2    0    0 -0.11608843555E+03 -0.28490721067E+03 -0.13300916481E+04  0.13675098541E+04  0.79314343249E+02 0.  0.
        254    2    1    2    0    0  0.11608843555E+03  0.28490721067E+03  0.91023564735E+03  0.13456262120E+04  0.94208934028E+03 0.  0.
         23    2    4    4    0    0 -0.15256681469E+03  0.53867752136E+03  0.72968410507E+03  0.92414940841E+03  0.90350046609E+02 0.  0.
         23    2    4    4    0    0  0.26865525025E+03 -0.25377031068E+03  0.18055154228E+03  0.42147680355E+03  0.92026205193E+02 0.  0.
          4    1    3    3  502    0 -0.29293995704E+02 -0.16928737344E+02 -0.19997917607E+03  0.20282108173E+03  0.00000000000E+00 0. -1.
         -3    1    3    3    0  502 -0.86794439851E+02 -0.26797847333E+03 -0.11301124721E+04  0.11646887724E+04  0.00000000000E+00 0.  1.
         11    1    5    5    0    0 -0.66109389031E+02  0.38093051815E+03  0.47793370022E+03  0.61473501021E+03  0.00000000000E+00 0. -1.
        -11    1    5    5    0    0 -0.86457425662E+02  0.15774700321E+03  0.25175040485E+03  0.30941439820E+03  0.00000000000E+00 0.  1.
          2    1    6    6  503    0  0.21126195906E+03 -0.22923669823E+03  0.17806540546E+03  0.35901026139E+03  0.00000000000E+00 0. -1.
         -2    1    6    6    0  503  0.57393291193E+02 -0.24533612456E+02  0.24861368226E+01  0.62466542167E+02  0.00000000000E+00 0.  1.
<mgrwt>
<rscale>  0 0.26804530E+04</rscale>
<asrwt>0</asrwt>
<pdfrwt beam="1">  1        2 0.17640616E+00 0.26804530E+04</pdfrwt>
<pdfrwt beam="2">  1       -1 0.24099939E+00 0.26804530E+04</pdfrwt>
<totfact> 0.16311294E+00</totfact>
</mgrwt>
</event>
<event>
12    6  0.1462228E-007  0.2090188E+04  0.7818608E-02  0.8565578E-01
          2   -1    0    0  501    0  0.00000000000E+00  0.00000000000E+00  0.69215405593E+03  0.69215405593E+03  0.00000000000E+00 0. -1.
         -1   -1    0    0    0  501 -0.00000000000E+00 -0.00000000000E+00 -0.15780039326E+04  0.15780039326E+04  0.00000000000E+00 0.  1.
         24    2    1    2    0    0  0.58227000011E+03 -0.10044444121E+03 -0.10267880009E+04  0.11879504825E+04  0.88347673734E+02 0.  0.
        254    2    1    2    0    0 -0.58227000011E+03  0.10044444121E+03  0.14093812423E+03  0.10822075060E+04  0.89564618700E+03 0.  0.
         23    2    4    4    0    0 -0.36670199150E+03 -0.31056339255E+02 -0.35390911439E+03  0.51881719186E+03  0.92112814201E+02 0.  0.
         23    2    4    4    0    0 -0.21556800860E+03  0.13150078046E+03  0.49484723862E+03  0.56339031409E+03  0.93663412528E+02 0.  0.
          4    1    3    3  502    0  0.17910403905E+03  0.41551035559E+01 -0.26807334946E+03  0.32242649144E+03  0.00000000000E+00 0. -1.
         -3    1    3    3    0  502  0.40316596106E+03 -0.10459954476E+03 -0.75871465140E+03  0.86552399110E+03  0.00000000000E+00 0.  1.
         11    1    5    5    0    0 -0.21938524600E+03  0.26555001013E+02 -0.21453320633E+03  0.30799277729E+03  0.00000000000E+00 0.  1.
        -11    1    5    5    0    0 -0.14731674550E+03 -0.57611340268E+02 -0.13937590806E+03  0.21082441458E+03  0.00000000000E+00 0. -1.
          2    1    6    6  503    0 -0.74833981546E+02  0.27573888278E+02  0.79070012148E+02  0.11230543589E+03  0.00000000000E+00 0. -1.
         -2    1    6    6    0  503 -0.14073402706E+03  0.10392689219E+03  0.41577722648E+03  0.45108487821E+03  0.00000000000E+00 0.  1.
<mgrwt>
<rscale>  0 0.20901883E+04</rscale>
<asrwt>0</asrwt>
<pdfrwt beam="1">  1        2 0.10648524E+00 0.20901883E+04</pdfrwt>
<pdfrwt beam="2">  1       -1 0.24276983E+00 0.20901883E+04</pdfrwt>
<totfact> 0.34016363E+00</totfact>
</mgrwt>
</event>
<event>
12    6  0.1462228E-007  0.2137704E+04  0.7818608E-02  0.8544814E-01
          4   -1    0    0  501    0  0.00000000000E+00  0.00000000000E+00  0.81137886448E+03  0.81137886448E+03  0.00000000000E+00 0. -1.
         -3   -1    0    0    0  501 -0.00000000000E+00 -0.00000000000E+00 -0.14080286334E+04  0.14080286334E+04  0.00000000000E+00 0.  1.
         24    2    1    2    0    0 -0.43409055816E+03  0.11705571335E+03 -0.10278868977E+04  0.11245767562E+04  0.77361187535E+02 0.  0.
        254    2    1    2    0    0  0.43409055816E+03 -0.11705571335E+03  0.43123712884E+03  0.10948307417E+04  0.90030674709E+03 0.  0.
         23    2    4    4    0    0  0.15462058359E+03  0.38068082895E+03  0.24462709800E+03  0.48683655408E+03  0.91334522038E+02 0.  0.
         23    2    4    4    0    0  0.27946997457E+03 -0.49773654230E+03  0.18661003084E+03  0.60799418757E+03  0.94807680534E+02 0.  0.
          4    1    3    3  502    0 -0.68004433815E+02 -0.59832541363E+01 -0.19216759928E+03  0.20393329439E+03  0.00000000000E+00 0. -1.
         -3    1    3    3    0  502 -0.36608612435E+03  0.12303896748E+03 -0.83571929843E+03  0.92064346179E+03  0.00000000000E+00 0.  1.
         11    1    5    5    0    0  0.15056735304E+03  0.34572263228E+03  0.19101886009E+03  0.42270896747E+03  0.00000000000E+00 0.  1.
        -11    1    5    5    0    0  0.40532305529E+01  0.34958196662E+02  0.53608237913E+02  0.64127586606E+02  0.00000000000E+00 0. -1.
          3    1    6    6  503    0  0.91512689827E+02 -0.10939872768E+03  0.13999760964E+02  0.14331310939E+03  0.00000000000E+00 0. -1.
         -3    1    6    6    0  503  0.18795728475E+03 -0.38833781462E+03  0.17261026988E+03  0.46468107818E+03  0.00000000000E+00 0.  1.
<mgrwt>
<rscale>  0 0.21377041E+04</rscale>
<asrwt>0</asrwt>
<pdfrwt beam="1">  1        4 0.12482752E+00 0.21377041E+04</pdfrwt>
<pdfrwt beam="2">  1       -3 0.21661979E+00 0.21377041E+04</pdfrwt>
<totfact> 0.11623484E-01</totfact>
</mgrwt>
</event>
<event>
12    6  0.1462228E-007  0.2812626E+04  0.7818608E-02  0.8299359E-01
         -1   -1    0    0    0  501 -0.00000000000E+00  0.00000000000E+00  0.57726360040E+03  0.57726360040E+03  0.00000000000E+00 0.  1.
          2   -1    0    0  501    0  0.00000000000E+00 -0.00000000000E+00 -0.34260181505E+04  0.34260181505E+04  0.00000000000E+00 0. -1.
         24    2    1    2    0    0 -0.39914652476E+03 -0.79744061207E+03 -0.25497040276E+04  0.27023658815E+04  0.81001547625E+02 0.  0.
        254    2    1    2    0    0  0.39914652476E+03  0.79744061207E+03 -0.29905052244E+03  0.13009158694E+04  0.89873322311E+03 0.  0.
         23    2    4    4    0    0  0.15046444541E+03  0.88424465625E+03 -0.13183879279E+02  0.90164741828E+03  0.90918044322E+02 0.  0.
         23    2    4    4    0    0  0.24868207935E+03 -0.86804044179E+02 -0.28586664316E+03  0.39926845113E+03  0.91202191459E+02 0.  0.
          4    1    3    3  502    0 -0.26261352920E+03 -0.55300316407E+03 -0.16392616388E+04  0.17498448747E+04  0.00000000000E+00 0. -1.
         -3    1    3    3    0  502 -0.13653299556E+03 -0.24443744800E+03 -0.91044238885E+03  0.95252100674E+03  0.00000000000E+00 0.  1.
         11    1    5    5    0    0  0.62907247913E+02  0.48484342945E+03  0.33781855680E+02  0.49007314423E+03  0.00000000000E+00 0.  1.
        -11    1    5    5    0    0  0.87557197497E+02  0.39940122680E+03 -0.46965734959E+02  0.41157427405E+03  0.00000000000E+00 0. -1.
          4    1    6    6  503    0  0.77247765966E+02 -0.71529168021E+02 -0.12785700244E+03  0.16562322391E+03  0.00000000000E+00 0. -1.
         -4    1    6    6    0  503  0.17143431338E+03 -0.15274876158E+02 -0.15800964071E+03  0.23364522722E+03  0.00000000000E+00 0.  1.
<mgrwt>
<rscale>  0 0.28126255E+04</rscale>
<asrwt>0</asrwt>
<pdfrwt beam="1">  1        2 0.52707971E+00 0.28126255E+04</pdfrwt>
<pdfrwt beam="2">  1       -1 0.88809785E-01 0.28126255E+04</pdfrwt>
<totfact> 0.11241475E+00</totfact>
</mgrwt>
</event>
<event>
12    6  0.2059836E-007  0.1508805E+04  0.7818608E-02  0.8878619E-01
          2   -1    0    0  501    0  0.00000000000E+00  0.00000000000E+00  0.16782823096E+04  0.16782823096E+04  0.00000000000E+00 0. -1.
         -1   -1    0    0    0  501 -0.00000000000E+00 -0.00000000000E+00 -0.33911062927E+03  0.33911062927E+03  0.00000000000E+00 0.  1.
         24    2    1    2    0    0  0.93583317984E+02 -0.13578101081E+03  0.10333810688E+04  0.10494886938E+04  0.79723050688E+02 0.  0.
        254    2    1    2    0    0 -0.93583317984E+02  0.13578101081E+03  0.30579061147E+03  0.96790424499E+03  0.90340268381E+03 0.  0.
         23    2    4    4    0    0 -0.11822968582E+02  0.38525875098E+02  0.61401025345E+03  0.62193813046E+03  0.90412505399E+02 0.  0.
         23    2    4    4    0    0 -0.81760349401E+02  0.97255135709E+02 -0.30821964198E+03  0.34596611454E+03  0.92465607395E+02 0.  0.
          2    1    3    3  502    0  0.59044906151E+02 -0.10950323568E+03  0.91470321093E+03  0.92312470644E+03  0.00000000000E+00 0. -1.
         -1    1    3    3    0  502  0.34538411833E+02 -0.26277775127E+02  0.11867785788E+03  0.12636398739E+03  0.00000000000E+00 0.  1.
         11    1    5    5    0    0  0.25041231093E+02  0.39987118026E+01  0.54033384063E+02  0.59688018429E+02  0.00000000000E+00 0.  1.
        -11    1    5    5    0    0 -0.36864199675E+02  0.34527163296E+02  0.55997686939E+03  0.56225011203E+03  0.00000000000E+00 0. -1.
          3    1    6    6  503    0 -0.47948250125E+02  0.77319516433E+02 -0.28756069551E+03  0.30160984054E+03  0.00000000000E+00 0. -1.
         -3    1    6    6    0  503 -0.33812099276E+02  0.19935619276E+02 -0.20658946470E+02  0.44356273994E+02  0.00000000000E+00 0.  1.
<mgrwt>
<rscale>  0 0.15088053E+04</rscale>
<asrwt>0</asrwt>
<pdfrwt beam="1">  1        2 0.25819727E+00 0.15088053E+04</pdfrwt>
<pdfrwt beam="2">  1       -1 0.52170867E-01 0.15088053E+04</pdfrwt>
<totfact> 0.41042054E+01</totfact>
</mgrwt>
</event>
<event>
12    6  0.1462228E-007  0.1854948E+04  0.7818608E-02  0.8677612E-01
         -1   -1    0    0    0  501 -0.00000000000E+00  0.00000000000E+00  0.18208032039E+03  0.18208032039E+03  0.00000000000E+00 0.  1.
          2   -1    0    0  501    0  0.00000000000E+00 -0.00000000000E+00 -0.47243348030E+04  0.47243348030E+04  0.00000000000E+00 0. -1.
         24    2    1    2    0    0 -0.50767512080E+03  0.13097386677E+03 -0.29572950229E+04  0.30044756656E+04  0.79949923751E+02 0.  0.
        254    2    1    2    0    0  0.50767512080E+03 -0.13097386677E+03 -0.15849594597E+04  0.19019394578E+04  0.91125684102E+03 0.  0.
         23    2    4    4    0    0  0.52246135958E+03  0.12901697173E+03 -0.37483431911E+03  0.66080992216E+03  0.80979844374E+02 0.  0.
         23    2    4    4    0    0 -0.14786238781E+02 -0.25999083850E+03 -0.12101251406E+04  0.12411295357E+04  0.90475408071E+02 0.  0.
          4    1    3    3  502    0 -0.28084498128E+03  0.10598900954E+03 -0.18069721195E+04  0.18317357381E+04  0.00000000000E+00 0. -1.
         -3    1    3    3    0  502 -0.22683013951E+03  0.24984857230E+02 -0.11503229035E+04  0.11727399275E+04  0.00000000000E+00 0.  1.
         11    1    5    5    0    0  0.40430317482E+03  0.68502861051E+02 -0.30302162350E+03  0.50987822414E+03  0.00000000000E+00 0.  1.
        -11    1    5    5    0    0  0.11815818475E+03  0.60514110680E+02 -0.71812695607E+02  0.15093169802E+03  0.00000000000E+00 0. -1.
          3    1    6    6  503    0  0.35965248736E+02 -0.68133627671E+02 -0.31859471872E+03  0.32777779841E+03  0.00000000000E+00 0. -1.
         -3    1    6    6    0  503 -0.50751487517E+02 -0.19185721083E+03 -0.89153042186E+03  0.91335173725E+03  0.00000000000E+00 0.  1.
<mgrwt>
<rscale>  0 0.18549484E+04</rscale>
<asrwt>0</asrwt>
<pdfrwt beam="1">  1        2 0.72682077E+00 0.18549484E+04</pdfrwt>
<pdfrwt beam="2">  1       -1 0.28012356E-01 0.18549484E+04</pdfrwt>
<totfact> 0.91157682E-01</totfact>
</mgrwt>
</event>
<event>
12    6  0.1462228E-007  0.2403487E+04  0.7818608E-02  0.8438199E-01
         -1   -1    0    0    0  501 -0.00000000000E+00  0.00000000000E+00  0.58454381087E+03  0.58454381087E+03  0.00000000000E+00 0.  1.
          2   -1    0    0  501    0  0.00000000000E+00 -0.00000000000E+00 -0.24706236477E+04  0.24706236477E+04  0.00000000000E+00 0. -1.
         24    2    1    2    0    0  0.30190685996E+03 -0.88510116701E+03 -0.13624065018E+04  0.16545611386E+04  0.82880981770E+02 0.  0.
        254    2    1    2    0    0 -0.30190685996E+03  0.88510116701E+03 -0.52367333494E+03  0.14006063199E+04  0.90161658911E+03 0.  0.
         23    2    4    4    0    0  0.17286741330E+03  0.72479221287E+03 -0.47521464797E+03  0.88849042688E+03  0.91538967639E+02 0.  0.
         23    2    4    4    0    0 -0.47477427326E+03  0.16030895414E+03 -0.48458686972E+02  0.51211589305E+03  0.93834280757E+02 0.  0.
          4    1    3    3  502    0  0.21731210535E+03 -0.54327044545E+03 -0.89637861385E+03  0.10704494138E+04  0.00000000000E+00 0. -1.
         -3    1    3    3    0  502  0.84594754614E+02 -0.34183072156E+03 -0.46602788799E+03  0.58411172484E+03  0.00000000000E+00 0.  1.
         11    1    5    5    0    0  0.12269977095E+03  0.52440703605E+03 -0.39041185927E+03  0.66519124552E+03  0.00000000000E+00 0.  1.
        -11    1    5    5    0    0  0.50167642349E+02  0.20038517682E+03 -0.84802788701E+02  0.22329918137E+03  0.00000000000E+00 0. -1.
          1    1    6    6  503    0 -0.26940358282E+03  0.79236687379E+02 -0.72485553230E+02  0.29001878989E+03  0.00000000000E+00 0. -1.
         -1    1    6    6    0  503 -0.20537069044E+03  0.81072266760E+02  0.24026866258E+02  0.22209710316E+03  0.00000000000E+00 0.  1.
<mgrwt>
<rscale>  0 0.24034873E+04</rscale>
<asrwt>0</asrwt>
<pdfrwt beam="1">  1        2 0.38009593E+00 0.24034873E+04</pdfrwt>
<pdfrwt beam="2">  1       -1 0.89929821E-01 0.24034873E+04</pdfrwt>
<totfact> 0.44791844E+00</totfact>
</mgrwt>
</event>
<event>
12    6  0.1462228E-007  0.1195290E+04  0.7818608E-02  0.9116989E-01
         -1   -1    0    0    0  501 -0.00000000000E+00  0.00000000000E+00  0.13322853372E+03  0.13322853372E+03  0.00000000000E+00 0.  1.
          2   -1    0    0  501    0  0.00000000000E+00 -0.00000000000E+00 -0.26809534930E+04  0.26809534930E+04  0.00000000000E+00 0. -1.
         24    2    1    2    0    0  0.73969128083E+02 -0.23652047274E+03 -0.59550929888E+03  0.65002690035E+03  0.80562275193E+02 0.  0.
        254    2    1    2    0    0 -0.73969128083E+02  0.23652047274E+03 -0.19522156604E+04  0.21641551264E+04  0.90055985940E+03 0.  0.
         23    2    4    4    0    0  0.35400991794E+03  0.18773077029E+03 -0.50310069608E+03  0.64956638748E+03  0.90886287341E+02 0.  0.
         23    2    4    4    0    0 -0.42797904603E+03  0.48789702453E+02 -0.14491149644E+04  0.15145887389E+04  0.92186600252E+02 0.  0.
          4    1    3    3  502    0  0.19007272909E+02 -0.36082983157E+02 -0.40921652943E+02  0.57774040680E+02  0.00000000000E+00 0. -1.
         -3    1    3    3    0  502  0.54961855174E+02 -0.20043748958E+03 -0.55458764594E+03  0.59225285967E+03  0.00000000000E+00 0.  1.
         11    1    5    5    0    0  0.14605466653E+03  0.28741734984E+02 -0.17135879857E+03  0.22698434041E+03  0.00000000000E+00 0. -1.
        -11    1    5    5    0    0  0.20795525142E+03  0.15898903530E+03 -0.33174189751E+03  0.42258204707E+03  0.00000000000E+00 0.  1.
          2    1    6    6  503    0 -0.40405639854E+03  0.61147454795E+02 -0.14017643095E+04  0.14601177226E+04  0.00000000000E+00 0. -1.
         -2    1    6    6    0  503 -0.23922647486E+02 -0.12357752342E+02 -0.47350654842E+02  0.54471016327E+02  0.00000000000E+00 0.  1.
<mgrwt>
<rscale>  0 0.11952899E+04</rscale>
<asrwt>0</asrwt>
<pdfrwt beam="1">  1        2 0.41245440E+00 0.11952899E+04</pdfrwt>
<pdfrwt beam="2">  1       -1 0.20496697E-01 0.11952899E+04</pdfrwt>
<totfact> 0.60704175E+01</totfact>
</mgrwt>
</event>
<event>
12    6  0.1462228E-007  0.1412863E+04  0.7818608E-02  0.8944560E-01
         -1   -1    0    0    0  501 -0.00000000000E+00  0.00000000000E+00  0.22564973272E+03  0.22564973272E+03  0.00000000000E+00 0.  1.
          2   -1    0    0  501    0  0.00000000000E+00 -0.00000000000E+00 -0.22115943228E+04  0.22115943228E+04  0.00000000000E+00 0. -1.
         24    2    1    2    0    0  0.19271157360E+03 -0.14108732728E+03 -0.66055289897E+01  0.25152259531E+03  0.78591338091E+02 0.  0.
        254    2    1    2    0    0 -0.19271157360E+03  0.14108732728E+03 -0.19793390611E+04  0.21857214602E+04  0.89585255388E+03 0.  0.
         23    2    4    4    0    0  0.54330800387E+02 -0.18990613751E+03 -0.16088037044E+04  0.16234066273E+04  0.90462926974E+02 0.  0.
         23    2    4    4    0    0 -0.24704237398E+03  0.33099346480E+03 -0.37053535667E+03  0.56231483293E+03  0.91186142114E+02 0.  0.
          2    1    3    3  502    0 -0.74457120490E+01 -0.28995061786E+01  0.16404343547E+01  0.81570085736E+01  0.00000000000E+00 0. -1.
         -1    1    3    3    0  502  0.20015728564E+03 -0.13818782110E+03 -0.82459633444E+01  0.24336558674E+03  0.00000000000E+00 0.  1.
         11    1    5    5    0    0  0.66253220797E+02 -0.18981286468E+03 -0.15697979675E+04  0.15826193704E+04  0.00000000000E+00 0. -1.
        -11    1    5    5    0    0 -0.11922420410E+02 -0.93272830734E-01 -0.39005736945E+02  0.40787256868E+02  0.00000000000E+00 0.  1.
          4    1    6    6  503    0 -0.12692541423E+03  0.10811870781E+03 -0.18068170469E+03  0.24585685706E+03  0.00000000000E+00 0. -1.
         -4    1    6    6    0  503 -0.12011695975E+03  0.22287475698E+03 -0.18985365199E+03  0.31645797587E+03  0.00000000000E+00 0.  1.
<mgrwt>
<rscale>  0 0.14128633E+04</rscale>
<asrwt>0</asrwt>
<pdfrwt beam="1">  1        2 0.34024529E+00 0.14128633E+04</pdfrwt>
<pdfrwt beam="2">  1       -1 0.34715343E-01 0.14128633E+04</pdfrwt>
<totfact> 0.44432213E+01</totfact>
</mgrwt>
</event>
<event>
12    6  0.1462228E-007  0.1632746E+04  0.7818608E-02  0.8800680E-01
          2   -1    0    0  501    0  0.00000000000E+00  0.00000000000E+00  0.16821731926E+04  0.16821731926E+04  0.00000000000E+00 0. -1.
         -1   -1    0    0    0  501 -0.00000000000E+00 -0.00000000000E+00 -0.39619286094E+03  0.39619286094E+03  0.00000000000E+00 0.  1.
         24    2    1    2    0    0  0.30000230328E+03  0.25555190677E+03  0.95995607358E+03  0.10402779318E+04  0.73173446112E+02 0.  0.
        254    2    1    2    0    0 -0.30000230328E+03 -0.25555190677E+03  0.32602425806E+03  0.10380881217E+04  0.90334211269E+03 0.  0.
         23    2    4    4    0    0 -0.55378487441E+03 -0.30241385244E+03  0.34645268415E+02  0.63812721282E+03  0.88736800901E+02 0.  0.
         23    2    4    4    0    0  0.25378257114E+03  0.46861945676E+02  0.29137898965E+03  0.39996090889E+03  0.92007487009E+02 0.  0.
          2    1    3    3  502    0  0.12696545541E+03  0.10158055958E+03  0.30605878196E+03  0.34657007223E+03  0.00000000000E+00 0. -1.
         -1    1    3    3    0  502  0.17303684787E+03  0.15397134719E+03  0.65389729162E+03  0.69370785959E+03  0.00000000000E+00 0.  1.
         11    1    5    5    0    0 -0.59081359030E+02 -0.47828147560E+02  0.30055286820E+02  0.81740191764E+02  0.00000000000E+00 0.  1.
        -11    1    5    5    0    0 -0.49470351538E+03 -0.25458570488E+03  0.45899815957E+01  0.55638702105E+03  0.00000000000E+00 0. -1.
          1    1    6    6  503    0  0.13743039479E+03 -0.37214298222E+01  0.98615875700E+02  0.16919235618E+03  0.00000000000E+00 0. -1.
         -1    1    6    6    0  503  0.11635217635E+03  0.50583375499E+02  0.19276311395E+03  0.23076855270E+03  0.00000000000E+00 0.  1.
<mgrwt>
<rscale>  0 0.16327462E+04</rscale>
<asrwt>0</asrwt>
<pdfrwt beam="1">  1        2 0.25879587E+00 0.16327462E+04</pdfrwt>
<pdfrwt beam="2">  1       -1 0.60952749E-01 0.16327462E+04</pdfrwt>
<totfact> 0.29845184E+01</totfact>
</mgrwt>
</event>
<event>
12    6  0.1462228E-007  0.2261125E+04  0.7818608E-02  0.8493409E-01
          2   -1    0    0  501    0  0.00000000000E+00  0.00000000000E+00  0.24461086697E+04  0.24461086697E+04  0.00000000000E+00 0. -1.
         -1   -1    0    0    0  501 -0.00000000000E+00 -0.00000000000E+00 -0.52253269809E+03  0.52253269809E+03  0.00000000000E+00 0.  1.
         24    2    1    2    0    0 -0.10088917790E+03 -0.43436229698E+03  0.19122174088E+04  0.19652021091E+04  0.81207634326E+02 0.  0.
        254    2    1    2    0    0  0.10088917790E+03  0.43436229698E+03  0.11358562749E+02  0.10034392586E+04  0.89883930575E+03 0.  0.
         23    2    4    4    0    0 -0.10687887338E+03  0.28527629749E+03  0.41078369650E+03  0.51971040432E+03  0.92466207669E+02 0.  0.
         23    2    4    4    0    0  0.20776805128E+03  0.14908599949E+03 -0.39942513375E+03  0.48372885431E+03  0.95178614417E+02 0.  0.
          4    1    3    3  502    0  0.26751059510E+01 -0.41382613931E+02  0.28512125304E+03  0.28812116525E+03  0.00000000000E+00 0. -1.
         -3    1    3    3    0  502 -0.10356428385E+03 -0.39297968305E+03  0.16270961558E+04  0.16770809439E+04  0.00000000000E+00 0.  1.
         11    1    5    5    0    0 -0.95634818585E+02  0.21913229911E+03  0.37201520202E+03  0.44222199580E+03  0.00000000000E+00 0. -1.
        -11    1    5    5    0    0 -0.11244054797E+02  0.66143998376E+02  0.38768494482E+02  0.77488408513E+02  0.00000000000E+00 0.  1.
          1    1    6    6  503    0  0.10594844964E+03  0.12156724993E+03 -0.18971479315E+03  0.24898870050E+03  0.00000000000E+00 0. -1.
         -1    1    6    6    0  503  0.10181960164E+03  0.27518749563E+02 -0.20971034061E+03  0.23474015382E+03  0.00000000000E+00 0.  1.
<mgrwt>
<rscale>  0 0.22611252E+04</rscale>
<asrwt>0</asrwt>
<pdfrwt beam="1">  1        2 0.37632440E+00 0.22611252E+04</pdfrwt>
<pdfrwt beam="2">  1       -1 0.80389647E-01 0.22611252E+04</pdfrwt>
<totfact> 0.59751615E+00</totfact>
</mgrwt>
</event>
<event>
12    6  0.1462228E-007  0.2956943E+04  0.7818608E-02  0.8256134E-01
         -1   -1    0    0    0  501 -0.00000000000E+00  0.00000000000E+00  0.66284197750E+03  0.66284197750E+03  0.00000000000E+00 0.  1.
          2   -1    0    0  501    0  0.00000000000E+00 -0.00000000000E+00 -0.32977360343E+04  0.32977360343E+04  0.00000000000E+00 0. -1.
         24    2    1    2    0    0 -0.35699519003E+03 -0.34770303837E+02 -0.28829734719E+04  0.29063170896E+04  0.80550889585E+02 0.  0.
        254    2    1    2    0    0  0.35699519003E+03  0.34770303837E+02  0.24807941514E+03  0.10542609222E+04  0.95982714905E+03 0.  0.
         23    2    4    4    0    0  0.65192240032E+03 -0.13400913518E+03  0.14711391438E+03  0.68784792922E+03  0.92363442896E+02 0.  0.
         23    2    4    4    0    0 -0.29492721029E+03  0.16877943902E+03  0.10096550076E+03  0.36641299294E+03  0.92714026158E+02 0.  0.
          2    1    3    3  502    0 -0.35339013303E+03 -0.22567234112E+02 -0.28124380327E+04  0.28346431087E+04  0.00000000000E+00 0. -1.
         -1    1    3    3    0  502 -0.36050570034E+01 -0.12203069726E+02 -0.70535439258E+02  0.71673980900E+02  0.00000000000E+00 0.  1.
         11    1    5    5    0    0  0.89542830792E+02  0.11668903073E+02  0.92515964427E+01  0.90772649415E+02  0.00000000000E+00 0.  1.
        -11    1    5    5    0    0  0.56237956953E+03 -0.14567803826E+03  0.13786231794E+03  0.59707527981E+03  0.00000000000E+00 0. -1.
          2    1    6    6  503    0 -0.24631011841E+03  0.13068799937E+03  0.11733949978E+03  0.30251708351E+03  0.00000000000E+00 0. -1.
         -2    1    6    6    0  503 -0.48617091882E+02  0.38091439653E+02 -0.16373999016E+02  0.63895909428E+02  0.00000000000E+00 0.  1.
<mgrwt>
<rscale>  0 0.29569429E+04</rscale>
<asrwt>0</asrwt>
<pdfrwt beam="1">  1        2 0.50734400E+00 0.29569429E+04</pdfrwt>
<pdfrwt beam="2">  1       -1 0.10197569E+00 0.29569429E+04</pdfrwt>
<totfact> 0.99330728E-01</totfact>
</mgrwt>
</event>
<event>
12    6  0.1462228E-007  0.1626431E+04  0.7818608E-02  0.8804473E-01
          2   -1    0    0  501    0  0.00000000000E+00  0.00000000000E+00  0.29092043775E+04  0.29092043775E+04  0.00000000000E+00 0. -1.
         -1   -1    0    0    0  501 -0.00000000000E+00 -0.00000000000E+00 -0.22731958482E+03  0.22731958482E+03  0.00000000000E+00 0.  1.
         24    2    1    2    0    0 -0.40836929112E+02  0.39991768229E+03  0.18427431965E+03  0.44963646835E+03  0.81327248800E+02 0.  0.
        254    2    1    2    0    0  0.40836929112E+02 -0.39991768229E+03  0.24976104731E+04  0.26868874940E+04  0.90537534918E+03 0.  0.
         23    2    4    4    0    0 -0.19374784334E+03 -0.45733601226E+03  0.65889891126E+03  0.83010329121E+03  0.90715180153E+02 0.  0.
         23    2    4    4    0    0  0.23458477245E+03  0.57418329974E+02  0.18387115618E+04  0.18567842028E+04  0.91980911940E+02 0.  0.
          2    1    3    3  502    0  0.17406555657E+02  0.35701851329E+02  0.30244059793E+02  0.49923076036E+02  0.00000000000E+00 0. -1.
         -1    1    3    3    0  502 -0.58243484769E+02  0.36421583096E+03  0.15403025986E+03  0.39971339231E+03  0.00000000000E+00 0.  1.
         11    1    5    5    0    0 -0.57545062489E+02 -0.57895402672E+02  0.86358671426E+02  0.11883236932E+03  0.00000000000E+00 0. -1.
        -11    1    5    5    0    0 -0.13620278085E+03 -0.39944060959E+03  0.57254023984E+03  0.71127092190E+03  0.00000000000E+00 0.  1.
          4    1    6    6  503    0  0.15719006134E+02 -0.28989807344E+00  0.40591344643E+03  0.40621779526E+03  0.00000000000E+00 0. -1.
         -4    1    6    6    0  503  0.21886576631E+03  0.57708228048E+02  0.14327981154E+04  0.14505664075E+04  0.00000000000E+00 0.  1.
<mgrwt>
<rscale>  0 0.16264306E+04</rscale>
<asrwt>0</asrwt>
<pdfrwt beam="1">  1        2 0.44756988E+00 0.16264306E+04</pdfrwt>
<pdfrwt beam="2">  1       -1 0.34972246E-01 0.16264306E+04</pdfrwt>
<totfact> 0.16873448E+01</totfact>
</mgrwt>
</event>
<event>
12    6  0.1462228E-007  0.1415166E+04  0.7818608E-02  0.8942914E-01
         -1   -1    0    0    0  501 -0.00000000000E+00  0.00000000000E+00  0.85450346730E+03  0.85450346730E+03  0.00000000000E+00 0.  1.
          2   -1    0    0  501    0  0.00000000000E+00 -0.00000000000E+00 -0.58592321258E+03  0.58592321258E+03  0.00000000000E+00 0. -1.
         24    2    1    2    0    0  0.26952362621E+03 -0.24422521911E+03  0.20684621885E+03  0.42607375300E+03  0.80402375654E+02 0.  0.
        254    2    1    2    0    0 -0.26952362621E+03  0.24422521911E+03  0.61734035869E+02  0.10143529269E+04  0.94488720298E+03 0.  0.
         23    2    4    4    0    0  0.33876259972E+02 -0.33133574901E+03  0.90157143680E+02  0.35710489754E+03  0.92003357191E+02 0.  0.
         23    2    4    4    0    0 -0.30339988618E+03  0.57556096811E+03 -0.28423107811E+02  0.65724802934E+03  0.88573021060E+02 0.  0.
          4    1    3    3  502    0  0.65586095640E+02 -0.10630791904E+03  0.52488138215E+02  0.13549138070E+03  0.00000000000E+00 0. -1.
         -3    1    3    3    0  502  0.20393753057E+03 -0.13791730007E+03  0.15435808064E+03  0.29058237230E+03  0.00000000000E+00 0.  1.
         11    1    5    5    0    0 -0.14673122507E+02 -0.25045251597E+03  0.72325801040E+02  0.26109918570E+03  0.00000000000E+00 0. -1.
        -11    1    5    5    0    0  0.48549382478E+02 -0.80883233039E+02  0.17831342639E+02  0.96005711841E+02  0.00000000000E+00 0.  1.
          3    1    6    6  503    0 -0.13295385101E+03  0.31372702431E+03 -0.48541486268E+02  0.34417676879E+03  0.00000000000E+00 0. -1.
         -3    1    6    6    0  503 -0.17044603517E+03  0.26183394380E+03  0.20118378457E+02  0.31307126055E+03  0.00000000000E+00 0.  1.
<mgrwt>
<rscale>  0 0.14151656E+04</rscale>
<asrwt>0</asrwt>
<pdfrwt beam="1">  1        2 0.90142033E-01 0.14151656E+04</pdfrwt>
<pdfrwt beam="2">  1       -1 0.13146207E+00 0.14151656E+04</pdfrwt>
<totfact> 0.27964069E+01</totfact>
</mgrwt>
</event>
<event>
12    6  0.1462228E-007  0.2276121E+04  0.7818608E-02  0.8487396E-01
          2   -1    0    0  501    0  0.00000000000E+00  0.00000000000E+00  0.16211105632E+04  0.16211105632E+04  0.00000000000E+00 0. -1.
         -1   -1    0    0    0  501 -0.00000000000E+00 -0.00000000000E+00 -0.79894692907E+03  0.79894692907E+03  0.00000000000E+00 0.  1.
         24    2    1    2    0    0 -0.79365091200E+03  0.73835754645E+02 -0.21809653053E+03  0.83049108176E+03  0.82558170240E+02 0.  0.
        254    2    1    2    0    0  0.79365091200E+03 -0.73835754645E+02  0.10402601647E+04  0.15895664105E+04  0.89958138848E+03 0.  0.
         23    2    4    4    0    0  0.18197708655E+03 -0.16558121886E+03 -0.10660486286E+03  0.28337966846E+03  0.91687728974E+02 0.  0.
         23    2    4    4    0    0  0.61167382545E+03  0.91745464212E+02  0.11468650275E+04  0.13061867421E+04  0.90897276240E+02 0.  0.
          4    1    3    3  502    0 -0.89908333941E+02  0.23336987920E+02 -0.32179178858E+01  0.92943415650E+02  0.00000000000E+00 0. -1.
         -3    1    3    3    0  502 -0.70374257806E+03  0.50498766725E+02 -0.21487861264E+03  0.73754766611E+03  0.00000000000E+00 0.  1.
         11    1    5    5    0    0  0.52057719164E+02 -0.10603374859E+03 -0.33123491792E+02  0.12267977695E+03  0.00000000000E+00 0. -1.
        -11    1    5    5    0    0  0.12991936739E+03 -0.59547470270E+02 -0.73481371067E+02  0.16069989151E+03  0.00000000000E+00 0.  1.
          1    1    6    6  503    0  0.15703667146E+03  0.45236036913E+02  0.23539838802E+03  0.28656450635E+03  0.00000000000E+00 0. -1.
         -1    1    6    6    0  503  0.45463715399E+03  0.46509427299E+02  0.91146663952E+03  0.10196222357E+04  0.00000000000E+00 0.  1.
<mgrwt>
<rscale>  0 0.22761207E+04</rscale>
<asrwt>0</asrwt>
<pdfrwt beam="1">  1        2 0.24940163E+00 0.22761207E+04</pdfrwt>
<pdfrwt beam="2">  1       -1 0.12291491E+00 0.22761207E+04</pdfrwt>
<totfact> 0.65514310E+00</totfact>
</mgrwt>
</event>
<event>
12    6  0.1462228E-007  0.1030957E+04  0.7818608E-02  0.9275229E-01
          2   -1    0    0  501    0  0.00000000000E+00  0.00000000000E+00  0.17058941566E+04  0.17058941566E+04  0.00000000000E+00 0. -1.
         -1   -1    0    0    0  501 -0.00000000000E+00 -0.00000000000E+00 -0.15576461309E+03  0.15576461309E+03  0.00000000000E+00 0.  1.
         24    2    1    2    0    0  0.47970871240E+02  0.40504105859E+02  0.34781805699E+02  0.10765786152E+03  0.80241224196E+02 0.  0.
        254    2    1    2    0    0 -0.47970871240E+02 -0.40504105859E+02  0.15153477378E+04  0.17540009081E+04  0.88107810794E+03 0.  0.
         23    2    4    4    0    0 -0.36852172795E+03  0.12801478076E+03  0.12000912669E+04  0.12651000433E+04  0.89794335399E+02 0.  0.
         23    2    4    4    0    0  0.32055085671E+03 -0.16851888662E+03  0.31525647090E+03  0.48890086484E+03  0.92119196199E+02 0.  0.
          4    1    3    3  502    0  0.66857786076E+01 -0.24622532595E+01  0.46404505104E+02  0.46948273884E+02  0.00000000000E+00 0. -1.
         -3    1    3    3    0  502  0.41285092632E+02  0.42966359119E+02 -0.11622699405E+02  0.60709587637E+02  0.00000000000E+00 0.  1.
         11    1    5    5    0    0 -0.56048546655E+02  0.56081538203E+02  0.21636324289E+03  0.23043357261E+03  0.00000000000E+00 0. -1.
        -11    1    5    5    0    0 -0.31247318129E+03  0.71933242559E+02  0.98372802399E+03  0.10346664707E+04  0.00000000000E+00 0.  1.
          2    1    6    6  503    0  0.42792598713E+01 -0.33118891873E+01 -0.64836766370E+01  0.84450422005E+01  0.00000000000E+00 0. -1.
         -2    1    6    6    0  503  0.31627159684E+03 -0.16520699743E+03  0.32174014754E+03  0.48045582264E+03  0.00000000000E+00 0.  1.
<mgrwt>
<rscale>  0 0.10309567E+04</rscale>
<asrwt>0</asrwt>
<pdfrwt beam="1">  1        2 0.26244524E+00 0.10309567E+04</pdfrwt>
<pdfrwt beam="2">  1       -1 0.23963788E-01 0.10309567E+04</pdfrwt>
<totfact> 0.16651353E+02</totfact>
</mgrwt>
</event>
<event>
12    6  0.1462228E-007  0.2329268E+04  0.7818608E-02  0.8466470E-01
         -1   -1    0    0    0  501 -0.00000000000E+00  0.00000000000E+00  0.34763985482E+03  0.34763985482E+03  0.00000000000E+00 0.  1.
          2   -1    0    0  501    0  0.00000000000E+00 -0.00000000000E+00 -0.39016587445E+04  0.39016587445E+04  0.00000000000E+00 0. -1.
         24    2    1    2    0    0 -0.91695538797E+03  0.34036571483E+03 -0.12756007827E+04  0.16094027114E+04  0.79772974210E+02 0.  0.
        254    2    1    2    0    0  0.91695538797E+03 -0.34036571483E+03 -0.22784181070E+04  0.26398958879E+04  0.90620374380E+03 0.  0.
         23    2    4    4    0    0  0.62678837469E+03 -0.32627923156E+03 -0.59257676274E+03  0.92672097328E+03  0.91338595247E+02 0.  0.
         23    2    4    4    0    0  0.29016701328E+03 -0.14086483268E+02 -0.16858413443E+04  0.17131749147E+04  0.92260096677E+02 0.  0.
          4    1    3    3  502    0 -0.63481187143E+03  0.27050912104E+03 -0.92350524675E+03  0.11528327014E+04  0.00000000000E+00 0. -1.
         -3    1    3    3    0  502 -0.28214351654E+03  0.69856593792E+02 -0.35209553593E+03  0.45657001001E+03  0.00000000000E+00 0.  1.
         11    1    5    5    0    0  0.58181642944E+03 -0.32037103708E+03 -0.53165066250E+03  0.85076458901E+03  0.00000000000E+00 0. -1.
        -11    1    5    5    0    0  0.44971945246E+02 -0.59081944771E+01 -0.60926100237E+02  0.75956384270E+02  0.00000000000E+00 0.  1.
          3    1    6    6  503    0  0.28033968278E+03  0.50868382795E+01 -0.16139634732E+04  0.16381374504E+04  0.00000000000E+00 0. -1.
         -3    1    6    6    0  503  0.98273305009E+01 -0.19173321548E+02 -0.71877871142E+02  0.75037464269E+02  0.00000000000E+00 0.  1.
<mgrwt>
<rscale>  0 0.23292678E+04</rscale>
<asrwt>0</asrwt>
<pdfrwt beam="1">  1        2 0.60025515E+00 0.23292678E+04</pdfrwt>
<pdfrwt beam="2">  1       -1 0.53483058E-01 0.23292678E+04</pdfrwt>
<totfact> 0.14945009E+00</totfact>
</mgrwt>
</event>
<event>
12    6  0.1462228E-007  0.1960006E+04  0.7818608E-02  0.8625551E-01
          2   -1    0    0  501    0  0.00000000000E+00  0.00000000000E+00  0.28958543781E+04  0.28958543781E+04  0.00000000000E+00 0. -1.
         -1   -1    0    0    0  501 -0.00000000000E+00 -0.00000000000E+00 -0.33164857283E+03  0.33164857283E+03  0.00000000000E+00 0.  1.
         24    2    1    2    0    0 -0.37493710102E+02 -0.42388649761E+03 -0.43841795473E+02  0.43455901305E+03  0.76379916475E+02 0.  0.
        254    2    1    2    0    0  0.37493710102E+02  0.42388649761E+03  0.26080476008E+04  0.27929439379E+04  0.90417808605E+03 0.  0.
         23    2    4    4    0    0 -0.32535294022E+02 -0.19717439270E+03  0.18126696040E+03  0.28528435726E+03  0.92699336944E+02 0.  0.
         23    2    4    4    0    0  0.70029004124E+02  0.62106089031E+03  0.24267806403E+04  0.25076595806E+04  0.92041322779E+02 0.  0.
          2    1    3    3  502    0 -0.31918126131E+02 -0.60759778677E+02  0.93470052318E+00  0.68639574195E+02  0.00000000000E+00 0. -1.
         -1    1    3    3    0  502 -0.55755839715E+01 -0.36312671893E+03 -0.44776495996E+02  0.36591943886E+03  0.00000000000E+00 0.  1.
         11    1    5    5    0    0 -0.47691572777E+02 -0.10544322866E+03  0.14491923372E+03  0.18545712411E+03  0.00000000000E+00 0. -1.
        -11    1    5    5    0    0  0.15156278755E+02 -0.91731164045E+02  0.36347726688E+02  0.99827233149E+02  0.00000000000E+00 0.  1.
          3    1    6    6  503    0  0.18946254213E+02  0.32780467447E+03  0.14398380013E+04  0.14768034179E+04  0.00000000000E+00 0. -1.
         -3    1    6    6    0  503  0.51082749910E+02  0.29325621584E+03  0.98694263907E+03  0.10308561628E+04  0.00000000000E+00 0.  1.
<mgrwt>
<rscale>  0 0.19600061E+04</rscale>
<asrwt>0</asrwt>
<pdfrwt beam="1">  1        2 0.44551604E+00 0.19600061E+04</pdfrwt>
<pdfrwt beam="2">  1       -1 0.51022859E-01 0.19600061E+04</pdfrwt>
<totfact> 0.82972010E+00</totfact>
</mgrwt>
</event>
<event>
12    6  0.1462228E-007  0.2396057E+04  0.7818608E-02  0.8440981E-01
          2   -1    0    0  501    0  0.00000000000E+00  0.00000000000E+00  0.16618847218E+04  0.16618847218E+04  0.00000000000E+00 0. -1.
         -1   -1    0    0    0  501 -0.00000000000E+00 -0.00000000000E+00 -0.86364116492E+03  0.86364116492E+03  0.00000000000E+00 0.  1.
         24    2    1    2    0    0 -0.10086932492E+04  0.20638811818E+03  0.30307599607E+03  0.10759872222E+04  0.76389244368E+02 0.  0.
        254    2    1    2    0    0  0.10086932492E+04 -0.20638811818E+03  0.49516756083E+03  0.14495386645E+04  0.89213973138E+03 0.  0.
         23    2    4    4    0    0  0.29782577318E+03  0.14623914340E+03 -0.19302839135E+03  0.39504953846E+03  0.93370764928E+02 0.  0.
         23    2    4    4    0    0  0.71086747604E+03 -0.35262726159E+03  0.68819595217E+03  0.10544891261E+04  0.93032759212E+02 0.  0.
          2    1    3    3  502    0 -0.93388798332E+01 -0.52164798926E+01  0.54242308905E+01  0.11993690832E+02  0.00000000000E+00 0. -1.
         -1    1    3    3    0  502 -0.99935436938E+03  0.21160459807E+03  0.29765176518E+03  0.10639935314E+04  0.00000000000E+00 0.  1.
         11    1    5    5    0    0  0.40155718195E+02  0.13200410631E+02  0.68895288148E+01  0.42827539643E+02  0.00000000000E+00 0. -1.
        -11    1    5    5    0    0  0.25767005498E+03  0.13303873277E+03 -0.19991792016E+03  0.35222199882E+03  0.00000000000E+00 0.  1.
          1    1    6    6  503    0  0.53989999190E+03 -0.31072486204E+03  0.53687677732E+03  0.82236160852E+03  0.00000000000E+00 0. -1.
         -1    1    6    6    0  503  0.17096748414E+03 -0.41902399545E+02  0.15131917486E+03  0.23212751754E+03  0.00000000000E+00 0.  1.
<mgrwt>
<rscale>  0 0.23960568E+04</rscale>
<asrwt>0</asrwt>
<pdfrwt beam="1">  1        2 0.25567457E+00 0.23960568E+04</pdfrwt>
<pdfrwt beam="2">  1       -1 0.13286787E+00 0.23960568E+04</pdfrwt>
<totfact> 0.50611548E+00</totfact>
</mgrwt>
</event>
<event>
12    6  0.1462228E-007  0.1607218E+04  0.7818608E-02  0.8816126E-01
          2   -1    0    0  501    0  0.00000000000E+00  0.00000000000E+00  0.85267185680E+03  0.85267185680E+03  0.00000000000E+00 0. -1.
         -1   -1    0    0    0  501 -0.00000000000E+00 -0.00000000000E+00 -0.75736967196E+03  0.75736967196E+03  0.00000000000E+00 0.  1.
         24    2    1    2    0    0  0.26753191567E+03 -0.86728771117E+02 -0.43190024385E+03  0.52142923863E+03  0.79091242389E+02 0.  0.
        254    2    1    2    0    0 -0.26753191567E+03  0.86728771117E+02  0.52720242869E+03  0.10886122901E+04  0.90996654431E+03 0.  0.
         23    2    4    4    0    0 -0.80881177871E+02  0.16395063296E+03 -0.22529335099E+03  0.30414126906E+03  0.91231806752E+02 0.  0.
         23    2    4    4    0    0 -0.18665073780E+03 -0.77221861841E+02  0.75249577968E+03  0.78447102107E+03  0.91340957946E+02 0.  0.
          4    1    3    3  502    0  0.43243963612E+02 -0.33916888145E+02 -0.13386649341E+03  0.14470878946E+03  0.00000000000E+00 0. -1.
         -3    1    3    3    0  502  0.22428795206E+03 -0.52811882972E+02 -0.29803375044E+03  0.37672044917E+03  0.00000000000E+00 0.  1.
         11    1    5    5    0    0 -0.36596175741E+02  0.91417443830E+02 -0.52526659193E+02  0.11160411749E+03  0.00000000000E+00 0.  1.
        -11    1    5    5    0    0 -0.44285002129E+02  0.72533189128E+02 -0.17276669180E+03  0.19253715157E+03  0.00000000000E+00 0. -1.
          3    1    6    6  503    0 -0.12659338832E+03 -0.47346446634E+02  0.63455712793E+03  0.64879143073E+03  0.00000000000E+00 0. -1.
         -3    1    6    6    0  503 -0.60057349476E+02 -0.29875415207E+02  0.11793865175E+03  0.13567959034E+03  0.00000000000E+00 0.  1.
<mgrwt>
<rscale>  0 0.16072185E+04</rscale>
<asrwt>0</asrwt>
<pdfrwt beam="1">  1        2 0.13118028E+00 0.16072185E+04</pdfrwt>
<pdfrwt beam="2">  1       -1 0.11651841E+00 0.16072185E+04</pdfrwt>
<totfact> 0.22998512E+01</totfact>
</mgrwt>
</event>
<event>
12    6  0.1462228E-007  0.3623248E+04  0.7818608E-02  0.8085187E-01
         -1   -1    0    0    0  501 -0.00000000000E+00  0.00000000000E+00  0.11714123988E+04  0.11714123988E+04  0.00000000000E+00 0.  1.
          2   -1    0    0  501    0  0.00000000000E+00 -0.00000000000E+00 -0.28017307203E+04  0.28017307203E+04  0.00000000000E+00 0. -1.
         24    2    1    2    0    0 -0.25231666609E+03  0.12665582608E+04 -0.19726605321E+04  0.23590886078E+04  0.77948421532E+02 0.  0.
        254    2    1    2    0    0  0.25231666609E+03 -0.12665582608E+04  0.34234221055E+03  0.16140545113E+04  0.90561594972E+03 0.  0.
         23    2    4    4    0    0  0.11294054701E+03 -0.22176114040E+03 -0.28112309663E+03  0.38608194121E+03  0.89974992754E+02 0.  0.
         23    2    4    4    0    0  0.13937611908E+03 -0.10447971204E+04  0.62346530718E+03  0.12279725701E+04  0.90448428988E+02 0.  0.
          4    1    3    3  502    0 -0.25116593829E+03  0.11529724863E+04 -0.17876853451E+04  0.21420197888E+04  0.00000000000E+00 0. -1.
         -3    1    3    3    0  502 -0.11507277962E+01  0.11358577453E+03 -0.18497518705E+03  0.21706881898E+03  0.00000000000E+00 0.  1.
         11    1    5    5    0    0  0.10474129738E+03 -0.12507797971E+03 -0.14092047750E+03  0.21557787772E+03  0.00000000000E+00 0. -1.
        -11    1    5    5    0    0  0.81992496330E+01 -0.96683160693E+02 -0.14020261913E+03  0.17050406349E+03  0.00000000000E+00 0.  1.
          4    1    6    6  503    0  0.75523555523E+02 -0.81457385339E+03  0.50394420559E+03  0.96082991857E+03  0.00000000000E+00 0. -1.
         -4    1    6    6    0  503  0.63852563555E+02 -0.23022326700E+03  0.11952110159E+03  0.26714265153E+03  0.00000000000E+00 0.  1.
<mgrwt>
<rscale>  0 0.36232483E+04</rscale>
<asrwt>0</asrwt>
<pdfrwt beam="1">  1        2 0.43103550E+00 0.36232483E+04</pdfrwt>
<pdfrwt beam="2">  1       -1 0.18021729E+00 0.36232483E+04</pdfrwt>
<totfact> 0.44183873E-01</totfact>
</mgrwt>
</event>
<event>
12    6  0.1462228E-007  0.1898804E+04  0.7818608E-02  0.8655452E-01
          2   -1    0    0  501    0  0.00000000000E+00  0.00000000000E+00  0.12543048895E+04  0.12543048895E+04  0.00000000000E+00 0. -1.
         -1   -1    0    0    0  501 -0.00000000000E+00 -0.00000000000E+00 -0.71861645573E+03  0.71861645573E+03  0.00000000000E+00 0.  1.
         24    2    1    2    0    0  0.57673825186E+03 -0.18645149398E+03 -0.22120679159E+03  0.65009301889E+03  0.79355641254E+02 0.  0.
        254    2    1    2    0    0 -0.57673825186E+03  0.18645149398E+03  0.75689522536E+03  0.13228283263E+04  0.89977398719E+03 0.  0.
         23    2    4    4    0    0 -0.27305759337E+03  0.20606345532E+03  0.90631765605E+03  0.97302552523E+03  0.91347589788E+02 0.  0.
         23    2    4    4    0    0 -0.30368065849E+03 -0.19611961340E+02 -0.14942243069E+03  0.34980280111E+03  0.86187966105E+02 0.  0.
          4    1    3    3  502    0  0.24359833833E+03 -0.95138336216E+02 -0.57164213065E+02  0.26769236207E+03  0.00000000000E+00 0. -1.
         -3    1    3    3    0  502  0.33313991352E+03 -0.91313157762E+02 -0.16404257853E+03  0.38240065682E+03  0.00000000000E+00 0.  1.
         11    1    5    5    0    0 -0.26573304987E+03  0.19516792389E+03  0.79100073759E+03  0.85696367436E+03  0.00000000000E+00 0. -1.
        -11    1    5    5    0    0 -0.73245434914E+01  0.10895531433E+02  0.11531691846E+03  0.11606185087E+03  0.00000000000E+00 0.  1.
          2    1    6    6  503    0  0.43144333773E+01 -0.60824430659E+01 -0.69041776436E+01  0.10162584216E+02  0.00000000000E+00 0.  1.
         -2    1    6    6    0  503 -0.30799509187E+03 -0.13529518274E+02 -0.14251825305E+03  0.33964021690E+03  0.00000000000E+00 0. -1.
<mgrwt>
<rscale>  0 0.18988040E+04</rscale>
<asrwt>0</asrwt>
<pdfrwt beam="1">  1        2 0.19296998E+00 0.18988040E+04</pdfrwt>
<pdfrwt beam="2">  1       -1 0.11055638E+00 0.18988040E+04</pdfrwt>
<totfact> 0.14161494E+01</totfact>
</mgrwt>
</event>
<event>
12    6  0.1462228E-007  0.1318635E+04  0.7818608E-02  0.9014916E-01
          2   -1    0    0  501    0  0.00000000000E+00  0.00000000000E+00  0.16416797353E+04  0.16416797353E+04  0.00000000000E+00 0. -1.
         -1   -1    0    0    0  501 -0.00000000000E+00 -0.00000000000E+00 -0.26478969815E+03  0.26478969815E+03  0.00000000000E+00 0.  1.
         24    2    1    2    0    0  0.16506649578E+02 -0.15344731948E+03 -0.78707412592E+02  0.19095324747E+03  0.80310252056E+02 0.  0.
        254    2    1    2    0    0 -0.16506649578E+02  0.15344731948E+03  0.14555974497E+04  0.17155161859E+04  0.89465820250E+03 0.  0.
         23    2    4    4    0    0  0.34697963203E+03  0.13774151055E+03  0.26249129597E+03  0.46484376176E+03  0.88376770770E+02 0.  0.
         23    2    4    4    0    0 -0.36348628161E+03  0.15705808928E+02  0.11931061537E+04  0.12506724242E+04  0.91160677827E+02 0.  0.
          2    1    3    3  502    0 -0.32690242795E+02 -0.57902394433E+02 -0.28765434319E+02  0.72448529775E+02  0.00000000000E+00 0. -1.
         -3    1    3    3    0  502  0.49196892373E+02 -0.95544925045E+02 -0.49941978273E+02  0.11850471769E+03  0.00000000000E+00 0.  1.
         11    1    5    5    0    0  0.18515979666E+03  0.94510832985E+02  0.97070365068E+02  0.22943213294E+03  0.00000000000E+00 0.  1.
        -11    1    5    5    0    0  0.16181983537E+03  0.43230677565E+02  0.16542093090E+03  0.23541162882E+03  0.00000000000E+00 0. -1.
          1    1    6    6  503    0 -0.74242135379E+02  0.40751519393E+02  0.26060481061E+03  0.27402089028E+03  0.00000000000E+00 0. -1.
         -1    1    6    6    0  503 -0.28924414623E+03 -0.25045710465E+02  0.93250134313E+03  0.97665153391E+03  0.00000000000E+00 0.  1.
<mgrwt>
<rscale>  0 0.13186355E+04</rscale>
<asrwt>0</asrwt>
<pdfrwt beam="1">  1        2 0.25256611E+00 0.13186355E+04</pdfrwt>
<pdfrwt beam="2">  1       -1 0.40736877E-01 0.13186355E+04</pdfrwt>
<totfact> 0.69420867E+01</totfact>
</mgrwt>
</event>
<event>
12    6  0.1500386E-007  0.2037027E+04  0.7818608E-02  0.8589502E-01
         -1   -1    0    0    0  501 -0.00000000000E+00  0.00000000000E+00  0.65152040602E+03  0.65152040602E+03  0.00000000000E+00 0.  1.
          2   -1    0    0  501    0  0.00000000000E+00 -0.00000000000E+00 -0.15922296026E+04  0.15922296026E+04  0.00000000000E+00 0. -1.
         24    2    1    2    0    0  0.44988056228E+03 -0.65381337913E+03 -0.15141168260E+03  0.81198156587E+03  0.80771966947E+02 0.  0.
        254    2    1    2    0    0 -0.44988056228E+03  0.65381337913E+03 -0.78929751398E+03  0.14317684428E+04  0.89280784777E+03 0.  0.
         23    2    4    4    0    0 -0.44930177019E+03  0.59790373930E+03 -0.13101397554E+03  0.76476718523E+03  0.91341248401E+02 0.  0.
         23    2    4    4    0    0 -0.57879209174E+00  0.55909639824E+02 -0.65828353844E+03  0.66700125752E+03  0.91799987588E+02 0.  0.
          4    1    3    3  502    0  0.74411350181E-01  0.68431579027E+00  0.28881566477E+01  0.29690527060E+01  0.00000000000E+00 0. -1.
         -3    1    3    3    0  502  0.44980615093E+03 -0.65449769492E+03 -0.15429983925E+03  0.80901251316E+03  0.00000000000E+00 0.  1.
         11    1    5    5    0    0 -0.29928133927E+03  0.36651948693E+03 -0.42242282943E+02  0.47506869483E+03  0.00000000000E+00 0. -1.
        -11    1    5    5    0    0 -0.15002043091E+03  0.23138425237E+03 -0.88771692599E+02  0.28969849040E+03  0.00000000000E+00 0.  1.
          4    1    6    6  503    0 -0.18640455892E+02  0.75578474944E+02 -0.41331712765E+03  0.42058366645E+03  0.00000000000E+00 0. -1.
         -4    1    6    6    0  503  0.18061663801E+02 -0.19668835120E+02 -0.24496641079E+03  0.24641759107E+03  0.00000000000E+00 0.  1.
<mgrwt>
<rscale>  0 0.20370273E+04</rscale>
<asrwt>0</asrwt>
<pdfrwt beam="1">  1        2 0.24495840E+00 0.20370273E+04</pdfrwt>
<pdfrwt beam="2">  1       -1 0.10023391E+00 0.20370273E+04</pdfrwt>
<totfact> 0.11267828E+01</totfact>
</mgrwt>
</event>
<event>
12    6  0.1462228E-007  0.2148701E+04  0.7818608E-02  0.8540088E-01
         -1   -1    0    0    0  501 -0.00000000000E+00  0.00000000000E+00  0.10886210176E+04  0.10886210176E+04  0.00000000000E+00 0.  1.
          2   -1    0    0  501    0  0.00000000000E+00 -0.00000000000E+00 -0.10602673269E+04  0.10602673269E+04  0.00000000000E+00 0. -1.
         24    2    1    2    0    0 -0.79548966555E+03  0.14679219102E+03 -0.34829469409E+03  0.88469531694E+03  0.83814405358E+02 0.  0.
        254    2    1    2    0    0  0.79548966555E+03 -0.14679219102E+03  0.37664838478E+03  0.12641930275E+04  0.89552680005E+03 0.  0.
         23    2    4    4    0    0  0.80553743363E+03 -0.35337629372E+03  0.75281923035E+02  0.88757104160E+03  0.91376277116E+02 0.  0.
         23    2    4    4    0    0 -0.10047768077E+02  0.20658410270E+03  0.30136646175E+03  0.37662198587E+03  0.90798826200E+02 0.  0.
          4    1    3    3  502    0 -0.40817107980E+03  0.10134123252E+03 -0.21673751837E+03  0.47312665076E+03  0.00000000000E+00 0. -1.
         -3    1    3    3    0  502 -0.38731858575E+03  0.45450958496E+02 -0.13155717572E+03  0.41156866618E+03  0.00000000000E+00 0.  1.
         11    1    5    5    0    0  0.51666856831E+03 -0.22522607358E+03  0.92123235037E+02  0.57110409221E+03  0.00000000000E+00 0. -1.
        -11    1    5    5    0    0  0.28886886531E+03 -0.12815022014E+03 -0.16841312003E+02  0.31646694940E+03  0.00000000000E+00 0.  1.
          1    1    6    6  503    0 -0.30125187218E+02  0.20286678780E+03  0.27988925839E+03  0.34698769064E+03  0.00000000000E+00 0. -1.
         -1    1    6    6    0  503  0.20077419140E+02  0.37173149092E+01  0.21477203362E+02  0.29634295229E+02  0.00000000000E+00 0.  1.
<mgrwt>
<rscale>  0 0.21487013E+04</rscale>
<asrwt>0</asrwt>
<pdfrwt beam="1">  1        2 0.16311805E+00 0.21487013E+04</pdfrwt>
<pdfrwt beam="2">  1       -1 0.16748016E+00 0.21487013E+04</pdfrwt>
<totfact> 0.62005567E+00</totfact>
</mgrwt>
</event>
<event>
12    6  0.1462228E-007  0.1261899E+04  0.7818608E-02  0.9060338E-01
          2   -1    0    0  501    0  0.00000000000E+00  0.00000000000E+00  0.16849401160E+04  0.16849401160E+04  0.00000000000E+00 0. -1.
         -1   -1    0    0    0  501 -0.00000000000E+00 -0.00000000000E+00 -0.23626786302E+03  0.23626786302E+03  0.00000000000E+00 0.  1.
         24    2    1    2    0    0 -0.15164622379E+03 -0.26520199365E+03  0.40956006376E+03  0.51733608100E+03  0.81046284660E+02 0.  0.
        254    2    1    2    0    0  0.15164622379E+03  0.26520199365E+03  0.10391121892E+04  0.14038718980E+04  0.89318166664E+03 0.  0.
         23    2    4    4    0    0 -0.30846851751E+03 -0.99373820229E+01  0.13565435363E+03  0.34923984014E+03  0.91185439779E+02 0.  0.
         23    2    4    4    0    0  0.46011474130E+03  0.27513937567E+03  0.90345783555E+03  0.10546320578E+04  0.92765648884E+02 0.  0.
          4    1    3    3  502    0 -0.44073664247E+02 -0.12123048023E+03  0.22742031772E+03  0.26145614953E+03  0.00000000000E+00 0. -1.
         -3    1    3    3    0  502 -0.10757255954E+03 -0.14397151342E+03  0.18213974604E+03  0.25587993147E+03  0.00000000000E+00 0.  1.
         11    1    5    5    0    0 -0.30169921302E+03 -0.20439871750E+01  0.14546588214E+03  0.33494315322E+03  0.00000000000E+00 0.  1.
        -11    1    5    5    0    0 -0.67693044851E+01 -0.78933948479E+01 -0.98115285026E+01  0.14296686924E+02  0.00000000000E+00 0. -1.
          1    1    6    6  503    0  0.12225853508E+03  0.27895408338E+02  0.20559479238E+03  0.24082051794E+03  0.00000000000E+00 0. -1.
         -1    1    6    6    0  503  0.33785620622E+03  0.24724396733E+03  0.69786304317E+03  0.81381153991E+03  0.00000000000E+00 0.  1.
<mgrwt>
<rscale>  0 0.12618989E+04</rscale>
<asrwt>0</asrwt>
<pdfrwt beam="1">  1        2 0.25922155E+00 0.12618989E+04</pdfrwt>
<pdfrwt beam="2">  1       -1 0.36348903E-01 0.12618989E+04</pdfrwt>
<totfact> 0.81132823E+01</totfact>
</mgrwt>
</event>
<event>
12    6  0.1462228E-007  0.2187188E+04  0.7818608E-02  0.8523780E-01
          2   -1    0    0  501    0  0.00000000000E+00  0.00000000000E+00  0.14372522270E+04  0.14372522270E+04  0.00000000000E+00 0. -1.
         -1   -1    0    0    0  501 -0.00000000000E+00 -0.00000000000E+00 -0.83210699554E+03  0.83210699554E+03  0.00000000000E+00 0.  1.
         24    2    1    2    0    0  0.45706616688E+03 -0.77989239512E+03  0.19489253501E+03  0.92811184011E+03  0.79163493392E+02 0.  0.
        254    2    1    2    0    0 -0.45706616688E+03  0.77989239512E+03  0.41025269649E+03  0.13412473825E+04  0.90193992990E+03 0.  0.
         23    2    4    4    0    0 -0.29304024254E+03  0.87637811037E+03  0.55822181792E+03  0.10837216122E+04  0.94497400358E+02 0.  0.
         23    2    4    4    0    0 -0.16402592433E+03 -0.96485715252E+02 -0.14796912143E+03  0.25752577027E+03  0.90612716308E+02 0.  0.
          2    1    3    3  502    0  0.12483216786E+03 -0.25458927931E+03  0.92038341138E+02  0.29811042839E+03  0.00000000000E+00 0. -1.
         -1    1    3    3    0  502  0.33223399902E+03 -0.52530311580E+03  0.10285419387E+03  0.63000141172E+03  0.00000000000E+00 0.  1.
         11    1    5    5    0    0 -0.54491338988E+02  0.28697249689E+03  0.19859966861E+03  0.35321997164E+03  0.00000000000E+00 0.  1.
        -11    1    5    5    0    0 -0.23854890356E+03  0.58940561348E+03  0.35962214930E+03  0.73050164056E+03  0.00000000000E+00 0. -1.
          3    1    6    6  503    0 -0.11234694855E+03 -0.55322534710E+02 -0.14471555624E+03  0.19137662321E+03  0.00000000000E+00 0. -1.
         -3    1    6    6    0  503 -0.51678975778E+02 -0.41163180542E+02 -0.32535651913E+01  0.66149147056E+02  0.00000000000E+00 0.  1.
<mgrwt>
<rscale>  0 0.21871878E+04</rscale>
<asrwt>0</asrwt>
<pdfrwt beam="1">  1        2 0.22111573E+00 0.21871878E+04</pdfrwt>
<pdfrwt beam="2">  1       -1 0.12801646E+00 0.21871878E+04</pdfrwt>
<totfact> 0.75733669E+00</totfact>
</mgrwt>
</event>
<event>
12    6  0.1462228E-007  0.1833351E+04  0.7818608E-02  0.8688762E-01
         -1   -1    0    0    0  501 -0.00000000000E+00  0.00000000000E+00  0.43551781326E+03  0.43551781326E+03  0.00000000000E+00 0.  1.
          2   -1    0    0  501    0  0.00000000000E+00 -0.00000000000E+00 -0.19294137267E+04  0.19294137267E+04  0.00000000000E+00 0. -1.
         24    2    1    2    0    0 -0.56375829921E+02 -0.31041647657E+03  0.23015089968E+03  0.39878302702E+03  0.80757927715E+02 0.  0.
        254    2    1    2    0    0  0.56375829921E+02  0.31041647657E+03 -0.17240468131E+04  0.19661485129E+04  0.89099154765E+03 0.  0.
         23    2    4    4    0    0  0.45389038320E+03  0.19038402114E+03 -0.11296262294E+04  0.12354806026E+04  0.89968582277E+02 0.  0.
         23    2    4    4    0    0 -0.39751455328E+03  0.12003245543E+03 -0.59442058376E+03  0.73066791037E+03  0.90078601400E+02 0.  0.
          2    1    3    3  502    0 -0.13856800135E+01 -0.67947609501E+01 -0.68198546496E+01  0.97262172971E+01  0.00000000000E+00 0. -1.
         -1    1    3    3    0  502 -0.54990149908E+02 -0.30362171562E+03  0.23697075433E+03  0.38905680972E+03  0.00000000000E+00 0.  1.
         11    1    5    5    0    0  0.20439917677E+03  0.13411225103E+03 -0.56611128758E+03  0.61664179980E+03  0.00000000000E+00 0.  1.
        -11    1    5    5    0    0  0.24949120643E+03  0.56271770116E+02 -0.56351494179E+03  0.61883880278E+03  0.00000000000E+00 0. -1.
          1    1    6    6  503    0 -0.33013082095E+03  0.12886191601E+03 -0.52588362335E+03  0.63414930232E+03  0.00000000000E+00 0. -1.
         -1    1    6    6    0  503 -0.67383732330E+02 -0.88294605805E+01 -0.68536960412E+02  0.96518608047E+02  0.00000000000E+00 0.  1.
<mgrwt>
<rscale>  0 0.18333511E+04</rscale>
<asrwt>0</asrwt>
<pdfrwt beam="1">  1        2 0.29683289E+00 0.18333511E+04</pdfrwt>
<pdfrwt beam="2">  1       -1 0.67002739E-01 0.18333511E+04</pdfrwt>
<totfact> 0.17694056E+01</totfact>
</mgrwt>
</event>
<event>
12    6  0.1462228E-007  0.2542208E+04  0.7818608E-02  0.8388101E-01
         -1   -1    0    0    0  501 -0.00000000000E+00  0.00000000000E+00  0.70371674927E+03  0.70371674927E+03  0.00000000000E+00 0.  1.
          2   -1    0    0  501    0  0.00000000000E+00 -0.00000000000E+00 -0.22959595192E+04  0.22959595192E+04  0.00000000000E+00 0. -1.
         24    2    1    2    0    0  0.92395770212E+03 -0.39681723076E+03 -0.14423061934E+03  0.10189750582E+04  0.79661457372E+02 0.  0.
        254    2    1    2    0    0 -0.92395770212E+03  0.39681723076E+03 -0.14480121506E+04  0.19807012103E+04  0.90292654522E+03 0.  0.
         23    2    4    4    0    0 -0.81969631484E+03 -0.98695124004E+02 -0.79460588177E+03  0.11494163145E+04  0.90092068125E+02 0.  0.
         23    2    4    4    0    0 -0.10426138728E+03  0.49551235476E+03 -0.65340626885E+03  0.83128489572E+03  0.87703449614E+02 0.  0.
          2    1    3    3  502    0  0.32043475706E+03 -0.11507909773E+03 -0.17074138434E+02  0.34090051111E+03  0.00000000000E+00 0. -1.
         -1    1    3    3    0  502  0.60352294506E+03 -0.28173813302E+03 -0.12715648091E+03  0.67807454712E+03  0.00000000000E+00 0.  1.
         11    1    5    5    0    0 -0.73183418023E+03 -0.64542495354E+02 -0.68054504138E+03  0.10014432357E+04  0.00000000000E+00 0.  1.
        -11    1    5    5    0    0 -0.87862134617E+02 -0.34152628650E+02 -0.11406084039E+03  0.14797307881E+03  0.00000000000E+00 0. -1.
          3    1    6    6  503    0 -0.19045078880E+02  0.15060657977E+02 -0.47332232159E+02  0.53196603739E+02  0.00000000000E+00 0. -1.
         -3    1    6    6    0  503 -0.85216308402E+02  0.48045169678E+03 -0.60607403669E+03  0.77808829198E+03  0.00000000000E+00 0.  1.
<mgrwt>
<rscale>  0 0.25422078E+04</rscale>
<asrwt>0</asrwt>
<pdfrwt beam="1">  1        2 0.35322454E+00 0.25422078E+04</pdfrwt>
<pdfrwt beam="2">  1       -1 0.10826412E+00 0.25422078E+04</pdfrwt>
<totfact> 0.36503377E+00</totfact>
</mgrwt>
</event>
<event>
12    6  0.1462228E-007  0.2222277E+04  0.7818608E-02  0.8509213E-01
          2   -1    0    0  501    0  0.00000000000E+00  0.00000000000E+00  0.39489860227E+04  0.39489860227E+04  0.00000000000E+00 0. -1.
         -1   -1    0    0    0  501 -0.00000000000E+00 -0.00000000000E+00 -0.31264441521E+03  0.31264441521E+03  0.00000000000E+00 0.  1.
         24    2    1    2    0    0  0.35310505724E+03 -0.28449129054E+03 -0.26495550011E+02  0.46129007709E+03  0.80424158157E+02 0.  0.
        254    2    1    2    0    0 -0.35310505724E+03  0.28449129054E+03  0.36628371575E+04  0.38003403608E+04  0.90586551971E+03 0.  0.
         23    2    4    4    0    0 -0.21650661400E+03  0.37139315188E+02  0.16361961367E+03  0.28852836945E+03  0.90679652437E+02 0.  0.
         23    2    4    4    0    0 -0.13659844324E+03  0.24735197535E+03  0.34992175438E+04  0.35118119914E+04  0.91966891636E+02 0.  0.
          2    1    3    3  502    0  0.50291370300E+02 -0.35471028911E+02 -0.31644625094E+02  0.69201142448E+02  0.00000000000E+00 0. -1.
         -1    1    3    3    0  502  0.30281368694E+03 -0.24902026162E+03  0.51490750826E+01  0.39208893464E+03  0.00000000000E+00 0.  1.
         11    1    5    5    0    0 -0.58637955931E+02  0.49670506702E+02  0.34680629986E+02  0.84310824975E+02  0.00000000000E+00 0. -1.
        -11    1    5    5    0    0 -0.15786865806E+03 -0.12531191513E+02  0.12893898368E+03  0.20421754448E+03  0.00000000000E+00 0.  1.
          2    1    6    6  503    0 -0.44774573814E+01  0.95742928986E+01  0.27613779660E+02  0.29567474296E+02  0.00000000000E+00 0. -1.
         -2    1    6    6    0  503 -0.13212098586E+03  0.23777768245E+03  0.34716037642E+04  0.34822445171E+04  0.00000000000E+00 0.  1.
<mgrwt>
<rscale>  0 0.22222767E+04</rscale>
<asrwt>0</asrwt>
<pdfrwt beam="1">  1        2 0.60753628E+00 0.22222767E+04</pdfrwt>
<pdfrwt beam="2">  1       -1 0.48099143E-01 0.22222767E+04</pdfrwt>
<totfact> 0.16972792E+00</totfact>
</mgrwt>
</event>
<event>
12    6  0.1462228E-007  0.1247419E+04  0.7818608E-02  0.9072334E-01
         -1   -1    0    0    0  501 -0.00000000000E+00  0.00000000000E+00  0.15634512515E+03  0.15634512515E+03  0.00000000000E+00 0.  1.
          2   -1    0    0  501    0  0.00000000000E+00 -0.00000000000E+00 -0.24881711145E+04  0.24881711145E+04  0.00000000000E+00 0. -1.
         24    2    1    2    0    0  0.21603443447E+02 -0.36638538943E+02 -0.11844307383E+04  0.11879796001E+04  0.81303537769E+02 0.  0.
        254    2    1    2    0    0 -0.21603443447E+02  0.36638538943E+02 -0.11473952511E+04  0.14565366396E+04  0.89619977059E+03 0.  0.
         23    2    4    4    0    0 -0.31057181163E+02 -0.20044268872E+03  0.53800147762E+02  0.22868461849E+03  0.90886626470E+02 0.  0.
         23    2    4    4    0    0  0.94537377156E+01  0.23708122767E+03 -0.12011953989E+04  0.12278520211E+04  0.91941925661E+02 0.  0.
          2    1    3    3  502    0 -0.39319109624E+00 -0.53454159066E+02 -0.10054404608E+04  0.10068604779E+04  0.00000000000E+00 0. -1.
         -1    1    3    3    0  502  0.21996634543E+02  0.16815620123E+02 -0.17899027745E+03  0.18111912221E+03  0.00000000000E+00 0.  1.
         11    1    5    5    0    0  0.84119053323E+01 -0.69971264493E+02  0.59531271402E+02  0.92253510940E+02  0.00000000000E+00 0. -1.
        -11    1    5    5    0    0 -0.39469086495E+02 -0.13047142423E+03 -0.57311236399E+01  0.13643110755E+03  0.00000000000E+00 0.  1.
          1    1    6    6  503    0 -0.26334742690E+01  0.15908044986E+03 -0.98356045214E+03  0.99634566679E+03  0.00000000000E+00 0. -1.
         -1    1    6    6    0  503  0.12087211985E+02  0.78000777802E+02 -0.21763494674E+03  0.23150635428E+03  0.00000000000E+00 0.  1.
<mgrwt>
<rscale>  0 0.12474188E+04</rscale>
<asrwt>0</asrwt>
<pdfrwt beam="1">  1        2 0.38279553E+00 0.12474188E+04</pdfrwt>
<pdfrwt beam="2">  1       -1 0.24053098E-01 0.12474188E+04</pdfrwt>
<totfact> 0.59619816E+01</totfact>
</mgrwt>
</event>
<event>
12    6  0.1462228E-007  0.2162465E+04  0.7818608E-02  0.8534215E-01
          4   -1    0    0  501    0  0.00000000000E+00  0.00000000000E+00  0.26681631643E+04  0.26681631643E+04  0.00000000000E+00 0. -1.
         -1   -1    0    0    0  501 -0.00000000000E+00 -0.00000000000E+00 -0.43815320691E+03  0.43815320691E+03  0.00000000000E+00 0.  1.
         24    2    1    2    0    0  0.14161294395E+03 -0.59325704572E+03 -0.11642450642E+02  0.61508624851E+03  0.78660016891E+02 0.  0.
        254    2    1    2    0    0 -0.14161294395E+03  0.59325704572E+03  0.22416524081E+04  0.24912301227E+04  0.89956314821E+03 0.  0.
         23    2    4    4    0    0  0.31594718185E+03  0.42028957331E+03  0.76649937771E+03  0.93392732924E+03  0.90735952796E+02 0.  0.
         23    2    4    4    0    0 -0.45756012581E+03  0.17296747241E+03  0.14751530303E+04  0.15573027935E+04  0.99179193338E+02 0.  0.
          2    1    3    3  502    0  0.99954899630E+02 -0.29710157938E+03  0.21404536639E+02  0.31419497866E+03  0.00000000000E+00 0. -1.
         -1    1    3    3    0  502  0.41658044325E+02 -0.29615546634E+03 -0.33046987281E+02  0.30089126984E+03  0.00000000000E+00 0.  1.
         11    1    5    5    0    0  0.20660943330E+03  0.21916918641E+03  0.38230156808E+03  0.48670019433E+03  0.00000000000E+00 0. -1.
        -11    1    5    5    0    0  0.10933774855E+03  0.20112038689E+03  0.38419780963E+03  0.44722713492E+03  0.00000000000E+00 0.  1.
          2    1    6    6  503    0 -0.14966815295E+03  0.10751670339E+03  0.55637233996E+03  0.58609775481E+03  0.00000000000E+00 0. -1.
         -2    1    6    6    0  503 -0.30789197286E+03  0.65450769023E+02  0.91878069038E+03  0.97120503866E+03  0.00000000000E+00 0.  1.
<mgrwt>
<rscale>  0 0.21624655E+04</rscale>
<asrwt>0</asrwt>
<pdfrwt beam="1">  1        4 0.41048663E+00 0.21624655E+04</pdfrwt>
<pdfrwt beam="2">  1       -1 0.67408187E-01 0.21624655E+04</pdfrwt>
<totfact> 0.47587554E-02</totfact>
</mgrwt>
</event>
<event>
12    6  0.1462228E-007  0.1797073E+04  0.7818608E-02  0.8707858E-01
          2   -1    0    0  501    0  0.00000000000E+00  0.00000000000E+00  0.80346772919E+03  0.80346772919E+03  0.00000000000E+00 0. -1.
         -1   -1    0    0    0  501 -0.00000000000E+00 -0.00000000000E+00 -0.10048540448E+04  0.10048540448E+04  0.00000000000E+00 0.  1.
         24    2    1    2    0    0 -0.64133316096E+03 -0.17402705976E+03  0.54229652626E+02  0.67150239234E+03  0.79880954031E+02 0.  0.
        254    2    1    2    0    0  0.64133316096E+03  0.17402705976E+03 -0.25561596828E+03  0.11368193817E+04  0.88624214666E+03 0.  0.
         23    2    4    4    0    0  0.13620979889E+03 -0.25764247959E+03 -0.34398615625E+03  0.46033481591E+03  0.92999518531E+02 0.  0.
         23    2    4    4    0    0  0.50512336206E+03  0.43166953935E+03  0.88370187974E+02  0.67648456579E+03  0.91290062605E+02 0.  0.
          2    1    3    3  502    0 -0.58258742244E+03 -0.17810451235E+03  0.60892825384E+02  0.61223954322E+03  0.00000000000E+00 0. -1.
         -1    1    3    3    0  502 -0.58745738521E+02  0.40774525904E+01 -0.66631727579E+01  0.59262849115E+02  0.00000000000E+00 0.  1.
         11    1    5    5    0    0  0.18870431388E+02  0.26710567059E+01 -0.33284549537E+02  0.38354777572E+02  0.00000000000E+00 0. -1.
        -11    1    5    5    0    0  0.11733936751E+03 -0.26031353629E+03 -0.31070160672E+03  0.42198003834E+03  0.00000000000E+00 0.  1.
          3    1    6    6  503    0  0.40777376150E+02  0.15672805068E+02  0.23712351268E+02  0.49706205116E+02  0.00000000000E+00 0. -1.
         -3    1    6    6    0  503  0.46434598591E+03  0.41599673428E+03  0.64657836707E+02  0.62677836068E+03  0.00000000000E+00 0.  1.
<mgrwt>
<rscale>  0 0.17970730E+04</rscale>
<asrwt>0</asrwt>
<pdfrwt beam="1">  1        2 0.12361042E+00 0.17970730E+04</pdfrwt>
<pdfrwt beam="2">  1       -1 0.15459293E+00 0.17970730E+04</pdfrwt>
<totfact> 0.11866375E+01</totfact>
</mgrwt>
</event>
<event>
12    6  0.1462228E-007  0.4655185E+04  0.7818608E-02  0.7884018E-01
         -1   -1    0    0    0  501 -0.00000000000E+00  0.00000000000E+00  0.13846134529E+04  0.13846134529E+04  0.00000000000E+00 0.  1.
          2   -1    0    0  501    0  0.00000000000E+00 -0.00000000000E+00 -0.39127785263E+04  0.39127785263E+04  0.00000000000E+00 0. -1.
         24    2    1    2    0    0 -0.20459146886E+04 -0.73115355076E+03 -0.59665897468E+03  0.22544128425E+04  0.77607373673E+02 0.  0.
        254    2    1    2    0    0  0.20459146886E+04  0.73115355076E+03 -0.19315060987E+04  0.30429791366E+04  0.89925179360E+03 0.  0.
         23    2    4    4    0    0  0.18287781004E+04  0.51546923363E+03 -0.12150854593E+04  0.22573109759E+04  0.94245940172E+02 0.  0.
         23    2    4    4    0    0  0.21713658822E+03  0.21568431713E+03 -0.71642063940E+03  0.78566816064E+03  0.10172464543E+03 0.  0.
          4    1    3    3  502    0 -0.11531332969E+04 -0.44984713884E+03 -0.35486629017E+03  0.12876369569E+04  0.00000000000E+00 0. -1.
         -3    1    3    3    0  502 -0.89278139174E+03 -0.28130641192E+03 -0.24179268451E+03  0.96677588566E+03  0.00000000000E+00 0.  1.
         11    1    5    5    0    0  0.16173373992E+04  0.45008212487E+03 -0.10371310214E+04  0.19733207893E+04  0.00000000000E+00 0.  1.
        -11    1    5    5    0    0  0.21144070123E+03  0.65387108756E+02 -0.17795443792E+03  0.28399018663E+03  0.00000000000E+00 0. -1.
          1    1    6    6  503    0  0.20329477816E+03  0.17344480394E+03 -0.52432473121E+03  0.58849663601E+03  0.00000000000E+00 0. -1.
         -1    1    6    6    0  503  0.13841810056E+02  0.42239513191E+02 -0.19209590819E+03  0.19717152463E+03  0.00000000000E+00 0.  1.
<mgrwt>
<rscale>  0 0.46551845E+04</rscale>
<asrwt>0</asrwt>
<pdfrwt beam="1">  1        2 0.60196592E+00 0.46551845E+04</pdfrwt>
<pdfrwt beam="2">  1       -1 0.21301746E+00 0.46551845E+04</pdfrwt>
<totfact> 0.41661951E-02</totfact>
</mgrwt>
</event>
<event>
12    6  0.1462228E-007  0.3096965E+04  0.7818608E-02  0.8216571E-01
          2   -1    0    0  501    0  0.00000000000E+00  0.00000000000E+00  0.38953737197E+04  0.38953737197E+04  0.00000000000E+00 0. -1.
         -1   -1    0    0    0  501 -0.00000000000E+00 -0.00000000000E+00 -0.61555006150E+03  0.61555006150E+03  0.00000000000E+00 0.  1.
         24    2    1    2    0    0 -0.69144308266E+03 -0.36763892342E+03 -0.21913606507E+03  0.81700922146E+03  0.78940093557E+02 0.  0.
        254    2    1    2    0    0  0.69144308266E+03  0.36763892342E+03  0.34989597233E+04  0.36939145598E+04  0.88827569767E+03 0.  0.
         23    2    4    4    0    0  0.74942277966E+03  0.49621230135E+03  0.33495587212E+04  0.34692972257E+04  0.92835674602E+02 0.  0.
         23    2    4    4    0    0 -0.57979697002E+02 -0.12857337793E+03  0.14940100208E+03  0.22461733410E+03  0.90771849050E+02 0.  0.
          4    1    3    3  502    0 -0.15190745704E+03 -0.11097730952E+03 -0.74023303613E+02  0.20216648637E+03  0.00000000000E+00 0. -1.
         -3    1    3    3    0  502 -0.53953562561E+03 -0.25666161390E+03 -0.14511276146E+03  0.61484273509E+03  0.00000000000E+00 0.  1.
         11    1    5    5    0    0  0.65308043410E+03  0.39795626944E+03  0.27711238374E+04  0.28747192155E+04  0.00000000000E+00 0.  1.
        -11    1    5    5    0    0  0.96342345558E+02  0.98256031910E+02  0.57843488384E+03  0.59457801019E+03  0.00000000000E+00 0. -1.
          3    1    6    6  503    0  0.49473166301E+01  0.11255673828E+02  0.22248077204E+02  0.25419344493E+02  0.00000000000E+00 0. -1.
         -3    1    6    6    0  503 -0.62927013632E+02 -0.13982905176E+03  0.12715292488E+03  0.19919798961E+03  0.00000000000E+00 0.  1.
<mgrwt>
<rscale>  0 0.30969647E+04</rscale>
<asrwt>0</asrwt>
<pdfrwt beam="1">  1        2 0.59928825E+00 0.30969647E+04</pdfrwt>
<pdfrwt beam="2">  1       -1 0.94700011E-01 0.30969647E+04</pdfrwt>
<totfact> 0.43068275E-01</totfact>
</mgrwt>
</event>
<event>
12    6  0.1462228E-007  0.1781645E+04  0.7818608E-02  0.8716122E-01
          2   -1    0    0  501    0  0.00000000000E+00  0.00000000000E+00  0.13085895294E+04  0.13085895294E+04  0.00000000000E+00 0. -1.
         -1   -1    0    0    0  501 -0.00000000000E+00 -0.00000000000E+00 -0.60642738753E+03  0.60642738753E+03  0.00000000000E+00 0.  1.
         24    2    1    2    0    0 -0.65510992018E+02  0.59743253055E+03 -0.34109573268E+02  0.60725365523E+03  0.79851237763E+02 0.  0.
        254    2    1    2    0    0  0.65510992018E+02 -0.59743253055E+03  0.73627171512E+03  0.13077632617E+04  0.89829359981E+03 0.  0.
         23    2    4    4    0    0 -0.54413290820E+01 -0.74378138923E+03  0.81374774206E+03  0.11059974456E+04  0.88343641151E+02 0.  0.
         23    2    4    4    0    0  0.70952321100E+02  0.14634885869E+03 -0.77476026934E+02  0.20176581608E+03  0.90855321693E+02 0.  0.
          2    1    3    3  502    0 -0.80454578411E+01  0.14065828639E+02 -0.12845099702E+02  0.20677850796E+02  0.00000000000E+00 0. -1.
         -1    1    3    3    0  502 -0.57465534177E+02  0.58336670191E+03 -0.21264473566E+02  0.58657580444E+03  0.00000000000E+00 0.  1.
         11    1    5    5    0    0 -0.10186322199E+02 -0.14394020847E+03  0.21099234041E+03  0.25561751209E+03  0.00000000000E+00 0. -1.
        -11    1    5    5    0    0  0.47449931172E+01 -0.59984118076E+03  0.60275540165E+03  0.85037993351E+03  0.00000000000E+00 0.  1.
          4    1    6    6  503    0 -0.34474166396E+01  0.82847646395E+02 -0.60125671440E+02  0.10242418445E+03  0.00000000000E+00 0. -1.
         -4    1    6    6    0  503  0.74399737740E+02  0.63501212291E+02 -0.17350355494E+02  0.99341631625E+02  0.00000000000E+00 0.  1.
<mgrwt>
<rscale>  0 0.17816448E+04</rscale>
<asrwt>0</asrwt>
<pdfrwt beam="1">  1        2 0.20132147E+00 0.17816448E+04</pdfrwt>
<pdfrwt beam="2">  1       -1 0.93296521E-01 0.17816448E+04</pdfrwt>
<totfact> 0.19641219E+01</totfact>
</mgrwt>
</event>
<event>
12    6  0.1462228E-007  0.2786388E+04  0.7818608E-02  0.8307507E-01
         -1   -1    0    0    0  501 -0.00000000000E+00  0.00000000000E+00  0.84757911443E+03  0.84757911443E+03  0.00000000000E+00 0.  1.
          2   -1    0    0  501    0  0.00000000000E+00 -0.00000000000E+00 -0.22900395269E+04  0.22900395269E+04  0.00000000000E+00 0. -1.
         24    2    1    2    0    0  0.11567414254E+04  0.31227970314E+03 -0.26625633313E+03  0.12299585173E+04  0.79600131715E+02 0.  0.
        254    2    1    2    0    0 -0.11567414254E+04 -0.31227970314E+03 -0.11762040793E+04  0.19076601240E+04  0.90561679223E+03 0.  0.
         23    2    4    4    0    0 -0.12573446382E+04 -0.20367925428E+03 -0.83754109973E+03  0.15271272359E+04  0.90783935872E+02 0.  0.
         23    2    4    4    0    0  0.10060321282E+03 -0.10860044886E+03 -0.33866297958E+03  0.38053288811E+03  0.90540605662E+02 0.  0.
          4    1    3    3  502    0  0.94128212132E+02  0.25832513095E+02  0.23356447687E+00  0.97608880766E+02  0.00000000000E+00 0. -1.
         -3    1    3    3    0  502  0.10626132133E+04  0.28644719005E+03 -0.26648989761E+03  0.11323496365E+04  0.00000000000E+00 0.  1.
         11    1    5    5    0    0 -0.74876548879E+03 -0.76171382188E+02 -0.49747471379E+03  0.90218231391E+03  0.00000000000E+00 0. -1.
        -11    1    5    5    0    0 -0.50857914946E+03 -0.12750787210E+03 -0.34006638594E+03  0.62494492202E+03  0.00000000000E+00 0.  1.
          4    1    6    6  503    0  0.46173742416E+02 -0.92663932821E+02 -0.14121354387E+03  0.17509963994E+03  0.00000000000E+00 0. -1.
         -4    1    6    6    0  503  0.54429470406E+02 -0.15936516037E+02 -0.19744943571E+03  0.20543324817E+03  0.00000000000E+00 0.  1.
<mgrwt>
<rscale>  0 0.27863881E+04</rscale>
<asrwt>0</asrwt>
<pdfrwt beam="1">  1        2 0.35231377E+00 0.27863881E+04</pdfrwt>
<pdfrwt beam="2">  1       -1 0.13039679E+00 0.27863881E+04</pdfrwt>
<totfact> 0.22893074E+00</totfact>
</mgrwt>
</event>
<event>
12    6  0.1462228E-007  0.1511776E+04  0.7818608E-02  0.8876660E-01
         -1   -1    0    0    0  501 -0.00000000000E+00  0.00000000000E+00  0.53941326893E+03  0.53941326893E+03  0.00000000000E+00 0.  1.
          2   -1    0    0  501    0  0.00000000000E+00 -0.00000000000E+00 -0.10592368186E+04  0.10592368186E+04  0.00000000000E+00 0. -1.
         24    2    1    2    0    0  0.19769778395E+03 -0.51571344641E+02 -0.63689554939E+03  0.67353908614E+03  0.79214533778E+02 0.  0.
        254    2    1    2    0    0 -0.19769778395E+03  0.51571344641E+02  0.11707199968E+03  0.92511100142E+03  0.89463986859E+03 0.  0.
         23    2    4    4    0    0 -0.66676327620E+02 -0.32746744400E+03 -0.20487729214E+03  0.40251798662E+03  0.91462370261E+02 0.  0.
         23    2    4    4    0    0 -0.13102145633E+03  0.37903878864E+03  0.32194929182E+03  0.52259301480E+03  0.92817494577E+02 0.  0.
          2    1    3    3  502    0  0.11926654928E+03 -0.18837234758E+02 -0.25283173280E+03  0.28018428989E+03  0.00000000000E+00 0. -1.
         -1    1    3    3    0  502  0.78431234675E+02 -0.32734109883E+02 -0.38406381659E+03  0.39335479625E+03  0.00000000000E+00 0.  1.
         11    1    5    5    0    0 -0.84423356563E+02 -0.27865588128E+03 -0.15220790217E+03  0.32854778768E+03  0.00000000000E+00 0.  1.
        -11    1    5    5    0    0  0.17747028943E+02 -0.48811562714E+02 -0.52669389974E+02  0.73970198939E+02  0.00000000000E+00 0. -1.
          3    1    6    6  503    0 -0.14800062289E+01  0.25706124655E+02  0.56415875907E+02  0.62014081607E+02  0.00000000000E+00 0. -1.
         -3    1    6    6    0  503 -0.12954145010E+03  0.35333266398E+03  0.26553341592E+03  0.46057893319E+03  0.00000000000E+00 0.  1.
<mgrwt>
<rscale>  0 0.15117756E+04</rscale>
<asrwt>0</asrwt>
<pdfrwt beam="1">  1        2 0.16295951E+00 0.15117756E+04</pdfrwt>
<pdfrwt beam="2">  1       -1 0.82986657E-01 0.15117756E+04</pdfrwt>
<totfact> 0.36683332E+01</totfact>
</mgrwt>
</event>
<event>
12    6  0.1462228E-007  0.1634571E+04  0.7818608E-02  0.8799587E-01
         -1   -1    0    0    0  501 -0.00000000000E+00  0.00000000000E+00  0.38793875725E+03  0.38793875725E+03  0.00000000000E+00 0.  1.
          2   -1    0    0  501    0  0.00000000000E+00 -0.00000000000E+00 -0.17218069696E+04  0.17218069696E+04  0.00000000000E+00 0. -1.
         24    2    1    2    0    0 -0.27867621537E+03  0.26425521454E+03 -0.10038690925E+04  0.10776995089E+04  0.78688151391E+02 0.  0.
        254    2    1    2    0    0  0.27867621537E+03 -0.26425521454E+03 -0.32999911987E+03  0.10320462180E+04  0.89929345906E+03 0.  0.
         23    2    4    4    0    0  0.30748866693E+03  0.33379457502E+02  0.22650895672E+03  0.39406124038E+03  0.91183799139E+02 0.  0.
         23    2    4    4    0    0 -0.28812451563E+02 -0.29763467204E+03 -0.55650807659E+03  0.63798497760E+03  0.88921521397E+02 0.  0.
          4    1    3    3  502    0 -0.24888691235E+03  0.23261572684E+03 -0.94499005468E+03  0.10045202710E+04  0.00000000000E+00 0. -1.
         -3    1    3    3    0  502 -0.29789303017E+02  0.31639487697E+02 -0.58879037809E+02  0.73179237830E+02  0.00000000000E+00 0.  1.
         11    1    5    5    0    0  0.25089273811E+03  0.33867563824E+02  0.22296263745E+03  0.33735221300E+03  0.00000000000E+00 0.  1.
        -11    1    5    5    0    0  0.56595928819E+02 -0.48810632184E+00  0.35463192688E+01  0.56709027386E+02  0.00000000000E+00 0. -1.
          3    1    6    6  503    0 -0.49228839413E+02 -0.16333184482E+03 -0.36812812700E+03  0.40573277912E+03  0.00000000000E+00 0. -1.
         -3    1    6    6    0  503  0.20416387850E+02 -0.13430282722E+03 -0.18837994959E+03  0.23225219848E+03  0.00000000000E+00 0.  1.
<mgrwt>
<rscale>  0 0.16345711E+04</rscale>
<asrwt>0</asrwt>
<pdfrwt beam="1">  1        2 0.26489337E+00 0.16345711E+04</pdfrwt>
<pdfrwt beam="2">  1       -1 0.59682887E-01 0.16345711E+04</pdfrwt>
<totfact> 0.29572265E+01</totfact>
</mgrwt>
</event>
<event>
12    6  0.1462228E-007  0.2141562E+04  0.7818608E-02  0.8543153E-01
          2   -1    0    0  501    0  0.00000000000E+00  0.00000000000E+00  0.90499056535E+03  0.90499056535E+03  0.00000000000E+00 0. -1.
         -1   -1    0    0    0  501 -0.00000000000E+00 -0.00000000000E+00 -0.12669437719E+04  0.12669437719E+04  0.00000000000E+00 0.  1.
         24    2    1    2    0    0  0.10541218570E+02 -0.64216840607E+03  0.46302135738E+03  0.79576721567E+03  0.79782862179E+02 0.  0.
        254    2    1    2    0    0 -0.10541218570E+02  0.64216840607E+03 -0.82497456391E+03  0.13761671216E+04  0.89485280149E+03 0.  0.
         23    2    4    4    0    0 -0.39878661254E+03  0.29085389833E+03 -0.64014355713E+03  0.81338109073E+03  0.90433801829E+02 0.  0.
         23    2    4    4    0    0  0.38824539397E+03  0.35131450774E+03 -0.18483100678E+03  0.56278603083E+03  0.91701941897E+02 0.  0.
          4    1    3    3  502    0  0.16985121088E+02 -0.58619879164E+03  0.44643904931E+03  0.73703822317E+03  0.00000000000E+00 0. -1.
         -3    1    3    3    0  502 -0.64439025182E+01 -0.55969614436E+02  0.16582308067E+02  0.58728992504E+02  0.00000000000E+00 0.  1.
         11    1    5    5    0    0 -0.30000184506E+03  0.17020344204E+03 -0.46354197188E+03  0.57779016815E+03  0.00000000000E+00 0.  1.
        -11    1    5    5    0    0 -0.98784767479E+02  0.12065045629E+03 -0.17660158525E+03  0.23559092258E+03  0.00000000000E+00 0. -1.
          2    1    6    6  503    0  0.10913763891E+02 -0.36179765771E+01 -0.12160109182E+02  0.16735239828E+02  0.00000000000E+00 0. -1.
         -2    1    6    6    0  503  0.37733163008E+03  0.35493248432E+03 -0.17267089760E+03  0.54605079101E+03  0.00000000000E+00 0.  1.
<mgrwt>
<rscale>  0 0.21415622E+04</rscale>
<asrwt>0</asrwt>
<pdfrwt beam="1">  1        2 0.13922932E+00 0.21415622E+04</pdfrwt>
<pdfrwt beam="2">  1       -1 0.19491443E+00 0.21415622E+04</pdfrwt>
<totfact> 0.49757904E+00</totfact>
</mgrwt>
</event>
<event>
12    6  0.1462228E-007  0.2830612E+04  0.7818608E-02  0.8293827E-01
          2   -1    0    0  501    0  0.00000000000E+00  0.00000000000E+00  0.26547191458E+04  0.26547191458E+04  0.00000000000E+00 0. -1.
         -1   -1    0    0    0  501 -0.00000000000E+00 -0.00000000000E+00 -0.75453978515E+03  0.75453978515E+03  0.00000000000E+00 0.  1.
         24    2    1    2    0    0 -0.12365385055E+03 -0.12610959280E+04  0.75734737896E+03  0.14783773919E+04  0.79821338383E+02 0.  0.
        254    2    1    2    0    0  0.12365385055E+03  0.12610959280E+04  0.11428319817E+04  0.19308815391E+04  0.90365113034E+03 0.  0.
         23    2    4    4    0    0 -0.15117478182E+03 -0.73368296438E+02  0.14483859506E+03  0.23944487379E+03  0.90104979813E+02 0.  0.
         23    2    4    4    0    0  0.27482863237E+03  0.13344642244E+04  0.99799338663E+03  0.16914366653E+04  0.92960473265E+02 0.  0.
          2    1    3    3  502    0 -0.13490658368E+03 -0.11957897508E+04  0.71918995438E+03  0.14019083797E+04  0.00000000000E+00 0. -1.
         -1    1    3    3    0  502  0.11252733125E+02 -0.65306177137E+02  0.38157424585E+02  0.76469012194E+02  0.00000000000E+00 0.  1.
         11    1    5    5    0    0 -0.15034973461E+02 -0.49269718546E+02  0.29267422765E+02  0.59246414473E+02  0.00000000000E+00 0. -1.
        -11    1    5    5    0    0 -0.13613980836E+03 -0.24098577891E+02  0.11557117229E+03  0.18019845932E+03  0.00000000000E+00 0.  1.
          1    1    6    6  503    0  0.54634665515E+02  0.48556758450E+03  0.35307780241E+03  0.60284721145E+03  0.00000000000E+00 0. -1.
         -1    1    6    6    0  503  0.22019396685E+03  0.84889663990E+03  0.64491558422E+03  0.10885894539E+04  0.00000000000E+00 0.  1.
<mgrwt>
<rscale>  0 0.28306121E+04</rscale>
<asrwt>0</asrwt>
<pdfrwt beam="1">  1        2 0.40841833E+00 0.28306121E+04</pdfrwt>
<pdfrwt beam="2">  1       -1 0.11608304E+00 0.28306121E+04</pdfrwt>
<totfact> 0.18700034E+00</totfact>
</mgrwt>
</event>
<event>
12    6  0.1462228E-007  0.2074514E+04  0.7818608E-02  0.8572554E-01
          2   -1    0    0  501    0  0.00000000000E+00  0.00000000000E+00  0.25340988159E+04  0.25340988159E+04  0.00000000000E+00 0. -1.
         -1   -1    0    0    0  501 -0.00000000000E+00 -0.00000000000E+00 -0.42456996376E+03  0.42456996376E+03  0.00000000000E+00 0.  1.
         24    2    1    2    0    0  0.65983895765E+03  0.34552248143E+03  0.14228932868E+04  0.16079498952E+04  0.78130176300E+02 0.  0.
        254    2    1    2    0    0 -0.65983895765E+03 -0.34552248143E+03  0.68663556535E+03  0.13507188845E+04  0.89342032113E+03 0.  0.
         23    2    4    4    0    0 -0.41416752329E+03 -0.62444245298E+03  0.32041307865E+03  0.82092329055E+03  0.98931256743E+02 0.  0.
         23    2    4    4    0    0 -0.24567143436E+03  0.27891997155E+03  0.36622248670E+03  0.52979559398E+03  0.91725991111E+02 0.  0.
          4    1    3    3  502    0  0.60370601957E+02  0.54931119141E+02  0.12961242917E+03  0.15317120887E+03  0.00000000000E+00 0. -1.
         -3    1    3    3    0  502  0.59946835570E+03  0.29059136229E+03  0.12932808576E+04  0.14547786863E+04  0.00000000000E+00 0.  1.
         11    1    5    5    0    0 -0.13966569074E+03 -0.29861712444E+03  0.14649279432E+03  0.36074760008E+03  0.00000000000E+00 0.  1.
        -11    1    5    5    0    0 -0.27450183255E+03 -0.32582532854E+03  0.17392028433E+03  0.46017569047E+03  0.00000000000E+00 0. -1.
          4    1    6    6  503    0 -0.19899562633E+03  0.16160660117E+03  0.25389950259E+03  0.36080591771E+03  0.00000000000E+00 0.  1.
         -4    1    6    6    0  503 -0.46675808029E+02  0.11731337039E+03  0.11232298411E+03  0.16898967627E+03  0.00000000000E+00 0. -1.
<mgrwt>
<rscale>  0 0.20745142E+04</rscale>
<asrwt>0</asrwt>
<pdfrwt beam="1">  1        2 0.38986135E+00 0.20745142E+04</pdfrwt>
<pdfrwt beam="2">  1       -1 0.65318457E-01 0.20745142E+04</pdfrwt>
<totfact> 0.83096791E+00</totfact>
</mgrwt>
</event>
<event>
12    6  0.1462228E-007  0.1581969E+04  0.7818608E-02  0.8831702E-01
          2   -1    0    0  501    0  0.00000000000E+00  0.00000000000E+00  0.66658249757E+03  0.66658249757E+03  0.00000000000E+00 0. -1.
         -1   -1    0    0    0  501 -0.00000000000E+00 -0.00000000000E+00 -0.93860316308E+03  0.93860316308E+03  0.00000000000E+00 0.  1.
         24    2    1    2    0    0 -0.13622482552E+03 -0.77103318639E+02  0.41883175289E+03  0.45431549349E+03  0.80500966215E+02 0.  0.
        254    2    1    2    0    0  0.13622482552E+03  0.77103318639E+02 -0.69085241841E+03  0.11508701672E+04  0.90704076689E+03 0.  0.
         23    2    4    4    0    0  0.10962542493E+03  0.43789362535E+03 -0.13206598743E+03  0.47891932002E+03  0.90298001839E+02 0.  0.
         23    2    4    4    0    0  0.26599400583E+02 -0.36079030672E+03 -0.55878643097E+03  0.67195084714E+03  0.91643286697E+02 0.  0.
          2    1    3    3  502    0 -0.14393895139E+03 -0.66643874926E+02  0.34996914969E+03  0.38423720997E+03  0.00000000000E+00 0. -1.
         -1    1    3    3    0  502  0.77141258748E+01 -0.10459443714E+02  0.68862603209E+02  0.70078283523E+02  0.00000000000E+00 0.  1.
         11    1    5    5    0    0  0.89188418793E+02  0.23899628346E+03 -0.37848403016E+02  0.25788815243E+03  0.00000000000E+00 0.  1.
        -11    1    5    5    0    0  0.20437006141E+02  0.19889734189E+03 -0.94217584415E+02  0.22103116759E+03  0.00000000000E+00 0. -1.
          3    1    6    6  503    0  0.18620110095E+02 -0.66732131477E+02 -0.54546627569E+02  0.88177210494E+02  0.00000000000E+00 0. -1.
         -3    1    6    6    0  503  0.79792904885E+01 -0.29405817524E+03 -0.50423980341E+03  0.58377363664E+03  0.00000000000E+00 0.  1.
<mgrwt>
<rscale>  0 0.15819690E+04</rscale>
<asrwt>0</asrwt>
<pdfrwt beam="1">  1        2 0.10255115E+00 0.15819690E+04</pdfrwt>
<pdfrwt beam="2">  1       -1 0.14440049E+00 0.15819690E+04</pdfrwt>
<totfact> 0.18465834E+01</totfact>
</mgrwt>
</event>
<event>
12    6  0.1462228E-007  0.1184680E+04  0.7818608E-02  0.9126373E-01
         -1   -1    0    0    0  501 -0.00000000000E+00  0.00000000000E+00  0.17741870890E+03  0.17741870890E+03  0.00000000000E+00 0.  1.
          2   -1    0    0  501    0  0.00000000000E+00 -0.00000000000E+00 -0.19776201038E+04  0.19776201038E+04  0.00000000000E+00 0. -1.
         24    2    1    2    0    0  0.18616352024E+03 -0.16012709723E+03 -0.59685159189E+03  0.65022686291E+03  0.79155587150E+02 0.  0.
        254    2    1    2    0    0 -0.18616352024E+03  0.16012709723E+03 -0.12033498030E+04  0.15048119498E+04  0.86954626807E+03 0.  0.
         23    2    4    4    0    0  0.22557387257E+03  0.16032946093E+03 -0.98584934422E+03  0.10280091776E+04  0.91185699135E+02 0.  0.
         23    2    4    4    0    0 -0.41173739282E+03 -0.20236370712E+00 -0.21750045881E+03  0.47680277220E+03  0.10250225560E+03 0.  0.
          4    1    3    3  502    0  0.16687288916E+03 -0.10923166933E+03 -0.41559028643E+03  0.46097006941E+03  0.00000000000E+00 0. -1.
         -3    1    3    3    0  502  0.19290631084E+02 -0.50895427896E+02 -0.18126130546E+03  0.18925679350E+03  0.00000000000E+00 0.  1.
         11    1    5    5    0    0  0.17795452244E+03  0.80680884328E+02 -0.59352841878E+03  0.62486254573E+03  0.00000000000E+00 0. -1.
        -11    1    5    5    0    0  0.47619350128E+02  0.79648576605E+02 -0.39232092544E+03  0.40314663188E+03  0.00000000000E+00 0.  1.
          4    1    6    6  503    0 -0.11842459901E+03 -0.32440251995E+02 -0.10306956481E+03  0.16031247859E+03  0.00000000000E+00 0.  1.
         -4    1    6    6    0  503 -0.29331279381E+03  0.32237888288E+02 -0.11443089400E+03  0.31649029362E+03  0.00000000000E+00 0. -1.
<mgrwt>
<rscale>  0 0.11846802E+04</rscale>
<asrwt>0</asrwt>
<pdfrwt beam="1">  1        2 0.30424922E+00 0.11846802E+04</pdfrwt>
<pdfrwt beam="2">  1       -1 0.27295188E-01 0.11846802E+04</pdfrwt>
<totfact> 0.93230602E+01</totfact>
</mgrwt>
</event>
<event>
12    6  0.1462228E-007  0.1538387E+04  0.7818608E-02  0.8859320E-01
          2   -1    0    0  501    0  0.00000000000E+00  0.00000000000E+00  0.99182405368E+03  0.99182405368E+03  0.00000000000E+00 0. -1.
         -1   -1    0    0    0  501 -0.00000000000E+00 -0.00000000000E+00 -0.59653599148E+03  0.59653599148E+03  0.00000000000E+00 0.  1.
         24    2    1    2    0    0 -0.29671512337E+03 -0.33183019692E+03  0.36977213688E+03  0.58456086861E+03  0.82636746532E+02 0.  0.
        254    2    1    2    0    0  0.29671512337E+03  0.33183019692E+03  0.25515925320E+02  0.10037991766E+04  0.89933896857E+03 0.  0.
         23    2    4    4    0    0  0.54991697160E+03  0.41465632727E+03 -0.83099328668E+02  0.70038650299E+03  0.96370170422E+02 0.  0.
         23    2    4    4    0    0 -0.25320184823E+03 -0.82826130351E+02  0.10861525399E+03  0.30341267356E+03  0.96387931113E+02 0.  0.
          2    1    3    3  502    0  0.27280688271E+01  0.23422007295E+01  0.92721595644E+00  0.37132187133E+01  0.00000000000E+00 0. -1.
         -1    1    3    3    0  502 -0.29944319219E+03 -0.33417239765E+03  0.36884492093E+03  0.58084764990E+03  0.00000000000E+00 0.  1.
         11    1    5    5    0    0  0.37837204131E+03  0.23430904480E+03 -0.31263161773E+02  0.44614293158E+03  0.00000000000E+00 0. -1.
        -11    1    5    5    0    0  0.17154493029E+03  0.18034728247E+03 -0.51836166895E+02  0.25424357140E+03  0.00000000000E+00 0.  1.
          2    1    6    6  503    0  0.69259151327E+01 -0.10461892722E+02  0.47273864080E+00  0.12555595628E+02  0.00000000000E+00 0.  1.
         -2    1    6    6    0  503 -0.26012776336E+03 -0.72364237629E+02  0.10814251535E+03  0.29085707794E+03  0.00000000000E+00 0. -1.
<mgrwt>
<rscale>  0 0.15383871E+04</rscale>
<asrwt>0</asrwt>
<pdfrwt beam="1">  1        2 0.15258832E+00 0.15383871E+04</pdfrwt>
<pdfrwt beam="2">  1       -1 0.91774768E-01 0.15383871E+04</pdfrwt>
<totfact> 0.32426798E+01</totfact>
</mgrwt>
</event>
<event>
12    6  0.1462228E-007  0.1806716E+04  0.7818608E-02  0.8702736E-01
         -1   -1    0    0    0  501 -0.00000000000E+00  0.00000000000E+00  0.11539087025E+04  0.11539087025E+04  0.00000000000E+00 0.  1.
          2   -1    0    0  501    0  0.00000000000E+00 -0.00000000000E+00 -0.70720966985E+03  0.70720966985E+03  0.00000000000E+00 0. -1.
         24    2    1    2    0    0 -0.33441168506E+03  0.16033102689E+03  0.75904881641E+03  0.84942588070E+03  0.88498631765E+02 0.  0.
        254    2    1    2    0    0  0.33441168506E+03 -0.16033102689E+03 -0.31234978379E+03  0.10116924916E+04  0.88793135820E+03 0.  0.
         23    2    4    4    0    0 -0.33028427148E+02 -0.46333743169E+03 -0.12042292260E+03  0.48825690531E+03  0.90114775076E+02 0.  0.
         23    2    4    4    0    0  0.36744011221E+03  0.30300640481E+03 -0.19192686119E+03  0.52343558631E+03  0.10160598189E+03 0.  0.
          4    1    3    3  502    0 -0.15536817967E+03  0.72783556482E+02  0.25441353458E+03  0.30685984411E+03  0.00000000000E+00 0. -1.
         -3    1    3    3    0  502 -0.17904350538E+03  0.87547470404E+02  0.50463528183E+03  0.54256603659E+03  0.00000000000E+00 0.  1.
         11    1    5    5    0    0  0.26698313562E+02 -0.21284967784E+03 -0.37844298778E+02  0.21783015460E+03  0.00000000000E+00 0.  1.
        -11    1    5    5    0    0 -0.59726740710E+02 -0.25048775385E+03 -0.82578623822E+02  0.27042675071E+03  0.00000000000E+00 0. -1.
          1    1    6    6  503    0  0.24324595872E+03  0.24764067776E+03 -0.16695105302E+03  0.38518457371E+03  0.00000000000E+00 0. -1.
         -1    1    6    6    0  503  0.12419415349E+03  0.55365727045E+02 -0.24975808163E+02  0.13825101260E+03  0.00000000000E+00 0.  1.
<mgrwt>
<rscale>  0 0.18067157E+04</rscale>
<asrwt>0</asrwt>
<pdfrwt beam="1">  1        2 0.10880149E+00 0.18067157E+04</pdfrwt>
<pdfrwt beam="2">  1       -1 0.17752442E+00 0.18067157E+04</pdfrwt>
<totfact> 0.94475870E+00</totfact>
</mgrwt>
</event>
<event>
12    6  0.1462228E-007  0.2964162E+04  0.7818608E-02  0.8254039E-01
          2   -1    0    0  501    0  0.00000000000E+00  0.00000000000E+00  0.25908516560E+04  0.25908516560E+04  0.00000000000E+00 0. -1.
         -1   -1    0    0    0  501 -0.00000000000E+00 -0.00000000000E+00 -0.84781566638E+03  0.84781566638E+03  0.00000000000E+00 0.  1.
         24    2    1    2    0    0  0.96929397524E+03 -0.75752637357E+03  0.14192352009E+04  0.18799441609E+04  0.81144781131E+02 0.  0.
        254    2    1    2    0    0 -0.96929397524E+03  0.75752637357E+03  0.32380078876E+03  0.15587231615E+04  0.90077407066E+03 0.  0.
         23    2    4    4    0    0 -0.62214569597E+03  0.34853639719E+03  0.61126266571E+03  0.94387361649E+03  0.93340614005E+02 0.  0.
         23    2    4    4    0    0 -0.34714827927E+03  0.40898997638E+03 -0.28746187695E+03  0.61484954504E+03  0.87297787814E+02 0.  0.
          2    1    3    3  502    0  0.87895639814E+03 -0.69682445643E+03  0.13246545935E+04  0.17357529965E+04  0.00000000000E+00 0. -1.
         -1    1    3    3    0  502  0.90337577099E+02 -0.60701917145E+02  0.94580607378E+02  0.14419116434E+03  0.00000000000E+00 0.  1.
         11    1    5    5    0    0 -0.26135357508E+03  0.19300254290E+03  0.30632685861E+03  0.44653310860E+03  0.00000000000E+00 0. -1.
        -11    1    5    5    0    0 -0.36079212090E+03  0.15553385430E+03  0.30493580710E+03  0.49734050788E+03  0.00000000000E+00 0.  1.
          1    1    6    6  503    0 -0.80357909173E+02  0.46279419751E+02 -0.39162605365E+02  0.10066224674E+03  0.00000000000E+00 0. -1.
         -1    1    6    6    0  503 -0.26679037009E+03  0.36271055663E+03 -0.24829927158E+03  0.51418729830E+03  0.00000000000E+00 0.  1.
<mgrwt>
<rscale>  0 0.29641624E+04</rscale>
<asrwt>0</asrwt>
<pdfrwt beam="1">  1        2 0.39859256E+00 0.29641624E+04</pdfrwt>
<pdfrwt beam="2">  1       -1 0.13043318E+00 0.29641624E+04</pdfrwt>
<totfact> 0.15114808E+00</totfact>
</mgrwt>
</event>
<event>
12    6  0.1462228E-007  0.2357782E+04  0.7818608E-02  0.8455481E-01
          2   -1    0    0  501    0  0.00000000000E+00  0.00000000000E+00  0.26783640531E+04  0.26783640531E+04  0.00000000000E+00 0. -1.
         -1   -1    0    0    0  501 -0.00000000000E+00 -0.00000000000E+00 -0.51889276018E+03  0.51889276018E+03  0.00000000000E+00 0.  1.
         24    2    1    2    0    0  0.43627858622E+03  0.90728691997E+03  0.97800888232E+03  0.14059130722E+04  0.81127262111E+02 0.  0.
        254    2    1    2    0    0 -0.43627858622E+03 -0.90728691997E+03  0.11814624106E+04  0.17913437411E+04  0.89417582789E+03 0.  0.
         23    2    4    4    0    0  0.20703379483E+03 -0.37631651779E+03  0.69316550229E+03  0.82040495315E+03  0.90048652586E+02 0.  0.
         23    2    4    4    0    0 -0.64331238105E+03 -0.53097040218E+03  0.48829690830E+03  0.97093878794E+03  0.92238124779E+02 0.  0.
          2    1    3    3  502    0  0.32951481306E+03  0.60948347603E+03  0.64558639732E+03  0.94701209918E+03  0.00000000000E+00 0. -1.
         -1    1    3    3    0  502  0.10676377316E+03  0.29780344394E+03  0.33242248500E+03  0.45890097299E+03  0.00000000000E+00 0.  1.
         11    1    5    5    0    0  0.66489779653E-01 -0.50889977597E+02  0.11063348877E+03  0.12177669349E+03  0.00000000000E+00 0. -1.
        -11    1    5    5    0    0  0.20696730505E+03 -0.32542654019E+03  0.58253201352E+03  0.69862825966E+03  0.00000000000E+00 0.  1.
          4    1    6    6  503    0 -0.10449324455E+02 -0.27121966190E+01  0.20312913246E+02  0.23003452710E+02  0.00000000000E+00 0. -1.
         -4    1    6    6    0  503 -0.63286305660E+03 -0.52825820557E+03  0.46798399505E+03  0.94793533523E+03  0.00000000000E+00 0.  1.
<mgrwt>
<rscale>  0 0.23577818E+04</rscale>
<asrwt>0</asrwt>
<pdfrwt beam="1">  1        2 0.41205600E+00 0.23577818E+04</pdfrwt>
<pdfrwt beam="2">  1       -1 0.79829657E-01 0.23577818E+04</pdfrwt>
<totfact> 0.44003660E+00</totfact>
</mgrwt>
</event>
<event>
12    6  0.1462228E-007  0.2203638E+04  0.7818608E-02  0.8516916E-01
         -1   -1    0    0    0  501 -0.00000000000E+00  0.00000000000E+00  0.17057305614E+04  0.17057305614E+04  0.00000000000E+00 0.  1.
          2   -1    0    0  501    0  0.00000000000E+00 -0.00000000000E+00 -0.71172128208E+03  0.71172128208E+03  0.00000000000E+00 0. -1.
         24    2    1    2    0    0 -0.10103104026E+02  0.34593095183E+03  0.13432131236E+04  0.13893734767E+04  0.79792645010E+02 0.  0.
        254    2    1    2    0    0  0.10103104026E+02 -0.34593095183E+03 -0.34920384430E+03  0.10280783668E+04  0.90290171514E+03 0.  0.
         23    2    4    4    0    0  0.71481884975E+02 -0.31740846723E+03  0.24797689396E+03  0.42005793454E+03  0.95385184840E+02 0.  0.
         23    2    4    4    0    0 -0.61378780950E+02 -0.28522484604E+02 -0.59718073826E+03  0.60802043223E+03  0.92103881459E+02 0.  0.
          4    1    3    3  502    0  0.27040792949E+01  0.88846084432E+01  0.12454794650E+03  0.12489371197E+03  0.00000000000E+00 0. -1.
         -3    1    3    3    0  502 -0.12807183321E+02  0.33704634339E+03  0.12186651771E+04  0.12644797647E+04  0.00000000000E+00 0.  1.
         11    1    5    5    0    0  0.13550924105E+02 -0.24123489345E+03  0.15790924608E+03  0.28864031486E+03  0.00000000000E+00 0.  1.
        -11    1    5    5    0    0  0.57930960871E+02 -0.76173573773E+02  0.90067647884E+02  0.13141761969E+03  0.00000000000E+00 0. -1.
          3    1    6    6  503    0 -0.56157115736E+02 -0.36346026719E+02 -0.20319768961E+03  0.21392511860E+03  0.00000000000E+00 0. -1.
         -3    1    6    6    0  503 -0.52216652140E+01  0.78235421152E+01 -0.39398304865E+03  0.39409531363E+03  0.00000000000E+00 0.  1.
<mgrwt>
<rscale>  0 0.22036377E+04</rscale>
<asrwt>0</asrwt>
<pdfrwt beam="1">  1        2 0.10949558E+00 0.22036377E+04</pdfrwt>
<pdfrwt beam="2">  1       -1 0.26242009E+00 0.22036377E+04</pdfrwt>
<totfact> 0.24208600E+00</totfact>
</mgrwt>
</event>
<event>
12    6  0.1462228E-007  0.2335991E+04  0.7818608E-02  0.8463864E-01
          2   -1    0    0  501    0  0.00000000000E+00  0.00000000000E+00  0.25072789925E+04  0.25072789925E+04  0.00000000000E+00 0. -1.
         -1   -1    0    0    0  501 -0.00000000000E+00 -0.00000000000E+00 -0.54410139408E+03  0.54410139408E+03  0.00000000000E+00 0.  1.
         24    2    1    2    0    0  0.51977426944E+03  0.17927049549E+02  0.18365030672E+04  0.19101694796E+04  0.74278222879E+02 0.  0.
        254    2    1    2    0    0 -0.51977426944E+03 -0.17927049549E+02  0.12667453119E+03  0.11412109070E+04  0.10078835385E+04 0.  0.
         23    2    4    4    0    0  0.28809117034E+03  0.71631068508E+02 -0.14942004155E+02  0.31103983848E+03  0.91624151999E+02 0.  0.
         23    2    4    4    0    0 -0.80786543978E+03 -0.89558118057E+02  0.14161653534E+03  0.83017106854E+03  0.91986600377E+02 0.  0.
          4    1    3    3  502    0  0.24910638766E+03  0.41327768753E+02  0.82111271017E+03  0.85906231418E+03  0.00000000000E+00 0. -1.
         -3    1    3    3    0  502  0.27066788178E+03 -0.23400719204E+02  0.10153903571E+04  0.10511071654E+04  0.00000000000E+00 0.  1.
         11    1    5    5    0    0  0.78089676995E+02  0.61104156916E+02 -0.17879655862E+02  0.10075414502E+03  0.00000000000E+00 0.  1.
        -11    1    5    5    0    0  0.21000149334E+03  0.10526911592E+02  0.29376517065E+01  0.21028569345E+03  0.00000000000E+00 0. -1.
          4    1    6    6  503    0 -0.40496890602E+03 -0.16596341781E+02  0.33519024129E+02  0.40669248626E+03  0.00000000000E+00 0. -1.
         -4    1    6    6    0  503 -0.40289653376E+03 -0.72961776275E+02  0.10809751121E+03  0.42347858227E+03  0.00000000000E+00 0.  1.
<mgrwt>
<rscale>  0 0.23359914E+04</rscale>
<asrwt>0</asrwt>
<pdfrwt beam="1">  1        2 0.38573522E+00 0.23359914E+04</pdfrwt>
<pdfrwt beam="2">  1       -1 0.83707908E-01 0.23359914E+04</pdfrwt>
<totfact> 0.50175336E+00</totfact>
</mgrwt>
</event>
<event>
12    6  0.1462228E-007  0.1715720E+04  0.7818608E-02  0.8752449E-01
          2   -1    0    0  501    0  0.00000000000E+00  0.00000000000E+00  0.20666537248E+04  0.20666537248E+04  0.00000000000E+00 0. -1.
         -1   -1    0    0    0  501 -0.00000000000E+00 -0.00000000000E+00 -0.35609441349E+03  0.35609441349E+03  0.00000000000E+00 0.  1.
         24    2    1    2    0    0  0.56040627485E+03 -0.23326879353E+03  0.49728291415E+03  0.78880654189E+03  0.80348869914E+02 0.  0.
        254    2    1    2    0    0 -0.56040627485E+03  0.23326879353E+03  0.12132763971E+04  0.16339415964E+04  0.91063494420E+03 0.  0.
         23    2    4    4    0    0 -0.35618302782E+03 -0.32285556404E+03  0.63271273575E+03  0.79976299165E+03  0.90517248598E+02 0.  0.
         23    2    4    4    0    0 -0.20422324703E+03  0.55612435758E+03  0.58056366138E+03  0.83417860472E+03  0.88421399799E+02 0.  0.
          4    1    3    3  502    0  0.46099652123E+03 -0.21809861635E+03  0.39216035416E+03  0.64333081880E+03  0.00000000000E+00 0. -1.
         -3    1    3    3    0  502  0.99409753617E+02 -0.15170177181E+02  0.10512255999E+03  0.14547572309E+03  0.00000000000E+00 0.  1.
         11    1    5    5    0    0 -0.26308926661E+03 -0.18074794535E+03  0.40529572724E+03  0.51589767249E+03  0.00000000000E+00 0.  1.
        -11    1    5    5    0    0 -0.93093761203E+02 -0.14210761869E+03  0.22741700851E+03  0.28386531917E+03  0.00000000000E+00 0. -1.
          3    1    6    6  503    0 -0.11757412038E+03  0.21088398240E+03  0.26489921358E+03  0.35842338257E+03  0.00000000000E+00 0. -1.
         -3    1    6    6    0  503 -0.86649126650E+02  0.34524037518E+03  0.31566444780E+03  0.47575522216E+03  0.00000000000E+00 0.  1.
<mgrwt>
<rscale>  0 0.17157201E+04</rscale>
<asrwt>0</asrwt>
<pdfrwt beam="1">  1        2 0.31794672E+00 0.17157201E+04</pdfrwt>
<pdfrwt beam="2">  1       -1 0.54783757E-01 0.17157201E+04</pdfrwt>
<totfact> 0.22355236E+01</totfact>
</mgrwt>
</event>
<event>
12    6  0.1462228E-007  0.2357710E+04  0.7818608E-02  0.8455508E-01
         -1   -1    0    0    0  501 -0.00000000000E+00  0.00000000000E+00  0.13288835809E+04  0.13288835809E+04  0.00000000000E+00 0.  1.
          2   -1    0    0  501    0  0.00000000000E+00 -0.00000000000E+00 -0.10457642818E+04  0.10457642818E+04  0.00000000000E+00 0. -1.
         24    2    1    2    0    0 -0.88037524177E+03  0.31758298182E+03 -0.20359994382E+03  0.96094245909E+03  0.77704284948E+02 0.  0.
        254    2    1    2    0    0  0.88037524177E+03 -0.31758298182E+03  0.48671924298E+03  0.14137054036E+04  0.94114176939E+03 0.  0.
         23    2    4    4    0    0  0.10193509831E+04 -0.41314809219E+03  0.51828693451E+03  0.12190934594E+04  0.88316155903E+02 0.  0.
         23    2    4    4    0    0 -0.13897574138E+03  0.95565110363E+02 -0.31567691534E+02  0.19461194421E+03  0.91816897506E+02 0.  0.
          4    1    3    3  502    0 -0.77901249341E+03  0.30282022960E+03 -0.19431576088E+03  0.85809042139E+03  0.00000000000E+00 0. -1.
         -3    1    3    3    0  502 -0.10136274836E+03  0.14762752223E+02 -0.92841829448E+01  0.10285203771E+03  0.00000000000E+00 0.  1.
         11    1    5    5    0    0  0.48653725565E+03 -0.15005013217E+03  0.23319776792E+03  0.56001316258E+03  0.00000000000E+00 0. -1.
        -11    1    5    5    0    0  0.53281372750E+03 -0.26309796002E+03  0.28508916659E+03  0.65908029684E+03  0.00000000000E+00 0.  1.
          4    1    6    6  503    0 -0.75601277585E+02  0.18229190476E+02 -0.50668696712E+02  0.92817958308E+02  0.00000000000E+00 0. -1.
         -4    1    6    6    0  503 -0.63374463795E+02  0.77335919887E+02  0.19101005178E+02  0.10179398590E+03  0.00000000000E+00 0.  1.
<mgrwt>
<rscale>  0 0.23577099E+04</rscale>
<asrwt>0</asrwt>
<pdfrwt beam="1">  1        2 0.16088681E+00 0.23577099E+04</pdfrwt>
<pdfrwt beam="2">  1       -1 0.20444363E+00 0.23577099E+04</pdfrwt>
<totfact> 0.33991087E+00</totfact>
</mgrwt>
</event>
<event>
12    6  0.1462228E-007  0.2124619E+04  0.7818608E-02  0.8550476E-01
         -1   -1    0    0    0  501 -0.00000000000E+00  0.00000000000E+00  0.89955690451E+03  0.89955690451E+03  0.00000000000E+00 0.  1.
          2   -1    0    0  501    0  0.00000000000E+00 -0.00000000000E+00 -0.12545076261E+04  0.12545076261E+04  0.00000000000E+00 0. -1.
         24    2    1    2    0    0 -0.28165038017E+02  0.11502165883E+03  0.73095578932E+03  0.74492397601E+03  0.81191826680E+02 0.  0.
        254    2    1    2    0    0  0.28165038017E+02 -0.11502165883E+03 -0.10859065109E+04  0.14091405546E+04  0.89020273018E+03 0.  0.
         23    2    4    4    0    0 -0.13593049923E+03  0.29297886808E+03 -0.82221155504E+03  0.88803585405E+03  0.90896199447E+02 0.  0.
         23    2    4    4    0    0  0.16409553725E+03 -0.40800052691E+03 -0.26369495587E+03  0.52110470055E+03  0.92861746047E+02 0.  0.
          2    1    3    3  502    0  0.16447403334E+02  0.64512994006E+01  0.35734667625E+02  0.39863552409E+02  0.00000000000E+00 0. -1.
         -1    1    3    3    0  502 -0.44612441351E+02  0.10857035943E+03  0.69522112170E+03  0.70506042360E+03  0.00000000000E+00 0.  1.
         11    1    5    5    0    0 -0.13102730868E+03  0.27755086625E+03 -0.69443854583E+03  0.75924141939E+03  0.00000000000E+00 0.  1.
        -11    1    5    5    0    0 -0.49031905557E+01  0.15428001829E+02 -0.12777300921E+03  0.12879443466E+03  0.00000000000E+00 0. -1.
          3    1    6    6  503    0  0.12163740015E+03 -0.21316747883E+03 -0.10812387540E+03  0.26819172914E+03  0.00000000000E+00 0. -1.
         -3    1    6    6    0  503  0.42458137103E+02 -0.19483304808E+03 -0.15557108047E+03  0.25291297141E+03  0.00000000000E+00 0.  1.
<mgrwt>
<rscale>  0 0.21246186E+04</rscale>
<asrwt>0</asrwt>
<pdfrwt beam="1">  1        2 0.19300117E+00 0.21246186E+04</pdfrwt>
<pdfrwt beam="2">  1       -1 0.13839337E+00 0.21246186E+04</pdfrwt>
<totfact> 0.79622715E+00</totfact>
</mgrwt>
</event>
<event>
12    6  0.1462228E-007  0.2409419E+04  0.7818608E-02  0.8435986E-01
         -1   -1    0    0    0  501 -0.00000000000E+00  0.00000000000E+00  0.11367089073E+04  0.11367089073E+04  0.00000000000E+00 0.  1.
          2   -1    0    0  501    0  0.00000000000E+00 -0.00000000000E+00 -0.12767781885E+04  0.12767781885E+04  0.00000000000E+00 0. -1.
         24    2    1    2    0    0 -0.30808269697E+03 -0.58873152336E+02 -0.10472406742E+04  0.10958820460E+04  0.76573054355E+02 0.  0.
        254    2    1    2    0    0  0.30808269697E+03  0.58873152336E+02  0.90717139300E+03  0.13176050498E+04  0.90263067463E+03 0.  0.
         23    2    4    4    0    0  0.40141545930E+03 -0.15615700798E+03  0.71057713899E+02  0.44564833453E+03  0.89631787125E+02 0.  0.
         23    2    4    4    0    0 -0.93332762333E+02  0.21503016031E+03  0.83611367910E+03  0.87195671528E+03  0.79205142320E+02 0.  0.
          2    1    3    3  502    0 -0.30484159542E+03 -0.57913013866E+02 -0.96687919329E+03  0.10154495014E+04  0.00000000000E+00 0. -1.
         -1    1    3    3    0  502 -0.32411015405E+01 -0.96013846986E+00 -0.80361480932E+02  0.80432544549E+02  0.00000000000E+00 0.  1.
         11    1    5    5    0    0  0.26553004149E+03 -0.56605161165E+02  0.44112268894E+02  0.27505679317E+03  0.00000000000E+00 0. -1.
        -11    1    5    5    0    0  0.13588541781E+03 -0.99551846813E+02  0.26945445005E+02  0.17059154136E+03  0.00000000000E+00 0.  1.
          3    1    6    6  503    0 -0.47667584145E+02  0.52294854617E+02  0.15843821791E+03  0.17352123586E+03  0.00000000000E+00 0. -1.
         -3    1    6    6    0  503 -0.45665178188E+02  0.16273530570E+03  0.67767546119E+03  0.69843547942E+03  0.00000000000E+00 0.  1.
<mgrwt>
<rscale>  0 0.24094191E+04</rscale>
<asrwt>0</asrwt>
<pdfrwt beam="1">  1        2 0.19642741E+00 0.24094191E+04</pdfrwt>
<pdfrwt beam="2">  1       -1 0.17487829E+00 0.24094191E+04</pdfrwt>
<totfact> 0.39588359E+00</totfact>
</mgrwt>
</event>
<event>
12    6  0.1462228E-007  0.2022634E+04  0.7818608E-02  0.8596111E-01
          2   -1    0    0  501    0  0.00000000000E+00  0.00000000000E+00  0.39171035497E+04  0.39171035497E+04  0.00000000000E+00 0. -1.
         -1   -1    0    0    0  501 -0.00000000000E+00 -0.00000000000E+00 -0.26110150897E+03  0.26110150897E+03  0.00000000000E+00 0.  1.
         24    2    1    2    0    0 -0.78462307566E+03 -0.11196888633E+03  0.10907662873E+04  0.13505856085E+04  0.78358088758E+02 0.  0.
        254    2    1    2    0    0  0.78462307566E+03  0.11196888633E+03  0.25652357534E+04  0.28276194501E+04  0.88703262723E+03 0.  0.
         23    2    4    4    0    0  0.23554619863E+03 -0.11558748113E+03  0.10818504700E+03  0.29808929647E+03  0.91163297406E+02 0.  0.
         23    2    4    4    0    0  0.54907687704E+03  0.22755636746E+03  0.24570507064E+04  0.25295301536E+04  0.90317811712E+02 0.  0.
          2    1    3    3  502    0 -0.62982574617E+02 -0.19399944035E+02  0.61507909343E+02  0.90146466629E+02  0.00000000000E+00 0. -1.
         -1    1    3    3    0  502 -0.72164050105E+03 -0.92568942296E+02  0.10292583779E+04  0.12604391419E+04  0.00000000000E+00 0.  1.
         11    1    5    5    0    0  0.90244491951E+02 -0.31650553094E+02  0.86390416858E+02  0.12887641353E+03  0.00000000000E+00 0.  1.
        -11    1    5    5    0    0  0.14530170668E+03 -0.83936928037E+02  0.21794630146E+02  0.16921288294E+03  0.00000000000E+00 0. -1.
          4    1    6    6  503    0  0.53292478122E+03  0.21928000837E+03  0.24265304125E+04  0.24940213286E+04  0.00000000000E+00 0. -1.
         -4    1    6    6    0  503  0.16152095821E+02  0.82763590901E+01  0.30520293864E+02  0.35508825054E+02  0.00000000000E+00 0.  1.
<mgrwt>
<rscale>  0 0.20226336E+04</rscale>
<asrwt>0</asrwt>
<pdfrwt beam="1">  1        2 0.60263127E+00 0.20226336E+04</pdfrwt>
<pdfrwt beam="2">  1       -1 0.40169466E-01 0.20226336E+04</pdfrwt>
<totfact> 0.25658985E+00</totfact>
</mgrwt>
</event>
<event>
12    6  0.1462228E-007  0.1515667E+04  0.7818608E-02  0.8874101E-01
          2   -1    0    0  501    0  0.00000000000E+00  0.00000000000E+00  0.56795247170E+03  0.56795247170E+03  0.00000000000E+00 0. -1.
         -1   -1    0    0    0  501 -0.00000000000E+00 -0.00000000000E+00 -0.10111969477E+04  0.10111969477E+04  0.00000000000E+00 0.  1.
         24    2    1    2    0    0  0.26431684932E+02  0.16532601371E+03 -0.61942023734E+03  0.64727475158E+03  0.85157787789E+02 0.  0.
        254    2    1    2    0    0 -0.26431684932E+02 -0.16532601371E+03  0.17617576136E+03  0.93187466781E+03  0.89962279475E+03 0.  0.
         23    2    4    4    0    0 -0.99324799459E+02 -0.52150411220E+03  0.83140257026E+02  0.54589633893E+03  0.96221388956E+02 0.  0.
         23    2    4    4    0    0  0.72893114528E+02  0.35617809849E+03  0.93035504335E+02  0.38597832888E+03  0.90263067249E+02 0.  0.
          4    1    3    3  502    0  0.82878191828E+01 -0.68363486376E+01 -0.14346952140E+02  0.17923689497E+02  0.00000000000E+00 0. -1.
         -3    1    3    3    0  502  0.18143865749E+02  0.17216236235E+03 -0.60507328521E+03  0.62935106208E+03  0.00000000000E+00 0.  1.
         11    1    5    5    0    0 -0.77078956822E+02 -0.49180437953E+03  0.95299201620E+02  0.50684775933E+03  0.00000000000E+00 0. -1.
        -11    1    5    5    0    0 -0.22245842637E+02 -0.29699732675E+02 -0.12158944594E+02  0.39048579606E+02  0.00000000000E+00 0.  1.
          1    1    6    6  503    0  0.71996265970E+02  0.34647929431E+03  0.69682898250E+02  0.36067585171E+03  0.00000000000E+00 0. -1.
         -1    1    6    6    0  503  0.89684855717E+00  0.96988041763E+01  0.23352606084E+02  0.25302477166E+02  0.00000000000E+00 0.  1.
<mgrwt>
<rscale>  0 0.15156673E+04</rscale>
<asrwt>0</asrwt>
<pdfrwt beam="1">  1        2 0.87377304E-01 0.15156673E+04</pdfrwt>
<pdfrwt beam="2">  1       -1 0.15556876E+00 0.15156673E+04</pdfrwt>
<totfact> 0.18462122E+01</totfact>
</mgrwt>
</event>
<event>
12    6  0.1462228E-007  0.2395218E+04  0.7818608E-02  0.8441296E-01
          2   -1    0    0  501    0  0.00000000000E+00  0.00000000000E+00  0.36234584023E+04  0.36234584023E+04  0.00000000000E+00 0. -1.
         -1   -1    0    0    0  501 -0.00000000000E+00 -0.00000000000E+00 -0.39582830807E+03  0.39582830807E+03  0.00000000000E+00 0.  1.
         24    2    1    2    0    0  0.18148641395E+03  0.43688268192E+03  0.28303931380E+04  0.28707591231E+04  0.79553949888E+02 0.  0.
        254    2    1    2    0    0 -0.18148641395E+03 -0.43688268192E+03  0.39723695619E+03  0.11485275873E+04  0.96825338786E+03 0.  0.
         23    2    4    4    0    0  0.16449663660E+03  0.49284111843E+02  0.49953745719E+03  0.53627628590E+03  0.92555478256E+02 0.  0.
         23    2    4    4    0    0 -0.34598305055E+03 -0.48616679377E+03 -0.10230050100E+03  0.61225130135E+03  0.91235085765E+02 0.  0.
          4    1    3    3  502    0  0.15452342342E+03  0.41178180030E+03  0.25085569546E+04  0.25468214963E+04  0.00000000000E+00 0. -1.
         -3    1    3    3    0  502  0.26962990525E+02  0.25100881623E+02  0.32183618336E+03  0.32393762676E+03  0.00000000000E+00 0.  1.
         11    1    5    5    0    0  0.64210410790E+02  0.60357045590E+02  0.30007301174E+03  0.31274552303E+03  0.00000000000E+00 0.  1.
        -11    1    5    5    0    0  0.10028622581E+03 -0.11072933747E+02  0.19946444545E+03  0.22353076287E+03  0.00000000000E+00 0. -1.
          4    1    6    6  503    0 -0.22420079675E+03 -0.25215293496E+03 -0.84576516261E+02  0.34785095512E+03  0.00000000000E+00 0. -1.
         -4    1    6    6    0  503 -0.12178225379E+03 -0.23401385881E+03 -0.17723984735E+02  0.26440034623E+03  0.00000000000E+00 0.  1.
<mgrwt>
<rscale>  0 0.23952181E+04</rscale>
<asrwt>0</asrwt>
<pdfrwt beam="1">  1        2 0.55745512E+00 0.23952181E+04</pdfrwt>
<pdfrwt beam="2">  1       -1 0.60896665E-01 0.23952181E+04</pdfrwt>
<totfact> 0.18628545E+00</totfact>
</mgrwt>
</event>
<event>
12    6  0.1462228E-007  0.1524496E+04  0.7818608E-02  0.8868325E-01
         -1   -1    0    0    0  501 -0.00000000000E+00  0.00000000000E+00  0.35363283915E+03  0.35363283915E+03  0.00000000000E+00 0.  1.
          2   -1    0    0  501    0  0.00000000000E+00 -0.00000000000E+00 -0.16430090887E+04  0.16430090887E+04  0.00000000000E+00 0. -1.
         24    2    1    2    0    0  0.33610530296E+03  0.77882360765E+02  0.34812707330E+02  0.35592392201E+03  0.80233888551E+02 0.  0.
        254    2    1    2    0    0 -0.33610530296E+03 -0.77882360765E+02 -0.13241889569E+04  0.16407180059E+04  0.90523297795E+03 0.  0.
         23    2    4    4    0    0 -0.22477362804E+03 -0.32383146931E+03 -0.12924948975E+04  0.13541825973E+04  0.88754957036E+02 0.  0.
         23    2    4    4    0    0 -0.11133167492E+03  0.24594910855E+03 -0.31694059397E+02  0.28653540855E+03  0.90621857834E+02 0.  0.
          4    1    3    3  502    0  0.86166144645E+02  0.53443629244E+02 -0.56606197598E+01  0.10155229493E+03  0.00000000000E+00 0. -1.
         -3    1    3    3    0  502  0.24993915831E+03  0.24438731521E+02  0.40473327090E+02  0.25437162708E+03  0.00000000000E+00 0.  1.
         11    1    5    5    0    0 -0.96620049570E+02 -0.15713838099E+03 -0.75035496945E+03  0.77269689072E+03  0.00000000000E+00 0.  1.
        -11    1    5    5    0    0 -0.12815357847E+03 -0.16669308832E+03 -0.54213992806E+03  0.58148570658E+03  0.00000000000E+00 0. -1.
          2    1    6    6  503    0  0.13178238493E+02  0.12666459347E+02  0.64177958658E+01  0.19372487345E+02  0.00000000000E+00 0. -1.
         -2    1    6    6    0  503 -0.12450991341E+03  0.23328264920E+03 -0.38111855263E+02  0.26716292121E+03  0.00000000000E+00 0.  1.
<mgrwt>
<rscale>  0 0.15244959E+04</rscale>
<asrwt>0</asrwt>
<pdfrwt beam="1">  1        2 0.25277063E+00 0.15244959E+04</pdfrwt>
<pdfrwt beam="2">  1       -1 0.54405052E-01 0.15244959E+04</pdfrwt>
<totfact> 0.39558064E+01</totfact>
</mgrwt>
</event>
<event>
12    6  0.1462228E-007  0.2499583E+04  0.7818608E-02  0.8403134E-01
          2   -1    0    0  501    0  0.00000000000E+00  0.00000000000E+00  0.80945896575E+03  0.80945896575E+03  0.00000000000E+00 0. -1.
         -1   -1    0    0    0  501 -0.00000000000E+00 -0.00000000000E+00 -0.19296577112E+04  0.19296577112E+04  0.00000000000E+00 0.  1.
         24    2    1    2    0    0  0.54130036278E+03  0.89587241439E+03 -0.80483131524E+03  0.13227621151E+04  0.79703837189E+02 0.  0.
        254    2    1    2    0    0 -0.54130036278E+03 -0.89587241439E+03 -0.31536743026E+03  0.14163545618E+04  0.90056102691E+03 0.  0.
         23    2    4    4    0    0 -0.58874908714E+03 -0.80657798884E+03 -0.55128275032E+03  0.11446522356E+04  0.95511936479E+02 0.  0.
         23    2    4    4    0    0  0.47448724355E+02 -0.89294425548E+02  0.23591532006E+03  0.27170232623E+03  0.89113635109E+02 0.  0.
          2    1    3    3  502    0  0.24114740966E+03  0.32697096899E+03 -0.32512221869E+03  0.52035232760E+03  0.00000000000E+00 0. -1.
         -1    1    3    3    0  502  0.30015295313E+03  0.56890144539E+03 -0.47970909655E+03  0.80240978755E+03  0.00000000000E+00 0.  1.
         11    1    5    5    0    0 -0.15128043201E+03 -0.25399622172E+03 -0.12499037901E+03  0.32097109621E+03  0.00000000000E+00 0. -1.
        -11    1    5    5    0    0 -0.43746865513E+03 -0.55258176712E+03 -0.42629237131E+03  0.82368113940E+03  0.00000000000E+00 0.  1.
          2    1    6    6  503    0  0.34584906618E+02  0.71011868403E+01  0.86474507202E+02  0.93404405764E+02  0.00000000000E+00 0. -1.
         -2    1    6    6    0  503  0.12863817738E+02 -0.96395612388E+02  0.14944081286E+03  0.17829792047E+03  0.00000000000E+00 0.  1.
<mgrwt>
<rscale>  0 0.24995830E+04</rscale>
<asrwt>0</asrwt>
<pdfrwt beam="1">  1        2 0.12453215E+00 0.24995830E+04</pdfrwt>
<pdfrwt beam="2">  1       -1 0.29687041E+00 0.24995830E+04</pdfrwt>
<totfact> 0.11937621E+00</totfact>
</mgrwt>
</event>
<event>
12    6  0.1462228E-007  0.1647553E+04  0.7818608E-02  0.8791856E-01
          2   -1    0    0  501    0  0.00000000000E+00  0.00000000000E+00  0.84285183460E+03  0.84285183460E+03  0.00000000000E+00 0. -1.
         -1   -1    0    0    0  501 -0.00000000000E+00 -0.00000000000E+00 -0.80513259077E+03  0.80513259077E+03  0.00000000000E+00 0.  1.
         24    2    1    2    0    0  0.23895003446E+03 -0.35748441801E+03  0.39444339367E+03  0.58918885384E+03  0.81643656188E+02 0.  0.
        254    2    1    2    0    0 -0.23895003446E+03  0.35748441801E+03 -0.35672414985E+03  0.10587955715E+04  0.89939074662E+03 0.  0.
         23    2    4    4    0    0 -0.23301129454E+03  0.62091488298E+03 -0.96780617010E+02  0.67691436499E+03  0.94957961255E+02 0.  0.
         23    2    4    4    0    0 -0.59387399191E+01 -0.26343046497E+03 -0.25994353284E+03  0.38188120654E+03  0.93977322458E+02 0.  0.
          4    1    3    3  502    0  0.12525851306E+03 -0.23122042941E+03  0.28120171210E+03  0.38500257786E+03  0.00000000000E+00 0. -1.
         -3    1    3    3    0  502  0.11369152140E+03 -0.12626398860E+03  0.11324168157E+03  0.20418627598E+03  0.00000000000E+00 0.  1.
         11    1    5    5    0    0 -0.16749484521E+01  0.52669655890E+02 -0.27627408799E+02  0.59499343029E+02  0.00000000000E+00 0. -1.
        -11    1    5    5    0    0 -0.23133634609E+03  0.56824522709E+03 -0.69153208211E+02  0.61741502196E+03  0.00000000000E+00 0.  1.
          4    1    6    6  503    0 -0.39334225777E+02 -0.84464193403E+02 -0.56914065497E+02  0.10918146425E+03  0.00000000000E+00 0. -1.
         -4    1    6    6    0  503  0.33395485858E+02 -0.17896627157E+03 -0.20302946734E+03  0.27269974229E+03  0.00000000000E+00 0.  1.
<mgrwt>
<rscale>  0 0.16475527E+04</rscale>
<asrwt>0</asrwt>
<pdfrwt beam="1">  1        2 0.12966951E+00 0.16475527E+04</pdfrwt>
<pdfrwt beam="2">  1       -1 0.12386655E+00 0.16475527E+04</pdfrwt>
<totfact> 0.20049284E+01</totfact>
</mgrwt>
</event>
<event>
12    6  0.1462228E-007  0.1309467E+04  0.7818608E-02  0.9022091E-01
         -1   -1    0    0    0  501 -0.00000000000E+00  0.00000000000E+00  0.85091687864E+03  0.85091687864E+03  0.00000000000E+00 0.  1.
          2   -1    0    0  501    0  0.00000000000E+00 -0.00000000000E+00 -0.50378154273E+03  0.50378154273E+03  0.00000000000E+00 0. -1.
         24    2    1    2    0    0 -0.22019350565E+03 -0.20668453566E+03 -0.53801469075E+02  0.31683856902E+03  0.79299454813E+02 0.  0.
        254    2    1    2    0    0  0.22019350565E+03  0.20668453566E+03  0.40093680499E+03  0.10378598523E+04  0.90840468642E+03 0.  0.
         23    2    4    4    0    0  0.12563846129E+03 -0.30249678790E+03 -0.51917040038E+02  0.34401009407E+03  0.91423389395E+02 0.  0.
         23    2    4    4    0    0  0.94555044358E+02  0.50918132357E+03  0.45285384503E+03  0.69384975827E+03  0.90247467653E+02 0.  0.
          2    1    3    3  502    0 -0.17346642474E+03 -0.19338242216E+03 -0.63185467800E+02  0.26735699927E+03  0.00000000000E+00 0. -1.
         -1    1    3    3    0  502 -0.46727080906E+02 -0.13302113497E+02  0.93839987244E+01  0.49481569756E+02  0.00000000000E+00 0.  1.
         11    1    5    5    0    0  0.23242454037E+02 -0.13046760530E+03 -0.55762659802E+02  0.14377580440E+03  0.00000000000E+00 0. -1.
        -11    1    5    5    0    0  0.10239600725E+03 -0.17202918261E+03  0.38456197646E+01  0.20023428967E+03  0.00000000000E+00 0.  1.
          3    1    6    6  503    0  0.84779124424E+02  0.25342665481E+03  0.26517447049E+03  0.37647054215E+03  0.00000000000E+00 0. -1.
         -3    1    6    6    0  503  0.97759199338E+01  0.25575466875E+03  0.18767937454E+03  0.31737921612E+03  0.00000000000E+00 0.  1.
<mgrwt>
<rscale>  0 0.13094674E+04</rscale>
<asrwt>0</asrwt>
<pdfrwt beam="1">  1        2 0.77504853E-01 0.13094674E+04</pdfrwt>
<pdfrwt beam="2">  1       -1 0.13091029E+00 0.13094674E+04</pdfrwt>
<totfact> 0.34076419E+01</totfact>
</mgrwt>
</event>
<event>
12    6  0.1462228E-007  0.1697871E+04  0.7818608E-02  0.8762580E-01
          2   -1    0    0  501    0  0.00000000000E+00  0.00000000000E+00  0.15259455654E+04  0.15259455654E+04  0.00000000000E+00 0. -1.
         -1   -1    0    0    0  501 -0.00000000000E+00 -0.00000000000E+00 -0.47229158040E+03  0.47229158040E+03  0.00000000000E+00 0.  1.
         24    2    1    2    0    0 -0.38014271368E+03 -0.26364888991E+03  0.81967238633E+03  0.94505599154E+03  0.85139804541E+02 0.  0.
        254    2    1    2    0    0  0.38014271368E+03  0.26364888991E+03  0.23398159865E+03  0.10531811542E+04  0.91674638544E+03 0.  0.
         23    2    4    4    0    0  0.11899726930E+03  0.22318701594E+03 -0.32876545041E+03  0.42478839439E+03  0.91573273604E+02 0.  0.
         23    2    4    4    0    0  0.26114544438E+03  0.40461873966E+02  0.56274704906E+03  0.62839275984E+03  0.91428185122E+02 0.  0.
          2    1    3    3  502    0 -0.22370105467E+03 -0.19964382073E+03  0.48685435230E+03  0.57177528573E+03  0.00000000000E+00 0. -1.
         -1    1    3    3    0  502 -0.15644165902E+03 -0.64005069176E+02  0.33281803403E+03  0.37328070581E+03  0.00000000000E+00 0.  1.
         11    1    5    5    0    0  0.92073851741E+02  0.76145729472E+02 -0.14299171347E+03  0.18633946553E+03  0.00000000000E+00 0.  1.
        -11    1    5    5    0    0  0.26923417562E+02  0.14704128647E+03 -0.18577373694E+03  0.23844892886E+03  0.00000000000E+00 0. -1.
          4    1    6    6  503    0  0.72774685970E+00  0.10593777700E+02  0.64822634060E+02  0.65686616810E+02  0.00000000000E+00 0.  1.
         -4    1    6    6    0  503  0.26041769752E+03  0.29868096266E+02  0.49792441500E+03  0.56270614303E+03  0.00000000000E+00 0. -1.
<mgrwt>
<rscale>  0 0.16978707E+04</rscale>
<asrwt>0</asrwt>
<pdfrwt beam="1">  1        2 0.23476085E+00 0.16978707E+04</pdfrwt>
<pdfrwt beam="2">  1       -1 0.72660244E-01 0.16978707E+04</pdfrwt>
<totfact> 0.25421319E+01</totfact>
</mgrwt>
</event>
<event>
12    6  0.1462228E-007  0.1234930E+04  0.7818608E-02  0.9082820E-01
         -1   -1    0    0    0  501 -0.00000000000E+00  0.00000000000E+00  0.60661877560E+03  0.60661877560E+03  0.00000000000E+00 0.  1.
          2   -1    0    0  501    0  0.00000000000E+00 -0.00000000000E+00 -0.62850529794E+03  0.62850529794E+03  0.00000000000E+00 0. -1.
         24    2    1    2    0    0 -0.15988662064E+03  0.22548798316E+03 -0.46635499497E+02  0.29373125068E+03  0.87718959195E+02 0.  0.
        254    2    1    2    0    0  0.15988662064E+03 -0.22548798316E+03  0.24748977158E+02  0.94139282286E+03  0.89955509729E+03 0.  0.
         23    2    4    4    0    0 -0.30404256200E+03 -0.64616710518E+02 -0.21280104524E+03  0.38801708449E+03  0.93036413385E+02 0.  0.
         23    2    4    4    0    0  0.46392918264E+03 -0.16087127264E+03  0.23755002240E+03  0.55337573837E+03  0.93192498656E+02 0.  0.
          4    1    3    3  502    0 -0.70023168672E+02  0.74885304256E+02 -0.58349429709E+02  0.11796486295E+03  0.00000000000E+00 0. -1.
         -3    1    3    3    0  502 -0.89863451969E+02  0.15060267890E+03  0.11713930212E+02  0.17576638772E+03  0.00000000000E+00 0.  1.
         11    1    5    5    0    0 -0.27118552615E+03 -0.65599406890E+02 -0.21884347993E+03  0.35459461429E+03  0.00000000000E+00 0. -1.
        -11    1    5    5    0    0 -0.32857035858E+02  0.98269637211E+00  0.60424346902E+01  0.33422470204E+02  0.00000000000E+00 0.  1.
          3    1    6    6  503    0  0.30903107739E+03 -0.59837700655E+02  0.14461054576E+03  0.34640001034E+03  0.00000000000E+00 0. -1.
         -3    1    6    6    0  503  0.15489810525E+03 -0.10103357198E+03  0.92939476633E+02  0.20697572803E+03  0.00000000000E+00 0.  1.
<mgrwt>
<rscale>  0 0.12349301E+04</rscale>
<asrwt>0</asrwt>
<pdfrwt beam="1">  1        2 0.96693122E-01 0.12349301E+04</pdfrwt>
<pdfrwt beam="2">  1       -1 0.93325966E-01 0.12349301E+04</pdfrwt>
<totfact> 0.58780389E+01</totfact>
</mgrwt>
</event>
<event>
12    6  0.1462228E-007  0.1690119E+04  0.7818608E-02  0.8767020E-01
         -1   -1    0    0    0  501 -0.00000000000E+00  0.00000000000E+00  0.80514086298E+03  0.80514086298E+03  0.00000000000E+00 0.  1.
          2   -1    0    0  501    0  0.00000000000E+00 -0.00000000000E+00 -0.88695736627E+03  0.88695736627E+03  0.00000000000E+00 0. -1.
         24    2    1    2    0    0 -0.23920320605E+03 -0.19307937222E+03  0.49087971585E+03  0.58450422764E+03  0.78641458089E+02 0.  0.
        254    2    1    2    0    0  0.23920320605E+03  0.19307937222E+03 -0.57269621914E+03  0.11075940016E+04  0.89681976742E+03 0.  0.
         23    2    4    4    0    0 -0.31111897274E+03  0.16357403970E+03 -0.35537487643E+03  0.50828743563E+03  0.92267723224E+02 0.  0.
         23    2    4    4    0    0  0.55032217879E+03  0.29505332518E+02 -0.21732134271E+03  0.59930656599E+03  0.90635141759E+02 0.  0.
          4    1    3    3  502    0 -0.17017748904E+02 -0.14251534155E+02  0.78287360577E+01  0.23537185723E+02  0.00000000000E+00 0. -1.
         -3    1    3    3    0  502 -0.22218545714E+03 -0.17882783807E+03  0.48305097979E+03  0.56096704191E+03  0.00000000000E+00 0.  1.
         11    1    5    5    0    0 -0.12265878349E+03  0.11408059127E+03 -0.14513876474E+03  0.22164119541E+03  0.00000000000E+00 0. -1.
        -11    1    5    5    0    0 -0.18846018925E+03  0.49493448437E+02 -0.21023611169E+03  0.28664624022E+03  0.00000000000E+00 0.  1.
          1    1    6    6  503    0  0.56779216260E+02 -0.24749084489E+02 -0.21340034177E+02  0.65511782458E+02  0.00000000000E+00 0. -1.
         -1    1    6    6    0  503  0.49354296253E+03  0.54254417007E+02 -0.19598130853E+03  0.53379478353E+03  0.00000000000E+00 0.  1.
<mgrwt>
<rscale>  0 0.16901191E+04</rscale>
<asrwt>0</asrwt>
<pdfrwt beam="1">  1        2 0.13645498E+00 0.16901191E+04</pdfrwt>
<pdfrwt beam="2">  1       -1 0.12386783E+00 0.16901191E+04</pdfrwt>
<totfact> 0.18622429E+01</totfact>
</mgrwt>
</event>
<event>
12    6  0.1462228E-007  0.1213378E+04  0.7818608E-02  0.9101227E-01
         -3   -1    0    0    0  501 -0.00000000000E+00  0.00000000000E+00  0.62851140534E+03  0.62851140534E+03  0.00000000000E+00 0.  1.
          4   -1    0    0  501    0  0.00000000000E+00 -0.00000000000E+00 -0.58562435709E+03  0.58562435709E+03  0.00000000000E+00 0. -1.
         24    2    1    2    0    0  0.22183549846E+03 -0.28606077331E+02  0.15228957923E+03  0.28229792229E+03  0.80440692125E+02 0.  0.
        254    2    1    2    0    0 -0.22183549846E+03  0.28606077331E+02 -0.10940253097E+03  0.93183784014E+03  0.89795520517E+03 0.  0.
         23    2    4    4    0    0 -0.38142298961E+03 -0.23312265544E+03  0.19146475050E+03  0.49265260672E+03  0.78855378600E+02 0.  0.
         23    2    4    4    0    0  0.15958749116E+03  0.26172873277E+03 -0.30086728147E+03  0.43918523342E+03  0.91610323121E+02 0.  0.
          4    1    3    3  502    0  0.90278733867E+02  0.16128614643E+02  0.28052800448E+02  0.95902771659E+02  0.00000000000E+00 0. -1.
         -3    1    3    3    0  502  0.13155676459E+03 -0.44734691974E+02  0.12423677878E+03  0.18639515063E+03  0.00000000000E+00 0.  1.
         11    1    5    5    0    0 -0.33160393984E+03 -0.22993755285E+03  0.17732325072E+03  0.44076749696E+03  0.00000000000E+00 0.  1.
        -11    1    5    5    0    0 -0.49819049774E+02 -0.31851025971E+01  0.14141499778E+02  0.51885109761E+02  0.00000000000E+00 0. -1.
          4    1    6    6  503    0  0.86309874437E+02  0.67283787001E+02 -0.13171846506E+03  0.17124910644E+03  0.00000000000E+00 0. -1.
         -4    1    6    6    0  503  0.73277616719E+02  0.19444494577E+03 -0.16914881641E+03  0.26793612698E+03  0.00000000000E+00 0.  1.
<mgrwt>
<rscale>  0 0.12133781E+04</rscale>
<asrwt>0</asrwt>
<pdfrwt beam="1">  1        4 0.90096055E-01 0.12133781E+04</pdfrwt>
<pdfrwt beam="2">  1       -3 0.96694062E-01 0.12133781E+04</pdfrwt>
<totfact> 0.22482008E+00</totfact>
</mgrwt>
</event>
<event>
12    6  0.1462228E-007  0.1382298E+04  0.7818608E-02  0.8966733E-01
         -1   -1    0    0    0  501 -0.00000000000E+00  0.00000000000E+00  0.54303556221E+03  0.54303556221E+03  0.00000000000E+00 0.  1.
          2   -1    0    0  501    0  0.00000000000E+00 -0.00000000000E+00 -0.87966086898E+03  0.87966086898E+03  0.00000000000E+00 0. -1.
         24    2    1    2    0    0 -0.26926645834E+03  0.29005420350E+03 -0.63247935082E+01  0.40387668098E+03  0.80252749934E+02 0.  0.
        254    2    1    2    0    0  0.26926645834E+03 -0.29005420350E+03 -0.33030051326E+03  0.10188197502E+04  0.87878290141E+03 0.  0.
         23    2    4    4    0    0 -0.27231366513E+03 -0.43027619647E+02 -0.29647147382E+03  0.41433615183E+03  0.88164639444E+02 0.  0.
         23    2    4    4    0    0  0.54158012347E+03 -0.24702658385E+03 -0.33829039437E+02  0.60448359839E+03  0.99623559164E+02 0.  0.
          4    1    3    3  502    0 -0.21492207518E+03  0.25600798086E+03 -0.29795539012E+02  0.33558807906E+03  0.00000000000E+00 0. -1.
         -3    1    3    3    0  502 -0.54344383163E+02  0.34046222631E+02  0.23470745504E+02  0.68288601913E+02  0.00000000000E+00 0.  1.
         11    1    5    5    0    0 -0.27117728595E+03 -0.46632195717E+02 -0.30141008765E+03  0.40811729077E+03  0.00000000000E+00 0. -1.
        -11    1    5    5    0    0 -0.11363791827E+01  0.36045760705E+01  0.49386138235E+01  0.62188610527E+01  0.00000000000E+00 0.  1.
          3    1    6    6  503    0  0.33507225912E+03 -0.98841360099E+02 -0.17421808701E+02  0.34978072090E+03  0.00000000000E+00 0. -1.
         -3    1    6    6    0  503  0.20650786435E+03 -0.14818522375E+03 -0.16407230736E+02  0.25470287748E+03  0.00000000000E+00 0.  1.
<mgrwt>
<rscale>  0 0.13822983E+04</rscale>
<asrwt>0</asrwt>
<pdfrwt beam="1">  1        2 0.13533244E+00 0.13822983E+04</pdfrwt>
<pdfrwt beam="2">  1       -1 0.83543934E-01 0.13822983E+04</pdfrwt>
<totfact> 0.47876138E+01</totfact>
</mgrwt>
</event>
<event>
12    6  0.1462228E-007  0.1742921E+04  0.7818608E-02  0.8737257E-01
          2   -1    0    0  501    0  0.00000000000E+00  0.00000000000E+00  0.14186040425E+04  0.14186040425E+04  0.00000000000E+00 0. -1.
         -1   -1    0    0    0  501 -0.00000000000E+00 -0.00000000000E+00 -0.53534548690E+03  0.53534548690E+03  0.00000000000E+00 0.  1.
         24    2    1    2    0    0 -0.96781511347E+02  0.39981729450E+03  0.86351845234E+03  0.95999147895E+03  0.81847371329E+02 0.  0.
        254    2    1    2    0    0  0.96781511347E+02 -0.39981729450E+03  0.19740103247E+02  0.99395805044E+03  0.90462279677E+03 0.  0.
         23    2    4    4    0    0 -0.22372986568E+03  0.85374005871E+02 -0.23993492634E+03  0.35106427078E+03  0.91288442155E+02 0.  0.
         23    2    4    4    0    0  0.32051137702E+03 -0.48519130037E+03  0.25967502958E+03  0.64289377966E+03  0.87995171327E+02 0.  0.
          2    1    3    3  502    0 -0.97810170502E+02  0.37674475857E+03  0.75939158701E+03  0.85333406412E+03  0.00000000000E+00 0. -1.
         -1    1    3    3    0  502  0.10286591551E+01  0.23072535934E+02  0.10412686533E+03  0.10665741483E+03  0.00000000000E+00 0.  1.
         11    1    5    5    0    0 -0.85403018700E+02  0.53345160545E+02 -0.45988693781E+02  0.11069933023E+03  0.00000000000E+00 0. -1.
        -11    1    5    5    0    0 -0.13832684698E+03  0.32028845326E+02 -0.19394623255E+03  0.24036494056E+03  0.00000000000E+00 0.  1.
          4    1    6    6  503    0  0.29298865588E+01 -0.44517902455E+02  0.14235047850E+02  0.46830166149E+02  0.00000000000E+00 0. -1.
         -4    1    6    6    0  503  0.31758149046E+03 -0.44067339792E+03  0.24543998173E+03  0.59606361351E+03  0.00000000000E+00 0.  1.
<mgrwt>
<rscale>  0 0.17429208E+04</rscale>
<asrwt>0</asrwt>
<pdfrwt beam="1">  1        2 0.21824677E+00 0.17429208E+04</pdfrwt>
<pdfrwt beam="2">  1       -1 0.82360845E-01 0.17429208E+04</pdfrwt>
<totfact> 0.22368795E+01</totfact>
</mgrwt>
</event>
<event>
12    6  0.1462228E-007  0.1765584E+04  0.7818608E-02  0.8724819E-01
          2   -1    0    0  501    0  0.00000000000E+00  0.00000000000E+00  0.84970824716E+03  0.84970824716E+03  0.00000000000E+00 0. -1.
         -1   -1    0    0    0  501 -0.00000000000E+00 -0.00000000000E+00 -0.91716409945E+03  0.91716409945E+03  0.00000000000E+00 0.  1.
         24    2    1    2    0    0  0.81126359011E+02 -0.30057268396E+03  0.54126177027E+03  0.62940304234E+03  0.79110437247E+02 0.  0.
        254    2    1    2    0    0 -0.81126359011E+02  0.30057268396E+03 -0.60871762256E+03  0.11374693043E+04  0.90905107099E+03 0.  0.
         23    2    4    4    0    0  0.30551229928E+03  0.34638123941E+03 -0.82719744325E+02  0.47797465518E+03  0.91101519590E+02 0.  0.
         23    2    4    4    0    0 -0.38663865829E+03 -0.45808555451E+02 -0.52599787823E+03  0.65949464909E+03  0.81679547226E+02 0.  0.
          2    1    3    3  502    0  0.44805376610E+02 -0.26484218743E+03  0.47660465590E+03  0.54708400090E+03  0.00000000000E+00 0. -1.
         -1    1    3    3    0  502  0.36320982401E+02 -0.35730496532E+02  0.64657114373E+02  0.82319041443E+02  0.00000000000E+00 0.  1.
         11    1    5    5    0    0  0.18388157479E+03  0.14874424209E+03 -0.64752898963E+02  0.24521464277E+03  0.00000000000E+00 0.  1.
        -11    1    5    5    0    0  0.12163072448E+03  0.19763699732E+03 -0.17966845363E+02  0.23276001242E+03  0.00000000000E+00 0. -1.
          4    1    6    6  503    0 -0.33042546653E+03 -0.39688340439E+02 -0.39303398028E+03  0.51500666302E+03  0.00000000000E+00 0. -1.
         -4    1    6    6    0  503 -0.56213191751E+02 -0.61202150121E+01 -0.13296389795E+03  0.14448798606E+03  0.00000000000E+00 0.  1.
<mgrwt>
<rscale>  0 0.17655842E+04</rscale>
<asrwt>0</asrwt>
<pdfrwt beam="1">  1        2 0.13072435E+00 0.17655842E+04</pdfrwt>
<pdfrwt beam="2">  1       -1 0.14110217E+00 0.17655842E+04</pdfrwt>
<totfact> 0.14089574E+01</totfact>
</mgrwt>
</event>
<event>
12    6  0.1462228E-007  0.1479109E+04  0.7818608E-02  0.8898465E-01
         -1   -1    0    0    0  501 -0.00000000000E+00  0.00000000000E+00  0.88307447216E+03  0.88307447216E+03  0.00000000000E+00 0.  1.
          2   -1    0    0  501    0  0.00000000000E+00 -0.00000000000E+00 -0.61936006214E+03  0.61936006214E+03  0.00000000000E+00 0. -1.
         24    2    1    2    0    0 -0.26100172694E+03  0.26888791651E+03 -0.18746676427E+03  0.42664879313E+03  0.80391491233E+02 0.  0.
        254    2    1    2    0    0  0.26100172694E+03 -0.26888791651E+03  0.45118117429E+03  0.10757857412E+04  0.90184693588E+03 0.  0.
         23    2    4    4    0    0  0.57736762177E+03 -0.67824272994E+02  0.24789676906E+03  0.63848604100E+03  0.90874164399E+02 0.  0.
         23    2    4    4    0    0 -0.31636589484E+03 -0.20106364352E+03  0.20328440522E+03  0.43729970017E+03  0.96914963759E+02 0.  0.
          4    1    3    3  502    0 -0.10920703553E+03  0.16490512669E+03 -0.11577403801E+03  0.22918007177E+03  0.00000000000E+00 0. -1.
         -3    1    3    3    0  502 -0.15179469140E+03  0.10398278982E+03 -0.71692726255E+02  0.19746872136E+03  0.00000000000E+00 0.  1.
         11    1    5    5    0    0  0.57215788532E+03 -0.59846790926E+02  0.25207421044E+03  0.62808255165E+03  0.00000000000E+00 0. -1.
        -11    1    5    5    0    0  0.52097364569E+01 -0.79774820680E+01 -0.41774413821E+01  0.10403489347E+02  0.00000000000E+00 0.  1.
          2    1    6    6  503    0 -0.23355882103E+03 -0.11733814824E+03  0.97391037975E+02  0.27893185224E+03  0.00000000000E+00 0. -1.
         -2    1    6    6    0  503 -0.82807073805E+02 -0.83725495277E+02  0.10589336725E+03  0.15836784793E+03  0.00000000000E+00 0.  1.
<mgrwt>
<rscale>  0 0.14791093E+04</rscale>
<asrwt>0</asrwt>
<pdfrwt beam="1">  1        2 0.95286164E-01 0.14791093E+04</pdfrwt>
<pdfrwt beam="2">  1       -1 0.13585761E+00 0.14791093E+04</pdfrwt>
<totfact> 0.23914909E+01</totfact>
</mgrwt>
</event>
<event>
12    6  0.1462228E-007  0.1576729E+04  0.7818608E-02  0.8834973E-01
         -1   -1    0    0    0  501 -0.00000000000E+00  0.00000000000E+00  0.59055530358E+03  0.59055530358E+03  0.00000000000E+00 0.  1.
          2   -1    0    0  501    0  0.00000000000E+00 -0.00000000000E+00 -0.10524307814E+04  0.10524307814E+04  0.00000000000E+00 0. -1.
         24    2    1    2    0    0  0.83100930664E+02  0.23163264447E+03 -0.64914871192E+03  0.70167873969E+03  0.10197821768E+03 0.  0.
        254    2    1    2    0    0 -0.83100930664E+02 -0.23163264447E+03  0.18727323407E+03  0.94130734532E+03  0.88906063207E+03 0.  0.
         23    2    4    4    0    0 -0.28444279178E+03 -0.35712725520E+03  0.39586501936E+03  0.61153412146E+03  0.93900425711E+02 0.  0.
         23    2    4    4    0    0  0.20134186112E+03  0.12549461073E+03 -0.20859178529E+03  0.32977322387E+03  0.94617143935E+02 0.  0.
          2    1    3    3  502    0  0.21194762170E+02  0.19135068649E+03 -0.46783721251E+03  0.50590113715E+03  0.00000000000E+00 0. -1.
         -1    1    3    3    0  502  0.61906168494E+02  0.40281957982E+02 -0.18131149941E+03  0.19577760254E+03  0.00000000000E+00 0.  1.
         11    1    5    5    0    0 -0.60992839502E+02 -0.43012087527E+02  0.31194777220E+02  0.80890544996E+02  0.00000000000E+00 0. -1.
        -11    1    5    5    0    0 -0.22344995228E+03 -0.31411516767E+03  0.36467024214E+03  0.53064357646E+03  0.00000000000E+00 0.  1.
          4    1    6    6  503    0  0.73638727422E+02  0.42031239774E+02 -0.19845329965E+02  0.87081136962E+02  0.00000000000E+00 0. -1.
         -4    1    6    6    0  503  0.12770313370E+03  0.83463370959E+02 -0.18874645533E+03  0.24269208690E+03  0.00000000000E+00 0.  1.
<mgrwt>
<rscale>  0 0.15767290E+04</rscale>
<asrwt>0</asrwt>
<pdfrwt beam="1">  1        2 0.16191243E+00 0.15767290E+04</pdfrwt>
<pdfrwt beam="2">  1       -1 0.90854664E-01 0.15767290E+04</pdfrwt>
<totfact> 0.30243693E+01</totfact>
</mgrwt>
</event>
<event>
12    6  0.1462228E-007  0.1542242E+04  0.7818608E-02  0.8856838E-01
         -1   -1    0    0    0  501 -0.00000000000E+00  0.00000000000E+00  0.29062505891E+03  0.29062505891E+03  0.00000000000E+00 0.  1.
          2   -1    0    0  501    0  0.00000000000E+00 -0.00000000000E+00 -0.20460295966E+04  0.20460295966E+04  0.00000000000E+00 0. -1.
         24    2    1    2    0    0  0.28995277952E+03 -0.32990306677E+03 -0.82601670542E+03  0.93879136354E+03  0.78211116941E+02 0.  0.
        254    2    1    2    0    0 -0.28995277952E+03  0.32990306677E+03 -0.92938783231E+03  0.13978632920E+04  0.94728633079E+03 0.  0.
         23    2    4    4    0    0  0.17070531417E+03  0.12778492087E+03  0.97760666663E+02  0.25049685272E+03  0.87876248149E+02 0.  0.
         23    2    4    4    0    0 -0.46065809369E+03  0.20211814589E+03 -0.10271484990E+04  0.11473664393E+04  0.91422551330E+02 0.  0.
          4    1    3    3  502    0  0.28640469237E+03 -0.32512736601E+03 -0.77891918867E+03  0.89131955797E+03  0.00000000000E+00 0. -1.
         -3    1    3    3    0  502  0.35480871442E+01 -0.47757007569E+01 -0.47097516747E+02  0.47471805568E+02  0.00000000000E+00 0.  1.
         11    1    5    5    0    0  0.41872202304E+02  0.69719076678E+01 -0.99864161859E+01  0.43607537543E+02  0.00000000000E+00 0.  1.
        -11    1    5    5    0    0  0.12883311187E+03  0.12081301321E+03  0.10774708285E+03  0.20688931518E+03  0.00000000000E+00 0. -1.
          4    1    6    6  503    0 -0.15914420058E+03  0.11584238263E+03 -0.42833389743E+03  0.47139819885E+03  0.00000000000E+00 0. -1.
         -4    1    6    6    0  503 -0.30151389311E+03  0.86275763260E+02 -0.59881460154E+03  0.67596824044E+03  0.00000000000E+00 0.  1.
<mgrwt>
<rscale>  0 0.15422418E+04</rscale>
<asrwt>0</asrwt>
<pdfrwt beam="1">  1        2 0.31477378E+00 0.15422418E+04</pdfrwt>
<pdfrwt beam="2">  1       -1 0.44711548E-01 0.15422418E+04</pdfrwt>
<totfact> 0.34261588E+01</totfact>
</mgrwt>
</event>
<event>
12    6  0.1462228E-007  0.2570899E+04  0.7818608E-02  0.8378154E-01
          2   -1    0    0  501    0  0.00000000000E+00  0.00000000000E+00  0.23706596914E+04  0.23706596914E+04  0.00000000000E+00 0. -1.
         -1   -1    0    0    0  501 -0.00000000000E+00 -0.00000000000E+00 -0.69701300357E+03  0.69701300357E+03  0.00000000000E+00 0.  1.
         24    2    1    2    0    0  0.49239327528E+02 -0.90297030407E+03  0.15258023764E+04  0.17755480614E+04  0.81964292287E+02 0.  0.
        254    2    1    2    0    0 -0.49239327528E+02  0.90297030407E+03  0.14784431145E+03  0.12921246335E+04  0.91101495420E+03 0.  0.
         23    2    4    4    0    0 -0.21875570194E+02  0.63932520447E+03 -0.33947370577E+03  0.73024493464E+03  0.93808368594E+02 0.  0.
         23    2    4    4    0    0 -0.27363757335E+02  0.26364509960E+03  0.48731801722E+03  0.56187969890E+03  0.89288478389E+02 0.  0.
          4    1    3    3  502    0  0.59786836999E+02 -0.88513504097E+03  0.14859790397E+04  0.17306565844E+04  0.00000000000E+00 0. -1.
         -3    1    3    3    0  502 -0.10547509471E+02 -0.17835263101E+02  0.39823336645E+02  0.44891477002E+02  0.00000000000E+00 0.  1.
         11    1    5    5    0    0 -0.12350809978E+02  0.61795102581E+03 -0.30673106305E+03  0.68999996945E+03  0.00000000000E+00 0. -1.
        -11    1    5    5    0    0 -0.95247602151E+01  0.21374178661E+02 -0.32742642725E+02  0.40244965191E+02  0.00000000000E+00 0.  1.
          3    1    6    6  503    0  0.84923222230E+00  0.24043354760E+03  0.39276894902E+03  0.46051759936E+03  0.00000000000E+00 0. -1.
         -3    1    6    6    0  503 -0.28212989557E+02  0.23211552001E+02  0.94549068204E+02  0.10136209955E+03  0.00000000000E+00 0.  1.
<mgrwt>
<rscale>  0 0.25708992E+04</rscale>
<asrwt>0</asrwt>
<pdfrwt beam="1">  1        2 0.36471687E+00 0.25708992E+04</pdfrwt>
<pdfrwt beam="2">  1       -1 0.10723277E+00 0.25708992E+04</pdfrwt>
<totfact> 0.33766411E+00</totfact>
</mgrwt>
</event>
<event>
12    6  0.1462228E-007  0.1463351E+04  0.7818608E-02  0.8909196E-01
          2   -1    0    0  501    0  0.00000000000E+00  0.00000000000E+00  0.23043745920E+04  0.23043745920E+04  0.00000000000E+00 0. -1.
         -1   -1    0    0    0  501 -0.00000000000E+00 -0.00000000000E+00 -0.23231870525E+03  0.23231870525E+03  0.00000000000E+00 0.  1.
         24    2    1    2    0    0  0.10625424378E+03 -0.40260024397E+03  0.95217387291E+03  0.10422683680E+04  0.79443979172E+02 0.  0.
        254    2    1    2    0    0 -0.10625424378E+03  0.40260024397E+03  0.11198820138E+04  0.14944249293E+04  0.89765985963E+03 0.  0.
         23    2    4    4    0    0  0.30000630831E+03  0.18797602111E+03  0.91144676003E+03  0.98186793102E+03  0.89390536640E+02 0.  0.
         23    2    4    4    0    0 -0.40626055210E+03  0.21462422286E+03  0.20843525382E+03  0.51255699828E+03  0.90322910858E+02 0.  0.
          4    1    3    3  502    0  0.38512518679E+02 -0.16609890320E+03  0.48802778588E+03  0.51695568430E+03  0.00000000000E+00 0. -1.
         -3    1    3    3    0  502  0.67741725104E+02 -0.23650134077E+03  0.46414608703E+03  0.52531268366E+03  0.00000000000E+00 0.  1.
         11    1    5    5    0    0  0.27152468285E+03  0.14579055414E+03  0.83468447069E+03  0.88976328576E+03  0.00000000000E+00 0. -1.
        -11    1    5    5    0    0  0.28481625459E+02  0.42185466971E+02  0.76762289341E+02  0.92104645254E+02  0.00000000000E+00 0.  1.
          4    1    6    6  503    0 -0.17626604198E+03  0.12455370850E+03  0.58538774349E+02  0.22362945235E+03  0.00000000000E+00 0. -1.
         -4    1    6    6    0  503 -0.22999451012E+03  0.90070514357E+02  0.14989647947E+03  0.28892754593E+03  0.00000000000E+00 0.  1.
<mgrwt>
<rscale>  0 0.14633514E+04</rscale>
<asrwt>0</asrwt>
<pdfrwt beam="1">  1        2 0.35451915E+00 0.14633514E+04</pdfrwt>
<pdfrwt beam="2">  1       -1 0.35741341E-01 0.14633514E+04</pdfrwt>
<totfact> 0.37236779E+01</totfact>
</mgrwt>
</event>
<event>
12    6  0.1462228E-007  0.1627262E+04  0.7818608E-02  0.8803973E-01
          2   -1    0    0  501    0  0.00000000000E+00  0.00000000000E+00  0.18692331444E+04  0.18692331444E+04  0.00000000000E+00 0. -1.
         -1   -1    0    0    0  501 -0.00000000000E+00 -0.00000000000E+00 -0.35415355413E+03  0.35415355413E+03  0.00000000000E+00 0.  1.
         24    2    1    2    0    0 -0.50661566989E+03 -0.15603152970E+03  0.76076178158E+03  0.93066783852E+03  0.79867778909E+02 0.  0.
        254    2    1    2    0    0  0.50661566989E+03  0.15603152970E+03  0.75431780871E+03  0.12927188600E+04  0.90615750249E+03 0.  0.
         23    2    4    4    0    0  0.34993187576E+03 -0.25130029525E+03  0.72363939249E+03  0.84675139202E+03  0.87919243985E+02 0.  0.
         23    2    4    4    0    0  0.15668379413E+03  0.40733182495E+03  0.30678416219E+02  0.44596746802E+03  0.86468435552E+02 0.  0.
          4    1    3    3  502    0 -0.35366329719E+03 -0.10839020887E+03  0.46371760157E+03  0.59317803328E+03  0.00000000000E+00 0. -1.
         -3    1    3    3    0  502 -0.15295237270E+03 -0.47641320833E+02  0.29704418002E+03  0.33748980525E+03  0.00000000000E+00 0.  1.
         11    1    5    5    0    0  0.33452579318E+03 -0.23527419815E+03  0.71331493220E+03  0.82224062604E+03  0.00000000000E+00 0. -1.
        -11    1    5    5    0    0  0.15406082582E+02 -0.16026097095E+02  0.10324460294E+02  0.24510765981E+02  0.00000000000E+00 0.  1.
          2    1    6    6  503    0  0.15076567790E+03  0.37486406446E+03  0.50934860042E+02  0.40724405020E+03  0.00000000000E+00 0. -1.
         -2    1    6    6    0  503  0.59181162308E+01  0.32467760491E+02 -0.20256443824E+02  0.38723417816E+02  0.00000000000E+00 0.  1.
<mgrwt>
<rscale>  0 0.16272622E+04</rscale>
<asrwt>0</asrwt>
<pdfrwt beam="1">  1        2 0.28757432E+00 0.16272622E+04</pdfrwt>
<pdfrwt beam="2">  1       -1 0.54485163E-01 0.16272622E+04</pdfrwt>
<totfact> 0.29294474E+01</totfact>
</mgrwt>
</event>
<event>
12    6  0.1462228E-007  0.1492209E+04  0.7818608E-02  0.8889650E-01
         -1   -1    0    0    0  501 -0.00000000000E+00  0.00000000000E+00  0.31206372211E+03  0.31206372211E+03  0.00000000000E+00 0.  1.
          2   -1    0    0  501    0  0.00000000000E+00 -0.00000000000E+00 -0.17838415012E+04  0.17838415012E+04  0.00000000000E+00 0. -1.
         24    2    1    2    0    0  0.21697057799E+03 -0.17762357568E+03  0.59336998198E+02  0.29795227823E+03  0.81414460590E+02 0.  0.
        254    2    1    2    0    0 -0.21697057799E+03  0.17762357568E+03 -0.15311147773E+04  0.17979529450E+04  0.89983107588E+03 0.  0.
         23    2    4    4    0    0 -0.30324655596E+02 -0.30884094036E+03 -0.24012834145E+03  0.40310393696E+03  0.92351786355E+02 0.  0.
         23    2    4    4    0    0 -0.18664592240E+03  0.48646451604E+03 -0.12909864358E+04  0.13948490081E+04  0.86448552533E+02 0.  0.
          2    1    3    3  502    0  0.85563838065E+02 -0.83973942184E+02 -0.14008647961E+02  0.12070226000E+03  0.00000000000E+00 0. -1.
         -1    1    3    3    0  502  0.13140673993E+03 -0.93649633495E+02  0.73345646158E+02  0.17725001823E+03  0.00000000000E+00 0.  1.
         11    1    5    5    0    0 -0.16557946296E+02 -0.30531936107E+03 -0.21352616207E+03  0.37294436545E+03  0.00000000000E+00 0.  1.
        -11    1    5    5    0    0 -0.13766709300E+02 -0.35215792832E+01 -0.26602179380E+02  0.30159571505E+02  0.00000000000E+00 0. -1.
          3    1    6    6  503    0 -0.13393862256E+02  0.11491017651E+03 -0.23111714753E+03  0.25845479313E+03  0.00000000000E+00 0. -1.
         -3    1    6    6    0  503 -0.17325206014E+03  0.37155433953E+03 -0.10598692883E+04  0.11363942150E+04  0.00000000000E+00 0.  1.
<mgrwt>
<rscale>  0 0.14922094E+04</rscale>
<asrwt>0</asrwt>
<pdfrwt beam="1">  1        2 0.27443715E+00 0.14922094E+04</pdfrwt>
<pdfrwt beam="2">  1       -1 0.48009803E-01 0.14922094E+04</pdfrwt>
<totfact> 0.42064541E+01</totfact>
</mgrwt>
</event>
<event>
12    6  0.1462228E-007  0.1079574E+04  0.7818608E-02  0.9225332E-01
         -1   -1    0    0    0  501 -0.00000000000E+00  0.00000000000E+00  0.28591432165E+03  0.28591432165E+03  0.00000000000E+00 0.  1.
          2   -1    0    0  501    0  0.00000000000E+00 -0.00000000000E+00 -0.10190812966E+04  0.10190812966E+04  0.00000000000E+00 0. -1.
         24    2    1    2    0    0 -0.24397734677E+02  0.12256104936E+03 -0.20503614584E+03  0.25290921795E+03  0.79415307973E+02 0.  0.
        254    2    1    2    0    0  0.24397734677E+02 -0.12256104936E+03 -0.52813082907E+03  0.10520864003E+04  0.90130303490E+03 0.  0.
         23    2    4    4    0    0  0.20668532480E+03 -0.17272932811E+03  0.16461763204E+03  0.32805280543E+03  0.89249280634E+02 0.  0.
         23    2    4    4    0    0 -0.18228759013E+03  0.50168278748E+02 -0.69274846111E+03  0.72403359483E+03  0.92620701594E+02 0.  0.
          2    1    3    3  502    0 -0.26856648020E+02  0.11018617358E+03 -0.21054094028E+03  0.23914380596E+03  0.00000000000E+00 0. -1.
         -1    1    3    3    0  502  0.24589133428E+01  0.12374875781E+02  0.55047944388E+01  0.13765411990E+02  0.00000000000E+00 0.  1.
         11    1    5    5    0    0  0.94963962322E+02 -0.25381542571E+02  0.47522154727E+02  0.10918210491E+03  0.00000000000E+00 0.  1.
        -11    1    5    5    0    0  0.11172136248E+03 -0.14734778554E+03  0.11709547731E+03  0.21887070052E+03  0.00000000000E+00 0. -1.
          4    1    6    6  503    0 -0.26243578491E+02  0.25765495431E+02 -0.27458563557E+03  0.27703764623E+03  0.00000000000E+00 0. -1.
         -4    1    6    6    0  503 -0.15604401164E+03  0.24402783317E+02 -0.41816282554E+03  0.44699594860E+03  0.00000000000E+00 0.  1.
<mgrwt>
<rscale>  0 0.10795739E+04</rscale>
<asrwt>0</asrwt>
<pdfrwt beam="1">  1        2 0.15678174E+00 0.10795739E+04</pdfrwt>
<pdfrwt beam="2">  1       -1 0.43986818E-01 0.10795739E+04</pdfrwt>
<totfact> 0.14176616E+02</totfact>
</mgrwt>
</event>
<event>
12    6  0.1462228E-007  0.1560843E+04  0.7818608E-02  0.8844972E-01
         -1   -1    0    0    0  501 -0.00000000000E+00  0.00000000000E+00  0.66504030595E+03  0.66504030595E+03  0.00000000000E+00 0.  1.
          2   -1    0    0  501    0  0.00000000000E+00 -0.00000000000E+00 -0.91582021899E+03  0.91582021899E+03  0.00000000000E+00 0. -1.
         24    2    1    2    0    0  0.27478989577E+03  0.43869764284E+03 -0.74469581637E+02  0.52526262976E+03  0.48887656780E+02 0.  0.
        254    2    1    2    0    0 -0.27478989577E+03 -0.43869764284E+03 -0.17631033140E+03  0.10555978952E+04  0.90290446599E+03 0.  0.
         23    2    4    4    0    0 -0.58917987358E+03 -0.20832603857E+03 -0.39976703269E+02  0.63305127157E+03  0.92860722928E+02 0.  0.
         23    2    4    4    0    0  0.31438997781E+03 -0.23037160427E+03 -0.13633362813E+03  0.42254662361E+03  0.89703159143E+02 0.  0.
          2    1    3    3  502    0  0.19015678470E+02  0.33839139374E+02  0.71582165206E+01  0.39470538950E+02  0.00000000000E+00 0. -1.
         -1    1    3    3    0  502  0.25577421730E+03  0.40485850347E+03 -0.81627798158E+02  0.48579209081E+03  0.00000000000E+00 0.  1.
         11    1    5    5    0    0 -0.18094949514E+03 -0.19903936013E+02 -0.17351006554E+02  0.18286591779E+03  0.00000000000E+00 0. -1.
        -11    1    5    5    0    0 -0.40823037843E+03 -0.18842210255E+03 -0.22625696714E+02  0.45018535378E+03  0.00000000000E+00 0.  1.
          4    1    6    6  503    0  0.41118152575E+01  0.68296201442E+01 -0.83678739991E+01  0.11557337552E+02  0.00000000000E+00 0. -1.
         -4    1    6    6    0  503  0.31027816255E+03 -0.23720122442E+03 -0.12796575413E+03  0.41098928606E+03  0.00000000000E+00 0.  1.
<mgrwt>
<rscale>  0 0.15608425E+04</rscale>
<asrwt>0</asrwt>
<pdfrwt beam="1">  1        2 0.14089542E+00 0.15608425E+04</pdfrwt>
<pdfrwt beam="2">  1       -1 0.10231389E+00 0.15608425E+04</pdfrwt>
<totfact> 0.28401776E+01</totfact>
</mgrwt>
</event>
<event>
12    6  0.1462228E-007  0.2843729E+04  0.7818608E-02  0.8289819E-01
          2   -1    0    0  501    0  0.00000000000E+00  0.00000000000E+00  0.15024506199E+04  0.15024506199E+04  0.00000000000E+00 0. -1.
         -1   -1    0    0    0  501 -0.00000000000E+00 -0.00000000000E+00 -0.13456007604E+04  0.13456007604E+04  0.00000000000E+00 0.  1.
         24    2    1    2    0    0  0.11380333622E+04  0.13354430667E+03  0.64556029727E+03  0.13174301815E+04  0.76942643530E+02 0.  0.
        254    2    1    2    0    0 -0.11380333622E+04 -0.13354430667E+03 -0.48871043777E+03  0.15306211988E+04  0.88938706257E+03 0.  0.
         23    2    4    4    0    0 -0.25706209340E+02  0.14462452511E+02  0.19263554143E+03  0.21469137342E+03  0.90077534744E+02 0.  0.
         23    2    4    4    0    0 -0.11123271528E+04 -0.14800675918E+03 -0.68134597920E+03  0.13159298254E+04  0.90891508640E+02 0.  0.
          4    1    3    3  502    0  0.43091341778E+03  0.38255836841E+02  0.28441454166E+03  0.51772725849E+03  0.00000000000E+00 0. -1.
         -3    1    3    3    0  502  0.70711994437E+03  0.95288469832E+02  0.36114575560E+03  0.79970292296E+03  0.00000000000E+00 0.  1.
         11    1    5    5    0    0 -0.17800327512E+01  0.43786754661E+02  0.15592151576E+03  0.16196285832E+03  0.00000000000E+00 0. -1.
        -11    1    5    5    0    0 -0.23926176588E+02 -0.29324302150E+02  0.36714025676E+02  0.52728515095E+02  0.00000000000E+00 0.  1.
          3    1    6    6  503    0 -0.80383885417E+03 -0.12112403404E+03 -0.44793408067E+03  0.92815563120E+03  0.00000000000E+00 0. -1.
         -3    1    6    6    0  503 -0.30848829864E+03 -0.26882725149E+02 -0.23341189853E+03  0.38777419420E+03  0.00000000000E+00 0.  1.
<mgrwt>
<rscale>  0 0.28437290E+04</rscale>
<asrwt>0</asrwt>
<pdfrwt beam="1">  1        2 0.23114625E+00 0.28437290E+04</pdfrwt>
<pdfrwt beam="2">  1       -1 0.20701550E+00 0.28437290E+04</pdfrwt>
<totfact> 0.16830548E+00</totfact>
</mgrwt>
</event>
<event>
12    6  0.1462228E-007  0.2471524E+04  0.7818608E-02  0.8413201E-01
          2   -1    0    0  501    0  0.00000000000E+00  0.00000000000E+00  0.15640751509E+04  0.15640751509E+04  0.00000000000E+00 0. -1.
         -1   -1    0    0    0  501 -0.00000000000E+00 -0.00000000000E+00 -0.97636502585E+03  0.97636502585E+03  0.00000000000E+00 0.  1.
         24    2    1    2    0    0 -0.22743254827E+03 -0.10314261886E+02 -0.81667184503E+03  0.85156010301E+03  0.79810767151E+02 0.  0.
        254    2    1    2    0    0  0.22743254827E+03  0.10314261886E+02  0.14043819701E+04  0.16888800737E+04  0.91005232684E+03 0.  0.
         23    2    4    4    0    0  0.50940214615E+03  0.23266804130E+03  0.84177226039E+03  0.10150032312E+04  0.89588263759E+02 0.  0.
         23    2    4    4    0    0 -0.28196959788E+03 -0.22235377941E+03  0.56260970968E+03  0.67387684255E+03  0.92909935677E+02 0.  0.
          2    1    3    3  502    0 -0.73163415068E+02 -0.14547286165E+02 -0.15346556528E+03  0.17063466402E+03  0.00000000000E+00 0. -1.
         -1    1    3    3    0  502 -0.15426913320E+03  0.42330242795E+01 -0.66320627975E+03  0.68092543899E+03  0.00000000000E+00 0.  1.
         11    1    5    5    0    0  0.41329361511E+03  0.15471788776E+03  0.69177152455E+03  0.82054681723E+03  0.00000000000E+00 0.  1.
        -11    1    5    5    0    0  0.96108531037E+02  0.77950153539E+02  0.15000073584E+03  0.19445641395E+03  0.00000000000E+00 0. -1.
          2    1    6    6  503    0 -0.17544536420E+03 -0.19096753799E+03  0.41026569022E+03  0.48535308072E+03  0.00000000000E+00 0. -1.
         -2    1    6    6    0  503 -0.10652423368E+03 -0.31386241429E+02  0.15234401946E+03  0.18852376183E+03  0.00000000000E+00 0.  1.
<mgrwt>
<rscale>  0 0.24715244E+04</rscale>
<asrwt>0</asrwt>
<pdfrwt beam="1">  1        2 0.24062695E+00 0.24715244E+04</pdfrwt>
<pdfrwt beam="2">  1       -1 0.15021000E+00 0.24715244E+04</pdfrwt>
<totfact> 0.41339528E+00</totfact>
</mgrwt>
</event>
<event>
12    6  0.1462228E-007  0.1334320E+04  0.7818608E-02  0.9002783E-01
         -1   -1    0    0    0  501 -0.00000000000E+00  0.00000000000E+00  0.21537217822E+03  0.21537217822E+03  0.00000000000E+00 0.  1.
          2   -1    0    0  501    0  0.00000000000E+00 -0.00000000000E+00 -0.20666679871E+04  0.20666679871E+04  0.00000000000E+00 0. -1.
         24    2    1    2    0    0 -0.19318533451E+03  0.24541558984E+03 -0.16711348753E+03  0.36270307910E+03  0.77956530662E+02 0.  0.
        254    2    1    2    0    0  0.19318533451E+03 -0.24541558984E+03 -0.16841823213E+04  0.19193370862E+04  0.86593035158E+03 0.  0.
         23    2    4    4    0    0 -0.91422901562E+02 -0.43519240886E+02  0.51949033426E+02  0.14628623430E+03  0.91917838384E+02 0.  0.
         23    2    4    4    0    0  0.28460823607E+03 -0.20189634895E+03 -0.17361313547E+04  0.17730508519E+04  0.88279435440E+02 0.  0.
          2    1    3    3  502    0 -0.14781776992E+02  0.65364955882E+02 -0.21468953042E+02  0.70370408079E+02  0.00000000000E+00 0. -1.
         -1    1    3    3    0  502 -0.17840355752E+03  0.18005063395E+03 -0.14564453449E+03  0.29233267103E+03  0.00000000000E+00 0.  1.
         11    1    5    5    0    0 -0.72704133566E+02 -0.66661534168E+02  0.16518998692E+02  0.10001264167E+03  0.00000000000E+00 0.  1.
        -11    1    5    5    0    0 -0.18718767996E+02  0.23142293282E+02  0.35430034734E+02  0.46273592630E+02  0.00000000000E+00 0. -1.
          3    1    6    6  503    0  0.28670205716E+03 -0.18134346935E+03 -0.16300117631E+04  0.16649389992E+04  0.00000000000E+00 0. -1.
         -3    1    6    6    0  503 -0.20938210879E+01 -0.20552879606E+02 -0.10611959168E+03  0.10811185266E+03  0.00000000000E+00 0.  1.
<mgrwt>
<rscale>  0 0.13343205E+04</rscale>
<asrwt>0</asrwt>
<pdfrwt beam="1">  1        2 0.31794891E+00 0.13343205E+04</pdfrwt>
<pdfrwt beam="2">  1       -1 0.33134182E-01 0.13343205E+04</pdfrwt>
<totfact> 0.58534074E+01</totfact>
</mgrwt>
</event>
<event>
12    6  0.1462228E-007  0.1732355E+04  0.7818608E-02  0.8743123E-01
          2   -1    0    0  501    0  0.00000000000E+00  0.00000000000E+00  0.73318197182E+03  0.73318197182E+03  0.00000000000E+00 0. -1.
         -1   -1    0    0    0  501 -0.00000000000E+00 -0.00000000000E+00 -0.10232983207E+04  0.10232983207E+04  0.00000000000E+00 0.  1.
         24    2    1    2    0    0  0.38154577010E+03 -0.21498201688E+03 -0.55544305091E+03  0.71202606690E+03  0.81668199967E+02 0.  0.
        254    2    1    2    0    0 -0.38154577010E+03  0.21498201688E+03  0.26532670205E+03  0.10444542256E+04  0.91032517723E+03 0.  0.
         23    2    4    4    0    0 -0.46395511051E+03 -0.15845457905E+03  0.38879147474E+03  0.63247808583E+03  0.92236218712E+02 0.  0.
         23    2    4    4    0    0  0.82409340410E+02  0.37343659593E+03 -0.12346477269E+03  0.41197613977E+03  0.90744691733E+02 0.  0.
          4    1    3    3  502    0  0.83849188393E+02 -0.17827010486E+02 -0.78512525316E+02  0.11624416256E+03  0.00000000000E+00 0. -1.
         -3    1    3    3    0  502  0.29769658170E+03 -0.19715500639E+03 -0.47693052559E+03  0.59578190434E+03  0.00000000000E+00 0.  1.
         11    1    5    5    0    0 -0.38855168277E+03 -0.15673850120E+03  0.35770002590E+03  0.55089806359E+03  0.00000000000E+00 0. -1.
        -11    1    5    5    0    0 -0.75403427737E+02 -0.17160778487E+01  0.31091448838E+02  0.81580022239E+02  0.00000000000E+00 0.  1.
          3    1    6    6  503    0  0.87468610501E+02  0.26483383944E+03 -0.11881012580E+03  0.30315600988E+03  0.00000000000E+00 0. -1.
         -3    1    6    6    0  503 -0.50592700911E+01  0.10860275649E+03 -0.46546468927E+01  0.10882012989E+03  0.00000000000E+00 0.  1.
<mgrwt>
<rscale>  0 0.17323555E+04</rscale>
<asrwt>0</asrwt>
<pdfrwt beam="1">  1        2 0.11279723E+00 0.17323555E+04</pdfrwt>
<pdfrwt beam="2">  1       -1 0.15743051E+00 0.17323555E+04</pdfrwt>
<totfact> 0.12794358E+01</totfact>
</mgrwt>
</event>
<event>
12    6  0.1462228E-007  0.2207305E+04  0.7818608E-02  0.8515394E-01
         -1   -1    0    0    0  501 -0.00000000000E+00  0.00000000000E+00  0.15335460888E+04  0.15335460888E+04  0.00000000000E+00 0.  1.
          2   -1    0    0  501    0  0.00000000000E+00 -0.00000000000E+00 -0.79426914249E+03  0.79426914249E+03  0.00000000000E+00 0. -1.
         24    2    1    2    0    0 -0.31666295370E+03 -0.37750755339E+02 -0.59586531613E+03  0.68043123829E+03  0.78934462055E+02 0.  0.
        254    2    1    2    0    0  0.31666295370E+03  0.37750755339E+02  0.13351422624E+04  0.16473839930E+04  0.91080657315E+03 0.  0.
         23    2    4    4    0    0  0.91182472537E+02 -0.41753293400E+03  0.48438756359E+03  0.65248733978E+03  0.91980555197E+02 0.  0.
         23    2    4    4    0    0  0.22548048116E+03  0.45528368934E+03  0.85075469885E+03  0.99489665323E+03  0.88944408614E+02 0.  0.
          4    1    3    3  502    0 -0.17083648540E+03  0.16713011438E+02 -0.34153387077E+03  0.38224313516E+03  0.00000000000E+00 0. -1.
         -3    1    3    3    0  502 -0.14582646830E+03 -0.54463766777E+02 -0.25433144535E+03  0.29818810312E+03  0.00000000000E+00 0.  1.
         11    1    5    5    0    0  0.73585920544E+02 -0.39116129228E+03  0.40899614325E+03  0.57070122611E+03  0.00000000000E+00 0.  1.
        -11    1    5    5    0    0  0.17596551993E+02 -0.26371641720E+02  0.75391420339E+02  0.81786113673E+02  0.00000000000E+00 0. -1.
          3    1    6    6  503    0  0.17377922040E+02  0.15842713882E+02  0.81799574089E+02  0.85112596475E+02  0.00000000000E+00 0. -1.
         -3    1    6    6    0  503  0.20810255912E+03  0.43944097546E+03  0.76895512476E+03  0.90978405676E+03  0.00000000000E+00 0.  1.
<mgrwt>
<rscale>  0 0.22073045E+04</rscale>
<asrwt>0</asrwt>
<pdfrwt beam="1">  1        2 0.12219525E+00 0.22073045E+04</pdfrwt>
<pdfrwt beam="2">  1       -1 0.23593017E+00 0.22073045E+04</pdfrwt>
<totfact> 0.31255954E+00</totfact>
</mgrwt>
</event>
<event>
12    6  0.1462228E-007  0.1857392E+04  0.7818608E-02  0.8676361E-01
          2   -1    0    0  501    0  0.00000000000E+00  0.00000000000E+00  0.52070931363E+03  0.52070931363E+03  0.00000000000E+00 0. -1.
         -1   -1    0    0    0  501 -0.00000000000E+00 -0.00000000000E+00 -0.16563487566E+04  0.16563487566E+04  0.00000000000E+00 0.  1.
         24    2    1    2    0    0 -0.55920228397E+03 -0.35480749505E+03 -0.70630724583E+03  0.97156645046E+03  0.80472909748E+02 0.  0.
        254    2    1    2    0    0  0.55920228397E+03  0.35480749505E+03 -0.42933219717E+03  0.12054916198E+04  0.91120160061E+03 0.  0.
         23    2    4    4    0    0  0.66557106835E+03  0.54210362571E+03 -0.44531632392E+03  0.97139243321E+03  0.91844667255E+02 0.  0.
         23    2    4    4    0    0 -0.10636878438E+03 -0.18729613067E+03  0.15984126748E+02  0.23409918660E+03  0.90292735066E+02 0.  0.
          4    1    3    3  502    0 -0.19319833962E+03 -0.80049232911E+02 -0.23632588226E+03  0.31556837729E+03  0.00000000000E+00 0. -1.
         -3    1    3    3    0  502 -0.36600394435E+03 -0.27475826213E+03 -0.46998136357E+03  0.65599807316E+03  0.00000000000E+00 0.  1.
         11    1    5    5    0    0  0.58297731841E+03  0.49063686604E+03 -0.42318070802E+03  0.87158992636E+03  0.00000000000E+00 0. -1.
        -11    1    5    5    0    0  0.82593749944E+02  0.51466759671E+02 -0.22135615897E+02  0.99802506842E+02  0.00000000000E+00 0.  1.
          2    1    6    6  503    0  0.11710897409E+02 -0.33912536857E+02 -0.13426510624E+02  0.38307655394E+02  0.00000000000E+00 0.  1.
         -2    1    6    6    0  503 -0.11807968179E+03 -0.15338359381E+03  0.29410637372E+02  0.19579153121E+03  0.00000000000E+00 0. -1.
<mgrwt>
<rscale>  0 0.18573920E+04</rscale>
<asrwt>0</asrwt>
<pdfrwt beam="1">  1        2 0.80109124E-01 0.18573920E+04</pdfrwt>
<pdfrwt beam="2">  1       -1 0.25482289E+00 0.18573920E+04</pdfrwt>
<totfact> 0.40891926E+00</totfact>
</mgrwt>
</event>
<event>
12    6  0.1462228E-007  0.1336281E+04  0.7818608E-02  0.9001279E-01
          2   -1    0    0  501    0  0.00000000000E+00  0.00000000000E+00  0.29522534953E+04  0.29522534953E+04  0.00000000000E+00 0. -1.
         -1   -1    0    0    0  501 -0.00000000000E+00 -0.00000000000E+00 -0.15121047667E+03  0.15121047667E+03  0.00000000000E+00 0.  1.
         24    2    1    2    0    0 -0.25772803474E+03  0.16771431573E+03  0.34854773287E+03  0.47174673175E+03  0.80669853321E+02 0.  0.
        254    2    1    2    0    0  0.25772803474E+03 -0.16771431573E+03  0.24524952858E+04  0.26317172402E+04  0.90368726572E+03 0.  0.
         23    2    4    4    0    0  0.28781053741E+03  0.32395224165E+03  0.95584355156E+03  0.10535138923E+04  0.92057948921E+02 0.  0.
         23    2    4    4    0    0 -0.30082502674E+02 -0.49166655738E+03  0.14966517342E+04  0.15782033479E+04  0.90102348430E+02 0.  0.
          2    1    3    3  502    0 -0.63516055902E+02  0.16348182264E+02  0.11491735278E+03  0.13231610027E+03  0.00000000000E+00 0. -1.
         -1    1    3    3    0  502 -0.19421197884E+03  0.15136613347E+03  0.23363038009E+03  0.33943063148E+03  0.00000000000E+00 0.  1.
         11    1    5    5    0    0  0.24390551586E+03  0.31374416598E+03  0.87320155495E+03  0.95937805787E+03  0.00000000000E+00 0.  1.
        -11    1    5    5    0    0  0.43905021552E+02  0.10208075676E+02  0.82641996610E+02  0.94135834463E+02  0.00000000000E+00 0. -1.
          1    1    6    6  503    0 -0.12170464832E+02 -0.17102603751E+02  0.12294540765E+03  0.12472446645E+03  0.00000000000E+00 0. -1.
         -1    1    6    6    0  503 -0.17912037841E+02 -0.47456395363E+03  0.13737063266E+04  0.14534788814E+04  0.00000000000E+00 0.  1.
<mgrwt>
<rscale>  0 0.13362809E+04</rscale>
<asrwt>0</asrwt>
<pdfrwt beam="1">  1        2 0.45419280E+00 0.13362809E+04</pdfrwt>
<pdfrwt beam="2">  1       -1 0.23263153E-01 0.13362809E+04</pdfrwt>
<totfact> 0.33225665E+01</totfact>
</mgrwt>
</event>
<event>
12    6  0.1462228E-007  0.2441989E+04  0.7818608E-02  0.8423949E-01
         -1   -1    0    0    0  501 -0.00000000000E+00  0.00000000000E+00  0.37377639809E+03  0.37377639809E+03  0.00000000000E+00 0.  1.
          2   -1    0    0  501    0  0.00000000000E+00 -0.00000000000E+00 -0.39885561165E+04  0.39885561165E+04  0.00000000000E+00 0. -1.
         24    2    1    2    0    0  0.10564780794E+04 -0.98365315129E+02 -0.16184785290E+04  0.19366364664E+04  0.72569875128E+02 0.  0.
        254    2    1    2    0    0 -0.10564780794E+04  0.98365315129E+02 -0.19963011894E+04  0.24256960481E+04  0.87918212651E+03 0.  0.
         23    2    4    4    0    0 -0.10555988681E+04  0.22708667848E+03 -0.12137258470E+04  0.16269141308E+04  0.88666946051E+02 0.  0.
         23    2    4    4    0    0 -0.87921135051E+00 -0.12872136335E+03 -0.78257534235E+03  0.79878191734E+03  0.95175745938E+02 0.  0.
          4    1    3    3  502    0  0.14425655429E+03 -0.31403598361E+02 -0.25831885019E+03  0.29753112074E+03  0.00000000000E+00 0. -1.
         -3    1    3    3    0  502  0.91222152515E+03 -0.66961716768E+02 -0.13601596788E+04  0.16391053457E+04  0.00000000000E+00 0.  1.
         11    1    5    5    0    0 -0.69318946914E+03  0.18192212757E+03 -0.76289377366E+03  0.10467159168E+04  0.00000000000E+00 0. -1.
        -11    1    5    5    0    0 -0.36240939896E+03  0.45164550911E+02 -0.45083207339E+03  0.58019821398E+03  0.00000000000E+00 0.  1.
          1    1    6    6  503    0  0.14685494729E+02 -0.13020215547E+03 -0.53870163328E+03  0.55440753489E+03  0.00000000000E+00 0. -1.
         -1    1    6    6    0  503 -0.15564706079E+02  0.14807921185E+01 -0.24387370907E+03  0.24437438245E+03  0.00000000000E+00 0.  1.
<mgrwt>
<rscale>  0 0.24419895E+04</rscale>
<asrwt>0</asrwt>
<pdfrwt beam="1">  1        2 0.61362400E+00 0.24419895E+04</pdfrwt>
<pdfrwt beam="2">  1       -1 0.57504063E-01 0.24419895E+04</pdfrwt>
<totfact> 0.10954837E+00</totfact>
</mgrwt>
</event>
<event>
12    6  0.1462228E-007  0.1687792E+04  0.7818608E-02  0.8768358E-01
          2   -1    0    0  501    0  0.00000000000E+00  0.00000000000E+00  0.25027189871E+04  0.25027189871E+04  0.00000000000E+00 0. -1.
         -1   -1    0    0    0  501 -0.00000000000E+00 -0.00000000000E+00 -0.28455466920E+03  0.28455466920E+03  0.00000000000E+00 0.  1.
         24    2    1    2    0    0 -0.43376101007E+03  0.36649382440E+03  0.48244856637E+03  0.74941777947E+03  0.80025319828E+02 0.  0.
        254    2    1    2    0    0  0.43376101007E+03 -0.36649382440E+03  0.17357157516E+04  0.20378558768E+04  0.90425719097E+03 0.  0.
         23    2    4    4    0    0  0.55034349345E+03 -0.37887141168E+03  0.63184477022E+03  0.92415053274E+03  0.91678166071E+02 0.  0.
         23    2    4    4    0    0 -0.11658248338E+03  0.12377587278E+02  0.11038709813E+04  0.11137053441E+04  0.89798496480E+02 0.  0.
          4    1    3    3  502    0 -0.13856721625E+03  0.14830323834E+03  0.13340022119E+03  0.24287927646E+03  0.00000000000E+00 0. -1.
         -3    1    3    3    0  502 -0.29519379383E+03  0.21819058605E+03  0.34904834519E+03  0.50653850301E+03  0.00000000000E+00 0.  1.
         11    1    5    5    0    0  0.18100545816E+03 -0.15885460709E+03  0.27408223449E+03  0.36485453724E+03  0.00000000000E+00 0. -1.
        -11    1    5    5    0    0  0.36933803529E+03 -0.22001680459E+03  0.35776253573E+03  0.55929599550E+03  0.00000000000E+00 0.  1.
          4    1    6    6  503    0 -0.92314775624E+02  0.46085957277E+02  0.67685784484E+03  0.68467691313E+03  0.00000000000E+00 0. -1.
         -4    1    6    6    0  503 -0.24267707757E+02 -0.33708369999E+02  0.42701313649E+03  0.42902843098E+03  0.00000000000E+00 0.  1.
<mgrwt>
<rscale>  0 0.16877919E+04</rscale>
<asrwt>0</asrwt>
<pdfrwt beam="1">  1        2 0.38503368E+00 0.16877919E+04</pdfrwt>
<pdfrwt beam="2">  1       -1 0.43777643E-01 0.16877919E+04</pdfrwt>
<totfact> 0.19428030E+01</totfact>
</mgrwt>
</event>
<event>
12    6  0.1462228E-007  0.1541358E+04  0.7818608E-02  0.8857407E-01
         -1   -1    0    0    0  501 -0.00000000000E+00  0.00000000000E+00  0.71249232173E+03  0.71249232173E+03  0.00000000000E+00 0.  1.
          2   -1    0    0  501    0  0.00000000000E+00 -0.00000000000E+00 -0.83361718722E+03  0.83361718722E+03  0.00000000000E+00 0. -1.
         24    2    1    2    0    0 -0.53682399347E+02 -0.88400055296E+02 -0.53616173951E+03  0.55179969610E+03  0.79480336729E+02 0.  0.
        254    2    1    2    0    0  0.53682399347E+02  0.88400055296E+02  0.41503687402E+03  0.99430981286E+03  0.89760794747E+03 0.  0.
         23    2    4    4    0    0 -0.24816501283E+03  0.33972436799E+03  0.40518549152E+03  0.59116675109E+03  0.91128070576E+02 0.  0.
         23    2    4    4    0    0  0.30184741218E+03 -0.25132431270E+03  0.98513824972E+01  0.40314306177E+03  0.90285702773E+02 0.  0.
          2    1    3    3  502    0 -0.15627248069E+02 -0.90773264984E+02 -0.39269204676E+03  0.40334977391E+03  0.00000000000E+00 0. -1.
         -1    1    3    3    0  502 -0.38055151279E+02  0.23732096886E+01 -0.14346969274E+03  0.14844992219E+03  0.00000000000E+00 0.  1.
         11    1    5    5    0    0 -0.90991436677E+02  0.15502749241E+03  0.11684885185E+03  0.21439827222E+03  0.00000000000E+00 0. -1.
        -11    1    5    5    0    0 -0.15717357615E+03  0.18469687559E+03  0.28833663967E+03  0.37676847887E+03  0.00000000000E+00 0.  1.
          4    1    6    6  503    0  0.94939828975E+02 -0.78469263360E+02  0.45248999966E+02  0.13121916177E+03  0.00000000000E+00 0. -1.
         -4    1    6    6    0  503  0.20690758320E+03 -0.17285504934E+03 -0.35397617469E+02  0.27192390000E+03  0.00000000000E+00 0.  1.
<mgrwt>
<rscale>  0 0.15413576E+04</rscale>
<asrwt>0</asrwt>
<pdfrwt beam="1">  1        2 0.12824880E+00 0.15413576E+04</pdfrwt>
<pdfrwt beam="2">  1       -1 0.10961420E+00 0.15413576E+04</pdfrwt>
<totfact> 0.27585973E+01</totfact>
</mgrwt>
</event>
<event>
12    6  0.1462228E-007  0.1513667E+04  0.7818608E-02  0.8875415E-01
          2   -1    0    0  501    0  0.00000000000E+00  0.00000000000E+00  0.23367883468E+04  0.23367883468E+04  0.00000000000E+00 0. -1.
         -1   -1    0    0    0  501 -0.00000000000E+00 -0.00000000000E+00 -0.24512130386E+03  0.24512130386E+03  0.00000000000E+00 0.  1.
         24    2    1    2    0    0  0.10839768737E+03 -0.10331503168E+03  0.14654335905E+04  0.14753949083E+04  0.82888315487E+02 0.  0.
        254    2    1    2    0    0 -0.10839768737E+03  0.10331503168E+03  0.62623345235E+03  0.11065147423E+04  0.89987914945E+03 0.  0.
         23    2    4    4    0    0  0.36110481943E+02  0.25575534591E+03  0.78198306129E+03  0.82872312459E+03  0.92572918399E+02 0.  0.
         23    2    4    4    0    0 -0.14450816931E+03 -0.15244031423E+03 -0.15574960894E+03  0.27779161768E+03  0.93752769376E+02 0.  0.
          2    1    3    3  502    0  0.11553488457E+03 -0.11025478249E+03  0.13209540768E+04  0.13305728464E+04  0.00000000000E+00 0. -1.
         -1    1    3    3    0  502 -0.71371971974E+01  0.69397508187E+01  0.14447951374E+03  0.14482206191E+03  0.00000000000E+00 0.  1.
         11    1    5    5    0    0  0.13459921573E+02  0.24277459827E+03  0.64572283092E+03  0.68998452840E+03  0.00000000000E+00 0. -1.
        -11    1    5    5    0    0  0.22650560369E+02  0.12980747644E+02  0.13626023037E+03  0.13873859619E+03  0.00000000000E+00 0.  1.
          4    1    6    6  503    0 -0.14664093072E+02 -0.79737547925E+02 -0.59502017516E+02  0.10056640723E+03  0.00000000000E+00 0. -1.
         -4    1    6    6    0  503 -0.12984407624E+03 -0.72702766310E+02 -0.96247591425E+02  0.17722521045E+03  0.00000000000E+00 0.  1.
<mgrwt>
<rscale>  0 0.15136666E+04</rscale>
<asrwt>0</asrwt>
<pdfrwt beam="1">  1        2 0.35950588E+00 0.15136666E+04</pdfrwt>
<pdfrwt beam="2">  1       -1 0.37710972E-01 0.15136666E+04</pdfrwt>
<totfact> 0.32264606E+01</totfact>
</mgrwt>
</event>
<event>
12    6  0.2039765E-007  0.2124320E+04  0.7818608E-02  0.8550605E-01
          2   -1    0    0  501    0  0.00000000000E+00  0.00000000000E+00  0.18897050746E+04  0.18897050746E+04  0.00000000000E+00 0. -1.
         -1   -1    0    0    0  501 -0.00000000000E+00 -0.00000000000E+00 -0.59701586451E+03  0.59701586451E+03  0.00000000000E+00 0.  1.
         24    2    1    2    0    0  0.60141303364E+03 -0.32862293453E+03 -0.90950016268E+02  0.69622995517E+03  0.82301730798E+02 0.  0.
        254    2    1    2    0    0 -0.60141303364E+03  0.32862293453E+03  0.13836392263E+04  0.17904909839E+04  0.90648209288E+03 0.  0.
         23    2    4    4    0    0 -0.43867670385E+03  0.25627876887E+03  0.14812944592E+04  0.15684404757E+04  0.87499673791E+02 0.  0.
         23    2    4    4    0    0 -0.16273632979E+03  0.72344165659E+02 -0.97655232927E+02  0.22205050822E+03  0.89739023528E+02 0.  0.
          2    1    3    3  502    0  0.11098125799E+03 -0.75505043663E+02 -0.48414050148E+02  0.14269467928E+03  0.00000000000E+00 0. -1.
         -1    1    3    3    0  502  0.49043177565E+03 -0.25311789087E+03 -0.42535966120E+02  0.55353527589E+03  0.00000000000E+00 0.  1.
         11    1    5    5    0    0 -0.28001932464E+03  0.15584884084E+03  0.80159338546E+03  0.86327958333E+03  0.00000000000E+00 0.  1.
        -11    1    5    5    0    0 -0.15865737921E+03  0.10042992803E+03  0.67970107378E+03  0.70516089237E+03  0.00000000000E+00 0. -1.
          1    1    6    6  503    0 -0.14879334456E+03  0.79270442590E+02 -0.11074364202E+03  0.20171122107E+03  0.00000000000E+00 0. -1.
         -1    1    6    6    0  503 -0.13942985222E+02 -0.69262769316E+01  0.13088409098E+02  0.20339287150E+02  0.00000000000E+00 0.  1.
<mgrwt>
<rscale>  0 0.21243200E+04</rscale>
<asrwt>0</asrwt>
<pdfrwt beam="1">  1        2 0.29072386E+00 0.21243200E+04</pdfrwt>
<pdfrwt beam="2">  1       -1 0.91848595E-01 0.21243200E+04</pdfrwt>
<totfact> 0.93022478E+00</totfact>
</mgrwt>
</event>
<event>
12    6  0.1462228E-007  0.1677553E+04  0.7818608E-02  0.8774271E-01
         -1   -1    0    0    0  501 -0.00000000000E+00  0.00000000000E+00  0.28338465897E+03  0.28338465897E+03  0.00000000000E+00 0.  1.
          2   -1    0    0  501    0  0.00000000000E+00 -0.00000000000E+00 -0.24826533532E+04  0.24826533532E+04  0.00000000000E+00 0. -1.
         24    2    1    2    0    0  0.85366092660E+02  0.56588296787E+03 -0.97286046408E+03  0.11316305900E+04  0.81359735255E+02 0.  0.
        254    2    1    2    0    0 -0.85366092660E+02 -0.56588296787E+03 -0.12264082301E+04  0.16344074222E+04  0.91635122721E+03 0.  0.
         23    2    4    4    0    0  0.26485353025E+03 -0.65163462810E+03 -0.78233281539E+03  0.10550872792E+04  0.79934045433E+02 0.  0.
         23    2    4    4    0    0 -0.35021962291E+03  0.85751660227E+02 -0.44407541475E+03  0.57932014300E+03  0.91660910953E+02 0.  0.
          2    1    3    3  502    0  0.83720699109E+02  0.56858067332E+03 -0.96930274638E+03  0.11268721985E+04  0.00000000000E+00 0. -1.
         -1    1    3    3    0  502  0.16453935502E+01 -0.26977054507E+01 -0.35577176986E+01  0.47583915199E+01  0.00000000000E+00 0.  1.
         11    1    5    5    0    0  0.42466507506E+02 -0.15846974050E+03 -0.14349774799E+03  0.21796253483E+03  0.00000000000E+00 0.  1.
        -11    1    5    5    0    0  0.22238702274E+03 -0.49316488760E+03 -0.63883506741E+03  0.83712474435E+03  0.00000000000E+00 0. -1.
          1    1    6    6  503    0 -0.12136214340E+03  0.52330133845E+01 -0.94972460670E+02  0.15419443104E+03  0.00000000000E+00 0. -1.
         -1    1    6    6    0  503 -0.22885747951E+03  0.80518646842E+02 -0.34910295408E+03  0.42512571196E+03  0.00000000000E+00 0.  1.
<mgrwt>
<rscale>  0 0.16775528E+04</rscale>
<asrwt>0</asrwt>
<pdfrwt beam="1">  1        2 0.38194668E+00 0.16775528E+04</pdfrwt>
<pdfrwt beam="2">  1       -1 0.43597638E-01 0.16775528E+04</pdfrwt>
<totfact> 0.20124282E+01</totfact>
</mgrwt>
</event>
<event>
12    6  0.1462228E-007  0.1354012E+04  0.7818608E-02  0.8987797E-01
          2   -1    0    0  501    0  0.00000000000E+00  0.00000000000E+00  0.90283526717E+03  0.90283526717E+03  0.00000000000E+00 0. -1.
         -1   -1    0    0    0  501 -0.00000000000E+00 -0.00000000000E+00 -0.50766402106E+03  0.50766402106E+03  0.00000000000E+00 0.  1.
         24    2    1    2    0    0 -0.19455433966E+03 -0.23417892174E+03  0.35119882284E+03  0.47101056102E+03  0.76283530047E+02 0.  0.
        254    2    1    2    0    0  0.19455433966E+03  0.23417892174E+03  0.43972423262E+02  0.93948872721E+03  0.88770171572E+03 0.  0.
         23    2    4    4    0    0  0.18634808742E+03  0.41816460474E+03 -0.28880843716E+03  0.54889884396E+03  0.91062512530E+02 0.  0.
         23    2    4    4    0    0  0.82062522403E+01 -0.18398568300E+03  0.33278086042E+03  0.39058988325E+03  0.88877903382E+02 0.  0.
          4    1    3    3  502    0 -0.13802091733E+03 -0.18361172747E+03  0.21246795880E+03  0.31289882327E+03  0.00000000000E+00 0. -1.
         -3    1    3    3    0  502 -0.56533422334E+02 -0.50567194265E+02  0.13873086403E+03  0.15811173774E+03  0.00000000000E+00 0.  1.
         11    1    5    5    0    0  0.16603399413E+03  0.35360257408E+03 -0.28004152265E+03  0.48065093572E+03  0.00000000000E+00 0. -1.
        -11    1    5    5    0    0  0.20314093293E+02  0.64562030661E+02 -0.87669145061E+01  0.68247908241E+02  0.00000000000E+00 0.  1.
          3    1    6    6  503    0  0.33241373624E+02 -0.13786609024E+03  0.18067105544E+03  0.22968255927E+03  0.00000000000E+00 0. -1.
         -3    1    6    6    0  503 -0.25035121384E+02 -0.46119592758E+02  0.15210980498E+03  0.16090732398E+03  0.00000000000E+00 0.  1.
<mgrwt>
<rscale>  0 0.13540118E+04</rscale>
<asrwt>0</asrwt>
<pdfrwt beam="1">  1        2 0.13889773E+00 0.13540118E+04</pdfrwt>
<pdfrwt beam="2">  1       -1 0.78102157E-01 0.13540118E+04</pdfrwt>
<totfact> 0.53421820E+01</totfact>
</mgrwt>
</event>
<event>
12    6  0.1462228E-007  0.1819724E+04  0.7818608E-02  0.8695880E-01
         -1   -1    0    0    0  501 -0.00000000000E+00  0.00000000000E+00  0.59255070592E+03  0.59255070592E+03  0.00000000000E+00 0.  1.
          2   -1    0    0  501    0  0.00000000000E+00 -0.00000000000E+00 -0.13970939440E+04  0.13970939440E+04  0.00000000000E+00 0. -1.
         24    2    1    2    0    0 -0.56353178394E+03  0.35097966098E+03 -0.49771331544E+03  0.83355388071E+03  0.79616165143E+02 0.  0.
        254    2    1    2    0    0  0.56353178394E+03 -0.35097966098E+03 -0.30682992266E+03  0.11560907692E+04  0.89534712337E+03 0.  0.
         23    2    4    4    0    0  0.41810490118E+03  0.23388987765E+03 -0.33113411147E+02  0.48900405427E+03  0.92262038958E+02 0.  0.
         23    2    4    4    0    0  0.14542688276E+03 -0.58486953863E+03 -0.27371651151E+03  0.66708671496E+03  0.82840818169E+02 0.  0.
          2    1    3    3  502    0 -0.47769389605E+03  0.32847824840E+03 -0.43811210546E+03  0.72665785274E+03  0.00000000000E+00 0. -1.
         -1    1    3    3    0  502 -0.85837887892E+02  0.22501412580E+02 -0.59601209977E+02  0.10689602797E+03  0.00000000000E+00 0.  1.
         11    1    5    5    0    0  0.14997483370E+03  0.12759450638E+03  0.11019386062E+02  0.19721621554E+03  0.00000000000E+00 0.  1.
        -11    1    5    5    0    0  0.26813006748E+03  0.10629537127E+03 -0.44132797208E+02  0.29178783873E+03  0.00000000000E+00 0. -1.
          2    1    6    6  503    0  0.17342288379E+02 -0.21614574210E+03 -0.78101134182E+02  0.23047673192E+03  0.00000000000E+00 0. -1.
         -2    1    6    6    0  503  0.12808459438E+03 -0.36872379653E+03 -0.19561537733E+03  0.43660998304E+03  0.00000000000E+00 0.  1.
<mgrwt>
<rscale>  0 0.18197242E+04</rscale>
<asrwt>0</asrwt>
<pdfrwt beam="1">  1        2 0.21493753E+00 0.18197242E+04</pdfrwt>
<pdfrwt beam="2">  1       -1 0.91161649E-01 0.18197242E+04</pdfrwt>
<totfact> 0.18322807E+01</totfact>
</mgrwt>
</event>
<event>
12    6  0.1462228E-007  0.1604844E+04  0.7818608E-02  0.8817577E-01
         -1   -1    0    0    0  501 -0.00000000000E+00  0.00000000000E+00  0.32530072820E+03  0.32530072820E+03  0.00000000000E+00 0.  1.
          2   -1    0    0  501    0  0.00000000000E+00 -0.00000000000E+00 -0.19793420897E+04  0.19793420897E+04  0.00000000000E+00 0. -1.
         24    2    1    2    0    0  0.79875190234E+02 -0.22194931718E+03  0.13878962025E+03  0.28499724668E+03  0.79494191709E+02 0.  0.
        254    2    1    2    0    0 -0.79875190234E+02  0.22194931718E+03 -0.17928309817E+04  0.20196455712E+04  0.89949083309E+03 0.  0.
         23    2    4    4    0    0  0.35298075380E+03 -0.89237447077E+01 -0.11455107873E+04  0.12021835334E+04  0.91516329141E+02 0.  0.
         23    2    4    4    0    0 -0.43285594404E+03  0.23087306188E+03 -0.64732019442E+03  0.81746203775E+03  0.92488432009E+02 0.  0.
          2    1    3    3  502    0  0.22787663101E+01 -0.14461835776E+02  0.39717166818E+02  0.42329550080E+02  0.00000000000E+00 0. -1.
         -1    1    3    3    0  502  0.77596423924E+02 -0.20748748140E+03  0.99072453435E+02  0.24266769660E+03  0.00000000000E+00 0.  1.
         11    1    5    5    0    0  0.25922249064E+03 -0.41145370956E+02 -0.75648947617E+03  0.80072814910E+03  0.00000000000E+00 0. -1.
        -11    1    5    5    0    0  0.93758263162E+02  0.32221626248E+02 -0.38902131112E+03  0.40145538434E+03  0.00000000000E+00 0.  1.
          2    1    6    6  503    0 -0.25860643357E+03  0.18040028111E+03 -0.44936349761E+03  0.54895273193E+03  0.00000000000E+00 0. -1.
         -2    1    6    6    0  503 -0.17424951046E+03  0.50472780772E+02 -0.19795669682E+03  0.26850930582E+03  0.00000000000E+00 0.  1.
<mgrwt>
<rscale>  0 0.16048444E+04</rscale>
<asrwt>0</asrwt>
<pdfrwt beam="1">  1        2 0.30451416E+00 0.16048444E+04</pdfrwt>
<pdfrwt beam="2">  1       -1 0.50046267E-01 0.16048444E+04</pdfrwt>
<totfact> 0.30018910E+01</totfact>
</mgrwt>
</event>
<event>
12    6  0.1462228E-007  0.1519873E+04  0.7818608E-02  0.8871344E-01
          2   -1    0    0  501    0  0.00000000000E+00  0.00000000000E+00  0.12452480025E+04  0.12452480025E+04  0.00000000000E+00 0. -1.
         -1   -1    0    0    0  501 -0.00000000000E+00 -0.00000000000E+00 -0.46376594823E+03  0.46376594823E+03  0.00000000000E+00 0.  1.
         24    2    1    2    0    0  0.39034994081E+02 -0.48608342830E+03  0.24347414129E+03  0.55075592760E+03  0.79067087194E+02 0.  0.
        254    2    1    2    0    0 -0.39034994081E+02  0.48608342830E+03  0.53800791297E+03  0.11582580231E+04  0.90239032779E+03 0.  0.
         23    2    4    4    0    0  0.26264322310E+03  0.54693729946E+03  0.11088976782E+03  0.62357341199E+03  0.91789908746E+02 0.  0.
         23    2    4    4    0    0 -0.30167821718E+03 -0.60853871166E+02  0.42711814515E+03  0.53468461114E+03  0.93513545078E+02 0.  0.
          4    1    3    3  502    0 -0.11164287616E+02 -0.14765472309E+03  0.42899395065E+02  0.15416522522E+03  0.00000000000E+00 0. -1.
         -3    1    3    3    0  502  0.50199281696E+02 -0.33842870520E+03  0.20057474623E+03  0.39659070238E+03  0.00000000000E+00 0.  1.
         11    1    5    5    0    0  0.20284129304E+03  0.35189591087E+03  0.10482345168E+03  0.41947977099E+03  0.00000000000E+00 0. -1.
        -11    1    5    5    0    0  0.59801930055E+02  0.19504138859E+03  0.60663161339E+01  0.20409364099E+03  0.00000000000E+00 0.  1.
          1    1    6    6  503    0 -0.16889693713E+03 -0.33377853881E+01  0.17010128416E+03  0.23973269084E+03  0.00000000000E+00 0. -1.
         -1    1    6    6    0  503 -0.13278128005E+03 -0.57516085778E+02  0.25701686099E+03  0.29495192030E+03  0.00000000000E+00 0.  1.
<mgrwt>
<rscale>  0 0.15198732E+04</rscale>
<asrwt>0</asrwt>
<pdfrwt beam="1">  1        2 0.19157661E+00 0.15198732E+04</pdfrwt>
<pdfrwt beam="2">  1       -1 0.71348608E-01 0.15198732E+04</pdfrwt>
<totfact> 0.38844526E+01</totfact>
</mgrwt>
</event>
<event>
12    6  0.1462228E-007  0.2584415E+04  0.7818608E-02  0.8373514E-01
          2   -1    0    0  501    0  0.00000000000E+00  0.00000000000E+00  0.18980406445E+04  0.18980406445E+04  0.00000000000E+00 0. -1.
         -1   -1    0    0    0  501 -0.00000000000E+00 -0.00000000000E+00 -0.87974956753E+03  0.87974956753E+03  0.00000000000E+00 0.  1.
         24    2    1    2    0    0  0.75361694592E+02  0.74380236573E+03  0.13597784874E+04  0.15537560808E+04  0.78987844257E+02 0.  0.
        254    2    1    2    0    0 -0.75361694592E+02 -0.74380236573E+03 -0.34148741042E+03  0.12240341312E+04  0.90704165213E+03 0.  0.
         23    2    4    4    0    0  0.14275114053E+03 -0.30570735126E+02  0.22476560621E+03  0.28340919707E+03  0.92134343680E+02 0.  0.
         23    2    4    4    0    0 -0.21811283512E+03 -0.71323163060E+03 -0.56625301663E+03  0.94062493417E+03  0.88657882921E+02 0.  0.
          4    1    3    3  502    0  0.88638461869E+02  0.52243340752E+03  0.97038111631E+03  0.11056368993E+04  0.00000000000E+00 0. -1.
         -3    1    3    3    0  502 -0.13276767277E+02  0.22136895821E+03  0.38939737106E+03  0.44811918146E+03  0.00000000000E+00 0.  1.
         11    1    5    5    0    0  0.42488936042E+02  0.13171939921E+02  0.15194890883E+02  0.47007386613E+02  0.00000000000E+00 0.  1.
        -11    1    5    5    0    0  0.10026220449E+03 -0.43742675047E+02  0.20957071532E+03  0.23640181046E+03  0.00000000000E+00 0. -1.
          4    1    6    6  503    0 -0.45076745825E+02 -0.28974471843E+03 -0.23590695669E+03  0.37634559528E+03  0.00000000000E+00 0. -1.
         -4    1    6    6    0  503 -0.17303608930E+03 -0.42348691217E+03 -0.33034605994E+03  0.56427933889E+03  0.00000000000E+00 0.  1.
<mgrwt>
<rscale>  0 0.25844152E+04</rscale>
<asrwt>0</asrwt>
<pdfrwt beam="1">  1        2 0.29200625E+00 0.25844152E+04</pdfrwt>
<pdfrwt beam="2">  1       -1 0.13534609E+00 0.25844152E+04</pdfrwt>
<totfact> 0.35112271E+00</totfact>
</mgrwt>
</event>
<event>
12    6  0.1462228E-007  0.2157771E+04  0.7818608E-02  0.8536213E-01
          2   -1    0    0  501    0  0.00000000000E+00  0.00000000000E+00  0.21273719220E+04  0.21273719220E+04  0.00000000000E+00 0. -1.
         -1   -1    0    0    0  501 -0.00000000000E+00 -0.00000000000E+00 -0.54715096116E+03  0.54715096116E+03  0.00000000000E+00 0.  1.
         24    2    1    2    0    0 -0.12242053654E+03  0.87583613718E+03  0.73256911783E+03  0.11524202132E+04  0.96639063018E+02 0.  0.
        254    2    1    2    0    0  0.12242053654E+03 -0.87583613718E+03  0.84765184303E+03  0.15221026700E+04  0.90344184313E+03 0.  0.
         23    2    4    4    0    0 -0.21348846374E+03 -0.78755689086E+03  0.82267447015E+03  0.11620860840E+04  0.88473738395E+02 0.  0.
         23    2    4    4    0    0  0.33590900029E+03 -0.88279246323E+02  0.24977372873E+02  0.36001658591E+03  0.91432987326E+02 0.  0.
          2    1    3    3  502    0 -0.44026198566E+02  0.18340649523E+03  0.20360085163E+03  0.27754198860E+03  0.00000000000E+00 0. -1.
         -1    1    3    3    0  502 -0.78394337978E+02  0.69242964196E+03  0.52896826620E+03  0.87487822463E+03  0.00000000000E+00 0.  1.
         11    1    5    5    0    0 -0.11449166751E+03 -0.26141536354E+03  0.28654256560E+03  0.40441683462E+03  0.00000000000E+00 0. -1.
        -11    1    5    5    0    0 -0.98996796229E+02 -0.52614152732E+03  0.53613190455E+03  0.75766924942E+03  0.00000000000E+00 0.  1.
          1    1    6    6  503    0  0.22812497046E+03 -0.92416407313E+02  0.45266536462E+02  0.25026157078E+03  0.00000000000E+00 0. -1.
         -1    1    6    6    0  503  0.10778402983E+03  0.41371609893E+01 -0.20289163589E+02  0.10975501513E+03  0.00000000000E+00 0.  1.
<mgrwt>
<rscale>  0 0.21577707E+04</rscale>
<asrwt>0</asrwt>
<pdfrwt beam="1">  1        2 0.32728798E+00 0.21577707E+04</pdfrwt>
<pdfrwt beam="2">  1       -1 0.84177072E-01 0.21577707E+04</pdfrwt>
<totfact> 0.82794785E+00</totfact>
</mgrwt>
</event>
<event>
12    6  0.1462228E-007  0.1184641E+04  0.7818608E-02  0.9126408E-01
          2   -1    0    0  501    0  0.00000000000E+00  0.00000000000E+00  0.18535856241E+04  0.18535856241E+04  0.00000000000E+00 0. -1.
         -1   -1    0    0    0  501 -0.00000000000E+00 -0.00000000000E+00 -0.18927827768E+03  0.18927827768E+03  0.00000000000E+00 0.  1.
         24    2    1    2    0    0 -0.17784551969E+03 -0.77083470646E+02  0.12315811177E+03  0.24332621199E+03  0.80429065790E+02 0.  0.
        254    2    1    2    0    0  0.17784551969E+03  0.77083470646E+02  0.15411492346E+04  0.17995376898E+04  0.90863856577E+03 0.  0.
         23    2    4    4    0    0 -0.33334058060E+03  0.23062412506E+02  0.32059094837E+03  0.47210473516E+03  0.91959269443E+02 0.  0.
         23    2    4    4    0    0  0.51118610029E+03  0.54021058140E+02  0.12205582862E+04  0.13274329546E+04  0.89923383964E+02 0.  0.
          4    1    3    3  502    0 -0.13804223832E+02 -0.31590421673E+02  0.22950362302E+01  0.34551100249E+02  0.00000000000E+00 0. -1.
         -3    1    3    3    0  502 -0.16404129586E+03 -0.45493048973E+02  0.12086307554E+03  0.20877511174E+03  0.00000000000E+00 0.  1.
         11    1    5    5    0    0 -0.30746842461E+02  0.11281233865E+02  0.23874000426E+01  0.32837999905E+02  0.00000000000E+00 0. -1.
        -11    1    5    5    0    0 -0.30259373814E+03  0.11781178641E+02  0.31820354833E+03  0.43926673526E+03  0.00000000000E+00 0.  1.
          2    1    6    6  503    0  0.42720337619E+03  0.53536747469E+02  0.10926613302E+04  0.11744265369E+04  0.00000000000E+00 0. -1.
         -2    1    6    6    0  503  0.83982724107E+02  0.48431067092E+00  0.12789695602E+03  0.15300641773E+03  0.00000000000E+00 0.  1.
<mgrwt>
<rscale>  0 0.11846409E+04</rscale>
<asrwt>0</asrwt>
<pdfrwt beam="1">  1        2 0.28516701E+00 0.11846409E+04</pdfrwt>
<pdfrwt beam="2">  1       -1 0.29119736E-01 0.11846409E+04</pdfrwt>
<totfact> 0.97529167E+01</totfact>
</mgrwt>
</event>
<event>
12    6  0.1462228E-007  0.1996752E+04  0.7818608E-02  0.8608141E-01
          2   -1    0    0  501    0  0.00000000000E+00  0.00000000000E+00  0.15069353097E+04  0.15069353097E+04  0.00000000000E+00 0. -1.
         -1   -1    0    0    0  501 -0.00000000000E+00 -0.00000000000E+00 -0.66144494289E+03  0.66144494289E+03  0.00000000000E+00 0.  1.
         24    2    1    2    0    0  0.24100859799E+02  0.32189558543E+03 -0.44921593422E+03  0.55837860422E+03  0.76118924913E+02 0.  0.
        254    2    1    2    0    0 -0.24100859799E+02 -0.32189558543E+03  0.12947063010E+04  0.16100016484E+04  0.90091247213E+03 0.  0.
         23    2    4    4    0    0 -0.32151109816E+03 -0.37220190778E+03  0.34039900993E+03  0.60502275342E+03  0.90980216530E+02 0.  0.
         23    2    4    4    0    0  0.29741023836E+03  0.50306322345E+02  0.95430729110E+03  0.10049788949E+04  0.91085660134E+02 0.  0.
          2    1    3    3  502    0  0.60001063602E+01  0.17586875177E+03 -0.18093741716E+03  0.25239684636E+03  0.00000000000E+00 0. -1.
         -1    1    3    3    0  502  0.18100753439E+02  0.14602683366E+03 -0.26827851707E+03  0.30598175786E+03  0.00000000000E+00 0.  1.
         11    1    5    5    0    0 -0.76292759345E+02 -0.11109438971E+03  0.14105426521E+03  0.19508678656E+03  0.00000000000E+00 0.  1.
        -11    1    5    5    0    0 -0.24521833882E+03 -0.26110751806E+03  0.19934474472E+03  0.40993596686E+03  0.00000000000E+00 0. -1.
          2    1    6    6  503    0  0.25902634958E+03  0.32918242955E+02  0.89440744520E+03  0.93174188407E+03  0.00000000000E+00 0. -1.
         -2    1    6    6    0  503  0.38383888785E+02  0.17388079391E+02  0.59899845899E+02  0.73237010874E+02  0.00000000000E+00 0.  1.
<mgrwt>
<rscale>  0 0.19967521E+04</rscale>
<asrwt>0</asrwt>
<pdfrwt beam="1">  1        2 0.23183620E+00 0.19967521E+04</pdfrwt>
<pdfrwt beam="2">  1       -1 0.10176076E+00 0.19967521E+04</pdfrwt>
<totfact> 0.12195468E+01</totfact>
</mgrwt>
</event>
<event>
12    6  0.1462228E-007  0.1314612E+04  0.7818608E-02  0.9018057E-01
         -1   -1    0    0    0  501 -0.00000000000E+00  0.00000000000E+00  0.26521377807E+03  0.26521377807E+03  0.00000000000E+00 0.  1.
          2   -1    0    0  501    0  0.00000000000E+00 -0.00000000000E+00 -0.16290672444E+04  0.16290672444E+04  0.00000000000E+00 0. -1.
         24    2    1    2    0    0  0.15032260987E+03  0.16317825347E+03  0.10652099300E+02  0.23601414029E+03  0.79782064094E+02 0.  0.
        254    2    1    2    0    0 -0.15032260987E+03 -0.16317825347E+03 -0.13745055656E+04  0.16582668822E+04  0.90075494623E+03 0.  0.
         23    2    4    4    0    0 -0.41555456542E+03 -0.31333407996E+03 -0.49750487100E+03  0.72550425724E+03  0.89339174420E+02 0.  0.
         23    2    4    4    0    0  0.26523195555E+03  0.15015582649E+03 -0.87700069458E+03  0.93276262491E+03  0.89560781926E+02 0.  0.
          2    1    3    3  502    0 -0.56721552129E+01  0.30216028776E+02 -0.37697663247E+00  0.30746119286E+02  0.00000000000E+00 0. -1.
         -1    1    3    3    0  502  0.15599476508E+03  0.13296222470E+03  0.11029075932E+02  0.20526802100E+03  0.00000000000E+00 0.  1.
         11    1    5    5    0    0 -0.70779219607E+02 -0.26501462306E+02 -0.42897297543E+02  0.86903415175E+02  0.00000000000E+00 0. -1.
        -11    1    5    5    0    0 -0.34477534582E+03 -0.28683261766E+03 -0.45460757346E+03  0.63860084206E+03  0.00000000000E+00 0.  1.
          1    1    6    6  503    0  0.80501067123E+02  0.16185783447E+02 -0.33018425469E+03  0.34024115483E+03  0.00000000000E+00 0. -1.
         -1    1    6    6    0  503  0.18473088843E+03  0.13397004305E+03 -0.54681643989E+03  0.59252147008E+03  0.00000000000E+00 0.  1.
<mgrwt>
<rscale>  0 0.13146118E+04</rscale>
<asrwt>0</asrwt>
<pdfrwt beam="1">  1        2 0.25062573E+00 0.13146118E+04</pdfrwt>
<pdfrwt beam="2">  1       -1 0.40802120E-01 0.13146118E+04</pdfrwt>
<totfact> 0.70367759E+01</totfact>
</mgrwt>
</event>
<event>
12    6  0.1462228E-007  0.1588376E+04  0.7818608E-02  0.8827721E-01
          2   -1    0    0  501    0  0.00000000000E+00  0.00000000000E+00  0.25322405613E+04  0.25322405613E+04  0.00000000000E+00 0. -1.
         -1   -1    0    0    0  501 -0.00000000000E+00 -0.00000000000E+00 -0.24908163761E+03  0.24908163761E+03  0.00000000000E+00 0.  1.
         24    2    1    2    0    0  0.23034985428E+03 -0.19143267656E+03  0.15716613330E+04  0.16019309817E+04  0.79724522144E+02 0.  0.
        254    2    1    2    0    0 -0.23034985428E+03  0.19143267656E+03  0.71149759064E+03  0.11793912172E+04  0.89164303205E+03 0.  0.
         23    2    4    4    0    0 -0.77373884948E+02 -0.19425001538E+03  0.71900926513E+03  0.75448751085E+03  0.92505643841E+02 0.  0.
         23    2    4    4    0    0 -0.15297596934E+03  0.38568269194E+03 -0.75116744970E+01  0.42490370630E+03  0.91290461282E+02 0.  0.
          4    1    3    3  502    0  0.23328570187E+03 -0.17618987331E+03  0.15245989624E+04  0.15523746604E+04  0.00000000000E+00 0. -1.
         -3    1    3    3    0  502 -0.29358475819E+01 -0.15242803246E+02  0.47062370625E+02  0.49556321299E+02  0.00000000000E+00 0.  1.
         11    1    5    5    0    0 -0.25034160606E+02 -0.14398980229E+03  0.36607643563E+03  0.39417220740E+03  0.00000000000E+00 0. -1.
        -11    1    5    5    0    0 -0.52339724343E+02 -0.50260213082E+02  0.35293282951E+03  0.36031530346E+03  0.00000000000E+00 0.  1.
          2    1    6    6  503    0 -0.96679341008E+02  0.24933475256E+03  0.38956315443E+02  0.27024490434E+03  0.00000000000E+00 0. -1.
         -2    1    6    6    0  503 -0.56296628329E+02  0.13634793938E+03 -0.46467989940E+02  0.15465880196E+03  0.00000000000E+00 0.  1.
<mgrwt>
<rscale>  0 0.15883761E+04</rscale>
<asrwt>0</asrwt>
<pdfrwt beam="1">  1        2 0.38957545E+00 0.15883761E+04</pdfrwt>
<pdfrwt beam="2">  1       -1 0.38320254E-01 0.15883761E+04</pdfrwt>
<totfact> 0.24063191E+01</totfact>
</mgrwt>
</event>
<event>
12    6  0.1462228E-007  0.2546537E+04  0.7818608E-02  0.8386592E-01
         -1   -1    0    0    0  501 -0.00000000000E+00  0.00000000000E+00  0.18614287197E+04  0.18614287197E+04  0.00000000000E+00 0.  1.
          2   -1    0    0  501    0  0.00000000000E+00 -0.00000000000E+00 -0.87095049424E+03  0.87095049424E+03  0.00000000000E+00 0. -1.
         24    2    1    2    0    0 -0.60669827705E+03  0.92276803790E+03  0.58281565122E+03  0.12512708556E+04  0.80131265496E+02 0.  0.
        254    2    1    2    0    0  0.60669827705E+03 -0.92276803790E+03  0.40766257422E+03  0.14811083583E+04  0.89883788493E+03 0.  0.
         23    2    4    4    0    0  0.16117810449E+03 -0.90248545131E+03  0.44806935992E+03  0.10243971744E+04  0.90360657458E+02 0.  0.
         23    2    4    4    0    0  0.44552017256E+03 -0.20282586592E+02 -0.40406785705E+02  0.45671118388E+03  0.89737337136E+02 0.  0.
          4    1    3    3  502    0 -0.17169582400E+03  0.29903868467E+03  0.21696744728E+03  0.40740454598E+03  0.00000000000E+00 0. -1.
         -3    1    3    3    0  502 -0.43500245305E+03  0.62372935323E+03  0.36584820394E+03  0.84386630965E+03  0.00000000000E+00 0.  1.
         11    1    5    5    0    0  0.10744501618E+03 -0.62590749802E+03  0.26339429153E+03  0.68751813096E+03  0.00000000000E+00 0. -1.
        -11    1    5    5    0    0  0.53733088308E+02 -0.27657795329E+03  0.18467506839E+03  0.33687904344E+03  0.00000000000E+00 0.  1.
          2    1    6    6  503    0  0.28986222143E+03  0.28443618378E+02 -0.15023535263E+02  0.29164165246E+03  0.00000000000E+00 0. -1.
         -2    1    6    6    0  503  0.15565795113E+03 -0.48726204970E+02 -0.25383250441E+02  0.16506953142E+03  0.00000000000E+00 0.  1.
<mgrwt>
<rscale>  0 0.25465367E+04</rscale>
<asrwt>0</asrwt>
<pdfrwt beam="1">  1        2 0.13399238E+00 0.25465367E+04</pdfrwt>
<pdfrwt beam="2">  1       -1 0.28637365E+00 0.25465367E+04</pdfrwt>
<totfact> 0.12585817E+00</totfact>
</mgrwt>
</event>
<event>
12    6  0.1462228E-007  0.2416133E+04  0.7818608E-02  0.8433488E-01
          2   -1    0    0  501    0  0.00000000000E+00  0.00000000000E+00  0.11271366375E+04  0.11271366375E+04  0.00000000000E+00 0. -1.
         -1   -1    0    0    0  501 -0.00000000000E+00 -0.00000000000E+00 -0.12948077267E+04  0.12948077267E+04  0.00000000000E+00 0.  1.
         24    2    1    2    0    0  0.55669546612E+03  0.63287704704E+03 -0.67954344547E+03  0.10859029895E+04  0.83443451955E+02 0.  0.
        254    2    1    2    0    0 -0.55669546612E+03 -0.63287704704E+03  0.51187235621E+03  0.13360413747E+04  0.90141557959E+03 0.  0.
         23    2    4    4    0    0 -0.80445363892E+02 -0.72507804252E+03  0.37090917319E+03  0.82330515899E+03  0.89711458305E+02 0.  0.
         23    2    4    4    0    0 -0.47625010223E+03  0.92200995477E+02  0.14096318302E+03  0.51273621569E+03  0.87821549024E+02 0.  0.
          4    1    3    3  502    0  0.27971377368E+03  0.29491564984E+03 -0.37734542004E+03  0.55462113351E+03  0.00000000000E+00 0. -1.
         -3    1    3    3    0  502  0.27698169243E+03  0.33796139720E+03 -0.30219802543E+03  0.53128185600E+03  0.00000000000E+00 0.  1.
         11    1    5    5    0    0 -0.61225346505E+02 -0.30310355315E+03  0.11803704009E+03  0.33098799045E+03  0.00000000000E+00 0. -1.
        -11    1    5    5    0    0 -0.19220017387E+02 -0.42197448937E+03  0.25287213309E+03  0.49231716854E+03  0.00000000000E+00 0.  1.
          4    1    6    6  503    0 -0.28765284196E+02 -0.12663914841E+02  0.20769726054E+02  0.37672242226E+02  0.00000000000E+00 0. -1.
         -4    1    6    6    0  503 -0.44748481803E+03  0.10486491032E+03  0.12019345697E+03  0.47506397346E+03  0.00000000000E+00 0.  1.
<mgrwt>
<rscale>  0 0.24161335E+04</rscale>
<asrwt>0</asrwt>
<pdfrwt beam="1">  1        2 0.17340564E+00 0.24161335E+04</pdfrwt>
<pdfrwt beam="2">  1       -1 0.19920119E+00 0.24161335E+04</pdfrwt>
<totfact> 0.32713882E+00</totfact>
</mgrwt>
</event>
<event>
12    6  0.1462228E-007  0.2771235E+04  0.7818608E-02  0.8312255E-01
         -1   -1    0    0    0  501 -0.00000000000E+00  0.00000000000E+00  0.21702871191E+04  0.21702871191E+04  0.00000000000E+00 0.  1.
          2   -1    0    0  501    0  0.00000000000E+00 -0.00000000000E+00 -0.88464599869E+03  0.88464599869E+03  0.00000000000E+00 0. -1.
         24    2    1    2    0    0 -0.42553175709E+03 -0.79282171108E+02  0.18611213507E+04  0.19125457111E+04  0.81825888191E+02 0.  0.
        254    2    1    2    0    0  0.42553175709E+03  0.79282171108E+02 -0.57548023034E+03  0.11423874067E+04  0.88685317411E+03 0.  0.
         23    2    4    4    0    0  0.37497617274E+03 -0.33920309223E+03 -0.47434872098E+03  0.69927012847E+03  0.91138002932E+02 0.  0.
         23    2    4    4    0    0  0.50555584350E+02  0.41848526334E+03 -0.10113150936E+03  0.44311727818E+03  0.91867063155E+02 0.  0.
          2    1    3    3  502    0 -0.33744946708E+03 -0.60520625920E+02  0.13101582818E+04  0.13542708785E+04  0.00000000000E+00 0. -1.
         -1    1    3    3    0  502 -0.88082290004E+02 -0.18761545188E+02  0.55096306894E+03  0.55827483261E+03  0.00000000000E+00 0.  1.
         11    1    5    5    0    0  0.18202137003E+03 -0.18220352723E+03 -0.30060062195E+03  0.39584168350E+03  0.00000000000E+00 0. -1.
        -11    1    5    5    0    0  0.19295480271E+03 -0.15699956501E+03 -0.17374809903E+03  0.30342844497E+03  0.00000000000E+00 0.  1.
          2    1    6    6  503    0  0.60573882244E+02  0.39837877865E+03 -0.77185027097E+02  0.41028328616E+03  0.00000000000E+00 0. -1.
         -2    1    6    6    0  503 -0.10018297894E+02  0.20106484688E+02 -0.23946482268E+02  0.32833992024E+02  0.00000000000E+00 0.  1.
<mgrwt>
<rscale>  0 0.27712350E+04</rscale>
<asrwt>0</asrwt>
<pdfrwt beam="1">  1        2 0.13609939E+00 0.27712350E+04</pdfrwt>
<pdfrwt beam="2">  1       -1 0.33389032E+00 0.27712350E+04</pdfrwt>
<totfact> 0.59279000E-01</totfact>
</mgrwt>
</event>
<event>
12    6  0.1462228E-007  0.1632241E+04  0.7818608E-02  0.8800982E-01
         -1   -1    0    0    0  501 -0.00000000000E+00  0.00000000000E+00  0.72947807629E+03  0.72947807629E+03  0.00000000000E+00 0.  1.
          2   -1    0    0  501    0  0.00000000000E+00 -0.00000000000E+00 -0.91305419843E+03  0.91305419843E+03  0.00000000000E+00 0. -1.
         24    2    1    2    0    0  0.51661657473E+03  0.18118712287E+03  0.73003961416E+02  0.55774520247E+03  0.77644534376E+02 0.  0.
        254    2    1    2    0    0 -0.51661657473E+03 -0.18118712287E+03 -0.25658008355E+03  0.10847870722E+04  0.90067096881E+03 0.  0.
         23    2    4    4    0    0 -0.93570454995E+02 -0.43134176292E+02  0.32148468374E+03  0.34981897334E+03  0.91678378124E+02 0.  0.
         23    2    4    4    0    0 -0.42304611973E+03 -0.13805294658E+03 -0.57806476729E+03  0.73496809891E+03  0.89401318494E+02 0.  0.
          2    1    3    3  502    0  0.70811200499E+02  0.21338572958E+01 -0.50654012330E+01  0.71024205400E+02  0.00000000000E+00 0. -1.
         -1    1    3    3    0  502  0.44580537423E+03  0.17905326558E+03  0.78069362649E+02  0.48672099707E+03  0.00000000000E+00 0.  1.
         11    1    5    5    0    0 -0.51443500109E+02 -0.49720285009E+02  0.28455462362E+03  0.29341076031E+03  0.00000000000E+00 0. -1.
        -11    1    5    5    0    0 -0.42126954886E+02  0.65861087165E+01  0.36930060119E+02  0.56408213023E+02  0.00000000000E+00 0.  1.
          2    1    6    6  503    0 -0.19603684877E+03 -0.10792227592E+03 -0.26000057516E+03  0.34304221722E+03  0.00000000000E+00 0.  1.
         -2    1    6    6    0  503 -0.22700927097E+03 -0.30130670666E+02 -0.31806419213E+03  0.39192588169E+03  0.00000000000E+00 0. -1.
<mgrwt>
<rscale>  0 0.16322414E+04</rscale>
<asrwt>0</asrwt>
<pdfrwt beam="1">  1        2 0.14046988E+00 0.16322414E+04</pdfrwt>
<pdfrwt beam="2">  1       -1 0.11222740E+00 0.16322414E+04</pdfrwt>
<totfact> 0.22829901E+01</totfact>
</mgrwt>
</event>
<event>
12    6  0.1462228E-007  0.1732537E+04  0.7818608E-02  0.8743022E-01
         -1   -1    0    0    0  501 -0.00000000000E+00  0.00000000000E+00  0.67314195143E+03  0.67314195143E+03  0.00000000000E+00 0.  1.
          2   -1    0    0  501    0  0.00000000000E+00 -0.00000000000E+00 -0.11148033539E+04  0.11148033539E+04  0.00000000000E+00 0. -1.
         24    2    1    2    0    0  0.33070793563E+03 -0.32720956645E+03 -0.59524152825E+03  0.75964379357E+03  0.79450469402E+02 0.  0.
        254    2    1    2    0    0 -0.33070793563E+03  0.32720956645E+03  0.15358012579E+03  0.10283015118E+04  0.90409253120E+03 0.  0.
         23    2    4    4    0    0  0.28649969980E+03  0.64228185070E+02 -0.69771879390E+02  0.31515906051E+03  0.90828302417E+02 0.  0.
         23    2    4    4    0    0 -0.61720763543E+03  0.26298138138E+03  0.22335200518E+03  0.71314245125E+03  0.92636738751E+02 0.  0.
          4    1    3    3  502    0  0.26041877568E+03 -0.25633647135E+03 -0.51555057077E+03  0.63191670044E+03  0.00000000000E+00 0. -1.
         -3    1    3    3    0  502  0.70289159943E+02 -0.70873095102E+02 -0.79690957479E+02  0.12772709313E+03  0.00000000000E+00 0.  1.
         11    1    5    5    0    0  0.21852716395E+03  0.77439412420E+01 -0.55923445966E+02  0.22570228580E+03  0.00000000000E+00 0. -1.
        -11    1    5    5    0    0  0.67972535858E+02  0.56484243827E+02 -0.13848433424E+02  0.89456774702E+02  0.00000000000E+00 0.  1.
          1    1    6    6  503    0 -0.60554891321E+03  0.26760105882E+03  0.20936866661E+03  0.69435945412E+03  0.00000000000E+00 0. -1.
         -1    1    6    6    0  503 -0.11658722221E+02 -0.46196774387E+01  0.13983338569E+02  0.18782997125E+02  0.00000000000E+00 0.  1.
<mgrwt>
<rscale>  0 0.17325368E+04</rscale>
<asrwt>0</asrwt>
<pdfrwt beam="1">  1        2 0.17150821E+00 0.17325368E+04</pdfrwt>
<pdfrwt beam="2">  1       -1 0.10356030E+00 0.17325368E+04</pdfrwt>
<totfact> 0.20305817E+01</totfact>
</mgrwt>
</event>
<event>
12    6  0.1462228E-007  0.3333266E+04  0.7818608E-02  0.8154482E-01
         -1   -1    0    0    0  501 -0.00000000000E+00  0.00000000000E+00  0.19734682018E+04  0.19734682018E+04  0.00000000000E+00 0.  1.
          2   -1    0    0  501    0  0.00000000000E+00 -0.00000000000E+00 -0.14075046251E+04  0.14075046251E+04  0.00000000000E+00 0. -1.
         24    2    1    2    0    0  0.96583790520E+03 -0.11093265185E+03 -0.96435285032E+03  0.13730897923E+04  0.10124349553E+03 0.  0.
        254    2    1    2    0    0 -0.96583790520E+03  0.11093265185E+03  0.15303164271E+04  0.20078830346E+04  0.86288875373E+03 0.  0.
         23    2    4    4    0    0 -0.46345700310E+03  0.47623925070E+03  0.83386670408E+03  0.10701803648E+04  0.91411790606E+02 0.  0.
         23    2    4    4    0    0 -0.50238090210E+03 -0.36530659885E+03  0.69644972298E+03  0.93770266977E+03  0.91698409383E+02 0.  0.
          4    1    3    3  502    0  0.77131394962E+03 -0.96082137216E+02 -0.82402863084E+03  0.11327754281E+04  0.00000000000E+00 0. -1.
         -3    1    3    3    0  502  0.19452395559E+03 -0.14850514635E+02 -0.14032421947E+03  0.24031436423E+03  0.00000000000E+00 0.  1.
         11    1    5    5    0    0 -0.16259274520E+03  0.19325431812E+03  0.25342976696E+03  0.35778524152E+03  0.00000000000E+00 0.  1.
        -11    1    5    5    0    0 -0.30086425790E+03  0.28298493258E+03  0.58043693712E+03  0.71239512332E+03  0.00000000000E+00 0. -1.
          3    1    6    6  503    0 -0.20779504435E+03 -0.18638182427E+03  0.25900824215E+03  0.38079158916E+03  0.00000000000E+00 0. -1.
         -3    1    6    6    0  503 -0.29458585776E+03 -0.17892477458E+03  0.43744148083E+03  0.55691108060E+03  0.00000000000E+00 0.  1.
<mgrwt>
<rscale>  0 0.33332660E+04</rscale>
<asrwt>0</asrwt>
<pdfrwt beam="1">  1        2 0.21653917E+00 0.33332660E+04</pdfrwt>
<pdfrwt beam="2">  1       -1 0.30361049E+00 0.33332660E+04</pdfrwt>
<totfact> 0.42518126E-01</totfact>
</mgrwt>
</event>
<event>
12    6  0.1462228E-007  0.1845466E+04  0.7818608E-02  0.8682488E-01
         -1   -1    0    0    0  501 -0.00000000000E+00  0.00000000000E+00  0.28286914409E+03  0.28286914409E+03  0.00000000000E+00 0.  1.
          2   -1    0    0  501    0  0.00000000000E+00 -0.00000000000E+00 -0.30100002948E+04  0.30100002948E+04  0.00000000000E+00 0. -1.
         24    2    1    2    0    0  0.43510215516E+02  0.15319287428E+02  0.20333671090E+03  0.22319208038E+03  0.79630818904E+02 0.  0.
        254    2    1    2    0    0 -0.43510215516E+02 -0.15319287428E+02 -0.29304678616E+04  0.30696773585E+04  0.91277016712E+03 0.  0.
         23    2    4    4    0    0  0.22117441865E+03 -0.29772910601E+03 -0.22462542108E+04  0.22784775484E+04  0.90781138274E+02 0.  0.
         23    2    4    4    0    0 -0.26468463417E+03  0.28240981858E+03 -0.68421365087E+03  0.79119981015E+03  0.89641275936E+02 0.  0.
          4    1    3    3  502    0  0.51748673915E+01 -0.15709135707E+02  0.29187696154E+01  0.16795100871E+02  0.00000000000E+00 0. -1.
         -3    1    3    3    0  502  0.38335348125E+02  0.31028423136E+02  0.20041794129E+03  0.20639697950E+03  0.00000000000E+00 0.  1.
         11    1    5    5    0    0  0.62467842839E+01 -0.60551341766E+02 -0.30530526788E+03  0.31131462205E+03  0.00000000000E+00 0.  1.
        -11    1    5    5    0    0  0.21492763437E+03 -0.23717776424E+03 -0.19409489429E+04  0.19671629263E+04  0.00000000000E+00 0. -1.
          1    1    6    6  503    0 -0.86014678047E+02  0.50010831428E+02 -0.12455228895E+03  0.15941417999E+03  0.00000000000E+00 0. -1.
         -1    1    6    6    0  503 -0.17866995612E+03  0.23239898715E+03 -0.55966136193E+03  0.63178563017E+03  0.00000000000E+00 0.  1.
<mgrwt>
<rscale>  0 0.18454660E+04</rscale>
<asrwt>0</asrwt>
<pdfrwt beam="1">  1        2 0.46307696E+00 0.18454660E+04</pdfrwt>
<pdfrwt beam="2">  1       -1 0.43518331E-01 0.18454660E+04</pdfrwt>
<totfact> 0.96139646E+00</totfact>
</mgrwt>
</event>
<event>
12    6  0.1462228E-007  0.1781581E+04  0.7818608E-02  0.8716156E-01
         -1   -1    0    0    0  501 -0.00000000000E+00  0.00000000000E+00  0.14638382882E+03  0.14638382882E+03  0.00000000000E+00 0.  1.
          2   -1    0    0  501    0  0.00000000000E+00 -0.00000000000E+00 -0.54207354180E+04  0.54207354180E+04  0.00000000000E+00 0. -1.
         24    2    1    2    0    0 -0.37577873404E+03 -0.43590047993E+03 -0.29762001562E+04  0.30324129359E+04  0.80882375379E+02 0.  0.
        254    2    1    2    0    0  0.37577873404E+03  0.43590047993E+03 -0.22981514330E+04  0.25347063110E+04  0.90111996339E+03 0.  0.
         23    2    4    4    0    0 -0.17371765678E+03  0.22021992443E+03 -0.20816300656E+03  0.36099608308E+03  0.91168499530E+02 0.  0.
         23    2    4    4    0    0  0.54949639082E+03  0.21568055550E+03 -0.20899884264E+04  0.21737102279E+04  0.92196239457E+02 0.  0.
          4    1    3    3  502    0 -0.35852820951E+03 -0.42458000691E+03 -0.27706273197E+04  0.28258072129E+04  0.00000000000E+00 0. -1.
         -3    1    3    3    0  502 -0.17250524536E+02 -0.11320473027E+02 -0.20557283647E+03  0.20660572306E+03  0.00000000000E+00 0.  1.
         11    1    5    5    0    0 -0.74944413648E+02  0.15000194885E+03 -0.15610866735E+03  0.22910077656E+03  0.00000000000E+00 0.  1.
        -11    1    5    5    0    0 -0.98773243128E+02  0.70217975580E+02 -0.52054339208E+02  0.13189530652E+03  0.00000000000E+00 0. -1.
          3    1    6    6  503    0  0.83585930354E+02  0.69301364904E+02 -0.34622858400E+03  0.36285468071E+03  0.00000000000E+00 0. -1.
         -3    1    6    6    0  503  0.46591046047E+03  0.14637919060E+03 -0.17437598424E+04  0.18108555472E+04  0.00000000000E+00 0.  1.
<mgrwt>
<rscale>  0 0.17815813E+04</rscale>
<asrwt>0</asrwt>
<pdfrwt beam="1">  1        2 0.83395925E+00 0.17815813E+04</pdfrwt>
<pdfrwt beam="2">  1       -1 0.22520590E-01 0.17815813E+04</pdfrwt>
<totfact> 0.15671356E-01</totfact>
</mgrwt>
</event>
<event>
12    6  0.1462228E-007  0.1132805E+04  0.7818608E-02  0.9173795E-01
          2   -1    0    0  501    0  0.00000000000E+00  0.00000000000E+00  0.24421666272E+03  0.24421666272E+03  0.00000000000E+00 0. -1.
         -1   -1    0    0    0  501 -0.00000000000E+00 -0.00000000000E+00 -0.13136351076E+04  0.13136351076E+04  0.00000000000E+00 0.  1.
         24    2    1    2    0    0  0.12864183284E+03 -0.98486922595E+01  0.20745674831E+02  0.15330412122E+03  0.80162663765E+02 0.  0.
        254    2    1    2    0    0 -0.12864183284E+03  0.98486922595E+01 -0.10901641197E+04  0.14045476491E+04  0.87615670561E+03 0.  0.
         23    2    4    4    0    0 -0.55625148740E+02  0.18870431208E+03 -0.11603017973E+04  0.11802157886E+04  0.88913285395E+02 0.  0.
         23    2    4    4    0    0 -0.73016684100E+02 -0.17885561982E+03  0.70137677612E+02  0.22433186046E+03  0.89915076040E+02 0.  0.
          2    1    3    3  502    0  0.94756473348E+02  0.24765852704E+02  0.32980542425E+02  0.10334337366E+03  0.00000000000E+00 0. -1.
         -1    1    3    3    0  502  0.33885359491E+02 -0.34614544964E+02 -0.12234867594E+02  0.49960747552E+02  0.00000000000E+00 0.  1.
         11    1    5    5    0    0 -0.62338726246E+02  0.19411840368E+03 -0.10522287840E+04  0.10717991814E+04  0.00000000000E+00 0.  1.
        -11    1    5    5    0    0  0.67135775059E+01 -0.54140915970E+01 -0.10807301330E+03  0.10841660719E+03  0.00000000000E+00 0. -1.
          4    1    6    6  503    0 -0.45157019943E+02 -0.19262345836E+02  0.37048274171E+01  0.49233323708E+02  0.00000000000E+00 0. -1.
         -4    1    6    6    0  503 -0.27859664157E+02 -0.15959327399E+03  0.66432850195E+02  0.17509853675E+03  0.00000000000E+00 0.  1.
<mgrwt>
<rscale>  0 0.11328046E+04</rscale>
<asrwt>0</asrwt>
<pdfrwt beam="1">  1        2 0.37571794E-01 0.11328046E+04</pdfrwt>
<pdfrwt beam="2">  1       -1 0.20209771E+00 0.11328046E+04</pdfrwt>
<totfact> 0.22874241E+01</totfact>
</mgrwt>
</event>
<event>
12    6  0.1462228E-007  0.3039952E+04  0.7818608E-02  0.8232413E-01
          2   -1    0    0  501    0  0.00000000000E+00  0.00000000000E+00  0.24080972447E+04  0.24080972447E+04  0.00000000000E+00 0. -1.
         -1   -1    0    0    0  501 -0.00000000000E+00 -0.00000000000E+00 -0.95939943731E+03  0.95939943731E+03  0.00000000000E+00 0.  1.
         24    2    1    2    0    0  0.10880761955E+04  0.20061680573E+03  0.15810073461E+04  0.19314279277E+04  0.81686604611E+02 0.  0.
        254    2    1    2    0    0 -0.10880761955E+04 -0.20061680573E+03 -0.13230953878E+03  0.14360687543E+04  0.90588671636E+03 0.  0.
         23    2    4    4    0    0 -0.18322700847E+03 -0.35142128035E+03 -0.29107662705E+03  0.50080540704E+03  0.94928393995E+02 0.  0.
         23    2    4    4    0    0 -0.90484918707E+03  0.15080447462E+03  0.15876708827E+03  0.93526334722E+03  0.89534906243E+02 0.  0.
          2    1    3    3  502    0  0.10950364195E+03  0.16612557920E+02  0.11917471166E+03  0.16269491873E+03  0.00000000000E+00 0. -1.
         -1    1    3    3    0  502  0.97857255359E+03  0.18400424781E+03  0.14618326345E+04  0.17687330090E+04  0.00000000000E+00 0.  1.
         11    1    5    5    0    0 -0.43839100253E+02 -0.16509295129E+03 -0.88980640134E+02  0.19260089199E+03  0.00000000000E+00 0. -1.
        -11    1    5    5    0    0 -0.13938790822E+03 -0.18632832906E+03 -0.20209598692E+03  0.30820451505E+03  0.00000000000E+00 0.  1.
          1    1    6    6  503    0 -0.33555559183E+03  0.86579051972E+02  0.28357738351E+02  0.34770339195E+03  0.00000000000E+00 0. -1.
         -1    1    6    6    0  503 -0.56929359524E+03  0.64225422646E+02  0.13040934992E+03  0.58755995528E+03  0.00000000000E+00 0.  1.
<mgrwt>
<rscale>  0 0.30399521E+04</rscale>
<asrwt>0</asrwt>
<pdfrwt beam="1">  1        2 0.37047650E+00 0.30399521E+04</pdfrwt>
<pdfrwt beam="2">  1       -1 0.14759991E+00 0.30399521E+04</pdfrwt>
<totfact> 0.13897342E+00</totfact>
</mgrwt>
</event>
<event>
12    6  0.1462228E-007  0.1616435E+04  0.7818608E-02  0.8810514E-01
         -1   -1    0    0    0  501 -0.00000000000E+00  0.00000000000E+00  0.30202200282E+03  0.30202200282E+03  0.00000000000E+00 0.  1.
          2   -1    0    0  501    0  0.00000000000E+00 -0.00000000000E+00 -0.21628087656E+04  0.21628087656E+04  0.00000000000E+00 0. -1.
         24    2    1    2    0    0 -0.17478964593E+03  0.26108117963E+03 -0.13382057373E+04  0.13768505650E+04  0.78791371873E+02 0.  0.
        254    2    1    2    0    0  0.17478964593E+03 -0.26108117963E+03 -0.52258102546E+03  0.10879802034E+04  0.90105226939E+03 0.  0.
         23    2    4    4    0    0  0.25354943350E+02  0.32654322920E+03 -0.21383691093E+03  0.40140949700E+03  0.90166546546E+02 0.  0.
         23    2    4    4    0    0  0.14943470258E+03 -0.58762440883E+03 -0.30874411453E+03  0.68657070641E+03  0.91778158952E+02 0.  0.
          2    1    3    3  502    0 -0.11339024121E+03  0.17005376030E+03 -0.10187768953E+04  0.10390774709E+04  0.00000000000E+00 0. -1.
         -3    1    3    3    0  502 -0.61399404726E+02  0.91027419324E+02 -0.31942884206E+03  0.33777309412E+03  0.00000000000E+00 0.  1.
         11    1    5    5    0    0 -0.12455486176E+01  0.22996763751E+03 -0.10291079692E+03  0.25194701390E+03  0.00000000000E+00 0. -1.
        -11    1    5    5    0    0  0.26600491967E+02  0.96575591693E+02 -0.11092611401E+03  0.14946248310E+03  0.00000000000E+00 0.  1.
          1    1    6    6  503    0  0.12693806165E+03 -0.45620130980E+03 -0.28017432262E+03  0.55020955791E+03  0.00000000000E+00 0. -1.
         -1    1    6    6    0  503  0.22496640934E+02 -0.13142309903E+03 -0.28569791907E+02  0.13636114850E+03  0.00000000000E+00 0.  1.
<mgrwt>
<rscale>  0 0.16164354E+04</rscale>
<asrwt>0</asrwt>
<pdfrwt beam="1">  1        2 0.33273981E+00 0.16164354E+04</pdfrwt>
<pdfrwt beam="2">  1       -1 0.46464923E-01 0.16164354E+04</pdfrwt>
<totfact> 0.27274264E+01</totfact>
</mgrwt>
</event>
<event>
12    6  0.1462228E-007  0.1622775E+04  0.7818608E-02  0.8806677E-01
         -1   -1    0    0    0  501 -0.00000000000E+00  0.00000000000E+00  0.78608722040E+03  0.78608722040E+03  0.00000000000E+00 0.  1.
          2   -1    0    0  501    0  0.00000000000E+00 -0.00000000000E+00 -0.83750191948E+03  0.83750191948E+03  0.00000000000E+00 0. -1.
         24    2    1    2    0    0 -0.33254021767E+03 -0.27717984585E+03  0.33546900738E+03  0.55352323160E+03  0.80229980066E+02 0.  0.
        254    2    1    2    0    0  0.33254021767E+03  0.27717984585E+03 -0.38688370645E+03  0.10700659083E+04  0.89886060233E+03 0.  0.
         23    2    4    4    0    0  0.28847259365E+03 -0.24629465445E+03 -0.36891180491E+03  0.53669687388E+03  0.89833849557E+02 0.  0.
         23    2    4    4    0    0  0.44067624019E+02  0.52347450029E+03 -0.17971901539E+02  0.53336903440E+03  0.90509831899E+02 0.  0.
          2    1    3    3  502    0 -0.10673262740E+03 -0.12831253118E+03  0.97624902276E+02  0.19335609883E+03  0.00000000000E+00 0. -1.
         -1    1    3    3    0  502 -0.22580759027E+03 -0.14886731466E+03  0.23784410510E+03  0.36016713277E+03  0.00000000000E+00 0.  1.
         11    1    5    5    0    0  0.19884396890E+03 -0.14324059740E+03 -0.18224851766E+03  0.30540352798E+03  0.00000000000E+00 0. -1.
        -11    1    5    5    0    0  0.89628624753E+02 -0.10305405704E+03 -0.18666328725E+03  0.23129334590E+03  0.00000000000E+00 0.  1.
          3    1    6    6  503    0  0.11626182823E+02  0.30570182763E+03 -0.52830047677E+02  0.31045094537E+03  0.00000000000E+00 0. -1.
         -3    1    6    6    0  503  0.32441441196E+02  0.21777267266E+03  0.34858146138E+02  0.22291808903E+03  0.00000000000E+00 0.  1.
<mgrwt>
<rscale>  0 0.16227749E+04</rscale>
<asrwt>0</asrwt>
<pdfrwt beam="1">  1        2 0.12884645E+00 0.16227749E+04</pdfrwt>
<pdfrwt beam="2">  1       -1 0.12093650E+00 0.16227749E+04</pdfrwt>
<totfact> 0.21499104E+01</totfact>
</mgrwt>
</event>
<event>
12    6  0.1462228E-007  0.2039340E+04  0.7818608E-02  0.8588446E-01
          2   -1    0    0  501    0  0.00000000000E+00  0.00000000000E+00  0.88372764985E+03  0.88372764985E+03  0.00000000000E+00 0. -1.
         -1   -1    0    0    0  501 -0.00000000000E+00 -0.00000000000E+00 -0.11765238339E+04  0.11765238339E+04  0.00000000000E+00 0.  1.
         24    2    1    2    0    0  0.46477501491E+03  0.28615881646E+03 -0.73675347236E+03  0.92039790104E+03  0.80149450859E+02 0.  0.
        254    2    1    2    0    0 -0.46477501491E+03 -0.28615881646E+03  0.44395728826E+03  0.11398535827E+04  0.89680847095E+03 0.  0.
         23    2    4    4    0    0  0.10423566263E+03 -0.27456218922E+03 -0.12337982145E+03  0.33093872438E+03  0.89712818683E+02 0.  0.
         23    2    4    4    0    0 -0.56901067755E+03 -0.11596627241E+02  0.56733710971E+03  0.80891485837E+03  0.92543066271E+02 0.  0.
          4    1    3    3  502    0  0.38371302991E+03  0.24536208079E+03 -0.65794164177E+03  0.80020337665E+03  0.00000000000E+00 0. -1.
         -3    1    3    3    0  502  0.81061984999E+02  0.40796735671E+02 -0.78811830589E+02  0.12019452439E+03  0.00000000000E+00 0.  1.
         11    1    5    5    0    0  0.29174125575E+02 -0.60738035124E+02 -0.71919725311E+02  0.98552957352E+02  0.00000000000E+00 0. -1.
        -11    1    5    5    0    0  0.75061537057E+02 -0.21382415410E+03 -0.51460096136E+02  0.23238576702E+03  0.00000000000E+00 0.  1.
          2    1    6    6  503    0 -0.27931732199E+03  0.71681921232E-01  0.34291257024E+03  0.44227503020E+03  0.00000000000E+00 0.  1.
         -2    1    6    6    0  503 -0.28969335555E+03 -0.11668309163E+02  0.22442453947E+03  0.36663982818E+03  0.00000000000E+00 0. -1.
<mgrwt>
<rscale>  0 0.20393397E+04</rscale>
<asrwt>0</asrwt>
<pdfrwt beam="1">  1        2 0.13595810E+00 0.20393397E+04</pdfrwt>
<pdfrwt beam="2">  1       -1 0.18100367E+00 0.20393397E+04</pdfrwt>
<totfact> 0.65053770E+00</totfact>
</mgrwt>
</event>
<event>
12    6  0.1462228E-007  0.1346151E+04  0.7818608E-02  0.8993747E-01
         -1   -1    0    0    0  501 -0.00000000000E+00  0.00000000000E+00  0.15026756512E+03  0.15026756512E+03  0.00000000000E+00 0.  1.
          2   -1    0    0  501    0  0.00000000000E+00 -0.00000000000E+00 -0.30148264482E+04  0.30148264482E+04  0.00000000000E+00 0. -1.
         24    2    1    2    0    0  0.32717468252E+03  0.13932167431E+03 -0.57095265408E+03  0.67742975087E+03  0.80438376126E+02 0.  0.
        254    2    1    2    0    0 -0.32717468252E+03 -0.13932167431E+03 -0.22936062290E+04  0.24876642624E+04  0.89520396956E+03 0.  0.
         23    2    4    4    0    0 -0.20704866369E+02 -0.40900015276E+03 -0.17625045444E+04  0.18120382149E+04  0.96697501722E+02 0.  0.
         23    2    4    4    0    0 -0.30646981615E+03  0.26967847845E+03 -0.53110168457E+03  0.67562604750E+03  0.88041619435E+02 0.  0.
          2    1    3    3  502    0  0.15377417802E+03  0.27236684318E+02 -0.28092828515E+03  0.32141723071E+03  0.00000000000E+00 0. -1.
         -1    1    3    3    0  502  0.17340050450E+03  0.11208498999E+03 -0.29002436893E+03  0.35601252017E+03  0.00000000000E+00 0.  1.
         11    1    5    5    0    0 -0.53840361017E+02 -0.16692943985E+03 -0.67385685605E+03  0.69630976211E+03  0.00000000000E+00 0. -1.
        -11    1    5    5    0    0  0.33135494649E+02 -0.24207071291E+03 -0.10886476884E+04  0.11157284528E+04  0.00000000000E+00 0.  1.
          1    1    6    6  503    0 -0.68037164603E+02  0.88543827191E+02 -0.20111396984E+03  0.23003454950E+03  0.00000000000E+00 0. -1.
         -1    1    6    6    0  503 -0.23843265155E+03  0.18113465126E+03 -0.32998771473E+03  0.44559149800E+03  0.00000000000E+00 0.  1.
<mgrwt>
<rscale>  0 0.13461510E+04</rscale>
<asrwt>0</asrwt>
<pdfrwt beam="1">  1        2 0.46381939E+00 0.13461510E+04</pdfrwt>
<pdfrwt beam="2">  1       -1 0.23118090E-01 0.13461510E+04</pdfrwt>
<totfact> 0.30687863E+01</totfact>
</mgrwt>
</event>
<event>
12    6  0.1462228E-007  0.2168301E+04  0.7818608E-02  0.8531739E-01
          2   -1    0    0  501    0  0.00000000000E+00  0.00000000000E+00  0.12316061453E+04  0.12316061453E+04  0.00000000000E+00 0. -1.
         -1   -1    0    0    0  501 -0.00000000000E+00 -0.00000000000E+00 -0.95434939280E+03  0.95434939280E+03  0.00000000000E+00 0.  1.
         24    2    1    2    0    0 -0.39234205038E+03  0.80665298127E+03  0.94734108316E+02  0.90531534593E+03  0.77459716088E+02 0.  0.
        254    2    1    2    0    0  0.39234205038E+03 -0.80665298127E+03  0.18252264423E+03  0.12806401922E+04  0.89560229431E+03 0.  0.
         23    2    4    4    0    0 -0.70414599960E+02 -0.49667482090E+03  0.42731354657E+03  0.66530806954E+03  0.91618047887E+02 0.  0.
         23    2    4    4    0    0  0.46275665034E+03 -0.30997816036E+03 -0.24479090235E+03  0.61533212268E+03  0.92091573930E+02 0.  0.
          2    1    3    3  502    0 -0.35019044847E+03  0.70677857133E+03  0.58207183318E+02  0.79092185156E+03  0.00000000000E+00 0. -1.
         -1    1    3    3    0  502 -0.42151601910E+02  0.99874409941E+02  0.36526924997E+02  0.11439349437E+03  0.00000000000E+00 0.  1.
         11    1    5    5    0    0 -0.31766094403E+02 -0.20366548469E+03  0.23551987846E+03  0.31298295090E+03  0.00000000000E+00 0. -1.
        -11    1    5    5    0    0 -0.38648505557E+02 -0.29300933622E+03  0.19179366811E+03  0.35232511864E+03  0.00000000000E+00 0.  1.
          1    1    6    6  503    0  0.15612418918E+03 -0.15865678090E+03 -0.94259142100E+02  0.24172613107E+03  0.00000000000E+00 0. -1.
         -1    1    6    6    0  503  0.30663246117E+03 -0.15132137946E+03 -0.15053176025E+03  0.37360599161E+03  0.00000000000E+00 0.  1.
<mgrwt>
<rscale>  0 0.21683012E+04</rscale>
<asrwt>0</asrwt>
<pdfrwt beam="1">  1        2 0.18947787E+00 0.21683012E+04</pdfrwt>
<pdfrwt beam="2">  1       -1 0.14682298E+00 0.21683012E+04</pdfrwt>
<totfact> 0.70024372E+00</totfact>
</mgrwt>
</event>
<event>
12    6  0.1462228E-007  0.1121926E+04  0.7818608E-02  0.9184081E-01
          2   -1    0    0  501    0  0.00000000000E+00  0.00000000000E+00  0.95079735293E+03  0.95079735293E+03  0.00000000000E+00 0. -1.
         -1   -1    0    0    0  501 -0.00000000000E+00 -0.00000000000E+00 -0.33096398711E+03  0.33096398711E+03  0.00000000000E+00 0.  1.
         24    2    1    2    0    0  0.97380676859E+02 -0.11838648135E+03  0.23075362341E+03  0.28750698966E+03  0.76906951537E+02 0.  0.
        254    2    1    2    0    0 -0.97380676859E+02  0.11838648135E+03  0.38907974241E+03  0.99425435038E+03  0.90203121460E+03 0.  0.
         23    2    4    4    0    0 -0.31494725451E+03  0.37803145693E+03  0.40378404397E+03  0.64314127547E+03  0.92138973815E+02 0.  0.
         23    2    4    4    0    0  0.21756657765E+03 -0.25964497558E+03 -0.14704301560E+02  0.35111307491E+03  0.91178099537E+02 0.  0.
          2    1    3    3  502    0  0.10200068057E+03 -0.72260555610E+02  0.17345087688E+03  0.21380115394E+03  0.00000000000E+00 0. -1.
         -1    1    3    3    0  502 -0.46200037145E+01 -0.46125925740E+02  0.57302746524E+02  0.73705835718E+02  0.00000000000E+00 0.  1.
         11    1    5    5    0    0 -0.29940564114E+03  0.34020819543E+03  0.33671898218E+03  0.56459279764E+03  0.00000000000E+00 0.  1.
        -11    1    5    5    0    0 -0.15541613367E+02  0.37823261499E+02  0.67065061789E+02  0.78548477829E+02  0.00000000000E+00 0. -1.
          4    1    6    6  503    0  0.10207314599E+03 -0.91950024634E+02 -0.46477993328E+02  0.14503081750E+03  0.00000000000E+00 0. -1.
         -4    1    6    6    0  503  0.11549343167E+03 -0.16769495094E+03  0.31773691768E+02  0.20608225741E+03  0.00000000000E+00 0.  1.
<mgrwt>
<rscale>  0 0.11219263E+04</rscale>
<asrwt>0</asrwt>
<pdfrwt beam="1">  1        2 0.14627651E+00 0.11219263E+04</pdfrwt>
<pdfrwt beam="2">  1       -1 0.50917537E-01 0.11219263E+04</pdfrwt>
<totfact> 0.11888082E+02</totfact>
</mgrwt>
</event>
<event>
12    6  0.1462228E-007  0.1440487E+04  0.7818608E-02  0.8925022E-01
         -1   -1    0    0    0  501 -0.00000000000E+00  0.00000000000E+00  0.12776047224E+04  0.12776047224E+04  0.00000000000E+00 0.  1.
          2   -1    0    0  501    0  0.00000000000E+00 -0.00000000000E+00 -0.40603370196E+03  0.40603370196E+03  0.00000000000E+00 0. -1.
         24    2    1    2    0    0  0.24562110284E+02 -0.26919833030E+03 -0.74170104435E+02  0.29093823404E+03  0.77928257618E+02 0.  0.
        254    2    1    2    0    0 -0.24562110284E+02  0.26919833030E+03  0.94574112492E+03  0.13927001904E+04  0.98595968813E+03 0.  0.
         23    2    4    4    0    0 -0.27792624697E+03 -0.27089060413E+03  0.24664413246E+03  0.46896862352E+03  0.92051744222E+02 0.  0.
         23    2    4    4    0    0  0.25336413668E+03  0.54008893443E+03  0.69909699246E+03  0.92373156685E+03  0.93026662154E+02 0.  0.
          4    1    3    3  502    0  0.25825658653E+02 -0.13053583810E+03 -0.74024017839E+02  0.15226990802E+03  0.00000000000E+00 0. -1.
         -3    1    3    3    0  502 -0.12635483688E+01 -0.13866249220E+03 -0.14608659669E+00  0.13866832601E+03  0.00000000000E+00 0.  1.
         11    1    5    5    0    0 -0.12295986966E+03 -0.93412363112E+02  0.50708033970E+02  0.16253093194E+03  0.00000000000E+00 0.  1.
        -11    1    5    5    0    0 -0.15496637730E+03 -0.17747824102E+03  0.19593609849E+03  0.30643769158E+03  0.00000000000E+00 0. -1.
          3    1    6    6  503    0  0.43840985445E+01  0.15986640208E+02  0.19212311079E+01  0.16687843305E+02  0.00000000000E+00 0. -1.
         -3    1    6    6    0  503  0.24898003814E+03  0.52410229423E+03  0.69717576136E+03  0.90704372355E+03  0.00000000000E+00 0.  1.
<mgrwt>
<rscale>  0 0.14404868E+04</rscale>
<asrwt>0</asrwt>
<pdfrwt beam="1">  1        2 0.62466724E-01 0.14404868E+04</pdfrwt>
<pdfrwt beam="2">  1       -1 0.19655457E+00 0.14404868E+04</pdfrwt>
<totfact> 0.13801384E+01</totfact>
</mgrwt>
</event>
<event>
12    6  0.1462228E-007  0.2082087E+04  0.7818608E-02  0.8569175E-01
          2   -1    0    0  501    0  0.00000000000E+00  0.00000000000E+00  0.14164397339E+04  0.14164397339E+04  0.00000000000E+00 0. -1.
         -1   -1    0    0    0  501 -0.00000000000E+00 -0.00000000000E+00 -0.76513783353E+03  0.76513783353E+03  0.00000000000E+00 0.  1.
         24    2    1    2    0    0 -0.45485896786E+02 -0.13278499521E+03  0.11388310409E+04  0.11502059064E+04  0.79603176054E+02 0.  0.
        254    2    1    2    0    0  0.45485896786E+02  0.13278499521E+03 -0.48752914047E+03  0.10313716611E+04  0.89796548861E+03 0.  0.
         23    2    4    4    0    0  0.10807964622E+02  0.65406109189E+02  0.25518053158E+03  0.27921889286E+03  0.91931035119E+02 0.  0.
         23    2    4    4    0    0  0.34677932164E+02  0.67378886017E+02 -0.74270967205E+03  0.75215276822E+03  0.91507685622E+02 0.  0.
          2    1    3    3  502    0 -0.19612848476E+02 -0.11147375753E+03  0.10332675584E+04  0.10394483680E+04  0.00000000000E+00 0. -1.
         -1    1    3    3    0  502 -0.25873048310E+02 -0.21311237675E+02  0.10556348250E+03  0.11075753842E+03  0.00000000000E+00 0.  1.
         11    1    5    5    0    0  0.11788624109E+02  0.57681139235E+01  0.19156709793E+03  0.19201613424E+03  0.00000000000E+00 0.  1.
        -11    1    5    5    0    0 -0.98065948739E+00  0.59637995266E+02  0.63613433643E+02  0.87202758627E+02  0.00000000000E+00 0. -1.
          4    1    6    6  503    0  0.65509699757E+00  0.44957079071E+02 -0.12057657622E+03  0.12868674696E+03  0.00000000000E+00 0. -1.
         -4    1    6    6    0  503  0.34022835166E+02  0.22421806946E+02 -0.62213309583E+03  0.62346602126E+03  0.00000000000E+00 0.  1.
<mgrwt>
<rscale>  0 0.20820871E+04</rscale>
<asrwt>0</asrwt>
<pdfrwt beam="1">  1        2 0.21791380E+00 0.20820871E+04</pdfrwt>
<pdfrwt beam="2">  1       -1 0.11771351E+00 0.20820871E+04</pdfrwt>
<totfact> 0.96631857E+00</totfact>
</mgrwt>
</event>
<event>
12    6  0.1462228E-007  0.1470959E+04  0.7818608E-02  0.8903998E-01
          2   -1    0    0  501    0  0.00000000000E+00  0.00000000000E+00  0.17024163970E+04  0.17024163970E+04  0.00000000000E+00 0. -1.
         -1   -1    0    0    0  501 -0.00000000000E+00 -0.00000000000E+00 -0.31774233433E+03  0.31774233433E+03  0.00000000000E+00 0.  1.
         24    2    1    2    0    0 -0.34757485522E+02 -0.17687598248E+03 -0.14062524069E+03  0.24214572485E+03  0.79786576355E+02 0.  0.
        254    2    1    2    0    0  0.34757485522E+02  0.17687598248E+03  0.15252993034E+04  0.17780130065E+04  0.89571149953E+03 0.  0.
         23    2    4    4    0    0  0.28246155522E+03 -0.23768144739E+03  0.93939953368E+03  0.10129549811E+04  0.85611384916E+02 0.  0.
         23    2    4    4    0    0 -0.24770406970E+03  0.41455742988E+03  0.58589976973E+03  0.76505802543E+03  0.93915245263E+02 0.  0.
          2    1    3    3  502    0 -0.36693031104E+02 -0.45816339981E+02 -0.75935083725E+02  0.95977354002E+02  0.00000000000E+00 0. -1.
         -1    1    3    3    0  502  0.19355455818E+01 -0.13105964250E+03 -0.64690156968E+02  0.14616837085E+03  0.00000000000E+00 0.  1.
         11    1    5    5    0    0  0.94946896230E+02 -0.92789075959E+02  0.23688855891E+03  0.27155278504E+03  0.00000000000E+00 0. -1.
        -11    1    5    5    0    0  0.18751465899E+03 -0.14489237144E+03  0.70251097477E+03  0.74140219605E+03  0.00000000000E+00 0.  1.
          4    1    6    6  503    0 -0.76061532724E+02  0.17962156555E+03  0.29472164873E+03  0.35342624945E+03  0.00000000000E+00 0. -1.
         -4    1    6    6    0  503 -0.17164253697E+03  0.23493586432E+03  0.29117812100E+03  0.41163177597E+03  0.00000000000E+00 0.  1.
<mgrwt>
<rscale>  0 0.14709585E+04</rscale>
<asrwt>0</asrwt>
<pdfrwt beam="1">  1        2 0.26191021E+00 0.14709585E+04</pdfrwt>
<pdfrwt beam="2">  1       -1 0.48883437E-01 0.14709585E+04</pdfrwt>
<totfact> 0.45187583E+01</totfact>
</mgrwt>
</event>
<event>
12    6  0.1462228E-007  0.2187200E+04  0.7818608E-02  0.8523775E-01
          2   -1    0    0  501    0  0.00000000000E+00  0.00000000000E+00  0.15589465940E+04  0.15589465940E+04  0.00000000000E+00 0. -1.
         -1   -1    0    0    0  501 -0.00000000000E+00 -0.00000000000E+00 -0.76715935535E+03  0.76715935535E+03  0.00000000000E+00 0.  1.
         24    2    1    2    0    0 -0.23173267225E+03 -0.33834720411E+03 -0.52867821589E+03  0.67385928553E+03  0.80042606247E+02 0.  0.
        254    2    1    2    0    0  0.23173267225E+03  0.33834720411E+03  0.13204654545E+04  0.16522466638E+04  0.90449497487E+03 0.  0.
         23    2    4    4    0    0  0.40443948757E+03  0.37401128520E+03  0.34591744582E+03  0.65765663718E+03  0.96941387172E+02 0.  0.
         23    2    4    4    0    0 -0.17270681532E+03 -0.35664081092E+02  0.97454800869E+03  0.99459002661E+03  0.91465452784E+02 0.  0.
          4    1    3    3  502    0 -0.74691844441E+02 -0.10991972733E+03 -0.11416812407E+03  0.17520153720E+03  0.00000000000E+00 0. -1.
         -3    1    3    3    0  502 -0.15704082781E+03 -0.22842747677E+03 -0.41451009182E+03  0.49865774833E+03  0.00000000000E+00 0.  1.
         11    1    5    5    0    0  0.87795069362E+02  0.76187213206E+02  0.12261205527E+03  0.16895615336E+03  0.00000000000E+00 0. -1.
        -11    1    5    5    0    0  0.31664441821E+03  0.29782407200E+03  0.22330539055E+03  0.48870048382E+03  0.00000000000E+00 0.  1.
          1    1    6    6  503    0 -0.86201350687E+02 -0.53807123916E+02  0.37344113416E+03  0.38701958624E+03  0.00000000000E+00 0. -1.
         -1    1    6    6    0  503 -0.86505464630E+02  0.18143042824E+02  0.60110687453E+03  0.60757044038E+03  0.00000000000E+00 0.  1.
<mgrwt>
<rscale>  0 0.21871995E+04</rscale>
<asrwt>0</asrwt>
<pdfrwt beam="1">  1        2 0.23983794E+00 0.21871995E+04</pdfrwt>
<pdfrwt beam="2">  1       -1 0.11802452E+00 0.21871995E+04</pdfrwt>
<totfact> 0.79019134E+00</totfact>
</mgrwt>
</event>
<event>
12    6  0.1462228E-007  0.1666804E+04  0.7818608E-02  0.8780527E-01
         -1   -1    0    0    0  501 -0.00000000000E+00  0.00000000000E+00  0.11206392320E+04  0.11206392320E+04  0.00000000000E+00 0.  1.
          2   -1    0    0  501    0  0.00000000000E+00 -0.00000000000E+00 -0.61978846049E+03  0.61978846049E+03  0.00000000000E+00 0. -1.
         24    2    1    2    0    0  0.13220986144E+03  0.49244830255E+03  0.46976436500E+03  0.69788978845E+03  0.79917582828E+02 0.  0.
        254    2    1    2    0    0 -0.13220986144E+03 -0.49244830255E+03  0.31086406545E+02  0.10425379041E+04  0.90880918714E+03 0.  0.
         23    2    4    4    0    0 -0.21608788646E+03 -0.98285502712E+02 -0.38162670225E+03  0.45826357158E+03  0.89512828423E+02 0.  0.
         23    2    4    4    0    0  0.83878025024E+02 -0.39416279984E+03  0.41271310880E+03  0.58427433250E+03  0.92976069969E+02 0.  0.
          4    1    3    3  502    0  0.10357237701E+03  0.37167450435E+03  0.30626275207E+03  0.49261145720E+03  0.00000000000E+00 0. -1.
         -1    1    3    3    0  502  0.28637484425E+02  0.12077379820E+03  0.16350161293E+03  0.20527833124E+03  0.00000000000E+00 0.  1.
         11    1    5    5    0    0 -0.19881300737E+03 -0.69213773657E+02 -0.27452321898E+03  0.34594819861E+03  0.00000000000E+00 0. -1.
        -11    1    5    5    0    0 -0.17274879096E+02 -0.29071729055E+02 -0.10710348327E+03  0.11231537298E+03  0.00000000000E+00 0.  1.
          3    1    6    6  503    0  0.99493440927E+02 -0.29128483721E+03  0.33069886142E+03  0.45178262264E+03  0.00000000000E+00 0. -1.
         -3    1    6    6    0  503 -0.15615415904E+02 -0.10287796263E+03  0.82014247381E+02  0.13249170986E+03  0.00000000000E+00 0.  1.
<mgrwt>
<rscale>  0 0.16668044E+04</rscale>
<asrwt>0</asrwt>
<pdfrwt beam="1">  1        2 0.95352071E-01 0.16668044E+04</pdfrwt>
<pdfrwt beam="2">  1       -1 0.17240604E+00 0.16668044E+04</pdfrwt>
<totfact> 0.12274858E+01</totfact>
</mgrwt>
</event>
<event>
12    6  0.1462228E-007  0.1287519E+04  0.7818608E-02  0.9039522E-01
         -1   -1    0    0    0  501 -0.00000000000E+00  0.00000000000E+00  0.35923661915E+03  0.35923661915E+03  0.00000000000E+00 0.  1.
          2   -1    0    0  501    0  0.00000000000E+00 -0.00000000000E+00 -0.11536307146E+04  0.11536307146E+04  0.00000000000E+00 0. -1.
         24    2    1    2    0    0  0.90825045573E+02  0.27691362192E+02 -0.56313560857E+03  0.57665527504E+03  0.79959940928E+02 0.  0.
        254    2    1    2    0    0 -0.90825045573E+02 -0.27691362192E+02 -0.23125848692E+03  0.93621205874E+03  0.90221756285E+03 0.  0.
         23    2    4    4    0    0  0.35045595136E+03 -0.22155351124E+02 -0.31200742318E+03  0.47865634634E+03  0.91940373880E+02 0.  0.
         23    2    4    4    0    0 -0.44128099693E+03 -0.55360110680E+01  0.80748936261E+02  0.45755571240E+03  0.89873653376E+02 0.  0.
          4    1    3    3  502    0  0.78322163397E+02  0.13553731111E+02 -0.54400730199E+03  0.54978360245E+03  0.00000000000E+00 0. -1.
         -3    1    3    3    0  502  0.12502882176E+02  0.14137631081E+02 -0.19128306579E+02  0.26871672591E+02  0.00000000000E+00 0.  1.
         11    1    5    5    0    0  0.24921950091E+03 -0.12113043319E+02 -0.16230408611E+03  0.29765702045E+03  0.00000000000E+00 0.  1.
        -11    1    5    5    0    0  0.10123645045E+03 -0.10042307804E+02 -0.14970333707E+03  0.18099932589E+03  0.00000000000E+00 0. -1.
          1    1    6    6  503    0 -0.28812961212E+03  0.26700008988E+02  0.21331725063E+02  0.29014928288E+03  0.00000000000E+00 0. -1.
         -1    1    6    6    0  503 -0.15315138481E+03 -0.32236020056E+02  0.59417211198E+02  0.16740642952E+03  0.00000000000E+00 0.  1.
<mgrwt>
<rscale>  0 0.12875192E+04</rscale>
<asrwt>0</asrwt>
<pdfrwt beam="1">  1        2 0.17748165E+00 0.12875192E+04</pdfrwt>
<pdfrwt beam="2">  1       -1 0.55267172E-01 0.12875192E+04</pdfrwt>
<totfact> 0.74775065E+01</totfact>
</mgrwt>
</event>
<event>
12    6  0.1462228E-007  0.3140107E+04  0.7818608E-02  0.8204816E-01
         -1   -1    0    0    0  501 -0.00000000000E+00  0.00000000000E+00  0.66508672952E+03  0.66508672952E+03  0.00000000000E+00 0.  1.
          2   -1    0    0  501    0  0.00000000000E+00 -0.00000000000E+00 -0.37063865524E+04  0.37063865524E+04  0.00000000000E+00 0. -1.
         24    2    1    2    0    0  0.10696180543E+04  0.85947828803E+03 -0.80985267720E+03  0.15953294725E+04  0.80181401914E+02 0.  0.
        254    2    1    2    0    0 -0.10696180543E+04 -0.85947828803E+03 -0.22314471457E+04  0.27761438095E+04  0.91914763614E+03 0.  0.
         23    2    4    4    0    0 -0.21703625937E+02 -0.49948715807E+03 -0.46296237035E+03  0.68727086597E+03  0.89714092520E+02 0.  0.
         23    2    4    4    0    0 -0.10479144284E+04 -0.35999112996E+03 -0.17684847754E+04  0.20888729435E+04  0.90185977430E+02 0.  0.
          2    1    3    3  502    0  0.54315928510E+01  0.14961455358E+02 -0.89572970845E+01  0.18264186770E+02  0.00000000000E+00 0. -1.
         -1    1    3    3    0  502  0.10641864615E+04  0.84451683267E+03 -0.80089538011E+03  0.15770652857E+04  0.00000000000E+00 0.  1.
         11    1    5    5    0    0  0.75168014272E+01 -0.69522091165E+01  0.61378944107E+00  0.10257302412E+02  0.00000000000E+00 0. -1.
        -11    1    5    5    0    0 -0.29220427365E+02 -0.49253494895E+03 -0.46357615979E+03  0.67701356356E+03  0.00000000000E+00 0.  1.
          1    1    6    6  503    0 -0.37010301032E+03 -0.10917169139E+03 -0.69120482219E+03  0.79161783877E+03  0.00000000000E+00 0. -1.
         -1    1    6    6    0  503 -0.67781141808E+03 -0.25081943857E+03 -0.10772799532E+04  0.12972551047E+04  0.00000000000E+00 0.  1.
<mgrwt>
<rscale>  0 0.31401073E+04</rscale>
<asrwt>0</asrwt>
<pdfrwt beam="1">  1        2 0.57021329E+00 0.31401073E+04</pdfrwt>
<pdfrwt beam="2">  1       -1 0.10232104E+00 0.31401073E+04</pdfrwt>
<totfact> 0.50101406E-01</totfact>
</mgrwt>
</event>
<event>
12    6  0.1462228E-007  0.1101324E+04  0.7818608E-02  0.9203903E-01
         -1   -1    0    0    0  501 -0.00000000000E+00  0.00000000000E+00  0.18218711291E+03  0.18218711291E+03  0.00000000000E+00 0.  1.
          2   -1    0    0  501    0  0.00000000000E+00 -0.00000000000E+00 -0.16643795863E+04  0.16643795863E+04  0.00000000000E+00 0. -1.
         24    2    1    2    0    0 -0.42734308295E+02  0.22517568504E+02  0.14286555996E+02  0.98574027505E+02  0.84731760394E+02 0.  0.
        254    2    1    2    0    0  0.42734308295E+02 -0.22517568504E+02 -0.14964790294E+04  0.17479926717E+04  0.90205079290E+03 0.  0.
         23    2    4    4    0    0  0.13839183060E+03  0.35561720074E+03 -0.32426510619E+03  0.50883249782E+03  0.90259401230E+02 0.  0.
         23    2    4    4    0    0 -0.95657522302E+02 -0.37813476925E+03 -0.11722139232E+04  0.12391601739E+04  0.96416749126E+02 0.  0.
          4    1    3    3  502    0 -0.29537052716E+02  0.36718059739E+02 -0.26032651430E+02  0.53836347708E+02  0.00000000000E+00 0. -1.
         -3    1    3    3    0  502 -0.13197255580E+02 -0.14200491235E+02  0.40319207426E+02  0.44737679797E+02  0.00000000000E+00 0.  1.
         11    1    5    5    0    0  0.12589529041E+03  0.27547719717E+03 -0.29444517943E+03  0.42241599638E+03  0.00000000000E+00 0. -1.
        -11    1    5    5    0    0  0.12496540187E+02  0.80140003579E+02 -0.29819926751E+02  0.86416501443E+02  0.00000000000E+00 0.  1.
          1    1    6    6  503    0 -0.11363971566E+03 -0.35306302961E+03 -0.10862741635E+04  0.11478497490E+04  0.00000000000E+00 0. -1.
         -1    1    6    6    0  503  0.17982193358E+02 -0.25071739635E+02 -0.85939759694E+02  0.91310424939E+02  0.00000000000E+00 0.  1.
<mgrwt>
<rscale>  0 0.11013238E+04</rscale>
<asrwt>0</asrwt>
<pdfrwt beam="1">  1        2 0.25605840E+00 0.11013238E+04</pdfrwt>
<pdfrwt beam="2">  1       -1 0.28028786E-01 0.11013238E+04</pdfrwt>
<totfact> 0.13341986E+02</totfact>
</mgrwt>
</event>
<event>
12    6  0.1462228E-007  0.2265050E+04  0.7818608E-02  0.8491830E-01
         -1   -1    0    0    0  501 -0.00000000000E+00  0.00000000000E+00  0.10864933962E+04  0.10864933962E+04  0.00000000000E+00 0.  1.
          2   -1    0    0  501    0  0.00000000000E+00 -0.00000000000E+00 -0.11805064095E+04  0.11805064095E+04  0.00000000000E+00 0. -1.
         24    2    1    2    0    0  0.91041702001E+03  0.27099643736E+03 -0.93166535794E+02  0.95789188172E+03  0.81108780575E+02 0.  0.
        254    2    1    2    0    0 -0.91041702001E+03 -0.27099643736E+03 -0.84647748013E+00  0.13091079239E+04  0.90081331061E+03 0.  0.
         23    2    4    4    0    0 -0.10921085779E+03  0.26837233841E+03 -0.12443020364E+03  0.33145667663E+03  0.10212702590E+03 0.  0.
         23    2    4    4    0    0 -0.80120616221E+03 -0.53936877577E+03  0.12358372616E+03  0.97765124729E+03  0.87630093669E+02 0.  0.
          4    1    3    3  502    0  0.85855871818E+03  0.25504137988E+03 -0.68393104332E+02  0.89824651111E+03  0.00000000000E+00 0. -1.
         -3    1    3    3    0  502  0.51858301832E+02  0.15955057475E+02 -0.24773431462E+02  0.59645370603E+02  0.00000000000E+00 0.  1.
         11    1    5    5    0    0 -0.25022207440E+02  0.30552572917E+02  0.16132496814E+02  0.42659442453E+02  0.00000000000E+00 0.  1.
        -11    1    5    5    0    0 -0.84188650354E+02  0.23781976549E+03 -0.14056270045E+03  0.28879723417E+03  0.00000000000E+00 0. -1.
          1    1    6    6  503    0 -0.38701478319E+03 -0.27146514706E+03  0.10369098286E+03  0.48396858204E+03  0.00000000000E+00 0.  1.
         -1    1    6    6    0  503 -0.41419137902E+03 -0.26790362871E+03  0.19892743293E+02  0.49368266525E+03  0.00000000000E+00 0. -1.
<mgrwt>
<rscale>  0 0.22650496E+04</rscale>
<asrwt>0</asrwt>
<pdfrwt beam="1">  1        2 0.18161637E+00 0.22650496E+04</pdfrwt>
<pdfrwt beam="2">  1       -1 0.16715283E+00 0.22650496E+04</pdfrwt>
<totfact> 0.52090307E+00</totfact>
</mgrwt>
</event>
<event>
12    6  0.1597298E-007  0.1824673E+04  0.7818608E-02  0.8693288E-01
          2   -1    0    0  501    0  0.00000000000E+00  0.00000000000E+00  0.11112293222E+04  0.11112293222E+04  0.00000000000E+00 0. -1.
         -1   -1    0    0    0  501 -0.00000000000E+00 -0.00000000000E+00 -0.74904236614E+03  0.74904236614E+03  0.00000000000E+00 0.  1.
         24    2    1    2    0    0  0.51035185281E+03  0.61416957347E+02 -0.32555109561E+03  0.61389187094E+03  0.81539297478E+02 0.  0.
        254    2    1    2    0    0 -0.51035185281E+03 -0.61416957347E+02  0.68773805169E+03  0.12463798174E+04  0.90346442387E+03 0.  0.
         23    2    4    4    0    0 -0.11425050149E+03  0.53832346900E+02 -0.20530065161E+03  0.25822979611E+03  0.92645406725E+02 0.  0.
         23    2    4    4    0    0 -0.39610135132E+03 -0.11524930425E+03  0.89303870329E+03  0.98815002130E+03  0.93507520393E+02 0.  0.
          2    1    3    3  502    0  0.40413812190E+02  0.17006997099E+02 -0.53143185267E+02  0.68896388195E+02  0.00000000000E+00 0. -1.
         -3    1    3    3    0  502  0.46993804062E+03  0.44409960248E+02 -0.27240791034E+03  0.54499548274E+03  0.00000000000E+00 0.  1.
         11    1    5    5    0    0 -0.30197649970E+02  0.67063939402E+01  0.55288644362E+00  0.30938317130E+02  0.00000000000E+00 0.  1.
        -11    1    5    5    0    0 -0.84052851523E+02  0.47125952960E+02 -0.20585353805E+03  0.22729147898E+03  0.00000000000E+00 0. -1.
          2    1    6    6  503    0 -0.12040234458E+03 -0.40799016755E+01  0.19169372793E+03  0.22640639458E+03  0.00000000000E+00 0.  1.
         -2    1    6    6    0  503 -0.27569900674E+03 -0.11116940257E+03  0.70134497536E+03  0.76174362672E+03  0.00000000000E+00 0. -1.
<mgrwt>
<rscale>  0 0.18246729E+04</rscale>
<asrwt>0</asrwt>
<pdfrwt beam="1">  1        2 0.17095836E+00 0.18246729E+04</pdfrwt>
<pdfrwt beam="2">  1       -1 0.11523729E+00 0.18246729E+04</pdfrwt>
<totfact> 0.15739199E+01</totfact>
</mgrwt>
</event>
<event>
12    6  0.1462228E-007  0.1896509E+04  0.7818608E-02  0.8656596E-01
         -1   -1    0    0    0  501 -0.00000000000E+00  0.00000000000E+00  0.75694118172E+03  0.75694118172E+03  0.00000000000E+00 0.  1.
          2   -1    0    0  501    0  0.00000000000E+00 -0.00000000000E+00 -0.11879212388E+04  0.11879212388E+04  0.00000000000E+00 0. -1.
         24    2    1    2    0    0  0.14256800202E+03 -0.12989101267E+03  0.55986008561E+03  0.59740174279E+03  0.79045660506E+02 0.  0.
        254    2    1    2    0    0 -0.14256800202E+03  0.12989101267E+03 -0.99084014274E+03  0.13474606778E+04  0.89257424302E+03 0.  0.
         23    2    4    4    0    0 -0.19910532313E+02  0.43718164452E+03 -0.21044007240E+03  0.49485028864E+03  0.95223760122E+02 0.  0.
         23    2    4    4    0    0 -0.12265746971E+03 -0.30729063185E+03 -0.78040007034E+03  0.85261038913E+03  0.91912015435E+02 0.  0.
          2    1    3    3  502    0  0.62801658698E+02 -0.88984469193E+01  0.17846332613E+03  0.18940007779E+03  0.00000000000E+00 0. -1.
         -1    1    3    3    0  502  0.79766343321E+02 -0.12099256575E+03  0.38139675948E+03  0.40800166500E+03  0.00000000000E+00 0.  1.
         11    1    5    5    0    0 -0.43762453930E+02  0.10526674067E+03 -0.38808588648E+02  0.12042568505E+03  0.00000000000E+00 0. -1.
        -11    1    5    5    0    0  0.23851921618E+02  0.33191490385E+03 -0.17163148375E+03  0.37442460359E+03  0.00000000000E+00 0.  1.
          4    1    6    6  503    0 -0.85729782180E+01 -0.34623658443E+02 -0.17879801719E+03  0.18232121278E+03  0.00000000000E+00 0. -1.
         -4    1    6    6    0  503 -0.11408449149E+03 -0.27266697340E+03 -0.60160205315E+03  0.67028917636E+03  0.00000000000E+00 0.  1.
<mgrwt>
<rscale>  0 0.18965089E+04</rscale>
<asrwt>0</asrwt>
<pdfrwt beam="1">  1        2 0.18275711E+00 0.18965089E+04</pdfrwt>
<pdfrwt beam="2">  1       -1 0.11645249E+00 0.18965089E+04</pdfrwt>
<totfact> 0.13702444E+01</totfact>
</mgrwt>
</event>
<event>
12    6  0.1462228E-007  0.1106640E+04  0.7818608E-02  0.9198744E-01
         -1   -1    0    0    0  501 -0.00000000000E+00  0.00000000000E+00  0.21292357353E+03  0.21292357353E+03  0.00000000000E+00 0.  1.
          2   -1    0    0  501    0  0.00000000000E+00 -0.00000000000E+00 -0.14379013019E+04  0.14379013019E+04  0.00000000000E+00 0. -1.
         24    2    1    2    0    0  0.80676872699E+02 -0.13558264981E+03 -0.95326366809E+02  0.20058239094E+03  0.79087082556E+02 0.  0.
        254    2    1    2    0    0 -0.80676872699E+02  0.13558264981E+03 -0.11296513615E+04  0.14502424844E+04  0.89565598997E+03 0.  0.
         23    2    4    4    0    0 -0.37132606378E+03  0.93768127500E+02 -0.14556469017E+03  0.41956900371E+03  0.90407756700E+02 0.  0.
         23    2    4    4    0    0  0.29064919109E+03  0.41814522314E+02 -0.98408667135E+03  0.10306734807E+04  0.87383296987E+02 0.  0.
          4    1    3    3  502    0  0.46468198261E+02 -0.47063515879E+02 -0.93288834472E-01  0.66138314760E+02  0.00000000000E+00 0. -1.
         -3    1    3    3    0  502  0.34208674437E+02 -0.88519133936E+02 -0.95233077974E+02  0.13444407618E+03  0.00000000000E+00 0.  1.
         11    1    5    5    0    0 -0.10462110388E+02  0.13990242635E+02  0.81780449886E+01  0.19288936274E+02  0.00000000000E+00 0. -1.
        -11    1    5    5    0    0 -0.36086395340E+03  0.79777884866E+02 -0.15374273516E+03  0.40028006744E+03  0.00000000000E+00 0.  1.
          2    1    6    6  503    0  0.27675326003E+03  0.58508120468E+02 -0.93801331826E+03  0.97973698120E+03  0.00000000000E+00 0.  1.
         -2    1    6    6    0  503  0.13895931054E+02 -0.16693598153E+02 -0.46073353089E+02  0.50936499527E+02  0.00000000000E+00 0. -1.
<mgrwt>
<rscale>  0 0.11066401E+04</rscale>
<asrwt>0</asrwt>
<pdfrwt beam="1">  1        2 0.22121559E+00 0.11066401E+04</pdfrwt>
<pdfrwt beam="2">  1       -1 0.32757472E-01 0.11066401E+04</pdfrwt>
<totfact> 0.13587397E+02</totfact>
</mgrwt>
</event>
<event>
12    6  0.1462228E-007  0.3551914E+04  0.7818608E-02  0.8101596E-01
         -1   -1    0    0    0  501 -0.00000000000E+00  0.00000000000E+00  0.22907433582E+04  0.22907433582E+04  0.00000000000E+00 0.  1.
          2   -1    0    0  501    0  0.00000000000E+00 -0.00000000000E+00 -0.13768559070E+04  0.13768559070E+04  0.00000000000E+00 0. -1.
         24    2    1    2    0    0  0.83639598214E+03 -0.13177766507E+04 -0.17417440336E+03  0.15718221203E+04  0.64765075380E+02 0.  0.
        254    2    1    2    0    0 -0.83639598214E+03  0.13177766507E+04  0.10880618545E+04  0.20957771449E+04  0.87881152799E+03 0.  0.
         23    2    4    4    0    0 -0.54998300112E+03  0.13322478550E+04  0.10639579353E+04  0.17939192402E+04  0.93670184503E+02 0.  0.
         23    2    4    4    0    0 -0.28641298101E+03 -0.14471204259E+02  0.24103919242E+02  0.30185790477E+03  0.91079000331E+02 0.  0.
          4    1    3    3  502    0  0.68278869519E+03 -0.10663117474E+04 -0.11620211172E+03  0.12715046503E+04  0.00000000000E+00 0. -1.
         -3    1    3    3    0  502  0.15360728695E+03 -0.25146490333E+03 -0.57972291639E+02  0.30031747003E+03  0.00000000000E+00 0.  1.
         11    1    5    5    0    0 -0.39402371294E+03  0.10107775115E+04  0.84211172278E+03  0.13733455566E+04  0.00000000000E+00 0. -1.
        -11    1    5    5    0    0 -0.15595928818E+03  0.32147034349E+03  0.22184621252E+03  0.42057368358E+03  0.00000000000E+00 0.  1.
          3    1    6    6  503    0 -0.28402134114E+03 -0.21406590445E+01  0.11798691246E+02  0.28427436353E+03  0.00000000000E+00 0. -1.
         -3    1    6    6    0  503 -0.23916398772E+01 -0.12330545214E+02  0.12305227996E+02  0.17583541242E+02  0.00000000000E+00 0.  1.
<mgrwt>
<rscale>  0 0.35519141E+04</rscale>
<asrwt>0</asrwt>
<pdfrwt beam="1">  1        2 0.21182399E+00 0.35519141E+04</pdfrwt>
<pdfrwt beam="2">  1       -1 0.35242206E+00 0.35519141E+04</pdfrwt>
<totfact> 0.20808148E-01</totfact>
</mgrwt>
</event>
<event>
12    6  0.1462228E-007  0.3167236E+04  0.7818608E-02  0.8197524E-01
         -1   -1    0    0    0  501 -0.00000000000E+00  0.00000000000E+00  0.16371053443E+04  0.16371053443E+04  0.00000000000E+00 0.  1.
          2   -1    0    0  501    0  0.00000000000E+00 -0.00000000000E+00 -0.15318783296E+04  0.15318783296E+04  0.00000000000E+00 0. -1.
         24    2    1    2    0    0 -0.27726545516E+03  0.53952473577E+03 -0.12738615242E+04  0.14132558079E+04  0.81275597765E+02 0.  0.
        254    2    1    2    0    0  0.27726545516E+03 -0.53952473577E+03  0.13790885389E+04  0.17557278659E+04  0.90151653777E+03 0.  0.
         23    2    4    4    0    0  0.51847123864E+03 -0.49459819508E+03  0.12897203396E+04  0.14783659846E+04  0.93528766605E+02 0.  0.
         23    2    4    4    0    0 -0.24120578348E+03 -0.44926540686E+02  0.89368199249E+02  0.27736188126E+03  0.93511037298E+02 0.  0.
          2    1    3    3  502    0 -0.27376872845E+03  0.54158335910E+03 -0.12704920335E+04  0.14079814838E+04  0.00000000000E+00 0. -1.
         -1    1    3    3    0  502 -0.34967267131E+01 -0.20586233367E+01 -0.33694906538E+01  0.52743241287E+01  0.00000000000E+00 0.  1.
         11    1    5    5    0    0  0.12150237054E+03 -0.72350886299E+02  0.21490658296E+03  0.25725923928E+03  0.00000000000E+00 0. -1.
        -11    1    5    5    0    0  0.39696886810E+03 -0.42224730878E+03  0.10748137567E+04  0.12211067454E+04  0.00000000000E+00 0.  1.
          3    1    6    6  503    0 -0.40680035896E+02 -0.22944100942E+02  0.55956818031E+02  0.72886641936E+02  0.00000000000E+00 0. -1.
         -3    1    6    6    0  503 -0.20052574759E+03 -0.21982439744E+02  0.33411381217E+02  0.20447523933E+03  0.00000000000E+00 0.  1.
<mgrwt>
<rscale>  0 0.31672361E+04</rscale>
<asrwt>0</asrwt>
<pdfrwt beam="1">  1        2 0.23567359E+00 0.31672361E+04</pdfrwt>
<pdfrwt beam="2">  1       -1 0.25186236E+00 0.31672361E+04</pdfrwt>
<totfact> 0.79364677E-01</totfact>
</mgrwt>
</event>
<event>
12    6  0.1462228E-007  0.1391305E+04  0.7818608E-02  0.8960137E-01
         -1   -1    0    0    0  501 -0.00000000000E+00  0.00000000000E+00  0.33181773349E+03  0.33181773349E+03  0.00000000000E+00 0.  1.
          2   -1    0    0  501    0  0.00000000000E+00 -0.00000000000E+00 -0.14584285442E+04  0.14584285442E+04  0.00000000000E+00 0. -1.
         24    2    1    2    0    0  0.45817802772E+02  0.36112117395E+03 -0.51045090493E+03  0.63177017515E+03  0.77882312066E+02 0.  0.
        254    2    1    2    0    0 -0.45817802772E+02 -0.36112117395E+03 -0.61615990575E+03  0.11584761025E+04  0.91099180969E+03 0.  0.
         23    2    4    4    0    0 -0.26258973925E+03 -0.69294275837E+02 -0.71577112924E+03  0.77077164186E+03  0.89473720291E+02 0.  0.
         23    2    4    4    0    0  0.21677193648E+03 -0.29182689811E+03  0.99611223494E+02  0.38770446065E+03  0.90770821589E+02 0.  0.
          4    1    3    3  502    0  0.15481135325E+02  0.30334842577E+03 -0.44932667947E+03  0.54236002604E+03  0.00000000000E+00 0. -1.
         -1    1    3    3    0  502  0.30336667447E+02  0.57772748180E+02 -0.61124225465E+02  0.89410149104E+02  0.00000000000E+00 0.  1.
         11    1    5    5    0    0 -0.26857502521E+03 -0.71321571639E+02 -0.70898967764E+03  0.76150224802E+03  0.00000000000E+00 0. -1.
        -11    1    5    5    0    0  0.59852859615E+01  0.20272958019E+01 -0.67814516041E+01  0.92693938404E+01  0.00000000000E+00 0.  1.
          1    1    6    6  503    0  0.13812833235E+03 -0.19075088793E+03  0.18772369379E+02  0.23625778145E+03  0.00000000000E+00 0. -1.
         -1    1    6    6    0  503  0.78643604128E+02 -0.10107601019E+03  0.80838854115E+02  0.15144667920E+03  0.00000000000E+00 0.  1.
<mgrwt>
<rscale>  0 0.13913051E+04</rscale>
<asrwt>0</asrwt>
<pdfrwt beam="1">  1        2 0.22437363E+00 0.13913051E+04</pdfrwt>
<pdfrwt beam="2">  1       -1 0.51048881E-01 0.13913051E+04</pdfrwt>
<totfact> 0.57370067E+01</totfact>
</mgrwt>
</event>
<event>
12    6  0.1462228E-007  0.1323041E+04  0.7818608E-02  0.9011491E-01
         -1   -1    0    0    0  501 -0.00000000000E+00  0.00000000000E+00  0.22059417129E+03  0.22059417129E+03  0.00000000000E+00 0.  1.
          2   -1    0    0  501    0  0.00000000000E+00 -0.00000000000E+00 -0.19837752056E+04  0.19837752056E+04  0.00000000000E+00 0. -1.
         24    2    1    2    0    0 -0.95985083468E+02  0.11870814248E+02 -0.11504162257E+04  0.11588943107E+04  0.10111616326E+03 0.  0.
        254    2    1    2    0    0  0.95985083468E+02 -0.11870814248E+02 -0.61276480860E+03  0.10454750662E+04  0.84153630398E+03 0.  0.
         23    2    4    4    0    0  0.30197660201E+03  0.31378717148E+03 -0.39305419290E+03  0.59285720880E+03  0.85649368528E+02 0.  0.
         23    2    4    4    0    0 -0.20599151854E+03 -0.32565798573E+03 -0.21971061570E+03  0.45261785740E+03  0.90025223206E+02 0.  0.
          4    1    3    3  502    0 -0.10032137479E+03  0.76603703345E+01 -0.11479752434E+04  0.11523759018E+04  0.00000000000E+00 0. -1.
         -3    1    3    3    0  502  0.43362913242E+01  0.42104439140E+01 -0.24409823439E+01  0.65184089473E+01  0.00000000000E+00 0.  1.
         11    1    5    5    0    0  0.22604168211E+03  0.20166184476E+03 -0.22672996025E+03  0.37837655392E+03  0.00000000000E+00 0. -1.
        -11    1    5    5    0    0  0.75934919898E+02  0.11212532672E+03 -0.16632423265E+03  0.21448065488E+03  0.00000000000E+00 0.  1.
          1    1    6    6  503    0 -0.12518032780E+03 -0.15717389549E+03 -0.15870782421E+03  0.25605062265E+03  0.00000000000E+00 0. -1.
         -1    1    6    6    0  503 -0.80811190737E+02 -0.16848409023E+03 -0.61002791487E+02  0.19656723476E+03  0.00000000000E+00 0.  1.
<mgrwt>
<rscale>  0 0.13230408E+04</rscale>
<asrwt>0</asrwt>
<pdfrwt beam="1">  1        2 0.30519618E+00 0.13230408E+04</pdfrwt>
<pdfrwt beam="2">  1       -1 0.33937566E-01 0.13230408E+04</pdfrwt>
<totfact> 0.62406566E+01</totfact>
</mgrwt>
</event>
<event>
12    6  0.1462228E-007  0.1181402E+04  0.7818608E-02  0.9129293E-01
         -1   -1    0    0    0  501 -0.00000000000E+00  0.00000000000E+00  0.16474124581E+03  0.16474124581E+03  0.00000000000E+00 0.  1.
          2   -1    0    0  501    0  0.00000000000E+00 -0.00000000000E+00 -0.21180348180E+04  0.21180348180E+04  0.00000000000E+00 0. -1.
         24    2    1    2    0    0 -0.12573079322E+03  0.95931862331E+02 -0.75190538950E+03  0.77264515759E+03  0.81287577220E+02 0.  0.
        254    2    1    2    0    0  0.12573079322E+03 -0.95931862331E+02 -0.12013881827E+04  0.15101309063E+04  0.90119400456E+03 0.  0.
         23    2    4    4    0    0  0.34211324749E+03  0.10469179764E+03 -0.12475599927E+03  0.38958006024E+03  0.90590934306E+02 0.  0.
         23    2    4    4    0    0 -0.21638245427E+03 -0.20062365997E+03 -0.10766321835E+04  0.11205508460E+04  0.97088210419E+02 0.  0.
          2    1    3    3  502    0 -0.13320784139E+03  0.97327367477E+02 -0.74220055310E+03  0.76031480749E+03  0.00000000000E+00 0. -1.
         -1    1    3    3    0  502  0.74770481724E+01 -0.13955051453E+01 -0.97048364068E+01  0.12330350103E+02  0.00000000000E+00 0.  1.
         11    1    5    5    0    0  0.24418260135E+03  0.31076156812E+02 -0.91777285645E+02  0.26270504465E+03  0.00000000000E+00 0.  1.
        -11    1    5    5    0    0  0.97930646145E+02  0.73615640826E+02 -0.32978713628E+02  0.12687501559E+03  0.00000000000E+00 0. -1.
          4    1    6    6  503    0 -0.12544598488E+03 -0.17102160710E+03 -0.80917754727E+03  0.83651263482E+03  0.00000000000E+00 0. -1.
         -4    1    6    6    0  503 -0.90936469397E+02 -0.29602052873E+02 -0.26745463618E+03  0.28403821119E+03  0.00000000000E+00 0.  1.
<mgrwt>
<rscale>  0 0.11814020E+04</rscale>
<asrwt>0</asrwt>
<pdfrwt beam="1">  1        2 0.32585150E+00 0.11814020E+04</pdfrwt>
<pdfrwt beam="2">  1       -1 0.25344808E-01 0.11814020E+04</pdfrwt>
<totfact> 0.88603064E+01</totfact>
</mgrwt>
</event>
<event>
12    6  0.1462228E-007  0.2036319E+04  0.7818608E-02  0.8589826E-01
          2   -1    0    0  501    0  0.00000000000E+00  0.00000000000E+00  0.13039835265E+04  0.13039835265E+04  0.00000000000E+00 0. -1.
         -1   -1    0    0    0  501 -0.00000000000E+00 -0.00000000000E+00 -0.79498611912E+03  0.79498611912E+03  0.00000000000E+00 0.  1.
         24    2    1    2    0    0  0.21448365497E+03  0.16997992523E+03  0.99987983319E+03  0.10397450550E+04  0.80085487627E+02 0.  0.
        254    2    1    2    0    0 -0.21448365497E+03 -0.16997992523E+03 -0.49088242583E+03  0.10592245906E+04  0.89782780316E+03 0.  0.
         23    2    4    4    0    0  0.25342107648E+03 -0.32456706154E+02  0.97289630010E+02  0.29008167493E+03  0.96986732314E+02 0.  0.
         23    2    4    4    0    0 -0.46790473145E+03 -0.13752321907E+03 -0.58817205584E+03  0.76914291568E+03  0.88243889134E+02 0.  0.
          4    1    3    3  502    0  0.16436045224E+03  0.15426681492E+03  0.88774185347E+03  0.91591386432E+03  0.00000000000E+00 0. -1.
         -3    1    3    3    0  502  0.50123202739E+02  0.15713110305E+02  0.11213797972E+03  0.12383119067E+03  0.00000000000E+00 0.  1.
         11    1    5    5    0    0  0.13619972776E+03  0.31337071389E+02  0.46578881383E+02  0.14731588535E+03  0.00000000000E+00 0.  1.
        -11    1    5    5    0    0  0.11722134872E+03 -0.63793777543E+02  0.50710748628E+02  0.14276578958E+03  0.00000000000E+00 0. -1.
          4    1    6    6  503    0 -0.18315871309E+01 -0.22237149283E+01  0.30808694983E+01  0.42179824995E+01  0.00000000000E+00 0. -1.
         -4    1    6    6    0  503 -0.46607314432E+03 -0.13529950414E+03 -0.59125292534E+03  0.76492493318E+03  0.00000000000E+00 0.  1.
<mgrwt>
<rscale>  0 0.20363190E+04</rscale>
<asrwt>0</asrwt>
<pdfrwt beam="1">  1        2 0.20061285E+00 0.20363190E+04</pdfrwt>
<pdfrwt beam="2">  1       -1 0.12230556E+00 0.20363190E+04</pdfrwt>
<totfact> 0.10257050E+01</totfact>
</mgrwt>
</event>
<event>
12    6  0.1462228E-007  0.1285511E+04  0.7818608E-02  0.9041134E-01
         -1   -1    0    0    0  501 -0.00000000000E+00  0.00000000000E+00  0.35651737302E+03  0.35651737302E+03  0.00000000000E+00 0.  1.
          2   -1    0    0  501    0  0.00000000000E+00 -0.00000000000E+00 -0.11588072151E+04  0.11588072151E+04  0.00000000000E+00 0. -1.
         24    2    1    2    0    0 -0.20857401890E+03 -0.85537559547E+02 -0.47212236649E+03  0.53126273652E+03  0.92308021421E+02 0.  0.
        254    2    1    2    0    0  0.20857401890E+03  0.85537559547E+02 -0.33016747559E+03  0.98406185161E+03  0.89919262141E+03 0.  0.
         23    2    4    4    0    0 -0.20317367760E+02  0.26366853760E+03 -0.54493204921E+03  0.61254716359E+03  0.91264430148E+02 0.  0.
         23    2    4    4    0    0  0.22889138666E+03 -0.17813097805E+03  0.21476457363E+03  0.37151468802E+03  0.88189733540E+02 0.  0.
          2    1    3    3  502    0 -0.95291275609E+02 -0.87000371851E+02 -0.22415931934E+03  0.25864433563E+03  0.00000000000E+00 0. -1.
         -1    1    3    3    0  502 -0.11328274329E+03  0.14628123050E+01 -0.24796304715E+03  0.27261840088E+03  0.00000000000E+00 0.  1.
         11    1    5    5    0    0 -0.25863924294E+02  0.17460250386E+02 -0.89661154747E+02  0.94936429225E+02  0.00000000000E+00 0. -1.
        -11    1    5    5    0    0  0.55465565343E+01  0.24620828721E+03 -0.45527089446E+03  0.51761073436E+03  0.00000000000E+00 0.  1.
          4    1    6    6  503    0  0.74907075785E+02 -0.12950029216E+02  0.69532918790E+02  0.10302232794E+03  0.00000000000E+00 0. -1.
         -4    1    6    6    0  503  0.15398431087E+03 -0.16518094884E+03  0.14523165484E+03  0.26849236008E+03  0.00000000000E+00 0.  1.
<mgrwt>
<rscale>  0 0.12855114E+04</rscale>
<asrwt>0</asrwt>
<pdfrwt beam="1">  1        2 0.17827803E+00 0.12855114E+04</pdfrwt>
<pdfrwt beam="2">  1       -1 0.54848827E-01 0.12855114E+04</pdfrwt>
<totfact> 0.75349501E+01</totfact>
</mgrwt>
</event>
<event>
12    6  0.1462228E-007  0.1848891E+04  0.7818608E-02  0.8680724E-01
         -1   -1    0    0    0  501 -0.00000000000E+00  0.00000000000E+00  0.55245664234E+03  0.55245664234E+03  0.00000000000E+00 0.  1.
          2   -1    0    0  501    0  0.00000000000E+00 -0.00000000000E+00 -0.15469070621E+04  0.15469070621E+04  0.00000000000E+00 0. -1.
         24    2    1    2    0    0  0.34590938302E+03  0.45241328416E+03 -0.78441679722E+03  0.97264912059E+03  0.80034486773E+02 0.  0.
        254    2    1    2    0    0 -0.34590938302E+03 -0.45241328416E+03 -0.21003362256E+03  0.11267145839E+04  0.94923155760E+03 0.  0.
         23    2    4    4    0    0 -0.30954089230E+03 -0.26379213350E+03 -0.57106984820E+03  0.70701866504E+03  0.91393476188E+02 0.  0.
         23    2    4    4    0    0 -0.36368490714E+02 -0.18862115066E+03  0.36103622563E+03  0.41969591883E+03  0.94323393009E+02 0.  0.
          4    1    3    3  502    0  0.14260576348E+02  0.52630330195E+02 -0.93700083487E+02  0.10841135245E+03  0.00000000000E+00 0. -1.
         -3    1    3    3    0  502  0.33164880667E+03  0.39978295397E+03 -0.69071671374E+03  0.86423776814E+03  0.00000000000E+00 0.  1.
         11    1    5    5    0    0 -0.52378989039E+02 -0.35404678763E+02 -0.41721161625E+02  0.75747640877E+02  0.00000000000E+00 0.  1.
        -11    1    5    5    0    0 -0.25716190327E+03 -0.22838745474E+03 -0.52934868657E+03  0.63127102416E+03  0.00000000000E+00 0. -1.
          4    1    6    6  503    0 -0.60649647341E+02 -0.15530280869E+03  0.32352020913E+03  0.36395421117E+03  0.00000000000E+00 0. -1.
         -4    1    6    6    0  503  0.24281156628E+02 -0.33318341974E+02  0.37516016502E+02  0.55741707664E+02  0.00000000000E+00 0.  1.
<mgrwt>
<rscale>  0 0.18488906E+04</rscale>
<asrwt>0</asrwt>
<pdfrwt beam="1">  1        2 0.23798570E+00 0.18488906E+04</pdfrwt>
<pdfrwt beam="2">  1       -1 0.84993331E-01 0.18488906E+04</pdfrwt>
<totfact> 0.17522953E+01</totfact>
</mgrwt>
</event>
<event>
12    6  0.1462228E-007  0.1682824E+04  0.7818608E-02  0.8771222E-01
         -1   -1    0    0    0  501 -0.00000000000E+00  0.00000000000E+00  0.78620967657E+03  0.78620967657E+03  0.00000000000E+00 0.  1.
          2   -1    0    0  501    0  0.00000000000E+00 -0.00000000000E+00 -0.90048998040E+03  0.90048998040E+03  0.00000000000E+00 0. -1.
         24    2    1    2    0    0 -0.11564994805E+03  0.49323971563E+03  0.27304414203E+03  0.58175424614E+03  0.84997481379E+02 0.  0.
        254    2    1    2    0    0  0.11564994805E+03 -0.49323971563E+03 -0.38732444586E+03  0.11049454108E+04  0.90234350832E+03 0.  0.
         23    2    4    4    0    0 -0.50552480832E+02 -0.32163359955E+03 -0.65337682885E+03  0.73602853663E+03  0.93984044295E+02 0.  0.
         23    2    4    4    0    0  0.16620242889E+03 -0.17160611608E+03  0.26605238300E+03  0.36891687420E+03  0.90795832095E+02 0.  0.
          4    1    3    3  502    0 -0.25429116252E+02  0.21978877208E+03  0.80892409369E+02  0.23557870485E+03  0.00000000000E+00 0. -1.
         -3    1    3    3    0  502 -0.90220831802E+02  0.27345094355E+03  0.19215173266E+03  0.34617554129E+03  0.00000000000E+00 0.  1.
         11    1    5    5    0    0 -0.61102983729E+02 -0.30712857561E+03 -0.64326596241E+03  0.71543877095E+03  0.00000000000E+00 0. -1.
        -11    1    5    5    0    0  0.10550502898E+02 -0.14505023942E+02 -0.10110866442E+02  0.20589765690E+02  0.00000000000E+00 0.  1.
          1    1    6    6  503    0  0.13297108713E+03 -0.86364021719E+02  0.20398314572E+03  0.25835862285E+03  0.00000000000E+00 0. -1.
         -1    1    6    6    0  503  0.33231341759E+02 -0.85242094364E+02  0.62069237273E+02  0.11055825135E+03  0.00000000000E+00 0.  1.
<mgrwt>
<rscale>  0 0.16828237E+04</rscale>
<asrwt>0</asrwt>
<pdfrwt beam="1">  1        2 0.13853692E+00 0.16828237E+04</pdfrwt>
<pdfrwt beam="2">  1       -1 0.12095533E+00 0.16828237E+04</pdfrwt>
<totfact> 0.19347140E+01</totfact>
</mgrwt>
</event>
<event>
12    6  0.1462228E-007  0.1694432E+04  0.7818608E-02  0.8764546E-01
         -1   -1    0    0    0  501 -0.00000000000E+00  0.00000000000E+00  0.49905163668E+03  0.49905163668E+03  0.00000000000E+00 0.  1.
          2   -1    0    0  501    0  0.00000000000E+00 -0.00000000000E+00 -0.14382779679E+04  0.14382779679E+04  0.00000000000E+00 0. -1.
         24    2    1    2    0    0  0.56720706362E+03  0.88270697240E+02 -0.12819355462E+03  0.59366003228E+03  0.80517560055E+02 0.  0.
        254    2    1    2    0    0 -0.56720706362E+03 -0.88270697240E+02 -0.81103277658E+03  0.13436695723E+04  0.90452097035E+03 0.  0.
         23    2    4    4    0    0 -0.73114509196E+03 -0.26506361563E+03 -0.46217398596E+03  0.90979808131E+03  0.96415193962E+02 0.  0.
         23    2    4    4    0    0  0.16393802835E+03  0.17679291839E+03 -0.34885879062E+03  0.43387149098E+03  0.91709333008E+02 0.  0.
          2    1    3    3  502    0  0.42305534692E+03  0.65282675647E+02 -0.58971931706E+02  0.43210570817E+03  0.00000000000E+00 0. -1.
         -1    1    3    3    0  502  0.14415171669E+03  0.22988021593E+02 -0.69221622915E+02  0.16155432412E+03  0.00000000000E+00 0.  1.
         11    1    5    5    0    0 -0.59578696633E+02  0.50836742083E+01 -0.35881222909E+02  0.69734690029E+02  0.00000000000E+00 0. -1.
        -11    1    5    5    0    0 -0.67156639533E+03 -0.27014728983E+03 -0.42629276305E+03  0.84006339128E+03  0.00000000000E+00 0.  1.
          1    1    6    6  503    0  0.65660183356E+02  0.13628356445E+02 -0.80226504901E+02  0.10456234440E+03  0.00000000000E+00 0. -1.
         -1    1    6    6    0  503  0.98277844992E+02  0.16316456194E+03 -0.26863228572E+03  0.32930914658E+03  0.00000000000E+00 0.  1.
<mgrwt>
<rscale>  0 0.16944320E+04</rscale>
<asrwt>0</asrwt>
<pdfrwt beam="1">  1        2 0.22127353E+00 0.16944320E+04</pdfrwt>
<pdfrwt beam="2">  1       -1 0.76777175E-01 0.16944320E+04</pdfrwt>
<totfact> 0.25408315E+01</totfact>
</mgrwt>
</event>
<event>
12    6  0.1462228E-007  0.1857738E+04  0.7818608E-02  0.8676184E-01
          2   -1    0    0  501    0  0.00000000000E+00  0.00000000000E+00  0.87322958644E+03  0.87322958644E+03  0.00000000000E+00 0. -1.
         -1   -1    0    0    0  501 -0.00000000000E+00 -0.00000000000E+00 -0.98805375718E+03  0.98805375718E+03  0.00000000000E+00 0.  1.
         24    2    1    2    0    0 -0.72519572700E+03 -0.37483207817E+02 -0.20011761520E+01  0.73101795143E+03  0.84079767337E+02 0.  0.
        254    2    1    2    0    0  0.72519572700E+03  0.37483207817E+02 -0.11282299459E+03  0.11302653922E+04  0.85875316322E+03 0.  0.
         23    2    4    4    0    0 -0.16582921146E+03  0.11394300839E+03 -0.56790767652E+02  0.22957729914E+03  0.94858887083E+02 0.  0.
         23    2    4    4    0    0  0.89102493846E+03 -0.76459800571E+02 -0.56032226936E+02  0.90068809305E+03  0.91257265144E+02 0.  0.
          2    1    3    3  502    0 -0.70458922352E+02 -0.27501073609E+02  0.85700054255E+01  0.76119733194E+02  0.00000000000E+00 0. -1.
         -1    1    3    3    0  502 -0.65473680465E+03 -0.99821342082E+01 -0.10571181578E+02  0.65489821824E+03  0.00000000000E+00 0.  1.
         11    1    5    5    0    0 -0.11480899620E+03  0.35616014036E+02 -0.12355876667E-01  0.12020651487E+03  0.00000000000E+00 0.  1.
        -11    1    5    5    0    0 -0.51020215255E+02  0.78326994351E+02 -0.56778411775E+02  0.10937078427E+03  0.00000000000E+00 0. -1.
          3    1    6    6  503    0  0.59298641409E+03 -0.66830189452E+02  0.27938241255E+01  0.59674698740E+03  0.00000000000E+00 0. -1.
         -3    1    6    6    0  503  0.29803852437E+03 -0.96296111191E+01 -0.58826051062E+02  0.30394110565E+03  0.00000000000E+00 0.  1.
<mgrwt>
<rscale>  0 0.18577382E+04</rscale>
<asrwt>0</asrwt>
<pdfrwt beam="1">  1        2 0.13434301E+00 0.18577382E+04</pdfrwt>
<pdfrwt beam="2">  1       -1 0.15200827E+00 0.18577382E+04</pdfrwt>
<totfact> 0.11038769E+01</totfact>
</mgrwt>
</event>
<event>
12    6  0.1462228E-007  0.1349071E+04  0.7818608E-02  0.8991532E-01
          2   -1    0    0  501    0  0.00000000000E+00  0.00000000000E+00  0.17893406904E+04  0.17893406904E+04  0.00000000000E+00 0. -1.
         -3   -1    0    0    0  501 -0.00000000000E+00 -0.00000000000E+00 -0.25428242532E+03  0.25428242532E+03  0.00000000000E+00 0.  1.
         24    2    1    2    0    0  0.27407052395E+03  0.16543369401E+03  0.69619728512E+03  0.77069546823E+03  0.82449291904E+02 0.  0.
        254    2    1    2    0    0 -0.27407052395E+03 -0.16543369401E+03  0.83886097996E+03  0.12729276475E+04  0.90231596065E+03 0.  0.
         23    2    4    4    0    0 -0.35808379792E+02  0.33990254525E+03  0.50175939017E+03  0.61409234958E+03  0.92363130379E+02 0.  0.
         23    2    4    4    0    0 -0.23826214416E+03 -0.50533623926E+03  0.33710158979E+03  0.65883529792E+03  0.91065382537E+02 0.  0.
          2    1    3    3  502    0  0.47126432615E+02  0.62909177857E+02  0.12626024433E+03  0.14872832483E+03  0.00000000000E+00 0. -1.
         -1    1    3    3    0  502  0.22694409134E+03  0.10252451616E+03  0.56993704079E+03  0.62196714340E+03  0.00000000000E+00 0.  1.
         11    1    5    5    0    0  0.98866581513E+01  0.25802709233E+03  0.33741860613E+03  0.42488473983E+03  0.00000000000E+00 0.  1.
        -11    1    5    5    0    0 -0.45695037944E+02  0.81875452922E+02  0.16434078404E+03  0.18920760974E+03  0.00000000000E+00 0. -1.
          4    1    6    6  503    0 -0.90594919611E+02 -0.12394049077E+03  0.12586381154E+03  0.19852048702E+03  0.00000000000E+00 0. -1.
         -4    1    6    6    0  503 -0.14766722455E+03 -0.38139574849E+03  0.21123777825E+03  0.46031481090E+03  0.00000000000E+00 0.  1.
<mgrwt>
<rscale>  0 0.13490706E+04</rscale>
<asrwt>0</asrwt>
<pdfrwt beam="1">  1        2 0.27528317E+00 0.13490706E+04</pdfrwt>
<pdfrwt beam="2">  1       -3 0.39120374E-01 0.13490706E+04</pdfrwt>
<totfact> 0.35716472E+01</totfact>
</mgrwt>
</event>
<event>
12    6  0.1462228E-007  0.1122076E+04  0.7818608E-02  0.9183938E-01
         -3   -1    0    0    0  501 -0.00000000000E+00  0.00000000000E+00  0.67671479651E+03  0.67671479651E+03  0.00000000000E+00 0.  1.
          4   -1    0    0  501    0  0.00000000000E+00 -0.00000000000E+00 -0.46513511979E+03  0.46513511979E+03  0.00000000000E+00 0. -1.
         24    2    1    2    0    0  0.16065019466E+03 -0.40883547550E+02  0.17709268728E+03  0.25545562864E+03  0.80098744144E+02 0.  0.
        254    2    1    2    0    0 -0.16065019466E+03  0.40883547550E+02  0.34486989435E+02  0.88639428766E+03  0.87007214141E+03 0.  0.
         23    2    4    4    0    0  0.15447946585E+03 -0.23808927564E+03 -0.23304042622E+03  0.37872393616E+03  0.92593579794E+02 0.  0.
         23    2    4    4    0    0 -0.31512966051E+03  0.27897282319E+03  0.26752741565E+03  0.50767035150E+03  0.95003834959E+02 0.  0.
          2    1    3    3  502    0  0.48774685603E+01 -0.17493703912E+02  0.49556051926E+02  0.52778988799E+02  0.00000000000E+00 0. -1.
         -1    1    3    3    0  502  0.15577272610E+03 -0.23389843637E+02  0.12753663536E+03  0.20267663985E+03  0.00000000000E+00 0.  1.
         11    1    5    5    0    0 -0.10211360497E+02 -0.47501365231E+01 -0.21557673243E+01  0.11466604246E+02  0.00000000000E+00 0.  1.
        -11    1    5    5    0    0  0.16469082635E+03 -0.23333913912E+03 -0.23088465889E+03  0.36725733191E+03  0.00000000000E+00 0. -1.
          3    1    6    6  503    0 -0.22458956253E+03  0.24256366597E+03  0.17905920289E+03  0.37595186099E+03  0.00000000000E+00 0. -1.
         -3    1    6    6    0  503 -0.90540097983E+02  0.36409157220E+02  0.88468212768E+02  0.13171849051E+03  0.00000000000E+00 0.  1.
<mgrwt>
<rscale>  0 0.11220763E+04</rscale>
<asrwt>0</asrwt>
<pdfrwt beam="1">  1        4 0.71559250E-01 0.11220763E+04</pdfrwt>
<pdfrwt beam="2">  1       -3 0.10410997E+00 0.11220763E+04</pdfrwt>
<totfact> 0.32100101E+00</totfact>
</mgrwt>
</event>
<event>
12    6  0.1462228E-007  0.1277046E+04  0.7818608E-02  0.9047969E-01
          2   -1    0    0  501    0  0.00000000000E+00  0.00000000000E+00  0.23746838595E+04  0.23746838595E+04  0.00000000000E+00 0. -1.
         -1   -1    0    0    0  501 -0.00000000000E+00 -0.00000000000E+00 -0.17169089145E+03  0.17169089145E+03  0.00000000000E+00 0.  1.
         24    2    1    2    0    0 -0.33269479530E+03  0.12700050883E+03  0.75504508018E+03  0.83868581768E+03  0.80534909263E+02 0.  0.
        254    2    1    2    0    0  0.33269479530E+03 -0.12700050883E+03  0.14479478879E+04  0.17076889333E+04  0.83236617591E+03 0.  0.
         23    2    4    4    0    0  0.15809123375E+03  0.30240671995E+03  0.98074868133E+03  0.10424152363E+04  0.91207929839E+02 0.  0.
         23    2    4    4    0    0  0.17460356155E+03 -0.42940722878E+03  0.46719920658E+03  0.66527369702E+03  0.97144333290E+02 0.  0.
          4    1    3    3  502    0 -0.30039087470E+03  0.13316562289E+03  0.71484665136E+03  0.78674868648E+03  0.00000000000E+00 0. -1.
         -3    1    3    3    0  502 -0.32303920594E+02 -0.61651140597E+01  0.40198428824E+02  0.51937131197E+02  0.00000000000E+00 0.  1.
         11    1    5    5    0    0  0.96784362198E+02  0.21012608555E+03  0.77424891709E+03  0.80807275057E+03  0.00000000000E+00 0. -1.
        -11    1    5    5    0    0  0.61306871552E+02  0.92280634398E+02  0.20649976424E+03  0.23434248572E+03  0.00000000000E+00 0.  1.
          4    1    6    6  503    0  0.16817312856E+03 -0.30122427668E+03  0.35062539393E+03  0.49189067169E+03  0.00000000000E+00 0. -1.
         -4    1    6    6    0  503  0.64304329905E+01 -0.12818295210E+03  0.11657381265E+03  0.17338302533E+03  0.00000000000E+00 0.  1.
<mgrwt>
<rscale>  0 0.12770459E+04</rscale>
<asrwt>0</asrwt>
<pdfrwt beam="1">  1        2 0.36533595E+00 0.12770459E+04</pdfrwt>
<pdfrwt beam="2">  1       -1 0.26413985E-01 0.12770459E+04</pdfrwt>
<totfact> 0.58776877E+01</totfact>
</mgrwt>
</event>
<event>
12    6  0.1462228E-007  0.1521824E+04  0.7818608E-02  0.8870069E-01
         -1   -1    0    0    0  501 -0.00000000000E+00  0.00000000000E+00  0.13218449196E+04  0.13218449196E+04  0.00000000000E+00 0.  1.
          2   -1    0    0  501    0  0.00000000000E+00 -0.00000000000E+00 -0.43801409445E+03  0.43801409445E+03  0.00000000000E+00 0. -1.
         24    2    1    2    0    0  0.11638587649E+03 -0.39765360725E+03  0.49562384656E+03  0.65076843550E+03  0.78628848076E+02 0.  0.
        254    2    1    2    0    0 -0.11638587649E+03  0.39765360725E+03  0.38820697857E+03  0.11090905785E+04  0.95273458508E+03 0.  0.
         23    2    4    4    0    0 -0.29496673428E+03 -0.16654237586E+03 -0.67226065542E+02  0.35682964633E+03  0.89812667949E+02 0.  0.
         23    2    4    4    0    0  0.17858085778E+03  0.56419598311E+03  0.45543304411E+03  0.75226093222E+03  0.90934164915E+02 0.  0.
          4    1    3    3  502    0  0.20663589222E+01 -0.10759390206E+03  0.98548952486E+02  0.14591988773E+03  0.00000000000E+00 0. -1.
         -3    1    3    3    0  502  0.11431951757E+03 -0.29005970519E+03  0.39707489408E+03  0.50484854776E+03  0.00000000000E+00 0.  1.
         11    1    5    5    0    0 -0.27924432155E+03 -0.16193770166E+03 -0.40295583527E+02  0.32530746131E+03  0.00000000000E+00 0. -1.
        -11    1    5    5    0    0 -0.15722412730E+02 -0.46046742000E+01 -0.26930482015E+02  0.31522185015E+02  0.00000000000E+00 0.  1.
          1    1    6    6  503    0  0.17763802459E+03  0.53675611116E+03  0.40719643349E+03  0.69675772410E+03  0.00000000000E+00 0. -1.
         -1    1    6    6    0  503  0.94283319590E+00  0.27439871948E+02  0.48236610620E+02  0.55503208115E+02  0.00000000000E+00 0.  1.
<mgrwt>
<rscale>  0 0.15218235E+04</rscale>
<asrwt>0</asrwt>
<pdfrwt beam="1">  1        2 0.67386784E-01 0.15218235E+04</pdfrwt>
<pdfrwt beam="2">  1       -1 0.20336075E+00 0.15218235E+04</pdfrwt>
<totfact> 0.11290266E+01</totfact>
</mgrwt>
</event>
<event>
12    6  0.1462228E-007  0.2263993E+04  0.7818608E-02  0.8492255E-01
         -1   -1    0    0    0  501 -0.00000000000E+00  0.00000000000E+00  0.54213092408E+03  0.54213092408E+03  0.00000000000E+00 0.  1.
          2   -1    0    0  501    0  0.00000000000E+00 -0.00000000000E+00 -0.23636648368E+04  0.23636648368E+04  0.00000000000E+00 0. -1.
         24    2    1    2    0    0  0.44449811998E+01  0.24410420242E+03 -0.19717464151E+04  0.19882305062E+04  0.75299408557E+02 0.  0.
        254    2    1    2    0    0 -0.44449811998E+01 -0.24410420242E+03  0.15021250236E+03  0.91756525467E+03  0.87163959364E+03 0.  0.
         23    2    4    4    0    0  0.41449658068E+03 -0.12793164605E+03 -0.16029964712E+02  0.44330206384E+03  0.89921291034E+02 0.  0.
         23    2    4    4    0    0 -0.41894156188E+03 -0.11617255636E+03  0.16624246708E+03  0.47426319082E+03  0.90999566976E+02 0.  0.
          4    1    3    3  502    0  0.31745391911E+02  0.20541042403E+03 -0.15677168957E+04  0.15814352586E+04  0.00000000000E+00 0. -1.
         -3    1    3    3    0  502 -0.27300410711E+02  0.38693778386E+02 -0.40402951943E+03  0.40679524761E+03  0.00000000000E+00 0.  1.
         11    1    5    5    0    0  0.13376549141E+03 -0.46137165853E+02  0.36701966585E+02  0.14618098070E+03  0.00000000000E+00 0.  1.
        -11    1    5    5    0    0  0.28073108926E+03 -0.81794480199E+02 -0.52731931297E+02  0.29712108314E+03  0.00000000000E+00 0. -1.
          3    1    6    6  503    0 -0.32853621836E+03 -0.89354134990E+02  0.87816521105E+02  0.35161335241E+03  0.00000000000E+00 0. -1.
         -3    1    6    6    0  503 -0.90405343523E+02 -0.26818421373E+02  0.78425945972E+02  0.12264983842E+03  0.00000000000E+00 0.  1.
<mgrwt>
<rscale>  0 0.22639928E+04</rscale>
<asrwt>0</asrwt>
<pdfrwt beam="1">  1        2 0.36364075E+00 0.22639928E+04</pdfrwt>
<pdfrwt beam="2">  1       -1 0.83404757E-01 0.22639928E+04</pdfrwt>
<totfact> 0.61546243E+00</totfact>
</mgrwt>
</event>
<event>
12    6  0.1462228E-007  0.1483245E+04  0.7818608E-02  0.8895672E-01
          2   -1    0    0  501    0  0.00000000000E+00  0.00000000000E+00  0.91924179632E+03  0.91924179632E+03  0.00000000000E+00 0. -1.
         -1   -1    0    0    0  501 -0.00000000000E+00 -0.00000000000E+00 -0.59832349479E+03  0.59832349479E+03  0.00000000000E+00 0.  1.
         24    2    1    2    0    0 -0.29363880339E+03 -0.36289312658E+03  0.52548495368E+02  0.47695972859E+03  0.82547381287E+02 0.  0.
        254    2    1    2    0    0  0.29363880339E+03  0.36289312658E+03  0.26836980616E+03  0.10406055625E+04  0.89046191145E+03 0.  0.
         23    2    4    4    0    0  0.37862457852E+03 -0.18291649804E+03  0.30124250319E+02  0.43127657531E+03  0.90978004166E+02 0.  0.
         23    2    4    4    0    0 -0.84985775134E+02  0.54580962462E+03  0.23824555584E+03  0.60932898721E+03  0.96902742402E+02 0.  0.
          2    1    3    3  502    0 -0.86774936658E+02 -0.14755774425E+03  0.50052764695E+02  0.17834925504E+03  0.00000000000E+00 0. -1.
         -1    1    3    3    0  502 -0.20686386673E+03 -0.21533538233E+03  0.24957306732E+01  0.29861047355E+03  0.00000000000E+00 0.  1.
         11    1    5    5    0    0  0.59751980695E+02 -0.23554236819E+02  0.38161325190E+02  0.74708687643E+02  0.00000000000E+00 0. -1.
        -11    1    5    5    0    0  0.31887259782E+03 -0.15936226122E+03 -0.80370748714E+01  0.35656788767E+03  0.00000000000E+00 0.  1.
          2    1    6    6  503    0 -0.34441392580E+02  0.41182179102E+03  0.14281656283E+03  0.43724131518E+03  0.00000000000E+00 0. -1.
         -2    1    6    6    0  503 -0.50544382554E+02  0.13398783359E+03  0.95428993010E+02  0.17208767203E+03  0.00000000000E+00 0.  1.
<mgrwt>
<rscale>  0 0.14832450E+04</rscale>
<asrwt>0</asrwt>
<pdfrwt beam="1">  1        2 0.14142181E+00 0.14832450E+04</pdfrwt>
<pdfrwt beam="2">  1       -1 0.92049768E-01 0.14832450E+04</pdfrwt>
<totfact> 0.36114229E+01</totfact>
</mgrwt>
</event>
<event>
12    6  0.1462228E-007  0.1752633E+04  0.7818608E-02  0.8731902E-01
          2   -1    0    0  501    0  0.00000000000E+00  0.00000000000E+00  0.11797082778E+04  0.11797082778E+04  0.00000000000E+00 0. -1.
         -1   -1    0    0    0  501 -0.00000000000E+00 -0.00000000000E+00 -0.65094939113E+03  0.65094939113E+03  0.00000000000E+00 0.  1.
         24    2    1    2    0    0  0.26055510948E+03 -0.50064887798E+03 -0.12435848019E+03  0.58353827700E+03  0.80707032110E+02 0.  0.
        254    2    1    2    0    0 -0.26055510948E+03  0.50064887798E+03  0.65311736681E+03  0.12471193919E+04  0.90011455864E+03 0.  0.
         23    2    4    4    0    0  0.26307182204E+03  0.11715564255E+03  0.48372556414E+03  0.57033591578E+03  0.91435262824E+02 0.  0.
         23    2    4    4    0    0 -0.52362693152E+03  0.38349323543E+03  0.16939180267E+03  0.67678347610E+03  0.89944792404E+02 0.  0.
          2    1    3    3  502    0  0.10599956150E+03 -0.17049007873E+03 -0.81528891312E+01  0.20092098841E+03  0.00000000000E+00 0. -1.
         -1    1    3    3    0  502  0.15455554797E+03 -0.33015879925E+03 -0.11620559105E+03  0.38261728859E+03  0.00000000000E+00 0.  1.
         11    1    5    5    0    0  0.11578736117E+03  0.45444477657E+01  0.16534872040E+03  0.20190979260E+03  0.00000000000E+00 0. -1.
        -11    1    5    5    0    0  0.14728446088E+03  0.11261119478E+03  0.31837684374E+03  0.36842612317E+03  0.00000000000E+00 0.  1.
          1    1    6    6  503    0 -0.26865684930E+03  0.24787161263E+03  0.11230758078E+03  0.38240009378E+03  0.00000000000E+00 0. -1.
         -1    1    6    6    0  503 -0.25497008222E+03  0.13562162280E+03  0.57084221894E+02  0.29438338233E+03  0.00000000000E+00 0.  1.
<mgrwt>
<rscale>  0 0.17526327E+04</rscale>
<asrwt>0</asrwt>
<pdfrwt beam="1">  1        2 0.18149358E+00 0.17526327E+04</pdfrwt>
<pdfrwt beam="2">  1       -1 0.10014606E+00 0.17526327E+04</pdfrwt>
<totfact> 0.19998396E+01</totfact>
</mgrwt>
</event>
<event>
12    6  0.1462228E-007  0.1187237E+04  0.7818608E-02  0.9124102E-01
         -1   -1    0    0    0  501 -0.00000000000E+00  0.00000000000E+00  0.51018957377E+03  0.51018957377E+03  0.00000000000E+00 0.  1.
          2   -1    0    0  501    0  0.00000000000E+00 -0.00000000000E+00 -0.69069018941E+03  0.69069018941E+03  0.00000000000E+00 0. -1.
         24    2    1    2    0    0  0.11987958747E+03  0.66551292161E+02  0.16078616215E+03  0.22561561190E+03  0.79057095908E+02 0.  0.
        254    2    1    2    0    0 -0.11987958747E+03 -0.66551292161E+02 -0.34128677779E+03  0.97526415128E+03  0.90325152094E+03 0.  0.
         23    2    4    4    0    0  0.28527737407E+03 -0.15603318757E+03  0.11079172000E+03  0.35548016158E+03  0.91442901751E+02 0.  0.
         23    2    4    4    0    0 -0.40515696154E+03  0.89481895413E+02 -0.45207849779E+03  0.61978398969E+03  0.87166809226E+02 0.  0.
          2    1    3    3  502    0  0.25415092291E+02  0.13340382410E+02 -0.33554975139E+01  0.28898997951E+02  0.00000000000E+00 0. -1.
         -1    1    3    3    0  502  0.94464495183E+02  0.53210909751E+02  0.16414165967E+03  0.19671661395E+03  0.00000000000E+00 0.  1.
         11    1    5    5    0    0  0.16523323298E+03 -0.56625450114E+02  0.94977358944E+02  0.19881941956E+03  0.00000000000E+00 0. -1.
        -11    1    5    5    0    0  0.12004414109E+03 -0.99407737460E+02  0.15814361051E+02  0.15666074203E+03  0.00000000000E+00 0.  1.
          2    1    6    6  503    0 -0.35065607635E+03  0.89827103073E+02 -0.34712097249E+03  0.50151925374E+03  0.00000000000E+00 0. -1.
         -2    1    6    6    0  503 -0.54500885193E+02 -0.34520766012E+00 -0.10495752530E+03  0.11826473596E+03  0.00000000000E+00 0.  1.
<mgrwt>
<rscale>  0 0.11872370E+04</rscale>
<asrwt>0</asrwt>
<pdfrwt beam="1">  1        2 0.10626003E+00 0.11872370E+04</pdfrwt>
<pdfrwt beam="2">  1       -1 0.78490704E-01 0.11872370E+04</pdfrwt>
<totfact> 0.76397095E+01</totfact>
</mgrwt>
</event>
<event>
12    6  0.1462228E-007  0.2657770E+04  0.7818608E-02  0.8348839E-01
          2   -1    0    0  501    0  0.00000000000E+00  0.00000000000E+00  0.22746717027E+04  0.22746717027E+04  0.00000000000E+00 0. -1.
         -1   -1    0    0    0  501 -0.00000000000E+00 -0.00000000000E+00 -0.77634709138E+03  0.77634709138E+03  0.00000000000E+00 0.  1.
         24    2    1    2    0    0 -0.63292025326E+02  0.11254993488E+04  0.10418230461E+04  0.15369946044E+04  0.78755888381E+02 0.  0.
        254    2    1    2    0    0  0.63292025326E+02 -0.11254993488E+04  0.45650156527E+03  0.15140241897E+04  0.90173216838E+03 0.  0.
         23    2    4    4    0    0 -0.55653155656E+02 -0.49576491233E+03 -0.24176776549E+03  0.56174683207E+03  0.90706829341E+02 0.  0.
         23    2    4    4    0    0  0.11894518098E+03 -0.62973443644E+03  0.69826933075E+03  0.95227735767E+03  0.92405038521E+02 0.  0.
          2    1    3    3  502    0  0.10228233909E+02  0.62102360643E+02  0.43055482292E+02  0.76256767055E+02  0.00000000000E+00 0. -1.
         -1    1    3    3    0  502 -0.73520259234E+02  0.10633969881E+04  0.99876756380E+03  0.14607378373E+04  0.00000000000E+00 0.  1.
         11    1    5    5    0    0 -0.61417576473E+02 -0.26475786274E+03 -0.16642949168E+03  0.31869675286E+03  0.00000000000E+00 0.  1.
        -11    1    5    5    0    0  0.57644208176E+01 -0.23100704959E+03 -0.75338273807E+02  0.24305007922E+03  0.00000000000E+00 0. -1.
          1    1    6    6  503    0  0.63515299303E+02 -0.19855250224E+03  0.27928478990E+03  0.34850722125E+03  0.00000000000E+00 0. -1.
         -1    1    6    6    0  503  0.55429881678E+02 -0.43118193420E+03  0.41898454085E+03  0.60377013642E+03  0.00000000000E+00 0.  1.
<mgrwt>
<rscale>  0 0.26577696E+04</rscale>
<asrwt>0</asrwt>
<pdfrwt beam="1">  1        2 0.34994949E+00 0.26577696E+04</pdfrwt>
<pdfrwt beam="2">  1       -1 0.11943802E+00 0.26577696E+04</pdfrwt>
<totfact> 0.29377639E+00</totfact>
</mgrwt>
</event>
<event>
12    6  0.1462228E-007  0.2005409E+04  0.7818608E-02  0.8604096E-01
          2   -1    0    0  501    0  0.00000000000E+00  0.00000000000E+00  0.63561828977E+03  0.63561828977E+03  0.00000000000E+00 0. -1.
         -1   -1    0    0    0  501 -0.00000000000E+00 -0.00000000000E+00 -0.15817925791E+04  0.15817925791E+04  0.00000000000E+00 0.  1.
         24    2    1    2    0    0 -0.62439068461E+03 -0.45975667818E+03 -0.16242585409E+03  0.79624756469E+03  0.79925565589E+02 0.  0.
        254    2    1    2    0    0  0.62439068461E+03  0.45975667818E+03 -0.78374843525E+03  0.14211633042E+04  0.89677399452E+03 0.  0.
         23    2    4    4    0    0  0.71118405619E+03  0.13630820539E+03 -0.22618403199E+03  0.76412207556E+03  0.91436542959E+02 0.  0.
         23    2    4    4    0    0 -0.86793371586E+02  0.32344847279E+03 -0.55756440326E+03  0.65704122863E+03  0.93129525036E+02 0.  0.
          2    1    3    3  502    0 -0.51533598342E+03 -0.37334784105E+03 -0.10171974765E+03  0.64444293253E+03  0.00000000000E+00 0. -1.
         -3    1    3    3    0  502 -0.10905470118E+03 -0.86408837134E+02 -0.60706106437E+02  0.15180463216E+03  0.00000000000E+00 0.  1.
         11    1    5    5    0    0  0.70216829093E+03  0.14267214420E+03 -0.21423898593E+03  0.74785960755E+03  0.00000000000E+00 0.  1.
        -11    1    5    5    0    0  0.90157652671E+01 -0.63639388031E+01 -0.11945046056E+02  0.16262468008E+02  0.00000000000E+00 0. -1.
          4    1    6    6  503    0 -0.32780416437E+02  0.23153450337E+02 -0.43005283154E+02  0.58822549618E+02  0.00000000000E+00 0. -1.
         -4    1    6    6    0  503 -0.54012955149E+02  0.30029502245E+03 -0.51455912010E+03  0.59821867901E+03  0.00000000000E+00 0.  1.
<mgrwt>
<rscale>  0 0.20054090E+04</rscale>
<asrwt>0</asrwt>
<pdfrwt beam="1">  1        2 0.97787431E-01 0.20054090E+04</pdfrwt>
<pdfrwt beam="2">  1       -1 0.24335270E+00 0.20054090E+04</pdfrwt>
<totfact> 0.37769849E+00</totfact>
</mgrwt>
</event>
<event>
12    6  0.1462228E-007  0.1588576E+04  0.7818608E-02  0.8827597E-01
         -1   -1    0    0    0  501 -0.00000000000E+00  0.00000000000E+00  0.10948046806E+04  0.10948046806E+04  0.00000000000E+00 0.  1.
          2   -1    0    0  501    0  0.00000000000E+00 -0.00000000000E+00 -0.57626150169E+03  0.57626150169E+03  0.00000000000E+00 0. -1.
         24    2    1    2    0    0  0.53015112911E+03  0.75460619265E+02  0.20589634285E+03  0.57905324658E+03  0.78452747624E+02 0.  0.
        254    2    1    2    0    0 -0.53015112911E+03 -0.75460619265E+02  0.31264683604E+03  0.10920129357E+04  0.89888246334E+03 0.  0.
         23    2    4    4    0    0 -0.33904300768E+03  0.26861828110E+03 -0.16013062390E+03  0.47018580615E+03  0.91252033399E+02 0.  0.
         23    2    4    4    0    0 -0.19110812143E+03 -0.34407890036E+03  0.47277745994E+03  0.62182712955E+03  0.90762595071E+02 0.  0.
          2    1    3    3  502    0  0.30821721540E+03  0.34184084705E+02  0.78671853637E+02  0.31993071761E+03  0.00000000000E+00 0. -1.
         -1    1    3    3    0  502  0.22193391372E+03  0.41276534560E+02  0.12722448922E+03  0.25912252897E+03  0.00000000000E+00 0.  1.
         11    1    5    5    0    0 -0.28469789505E+03  0.24836403822E+03 -0.16441414168E+03  0.41203106304E+03  0.00000000000E+00 0.  1.
        -11    1    5    5    0    0 -0.54345112632E+02  0.20254242872E+02  0.42835177812E+01  0.58154743108E+02  0.00000000000E+00 0. -1.
          3    1    6    6  503    0 -0.95396095799E+01 -0.89003449328E+02  0.12677707697E+03  0.15519357393E+03  0.00000000000E+00 0. -1.
         -3    1    6    6    0  503 -0.18156851185E+03 -0.25507545103E+03  0.34600038297E+03  0.46663355562E+03  0.00000000000E+00 0.  1.
<mgrwt>
<rscale>  0 0.15885765E+04</rscale>
<asrwt>0</asrwt>
<pdfrwt beam="1">  1        2 0.88655616E-01 0.15885765E+04</pdfrwt>
<pdfrwt beam="2">  1       -1 0.16843149E+00 0.15885765E+04</pdfrwt>
<totfact> 0.14430321E+01</totfact>
</mgrwt>
</event>
<event>
12    6  0.1462228E-007  0.1299880E+04  0.7818608E-02  0.9029660E-01
         -1   -1    0    0    0  501 -0.00000000000E+00  0.00000000000E+00  0.12151639589E+04  0.12151639589E+04  0.00000000000E+00 0.  1.
          2   -1    0    0  501    0  0.00000000000E+00 -0.00000000000E+00 -0.34762572802E+03  0.34762572802E+03  0.00000000000E+00 0. -1.
         24    2    1    2    0    0 -0.15078566388E+03  0.10950524819E+03  0.57822360776E+03  0.61268822627E+03  0.79477079909E+02 0.  0.
        254    2    1    2    0    0  0.15078566388E+03 -0.10950524819E+03  0.28931462314E+03  0.95010146066E+03  0.88558574886E+03 0.  0.
         23    2    4    4    0    0  0.33412771477E+03 -0.36242294753E+03 -0.19511546632E+02  0.50149357757E+03  0.90129824266E+02 0.  0.
         23    2    4    4    0    0 -0.18334205090E+03  0.25291769934E+03  0.30882616977E+03  0.44860788309E+03  0.91070079448E+02 0.  0.
          2    1    3    3  502    0 -0.36988323488E+02  0.55493862870E+02  0.11805091919E+03  0.13558659378E+03  0.00000000000E+00 0. -1.
         -1    1    3    3    0  502 -0.11379734039E+03  0.54011385321E+02  0.46017268857E+03  0.47710163250E+03  0.00000000000E+00 0.  1.
         11    1    5    5    0    0  0.10201478628E+03 -0.56239837368E+02  0.39664504721E+01  0.11655757657E+03  0.00000000000E+00 0.  1.
        -11    1    5    5    0    0  0.23211292850E+03 -0.30618311016E+03 -0.23477997104E+02  0.38493600101E+03  0.00000000000E+00 0. -1.
          3    1    6    6  503    0 -0.11958869469E+03  0.20938645273E+03  0.27065432687E+03  0.36248849242E+03  0.00000000000E+00 0. -1.
         -3    1    6    6    0  503 -0.63753356208E+02  0.43531246608E+02  0.38171842902E+02  0.86119390671E+02  0.00000000000E+00 0.  1.
<mgrwt>
<rscale>  0 0.12998804E+04</rscale>
<asrwt>0</asrwt>
<pdfrwt beam="1">  1        2 0.53480882E-01 0.12998804E+04</pdfrwt>
<pdfrwt beam="2">  1       -1 0.18694830E+00 0.12998804E+04</pdfrwt>
<totfact> 0.19402561E+01</totfact>
</mgrwt>
</event>
<event>
12    6  0.1462228E-007  0.1268706E+04  0.7818608E-02  0.9054756E-01
          2   -1    0    0  501    0  0.00000000000E+00  0.00000000000E+00  0.19591477802E+04  0.19591477802E+04  0.00000000000E+00 0. -1.
         -1   -1    0    0    0  501 -0.00000000000E+00 -0.00000000000E+00 -0.20539736484E+03  0.20539736484E+03  0.00000000000E+00 0.  1.
         24    2    1    2    0    0  0.26630558196E+03 -0.61158588491E+02  0.37017268946E+03  0.46707488861E+03  0.80449335735E+02 0.  0.
        254    2    1    2    0    0 -0.26630558196E+03  0.61158588491E+02  0.13835777259E+04  0.16974702564E+04  0.94470043500E+03 0.  0.
         23    2    4    4    0    0 -0.37609753527E+03 -0.20279339700E+03  0.13186391124E+04  0.13892021233E+04  0.92189548780E+02 0.  0.
         23    2    4    4    0    0  0.10979195331E+03  0.26395198549E+03  0.64938613520E+02  0.30826813308E+03  0.95327302971E+02 0.  0.
          2    1    3    3  502    0  0.20801318960E+01  0.96662806581E+01  0.58626631588E+01  0.11494988029E+02  0.00000000000E+00 0. -1.
         -1    1    3    3    0  502  0.26422545007E+03 -0.70824869149E+02  0.36431002630E+03  0.45557990058E+03  0.00000000000E+00 0.  1.
         11    1    5    5    0    0 -0.97756380175E+02 -0.73224817137E+02  0.50509504826E+03  0.51965295293E+03  0.00000000000E+00 0. -1.
        -11    1    5    5    0    0 -0.27834115510E+03 -0.12956857986E+03  0.81354406409E+03  0.86954917039E+03  0.00000000000E+00 0.  1.
          3    1    6    6  503    0  0.79593685176E+02  0.25790332060E+03  0.64318663693E+02  0.27746381385E+03  0.00000000000E+00 0. -1.
         -3    1    6    6    0  503  0.30198268135E+02  0.60486648835E+01  0.61994982650E+00  0.30804319227E+02  0.00000000000E+00 0.  1.
<mgrwt>
<rscale>  0 0.12687061E+04</rscale>
<asrwt>0</asrwt>
<pdfrwt beam="1">  1        2 0.30140734E+00 0.12687061E+04</pdfrwt>
<pdfrwt beam="2">  1       -1 0.31599596E-01 0.12687061E+04</pdfrwt>
<totfact> 0.73400572E+01</totfact>
</mgrwt>
</event>
<event>
12    6  0.1462228E-007  0.1513876E+04  0.7818608E-02  0.8875277E-01
          2   -1    0    0  501    0  0.00000000000E+00  0.00000000000E+00  0.15786445040E+04  0.15786445040E+04  0.00000000000E+00 0. -1.
         -1   -1    0    0    0  501 -0.00000000000E+00 -0.00000000000E+00 -0.36294135362E+03  0.36294135362E+03  0.00000000000E+00 0.  1.
         24    2    1    2    0    0 -0.11906890003E+03  0.21966084048E+03  0.88255210248E+03  0.92072859479E+03  0.80091471895E+02 0.  0.
        254    2    1    2    0    0  0.11906890003E+03 -0.21966084048E+03  0.33315104786E+03  0.10208572628E+04  0.93205774634E+03 0.  0.
         23    2    4    4    0    0  0.48503936467E+03 -0.30175416594E+03  0.19843139489E+03  0.61179385983E+03  0.92725112575E+02 0.  0.
         23    2    4    4    0    0 -0.36597046464E+03  0.82093325458E+02  0.13471965297E+03  0.40906340297E+03  0.92248510467E+02 0.  0.
          2    1    3    3  502    0 -0.12564419094E+03  0.16976470942E+03  0.74020160480E+03  0.76974342156E+03  0.00000000000E+00 0. -1.
         -1    1    3    3    0  502  0.65752909112E+01  0.49896131060E+02  0.14235049768E+03  0.15098517323E+03  0.00000000000E+00 0.  1.
         11    1    5    5    0    0  0.36453081686E+03 -0.20713817734E+03  0.18410311952E+03  0.45791145385E+03  0.00000000000E+00 0. -1.
        -11    1    5    5    0    0  0.12050854781E+03 -0.94615988600E+02  0.14328275378E+02  0.15388240598E+03  0.00000000000E+00 0.  1.
          3    1    6    6  503    0 -0.21293119594E+03  0.23131294925E+02  0.11712717809E+03  0.24411785444E+03  0.00000000000E+00 0.  1.
         -3    1    6    6    0  503 -0.15303926870E+03  0.58962030533E+02  0.17592474878E+02  0.16494554853E+03  0.00000000000E+00 0. -1.
<mgrwt>
<rscale>  0 0.15138763E+04</rscale>
<asrwt>0</asrwt>
<pdfrwt beam="1">  1        2 0.24286838E+00 0.15138763E+04</pdfrwt>
<pdfrwt beam="2">  1       -1 0.55837132E-01 0.15138763E+04</pdfrwt>
<totfact> 0.40896400E+01</totfact>
</mgrwt>
</event>
<event>
12    6  0.1462228E-007  0.1294187E+04  0.7818608E-02  0.9034188E-01
          2   -1    0    0  501    0  0.00000000000E+00  0.00000000000E+00  0.71218592310E+03  0.71218592310E+03  0.00000000000E+00 0. -1.
         -1   -1    0    0    0  501 -0.00000000000E+00 -0.00000000000E+00 -0.58795044956E+03  0.58795044956E+03  0.00000000000E+00 0.  1.
         24    2    1    2    0    0 -0.15316759352E+03  0.27165003315E+03  0.16466142988E+01  0.32063697469E+03  0.74507086806E+02 0.  0.
        254    2    1    2    0    0  0.15316759352E+03 -0.27165003315E+03  0.12258885925E+03  0.97949939797E+03  0.92040045089E+03 0.  0.
         23    2    4    4    0    0 -0.14461547657E+03 -0.42243838762E+03  0.34230541354E+03  0.57021539613E+03  0.92761923479E+02 0.  0.
         23    2    4    4    0    0  0.29778307009E+03  0.15078835447E+03 -0.21971655429E+03  0.40928400184E+03  0.88465503217E+02 0.  0.
          4    1    3    3  502    0 -0.30052269864E+01 -0.19814052198E+00  0.95076129217E+01  0.99732317919E+01  0.00000000000E+00 0. -1.
         -3    1    3    3    0  502 -0.15016236653E+03  0.27184817367E+03 -0.78609986229E+01  0.31066374290E+03  0.00000000000E+00 0.  1.
         11    1    5    5    0    0  0.13549829357E+02 -0.29503302124E+02  0.24664300576E+02  0.40772177213E+02  0.00000000000E+00 0.  1.
        -11    1    5    5    0    0 -0.15816530593E+03 -0.39293508550E+03  0.31764111296E+03  0.52944321892E+03  0.00000000000E+00 0. -1.
          4    1    6    6  503    0  0.28310656913E+03  0.12661219133E+03 -0.17422255065E+03  0.35571543912E+03  0.00000000000E+00 0. -1.
         -4    1    6    6    0  503  0.14676500965E+02  0.24176163138E+02 -0.45494003640E+02  0.53568562719E+02  0.00000000000E+00 0.  1.
<mgrwt>
<rscale>  0 0.12941871E+04</rscale>
<asrwt>0</asrwt>
<pdfrwt beam="1">  1        2 0.10956706E+00 0.12941871E+04</pdfrwt>
<pdfrwt beam="2">  1       -1 0.90453916E-01 0.12941871E+04</pdfrwt>
<totfact> 0.53652737E+01</totfact>
</mgrwt>
</event>
<event>
12    6  0.1462228E-007  0.3529597E+04  0.7818608E-02  0.8106812E-01
          2   -1    0    0  501    0  0.00000000000E+00  0.00000000000E+00  0.24254229691E+04  0.24254229691E+04  0.00000000000E+00 0. -1.
         -1   -1    0    0    0  501 -0.00000000000E+00 -0.00000000000E+00 -0.12841113127E+04  0.12841113127E+04  0.00000000000E+00 0.  1.
         24    2    1    2    0    0 -0.82093861250E+03  0.11917093745E+04  0.13509161687E+04  0.19812152011E+04  0.78279879580E+02 0.  0.
        254    2    1    2    0    0  0.82093861250E+03 -0.11917093745E+04 -0.20960451227E+03  0.17283190806E+04  0.92143440033E+03 0.  0.
         23    2    4    4    0    0  0.39997576117E+03 -0.59814620799E+03 -0.55945281361E+03  0.91596542228E+03  0.90805883605E+02 0.  0.
         23    2    4    4    0    0  0.42096285133E+03 -0.59356316653E+03  0.34984830135E+03  0.81235365835E+03  0.89429734542E+02 0.  0.
          4    1    3    3  502    0 -0.69975878083E+03  0.10021276825E+04  0.11022923524E+04  0.16458950980E+04  0.00000000000E+00 0. -1.
         -3    1    3    3    0  502 -0.12117983168E+03  0.18958169200E+03  0.24862381628E+03  0.33532010314E+03  0.00000000000E+00 0.  1.
         11    1    5    5    0    0  0.38269401385E+03 -0.54885287159E+03 -0.49132385562E+03  0.83011644604E+03  0.00000000000E+00 0. -1.
        -11    1    5    5    0    0  0.17281747319E+02 -0.49293336402E+02 -0.68128957992E+02  0.85848976238E+02  0.00000000000E+00 0.  1.
          1    1    6    6  503    0  0.19619546586E+03 -0.33351923823E+03  0.21862068198E+03  0.44443531102E+03  0.00000000000E+00 0. -1.
         -1    1    6    6    0  503  0.22476738548E+03 -0.26004392830E+03  0.13122761937E+03  0.36791834733E+03  0.00000000000E+00 0.  1.
<mgrwt>
<rscale>  0 0.35295966E+04</rscale>
<asrwt>0</asrwt>
<pdfrwt beam="1">  1        2 0.37314199E+00 0.35295966E+04</pdfrwt>
<pdfrwt beam="2">  1       -1 0.19755559E+00 0.35295966E+04</pdfrwt>
<totfact> 0.56038787E-01</totfact>
</mgrwt>
</event>
<event>
12    6  0.1462228E-007  0.1268718E+04  0.7818608E-02  0.9054747E-01
          2   -1    0    0  501    0  0.00000000000E+00  0.00000000000E+00  0.49224581683E+03  0.49224581683E+03  0.00000000000E+00 0. -1.
         -1   -1    0    0    0  501 -0.00000000000E+00 -0.00000000000E+00 -0.81750073451E+03  0.81750073451E+03  0.00000000000E+00 0.  1.
         24    2    1    2    0    0 -0.61618788990E+02  0.13788068285E+03 -0.34484970816E+03  0.38484889104E+03  0.79871082748E+02 0.  0.
        254    2    1    2    0    0  0.61618788990E+02 -0.13788068285E+03  0.19594790476E+02  0.92489766030E+03  0.91227395466E+03 0.  0.
         23    2    4    4    0    0 -0.85522881893E+02 -0.10117266143E+03 -0.42055801552E+03  0.45030924819E+03  0.91429228573E+02 0.  0.
         23    2    4    4    0    0  0.14714167088E+03 -0.36708021418E+02  0.44015280599E+03  0.47458841211E+03  0.92203677482E+02 0.  0.
          2    1    3    3  502    0  0.16704510343E+02  0.83214432950E+01 -0.27468766695E+02  0.33208737224E+02  0.00000000000E+00 0. -1.
         -1    1    3    3    0  502 -0.78323299332E+02  0.12955923956E+03 -0.31738094146E+03  0.35164015382E+03  0.00000000000E+00 0.  1.
         11    1    5    5    0    0 -0.10446751016E+03 -0.86306497894E+02 -0.33340476615E+03  0.35989027543E+03  0.00000000000E+00 0. -1.
        -11    1    5    5    0    0  0.18944628272E+02 -0.14866163540E+02 -0.87153249366E+02  0.90418972754E+02  0.00000000000E+00 0.  1.
          2    1    6    6  503    0  0.15393883385E+03 -0.30109047232E+02  0.43747275508E+03  0.46474308034E+03  0.00000000000E+00 0. -1.
         -2    1    6    6    0  503 -0.67971629691E+01 -0.65989741860E+01  0.26800509174E+01  0.98453317697E+01  0.00000000000E+00 0.  1.
<mgrwt>
<rscale>  0 0.12687180E+04</rscale>
<asrwt>0</asrwt>
<pdfrwt beam="1">  1        2 0.75730127E-01 0.12687180E+04</pdfrwt>
<pdfrwt beam="2">  1       -1 0.12576934E+00 0.12687180E+04</pdfrwt>
<totfact> 0.38836473E+01</totfact>
</mgrwt>
</event>
<event>
12    6  0.1462228E-007  0.3739002E+04  0.7818608E-02  0.8059373E-01
          2   -1    0    0  501    0  0.00000000000E+00  0.00000000000E+00  0.19187622592E+04  0.19187622592E+04  0.00000000000E+00 0. -1.
         -1   -1    0    0    0  501 -0.00000000000E+00 -0.00000000000E+00 -0.18215043959E+04  0.18215043959E+04  0.00000000000E+00 0.  1.
         24    2    1    2    0    0  0.50033120594E+03 -0.15809743754E+04  0.63734493231E+03  0.17782737377E+04  0.78978682600E+02 0.  0.
        254    2    1    2    0    0 -0.50033120594E+03  0.15809743754E+04 -0.54008706894E+03  0.19619929174E+04  0.89883862533E+03 0.  0.
         23    2    4    4    0    0  0.13144088521E+03 -0.96046082783E+01 -0.11044253813E+03  0.19500923932E+03  0.91989642832E+02 0.  0.
         23    2    4    4    0    0 -0.63177209116E+03  0.15905789837E+04 -0.42964453081E+03  0.17669836780E+04  0.92517117772E+02 0.  0.
          2    1    3    3  502    0  0.84754274430E+02 -0.27659066128E+03  0.79644850974E+02  0.30004830150E+03  0.00000000000E+00 0. -1.
         -1    1    3    3    0  502  0.41557693151E+03 -0.13043837141E+04  0.55770008133E+03  0.14782254363E+04  0.00000000000E+00 0.  1.
         11    1    5    5    0    0  0.11706435860E+03  0.17789237056E+02 -0.11337404616E+03  0.16393350894E+03  0.00000000000E+00 0. -1.
        -11    1    5    5    0    0  0.14376526607E+02 -0.27393845334E+02  0.29315080350E+01  0.31075730383E+02  0.00000000000E+00 0.  1.
          3    1    6    6  503    0 -0.55327051506E+03  0.13896488536E+04 -0.40671267714E+03  0.15500475480E+04  0.00000000000E+00 0. -1.
         -3    1    6    6    0  503 -0.78501576095E+02  0.20093013007E+03 -0.22931853675E+02  0.21693613008E+03  0.00000000000E+00 0.  1.
<mgrwt>
<rscale>  0 0.37390019E+04</rscale>
<asrwt>0</asrwt>
<pdfrwt beam="1">  1        2 0.29519419E+00 0.37390019E+04</pdfrwt>
<pdfrwt beam="2">  1       -1 0.28023145E+00 0.37390019E+04</pdfrwt>
<totfact> 0.30145975E-01</totfact>
</mgrwt>
</event>
<event>
12    6  0.1462228E-007  0.6080704E+04  0.7818608E-02  0.7680475E-01
         -1   -1    0    0    0  501 -0.00000000000E+00  0.00000000000E+00  0.38882575786E+04  0.38882575786E+04  0.00000000000E+00 0.  1.
          2   -1    0    0  501    0  0.00000000000E+00 -0.00000000000E+00 -0.23773475812E+04  0.23773475812E+04  0.00000000000E+00 0. -1.
         24    2    1    2    0    0  0.97731935327E+03 -0.14175940941E+03  0.36293823392E+04  0.37621377290E+04  0.77558233533E+02 0.  0.
        254    2    1    2    0    0 -0.97731935327E+03  0.14175940941E+03 -0.21184723418E+04  0.25034674308E+04  0.89675819818E+03 0.  0.
         23    2    4    4    0    0 -0.23908127773E+03 -0.11690681134E+03 -0.44308214543E+02  0.28474990238E+03  0.91061677628E+02 0.  0.
         23    2    4    4    0    0 -0.73823807554E+03  0.25866622075E+03 -0.20741641272E+04  0.22187175285E+04  0.92989109458E+02 0.  0.
          2    1    3    3  502    0  0.21852223264E+03 -0.28534314901E+02  0.69377014060E+03  0.72793075308E+03  0.00000000000E+00 0. -1.
         -1    1    3    3    0  502  0.75879712063E+03 -0.11322509450E+03  0.29356121986E+04  0.30342069759E+04  0.00000000000E+00 0.  1.
         11    1    5    5    0    0 -0.23801171333E+01  0.48554610324E+01  0.11564228108E+02  0.12766042110E+02  0.00000000000E+00 0.  1.
        -11    1    5    5    0    0 -0.23670116060E+03 -0.12176227237E+03 -0.55872442652E+02  0.27198386027E+03  0.00000000000E+00 0. -1.
          1    1    6    6  503    0 -0.63823216809E+03  0.20089804015E+03 -0.18335577875E+04  0.19518284973E+04  0.00000000000E+00 0. -1.
         -1    1    6    6    0  503 -0.10000590745E+03  0.57768180602E+02 -0.24060633971E+03  0.26688903111E+03  0.00000000000E+00 0.  1.
<mgrwt>
<rscale>  0 0.60807038E+04</rscale>
<asrwt>0</asrwt>
<pdfrwt beam="1">  1        2 0.36574578E+00 0.60807038E+04</pdfrwt>
<pdfrwt beam="2">  1       -1 0.59819347E+00 0.60807038E+04</pdfrwt>
<totfact> 0.14315298E-03</totfact>
</mgrwt>
</event>
<event>
12    6  0.1462228E-007  0.1328865E+04  0.7818608E-02  0.9006983E-01
          2   -1    0    0  501    0  0.00000000000E+00  0.00000000000E+00  0.84567461142E+03  0.84567461142E+03  0.00000000000E+00 0. -1.
         -1   -1    0    0    0  501 -0.00000000000E+00 -0.00000000000E+00 -0.52203358096E+03  0.52203358096E+03  0.00000000000E+00 0.  1.
         24    2    1    2    0    0 -0.73828293802E+02 -0.88679136321E+02 -0.30254098387E+03  0.33436595047E+03  0.83396257295E+02 0.  0.
        254    2    1    2    0    0  0.73828293802E+02  0.88679136321E+02  0.62618201434E+03  0.10333422419E+04  0.81386587816E+03 0.  0.
         23    2    4    4    0    0  0.25318135247E+03  0.17657073951E+03  0.72324264845E+03  0.79160496872E+03  0.90997113529E+02 0.  0.
         23    2    4    4    0    0 -0.17935305867E+03 -0.87891603192E+02 -0.97060634113E+02  0.24173727319E+03  0.95518003485E+02 0.  0.
          4    1    3    3  502    0  0.14310584224E+02 -0.37738877542E+02 -0.77909283443E+02  0.87743217091E+02  0.00000000000E+00 0. -1.
         -3    1    3    3    0  502 -0.88138878026E+02 -0.50940258779E+02 -0.22463170043E+03  0.24662273338E+03  0.00000000000E+00 0.  1.
         11    1    5    5    0    0  0.13883422175E+03  0.11837663706E+03  0.52174777513E+03  0.55272842354E+03  0.00000000000E+00 0. -1.
        -11    1    5    5    0    0  0.11434713072E+03  0.58194102451E+02  0.20149487332E+03  0.23887654518E+03  0.00000000000E+00 0.  1.
          3    1    6    6  503    0 -0.41619572997E+02 -0.27852921549E+02 -0.74551356846E+02  0.89810238297E+02  0.00000000000E+00 0. -1.
         -3    1    6    6    0  503 -0.13773348567E+03 -0.60038681643E+02 -0.22509277266E+02  0.15192703489E+03  0.00000000000E+00 0.  1.
<mgrwt>
<rscale>  0 0.13288650E+04</rscale>
<asrwt>0</asrwt>
<pdfrwt beam="1">  1        2 0.13010379E+00 0.13288650E+04</pdfrwt>
<pdfrwt beam="2">  1       -1 0.80312859E-01 0.13288650E+04</pdfrwt>
<totfact> 0.55229084E+01</totfact>
</mgrwt>
</event>
<event>
12    6  0.1462228E-007  0.1892009E+04  0.7818608E-02  0.8658844E-01
         -1   -1    0    0    0  501 -0.00000000000E+00  0.00000000000E+00  0.17704562609E+04  0.17704562609E+04  0.00000000000E+00 0.  1.
          2   -1    0    0  501    0  0.00000000000E+00 -0.00000000000E+00 -0.50547694698E+03  0.50547694698E+03  0.00000000000E+00 0. -1.
         24    2    1    2    0    0 -0.32691588988E+03  0.19430250778E+03  0.12390701046E+04  0.12986726267E+04  0.81415008461E+02 0.  0.
        254    2    1    2    0    0  0.32691588988E+03 -0.19430250778E+03  0.25909209293E+02  0.97726058117E+03  0.89985526214E+03 0.  0.
         23    2    4    4    0    0  0.49933824631E+03  0.18597201068E+03 -0.40264638760E+02  0.54297423059E+03  0.96309402268E+02 0.  0.
         23    2    4    4    0    0 -0.17242235643E+03 -0.38027451846E+03  0.66173848054E+02  0.43428635058E+03  0.99435797139E+02 0.  0.
          4    1    3    3  502    0 -0.19929744516E+03  0.73704976837E+02  0.72068576312E+03  0.75135867895E+03  0.00000000000E+00 0. -1.
         -3    1    3    3    0  502 -0.12761844472E+03  0.12059753095E+03  0.51838434148E+03  0.54731394775E+03  0.00000000000E+00 0.  1.
         11    1    5    5    0    0  0.20821861749E+02  0.28986012140E+02 -0.15052806121E+02  0.38734039276E+02  0.00000000000E+00 0. -1.
        -11    1    5    5    0    0  0.47851638456E+03  0.15698599853E+03 -0.25211832639E+02  0.50424019131E+03  0.00000000000E+00 0.  1.
          4    1    6    6  503    0 -0.13991147913E+03 -0.29016582883E+03  0.92105034654E+02  0.33504442634E+03  0.00000000000E+00 0. -1.
         -4    1    6    6    0  503 -0.32510877298E+02 -0.90108689626E+02 -0.25931186600E+02  0.99241924243E+02  0.00000000000E+00 0.  1.
<mgrwt>
<rscale>  0 0.18920093E+04</rscale>
<asrwt>0</asrwt>
<pdfrwt beam="1">  1        2 0.77765685E-01 0.18920093E+04</pdfrwt>
<pdfrwt beam="2">  1       -1 0.27237788E+00 0.18920093E+04</pdfrwt>
<totfact> 0.32477281E+00</totfact>
</mgrwt>
</event>
<event>
12    6  0.1462228E-007  0.2675496E+04  0.7818608E-02  0.8343000E-01
          2   -1    0    0  501    0  0.00000000000E+00  0.00000000000E+00  0.12532230447E+04  0.12532230447E+04  0.00000000000E+00 0. -1.
         -1   -1    0    0    0  501 -0.00000000000E+00 -0.00000000000E+00 -0.14279736760E+04  0.14279736760E+04  0.00000000000E+00 0.  1.
         24    2    1    2    0    0  0.96850928080E+03  0.58801690083E+03 -0.42146992514E+03  0.12115210642E+04  0.79826615073E+02 0.  0.
        254    2    1    2    0    0 -0.96850928080E+03 -0.58801690083E+03  0.24671929379E+03  0.14696756565E+04  0.90294076374E+03 0.  0.
         23    2    4    4    0    0 -0.18516977186E+03 -0.31175721712E+03  0.47377652577E+03  0.60364808971E+03  0.91904368787E+02 0.  0.
         23    2    4    4    0    0 -0.78333950893E+03 -0.27625968371E+03 -0.22705723198E+03  0.86602756682E+03  0.92241860345E+02 0.  0.
          2    1    3    3  502    0  0.81287477244E+03  0.50653083318E+03 -0.38402736548E+03  0.10318991705E+04  0.00000000000E+00 0. -1.
         -1    1    3    3    0  502  0.15563450836E+03  0.81486067646E+02 -0.37442559660E+02  0.17962189367E+03  0.00000000000E+00 0.  1.
         11    1    5    5    0    0 -0.93659969256E+02 -0.75224672959E+02  0.16412004433E+03  0.20338714368E+03  0.00000000000E+00 0. -1.
        -11    1    5    5    0    0 -0.91509802607E+02 -0.23653254416E+03  0.30965648144E+03  0.40026094604E+03  0.00000000000E+00 0.  1.
          4    1    6    6  503    0 -0.66236554753E+03 -0.21517481786E+03 -0.21984198678E+03  0.73031419262E+03  0.00000000000E+00 0.  1.
         -4    1    6    6    0  503 -0.12097396140E+03 -0.61084865841E+02 -0.72152452065E+01  0.13571337420E+03  0.00000000000E+00 0. -1.
<mgrwt>
<rscale>  0 0.26754959E+04</rscale>
<asrwt>0</asrwt>
<pdfrwt beam="1">  1        2 0.19280354E+00 0.26754959E+04</pdfrwt>
<pdfrwt beam="2">  1       -1 0.21968826E+00 0.26754959E+04</pdfrwt>
<totfact> 0.19505034E+00</totfact>
</mgrwt>
</event>
<event>
12    6  0.1462228E-007  0.1541440E+04  0.7818608E-02  0.8857354E-01
          2   -1    0    0  501    0  0.00000000000E+00  0.00000000000E+00  0.98101499272E+03  0.98101499272E+03  0.00000000000E+00 0. -1.
         -1   -1    0    0    0  501 -0.00000000000E+00 -0.00000000000E+00 -0.60550458216E+03  0.60550458216E+03  0.00000000000E+00 0.  1.
         24    2    1    2    0    0  0.44602912938E+03  0.23685885178E+03  0.17595285121E+01  0.51199644092E+03  0.84220897941E+02 0.  0.
        254    2    1    2    0    0 -0.44602912938E+03 -0.23685885178E+03  0.37375088205E+03  0.10745231340E+04  0.87170301346E+03 0.  0.
         23    2    4    4    0    0  0.15959022625E+03  0.18081896631E+03  0.36948820265E+02  0.26041692732E+03  0.91034179433E+02 0.  0.
         23    2    4    4    0    0 -0.60561935563E+03 -0.41767781809E+03  0.33680206178E+03  0.81410620665E+03  0.90020682346E+02 0.  0.
          4    1    3    3  502    0  0.19706881415E+03  0.11209339957E+03  0.42168026936E+02  0.23060613659E+03  0.00000000000E+00 0. -1.
         -3    1    3    3    0  502  0.24896031523E+03  0.12476545221E+03 -0.40408498424E+02  0.28139030433E+03  0.00000000000E+00 0.  1.
         11    1    5    5    0    0  0.77572463495E+02  0.29777052255E+02  0.30204927691E+02  0.88410958543E+02  0.00000000000E+00 0.  1.
        -11    1    5    5    0    0  0.82017762751E+02  0.15104191405E+03  0.67438925742E+01  0.17200596877E+03  0.00000000000E+00 0. -1.
          2    1    6    6  503    0 -0.54996007131E+03 -0.40775070838E+03  0.31042645848E+03  0.75171890115E+03  0.00000000000E+00 0. -1.
         -2    1    6    6    0  503 -0.55659284314E+02 -0.99271097039E+01  0.26375603306E+02  0.62387305497E+02  0.00000000000E+00 0.  1.
<mgrwt>
<rscale>  0 0.15414397E+04</rscale>
<asrwt>0</asrwt>
<pdfrwt beam="1">  1        2 0.15092538E+00 0.15414397E+04</pdfrwt>
<pdfrwt beam="2">  1       -1 0.93154551E-01 0.15414397E+04</pdfrwt>
<totfact> 0.31869417E+01</totfact>
</mgrwt>
</event>
<event>
12    6  0.1462228E-007  0.1760636E+04  0.7818608E-02  0.8727518E-01
          2   -1    0    0  501    0  0.00000000000E+00  0.00000000000E+00  0.49967830840E+03  0.49967830840E+03  0.00000000000E+00 0. -1.
         -1   -1    0    0    0  501 -0.00000000000E+00 -0.00000000000E+00 -0.15509172598E+04  0.15509172598E+04  0.00000000000E+00 0.  1.
         24    2    1    2    0    0 -0.54849156504E+03 -0.44247563396E+02 -0.81123070101E+03  0.98351060027E+03  0.79981290316E+02 0.  0.
        254    2    1    2    0    0  0.54849156504E+03  0.44247563396E+02 -0.24000825038E+03  0.10670849679E+04  0.88219358687E+03 0.  0.
         23    2    4    4    0    0  0.42534018562E+03  0.33219803714E+03 -0.42218061844E+03  0.69104527339E+03  0.89650911347E+02 0.  0.
         23    2    4    4    0    0  0.12315137942E+03 -0.28795047374E+03  0.18217236806E+03  0.37603969453E+03  0.10068437117E+03 0.  0.
          4    1    3    3  502    0 -0.12898124165E+03  0.23446660855E+02 -0.18743236124E+03  0.22872865287E+03  0.00000000000E+00 0. -1.
         -1    1    3    3    0  502 -0.41951032339E+03 -0.67694224251E+02 -0.62379833977E+03  0.75478194741E+03  0.00000000000E+00 0.  1.
         11    1    5    5    0    0  0.42476277546E+03  0.31436010763E+03 -0.40107668470E+03  0.66340651165E+03  0.00000000000E+00 0.  1.
        -11    1    5    5    0    0  0.57741016818E+00  0.17837929506E+02 -0.21103933740E+02  0.27638761746E+02  0.00000000000E+00 0. -1.
          4    1    6    6  503    0  0.19928234157E+02 -0.88973236855E+02  0.68008626358E+01  0.91430974651E+02  0.00000000000E+00 0. -1.
         -4    1    6    6    0  503  0.10322314526E+03 -0.19897723688E+03  0.17537150542E+03  0.28460871988E+03  0.00000000000E+00 0.  1.
<mgrwt>
<rscale>  0 0.17606359E+04</rscale>
<asrwt>0</asrwt>
<pdfrwt beam="1">  1        2 0.76873586E-01 0.17606359E+04</pdfrwt>
<pdfrwt beam="2">  1       -1 0.23860265E+00 0.17606359E+04</pdfrwt>
<totfact> 0.55231848E+00</totfact>
</mgrwt>
</event>
<event>
12    6  0.1462228E-007  0.2051685E+04  0.7818608E-02  0.8582830E-01
          2   -1    0    0  501    0  0.00000000000E+00  0.00000000000E+00  0.12486239513E+04  0.12486239513E+04  0.00000000000E+00 0. -1.
         -1   -1    0    0    0  501 -0.00000000000E+00 -0.00000000000E+00 -0.84281044075E+03  0.84281044075E+03  0.00000000000E+00 0.  1.
         24    2    1    2    0    0 -0.76196705725E+03 -0.28660824567E+03  0.41000190359E+02  0.81909714368E+03  0.80628979630E+02 0.  0.
        254    2    1    2    0    0  0.76196705725E+03  0.28660824567E+03  0.36481332019E+03  0.12723372484E+04  0.90720186958E+03 0.  0.
         23    2    4    4    0    0 -0.12119627720E+03  0.29369614664E+03  0.11999716032E+03  0.35127433972E+03  0.89712758881E+02 0.  0.
         23    2    4    4    0    0  0.88316333445E+03 -0.70879009756E+01  0.24481615987E+03  0.92106290864E+03  0.91619953535E+02 0.  0.
          4    1    3    3  502    0 -0.17399802860E+03 -0.82769720301E+02  0.40031758138E+02  0.19679604217E+03  0.00000000000E+00 0. -1.
         -3    1    3    3    0  502 -0.58796902866E+03 -0.20383852536E+03  0.96843222166E+00  0.62230110151E+03  0.00000000000E+00 0.  1.
         11    1    5    5    0    0  0.14675974640E+02  0.28924368217E+02  0.14512972817E+02  0.35533500931E+02  0.00000000000E+00 0. -1.
        -11    1    5    5    0    0 -0.13587225184E+03  0.26477177842E+03  0.10548418750E+03  0.31574083879E+03  0.00000000000E+00 0.  1.
          2    1    6    6  503    0  0.40099179141E+03 -0.22545510417E+02  0.15418407290E+03  0.43020395762E+03  0.00000000000E+00 0.  1.
         -2    1    6    6    0  503  0.48217154304E+03  0.15457609442E+02  0.90632086970E+02  0.49085895102E+03  0.00000000000E+00 0. -1.
<mgrwt>
<rscale>  0 0.20516855E+04</rscale>
<asrwt>0</asrwt>
<pdfrwt beam="1">  1        2 0.19209599E+00 0.20516855E+04</pdfrwt>
<pdfrwt beam="2">  1       -1 0.12966314E+00 0.20516855E+04</pdfrwt>
<totfact> 0.95416706E+00</totfact>
</mgrwt>
</event>
<event>
12    6  0.1462228E-007  0.2001446E+04  0.7818608E-02  0.8605945E-01
          2   -1    0    0  501    0  0.00000000000E+00  0.00000000000E+00  0.14838368590E+04  0.14838368590E+04  0.00000000000E+00 0. -1.
         -1   -1    0    0    0  501 -0.00000000000E+00 -0.00000000000E+00 -0.67490366527E+03  0.67490366527E+03  0.00000000000E+00 0.  1.
         24    2    1    2    0    0  0.56801253734E+03  0.48621703770E+03  0.61368083412E+03  0.97349659383E+03  0.10975518992E+03 0.  0.
        254    2    1    2    0    0 -0.56801253734E+03 -0.48621703770E+03  0.19525235963E+03  0.11852439305E+04  0.89868483932E+03 0.  0.
         23    2    4    4    0    0 -0.57681123408E+02  0.17170867903E+03  0.27721272392E+03  0.34351540175E+03  0.91350722377E+02 0.  0.
         23    2    4    4    0    0 -0.51033141393E+03 -0.65792571673E+03 -0.81960364288E+02  0.84172852871E+03  0.92114135437E+02 0.  0.
          2    1    3    3  502    0  0.29361930346E+03  0.24950969270E+03  0.38669026495E+03  0.54589077948E+03  0.00000000000E+00 0. -1.
         -1    1    3    3    0  502  0.27439323387E+03  0.23670734500E+03  0.22699056917E+03  0.42760581435E+03  0.00000000000E+00 0.  1.
         11    1    5    5    0    0  0.73047329038E+00  0.99405631001E+02  0.88248524569E+02  0.13292785695E+03  0.00000000000E+00 0.  1.
        -11    1    5    5    0    0 -0.58411596698E+02  0.72303048032E+02  0.18896419935E+03  0.21058754479E+03  0.00000000000E+00 0. -1.
          3    1    6    6  503    0 -0.23418678053E+03 -0.26876465187E+03  0.58857166568E+01  0.35652843916E+03  0.00000000000E+00 0.  1.
         -3    1    6    6    0  503 -0.27614463340E+03 -0.38916106486E+03 -0.87846080944E+02  0.48520008955E+03  0.00000000000E+00 0. -1.
<mgrwt>
<rscale>  0 0.20014464E+04</rscale>
<asrwt>0</asrwt>
<pdfrwt beam="1">  1        2 0.22828259E+00 0.20014464E+04</pdfrwt>
<pdfrwt beam="2">  1       -1 0.10383133E+00 0.20014464E+04</pdfrwt>
<totfact> 0.11990938E+01</totfact>
</mgrwt>
</event>
<event>
12    6  0.1462228E-007  0.2481951E+04  0.7818608E-02  0.8409444E-01
          2   -1    0    0  501    0  0.00000000000E+00  0.00000000000E+00  0.28956664845E+04  0.28956664845E+04  0.00000000000E+00 0. -1.
         -1   -1    0    0    0  501 -0.00000000000E+00 -0.00000000000E+00 -0.53183613431E+03  0.53183613431E+03  0.00000000000E+00 0.  1.
         24    2    1    2    0    0 -0.20795378761E+03  0.83766524502E+03  0.13083321859E+03  0.87706737959E+03  0.84864696719E+02 0.  0.
        254    2    1    2    0    0  0.20795378761E+03 -0.83766524502E+03  0.22329971316E+04  0.25504352392E+04  0.87949751515E+03 0.  0.
         23    2    4    4    0    0  0.50358516449E+03 -0.25684392990E+03  0.96558378459E+03  0.11223053497E+04  0.87466740797E+02 0.  0.
         23    2    4    4    0    0 -0.29563137688E+03 -0.58082131512E+03  0.12674133470E+04  0.14281298894E+04  0.92016726468E+02 0.  0.
          2    1    3    3  502    0  0.42172969460E+01  0.32661442132E+02  0.16251504733E+02  0.36724199131E+02  0.00000000000E+00 0. -1.
         -1    1    3    3    0  502 -0.21217108456E+03  0.80500380289E+03  0.11458171385E+03  0.84034318046E+03  0.00000000000E+00 0.  1.
         11    1    5    5    0    0  0.32333283041E+03 -0.12850855321E+03  0.64346990272E+03  0.73151355639E+03  0.00000000000E+00 0.  1.
        -11    1    5    5    0    0  0.18025233407E+03 -0.12833537669E+03  0.32211388187E+03  0.39079179334E+03  0.00000000000E+00 0. -1.
          3    1    6    6  503    0 -0.67169138199E+02 -0.81681212926E+02  0.26365067299E+03  0.28406898993E+03  0.00000000000E+00 0. -1.
         -3    1    6    6    0  503 -0.22846223868E+03 -0.49914010220E+03  0.10037626740E+04  0.11440608995E+04  0.00000000000E+00 0.  1.
<mgrwt>
<rscale>  0 0.24819509E+04</rscale>
<asrwt>0</asrwt>
<pdfrwt beam="1">  1        2 0.44548714E+00 0.24819509E+04</pdfrwt>
<pdfrwt beam="2">  1       -1 0.81820946E-01 0.24819509E+04</pdfrwt>
<totfact> 0.30527864E+00</totfact>
</mgrwt>
</event>
<event>
12    6  0.1462228E-007  0.1406161E+04  0.7818608E-02  0.8949371E-01
         -1   -1    0    0    0  501 -0.00000000000E+00  0.00000000000E+00  0.34222761392E+03  0.34222761392E+03  0.00000000000E+00 0.  1.
          2   -1    0    0  501    0  0.00000000000E+00 -0.00000000000E+00 -0.14444249808E+04  0.14444249808E+04  0.00000000000E+00 0. -1.
         24    2    1    2    0    0  0.32506462032E+03  0.87116101478E+02 -0.25145760951E+02  0.34553172412E+03  0.74186525442E+02 0.  0.
        254    2    1    2    0    0 -0.32506462032E+03 -0.87116101478E+02 -0.10770516060E+04  0.14411208706E+04  0.89640001079E+03 0.  0.
         23    2    4    4    0    0 -0.73415044323E+02 -0.47214963105E+03 -0.60233743507E+03  0.77426467262E+03  0.91434975553E+02 0.  0.
         23    2    4    4    0    0 -0.25164957600E+03  0.38503352957E+03 -0.47471417088E+03  0.66685619800E+03  0.88121034798E+02 0.  0.
          2    1    3    3  502    0  0.14987384447E+02  0.19722699748E+02 -0.13018165198E+02  0.27983552367E+02  0.00000000000E+00 0. -1.
         -1    1    3    3    0  502  0.31007723588E+03  0.67393401729E+02 -0.12127595753E+02  0.31754817175E+03  0.00000000000E+00 0.  1.
         11    1    5    5    0    0 -0.10407584166E+02 -0.18570837121E+02 -0.54968490007E+01  0.21986567455E+02  0.00000000000E+00 0. -1.
        -11    1    5    5    0    0 -0.63007460157E+02 -0.45357879393E+03 -0.59684058607E+03  0.75227810517E+03  0.00000000000E+00 0.  1.
          4    1    6    6  503    0 -0.39871107387E+02  0.16510270214E+02 -0.39049309602E+02  0.58199165005E+02  0.00000000000E+00 0. -1.
         -4    1    6    6    0  503 -0.21177846861E+03  0.36852325936E+03 -0.43566486128E+03  0.60865703299E+03  0.00000000000E+00 0.  1.
<mgrwt>
<rscale>  0 0.14061609E+04</rscale>
<asrwt>0</asrwt>
<pdfrwt beam="1">  1        2 0.22221922E+00 0.14061609E+04</pdfrwt>
<pdfrwt beam="2">  1       -1 0.52650403E-01 0.14061609E+04</pdfrwt>
<totfact> 0.55010198E+01</totfact>
</mgrwt>
</event>
<event>
12    6  0.1462228E-007  0.1843708E+04  0.7818608E-02  0.8683396E-01
         -1   -1    0    0    0  501 -0.00000000000E+00  0.00000000000E+00  0.36100360057E+03  0.36100360057E+03  0.00000000000E+00 0.  1.
          2   -1    0    0  501    0  0.00000000000E+00 -0.00000000000E+00 -0.23540329216E+04  0.23540329216E+04  0.00000000000E+00 0. -1.
         24    2    1    2    0    0  0.26757900067E+03  0.65009571273E+03 -0.73878317134E+03  0.10229253938E+04  0.79704640136E+02 0.  0.
        254    2    1    2    0    0 -0.26757900067E+03 -0.65009571273E+03 -0.12542461497E+04  0.16921111284E+04  0.89212314708E+03 0.  0.
         23    2    4    4    0    0 -0.49180264627E+03 -0.64809609607E+03 -0.11854675371E+04  0.14404015856E+04  0.86747066020E+02 0.  0.
         23    2    4    4    0    0  0.22422364560E+03 -0.19996166638E+01 -0.68778612609E+02  0.25170954289E+03  0.91361669841E+02 0.  0.
          2    1    3    3  502    0  0.27801568134E+02  0.13834529768E+03 -0.12394003479E+03  0.18781235530E+03  0.00000000000E+00 0. -1.
         -1    1    3    3    0  502  0.23977743254E+03  0.51175041505E+03 -0.61484313655E+03  0.83511303847E+03  0.00000000000E+00 0.  1.
         11    1    5    5    0    0 -0.44395306127E+03 -0.56652398432E+03 -0.10885859725E+04  0.13050146225E+04  0.00000000000E+00 0. -1.
        -11    1    5    5    0    0 -0.47849585003E+02 -0.81572111748E+02 -0.96881564638E+02  0.13538696306E+03  0.00000000000E+00 0.  1.
          3    1    6    6  503    0  0.17284107256E+03 -0.76244514632E+01 -0.90958155319E+02  0.19546241235E+03  0.00000000000E+00 0. -1.
         -3    1    6    6    0  503  0.51382573043E+02  0.56248347994E+01  0.22179542710E+02  0.56247130539E+02  0.00000000000E+00 0.  1.
<mgrwt>
<rscale>  0 0.18437075E+04</rscale>
<asrwt>0</asrwt>
<pdfrwt beam="1">  1        2 0.36215891E+00 0.18437075E+04</pdfrwt>
<pdfrwt beam="2">  1       -1 0.55539015E-01 0.18437075E+04</pdfrwt>
<totfact> 0.14839908E+01</totfact>
</mgrwt>
</event>
<event>
12    6  0.1462228E-007  0.1656214E+04  0.7818608E-02  0.8786739E-01
          2   -1    0    0  501    0  0.00000000000E+00  0.00000000000E+00  0.59250156459E+03  0.59250156459E+03  0.00000000000E+00 0. -1.
         -1   -1    0    0    0  501 -0.00000000000E+00 -0.00000000000E+00 -0.11573997486E+04  0.11573997486E+04  0.00000000000E+00 0.  1.
         24    2    1    2    0    0 -0.78424493957E+02  0.36424229009E+03  0.27242174445E+03  0.46992989409E+03  0.88304311139E+02 0.  0.
        254    2    1    2    0    0  0.78424493957E+02 -0.36424229009E+03 -0.83731992845E+03  0.12799714191E+04  0.89353193784E+03 0.  0.
         23    2    4    4    0    0  0.24205247983E+03  0.32991171339E+02 -0.79797314467E+03  0.83928988629E+03  0.89266753273E+02 0.  0.
         23    2    4    4    0    0 -0.16362798587E+03 -0.39723346143E+03 -0.39346783782E+02  0.44068153279E+03  0.89908305003E+02 0.  0.
          2    1    3    3  502    0 -0.50960551442E+02  0.19970679739E+03  0.20287035521E+03  0.28919917661E+03  0.00000000000E+00 0. -1.
         -1    1    3    3    0  502 -0.27463942516E+02  0.16453549270E+03  0.69551389244E+02  0.18073071748E+03  0.00000000000E+00 0.  1.
         11    1    5    5    0    0  0.18764837981E+03  0.58363543910E+01 -0.69298301415E+03  0.71796339417E+03  0.00000000000E+00 0. -1.
        -11    1    5    5    0    0  0.54404100019E+02  0.27154816948E+02 -0.10499013052E+03  0.12132649212E+03  0.00000000000E+00 0.  1.
          4    1    6    6  503    0 -0.15762950441E+03 -0.38333623244E+03 -0.18465529532E+02  0.41489119482E+03  0.00000000000E+00 0. -1.
         -4    1    6    6    0  503 -0.59984814685E+01 -0.13897228991E+02 -0.20881254250E+02  0.25790337970E+02  0.00000000000E+00 0.  1.
<mgrwt>
<rscale>  0 0.16562139E+04</rscale>
<asrwt>0</asrwt>
<pdfrwt beam="1">  1        2 0.91154088E-01 0.16562139E+04</pdfrwt>
<pdfrwt beam="2">  1       -1 0.17806150E+00 0.16562139E+04</pdfrwt>
<totfact> 0.11804499E+01</totfact>
</mgrwt>
</event>
<event>
12    6  0.1462228E-007  0.1649318E+04  0.7818608E-02  0.8790810E-01
         -1   -1    0    0    0  501 -0.00000000000E+00  0.00000000000E+00  0.37808986100E+03  0.37808986100E+03  0.00000000000E+00 0.  1.
          2   -1    0    0  501    0  0.00000000000E+00 -0.00000000000E+00 -0.17986804521E+04  0.17986804521E+04  0.00000000000E+00 0. -1.
         24    2    1    2    0    0 -0.52059300790E+03  0.16768958805E+03 -0.25429264051E+03  0.60821815850E+03  0.78279649296E+02 0.  0.
        254    2    1    2    0    0  0.52059300790E+03 -0.16768958805E+03 -0.11662979506E+04  0.15685521547E+04  0.89496819742E+03 0.  0.
         23    2    4    4    0    0  0.58289591413E+03  0.10169960122E+03 -0.33019658859E+03  0.68327772237E+03  0.87910199461E+02 0.  0.
         23    2    4    4    0    0 -0.62302906225E+02 -0.26938918926E+03 -0.83610136204E+03  0.88527443229E+03  0.90515995444E+02 0.  0.
          4    1    3    3  502    0 -0.37988771666E+03  0.10757934886E+03 -0.21781491168E+03  0.45092275316E+03  0.00000000000E+00 0. -1.
         -1    1    3    3    0  502 -0.14070529124E+03  0.60110239189E+02 -0.36477728826E+02  0.15729540534E+03  0.00000000000E+00 0.  1.
         11    1    5    5    0    0  0.16817210075E+03  0.50835585646E+02 -0.59801018618E+02  0.18558629816E+03  0.00000000000E+00 0.  1.
        -11    1    5    5    0    0  0.41472381338E+03  0.50864015574E+02 -0.27039556997E+03  0.49769142421E+03  0.00000000000E+00 0. -1.
          2    1    6    6  503    0  0.13107990175E+00 -0.15390312446E+03 -0.53723822831E+03  0.55884801409E+03  0.00000000000E+00 0.  1.
         -2    1    6    6    0  503 -0.62433986127E+02 -0.11548606481E+03 -0.29886313374E+03  0.32642641820E+03  0.00000000000E+00 0. -1.
<mgrwt>
<rscale>  0 0.16493185E+04</rscale>
<asrwt>0</asrwt>
<pdfrwt beam="1">  1        2 0.27672007E+00 0.16493185E+04</pdfrwt>
<pdfrwt beam="2">  1       -1 0.58167670E-01 0.16493185E+04</pdfrwt>
<totfact> 0.28164932E+01</totfact>
</mgrwt>
</event>
<event>
12    6  0.1462228E-007  0.2133789E+04  0.7818608E-02  0.8546503E-01
         -1   -1    0    0    0  501 -0.00000000000E+00  0.00000000000E+00  0.10466908932E+04  0.10466908932E+04  0.00000000000E+00 0.  1.
          2   -1    0    0  501    0  0.00000000000E+00 -0.00000000000E+00 -0.10874884492E+04  0.10874884492E+04  0.00000000000E+00 0. -1.
         24    2    1    2    0    0 -0.14193582845E+03  0.73387516647E+03  0.40133287880E+03  0.85217133105E+03  0.80058469182E+02 0.  0.
        254    2    1    2    0    0  0.14193582845E+03 -0.73387516647E+03 -0.44213043484E+03  0.12820080114E+04  0.94305179095E+03 0.  0.
         23    2    4    4    0    0  0.46667930420E+02 -0.26036335563E+03  0.28804722522E+03  0.40168831546E+03  0.91735086720E+02 0.  0.
         23    2    4    4    0    0  0.95267898030E+02 -0.47351181084E+03 -0.73017766006E+03  0.88031969590E+03  0.92271037384E+02 0.  0.
          4    1    3    3  502    0 -0.20430649729E+02  0.14644936987E+03  0.11583122500E+03  0.18783424094E+03  0.00000000000E+00 0. -1.
         -3    1    3    3    0  502 -0.12150517872E+03  0.58742579660E+03  0.28550165380E+03  0.66433709011E+03  0.00000000000E+00 0.  1.
         11    1    5    5    0    0  0.24655957314E+02 -0.24179802023E+03  0.28195754428E+03  0.37225563205E+03  0.00000000000E+00 0. -1.
        -11    1    5    5    0    0  0.22011973106E+02 -0.18565335402E+02  0.60896809376E+01  0.29432683407E+02  0.00000000000E+00 0.  1.
          2    1    6    6  503    0  0.59023810068E+02 -0.40980189766E+03 -0.65818991436E+03  0.77758303019E+03  0.00000000000E+00 0. -1.
         -2    1    6    6    0  503  0.36244087961E+02 -0.63709913185E+02 -0.71987745704E+02  0.10273666571E+03  0.00000000000E+00 0.  1.
<mgrwt>
<rscale>  0 0.21337894E+04</rscale>
<asrwt>0</asrwt>
<pdfrwt beam="1">  1        2 0.16730591E+00 0.21337894E+04</pdfrwt>
<pdfrwt beam="2">  1       -1 0.16102937E+00 0.21337894E+04</pdfrwt>
<totfact> 0.66718611E+00</totfact>
</mgrwt>
</event>
<event>
12    6  0.1462228E-007  0.2193686E+04  0.7818608E-02  0.8521061E-01
          2   -1    0    0  501    0  0.00000000000E+00  0.00000000000E+00  0.12892467543E+04  0.12892467543E+04  0.00000000000E+00 0. -1.
         -1   -1    0    0    0  501 -0.00000000000E+00 -0.00000000000E+00 -0.93315286372E+03  0.93315286372E+03  0.00000000000E+00 0.  1.
         24    2    1    2    0    0  0.63740520576E+03 -0.29606551806E+03 -0.43743819147E+03  0.83178210867E+03  0.81050093344E+02 0.  0.
        254    2    1    2    0    0 -0.63740520576E+03  0.29606551806E+03  0.79353208207E+03  0.13906175094E+04  0.90010205244E+03 0.  0.
         23    2    4    4    0    0 -0.21270663331E+03  0.57008052521E+03  0.32924199846E+03  0.69807729594E+03  0.93143440345E+02 0.  0.
         23    2    4    4    0    0 -0.42469857245E+03 -0.27401500716E+03  0.46429008361E+03  0.69254021344E+03  0.92701477343E+02 0.  0.
          2    1    3    3  502    0  0.41002895416E+03 -0.22160546541E+03 -0.25811029052E+03  0.53277917341E+03  0.00000000000E+00 0. -1.
         -1    1    3    3    0  502  0.22737625160E+03 -0.74460052644E+02 -0.17932790095E+03  0.29900293526E+03  0.00000000000E+00 0.  1.
         11    1    5    5    0    0 -0.21563348668E+03  0.56499035026E+03  0.33370390457E+03  0.69070268016E+03  0.00000000000E+00 0. -1.
        -11    1    5    5    0    0  0.29268533712E+01  0.50901749566E+01 -0.44619061097E+01  0.73746157783E+01  0.00000000000E+00 0.  1.
          1    1    6    6  503    0 -0.38841681398E+03 -0.25643400944E+03  0.38675368006E+03  0.60514827243E+03  0.00000000000E+00 0. -1.
         -1    1    6    6    0  503 -0.36281758468E+02 -0.17580997715E+02  0.77536403546E+02  0.87391941007E+02  0.00000000000E+00 0.  1.
<mgrwt>
<rscale>  0 0.21936858E+04</rscale>
<asrwt>0</asrwt>
<pdfrwt beam="1">  1        2 0.19834566E+00 0.21936858E+04</pdfrwt>
<pdfrwt beam="2">  1       -1 0.14356198E+00 0.21936858E+04</pdfrwt>
<totfact> 0.68591884E+00</totfact>
</mgrwt>
</event>
<event>
12    6  0.1462228E-007  0.2268180E+04  0.7818608E-02  0.8490574E-01
          2   -1    0    0  501    0  0.00000000000E+00  0.00000000000E+00  0.29140080254E+04  0.29140080254E+04  0.00000000000E+00 0. -1.
         -1   -1    0    0    0  501 -0.00000000000E+00 -0.00000000000E+00 -0.44137135662E+03  0.44137135662E+03  0.00000000000E+00 0.  1.
         24    2    1    2    0    0  0.37437115942E+03 -0.87084308951E+03  0.90019402316E+03  0.13096643051E+04  0.79686016348E+02 0.  0.
        254    2    1    2    0    0 -0.37437115942E+03  0.87084308951E+03  0.15724426457E+04  0.20457150769E+04  0.90213793325E+03 0.  0.
         23    2    4    4    0    0  0.19357656856E+02 -0.18947042940E+02 -0.80899898629E+02  0.12482728179E+03  0.91122704999E+02 0.  0.
         23    2    4    4    0    0 -0.39372881628E+03  0.88979013245E+03  0.16533425443E+04  0.19208877952E+04  0.97567885323E+02 0.  0.
          4    1    3    3  502    0  0.21263861795E+03 -0.53537925484E+03  0.49738848782E+03  0.76107912609E+03  0.00000000000E+00 0. -1.
         -1    1    3    3    0  502  0.16173254147E+03 -0.33546383468E+03  0.40280553534E+03  0.54858517903E+03  0.00000000000E+00 0.  1.
         11    1    5    5    0    0  0.52345771001E+02 -0.26616054002E+02 -0.37103303428E+02  0.69463293887E+02  0.00000000000E+00 0. -1.
        -11    1    5    5    0    0 -0.32988114145E+02  0.76690110626E+01 -0.43796595201E+02  0.55363987905E+02  0.00000000000E+00 0.  1.
          4    1    6    6  503    0 -0.93543428300E+02  0.13877590108E+03  0.24210880078E+03  0.29432260381E+03  0.00000000000E+00 0. -1.
         -4    1    6    6    0  503 -0.30018538798E+03  0.75101423137E+03  0.14112337435E+04  0.16265651913E+04  0.00000000000E+00 0.  1.
<mgrwt>
<rscale>  0 0.22681796E+04</rscale>
<asrwt>0</asrwt>
<pdfrwt beam="1">  1        2 0.44830892E+00 0.22681796E+04</pdfrwt>
<pdfrwt beam="2">  1       -1 0.67903287E-01 0.22681796E+04</pdfrwt>
<totfact> 0.44757834E+00</totfact>
</mgrwt>
</event>
<event>
12    6  0.1462228E-007  0.1621811E+04  0.7818608E-02  0.8807260E-01
          2   -1    0    0  501    0  0.00000000000E+00  0.00000000000E+00  0.71035195795E+03  0.71035195795E+03  0.00000000000E+00 0. -1.
         -1   -1    0    0    0  501 -0.00000000000E+00 -0.00000000000E+00 -0.92569261232E+03  0.92569261232E+03  0.00000000000E+00 0.  1.
         24    2    1    2    0    0  0.41448451749E+03  0.11453100355E+03  0.28352041498E+03  0.52134633145E+03  0.80643695320E+02 0.  0.
        254    2    1    2    0    0 -0.41448451749E+03 -0.11453100355E+03 -0.49886106935E+03  0.11146982388E+04  0.89931920424E+03 0.  0.
         23    2    4    4    0    0 -0.67769028155E+03 -0.18729679875E+03 -0.37695076469E+03  0.80269992200E+03  0.88831735601E+02 0.  0.
         23    2    4    4    0    0  0.26320576406E+03  0.72765795203E+02 -0.12191030466E+03  0.31199831682E+03  0.88930827790E+02 0.  0.
          4    1    3    3  502    0  0.40406716147E+03  0.10583938386E+03  0.28765143717E+03  0.50716426871E+03  0.00000000000E+00 0. -1.
         -3    1    3    3    0  502  0.10417356016E+02  0.86916196878E+01 -0.41310221859E+01  0.14182062737E+02  0.00000000000E+00 0.  1.
         11    1    5    5    0    0 -0.60988327712E+03 -0.19492464830E+03 -0.34583731701E+03  0.72770645184E+03  0.00000000000E+00 0.  1.
        -11    1    5    5    0    0 -0.67807004434E+02  0.76278495555E+01 -0.31113447678E+02  0.74993470152E+02  0.00000000000E+00 0. -1.
          2    1    6    6  503    0  0.30232095689E+02 -0.16562094218E+02 -0.40463423194E+00  0.34473849560E+02  0.00000000000E+00 0. -1.
         -2    1    6    6    0  503  0.23297366837E+03  0.89327889421E+02 -0.12150567043E+03  0.27752446726E+03  0.00000000000E+00 0.  1.
<mgrwt>
<rscale>  0 0.16218108E+04</rscale>
<asrwt>0</asrwt>
<pdfrwt beam="1">  1        2 0.10928492E+00 0.16218108E+04</pdfrwt>
<pdfrwt beam="2">  1       -1 0.14241425E+00 0.16218108E+04</pdfrwt>
<totfact> 0.17621237E+01</totfact>
</mgrwt>
</event>
<event>
12    6  0.1462228E-007  0.1226143E+04  0.7818608E-02  0.9090276E-01
          2   -1    0    0  501    0  0.00000000000E+00  0.00000000000E+00  0.52136335445E+03  0.52136335445E+03  0.00000000000E+00 0. -1.
         -1   -1    0    0    0  501 -0.00000000000E+00 -0.00000000000E+00 -0.72091161212E+03  0.72091161212E+03  0.00000000000E+00 0.  1.
         24    2    1    2    0    0 -0.21405155785E+03 -0.51278311342E+02 -0.21265627216E+03  0.31634060430E+03  0.80007207226E+02 0.  0.
        254    2    1    2    0    0  0.21405155785E+03  0.51278311342E+02  0.13108014486E+02  0.92593436227E+03  0.89929699686E+03 0.  0.
         23    2    4    4    0    0 -0.30030637216E+03 -0.85795630189E+02 -0.15453519375E+03  0.36022751538E+03  0.91312263195E+02 0.  0.
         23    2    4    4    0    0  0.51435793001E+03  0.13707394153E+03  0.16764320824E+03  0.56570684689E+03  0.92556176151E+02 0.  0.
          2    1    3    3  502    0 -0.46585201464E+02 -0.25457847436E+02 -0.13349896356E+02  0.54740320827E+02  0.00000000000E+00 0. -1.
         -1    1    3    3    0  502 -0.16746635639E+03 -0.25820463906E+02 -0.19930637580E+03  0.26160028348E+03  0.00000000000E+00 0.  1.
         11    1    5    5    0    0 -0.24799092029E+03 -0.40929774810E+02 -0.93520624600E+02  0.26818062987E+03  0.00000000000E+00 0.  1.
        -11    1    5    5    0    0 -0.52315451869E+02 -0.44865855379E+02 -0.61014569150E+02  0.92046885508E+02  0.00000000000E+00 0. -1.
          1    1    6    6  503    0  0.28055928167E+03  0.11361773610E+03  0.12194061096E+03  0.32633114024E+03  0.00000000000E+00 0. -1.
         -1    1    6    6    0  503  0.23379864834E+03  0.23456205429E+02  0.45702597276E+02  0.23937570666E+03  0.00000000000E+00 0.  1.
<mgrwt>
<rscale>  0 0.12261434E+04</rscale>
<asrwt>0</asrwt>
<pdfrwt beam="1">  1        2 0.80209747E-01 0.12261434E+04</pdfrwt>
<pdfrwt beam="2">  1       -1 0.11090948E+00 0.12261434E+04</pdfrwt>
<totfact> 0.49455444E+01</totfact>
</mgrwt>
</event>
<event>
12    6  0.1462228E-007  0.1734518E+04  0.7818608E-02  0.8741919E-01
          2   -1    0    0  501    0  0.00000000000E+00  0.00000000000E+00  0.12789077105E+04  0.12789077105E+04  0.00000000000E+00 0. -1.
         -1   -1    0    0    0  501 -0.00000000000E+00 -0.00000000000E+00 -0.58810981101E+03  0.58810981101E+03  0.00000000000E+00 0.  1.
         24    2    1    2    0    0  0.29656300818E+03  0.30785776716E+03 -0.24579348060E+03  0.49961742821E+03  0.80480537046E+02 0.  0.
        254    2    1    2    0    0 -0.29656300818E+03 -0.30785776716E+03  0.93659138006E+03  0.13674000933E+04  0.89991865146E+03 0.  0.
         23    2    4    4    0    0  0.30651212710E+03 -0.18041133525E+03  0.27996340906E+03  0.46213282342E+03  0.93216426266E+02 0.  0.
         23    2    4    4    0    0 -0.60307513528E+03 -0.12744643191E+03  0.65662797100E+03  0.90526726985E+03  0.91686017246E+02 0.  0.
          2    1    3    3  502    0  0.99855559964E+02  0.15641245316E+03 -0.87249214492E+02  0.20505709885E+03  0.00000000000E+00 0. -1.
         -1    1    3    3    0  502  0.19670744822E+03  0.15144531400E+03 -0.15854426611E+03  0.29456032936E+03  0.00000000000E+00 0.  1.
         11    1    5    5    0    0  0.94396842241E+02 -0.10085605324E+03  0.78031988814E+02  0.15865591252E+03  0.00000000000E+00 0. -1.
        -11    1    5    5    0    0  0.21211528486E+03 -0.79555282009E+02  0.20193142024E+03  0.30347691090E+03  0.00000000000E+00 0.  1.
          3    1    6    6  503    0 -0.58693710075E+02 -0.41584132324E+02  0.69934548738E+02  0.10032463691E+03  0.00000000000E+00 0. -1.
         -3    1    6    6    0  503 -0.54438142520E+03 -0.85862299584E+02  0.58669342226E+03  0.80494263294E+03  0.00000000000E+00 0.  1.
<mgrwt>
<rscale>  0 0.17345180E+04</rscale>
<asrwt>0</asrwt>
<pdfrwt beam="1">  1        2 0.19675503E+00 0.17345180E+04</pdfrwt>
<pdfrwt beam="2">  1       -1 0.90478433E-01 0.17345180E+04</pdfrwt>
<totfact> 0.21969534E+01</totfact>
</mgrwt>
</event>
<event>
12    6  0.1462228E-007  0.1847133E+04  0.7818608E-02  0.8681629E-01
         -1   -1    0    0    0  501 -0.00000000000E+00  0.00000000000E+00  0.60656216650E+03  0.60656216650E+03  0.00000000000E+00 0.  1.
          2   -1    0    0  501    0  0.00000000000E+00 -0.00000000000E+00 -0.14062445451E+04  0.14062445451E+04  0.00000000000E+00 0. -1.
         24    2    1    2    0    0  0.65019090687E+03  0.24795358833E+03 -0.35058345871E+03  0.78324158958E+03  0.79557707321E+02 0.  0.
        254    2    1    2    0    0 -0.65019090687E+03 -0.24795358833E+03 -0.44909891991E+03  0.12295651220E+04  0.90879665061E+03 0.  0.
         23    2    4    4    0    0 -0.75142355694E+03 -0.34552825799E+03 -0.58240246952E+03  0.10153950504E+04  0.88359113572E+02 0.  0.
         23    2    4    4    0    0  0.10123265007E+03  0.97574669667E+02  0.13330354961E+03  0.21417007161E+03  0.91269478097E+02 0.  0.
          4    1    3    3  502    0  0.56892810651E+03  0.18845411261E+03 -0.29127200631E+03  0.66635840552E+03  0.00000000000E+00 0. -1.
         -3    1    3    3    0  502  0.81262800352E+02  0.59499475718E+02 -0.59311452400E+02  0.11688318407E+03  0.00000000000E+00 0.  1.
         11    1    5    5    0    0 -0.48814902184E+02 -0.34650268849E+02 -0.68934968474E+02  0.91299319193E+02  0.00000000000E+00 0. -1.
        -11    1    5    5    0    0 -0.70260865476E+03 -0.31087798914E+03 -0.51346750105E+03  0.92409573125E+03  0.00000000000E+00 0.  1.
          1    1    6    6  503    0  0.38955367514E+02  0.16334713235E+02  0.96587527931E+02  0.10542055808E+03  0.00000000000E+00 0. -1.
         -1    1    6    6    0  503  0.62277282560E+02  0.81239956432E+02  0.36716021683E+02  0.10874951353E+03  0.00000000000E+00 0.  1.
<mgrwt>
<rscale>  0 0.18471326E+04</rscale>
<asrwt>0</asrwt>
<pdfrwt beam="1">  1        2 0.21634531E+00 0.18471326E+04</pdfrwt>
<pdfrwt beam="2">  1       -1 0.93317257E-01 0.18471326E+04</pdfrwt>
<totfact> 0.17146399E+01</totfact>
</mgrwt>
</event>
<event>
12    6  0.1462228E-007  0.2215738E+04  0.7818608E-02  0.8511906E-01
         -1   -1    0    0    0  501 -0.00000000000E+00  0.00000000000E+00  0.79693693750E+03  0.79693693750E+03  0.00000000000E+00 0.  1.
          2   -1    0    0  501    0  0.00000000000E+00 -0.00000000000E+00 -0.15401137604E+04  0.15401137604E+04  0.00000000000E+00 0. -1.
         24    2    1    2    0    0 -0.68662502382E+03 -0.32963628379E+03 -0.85379544370E+03  0.11473681204E+04  0.85865832044E+02 0.  0.
        254    2    1    2    0    0  0.68662502382E+03  0.32963628379E+03  0.11061862084E+03  0.11896825775E+04  0.90719025177E+03 0.  0.
         23    2    4    4    0    0 -0.96367998680E+02  0.97846481542E+02  0.30450336808E+03  0.34554992072E+03  0.88440496496E+02 0.  0.
         23    2    4    4    0    0  0.78299302250E+03  0.23178980224E+03 -0.19388474724E+03  0.84413265674E+03  0.90355194876E+02 0.  0.
          4    1    3    3  502    0 -0.31416321179E+03 -0.11004656524E+03 -0.40369583688E+03  0.52323904564E+03  0.00000000000E+00 0. -1.
         -1    1    3    3    0  502 -0.37246181203E+03 -0.21958971855E+03 -0.45009960682E+03  0.62412907477E+03  0.00000000000E+00 0.  1.
         11    1    5    5    0    0  0.16959087854E+02  0.99484733010E+01  0.43529669139E+02  0.47764158918E+02  0.00000000000E+00 0. -1.
        -11    1    5    5    0    0 -0.11332708653E+03  0.87898008241E+02  0.26097369894E+03  0.29778576180E+03  0.00000000000E+00 0.  1.
          3    1    6    6  503    0  0.44796441821E+02  0.10466132794E+02  0.97440426938E+01  0.47023478216E+02  0.00000000000E+00 0. -1.
         -3    1    6    6    0  503  0.73819658068E+03  0.22132366945E+03 -0.20362878994E+03  0.79710917852E+03  0.00000000000E+00 0.  1.
<mgrwt>
<rscale>  0 0.22157378E+04</rscale>
<asrwt>0</asrwt>
<pdfrwt beam="1">  1        2 0.23694058E+00 0.22157378E+04</pdfrwt>
<pdfrwt beam="2">  1       -1 0.12260568E+00 0.22157378E+04</pdfrwt>
<totfact> 0.73571063E+00</totfact>
</mgrwt>
</event>
<event>
12    6  0.1462228E-007  0.1337368E+04  0.7818608E-02  0.9000446E-01
         -1   -1    0    0    0  501 -0.00000000000E+00  0.00000000000E+00  0.18154480125E+03  0.18154480125E+03  0.00000000000E+00 0.  1.
          2   -1    0    0  501    0  0.00000000000E+00 -0.00000000000E+00 -0.24629648114E+04  0.24629648114E+04  0.00000000000E+00 0. -1.
         24    2    1    2    0    0 -0.19268152873E+03 -0.90953969421E+02 -0.11904040261E+04  0.12119826027E+04  0.80257633642E+02 0.  0.
        254    2    1    2    0    0  0.19268152873E+03  0.90953969421E+02 -0.10910159841E+04  0.14325270100E+04  0.90355905219E+03 0.  0.
         23    2    4    4    0    0 -0.92663620033E+02 -0.35599309554E+03 -0.34610763925E+03  0.51365410500E+03  0.93447370696E+02 0.  0.
         23    2    4    4    0    0  0.28534514876E+03  0.44694706496E+03 -0.74490834483E+03  0.91887290500E+03  0.90859454928E+02 0.  0.
          4    1    3    3  502    0 -0.82009592086E+02 -0.65085842127E+01 -0.58647260769E+03  0.59221453413E+03  0.00000000000E+00 0. -1.
         -3    1    3    3    0  502 -0.11067193664E+03 -0.84445385209E+02 -0.60393141842E+03  0.61976806855E+03  0.00000000000E+00 0.  1.
         11    1    5    5    0    0 -0.14220595711E+01  0.52944143577E+01 -0.11916396415E+02  0.13116919620E+02  0.00000000000E+00 0. -1.
        -11    1    5    5    0    0 -0.91241560462E+02 -0.36128750989E+03 -0.33419124284E+03  0.50053718538E+03  0.00000000000E+00 0.  1.
          3    1    6    6  503    0  0.64599789441E+02  0.58300622136E+02 -0.16676972453E+03  0.18810698115E+03  0.00000000000E+00 0. -1.
         -3    1    6    6    0  503  0.22074535932E+03  0.38864644282E+03 -0.57813862030E+03  0.73076592385E+03  0.00000000000E+00 0.  1.
<mgrwt>
<rscale>  0 0.13373682E+04</rscale>
<asrwt>0</asrwt>
<pdfrwt beam="1">  1        2 0.37891766E+00 0.13373682E+04</pdfrwt>
<pdfrwt beam="2">  1       -1 0.27929969E-01 0.13373682E+04</pdfrwt>
<totfact> 0.47279347E+01</totfact>
</mgrwt>
</event>
<event>
12    6  0.1462228E-007  0.1836724E+04  0.7818608E-02  0.8687010E-01
         -1   -1    0    0    0  501 -0.00000000000E+00  0.00000000000E+00  0.85766730313E+03  0.85766730313E+03  0.00000000000E+00 0.  1.
          2   -1    0    0  501    0  0.00000000000E+00 -0.00000000000E+00 -0.98335183283E+03  0.98335183283E+03  0.00000000000E+00 0. -1.
         24    2    1    2    0    0 -0.68521441115E+02  0.68325294306E+03 -0.15668734213E+03  0.70878723313E+03  0.79364013081E+02 0.  0.
        254    2    1    2    0    0  0.68521441115E+02 -0.68325294306E+03  0.31002812437E+02  0.11322319028E+04  0.89969891370E+03 0.  0.
         23    2    4    4    0    0 -0.12613333597E+02  0.20326338729E+03 -0.65340424647E+02  0.23211803101E+03  0.90190400977E+02 0.  0.
         23    2    4    4    0    0  0.81134774712E+02 -0.88651633034E+03  0.96343237084E+02  0.90011387183E+03  0.91809080633E+02 0.  0.
          2    1    3    3  502    0 -0.60763927564E+02  0.67892410182E+03 -0.15825174395E+03  0.69976696506E+03  0.00000000000E+00 0. -1.
         -1    1    3    3    0  502 -0.77575135513E+01  0.43288412322E+01  0.15644018161E+01  0.90202680645E+01  0.00000000000E+00 0.  1.
         11    1    5    5    0    0 -0.27509539795E+02  0.80196926976E+02  0.12559016065E+02  0.85709105471E+02  0.00000000000E+00 0. -1.
        -11    1    5    5    0    0  0.14896206198E+02  0.12306646031E+03 -0.77899440712E+02  0.14640892553E+03  0.00000000000E+00 0.  1.
          4    1    6    6  503    0  0.74675486957E+02 -0.85020613671E+03  0.73287748704E+02  0.85662010095E+03  0.00000000000E+00 0. -1.
         -4    1    6    6    0  503  0.64592877549E+01 -0.36310193636E+02  0.23055488380E+02  0.43493770872E+02  0.00000000000E+00 0.  1.
<mgrwt>
<rscale>  0 0.18367239E+04</rscale>
<asrwt>0</asrwt>
<pdfrwt beam="1">  1        2 0.15128490E+00 0.18367239E+04</pdfrwt>
<pdfrwt beam="2">  1       -1 0.13194882E+00 0.18367239E+04</pdfrwt>
<totfact> 0.13543010E+01</totfact>
</mgrwt>
</event>
<event>
12    6  0.1462228E-007  0.3982185E+04  0.7818608E-02  0.8008150E-01
          2   -1    0    0  501    0  0.00000000000E+00  0.00000000000E+00  0.25423778891E+04  0.25423778891E+04  0.00000000000E+00 0. -1.
         -1   -1    0    0    0  501 -0.00000000000E+00 -0.00000000000E+00 -0.15593466658E+04  0.15593466658E+04  0.00000000000E+00 0.  1.
         24    2    1    2    0    0  0.48363169757E+03 -0.16942789481E+04 -0.23488176410E+03  0.17793632569E+04  0.80519462304E+02 0.  0.
        254    2    1    2    0    0 -0.48363169757E+03  0.16942789481E+04  0.12179129874E+04  0.23223612981E+04  0.89753505823E+03 0.  0.
         23    2    4    4    0    0 -0.63048095553E+03  0.16216849115E+04  0.91997243400E+03  0.19703146819E+04  0.91774065662E+02 0.  0.
         23    2    4    4    0    0  0.14684925796E+03  0.72594036658E+02  0.29794055343E+03  0.35204661612E+03  0.91288815420E+02 0.  0.
          4    1    3    3  502    0  0.23749335969E+03 -0.81731063067E+03 -0.15385494765E+03  0.86491104041E+03  0.00000000000E+00 0. -1.
         -3    1    3    3    0  502  0.24613833789E+03 -0.87696831748E+03 -0.81026816453E+02  0.91445221648E+03  0.00000000000E+00 0.  1.
         11    1    5    5    0    0 -0.59252433457E+02  0.11403006921E+03  0.46479522905E+02  0.13665304096E+03  0.00000000000E+00 0. -1.
        -11    1    5    5    0    0 -0.57122852207E+03  0.15076548423E+04  0.87349291110E+03  0.18336616410E+04  0.00000000000E+00 0.  1.
          3    1    6    6  503    0  0.11441201677E+02  0.23517884621E+02  0.64832658266E+01  0.26944846049E+02  0.00000000000E+00 0. -1.
         -3    1    6    6    0  503  0.13540805628E+03  0.49076152038E+02  0.29145728761E+03  0.32510177007E+03  0.00000000000E+00 0.  1.
<mgrwt>
<rscale>  0 0.39821846E+04</rscale>
<asrwt>0</asrwt>
<pdfrwt beam="1">  1        2 0.39113506E+00 0.39821846E+04</pdfrwt>
<pdfrwt beam="2">  1       -1 0.23989949E+00 0.39821846E+04</pdfrwt>
<totfact> 0.23977704E-01</totfact>
</mgrwt>
</event>
<event>
12    6  0.1462228E-007  0.1351307E+04  0.7818608E-02  0.8989840E-01
         -1   -1    0    0    0  501 -0.00000000000E+00  0.00000000000E+00  0.45490520640E+03  0.45490520640E+03  0.00000000000E+00 0.  1.
          2   -1    0    0  501    0  0.00000000000E+00 -0.00000000000E+00 -0.10035221494E+04  0.10035221494E+04  0.00000000000E+00 0. -1.
         24    2    1    2    0    0  0.27354590339E+03 -0.17181336768E+03 -0.33350288531E+03  0.47104136281E+03  0.79426673060E+02 0.  0.
        254    2    1    2    0    0 -0.27354590339E+03  0.17181336768E+03 -0.21511405768E+03  0.98738599299E+03  0.90791510988E+03 0.  0.
         23    2    4    4    0    0 -0.57998741333E+03 -0.39017883944E+01 -0.53473880736E+02  0.58865137098E+03  0.85149028549E+02 0.  0.
         23    2    4    4    0    0  0.30644150994E+03  0.17571515607E+03 -0.16164017695E+03  0.39873462201E+03  0.89886244209E+02 0.  0.
          4    1    3    3  502    0  0.25294544953E+03 -0.17820954845E+03 -0.29854540690E+03  0.42996442129E+03  0.00000000000E+00 0. -1.
         -3    1    3    3    0  502  0.20600453863E+02  0.63961807711E+01 -0.34957478407E+02  0.41076941517E+02  0.00000000000E+00 0.  1.
         11    1    5    5    0    0 -0.13095936083E+03  0.34602839092E+01  0.23261673907E+02  0.13305424918E+03  0.00000000000E+00 0. -1.
        -11    1    5    5    0    0 -0.44902805250E+03 -0.73620723037E+01 -0.76735554643E+02  0.45559712180E+03  0.00000000000E+00 0.  1.
          4    1    6    6  503    0  0.46288760283E+02  0.53493378266E+02 -0.63351956515E+02  0.94961367098E+02  0.00000000000E+00 0. -1.
         -4    1    6    6    0  503  0.26015274965E+03  0.12222177781E+03 -0.98288220432E+02  0.30377325491E+03  0.00000000000E+00 0.  1.
<mgrwt>
<rscale>  0 0.13513067E+04</rscale>
<asrwt>0</asrwt>
<pdfrwt beam="1">  1        2 0.15438802E+00 0.13513067E+04</pdfrwt>
<pdfrwt beam="2">  1       -1 0.69985418E-01 0.13513067E+04</pdfrwt>
<totfact> 0.57640503E+01</totfact>
</mgrwt>
</event>
<event>
12    6  0.1462228E-007  0.1740665E+04  0.7818608E-02  0.8738506E-01
         -1   -1    0    0    0  501 -0.00000000000E+00  0.00000000000E+00  0.89174485934E+03  0.89174485934E+03  0.00000000000E+00 0.  1.
          2   -1    0    0  501    0  0.00000000000E+00 -0.00000000000E+00 -0.84943431909E+03  0.84943431909E+03  0.00000000000E+00 0. -1.
         24    2    1    2    0    0 -0.20997052558E+02  0.51104656997E+03 -0.36159304919E+03  0.63141673816E+03  0.79549299907E+02 0.  0.
        254    2    1    2    0    0  0.20997052558E+02 -0.51104656997E+03  0.40390358944E+03  0.11097624403E+04  0.89823443007E+03 0.  0.
         23    2    4    4    0    0 -0.16887311996E+03  0.20792397642E+03  0.74478951321E+02  0.29136654598E+03  0.87159849177E+02 0.  0.
         23    2    4    4    0    0  0.18987017252E+03 -0.71897054639E+03  0.32942463812E+03  0.81839589429E+03  0.91005047033E+02 0.  0.
          2    1    3    3  502    0 -0.15606884350E+02  0.48333625272E+03 -0.36048714365E+03  0.60316539089E+03  0.00000000000E+00 0. -1.
         -1    1    3    3    0  502 -0.53901682080E+01  0.27710317254E+02 -0.11059055358E+01  0.28251347272E+02  0.00000000000E+00 0.  1.
         11    1    5    5    0    0 -0.11990557110E+03  0.12953460982E+03  0.89206871328E+02  0.19777367624E+03  0.00000000000E+00 0.  1.
        -11    1    5    5    0    0 -0.48967548858E+02  0.78389366601E+02 -0.14727920007E+02  0.93592869734E+02  0.00000000000E+00 0. -1.
          1    1    6    6  503    0  0.19309898234E+03 -0.63082171955E+03  0.27491124958E+03  0.71470235342E+03  0.00000000000E+00 0. -1.
         -1    1    6    6    0  503 -0.32288098202E+01 -0.88148826845E+02  0.54513388547E+02  0.10369354087E+03  0.00000000000E+00 0.  1.
<mgrwt>
<rscale>  0 0.17406650E+04</rscale>
<asrwt>0</asrwt>
<pdfrwt beam="1">  1        2 0.13068220E+00 0.17406650E+04</pdfrwt>
<pdfrwt beam="2">  1       -1 0.13719152E+00 0.17406650E+04</pdfrwt>
<totfact> 0.15200146E+01</totfact>
</mgrwt>
</event>
<event>
12    6  0.1462228E-007  0.2393718E+04  0.7818608E-02  0.8441859E-01
          2   -1    0    0  501    0  0.00000000000E+00  0.00000000000E+00  0.18246554727E+04  0.18246554727E+04  0.00000000000E+00 0. -1.
         -1   -1    0    0    0  501 -0.00000000000E+00 -0.00000000000E+00 -0.78506381649E+03  0.78506381649E+03  0.00000000000E+00 0.  1.
         24    2    1    2    0    0 -0.88466601859E+03  0.11043220722E+03 -0.11126959798E+03  0.90215324898E+03  0.81672053842E+02 0.  0.
        254    2    1    2    0    0  0.88466601859E+03 -0.11043220722E+03  0.11508612542E+04  0.17075660403E+04  0.89245219397E+03 0.  0.
         23    2    4    4    0    0  0.37573510001E+03  0.36220824921E+03  0.31162958589E+03  0.61405114047E+03  0.87029438350E+02 0.  0.
         23    2    4    4    0    0  0.50893091858E+03 -0.47264045643E+03  0.83923166835E+03  0.10935148998E+04  0.95212194410E+02 0.  0.
          2    1    3    3  502    0 -0.32279340541E+03  0.72178689078E+02 -0.17504611387E+02  0.33122765155E+03  0.00000000000E+00 0. -1.
         -1    1    3    3    0  502 -0.56187261318E+03  0.38253518144E+02 -0.93764986598E+02  0.57092559743E+03  0.00000000000E+00 0.  1.
         11    1    5    5    0    0  0.22754282102E+03  0.18737922517E+03  0.21733382331E+03  0.36622493113E+03  0.00000000000E+00 0. -1.
        -11    1    5    5    0    0  0.14819227899E+03  0.17482902404E+03  0.94295762575E+02  0.24782620935E+03  0.00000000000E+00 0.  1.
          4    1    6    6  503    0  0.44088750896E+03 -0.36146931231E+03  0.66532161255E+03  0.87618189175E+03  0.00000000000E+00 0. -1.
         -4    1    6    6    0  503  0.68043409618E+02 -0.11117114412E+03  0.17391005579E+03  0.21733300804E+03  0.00000000000E+00 0.  1.
<mgrwt>
<rscale>  0 0.23937176E+04</rscale>
<asrwt>0</asrwt>
<pdfrwt beam="1">  1        2 0.28071623E+00 0.23937176E+04</pdfrwt>
<pdfrwt beam="2">  1       -1 0.12077905E+00 0.23937176E+04</pdfrwt>
<totfact> 0.52174553E+00</totfact>
</mgrwt>
</event>
<event>
12    6  0.1462228E-007  0.1470325E+04  0.7818608E-02  0.8904430E-01
          2   -1    0    0  501    0  0.00000000000E+00  0.00000000000E+00  0.19379916755E+04  0.19379916755E+04  0.00000000000E+00 0. -1.
         -1   -1    0    0    0  501 -0.00000000000E+00 -0.00000000000E+00 -0.27887819314E+03  0.27887819314E+03  0.00000000000E+00 0.  1.
         24    2    1    2    0    0  0.13644710790E+03  0.61586145995E+02  0.12270513802E+04  0.12389757853E+04  0.83637552953E+02 0.  0.
        254    2    1    2    0    0 -0.13644710790E+03 -0.61586145995E+02  0.43206210220E+03  0.97789408339E+03  0.86440066609E+03 0.  0.
         23    2    4    4    0    0 -0.28357140591E+03  0.31150775575E+03  0.85348302454E+02  0.43954300888E+03  0.91999455322E+02 0.  0.
         23    2    4    4    0    0  0.14712429802E+03 -0.37309390175E+03  0.34671379974E+03  0.53835107450E+03  0.93631201531E+02 0.  0.
          2    1    3    3  502    0  0.11108547637E+03  0.82576080229E+02  0.97054528734E+03  0.98036572097E+03  0.00000000000E+00 0. -1.
         -1    1    3    3    0  502  0.25361631532E+02 -0.20989934234E+02  0.25650609284E+03  0.25861006430E+03  0.00000000000E+00 0.  1.
         11    1    5    5    0    0 -0.27742669305E+03  0.27814653673E+03  0.95197374240E+02  0.40421974961E+03  0.00000000000E+00 0.  1.
        -11    1    5    5    0    0 -0.61447128683E+01  0.33361219019E+02 -0.98490717869E+01  0.35323259274E+02  0.00000000000E+00 0. -1.
          2    1    6    6  503    0 -0.24438163030E+01 -0.64727384168E+01 -0.51648507011E+01  0.86339019857E+01  0.00000000000E+00 0. -1.
         -2    1    6    6    0  503  0.14956811432E+03 -0.36662116333E+03  0.35187865044E+03  0.52971717252E+03  0.00000000000E+00 0.  1.
<mgrwt>
<rscale>  0 0.14703246E+04</rscale>
<asrwt>0</asrwt>
<pdfrwt beam="1">  1        2 0.29815256E+00 0.14703246E+04</pdfrwt>
<pdfrwt beam="2">  1       -1 0.42904339E-01 0.14703246E+04</pdfrwt>
<totfact> 0.42716911E+01</totfact>
</mgrwt>
</event>
<event>
12    6  0.1462228E-007  0.1181223E+04  0.7818608E-02  0.9129452E-01
          2   -1    0    0  501    0  0.00000000000E+00  0.00000000000E+00  0.36883017114E+04  0.36883017114E+04  0.00000000000E+00 0. -1.
         -1   -1    0    0    0  501 -0.00000000000E+00 -0.00000000000E+00 -0.94575279804E+02  0.94575279804E+02  0.00000000000E+00 0.  1.
         24    2    1    2    0    0 -0.12476026083E+03  0.11108298578E+02  0.11372574026E+03  0.18718520193E+03  0.80101428474E+02 0.  0.
        254    2    1    2    0    0  0.12476026083E+03 -0.11108298578E+02  0.34800006913E+04  0.35956917892E+04  0.89605028584E+03 0.  0.
         23    2    4    4    0    0  0.24017213980E+03 -0.39601580347E+02  0.34331554722E+04  0.34430163682E+04  0.92489316522E+02 0.  0.
         23    2    4    4    0    0 -0.11541187897E+03  0.28493281769E+02  0.46845219093E+02  0.15267542100E+03  0.83567581716E+02 0.  0.
          2    1    3    3  502    0 -0.68729287688E+02 -0.21817021341E+02  0.95543743442E+02  0.11970089522E+03  0.00000000000E+00 0. -1.
         -1    1    3    3    0  502 -0.56030973145E+02  0.32925319919E+02  0.18181996816E+02  0.67484306706E+02  0.00000000000E+00 0.  1.
         11    1    5    5    0    0  0.43538455989E+02 -0.41825731619E+02  0.10652747314E+04  0.10669841809E+04  0.00000000000E+00 0. -1.
        -11    1    5    5    0    0  0.19663368381E+03  0.22241512721E+01  0.23678807408E+04  0.23760321873E+04  0.00000000000E+00 0.  1.
          3    1    6    6  503    0 -0.66342474629E+02 -0.16258321620E+02  0.52316428492E+02  0.86038745063E+02  0.00000000000E+00 0. -1.
         -3    1    6    6    0  503 -0.49069404339E+02  0.44751603389E+02 -0.54712093994E+01  0.66636675941E+02  0.00000000000E+00 0.  1.
<mgrwt>
<rscale>  0 0.11812234E+04</rscale>
<asrwt>0</asrwt>
<pdfrwt beam="1">  1        2 0.56743092E+00 0.11812234E+04</pdfrwt>
<pdfrwt beam="2">  1       -1 0.14550046E-01 0.11812234E+04</pdfrwt>
<totfact> 0.23917908E+01</totfact>
</mgrwt>
</event>
<event>
12    6  0.1462228E-007  0.3092599E+04  0.7818608E-02  0.8217772E-01
          2   -1    0    0  501    0  0.00000000000E+00  0.00000000000E+00  0.26907439405E+04  0.26907439405E+04  0.00000000000E+00 0. -1.
         -1   -1    0    0    0  501 -0.00000000000E+00 -0.00000000000E+00 -0.88861735059E+03  0.88861735059E+03  0.00000000000E+00 0.  1.
         24    2    1    2    0    0  0.25356188458E+03  0.55021346153E+03 -0.65336554341E+03  0.89467991001E+03  0.80852492185E+02 0.  0.
        254    2    1    2    0    0 -0.25356188458E+03 -0.55021346153E+03  0.24554921334E+04  0.26846813811E+04  0.90057982353E+03 0.  0.
         23    2    4    4    0    0 -0.51883880763E+03 -0.40861743022E+03  0.21326354492E+04  0.22346425295E+04  0.96598981031E+02 0.  0.
         23    2    4    4    0    0  0.26527692305E+03 -0.14159603131E+03  0.32285668417E+03  0.45003885157E+03  0.88753858628E+02 0.  0.
          2    1    3    3  502    0  0.90652580224E+02  0.28789870450E+03 -0.34246988793E+03  0.45649663580E+03  0.00000000000E+00 0. -1.
         -1    1    3    3    0  502  0.16290930435E+03  0.26231475703E+03 -0.31089565548E+03  0.43818327421E+03  0.00000000000E+00 0.  1.
         11    1    5    5    0    0 -0.46267724793E+03 -0.39365172452E+03  0.18943012181E+04  0.19893237597E+04  0.00000000000E+00 0. -1.
        -11    1    5    5    0    0 -0.56161559698E+02 -0.14965705696E+02  0.23833423108E+03  0.24531876984E+03  0.00000000000E+00 0.  1.
          4    1    6    6  503    0  0.13480313509E+03 -0.27943253887E+02  0.11344140288E+03  0.17838627345E+03  0.00000000000E+00 0. -1.
         -4    1    6    6    0  503  0.13047378796E+03 -0.11365277742E+03  0.20941528129E+03  0.27165257812E+03  0.00000000000E+00 0.  1.
<mgrwt>
<rscale>  0 0.30925987E+04</rscale>
<asrwt>0</asrwt>
<pdfrwt beam="1">  1        2 0.41396060E+00 0.30925987E+04</pdfrwt>
<pdfrwt beam="2">  1       -1 0.13671036E+00 0.30925987E+04</pdfrwt>
<totfact> 0.11573458E+00</totfact>
</mgrwt>
</event>
<event>
12    6  0.1462228E-007  0.1747439E+04  0.7818608E-02  0.8734761E-01
         -1   -1    0    0    0  501 -0.00000000000E+00  0.00000000000E+00  0.32416082741E+04  0.32416082741E+04  0.00000000000E+00 0.  1.
          2   -1    0    0  501    0  0.00000000000E+00 -0.00000000000E+00 -0.23549593257E+03  0.23549593257E+03  0.00000000000E+00 0. -1.
         24    2    1    2    0    0 -0.30130208254E+03  0.58087663337E+03  0.12501766480E+04  0.14134820286E+04  0.82396516068E+02 0.  0.
        254    2    1    2    0    0  0.30130208254E+03 -0.58087663337E+03  0.17559356935E+04  0.20636221780E+04  0.86430649993E+03 0.  0.
         23    2    4    4    0    0  0.27520397454E+03 -0.12346855444E+03  0.82153270382E+02  0.32575496745E+03  0.91571979577E+02 0.  0.
         23    2    4    4    0    0  0.26098107999E+02 -0.45740807894E+03  0.16737824231E+04  0.17378672106E+04  0.93442922506E+02 0.  0.
          4    1    3    3  502    0 -0.27375410501E+03  0.50280841388E+03  0.11398906938E+04  0.12755815948E+04  0.00000000000E+00 0. -1.
         -3    1    3    3    0  502 -0.27547977528E+02  0.78068219499E+02  0.11028595414E+03  0.13790043380E+03  0.00000000000E+00 0.  1.
         11    1    5    5    0    0  0.26771129211E+03 -0.11973430187E+03  0.96846256472E+02  0.30884435621E+03  0.00000000000E+00 0.  1.
        -11    1    5    5    0    0  0.74926824276E+01 -0.37342525716E+01 -0.14692986091E+02  0.16910611239E+02  0.00000000000E+00 0. -1.
          2    1    6    6  503    0 -0.23663116351E+02 -0.32379826820E+03  0.11317309956E+04  0.11773785746E+04  0.00000000000E+00 0.  1.
         -2    1    6    6    0  503  0.49761224350E+02 -0.13360981074E+03  0.54205142756E+03  0.56048863600E+03  0.00000000000E+00 0. -1.
<mgrwt>
<rscale>  0 0.17474388E+04</rscale>
<asrwt>0</asrwt>
<pdfrwt beam="1">  1        2 0.36230146E-01 0.17474388E+04</pdfrwt>
<pdfrwt beam="2">  1       -1 0.49870893E+00 0.17474388E+04</pdfrwt>
<totfact> 0.23668400E-01</totfact>
</mgrwt>
</event>
<event>
12    6  0.1462228E-007  0.2861088E+04  0.7818608E-02  0.8284550E-01
          2   -1    0    0  501    0  0.00000000000E+00  0.00000000000E+00  0.14590274412E+04  0.14590274412E+04  0.00000000000E+00 0. -1.
         -1   -1    0    0    0  501 -0.00000000000E+00 -0.00000000000E+00 -0.14026165246E+04  0.14026165246E+04  0.00000000000E+00 0.  1.
         24    2    1    2    0    0  0.70587576343E+03  0.87213076856E+03 -0.59699685079E+03  0.12734875010E+04  0.80576079331E+02 0.  0.
        254    2    1    2    0    0 -0.70587576343E+03 -0.87213076856E+03  0.65340776736E+03  0.15881564648E+04  0.91456359829E+03 0.  0.
         23    2    4    4    0    0 -0.21751209149E+03 -0.86363143301E+03  0.20390867866E+03  0.91822666107E+03  0.91600708679E+02 0.  0.
         23    2    4    4    0    0 -0.48836367194E+03 -0.84993355444E+01  0.44949908870E+03  0.66992980371E+03  0.90472075150E+02 0.  0.
          2    1    3    3  502    0  0.10996419400E+03  0.96004480310E+02 -0.89047720258E+02  0.17099263342E+03  0.00000000000E+00 0. -1.
         -3    1    3    3    0  502  0.59591156943E+03  0.77612628825E+03 -0.50794913053E+03  0.11024948676E+04  0.00000000000E+00 0.  1.
         11    1    5    5    0    0 -0.19780085505E+03 -0.83247622508E+03  0.20952881025E+03  0.88093368985E+03  0.00000000000E+00 0.  1.
        -11    1    5    5    0    0 -0.19711236442E+02 -0.31155207932E+02 -0.56201315908E+01  0.37292971220E+02  0.00000000000E+00 0. -1.
          1    1    6    6  503    0 -0.94242231395E+02  0.34328118193E+02  0.91937387366E+02  0.13606065218E+03  0.00000000000E+00 0. -1.
         -1    1    6    6    0  503 -0.39412144055E+03 -0.42827453738E+02  0.35756170133E+03  0.53386915153E+03  0.00000000000E+00 0.  1.
<mgrwt>
<rscale>  0 0.28610879E+04</rscale>
<asrwt>0</asrwt>
<pdfrwt beam="1">  1        2 0.22446576E+00 0.28610879E+04</pdfrwt>
<pdfrwt beam="2">  1       -1 0.21578716E+00 0.28610879E+04</pdfrwt>
<totfact> 0.15510328E+00</totfact>
</mgrwt>
</event>
<event>
12    6  0.1462228E-007  0.2833327E+04  0.7818608E-02  0.8292996E-01
         -1   -1    0    0    0  501 -0.00000000000E+00  0.00000000000E+00  0.13232588958E+04  0.13232588958E+04  0.00000000000E+00 0.  1.
          2   -1    0    0  501    0  0.00000000000E+00 -0.00000000000E+00 -0.15166610488E+04  0.15166610488E+04  0.00000000000E+00 0. -1.
         24    2    1    2    0    0  0.10075951916E+04  0.75379403621E+03  0.80730081842E+02  0.12633967058E+04  0.78742435419E+02 0.  0.
        254    2    1    2    0    0 -0.10075951916E+04 -0.75379403621E+03 -0.27413223480E+03  0.15765232388E+04  0.90929836761E+03 0.  0.
         23    2    4    4    0    0  0.15782775556E+03 -0.12035317557E+03 -0.81945913791E+02  0.23310328108E+03  0.90705675486E+02 0.  0.
         23    2    4    4    0    0 -0.11654229471E+04 -0.63344086063E+03 -0.19218632101E+03  0.13434199578E+04  0.91562171920E+02 0.  0.
          2    1    3    3  502    0  0.27139684037E+03  0.22362406615E+03 -0.87165877047E+01  0.35176689273E+03  0.00000000000E+00 0. -1.
         -1    1    3    3    0  502  0.73619835118E+03  0.53016997006E+03  0.89446669547E+02  0.91162981310E+03  0.00000000000E+00 0.  1.
         11    1    5    5    0    0  0.63850370835E+02 -0.77709919027E+01  0.15666382230E+01  0.64340597808E+02  0.00000000000E+00 0. -1.
        -11    1    5    5    0    0  0.93977384725E+02 -0.11258218367E+03 -0.83512552014E+02  0.16876268327E+03  0.00000000000E+00 0.  1.
          4    1    6    6  503    0 -0.51407308733E+03 -0.23958188778E+03 -0.53038771245E+02  0.56963473500E+03  0.00000000000E+00 0.  1.
         -4    1    6    6    0  503 -0.65134985979E+03 -0.39385897285E+03 -0.13914754977E+03  0.77378522275E+03  0.00000000000E+00 0. -1.
<mgrwt>
<rscale>  0 0.28333268E+04</rscale>
<asrwt>0</asrwt>
<pdfrwt beam="1">  1        2 0.23333247E+00 0.28333268E+04</pdfrwt>
<pdfrwt beam="2">  1       -1 0.20357829E+00 0.28333268E+04</pdfrwt>
<totfact> 0.17456043E+00</totfact>
</mgrwt>
</event>
<event>
12    6  0.1462228E-007  0.3597390E+04  0.7818608E-02  0.8091090E-01
          2   -1    0    0  501    0  0.00000000000E+00  0.00000000000E+00  0.14969215283E+04  0.14969215283E+04  0.00000000000E+00 0. -1.
         -3   -1    0    0    0  501 -0.00000000000E+00 -0.00000000000E+00 -0.21613048918E+04  0.21613048918E+04  0.00000000000E+00 0.  1.
         24    2    1    2    0    0 -0.28755790091E+03  0.13603817823E+04  0.65703014881E+03  0.15399825497E+04  0.80805301740E+02 0.  0.
        254    2    1    2    0    0  0.28755790091E+03 -0.13603817823E+04 -0.13214135123E+04  0.21182438704E+04  0.89860741367E+03 0.  0.
         23    2    4    4    0    0  0.54004003992E+03 -0.56369009108E+03 -0.83738917467E+03  0.11483419868E+04  0.89882841772E+02 0.  0.
         23    2    4    4    0    0 -0.25248213901E+03 -0.79669169127E+03 -0.48402433767E+03  0.96990188365E+03  0.89248098042E+02 0.  0.
          4    1    3    3  502    0 -0.28234102777E+03  0.12991126594E+04  0.61073744812E+03  0.14630141449E+04  0.00000000000E+00 0. -1.
         -3    1    3    3    0  502 -0.52168731413E+01  0.61269122973E+02  0.46292700695E+02  0.76968404770E+02  0.00000000000E+00 0.  1.
         11    1    5    5    0    0  0.17493994474E+03 -0.24424332203E+03 -0.30658666774E+03  0.42924837735E+03  0.00000000000E+00 0.  1.
        -11    1    5    5    0    0  0.36510009519E+03 -0.31944676905E+03 -0.53080250693E+03  0.71909360943E+03  0.00000000000E+00 0. -1.
          3    1    6    6  503    0 -0.20317114498E+03 -0.72871112178E+03 -0.43437529151E+03  0.87234185217E+03  0.00000000000E+00 0. -1.
         -3    1    6    6    0  503 -0.49310994028E+02 -0.67980569481E+02 -0.49649046160E+02  0.97560031486E+02  0.00000000000E+00 0.  1.
<mgrwt>
<rscale>  0 0.35973901E+04</rscale>
<asrwt>0</asrwt>
<pdfrwt beam="1">  1        2 0.23029562E+00 0.35973901E+04</pdfrwt>
<pdfrwt beam="2">  1       -3 0.33250845E+00 0.35973901E+04</pdfrwt>
<totfact> 0.16291030E-01</totfact>
</mgrwt>
</event>
<event>
12    6  0.1462228E-007  0.2173184E+04  0.7818608E-02  0.8529673E-01
         -1   -1    0    0    0  501 -0.00000000000E+00  0.00000000000E+00  0.11622310137E+04  0.11622310137E+04  0.00000000000E+00 0.  1.
          2   -1    0    0  501    0  0.00000000000E+00 -0.00000000000E+00 -0.10158760956E+04  0.10158760956E+04  0.00000000000E+00 0. -1.
         24    2    1    2    0    0  0.37866921763E+03  0.49366073787E+02  0.86738004981E+03  0.95135503291E+03  0.83071428362E+02 0.  0.
        254    2    1    2    0    0 -0.37866921763E+03 -0.49366073787E+02 -0.72102513168E+03  0.12267520765E+04  0.91608734898E+03 0.  0.
         23    2    4    4    0    0 -0.28940347199E+03  0.18422369836E+03  0.95793183722E+02  0.36770744698E+03  0.91321913456E+02 0.  0.
         23    2    4    4    0    0 -0.89265745644E+02 -0.23358977214E+03 -0.81681831540E+03  0.85904462949E+03  0.90735660432E+02 0.  0.
          4    1    3    3  502    0  0.28066974809E+02  0.59937122426E+01  0.13763666861E+03  0.14059705619E+03  0.00000000000E+00 0. -1.
         -3    1    3    3    0  502  0.35060224283E+03  0.43372361545E+02  0.72974338119E+03  0.81075797672E+03  0.00000000000E+00 0.  1.
         11    1    5    5    0    0 -0.13375786997E+03  0.35648939757E+02  0.53561246004E+02  0.14842783350E+03  0.00000000000E+00 0. -1.
        -11    1    5    5    0    0 -0.15564560202E+03  0.14857475860E+03  0.42231937719E+02  0.21927961347E+03  0.00000000000E+00 0.  1.
          1    1    6    6  503    0 -0.14338399604E+02 -0.10091684002E+03 -0.45817845981E+03  0.46937969634E+03  0.00000000000E+00 0. -1.
         -1    1    6    6    0  503 -0.74927346040E+02 -0.13267293213E+03 -0.35863985559E+03  0.38966493315E+03  0.00000000000E+00 0.  1.
<mgrwt>
<rscale>  0 0.21731845E+04</rscale>
<asrwt>0</asrwt>
<pdfrwt beam="1">  1        2 0.15628863E+00 0.21731845E+04</pdfrwt>
<pdfrwt beam="2">  1       -1 0.17880477E+00 0.21731845E+04</pdfrwt>
<totfact> 0.54565925E+00</totfact>
</mgrwt>
</event>
<event>
12    6  0.1462228E-007  0.1364359E+04  0.7818608E-02  0.8980029E-01
          2   -1    0    0  501    0  0.00000000000E+00  0.00000000000E+00  0.17479798168E+04  0.17479798168E+04  0.00000000000E+00 0. -1.
         -1   -1    0    0    0  501 -0.00000000000E+00 -0.00000000000E+00 -0.26623229656E+03  0.26623229656E+03  0.00000000000E+00 0.  1.
         24    2    1    2    0    0  0.46343250420E+02 -0.37491115161E+03  0.49719085179E+03  0.62972560668E+03  0.81544638947E+02 0.  0.
        254    2    1    2    0    0 -0.46343250420E+02  0.37491115161E+03  0.98455666844E+03  0.13844865067E+04  0.89707579686E+03 0.  0.
         23    2    4    4    0    0  0.32771506741E+03  0.42442382572E+02  0.87720041768E+02  0.35338184785E+03  0.89361084472E+02 0.  0.
         23    2    4    4    0    0 -0.37405831783E+03  0.33246876903E+03  0.89683662667E+03  0.10311046588E+04  0.91683013537E+02 0.  0.
          2    1    3    3  502    0  0.64469955113E+02 -0.24415636383E+03  0.29582793320E+03  0.38895098814E+03  0.00000000000E+00 0. -1.
         -1    1    3    3    0  502 -0.18126704692E+02 -0.13075478778E+03  0.20136291860E+03  0.24077461854E+03  0.00000000000E+00 0.  1.
         11    1    5    5    0    0  0.42256714476E+02  0.32638306624E+02 -0.35920166530E+01  0.53514405175E+02  0.00000000000E+00 0. -1.
        -11    1    5    5    0    0  0.28545835293E+03  0.98040759474E+01  0.91312058421E+02  0.29986744268E+03  0.00000000000E+00 0.  1.
          1    1    6    6  503    0 -0.69684172937E+02  0.91635082666E+02  0.27440416573E+03  0.29757439155E+03  0.00000000000E+00 0. -1.
         -1    1    6    6    0  503 -0.30437414489E+03  0.24083368637E+03  0.62243246094E+03  0.73353026727E+03  0.00000000000E+00 0.  1.
<mgrwt>
<rscale>  0 0.13643587E+04</rscale>
<asrwt>0</asrwt>
<pdfrwt beam="1">  1        2 0.26891996E+00 0.13643587E+04</pdfrwt>
<pdfrwt beam="2">  1       -1 0.40958816E-01 0.13643587E+04</pdfrwt>
<totfact> 0.59786452E+01</totfact>
</mgrwt>
</event>
<event>
12    6  0.1462228E-007  0.2329881E+04  0.7818608E-02  0.8466232E-01
         -1   -1    0    0    0  501 -0.00000000000E+00  0.00000000000E+00  0.49731235087E+03  0.49731235087E+03  0.00000000000E+00 0.  1.
          2   -1    0    0  501    0  0.00000000000E+00 -0.00000000000E+00 -0.27288411470E+04  0.27288411470E+04  0.00000000000E+00 0. -1.
         24    2    1    2    0    0 -0.16926637679E+03  0.69437713341E+03 -0.19132968925E+04  0.20440010717E+04  0.80154054098E+02 0.  0.
        254    2    1    2    0    0  0.16926637679E+03 -0.69437713341E+03 -0.31823190358E+03  0.11821524262E+04  0.88622914898E+03 0.  0.
         23    2    4    4    0    0  0.45468734879E+03 -0.57157465039E+03 -0.41423121146E+03  0.84457285927E+03  0.90981602309E+02 0.  0.
         23    2    4    4    0    0 -0.28542097200E+03 -0.12280248302E+03  0.95999307877E+02  0.33757956688E+03  0.90545655709E+02 0.  0.
          2    1    3    3  502    0 -0.17030808860E+02  0.15733403860E+03 -0.50066506143E+03  0.52508051944E+03  0.00000000000E+00 0. -1.
         -1    1    3    3    0  502 -0.15223556793E+03  0.53704309481E+03 -0.14126318311E+04  0.15189205522E+04  0.00000000000E+00 0.  1.
         11    1    5    5    0    0  0.19829726684E+03 -0.31749648376E+03 -0.19219986641E+03  0.42079283725E+03  0.00000000000E+00 0.  1.
        -11    1    5    5    0    0  0.25639008195E+03 -0.25407816663E+03 -0.22203134504E+03  0.42378002202E+03  0.00000000000E+00 0. -1.
          4    1    6    6  503    0 -0.26291943580E+03 -0.13733658855E+03  0.84502302504E+02  0.30842925835E+03  0.00000000000E+00 0.  1.
         -4    1    6    6    0  503 -0.22501536202E+02  0.14534105531E+02  0.11497005373E+02  0.29150308533E+02  0.00000000000E+00 0. -1.
<mgrwt>
<rscale>  0 0.23298810E+04</rscale>
<asrwt>0</asrwt>
<pdfrwt beam="1">  1        2 0.41982172E+00 0.23298810E+04</pdfrwt>
<pdfrwt beam="2">  1       -1 0.76509592E-01 0.23298810E+04</pdfrwt>
<totfact> 0.45032767E+00</totfact>
</mgrwt>
</event>
<event>
12    6  0.1462228E-007  0.1367381E+04  0.7818608E-02  0.8977774E-01
          2   -1    0    0  501    0  0.00000000000E+00  0.00000000000E+00  0.31673384396E+04  0.31673384396E+04  0.00000000000E+00 0. -1.
         -1   -1    0    0    0  501 -0.00000000000E+00 -0.00000000000E+00 -0.14757903478E+03  0.14757903478E+03  0.00000000000E+00 0.  1.
         24    2    1    2    0    0  0.31141731685E+03  0.28682978634E+02  0.13702017602E+04  0.14074978130E+04  0.76116828162E+02 0.  0.
        254    2    1    2    0    0 -0.31141731685E+03 -0.28682978634E+02  0.16495576446E+04  0.19074196614E+04  0.90521040820E+03 0.  0.
         23    2    4    4    0    0 -0.46024975290E+03  0.29292999357E+03  0.12416804747E+04  0.13593272992E+04  0.91446644688E+02 0.  0.
         23    2    4    4    0    0  0.14883243605E+03 -0.32161297221E+03  0.40787716987E+03  0.54809236215E+03  0.91953541701E+02 0.  0.
          4    1    3    3  502    0  0.27454116071E+03  0.28114571523E+01  0.12285916998E+04  0.12588956740E+04  0.00000000000E+00 0. -1.
         -3    1    3    3    0  502  0.36876156143E+02  0.25871521482E+02  0.14161006038E+03  0.14860213901E+03  0.00000000000E+00 0.  1.
         11    1    5    5    0    0 -0.35613286626E+03  0.26002657597E+03  0.93438446265E+03  0.10332079958E+04  0.00000000000E+00 0. -1.
        -11    1    5    5    0    0 -0.10411688665E+03  0.32903417601E+02  0.30729601209E+03  0.32611930336E+03  0.00000000000E+00 0.  1.
          1    1    6    6  503    0  0.15862787397E+03 -0.30976395928E+03  0.40179389205E+03  0.53155888155E+03  0.00000000000E+00 0. -1.
         -1    1    6    6    0  503 -0.97954379238E+01 -0.11849012932E+02  0.60832778178E+01  0.16533480595E+02  0.00000000000E+00 0.  1.
<mgrwt>
<rscale>  0 0.13673811E+04</rscale>
<asrwt>0</asrwt>
<pdfrwt beam="1">  1        2 0.48728279E+00 0.13673811E+04</pdfrwt>
<pdfrwt beam="2">  1       -1 0.22704469E-01 0.13673811E+04</pdfrwt>
<totfact> 0.25295484E+01</totfact>
</mgrwt>
</event>
<event>
12    6  0.1462228E-007  0.1666474E+04  0.7818608E-02  0.8780720E-01
         -1   -1    0    0    0  501 -0.00000000000E+00  0.00000000000E+00  0.39993674878E+03  0.39993674878E+03  0.00000000000E+00 0.  1.
          2   -1    0    0  501    0  0.00000000000E+00 -0.00000000000E+00 -0.17359850016E+04  0.17359850016E+04  0.00000000000E+00 0. -1.
         24    2    1    2    0    0  0.36096367172E+03 -0.68227877521E+02 -0.10688224176E+04  0.11331528962E+04  0.81879852679E+02 0.  0.
        254    2    1    2    0    0 -0.36096367172E+03  0.68227877521E+02 -0.26722583520E+03  0.10027688542E+04  0.89397198630E+03 0.  0.
         23    2    4    4    0    0 -0.20675400826E+03  0.33144625598E+03  0.19138440406E+03  0.44433652953E+03  0.90571081591E+02 0.  0.
         23    2    4    4    0    0 -0.15420966346E+03 -0.26321837846E+03 -0.45861023926E+03  0.55843232462E+03  0.91971596497E+02 0.  0.
          4    1    3    3  502    0  0.34322685959E+03 -0.44463481136E+02 -0.10006024571E+04  0.10587667143E+04  0.00000000000E+00 0. -1.
         -3    1    3    3    0  502  0.17736812128E+02 -0.23764396385E+02 -0.68219960543E+02  0.74386181892E+02  0.00000000000E+00 0.  1.
         11    1    5    5    0    0 -0.17625915250E+03  0.32360239927E+03  0.16728577278E+03  0.40468547222E+03  0.00000000000E+00 0. -1.
        -11    1    5    5    0    0 -0.30494855760E+02  0.78438567110E+01  0.24098631279E+02  0.39651057306E+02  0.00000000000E+00 0.  1.
          4    1    6    6  503    0 -0.16050357704E+03 -0.23291546409E+03 -0.43746918526E+03  0.52095134101E+03  0.00000000000E+00 0. -1.
         -4    1    6    6    0  503  0.62939135857E+01 -0.30302914373E+02 -0.21141054007E+02  0.37480983609E+02  0.00000000000E+00 0.  1.
<mgrwt>
<rscale>  0 0.16664744E+04</rscale>
<asrwt>0</asrwt>
<pdfrwt beam="1">  1        2 0.26707462E+00 0.16664744E+04</pdfrwt>
<pdfrwt beam="2">  1       -1 0.61528730E-01 0.16664744E+04</pdfrwt>
<totfact> 0.27266652E+01</totfact>
</mgrwt>
</event>
<event>
12    6  0.1462228E-007  0.1437165E+04  0.7818608E-02  0.8927348E-01
         -1   -1    0    0    0  501 -0.00000000000E+00  0.00000000000E+00  0.11000140089E+04  0.11000140089E+04  0.00000000000E+00 0.  1.
          2   -1    0    0  501    0  0.00000000000E+00 -0.00000000000E+00 -0.46941281458E+03  0.46941281458E+03  0.00000000000E+00 0. -1.
         24    2    1    2    0    0 -0.34616100690E+03  0.83754979755E+02 -0.79502407058E+02  0.37343601948E+03  0.79318904352E+02 0.  0.
        254    2    1    2    0    0  0.34616100690E+03 -0.83754979755E+02  0.71010360138E+03  0.11959908040E+04  0.89403833208E+03 0.  0.
         23    2    4    4    0    0  0.51791039939E+03  0.18195889475E+03  0.66084431846E+03  0.86415789826E+03  0.93345801796E+02 0.  0.
         23    2    4    4    0    0 -0.17174939249E+03 -0.26571387451E+03  0.49259282924E+02  0.33183290575E+03  0.87091236393E+02 0.  0.
          2    1    3    3  502    0 -0.34755403792E+03  0.84882936311E+02 -0.70999553896E+02  0.36474629375E+03  0.00000000000E+00 0. -1.
         -1    1    3    3    0  502  0.13930310196E+01 -0.11279565563E+01 -0.85028531624E+01  0.86897257330E+01  0.00000000000E+00 0.  1.
         11    1    5    5    0    0  0.35019310035E+03  0.11783353722E+03  0.37389050457E+03  0.52565583743E+03  0.00000000000E+00 0.  1.
        -11    1    5    5    0    0  0.16771729904E+03  0.64125357537E+02  0.28695381389E+03  0.33850206082E+03  0.00000000000E+00 0. -1.
          3    1    6    6  503    0 -0.10789169345E+03 -0.13261098348E+03 -0.13348450353E+02  0.17147732090E+03  0.00000000000E+00 0. -1.
         -3    1    6    6    0  503 -0.63857699033E+02 -0.13310289102E+03  0.62607733277E+02  0.16035558485E+03  0.00000000000E+00 0.  1.
<mgrwt>
<rscale>  0 0.14371648E+04</rscale>
<asrwt>0</asrwt>
<pdfrwt beam="1">  1        2 0.72217356E-01 0.14371648E+04</pdfrwt>
<pdfrwt beam="2">  1       -1 0.16923292E+00 0.14371648E+04</pdfrwt>
<totfact> 0.18332639E+01</totfact>
</mgrwt>
</event>
<event>
12    6  0.1462228E-007  0.2139357E+04  0.7818608E-02  0.8544102E-01
         -1   -1    0    0    0  501 -0.00000000000E+00  0.00000000000E+00  0.30370520181E+03  0.30370520181E+03  0.00000000000E+00 0.  1.
          2   -1    0    0  501    0  0.00000000000E+00 -0.00000000000E+00 -0.37675104910E+04  0.37675104910E+04  0.00000000000E+00 0. -1.
         24    2    1    2    0    0  0.10186000256E+03 -0.84087803920E+03 -0.96422222378E+03  0.12858794442E+04  0.79436208051E+02 0.  0.
        254    2    1    2    0    0 -0.10186000256E+03  0.84087803920E+03 -0.24995830654E+04  0.27853362487E+04  0.89035452507E+03 0.  0.
         23    2    4    4    0    0 -0.41783105528E+03  0.24880538367E+03 -0.65778000514E+03  0.82292194268E+03  0.89660910603E+02 0.  0.
         23    2    4    4    0    0  0.31597105272E+03  0.59207265553E+03 -0.18418030603E+04  0.19624143060E+04  0.91889389443E+02 0.  0.
          4    1    3    3  502    0 -0.56773552091E+01 -0.23041200796E+03 -0.24414721811E+03  0.33575257242E+03  0.00000000000E+00 0. -1.
         -3    1    3    3    0  502  0.10753735777E+03 -0.61046603124E+03 -0.72007500567E+03  0.95012687174E+03  0.00000000000E+00 0.  1.
         11    1    5    5    0    0 -0.36241825881E+03  0.18104735887E+03 -0.51214761343E+03  0.65300866641E+03  0.00000000000E+00 0.  1.
        -11    1    5    5    0    0 -0.55412796474E+02  0.67758024798E+02 -0.14563239171E+03  0.16991327627E+03  0.00000000000E+00 0. -1.
          3    1    6    6  503    0  0.21674234141E+02  0.63225801680E+02 -0.12025834382E+03  0.13758395140E+03  0.00000000000E+00 0. -1.
         -3    1    6    6    0  503  0.29429681858E+03  0.52884685385E+03 -0.17215447165E+04  0.18248303546E+04  0.00000000000E+00 0.  1.
<mgrwt>
<rscale>  0 0.21393574E+04</rscale>
<asrwt>0</asrwt>
<pdfrwt beam="1">  1        2 0.57961698E+00 0.21393574E+04</pdfrwt>
<pdfrwt beam="2">  1       -1 0.46723878E-01 0.21393574E+04</pdfrwt>
<totfact> 0.24947333E+00</totfact>
</mgrwt>
</event>
<event>
12    6  0.1462228E-007  0.2925551E+04  0.7818608E-02  0.8265316E-01
         -1   -1    0    0    0  501 -0.00000000000E+00  0.00000000000E+00  0.48015322868E+03  0.48015322868E+03  0.00000000000E+00 0.  1.
          2   -1    0    0  501    0  0.00000000000E+00 -0.00000000000E+00 -0.44563106307E+04  0.44563106307E+04  0.00000000000E+00 0. -1.
         24    2    1    2    0    0  0.11384421558E+04  0.67167400474E+03 -0.18263040175E+04  0.22558020140E+04  0.77845047238E+02 0.  0.
        254    2    1    2    0    0 -0.11384421558E+04 -0.67167400474E+03 -0.21498533845E+04  0.26806618454E+04  0.90381516005E+03 0.  0.
         23    2    4    4    0    0 -0.44599808094E+03  0.18885070294E+03 -0.65544735370E+03  0.82013516581E+03  0.91823638120E+02 0.  0.
         23    2    4    4    0    0 -0.69244407486E+03 -0.86052470769E+03 -0.14944060308E+04  0.18605266796E+04  0.91261005175E+02 0.  0.
          4    1    3    3  502    0  0.83282449870E+03  0.48364603143E+03 -0.12712626798E+04  0.15948727004E+04  0.00000000000E+00 0. -1.
         -3    1    3    3    0  502  0.30561765709E+03  0.18802797331E+03 -0.55504133772E+03  0.66092931366E+03  0.00000000000E+00 0.  1.
         11    1    5    5    0    0 -0.39153754581E+03  0.19470764810E+03 -0.56585738340E+03  0.71512746861E+03  0.00000000000E+00 0.  1.
        -11    1    5    5    0    0 -0.54460535125E+02 -0.58569451545E+01 -0.89589970300E+02  0.10500769720E+03  0.00000000000E+00 0. -1.
          4    1    6    6  503    0 -0.19957933290E+03 -0.20033276347E+03 -0.42703681066E+03  0.51217727780E+03  0.00000000000E+00 0. -1.
         -4    1    6    6    0  503 -0.49286474196E+03 -0.66019194422E+03 -0.10673692201E+04  0.13483494017E+04  0.00000000000E+00 0.  1.
<mgrwt>
<rscale>  0 0.29255508E+04</rscale>
<asrwt>0</asrwt>
<pdfrwt beam="1">  1        2 0.68558625E+00 0.29255508E+04</pdfrwt>
<pdfrwt beam="2">  1       -1 0.73869728E-01 0.29255508E+04</pdfrwt>
<totfact> 0.24509859E-01</totfact>
</mgrwt>
</event>
<event>
12    6  0.1462228E-007  0.1101710E+04  0.7818608E-02  0.9203527E-01
          2   -1    0    0  501    0  0.00000000000E+00  0.00000000000E+00  0.36432967127E+03  0.36432967127E+03  0.00000000000E+00 0. -1.
         -1   -1    0    0    0  501 -0.00000000000E+00 -0.00000000000E+00 -0.83287489324E+03  0.83287489324E+03  0.00000000000E+00 0.  1.
         24    2    1    2    0    0 -0.81960928876E+02  0.25108064358E+02  0.65805838741E+02  0.13479622094E+03  0.80570490931E+02 0.  0.
        254    2    1    2    0    0  0.81960928876E+02 -0.25108064358E+02 -0.53435106071E+03  0.10624083436E+04  0.91423871262E+03 0.  0.
         23    2    4    4    0    0 -0.81150758877E+02  0.41869248531E+03 -0.28260906358E+03  0.51906362892E+03  0.87580392351E+02 0.  0.
         23    2    4    4    0    0  0.16311168775E+03 -0.44380054967E+03 -0.25174199713E+03  0.54334471466E+03  0.91022498642E+02 0.  0.
          2    1    3    3  502    0 -0.91599684327E+02  0.34139396769E+02  0.70772594874E+02  0.12068455065E+03  0.00000000000E+00 0. -1.
         -1    1    3    3    0  502  0.96387554516E+01 -0.90313324119E+01 -0.49667561334E+01  0.14111670287E+02  0.00000000000E+00 0.  1.
         11    1    5    5    0    0 -0.45442614918E+02  0.37739023955E+03 -0.25634423742E+03  0.45847659942E+03  0.00000000000E+00 0.  1.
        -11    1    5    5    0    0 -0.35708143960E+02  0.41302245766E+02 -0.26264826157E+02  0.60587029498E+02  0.00000000000E+00 0. -1.
          4    1    6    6  503    0  0.10303072135E+03 -0.22199761418E+03 -0.17575664199E+03  0.30131157868E+03  0.00000000000E+00 0. -1.
         -4    1    6    6    0  503  0.60080966408E+02 -0.22180293549E+03 -0.75985355142E+02  0.24203313598E+03  0.00000000000E+00 0.  1.
<mgrwt>
<rscale>  0 0.11017096E+04</rscale>
<asrwt>0</asrwt>
<pdfrwt beam="1">  1        2 0.56050719E-01 0.11017096E+04</pdfrwt>
<pdfrwt beam="2">  1       -1 0.12813460E+00 0.11017096E+04</pdfrwt>
<totfact> 0.52836235E+01</totfact>
</mgrwt>
</event>
<event>
12    6  0.1462228E-007  0.2688741E+04  0.7818608E-02  0.8338667E-01
          2   -1    0    0  501    0  0.00000000000E+00  0.00000000000E+00  0.88556144692E+03  0.88556144692E+03  0.00000000000E+00 0. -1.
         -1   -1    0    0    0  501 -0.00000000000E+00 -0.00000000000E+00 -0.20408888406E+04  0.20408888406E+04  0.00000000000E+00 0.  1.
         24    2    1    2    0    0 -0.10947153707E+03  0.76280260528E+03  0.47879682052E+03  0.91073600229E+03  0.79635660742E+02 0.  0.
        254    2    1    2    0    0  0.10947153707E+03 -0.76280260528E+03 -0.16341242142E+04  0.20157142853E+04  0.89380663469E+03 0.  0.
         23    2    4    4    0    0  0.40460941029E+03 -0.41932809957E+03 -0.13514780516E+04  0.14743168535E+04  0.87019712893E+02 0.  0.
         23    2    4    4    0    0 -0.29513787322E+03 -0.34347450571E+03 -0.28264616260E+03  0.54139743178E+03  0.90228740563E+02 0.  0.
          4    1    3    3  502    0 -0.10238904334E+03  0.72995046270E+03  0.47505860193E+03  0.87692181491E+03  0.00000000000E+00 0. -1.
         -3    1    3    3    0  502 -0.70824937282E+01  0.32852142579E+02  0.37382185870E+01  0.33814187372E+02  0.00000000000E+00 0.  1.
         11    1    5    5    0    0  0.71341696061E+02 -0.32293326980E+02 -0.17024003809E+03  0.18738774541E+03  0.00000000000E+00 0.  1.
        -11    1    5    5    0    0  0.33326771423E+03 -0.38703477259E+03 -0.11812380136E+04  0.12869291081E+04  0.00000000000E+00 0. -1.
          1    1    6    6  503    0 -0.29561321096E+03 -0.32967519068E+03 -0.28607135486E+03  0.52717143503E+03  0.00000000000E+00 0. -1.
         -1    1    6    6    0  503  0.47533773836E+00 -0.13799315031E+02  0.34251922669E+01  0.14225996744E+02  0.00000000000E+00 0.  1.
<mgrwt>
<rscale>  0 0.26887413E+04</rscale>
<asrwt>0</asrwt>
<pdfrwt beam="1">  1        2 0.13624022E+00 0.26887413E+04</pdfrwt>
<pdfrwt beam="2">  1       -1 0.31398289E+00 0.26887413E+04</pdfrwt>
<totfact> 0.80439298E-01</totfact>
</mgrwt>
</event>
<event>
12    6  0.1462228E-007  0.1328021E+04  0.7818608E-02  0.9007634E-01
          2   -1    0    0  501    0  0.00000000000E+00  0.00000000000E+00  0.14679711592E+04  0.14679711592E+04  0.00000000000E+00 0. -1.
         -1   -1    0    0    0  501 -0.00000000000E+00 -0.00000000000E+00 -0.30035344485E+03  0.30035344485E+03  0.00000000000E+00 0.  1.
         24    2    1    2    0    0  0.21588100817E+03 -0.19267183571E+03  0.60726455848E+02  0.30616907728E+03  0.79528331272E+02 0.  0.
        254    2    1    2    0    0 -0.21588100817E+03  0.19267183571E+03  0.11068912585E+04  0.14621555267E+04  0.91047431612E+03 0.  0.
         23    2    4    4    0    0 -0.22644209278E+03  0.37887803990E+03  0.11625713575E+04  0.12467521167E+04  0.89409667824E+02 0.  0.
         23    2    4    4    0    0  0.10561084608E+02 -0.18620620419E+03 -0.55680099050E+02  0.21540341002E+03  0.92271710899E+02 0.  0.
          2    1    3    3  502    0  0.12286614231E+02 -0.27432015867E+02  0.29481312380E+02  0.42102543432E+02  0.00000000000E+00 0. -1.
         -1    1    3    3    0  502  0.20359439394E+03 -0.16523981985E+03  0.31245143468E+02  0.26406653385E+03  0.00000000000E+00 0.  1.
         11    1    5    5    0    0 -0.75984120545E+02  0.65932134045E+02  0.31979076082E+03  0.33524135124E+03  0.00000000000E+00 0. -1.
        -11    1    5    5    0    0 -0.15045797224E+03  0.31294590586E+03  0.84278059671E+03  0.91151076548E+03  0.00000000000E+00 0.  1.
          3    1    6    6  503    0 -0.70117658285E+01 -0.12373062919E+03 -0.78395049978E+02  0.14664316323E+03  0.00000000000E+00 0. -1.
         -3    1    6    6    0  503  0.17572850436E+02 -0.62475574993E+02  0.22714950927E+02  0.68760246791E+02  0.00000000000E+00 0.  1.
<mgrwt>
<rscale>  0 0.13280214E+04</rscale>
<asrwt>0</asrwt>
<pdfrwt beam="1">  1        2 0.22584171E+00 0.13280214E+04</pdfrwt>
<pdfrwt beam="2">  1       -1 0.46208223E-01 0.13280214E+04</pdfrwt>
<totfact> 0.68740178E+01</totfact>
</mgrwt>
</event>
<event>
12    6  0.1462228E-007  0.1835405E+04  0.7818608E-02  0.8687695E-01
         -1   -1    0    0    0  501 -0.00000000000E+00  0.00000000000E+00  0.50897867132E+03  0.50897867132E+03  0.00000000000E+00 0.  1.
          2   -1    0    0  501    0  0.00000000000E+00 -0.00000000000E+00 -0.16546422891E+04  0.16546422891E+04  0.00000000000E+00 0. -1.
         24    2    1    2    0    0  0.30449728587E+03 -0.59709322196E+03 -0.22764529736E+03  0.71243000542E+03  0.80592917836E+02 0.  0.
        254    2    1    2    0    0 -0.30449728587E+03  0.59709322196E+03 -0.91801832048E+03  0.14511909550E+04  0.90219656310E+03 0.  0.
         23    2    4    4    0    0  0.10226762845E+03  0.33029948367E+02  0.12896177376E+03  0.19089709632E+03  0.90889586707E+02 0.  0.
         23    2    4    4    0    0 -0.40676491432E+03  0.56406327359E+03 -0.10469800942E+04  0.12602938587E+04  0.92456587087E+02 0.  0.
          4    1    3    3  502    0  0.20900241812E+03 -0.41960397672E+03 -0.11979131416E+03  0.48383826535E+03  0.00000000000E+00 0. -1.
         -3    1    3    3    0  502  0.95494867746E+02 -0.17748924523E+03 -0.10785398319E+03  0.22859174007E+03  0.00000000000E+00 0.  1.
         11    1    5    5    0    0  0.10745282269E+03  0.22190704068E+02  0.13767982623E+03  0.17605189860E+03  0.00000000000E+00 0.  1.
        -11    1    5    5    0    0 -0.51851942370E+01  0.10839244300E+02 -0.87180524697E+01  0.14845197713E+02  0.00000000000E+00 0. -1.
          4    1    6    6  503    0 -0.17535593858E+03  0.32004420332E+03 -0.56381767091E+03  0.67161623216E+03  0.00000000000E+00 0. -1.
         -4    1    6    6    0  503 -0.23140897574E+03  0.24401907027E+03 -0.48316242333E+03  0.58867762657E+03  0.00000000000E+00 0.  1.
<mgrwt>
<rscale>  0 0.18354047E+04</rscale>
<asrwt>0</asrwt>
<pdfrwt beam="1">  1        2 0.25456035E+00 0.18354047E+04</pdfrwt>
<pdfrwt beam="2">  1       -1 0.78304412E-01 0.18354047E+04</pdfrwt>
<totfact> 0.18198176E+01</totfact>
</mgrwt>
</event>
<event>
12    6  0.1462228E-007  0.1415241E+04  0.7818608E-02  0.8942860E-01
          2   -1    0    0  501    0  0.00000000000E+00  0.00000000000E+00  0.12939834404E+04  0.12939834404E+04  0.00000000000E+00 0. -1.
         -1   -1    0    0    0  501 -0.00000000000E+00 -0.00000000000E+00 -0.38696537955E+03  0.38696537955E+03  0.00000000000E+00 0.  1.
         24    2    1    2    0    0  0.27984930211E+02 -0.39576326834E+03  0.12939384508E+03  0.42537003855E+03  0.82372214125E+02 0.  0.
        254    2    1    2    0    0 -0.27984930211E+02  0.39576326834E+03  0.77762421578E+03  0.12555787814E+04  0.90242281359E+03 0.  0.
         23    2    4    4    0    0  0.15223053019E+03  0.62900288575E+03  0.38770012942E+03  0.75944901973E+03  0.87365088100E+02 0.  0.
         23    2    4    4    0    0 -0.18021546040E+03 -0.23323961740E+03  0.38992408637E+03  0.49612976169E+03  0.85003623539E+02 0.  0.
          2    1    3    3  502    0  0.34001016465E+02 -0.76603270558E+02  0.45269046735E+02  0.95254484268E+02  0.00000000000E+00 0. -1.
         -1    1    3    3    0  502 -0.60160862543E+01 -0.31915999779E+03  0.84124798346E+02  0.33011555428E+03  0.00000000000E+00 0.  1.
         11    1    5    5    0    0  0.13243504198E+03  0.61404578935E+03  0.37102394823E+03  0.72955468741E+03  0.00000000000E+00 0.  1.
        -11    1    5    5    0    0  0.19795488202E+02  0.14957096399E+02  0.16676181183E+02  0.29894332317E+02  0.00000000000E+00 0. -1.
          2    1    6    6  503    0 -0.15714265509E+03 -0.23024301838E+03  0.37887141871E+03  0.47037135700E+03  0.00000000000E+00 0.  1.
         -2    1    6    6    0  503 -0.23072805302E+02 -0.29965990192E+01  0.11052667654E+02  0.25758404695E+02  0.00000000000E+00 0. -1.
<mgrwt>
<rscale>  0 0.14152410E+04</rscale>
<asrwt>0</asrwt>
<pdfrwt beam="1">  1        2 0.19907437E+00 0.14152410E+04</pdfrwt>
<pdfrwt beam="2">  1       -1 0.59533136E-01 0.14152410E+04</pdfrwt>
<totfact> 0.52831858E+01</totfact>
</mgrwt>
</event>
<event>
12    6  0.1462228E-007  0.2632163E+04  0.7818608E-02  0.8357357E-01
          2   -1    0    0  501    0  0.00000000000E+00  0.00000000000E+00  0.23889769589E+04  0.23889769589E+04  0.00000000000E+00 0. -1.
         -1   -1    0    0    0  501 -0.00000000000E+00 -0.00000000000E+00 -0.72502623733E+03  0.72502623733E+03  0.00000000000E+00 0.  1.
         24    2    1    2    0    0 -0.58899459889E+03 -0.41218486299E+03  0.18236116274E+04  0.19618453895E+04  0.80417447290E+02 0.  0.
        254    2    1    2    0    0  0.58899459889E+03  0.41218486299E+03 -0.15966090584E+03  0.11521578068E+04  0.88609537184E+03 0.  0.
         23    2    4    4    0    0 -0.47638106310E+02  0.43723423271E+01  0.26240439107E+03  0.28161243470E+03  0.90338211032E+02 0.  0.
         23    2    4    4    0    0  0.63663270520E+03  0.40781252066E+03 -0.42206529691E+03  0.87054537205E+03  0.89988202573E+02 0.  0.
          2    1    3    3  502    0 -0.12907486550E+03 -0.10747111446E+03  0.34640553899E+03  0.38497682890E+03  0.00000000000E+00 0. -1.
         -1    1    3    3    0  502 -0.45991973340E+03 -0.30471374853E+03  0.14772060884E+04  0.15768685606E+04  0.00000000000E+00 0.  1.
         11    1    5    5    0    0 -0.73652088382E+02  0.13037942645E+02  0.19339022471E+03  0.20735090326E+03  0.00000000000E+00 0. -1.
        -11    1    5    5    0    0  0.26013982072E+02 -0.86656003180E+01  0.69014166363E+02  0.74261531434E+02  0.00000000000E+00 0.  1.
          2    1    6    6  503    0  0.58569434880E+03  0.40082273476E+03 -0.38776821780E+03  0.80874033265E+03  0.00000000000E+00 0. -1.
         -2    1    6    6    0  503  0.50938356408E+02  0.69897859001E+01 -0.34297079113E+02  0.61805039407E+02  0.00000000000E+00 0.  1.
<mgrwt>
<rscale>  0 0.26321634E+04</rscale>
<asrwt>0</asrwt>
<pdfrwt beam="1">  1        2 0.36753491E+00 0.26321634E+04</pdfrwt>
<pdfrwt beam="2">  1       -1 0.11154250E+00 0.26321634E+04</pdfrwt>
<totfact> 0.29875014E+00</totfact>
</mgrwt>
</event>
<event>
12    6  0.1462228E-007  0.1760706E+04  0.7818608E-02  0.8727479E-01
          2   -1    0    0  501    0  0.00000000000E+00  0.00000000000E+00  0.54202538275E+03  0.54202538275E+03  0.00000000000E+00 0. -1.
         -1   -1    0    0    0  501 -0.00000000000E+00 -0.00000000000E+00 -0.14298618372E+04  0.14298618372E+04  0.00000000000E+00 0.  1.
         24    2    1    2    0    0 -0.17382871432E+03  0.40731277126E+03 -0.86992553269E+03  0.97934890746E+03  0.78954002795E+02 0.  0.
        254    2    1    2    0    0  0.17382871432E+03 -0.40731277126E+03 -0.17910921728E+02  0.99253831247E+03  0.88808298320E+03 0.  0.
         23    2    4    4    0    0 -0.27281769915E+03 -0.30209447275E+03 -0.23411633703E+03  0.47820937240E+03  0.90460915042E+02 0.  0.
         23    2    4    4    0    0  0.44664641346E+03 -0.10521829851E+03  0.21620541530E+03  0.51432894007E+03  0.85003341047E+02 0.  0.
          4    1    3    3  502    0 -0.30199244533E+02  0.15548998757E+03 -0.26954254228E+03  0.31263767000E+03  0.00000000000E+00 0. -1.
         -3    1    3    3    0  502 -0.14362946978E+03  0.25182278369E+03 -0.60038299041E+03  0.66671123746E+03  0.00000000000E+00 0.  1.
         11    1    5    5    0    0 -0.57013094351E+01 -0.50033315597E+01  0.80233322421E+01  0.11041381990E+02  0.00000000000E+00 0.  1.
        -11    1    5    5    0    0 -0.26711638971E+03 -0.29709114119E+03 -0.24213966927E+03  0.46716799041E+03  0.00000000000E+00 0. -1.
          3    1    6    6  503    0  0.26313357265E+03 -0.71194100634E+02  0.82729006264E+02  0.28487184047E+03  0.00000000000E+00 0. -1.
         -3    1    6    6    0  503  0.18351284082E+03 -0.34024197874E+02  0.13347640903E+03  0.22945709960E+03  0.00000000000E+00 0.  1.
<mgrwt>
<rscale>  0 0.17607060E+04</rscale>
<asrwt>0</asrwt>
<pdfrwt beam="1">  1        2 0.83388522E-01 0.17607060E+04</pdfrwt>
<pdfrwt beam="2">  1       -1 0.21997874E+00 0.17607060E+04</pdfrwt>
<totfact> 0.66714550E+00</totfact>
</mgrwt>
</event>
<event>
12    6  0.1462228E-007  0.1977014E+04  0.7818608E-02  0.8617443E-01
         -1   -1    0    0    0  501 -0.00000000000E+00  0.00000000000E+00  0.30737636641E+03  0.30737636641E+03  0.00000000000E+00 0.  1.
          2   -1    0    0  501    0  0.00000000000E+00 -0.00000000000E+00 -0.31789894423E+04  0.31789894423E+04  0.00000000000E+00 0. -1.
         24    2    1    2    0    0  0.64200614254E+02 -0.31706466488E+03  0.11038931487E+03  0.35103807311E+03  0.79938772509E+02 0.  0.
        254    2    1    2    0    0 -0.64200614254E+02  0.31706466488E+03 -0.29820023907E+04  0.31353277356E+04  0.91284721091E+03 0.  0.
         23    2    4    4    0    0 -0.38583700665E+03  0.30413422075E+02 -0.64075298779E+03  0.75296465315E+03  0.81217027631E+02 0.  0.
         23    2    4    4    0    0  0.32163639239E+03  0.28665124280E+03 -0.23412494029E+04  0.23823630824E+04  0.92661673800E+02 0.  0.
          2    1    3    3  502    0  0.40750539781E+02 -0.16169267401E+03  0.98010135525E+02  0.19341952845E+03  0.00000000000E+00 0. -1.
         -1    1    3    3    0  502  0.23450074473E+02 -0.15537199087E+03  0.12379179348E+02  0.15761854466E+03  0.00000000000E+00 0.  1.
         11    1    5    5    0    0 -0.47796127254E+02  0.30984552996E+02 -0.10572124592E+03  0.12008952553E+03  0.00000000000E+00 0.  1.
        -11    1    5    5    0    0 -0.33804087940E+03 -0.57113092063E+00 -0.53503174188E+03  0.63287512761E+03  0.00000000000E+00 0. -1.
          4    1    6    6  503    0  0.77503261896E+02  0.23325089462E+02 -0.48363786257E+03  0.49036353608E+03  0.00000000000E+00 0.  1.
         -4    1    6    6    0  503  0.24413313050E+03  0.26332615334E+03 -0.18576115404E+04  0.18919995464E+04  0.00000000000E+00 0. -1.
<mgrwt>
<rscale>  0 0.19770141E+04</rscale>
<asrwt>0</asrwt>
<pdfrwt beam="1">  1        2 0.48907531E+00 0.19770141E+04</pdfrwt>
<pdfrwt beam="2">  1       -1 0.47288670E-01 0.19770141E+04</pdfrwt>
<totfact> 0.63486300E+00</totfact>
</mgrwt>
</event>
<event>
12    6  0.1462228E-007  0.1202652E+04  0.7818608E-02  0.9110539E-01
         -1   -1    0    0    0  501 -0.00000000000E+00  0.00000000000E+00  0.31149517329E+03  0.31149517329E+03  0.00000000000E+00 0.  1.
          2   -1    0    0  501    0  0.00000000000E+00 -0.00000000000E+00 -0.11608298325E+04  0.11608298325E+04  0.00000000000E+00 0. -1.
         24    2    1    2    0    0 -0.55527106879E+02 -0.25348322434E+03 -0.18820764130E+03  0.33031339750E+03  0.79673205663E+02 0.  0.
        254    2    1    2    0    0  0.55527106879E+02  0.25348322434E+03 -0.66112701790E+03  0.11420116083E+04  0.89429557475E+03 0.  0.
         23    2    4    4    0    0  0.43838288877E+03  0.37416034434E+01 -0.21459591384E+03  0.49631154533E+03  0.89889860562E+02 0.  0.
         23    2    4    4    0    0 -0.38285578189E+03  0.24974162090E+03 -0.44653110406E+03  0.64570006295E+03  0.92677491674E+02 0.  0.
          4    1    3    3  502    0  0.20598343143E+02 -0.52586979679E+02 -0.34979620682E+02  0.66432341785E+02  0.00000000000E+00 0. -1.
         -3    1    3    3    0  502 -0.76125450022E+02 -0.20089624467E+03 -0.15322802062E+03  0.26388105571E+03  0.00000000000E+00 0.  1.
         11    1    5    5    0    0  0.15706190841E+03  0.40155579125E+02 -0.57240755609E+02  0.17192270854E+03  0.00000000000E+00 0.  1.
        -11    1    5    5    0    0  0.28132098035E+03 -0.36413975681E+02 -0.15735515823E+03  0.32438883679E+03  0.00000000000E+00 0. -1.
          1    1    6    6  503    0 -0.55077026789E+02  0.79303158314E+02 -0.10378470405E+03  0.14175237068E+03  0.00000000000E+00 0. -1.
         -1    1    6    6    0  503 -0.32777875510E+03  0.17043846259E+03 -0.34274640001E+03  0.50394769227E+03  0.00000000000E+00 0.  1.
<mgrwt>
<rscale>  0 0.12026519E+04</rscale>
<asrwt>0</asrwt>
<pdfrwt beam="1">  1        2 0.17858920E+00 0.12026519E+04</pdfrwt>
<pdfrwt beam="2">  1       -1 0.47922335E-01 0.12026519E+04</pdfrwt>
<totfact> 0.97829398E+01</totfact>
</mgrwt>
</event>
<event>
12    6  0.1462228E-007  0.1000107E+04  0.7818608E-02  0.9308427E-01
         -1   -1    0    0    0  501 -0.00000000000E+00  0.00000000000E+00  0.35946375559E+03  0.35946375559E+03  0.00000000000E+00 0.  1.
          2   -1    0    0  501    0  0.00000000000E+00 -0.00000000000E+00 -0.69562961019E+03  0.69562961019E+03  0.00000000000E+00 0. -1.
         24    2    1    2    0    0 -0.35959673322E+02  0.15678786871E+02 -0.17071746341E+03  0.19285800722E+03  0.80689752593E+02 0.  0.
        254    2    1    2    0    0  0.35959673322E+02 -0.15678786871E+02 -0.16544839119E+03  0.86223535856E+03  0.84530333073E+03 0.  0.
         23    2    4    4    0    0 -0.43049016179E+02 -0.35554678529E+03  0.13387784832E+03  0.39373430154E+03  0.94003657437E+02 0.  0.
         23    2    4    4    0    0  0.79008689501E+02  0.33986799842E+03 -0.29932623950E+03  0.46850105702E+03  0.90246403827E+02 0.  0.
          2    1    3    3  502    0 -0.23593363144E+02  0.20270800323E+02 -0.17594142707E+03  0.17866991322E+03  0.00000000000E+00 0. -1.
         -3    1    3    3    0  502 -0.12366310177E+02 -0.45920134526E+01  0.52239636648E+01  0.14188093999E+02  0.00000000000E+00 0.  1.
         11    1    5    5    0    0  0.10917011432E+02 -0.82664870839E+02  0.68687020765E+02  0.10803040697E+03  0.00000000000E+00 0.  1.
        -11    1    5    5    0    0 -0.53966027611E+02 -0.27288191445E+03  0.65190827552E+02  0.28570389456E+03  0.00000000000E+00 0. -1.
          1    1    6    6  503    0  0.85732316723E+02  0.18192993875E+03 -0.14840908520E+03  0.24994757313E+03  0.00000000000E+00 0. -1.
         -1    1    6    6    0  503 -0.67236272222E+01  0.15793805967E+03 -0.15091715430E+03  0.21855348389E+03  0.00000000000E+00 0.  1.
<mgrwt>
<rscale>  0 0.10001073E+04</rscale>
<asrwt>0</asrwt>
<pdfrwt beam="1">  1        2 0.10701994E+00 0.10001073E+04</pdfrwt>
<pdfrwt beam="2">  1       -1 0.55302117E-01 0.10001073E+04</pdfrwt>
<totfact> 0.15563540E+02</totfact>
</mgrwt>
</event>
<event>
12    6  0.1462228E-007  0.1962954E+04  0.7818608E-02  0.8624139E-01
         -1   -1    0    0    0  501 -0.00000000000E+00  0.00000000000E+00  0.11766385123E+04  0.11766385123E+04  0.00000000000E+00 0.  1.
          2   -1    0    0  501    0  0.00000000000E+00 -0.00000000000E+00 -0.81868554297E+03  0.81868554297E+03  0.00000000000E+00 0. -1.
         24    2    1    2    0    0 -0.73640677635E+03 -0.43280619087E+02  0.39107084357E+03  0.83876057572E+03  0.80092112254E+02 0.  0.
        254    2    1    2    0    0  0.73640677635E+03  0.43280619087E+02 -0.33117874197E+02  0.11565634796E+04  0.89015399593E+03 0.  0.
         23    2    4    4    0    0 -0.20346118357E+02 -0.98686519080E+02  0.28701496314E+03  0.31787312768E+03  0.92264525424E+02 0.  0.
         23    2    4    4    0    0  0.75675289471E+03  0.14196713817E+03 -0.32013283734E+03  0.83869035191E+03  0.89926975262E+02 0.  0.
          2    1    3    3  502    0 -0.66075743590E+03 -0.49840456715E+02  0.37413771917E+03  0.76096221531E+03  0.00000000000E+00 0. -1.
         -1    1    3    3    0  502 -0.75649340447E+02  0.65598376287E+01  0.16933124397E+02  0.77798360405E+02  0.00000000000E+00 0.  1.
         11    1    5    5    0    0  0.32202641698E+02 -0.10362612728E+02  0.68764604123E+02  0.76635270307E+02  0.00000000000E+00 0.  1.
        -11    1    5    5    0    0 -0.52548760055E+02 -0.88323906352E+02  0.21825035902E+03  0.24123785737E+03  0.00000000000E+00 0. -1.
          4    1    6    6  503    0  0.59424079781E+03  0.14798916835E+03 -0.26013727003E+03  0.66535277785E+03  0.00000000000E+00 0. -1.
         -4    1    6    6    0  503  0.16251209690E+03 -0.60220301838E+01 -0.59995567303E+02  0.17333757406E+03  0.00000000000E+00 0.  1.
<mgrwt>
<rscale>  0 0.19629538E+04</rscale>
<asrwt>0</asrwt>
<pdfrwt beam="1">  1        2 0.12595162E+00 0.19629538E+04</pdfrwt>
<pdfrwt beam="2">  1       -1 0.18102131E+00 0.19629538E+04</pdfrwt>
<totfact> 0.72671962E+00</totfact>
</mgrwt>
</event>
<event>
12    6  0.1462228E-007  0.1490393E+04  0.7818608E-02  0.8890866E-01
         -1   -1    0    0    0  501 -0.00000000000E+00  0.00000000000E+00  0.15936612019E+03  0.15936612019E+03  0.00000000000E+00 0.  1.
          2   -1    0    0  501    0  0.00000000000E+00 -0.00000000000E+00 -0.34845433233E+04  0.34845433233E+04  0.00000000000E+00 0. -1.
         24    2    1    2    0    0 -0.11545531174E+03  0.17821054415E+03 -0.38956280266E+02  0.23034017058E+03  0.80312361152E+02 0.  0.
        254    2    1    2    0    0  0.11545531174E+03 -0.17821054415E+03 -0.32862209228E+04  0.34135692729E+04  0.89895400340E+03 0.  0.
         23    2    4    4    0    0 -0.32292584204E+03 -0.30284393017E+03 -0.14139970159E+04  0.14844477369E+04  0.90564766873E+02 0.  0.
         23    2    4    4    0    0  0.43838115378E+03  0.12463338602E+03 -0.18722239069E+04  0.19291215360E+04  0.92606836940E+02 0.  0.
          2    1    3    3  502    0 -0.42891466095E+00  0.65944308488E+01  0.15359249699E+02  0.16720557327E+02  0.00000000000E+00 0. -1.
         -1    1    3    3    0  502 -0.11502639708E+03  0.17161611330E+03 -0.54315529964E+02  0.21361961325E+03  0.00000000000E+00 0.  1.
         11    1    5    5    0    0 -0.20460766705E+01 -0.78188308588E+01 -0.48567830917E+01  0.94291509554E+01  0.00000000000E+00 0.  1.
        -11    1    5    5    0    0 -0.32087976537E+03 -0.29502509931E+03 -0.14091402328E+04  0.14750185859E+04  0.00000000000E+00 0. -1.
          4    1    6    6  503    0  0.43692765324E+03  0.11084456301E+03 -0.18004454752E+04  0.18560162177E+04  0.00000000000E+00 0. -1.
         -4    1    6    6    0  503  0.14535005384E+01  0.13788823012E+02 -0.71778431738E+02  0.73105318320E+02  0.00000000000E+00 0.  1.
<mgrwt>
<rscale>  0 0.14903934E+04</rscale>
<asrwt>0</asrwt>
<pdfrwt beam="1">  1        2 0.53608359E+00 0.14903934E+04</pdfrwt>
<pdfrwt beam="2">  1       -1 0.24517864E-01 0.14903934E+04</pdfrwt>
<totfact> 0.13481177E+01</totfact>
</mgrwt>
</event>
<event>
12    6  0.1462228E-007  0.2161301E+04  0.7818608E-02  0.8534710E-01
          2   -1    0    0  501    0  0.00000000000E+00  0.00000000000E+00  0.36837195828E+04  0.36837195828E+04  0.00000000000E+00 0. -1.
         -1   -1    0    0    0  501 -0.00000000000E+00 -0.00000000000E+00 -0.31701804720E+03  0.31701804720E+03  0.00000000000E+00 0.  1.
         24    2    1    2    0    0  0.32347171719E+03 -0.74902774157E+03  0.72883895208E+03  0.10969538747E+04  0.80156570145E+02 0.  0.
        254    2    1    2    0    0 -0.32347171719E+03  0.74902774157E+03  0.26378625836E+04  0.29037837553E+04  0.89886849897E+03 0.  0.
         23    2    4    4    0    0 -0.58480575075E+03  0.28315822898E+03  0.16707092472E+04  0.17949771286E+04  0.92180012438E+02 0.  0.
         23    2    4    4    0    0  0.26133403357E+03  0.46586951259E+03  0.96715333632E+03  0.11088066267E+04  0.93470206988E+02 0.  0.
          4    1    3    3  502    0  0.90360818606E+02 -0.12991259283E+03  0.13743374904E+03  0.20959578882E+03  0.00000000000E+00 0. -1.
         -3    1    3    3    0  502  0.23311089858E+03 -0.61911514874E+03  0.59140520303E+03  0.88735808590E+03  0.00000000000E+00 0.  1.
         11    1    5    5    0    0 -0.46315608880E+03  0.23468835623E+03  0.12267096339E+04  0.13320693350E+04  0.00000000000E+00 0.  1.
        -11    1    5    5    0    0 -0.12164966196E+03  0.48469872752E+02  0.44399961329E+03  0.46290779365E+03  0.00000000000E+00 0. -1.
          4    1    6    6  503    0  0.72340408664E+02  0.59291079287E+02  0.18323731001E+03  0.20572913889E+03  0.00000000000E+00 0. -1.
         -4    1    6    6    0  503  0.18899362491E+03  0.40657843330E+03  0.78391602632E+03  0.90307748782E+03  0.00000000000E+00 0.  1.
<mgrwt>
<rscale>  0 0.21613011E+04</rscale>
<asrwt>0</asrwt>
<pdfrwt beam="1">  1        2 0.56672606E+00 0.21613011E+04</pdfrwt>
<pdfrwt beam="2">  1       -1 0.48772010E-01 0.21613011E+04</pdfrwt>
<totfact> 0.26485229E+00</totfact>
</mgrwt>
</event>
<event>
12    6  0.1462228E-007  0.1710707E+04  0.7818608E-02  0.8755281E-01
         -1   -1    0    0    0  501 -0.00000000000E+00  0.00000000000E+00  0.67725167083E+03  0.67725167083E+03  0.00000000000E+00 0.  1.
          2   -1    0    0  501    0  0.00000000000E+00 -0.00000000000E+00 -0.10802921919E+04  0.10802921919E+04  0.00000000000E+00 0. -1.
         24    2    1    2    0    0  0.21838865962E+03  0.45744262395E+03 -0.53731638513E+03  0.74305475766E+03  0.80461881036E+02 0.  0.
        254    2    1    2    0    0 -0.21838865962E+03 -0.45744262395E+03  0.13427586407E+03  0.10144891051E+04  0.86845309359E+03 0.  0.
         23    2    4    4    0    0 -0.72888193369E+02 -0.42988280286E+03  0.46327828115E+03  0.64248651220E+03  0.89723127743E+02 0.  0.
         23    2    4    4    0    0 -0.14550046625E+03 -0.27559821087E+02 -0.32900241708E+03  0.37200259286E+03  0.90627861224E+02 0.  0.
          2    1    3    3  502    0  0.10594315187E+03  0.14696734253E+03 -0.22119542391E+03  0.28592090997E+03  0.00000000000E+00 0. -1.
         -1    1    3    3    0  502  0.11244550775E+03  0.31047528141E+03 -0.31612096122E+03  0.45713384769E+03  0.00000000000E+00 0.  1.
         11    1    5    5    0    0 -0.31506810317E+02 -0.11702667751E+03  0.18820129630E+03  0.22384738165E+03  0.00000000000E+00 0. -1.
        -11    1    5    5    0    0 -0.41381383052E+02 -0.31285612535E+03  0.27507698485E+03  0.41863913055E+03  0.00000000000E+00 0.  1.
          4    1    6    6  503    0 -0.11543279982E+03 -0.49569353032E+02 -0.29846415669E+03  0.32382511463E+03  0.00000000000E+00 0.  1.
         -4    1    6    6    0  503 -0.30067666425E+02  0.22009531945E+02 -0.30538260389E+02  0.48177478227E+02  0.00000000000E+00 0. -1.
<mgrwt>
<rscale>  0 0.17107071E+04</rscale>
<asrwt>0</asrwt>
<pdfrwt beam="1">  1        2 0.16619880E+00 0.17107071E+04</pdfrwt>
<pdfrwt beam="2">  1       -1 0.10419257E+00 0.17107071E+04</pdfrwt>
<totfact> 0.21067697E+01</totfact>
</mgrwt>
</event>
<event>
12    6  0.1462228E-007  0.1996245E+04  0.7818608E-02  0.8608378E-01
          4   -1    0    0  501    0  0.00000000000E+00  0.00000000000E+00  0.10027902234E+04  0.10027902234E+04  0.00000000000E+00 0. -1.
         -3   -1    0    0    0  501 -0.00000000000E+00 -0.00000000000E+00 -0.99347642133E+03  0.99347642133E+03  0.00000000000E+00 0.  1.
         24    2    1    2    0    0  0.36397982067E+03  0.45180286066E+03  0.54323984399E+03  0.79888544892E+03  0.80630624801E+02 0.  0.
        254    2    1    2    0    0 -0.36397982067E+03 -0.45180286066E+03 -0.53392604192E+03  0.11973811958E+04  0.90113127517E+03 0.  0.
         23    2    4    4    0    0  0.19338422202E+03 -0.30195917899E+03 -0.48712594837E+03  0.61155522250E+03  0.90173707322E+02 0.  0.
         23    2    4    4    0    0 -0.55736404269E+03 -0.14984368167E+03 -0.46800093544E+02  0.58582597330E+03  0.88848282036E+02 0.  0.
          2    1    3    3  502    0  0.19842152944E+03  0.29035273903E+03  0.28880873883E+03  0.45506736208E+03  0.00000000000E+00 0. -1.
         -1    1    3    3    0  502  0.16555829123E+03  0.16145012163E+03  0.25443110516E+03  0.34381808684E+03  0.00000000000E+00 0.  1.
         11    1    5    5    0    0  0.15396564446E+03 -0.18914537643E+03 -0.37723292208E+03  0.44920604471E+03  0.00000000000E+00 0. -1.
        -11    1    5    5    0    0  0.39418577560E+02 -0.11281380255E+03 -0.10989302629E+03  0.16234917779E+03  0.00000000000E+00 0.  1.
          1    1    6    6  503    0 -0.46557445750E+03 -0.15114142774E+03 -0.59720014414E+02  0.49312248659E+03  0.00000000000E+00 0. -1.
         -1    1    6    6    0  503 -0.91789585189E+02  0.12977460684E+01  0.12919920870E+02  0.92703486716E+02  0.00000000000E+00 0.  1.
<mgrwt>
<rscale>  0 0.19962449E+04</rscale>
<asrwt>0</asrwt>
<pdfrwt beam="1">  1        4 0.15427542E+00 0.19962449E+04</pdfrwt>
<pdfrwt beam="2">  1       -3 0.15284253E+00 0.19962449E+04</pdfrwt>
<totfact> 0.18020113E-01</totfact>
</mgrwt>
</event>
<event>
12    6  0.1462228E-007  0.2042501E+04  0.7818608E-02  0.8587004E-01
         -1   -1    0    0    0  501 -0.00000000000E+00  0.00000000000E+00  0.13403698911E+04  0.13403698911E+04  0.00000000000E+00 0.  1.
          2   -1    0    0  501    0  0.00000000000E+00 -0.00000000000E+00 -0.77810825021E+03  0.77810825021E+03  0.00000000000E+00 0. -1.
         24    2    1    2    0    0 -0.20932040162E+03  0.54670222798E+03  0.83064374969E+03  0.10194807213E+04  0.81691771875E+02 0.  0.
        254    2    1    2    0    0  0.20932040162E+03 -0.54670222798E+03 -0.26838210877E+03  0.10989974200E+04  0.89054366334E+03 0.  0.
         23    2    4    4    0    0 -0.96543103465E+02  0.63299400388E+02  0.21276883442E+03  0.25898488740E+03  0.92060904219E+02 0.  0.
         23    2    4    4    0    0  0.30586350508E+03 -0.61000162837E+03 -0.48115094319E+03  0.84001253264E+03  0.91980185357E+02 0.  0.
          4    1    3    3  502    0 -0.13695547461E+03  0.40217907460E+03  0.54207566872E+03  0.68873132693E+03  0.00000000000E+00 0. -1.
         -3    1    3    3    0  502 -0.72364927010E+02  0.14452315338E+03  0.28856808097E+03  0.33074939438E+03  0.00000000000E+00 0.  1.
         11    1    5    5    0    0 -0.29278307383E+02  0.68855806067E+02  0.14594371694E+03  0.16400582254E+03  0.00000000000E+00 0. -1.
        -11    1    5    5    0    0 -0.67264796082E+02 -0.55564056789E+01  0.66825117480E+02  0.94979064863E+02  0.00000000000E+00 0.  1.
          3    1    6    6  503    0  0.29692376868E+03 -0.60295412474E+03 -0.48405151026E+03  0.82826521449E+03  0.00000000000E+00 0. -1.
         -3    1    6    6    0  503  0.89397364013E+01 -0.70475036246E+01  0.29005670678E+01  0.11747318144E+02  0.00000000000E+00 0.  1.
<mgrwt>
<rscale>  0 0.20425013E+04</rscale>
<asrwt>0</asrwt>
<pdfrwt beam="1">  1        2 0.11970896E+00 0.20425013E+04</pdfrwt>
<pdfrwt beam="2">  1       -1 0.20621075E+00 0.20425013E+04</pdfrwt>
<totfact> 0.51511898E+00</totfact>
</mgrwt>
</event>
<event>
12    6  0.1462228E-007  0.1862920E+04  0.7818608E-02  0.8673537E-01
         -1   -1    0    0    0  501 -0.00000000000E+00  0.00000000000E+00  0.90963340393E+03  0.90963340393E+03  0.00000000000E+00 0.  1.
          2   -1    0    0  501    0  0.00000000000E+00 -0.00000000000E+00 -0.95381071417E+03  0.95381071417E+03  0.00000000000E+00 0. -1.
         24    2    1    2    0    0 -0.59952912587E+02 -0.15177877361E+03 -0.72351875139E+03  0.74607296794E+03  0.80711473992E+02 0.  0.
        254    2    1    2    0    0  0.59952912587E+02  0.15177877361E+03  0.67934144114E+03  0.11173711502E+04  0.87199905144E+03 0.  0.
         23    2    4    4    0    0 -0.36328959724E+03 -0.95858080457E+02  0.26222715902E+03  0.46696940001E+03  0.90162267992E+02 0.  0.
         23    2    4    4    0    0  0.42324250982E+03  0.24763685407E+03  0.41711428213E+03  0.65040175015E+03  0.92627634306E+02 0.  0.
          2    1    3    3  502    0 -0.58108665190E+02 -0.10082389781E+03 -0.61824050469E+03  0.62909728738E+03  0.00000000000E+00 0. -1.
         -1    1    3    3    0  502 -0.18442473969E+01 -0.50954875800E+02 -0.10527824669E+03  0.11697568056E+03  0.00000000000E+00 0.  1.
         11    1    5    5    0    0 -0.21464268176E+02 -0.18846697483E+02 -0.12139436893E+01  0.28589971557E+02  0.00000000000E+00 0. -1.
        -11    1    5    5    0    0 -0.34182532906E+03 -0.77011382974E+02  0.26344110271E+03  0.43837942845E+03  0.00000000000E+00 0.  1.
          3    1    6    6  503    0  0.13959679349E+03  0.11114452733E+03  0.19988320512E+03  0.26794340148E+03  0.00000000000E+00 0. -1.
         -3    1    6    6    0  503  0.28364571633E+03  0.13649232674E+03  0.21723107700E+03  0.38245834867E+03  0.00000000000E+00 0.  1.
<mgrwt>
<rscale>  0 0.18629204E+04</rscale>
<asrwt>0</asrwt>
<pdfrwt beam="1">  1        2 0.14674011E+00 0.18629204E+04</pdfrwt>
<pdfrwt beam="2">  1       -1 0.13994360E+00 0.18629204E+04</pdfrwt>
<totfact> 0.12140218E+01</totfact>
</mgrwt>
</event>
<event>
12    6  0.1462228E-007  0.1805440E+04  0.7818608E-02  0.8703412E-01
          2   -1    0    0  501    0  0.00000000000E+00  0.00000000000E+00  0.34521191363E+04  0.34521191363E+04  0.00000000000E+00 0. -1.
         -1   -1    0    0    0  501 -0.00000000000E+00 -0.00000000000E+00 -0.23605892620E+03  0.23605892620E+03  0.00000000000E+00 0.  1.
         24    2    1    2    0    0  0.62909804431E+03 -0.16599969125E+02  0.70006961557E+03  0.94420757915E+03  0.73420552654E+02 0.  0.
        254    2    1    2    0    0 -0.62909804431E+03  0.16599969125E+02  0.25159905945E+04  0.27439704834E+04  0.89617265825E+03 0.  0.
         23    2    4    4    0    0 -0.73107405546E+03 -0.26093961462E+03  0.16935015933E+04  0.18651790258E+04  0.91577262325E+02 0.  0.
         23    2    4    4    0    0  0.10197601115E+03  0.27753958374E+03  0.82248900127E+03  0.87879145752E+03  0.91427245436E+02 0.  0.
          4    1    3    3  502    0  0.10516156347E+03 -0.26006960950E+01  0.16119057549E+03  0.19247888112E+03  0.00000000000E+00 0. -1.
         -3    1    3    3    0  502  0.52393648084E+03 -0.13999273030E+02  0.53887904008E+03  0.75172869803E+03  0.00000000000E+00 0.  1.
         11    1    5    5    0    0 -0.51106616481E+03 -0.13700163170E+03  0.11490461802E+04  0.12650158877E+04  0.00000000000E+00 0.  1.
        -11    1    5    5    0    0 -0.22000789065E+03 -0.12393798292E+03  0.54445541308E+03  0.60016313815E+03  0.00000000000E+00 0. -1.
          3    1    6    6  503    0  0.34397775643E+02  0.20063675699E+03  0.48141195661E+03  0.52268134384E+03  0.00000000000E+00 0. -1.
         -3    1    6    6    0  503  0.67578235507E+02  0.76902826753E+02  0.34107704465E+03  0.35611011368E+03  0.00000000000E+00 0.  1.
<mgrwt>
<rscale>  0 0.18054402E+04</rscale>
<asrwt>0</asrwt>
<pdfrwt beam="1">  1        2 0.53109521E+00 0.18054402E+04</pdfrwt>
<pdfrwt beam="2">  1       -1 0.36316760E-01 0.18054402E+04</pdfrwt>
<totfact> 0.69001066E+00</totfact>
</mgrwt>
</event>
<event>
12    6  0.1462228E-007  0.2482593E+04  0.7818608E-02  0.8409213E-01
          2   -1    0    0  501    0  0.00000000000E+00  0.00000000000E+00  0.25470139540E+04  0.25470139540E+04  0.00000000000E+00 0. -1.
         -1   -1    0    0    0  501 -0.00000000000E+00 -0.00000000000E+00 -0.60495042754E+03  0.60495042754E+03  0.00000000000E+00 0.  1.
         24    2    1    2    0    0 -0.89887602999E+03 -0.43195474899E+03  0.14103284216E+04  0.17290999653E+04  0.78723634919E+02 0.  0.
        254    2    1    2    0    0  0.89887602999E+03  0.43195474899E+03  0.53173510486E+03  0.14228644163E+04  0.86442923530E+03 0.  0.
         23    2    4    4    0    0 -0.11459018554E+03  0.20136751614E+03 -0.86394556589E+01  0.24757801444E+03  0.86835740693E+02 0.  0.
         23    2    4    4    0    0  0.10134662155E+04  0.23058723286E+03  0.54037456052E+03  0.11752864018E+04  0.94916903923E+02 0.  0.
          4    1    3    3  502    0 -0.64642347736E+03 -0.34912871617E+03  0.10388258755E+04  0.12723652668E+04  0.00000000000E+00 0. -1.
         -3    1    3    3    0  502 -0.25245255264E+03 -0.82826032821E+02  0.37150254608E+03  0.45673469847E+03  0.00000000000E+00 0.  1.
         11    1    5    5    0    0 -0.54559486588E+02  0.25882152692E+02  0.98661895004E+01  0.61187948977E+02  0.00000000000E+00 0. -1.
        -11    1    5    5    0    0 -0.60030698956E+02  0.17548536345E+03 -0.18505645159E+02  0.18639006546E+03  0.00000000000E+00 0.  1.
          1    1    6    6  503    0  0.58659568604E+01 -0.41078300133E+01 -0.16171648138E+01  0.73415897013E+01  0.00000000000E+00 0. -1.
         -1    1    6    6    0  503  0.10076002587E+04  0.23469506287E+03  0.54199172533E+03  0.11679448121E+04  0.00000000000E+00 0.  1.
<mgrwt>
<rscale>  0 0.24825931E+04</rscale>
<asrwt>0</asrwt>
<pdfrwt beam="1">  1        2 0.39184830E+00 0.24825931E+04</pdfrwt>
<pdfrwt beam="2">  1       -1 0.93069298E-01 0.24825931E+04</pdfrwt>
<totfact> 0.37223088E+00</totfact>
</mgrwt>
</event>
<event>
12    6  0.1462228E-007  0.2655287E+04  0.7818608E-02  0.8349660E-01
          2   -1    0    0  501    0  0.00000000000E+00  0.00000000000E+00  0.18427061895E+04  0.18427061895E+04  0.00000000000E+00 0. -1.
         -1   -1    0    0    0  501 -0.00000000000E+00 -0.00000000000E+00 -0.95654796170E+03  0.95654796170E+03  0.00000000000E+00 0.  1.
         24    2    1    2    0    0 -0.63726352428E+03  0.53798590480E+03  0.12568259473E+04  0.15104749414E+04  0.79934058593E+02 0.  0.
        254    2    1    2    0    0  0.63726352428E+03 -0.53798590480E+03 -0.37066771954E+03  0.12887792097E+04  0.90995805396E+03 0.  0.
         23    2    4    4    0    0  0.18774565526E+03  0.67880999485E+01  0.26293005749E+03  0.33551238162E+03  0.90232110223E+02 0.  0.
         23    2    4    4    0    0  0.44951786902E+03 -0.54477400475E+03 -0.63359777704E+03  0.95326682811E+03  0.91795815203E+02 0.  0.
          4    1    3    3  502    0 -0.14563691883E+03  0.12872104952E+03  0.35640734909E+03  0.40596233717E+03  0.00000000000E+00 0. -1.
         -3    1    3    3    0  502 -0.49162660545E+03  0.40926485528E+03  0.90041859823E+03  0.11045126043E+04  0.00000000000E+00 0.  1.
         11    1    5    5    0    0  0.64135738873E+02 -0.33201976966E+02  0.13542686298E+03  0.15348029024E+03  0.00000000000E+00 0. -1.
        -11    1    5    5    0    0  0.12360991639E+03  0.39990076914E+02  0.12750319452E+03  0.18203209138E+03  0.00000000000E+00 0.  1.
          1    1    6    6  503    0  0.10270897855E+03 -0.18792451304E+03 -0.20646411826E+03  0.29747636714E+03  0.00000000000E+00 0. -1.
         -1    1    6    6    0  503  0.34680889047E+03 -0.35684949170E+03 -0.42713365878E+03  0.65579046097E+03  0.00000000000E+00 0.  1.
<mgrwt>
<rscale>  0 0.26552867E+04</rscale>
<asrwt>0</asrwt>
<pdfrwt beam="1">  1        2 0.28349326E+00 0.26552867E+04</pdfrwt>
<pdfrwt beam="2">  1       -1 0.14716123E+00 0.26552867E+04</pdfrwt>
<totfact> 0.30072510E+00</totfact>
</mgrwt>
</event>
<event>
12    6  0.1462228E-007  0.1930007E+04  0.7818608E-02  0.8640062E-01
         -1   -1    0    0    0  501 -0.00000000000E+00  0.00000000000E+00  0.52341226612E+03  0.52341226612E+03  0.00000000000E+00 0.  1.
          2   -1    0    0  501    0  0.00000000000E+00 -0.00000000000E+00 -0.17791562088E+04  0.17791562088E+04  0.00000000000E+00 0. -1.
         24    2    1    2    0    0 -0.29365469536E+03  0.32234070296E+03  0.23408346806E+03  0.50145890442E+03  0.80804417703E+02 0.  0.
        254    2    1    2    0    0  0.29365469536E+03 -0.32234070296E+03 -0.14898274108E+04  0.18011095705E+04  0.91338565911E+03 0.  0.
         23    2    4    4    0    0  0.41830251431E+03 -0.54807348792E+03 -0.80600982741E+03  0.10645919828E+04  0.91338416123E+02 0.  0.
         23    2    4    4    0    0 -0.12464781895E+03  0.22573278497E+03 -0.68381758336E+03  0.73651758775E+03  0.91429211851E+02 0.  0.
          2    1    3    3  502    0 -0.38804293235E+01  0.33072687044E+02  0.10335071410E+02  0.34866517765E+02  0.00000000000E+00 0. -1.
         -1    1    3    3    0  502 -0.28977426603E+03  0.28926801591E+03  0.22374839665E+03  0.46659238666E+03  0.00000000000E+00 0.  1.
         11    1    5    5    0    0  0.32724116567E+03 -0.47022220669E+03 -0.70069438652E+03  0.90507918298E+03  0.00000000000E+00 0.  1.
        -11    1    5    5    0    0  0.91061348642E+02 -0.77851281235E+02 -0.10531544089E+03  0.15951279979E+03  0.00000000000E+00 0. -1.
          3    1    6    6  503    0 -0.13819572768E+02 -0.19909019657E+01 -0.88103032883E+02  0.89202515017E+02  0.00000000000E+00 0. -1.
         -3    1    6    6    0  503 -0.11082824618E+03  0.22772368693E+03 -0.59571455047E+03  0.64731507273E+03  0.00000000000E+00 0.  1.
<mgrwt>
<rscale>  0 0.19300074E+04</rscale>
<asrwt>0</asrwt>
<pdfrwt beam="1">  1        2 0.27371634E+00 0.19300074E+04</pdfrwt>
<pdfrwt beam="2">  1       -1 0.80524965E-01 0.19300074E+04</pdfrwt>
<totfact> 0.14504643E+01</totfact>
</mgrwt>
</event>
<event>
12    6  0.1462228E-007  0.1502925E+04  0.7818608E-02  0.8882510E-01
         -1   -1    0    0    0  501 -0.00000000000E+00  0.00000000000E+00  0.52904511121E+03  0.52904511121E+03  0.00000000000E+00 0.  1.
          2   -1    0    0  501    0  0.00000000000E+00 -0.00000000000E+00 -0.10673872623E+04  0.10673872623E+04  0.00000000000E+00 0. -1.
         24    2    1    2    0    0  0.23131787442E+03 -0.36351639360E+03 -0.34236722926E+03  0.55612218533E+03  0.80027732093E+02 0.  0.
        254    2    1    2    0    0 -0.23131787442E+03  0.36351639360E+03 -0.19597492179E+03  0.10403101881E+04  0.92638382442E+03 0.  0.
         23    2    4    4    0    0  0.19347633348E+03  0.51634726600E+03 -0.14003675536E+03  0.57627859691E+03  0.91864779300E+02 0.  0.
         23    2    4    4    0    0 -0.42479420790E+03 -0.15283087241E+03 -0.55938166428E+02  0.46403159124E+03  0.91590635860E+02 0.  0.
          2    1    3    3  502    0  0.21345838356E+03 -0.34777745012E+03 -0.29636990359E+03  0.50433000712E+03  0.00000000000E+00 0. -1.
         -1    1    3    3    0  502  0.17859490864E+02 -0.15738943482E+02 -0.45997325666E+02  0.51792178215E+02  0.00000000000E+00 0.  1.
         11    1    5    5    0    0 -0.59685124066E+01  0.58579485282E+02 -0.24377409894E+02  0.63729407258E+02  0.00000000000E+00 0. -1.
        -11    1    5    5    0    0  0.19944484589E+03  0.45776778072E+03 -0.11565934547E+03  0.51254918965E+03  0.00000000000E+00 0.  1.
          2    1    6    6  503    0 -0.48472010684E+02 -0.14827711097E+02 -0.36999213113E+02  0.62756183816E+02  0.00000000000E+00 0. -1.
         -2    1    6    6    0  503 -0.37632219722E+03 -0.13800316131E+03 -0.18938953315E+02  0.40127540742E+03  0.00000000000E+00 0.  1.
<mgrwt>
<rscale>  0 0.15029252E+04</rscale>
<asrwt>0</asrwt>
<pdfrwt beam="1">  1        2 0.16421342E+00 0.15029252E+04</pdfrwt>
<pdfrwt beam="2">  1       -1 0.81391556E-01 0.15029252E+04</pdfrwt>
<totfact> 0.37822952E+01</totfact>
</mgrwt>
</event>
<event>
12    6  0.1462228E-007  0.1807633E+04  0.7818608E-02  0.8702251E-01
          2   -1    0    0  501    0  0.00000000000E+00  0.00000000000E+00  0.12312018369E+04  0.12312018369E+04  0.00000000000E+00 0. -1.
         -1   -1    0    0    0  501 -0.00000000000E+00 -0.00000000000E+00 -0.66348517840E+03  0.66348517840E+03  0.00000000000E+00 0.  1.
         24    2    1    2    0    0 -0.45346772644E+03 -0.46485565286E+03  0.25975526910E+02  0.65454438521E+03  0.77652220116E+02 0.  0.
        254    2    1    2    0    0  0.45346772644E+03  0.46485565286E+03  0.54174113164E+03  0.12401426301E+04  0.90705376492E+03 0.  0.
         23    2    4    4    0    0  0.17106592922E+03  0.14870195573E+03  0.72824732951E+03  0.76812591139E+03  0.91090169764E+02 0.  0.
         23    2    4    4    0    0  0.28240179722E+03  0.31615369713E+03 -0.18650619787E+03  0.47201671875E+03  0.91166252857E+02 0.  0.
          2    1    3    3  502    0 -0.11074113717E+03 -0.16374791092E+03  0.16356077683E+01  0.19768574305E+03  0.00000000000E+00 0. -1.
         -1    1    3    3    0  502 -0.34272658928E+03 -0.30110774194E+03  0.24339919142E+02  0.45685864216E+03  0.00000000000E+00 0.  1.
         11    1    5    5    0    0  0.55208975778E+02  0.96743735360E+02  0.42531095555E+03  0.43965530845E+03  0.00000000000E+00 0. -1.
        -11    1    5    5    0    0  0.11585695345E+03  0.51958220368E+02  0.30293637396E+03  0.32847060294E+03  0.00000000000E+00 0.  1.
          4    1    6    6  503    0  0.65635199167E+02  0.89940982620E+02 -0.92950102567E+02  0.14504165364E+03  0.00000000000E+00 0.  1.
         -4    1    6    6    0  503  0.21676659805E+03  0.22621271451E+03 -0.93556095299E+02  0.32697506511E+03  0.00000000000E+00 0. -1.
<mgrwt>
<rscale>  0 0.18076329E+04</rscale>
<asrwt>0</asrwt>
<pdfrwt beam="1">  1        2 0.18941567E+00 0.18076329E+04</pdfrwt>
<pdfrwt beam="2">  1       -1 0.10207464E+00 0.18076329E+04</pdfrwt>
<totfact> 0.17748435E+01</totfact>
</mgrwt>
</event>
<event>
12    6  0.1462228E-007  0.1195867E+04  0.7818608E-02  0.9116481E-01
         -1   -1    0    0    0  501 -0.00000000000E+00  0.00000000000E+00  0.66380843230E+03  0.66380843230E+03  0.00000000000E+00 0.  1.
          2   -1    0    0  501    0  0.00000000000E+00 -0.00000000000E+00 -0.53859622690E+03  0.53859622690E+03  0.00000000000E+00 0. -1.
         24    2    1    2    0    0  0.43374985543E+02  0.88164267716E+02 -0.20089306411E+03  0.23691417130E+03  0.78204692206E+02 0.  0.
        254    2    1    2    0    0 -0.43374985543E+02 -0.88164267716E+02  0.32610526951E+03  0.96549048790E+03  0.90342288434E+03 0.  0.
         23    2    4    4    0    0  0.39261672006E+03 -0.15266966902E+03  0.27881428329E+03  0.51235267915E+03  0.85509920802E+02 0.  0.
         23    2    4    4    0    0 -0.43599170560E+03  0.64505401309E+02  0.47290986214E+02  0.45313780875E+03  0.94062331428E+02 0.  0.
          4    1    3    3  502    0  0.40088627654E+02  0.55037840811E+02 -0.19008856236E+03  0.20191563468E+03  0.00000000000E+00 0. -1.
         -3    1    3    3    0  502  0.32863578883E+01  0.33126426905E+02 -0.10804501754E+02  0.34998536624E+02  0.00000000000E+00 0.  1.
         11    1    5    5    0    0  0.11860405129E+03 -0.60481044896E+02  0.13442837994E+03  0.18919795746E+03  0.00000000000E+00 0.  1.
        -11    1    5    5    0    0  0.27401266876E+03 -0.92188624129E+02  0.14438590335E+03  0.32315472169E+03  0.00000000000E+00 0. -1.
          3    1    6    6  503    0 -0.43231129521E+03  0.72006606655E+02  0.36919487600E+02  0.43981934466E+03  0.00000000000E+00 0. -1.
         -3    1    6    6    0  503 -0.36804103843E+01 -0.75012053467E+01  0.10371498614E+02  0.13318464092E+02  0.00000000000E+00 0.  1.
<mgrwt>
<rscale>  0 0.11958674E+04</rscale>
<asrwt>0</asrwt>
<pdfrwt beam="1">  1        2 0.82860958E-01 0.11958674E+04</pdfrwt>
<pdfrwt beam="2">  1       -1 0.10212437E+00 0.11958674E+04</pdfrwt>
<totfact> 0.57860765E+01</totfact>
</mgrwt>
</event>
<event>
12    6  0.1462228E-007  0.1889440E+04  0.7818608E-02  0.8660131E-01
          2   -1    0    0  501    0  0.00000000000E+00  0.00000000000E+00  0.12883081244E+04  0.12883081244E+04  0.00000000000E+00 0. -1.
         -1   -1    0    0    0  501 -0.00000000000E+00 -0.00000000000E+00 -0.69276565207E+03  0.69276565207E+03  0.00000000000E+00 0.  1.
         24    2    1    2    0    0  0.68856247581E+03 -0.21737400105E+03  0.22113234754E+03  0.75939510613E+03  0.80072920921E+02 0.  0.
        254    2    1    2    0    0 -0.68856247581E+03  0.21737400105E+03  0.37441012477E+03  0.12216786703E+04  0.91156244577E+03 0.  0.
         23    2    4    4    0    0  0.15675462791E+03 -0.59142261648E+02  0.25727015245E+03  0.32017992140E+03  0.90870403567E+02 0.  0.
         23    2    4    4    0    0 -0.84531710372E+03  0.27651626270E+03  0.11713997232E+03  0.90149874891E+03  0.89196254334E+02 0.  0.
          2    1    3    3  502    0  0.28014119379E+03 -0.65108111984E+02  0.54368353227E+02  0.29270133675E+03  0.00000000000E+00 0. -1.
         -1    1    3    3    0  502  0.40842128202E+03 -0.15226588907E+03  0.16676399431E+03  0.46669376938E+03  0.00000000000E+00 0.  1.
         11    1    5    5    0    0  0.98817865077E-01 -0.27664921903E+02  0.20062090030E+02  0.34173749066E+02  0.00000000000E+00 0.  1.
        -11    1    5    5    0    0  0.15665581004E+03 -0.31477339745E+02  0.23720806242E+03  0.28600617234E+03  0.00000000000E+00 0. -1.
          3    1    6    6  503    0 -0.60695951299E+03  0.23098518807E+03  0.59976466009E+02  0.65218953073E+03  0.00000000000E+00 0. -1.
         -3    1    6    6    0  503 -0.23835759073E+03  0.45531074631E+02  0.57163506306E+02  0.24930921818E+03  0.00000000000E+00 0.  1.
<mgrwt>
<rscale>  0 0.18894397E+04</rscale>
<asrwt>0</asrwt>
<pdfrwt beam="1">  1        2 0.19820125E+00 0.18894397E+04</pdfrwt>
<pdfrwt beam="2">  1       -1 0.10657933E+00 0.18894397E+04</pdfrwt>
<totfact> 0.14754650E+01</totfact>
</mgrwt>
</event>
<event>
12    6  0.1462228E-007  0.2500196E+04  0.7818608E-02  0.8402916E-01
          2   -1    0    0  501    0  0.00000000000E+00  0.00000000000E+00  0.15823414174E+04  0.15823414174E+04  0.00000000000E+00 0. -1.
         -1   -1    0    0    0  501 -0.00000000000E+00 -0.00000000000E+00 -0.98761527680E+03  0.98761527680E+03  0.00000000000E+00 0.  1.
         24    2    1    2    0    0  0.15393257775E+03 -0.82004989898E+03  0.90244937912E+03  0.12316687057E+04  0.80098959807E+02 0.  0.
        254    2    1    2    0    0 -0.15393257775E+03  0.82004989898E+03 -0.30772323848E+03  0.13382879886E+04  0.10000720342E+04 0.  0.
         23    2    4    4    0    0 -0.54217468402E+03  0.26109554570E+03 -0.20961946486E+03  0.64419439685E+03  0.94455433452E+02 0.  0.
         23    2    4    4    0    0  0.38824210627E+03  0.55895435329E+03 -0.98103773622E+02  0.69409359172E+03  0.94761076014E+02 0.  0.
          4    1    3    3  502    0  0.15902298183E+03 -0.81658190168E+03  0.89384485636E+03  0.12210867857E+04  0.00000000000E+00 0. -1.
         -3    1    3    3    0  502 -0.50904040879E+01 -0.34679972991E+01  0.86045227622E+01  0.10581920006E+02  0.00000000000E+00 0.  1.
         11    1    5    5    0    0 -0.51083265671E+03  0.26823001947E+03 -0.19740881542E+03  0.60980946771E+03  0.00000000000E+00 0.  1.
        -11    1    5    5    0    0 -0.31342027305E+02 -0.71344737749E+01 -0.12210649441E+02  0.34384929132E+02  0.00000000000E+00 0. -1.
          3    1    6    6  503    0  0.27002564801E+02  0.58462584009E+02  0.16093639537E+02  0.66377838685E+02  0.00000000000E+00 0. -1.
         -3    1    6    6    0  503  0.36123954147E+03  0.50049176928E+03 -0.11419741316E+03  0.62771575303E+03  0.00000000000E+00 0.  1.
<mgrwt>
<rscale>  0 0.25001956E+04</rscale>
<asrwt>0</asrwt>
<pdfrwt beam="1">  1        2 0.24343714E+00 0.25001956E+04</pdfrwt>
<pdfrwt beam="2">  1       -1 0.15194081E+00 0.25001956E+04</pdfrwt>
<totfact> 0.39047095E+00</totfact>
</mgrwt>
</event>
<event>
12    6  0.1462228E-007  0.1942155E+04  0.7818608E-02  0.8634153E-01
         -1   -1    0    0    0  501 -0.00000000000E+00  0.00000000000E+00  0.11216891676E+04  0.11216891676E+04  0.00000000000E+00 0.  1.
          2   -1    0    0  501    0  0.00000000000E+00 -0.00000000000E+00 -0.84068886209E+03  0.84068886209E+03  0.00000000000E+00 0. -1.
         24    2    1    2    0    0 -0.59090785823E+03 -0.42669850815E+03 -0.10897023025E+03  0.74158910353E+03  0.82681156399E+02 0.  0.
        254    2    1    2    0    0  0.59090785823E+03  0.42669850815E+03  0.38997053577E+03  0.12207889262E+04  0.89833449767E+03 0.  0.
         23    2    4    4    0    0  0.28820129726E+03  0.40168216159E+03 -0.20787487320E+03  0.54392414168E+03  0.90735672798E+02 0.  0.
         23    2    4    4    0    0  0.30270656097E+03  0.25016346556E+02  0.59784540897E+03  0.67686478448E+03  0.92031102346E+02 0.  0.
          4    1    3    3  502    0 -0.50772364941E+03 -0.36171989298E+03 -0.63385688215E+02  0.62661178621E+03  0.00000000000E+00 0. -1.
         -3    1    3    3    0  502 -0.83184208824E+02 -0.64978615170E+02 -0.45584542033E+02  0.11497731733E+03  0.00000000000E+00 0.  1.
         11    1    5    5    0    0  0.47399510698E+02  0.51279411354E+02 -0.64976855864E+02  0.95384922505E+02  0.00000000000E+00 0.  1.
        -11    1    5    5    0    0  0.24080178656E+03  0.35040275024E+03 -0.14289801733E+03  0.44853921918E+03  0.00000000000E+00 0. -1.
          3    1    6    6  503    0  0.29819150887E+03  0.38324133227E+02  0.54772598762E+03  0.62481251001E+03  0.00000000000E+00 0. -1.
         -3    1    6    6    0  503  0.45150521008E+01 -0.13307786672E+02  0.50119421350E+02  0.52052274476E+02  0.00000000000E+00 0.  1.
<mgrwt>
<rscale>  0 0.19421551E+04</rscale>
<asrwt>0</asrwt>
<pdfrwt beam="1">  1        2 0.12933675E+00 0.19421551E+04</pdfrwt>
<pdfrwt beam="2">  1       -1 0.17256757E+00 0.19421551E+04</pdfrwt>
<totfact> 0.80864576E+00</totfact>
</mgrwt>
</event>
<event>
12    6  0.1462228E-007  0.2013684E+04  0.7818608E-02  0.8600250E-01
         -1   -1    0    0    0  501 -0.00000000000E+00  0.00000000000E+00  0.58734452674E+03  0.58734452674E+03  0.00000000000E+00 0.  1.
          2   -1    0    0  501    0  0.00000000000E+00 -0.00000000000E+00 -0.17259556424E+04  0.17259556424E+04  0.00000000000E+00 0. -1.
         24    2    1    2    0    0 -0.34792075535E+02 -0.70145361720E+03 -0.90552671096E+03  0.11484497851E+04  0.75568637976E+02 0.  0.
        254    2    1    2    0    0  0.34792075535E+02  0.70145361720E+03 -0.23308440469E+03  0.11648503840E+04  0.89961125598E+03 0.  0.
         23    2    4    4    0    0  0.17995969536E+03  0.85679186858E+03 -0.72051745767E+02  0.88340208254E+03  0.93434401320E+02 0.  0.
         23    2    4    4    0    0 -0.14516761983E+03 -0.15533825138E+03 -0.16103265892E+03  0.28144830150E+03  0.89877800314E+02 0.  0.
          4    1    3    3  502    0 -0.87396980574E+01 -0.56492933321E+03 -0.68729279149E+03  0.88971507522E+03  0.00000000000E+00 0. -1.
         -3    1    3    3    0  502 -0.26052377477E+02 -0.13652428398E+03 -0.21823391947E+03  0.25873470988E+03  0.00000000000E+00 0.  1.
         11    1    5    5    0    0  0.44567467987E+02  0.36290633329E+03 -0.64252532829E+02  0.37123530802E+03  0.00000000000E+00 0.  1.
        -11    1    5    5    0    0  0.13539222737E+03  0.49388553528E+03 -0.77992129388E+01  0.51216677452E+03  0.00000000000E+00 0. -1.
          4    1    6    6  503    0 -0.94895038757E+02 -0.11469720988E+03 -0.15748256105E+03  0.21670550378E+03  0.00000000000E+00 0. -1.
         -4    1    6    6    0  503 -0.50272581069E+02 -0.40641041502E+02 -0.35500978774E+01  0.64742797720E+02  0.00000000000E+00 0.  1.
<mgrwt>
<rscale>  0 0.20136838E+04</rscale>
<asrwt>0</asrwt>
<pdfrwt beam="1">  1        2 0.26553164E+00 0.20136838E+04</pdfrwt>
<pdfrwt beam="2">  1       -1 0.90360696E-01 0.20136838E+04</pdfrwt>
<totfact> 0.12003940E+01</totfact>
</mgrwt>
</event>
<event>
12    6  0.1462228E-007  0.1412006E+04  0.7818608E-02  0.8945174E-01
         -1   -1    0    0    0  501 -0.00000000000E+00  0.00000000000E+00  0.35820565045E+03  0.35820565045E+03  0.00000000000E+00 0.  1.
          2   -1    0    0  501    0  0.00000000000E+00 -0.00000000000E+00 -0.13914916552E+04  0.13914916552E+04  0.00000000000E+00 0. -1.
         24    2    1    2    0    0  0.19967802719E+03 -0.19459932914E+03 -0.67240500839E+03  0.73224556169E+03  0.79466054789E+02 0.  0.
        254    2    1    2    0    0 -0.19967802719E+03  0.19459932914E+03 -0.36088099635E+03  0.10174517439E+04  0.90952336105E+03 0.  0.
         23    2    4    4    0    0 -0.41245454655E+03  0.27827645813E+03  0.79347232334E+02  0.51172110933E+03  0.89476088070E+02 0.  0.
         23    2    4    4    0    0  0.21277651936E+03 -0.83677128991E+02 -0.44022822868E+03  0.50573063461E+03  0.98421909910E+02 0.  0.
          4    1    3    3  502    0  0.19637777921E+03 -0.19621367197E+03 -0.61532368231E+03  0.67504612527E+03  0.00000000000E+00 0. -1.
         -3    1    3    3    0  502  0.33002479845E+01  0.16143428303E+01 -0.57081326081E+02  0.57199436419E+02  0.00000000000E+00 0.  1.
         11    1    5    5    0    0 -0.39943113776E+03  0.28268615325E+03  0.68307007242E+02  0.49408758564E+03  0.00000000000E+00 0. -1.
        -11    1    5    5    0    0 -0.13023408794E+02 -0.44096951164E+01  0.11040225091E+02  0.17633523689E+02  0.00000000000E+00 0.  1.
          1    1    6    6  503    0  0.14711005569E+03 -0.10296401136E+03 -0.29858454782E+03  0.34841884036E+03  0.00000000000E+00 0. -1.
         -1    1    6    6    0  503  0.65666463675E+02  0.19286882374E+02 -0.14164368087E+03  0.15731179426E+03  0.00000000000E+00 0.  1.
<mgrwt>
<rscale>  0 0.14120059E+04</rscale>
<asrwt>0</asrwt>
<pdfrwt beam="1">  1        2 0.21407564E+00 0.14120059E+04</pdfrwt>
<pdfrwt beam="2">  1       -1 0.55108562E-01 0.14120059E+04</pdfrwt>
<totfact> 0.53977385E+01</totfact>
</mgrwt>
</event>
<event>
12    6  0.1462228E-007  0.1753067E+04  0.7818608E-02  0.8731664E-01
          2   -1    0    0  501    0  0.00000000000E+00  0.00000000000E+00  0.15448429375E+04  0.15448429375E+04  0.00000000000E+00 0. -1.
         -1   -1    0    0    0  501 -0.00000000000E+00 -0.00000000000E+00 -0.49733946475E+03  0.49733946475E+03  0.00000000000E+00 0.  1.
         24    2    1    2    0    0  0.57357449760E+03 -0.10680850085E+03  0.71679434500E+03  0.92723120013E+03  0.74617727987E+02 0.  0.
        254    2    1    2    0    0 -0.57357449760E+03  0.10680850085E+03  0.33070912780E+03  0.11149512022E+04  0.89070303461E+03 0.  0.
         23    2    4    4    0    0 -0.25956406888E+03  0.29145247167E+03 -0.21336356419E+03  0.45368977907E+03  0.89399977699E+02 0.  0.
         23    2    4    4    0    0 -0.31401042872E+03 -0.18464397082E+03  0.54407269199E+03  0.66126142310E+03  0.92496649709E+02 0.  0.
          4    1    3    3  502    0  0.57049770510E+03 -0.11172080622E+03  0.70272820907E+03  0.91201760174E+03  0.00000000000E+00 0. -1.
         -3    1    3    3    0  502  0.30767925023E+01  0.49123053663E+01  0.14066135927E+02  0.15213598392E+02  0.00000000000E+00 0.  1.
         11    1    5    5    0    0 -0.13812046895E+03  0.21913266517E+03 -0.13635332703E+03  0.29272618380E+03  0.00000000000E+00 0. -1.
        -11    1    5    5    0    0 -0.12144359993E+03  0.72319806497E+02 -0.77010237168E+02  0.16096359528E+03  0.00000000000E+00 0.  1.
          3    1    6    6  503    0 -0.25284712365E+03 -0.18390837486E+03  0.47847501120E+03  0.57157002600E+03  0.00000000000E+00 0. -1.
         -3    1    6    6    0  503 -0.61163305066E+02 -0.73559595685E+00  0.65597680793E+02  0.89691397098E+02  0.00000000000E+00 0.  1.
<mgrwt>
<rscale>  0 0.17530674E+04</rscale>
<asrwt>0</asrwt>
<pdfrwt beam="1">  1        2 0.23766814E+00 0.17530674E+04</pdfrwt>
<pdfrwt beam="2">  1       -1 0.76513764E-01 0.17530674E+04</pdfrwt>
<totfact> 0.22166906E+01</totfact>
</mgrwt>
</event>
<event>
12    6  0.1462228E-007  0.1577494E+04  0.7818608E-02  0.8834495E-01
          2   -1    0    0  501    0  0.00000000000E+00  0.00000000000E+00  0.51195462656E+03  0.51195462656E+03  0.00000000000E+00 0. -1.
         -1   -1    0    0    0  501 -0.00000000000E+00 -0.00000000000E+00 -0.12151887627E+04  0.12151887627E+04  0.00000000000E+00 0.  1.
         24    2    1    2    0    0 -0.23977509844E+03 -0.23922934989E+03  0.16832531339E+03  0.38666548798E+03  0.80336845772E+02 0.  0.
        254    2    1    2    0    0  0.23977509844E+03  0.23922934989E+03 -0.87155944957E+03  0.13404779013E+04  0.96049068196E+03 0.  0.
         23    2    4    4    0    0 -0.14954215732E+03  0.18098682645E+03 -0.90050141294E+03  0.93513299868E+03  0.91933902073E+02 0.  0.
         23    2    4    4    0    0  0.38931725576E+03  0.58242523435E+02  0.28941963370E+02  0.40534490265E+03  0.92231966733E+02 0.  0.
          4    1    3    3  502    0 -0.16053581245E+03 -0.15809550271E+03  0.15270695019E+03  0.27218623715E+03  0.00000000000E+00 0. -1.
         -3    1    3    3    0  502 -0.79239285985E+02 -0.81133847183E+02  0.15618363194E+02  0.11447925083E+03  0.00000000000E+00 0.  1.
         11    1    5    5    0    0 -0.12343846996E+03  0.17277962875E+03 -0.66579267845E+03  0.69883456315E+03  0.00000000000E+00 0.  1.
        -11    1    5    5    0    0 -0.26103687364E+02  0.82071977000E+01 -0.23470873449E+03  0.23629843553E+03  0.00000000000E+00 0. -1.
          2    1    6    6  503    0  0.21267991797E+02 -0.13630550629E+01  0.24502404987E+02  0.32473885575E+02  0.00000000000E+00 0. -1.
         -2    1    6    6    0  503  0.36804926396E+03  0.59605578498E+02  0.44395583831E+01  0.37287101707E+03  0.00000000000E+00 0.  1.
<mgrwt>
<rscale>  0 0.15774936E+04</rscale>
<asrwt>0</asrwt>
<pdfrwt beam="1">  1        2 0.78762251E-01 0.15774936E+04</pdfrwt>
<pdfrwt beam="2">  1       -1 0.18695211E+00 0.15774936E+04</pdfrwt>
<totfact> 0.12210008E+01</totfact>
</mgrwt>
</event>
<event>
12    6  0.1462228E-007  0.1688199E+04  0.7818608E-02  0.8768124E-01
         -3   -1    0    0    0  501 -0.00000000000E+00  0.00000000000E+00  0.71130749792E+03  0.71130749792E+03  0.00000000000E+00 0.  1.
          4   -1    0    0  501    0  0.00000000000E+00 -0.00000000000E+00 -0.10016820028E+04  0.10016820028E+04  0.00000000000E+00 0. -1.
         24    2    1    2    0    0 -0.41485937176E+03 -0.13789441214E+03  0.26534224770E+03  0.51771785066E+03  0.80635582960E+02 0.  0.
        254    2    1    2    0    0  0.41485937176E+03  0.13789441214E+03 -0.55571675255E+03  0.11952716500E+04  0.96370640813E+03 0.  0.
         23    2    4    4    0    0  0.14387340028E+03 -0.40790110680E+03 -0.24823577554E+03  0.50722416360E+03  0.92587707880E+02 0.  0.
         23    2    4    4    0    0  0.27098597148E+03  0.54579551893E+03 -0.30748097701E+03  0.68804748643E+03  0.86825382991E+02 0.  0.
          2    1    3    3  502    0 -0.53582585170E+01 -0.23719619455E+00 -0.56098376924E+01  0.77612805196E+01  0.00000000000E+00 0. -1.
         -1    1    3    3    0  502 -0.40950111324E+03 -0.13765721594E+03  0.27095208540E+03  0.50995657014E+03  0.00000000000E+00 0.  1.
         11    1    5    5    0    0  0.72149123209E+02 -0.13682023699E+03 -0.13323578816E+03  0.20414957378E+03  0.00000000000E+00 0.  1.
        -11    1    5    5    0    0  0.71724277066E+02 -0.27108086981E+03 -0.11499998739E+03  0.30307458982E+03  0.00000000000E+00 0. -1.
          2    1    6    6  503    0 -0.43274149742E+01  0.11121424675E+02 -0.15386947358E+02  0.19472307418E+02  0.00000000000E+00 0. -1.
         -2    1    6    6    0  503  0.27531338646E+03  0.53467409426E+03 -0.29209402965E+03  0.66857517901E+03  0.00000000000E+00 0.  1.
<mgrwt>
<rscale>  0 0.16881989E+04</rscale>
<asrwt>0</asrwt>
<pdfrwt beam="1">  1        4 0.15410492E+00 0.16881989E+04</pdfrwt>
<pdfrwt beam="2">  1       -3 0.10943192E+00 0.16881989E+04</pdfrwt>
<totfact> 0.42593312E-01</totfact>
</mgrwt>
</event>
<event>
12    6  0.1462228E-007  0.3791504E+04  0.7818608E-02  0.8047981E-01
         -1   -1    0    0    0  501 -0.00000000000E+00  0.00000000000E+00  0.12555240488E+04  0.12555240488E+04  0.00000000000E+00 0.  1.
          2   -1    0    0  501    0  0.00000000000E+00 -0.00000000000E+00 -0.28624506902E+04  0.28624506902E+04  0.00000000000E+00 0. -1.
         24    2    1    2    0    0 -0.13519721471E+03 -0.61968154775E+03  0.10582202296E+04  0.12364322941E+04  0.81555232732E+02 0.  0.
        254    2    1    2    0    0  0.13519721471E+03  0.61968154775E+03 -0.26651468710E+04  0.28815424449E+04  0.89330594457E+03 0.  0.
         23    2    4    4    0    0 -0.66322359752E+02  0.47516223830E+03 -0.49480485453E+03  0.69516722932E+03  0.90817534403E+02 0.  0.
         23    2    4    4    0    0  0.20151957446E+03  0.14451930945E+03 -0.21703420164E+04  0.21863752156E+04  0.91411954257E+02 0.  0.
          4    1    3    3  502    0 -0.40251133182E+02 -0.10785276086E+03  0.24768230486E+03  0.27312798445E+03  0.00000000000E+00 0. -1.
         -3    1    3    3    0  502 -0.94946081527E+02 -0.51182878689E+03  0.81053792478E+03  0.96330430965E+03  0.00000000000E+00 0.  1.
         11    1    5    5    0    0 -0.25676963461E+02  0.13874709836E+03 -0.90481783843E+02  0.16762164825E+03  0.00000000000E+00 0.  1.
        -11    1    5    5    0    0 -0.40645396290E+02  0.33641513994E+03 -0.40432307068E+03  0.52754558107E+03  0.00000000000E+00 0. -1.
          3    1    6    6  503    0  0.13145393820E+03  0.43916325907E+02 -0.98339053892E+03  0.99310912472E+03  0.00000000000E+00 0. -1.
         -3    1    6    6    0  503  0.70065636266E+02  0.10060298354E+03 -0.11869514775E+04  0.11932660909E+04  0.00000000000E+00 0.  1.
<mgrwt>
<rscale>  0 0.37915040E+04</rscale>
<asrwt>0</asrwt>
<pdfrwt beam="1">  1        2 0.44037702E+00 0.37915040E+04</pdfrwt>
<pdfrwt beam="2">  1       -1 0.19315755E+00 0.37915040E+04</pdfrwt>
<totfact> 0.32407492E-01</totfact>
</mgrwt>
</event>
<event>
12    6  0.1462228E-007  0.1603511E+04  0.7818608E-02  0.8818394E-01
         -1   -1    0    0    0  501 -0.00000000000E+00  0.00000000000E+00  0.44908034993E+03  0.44908034993E+03  0.00000000000E+00 0.  1.
          2   -1    0    0  501    0  0.00000000000E+00 -0.00000000000E+00 -0.14313968013E+04  0.14313968013E+04  0.00000000000E+00 0. -1.
         24    2    1    2    0    0 -0.49348836493E+03  0.23612880987E+03 -0.45877121640E+03  0.71857521591E+03  0.81189474398E+02 0.  0.
        254    2    1    2    0    0  0.49348836493E+03 -0.23612880987E+03 -0.52354523499E+03  0.11619019353E+04  0.88126551792E+03 0.  0.
         23    2    4    4    0    0 -0.15109775408E+03 -0.23042962470E+03  0.50096463188E+02  0.29426964053E+03  0.90314021515E+02 0.  0.
         23    2    4    4    0    0  0.64458611902E+03 -0.56991851646E+01 -0.57364169818E+03  0.86763229480E+03  0.90538696467E+02 0.  0.
          4    1    3    3  502    0 -0.19737588312E+03  0.96408749279E+02 -0.23685694624E+03  0.32303730304E+03  0.00000000000E+00 0. -1.
         -3    1    3    3    0  502 -0.29611248182E+03  0.13972006059E+03 -0.22191427016E+03  0.39553791287E+03  0.00000000000E+00 0.  1.
         11    1    5    5    0    0 -0.80115536694E+02 -0.12277689750E+03 -0.19242215538E+02  0.14786118030E+03  0.00000000000E+00 0.  1.
        -11    1    5    5    0    0 -0.70982217387E+02 -0.10765272720E+03  0.69338678727E+02  0.14640846023E+03  0.00000000000E+00 0. -1.
          1    1    6    6  503    0  0.11070523227E+03  0.22537527988E+02 -0.13539676700E+03  0.17634021984E+03  0.00000000000E+00 0. -1.
         -1    1    6    6    0  503  0.53388088675E+03 -0.28236713153E+02 -0.43824493118E+03  0.69129207496E+03  0.00000000000E+00 0.  1.
<mgrwt>
<rscale>  0 0.16035114E+04</rscale>
<asrwt>0</asrwt>
<pdfrwt beam="1">  1        2 0.22021489E+00 0.16035114E+04</pdfrwt>
<pdfrwt beam="2">  1       -1 0.69089284E-01 0.16035114E+04</pdfrwt>
<totfact> 0.32152307E+01</totfact>
</mgrwt>
</event>
<event>
12    6  0.1462228E-007  0.2622785E+04  0.7818608E-02  0.8360503E-01
         -1   -1    0    0    0  501 -0.00000000000E+00  0.00000000000E+00  0.94382546255E+03  0.94382546255E+03  0.00000000000E+00 0.  1.
          2   -1    0    0  501    0  0.00000000000E+00 -0.00000000000E+00 -0.18221060251E+04  0.18221060251E+04  0.00000000000E+00 0. -1.
         24    2    1    2    0    0 -0.83147097726E+03  0.43513264353E+03  0.31681047874E+03  0.99455712687E+03  0.89947738618E+02 0.  0.
        254    2    1    2    0    0  0.83147097726E+03 -0.43513264353E+03 -0.11950910413E+04  0.17713743608E+04  0.91040657160E+03 0.  0.
         23    2    4    4    0    0  0.60201717364E+03  0.10542830622E+03 -0.27574803550E+03  0.67676528774E+03  0.91839373358E+02 0.  0.
         23    2    4    4    0    0  0.22945380361E+03 -0.54056094975E+03 -0.91934300581E+03  0.10946090731E+04  0.90123648969E+02 0.  0.
          4    1    3    3  502    0 -0.36796532632E+02  0.88238631228E+01  0.29860280854E+02  0.48202507682E+02  0.00000000000E+00 0. -1.
         -3    1    3    3    0  502 -0.79467444462E+03  0.42630878040E+03  0.28695019789E+03  0.94635461919E+03  0.00000000000E+00 0.  1.
         11    1    5    5    0    0  0.56725975542E+03  0.93094541049E+02 -0.23291360198E+03  0.62024105772E+03  0.00000000000E+00 0. -1.
        -11    1    5    5    0    0  0.34757418224E+02  0.12333765175E+02 -0.42834433523E+02  0.56524230027E+02  0.00000000000E+00 0.  1.
          4    1    6    6  503    0  0.19845451827E+03 -0.52049298507E+03 -0.85608529945E+03  0.10213614362E+04  0.00000000000E+00 0. -1.
         -4    1    6    6    0  503  0.30999285346E+02 -0.20067964684E+02 -0.63257706362E+02  0.73247636908E+02  0.00000000000E+00 0.  1.
<mgrwt>
<rscale>  0 0.26227848E+04</rscale>
<asrwt>0</asrwt>
<pdfrwt beam="1">  1        2 0.28032400E+00 0.26227848E+04</pdfrwt>
<pdfrwt beam="2">  1       -1 0.14520392E+00 0.26227848E+04</pdfrwt>
<totfact> 0.32086297E+00</totfact>
</mgrwt>
</event>
<event>
12    6  0.1816272E-007  0.2815659E+04  0.7818608E-02  0.8298423E-01
         -1   -1    0    0    0  501 -0.00000000000E+00  0.00000000000E+00  0.23155778449E+04  0.23155778449E+04  0.00000000000E+00 0.  1.
          2   -1    0    0  501    0  0.00000000000E+00 -0.00000000000E+00 -0.85593473920E+03  0.85593473920E+03  0.00000000000E+00 0. -1.
         24    2    1    2    0    0 -0.44690222387E+03  0.41841209663E+02 -0.66843724785E+03  0.80915997048E+03  0.80369266441E+02 0.  0.
        254    2    1    2    0    0  0.44690222387E+03 -0.41841209663E+02  0.21280803536E+04  0.23623526137E+04  0.92223185556E+03 0.  0.
         23    2    4    4    0    0  0.71706337501E+03 -0.63242079624E+02  0.17003262399E+04  0.18488047991E+04  0.93757233583E+02 0.  0.
         23    2    4    4    0    0 -0.27016115114E+03  0.21400869962E+02  0.42775411373E+03  0.51354781455E+03  0.85514508691E+02 0.  0.
          4    1    3    3  502    0 -0.42827783396E+03  0.43679328674E+02 -0.60168717362E+03  0.73983595595E+03  0.00000000000E+00 0. -1.
         -3    1    3    3    0  502 -0.18624389908E+02 -0.18381190114E+01 -0.66750074232E+02  0.69324014533E+02  0.00000000000E+00 0.  1.
         11    1    5    5    0    0  0.53989752474E+03 -0.33421295964E+02  0.11730991358E+04  0.12918079976E+04  0.00000000000E+00 0. -1.
        -11    1    5    5    0    0  0.17716585026E+03 -0.29820783660E+02  0.52722710408E+03  0.55699680153E+03  0.00000000000E+00 0.  1.
          2    1    6    6  503    0 -0.26996369501E+03  0.17836985760E+02  0.43089601986E+03  0.50879262437E+03  0.00000000000E+00 0. -1.
         -2    1    6    6    0  503 -0.19745613343E+00  0.35638842021E+01 -0.31419061295E+01  0.47551901810E+01  0.00000000000E+00 0.  1.
<mgrwt>
<rscale>  0 0.28156587E+04</rscale>
<asrwt>0</asrwt>
<pdfrwt beam="1">  1        2 0.13168227E+00 0.28156587E+04</pdfrwt>
<pdfrwt beam="2">  1       -1 0.35624274E+00 0.28156587E+04</pdfrwt>
<totfact> 0.43980770E-01</totfact>
</mgrwt>
</event>
<event>
12    6  0.1462228E-007  0.1750013E+04  0.7818608E-02  0.8733343E-01
          2   -1    0    0  501    0  0.00000000000E+00  0.00000000000E+00  0.19370247925E+04  0.19370247925E+04  0.00000000000E+00 0. -1.
         -1   -1    0    0    0  501 -0.00000000000E+00 -0.00000000000E+00 -0.39526393821E+03  0.39526393821E+03  0.00000000000E+00 0.  1.
         24    2    1    2    0    0  0.24125421416E+03  0.52303638665E+03  0.96123356801E+03  0.11233321200E+04  0.78322550016E+02 0.  0.
        254    2    1    2    0    0 -0.24125421416E+03 -0.52303638665E+03  0.58052728629E+03  0.12089566108E+04  0.89038952094E+03 0.  0.
         23    2    4    4    0    0 -0.45744954953E+03 -0.58094196838E+03  0.22414463061E+03  0.77807623334E+03  0.91695956649E+02 0.  0.
         23    2    4    4    0    0  0.21619533537E+03  0.57905581729E+02  0.35638265568E+03  0.43088037743E+03  0.92497691625E+02 0.  0.
          4    1    3    3  502    0  0.13961151992E+02  0.96199856528E+02  0.17895189493E+03  0.20364947056E+03  0.00000000000E+00 0. -1.
         -3    1    3    3    0  502  0.22729306217E+03  0.42683653012E+03  0.78228167308E+03  0.91968264939E+03  0.00000000000E+00 0.  1.
         11    1    5    5    0    0 -0.70606795507E-02 -0.12001068773E+02 -0.48900151456E+01  0.12959087533E+02  0.00000000000E+00 0. -1.
        -11    1    5    5    0    0 -0.45744248885E+03 -0.56894089961E+03  0.22903464576E+03  0.76511714581E+03  0.00000000000E+00 0.  1.
          4    1    6    6  503    0  0.17672252542E+03  0.41482262622E+02  0.33936682866E+03  0.38486552652E+03  0.00000000000E+00 0. -1.
         -4    1    6    6    0  503  0.39472809946E+02  0.16423319108E+02  0.17015827013E+02  0.46014850912E+02  0.00000000000E+00 0.  1.
<mgrwt>
<rscale>  0 0.17500126E+04</rscale>
<asrwt>0</asrwt>
<pdfrwt beam="1">  1        2 0.29800381E+00 0.17500126E+04</pdfrwt>
<pdfrwt beam="2">  1       -1 0.60809838E-01 0.17500126E+04</pdfrwt>
<totfact> 0.21441445E+01</totfact>
</mgrwt>
</event>
<event>
12    6  0.1462228E-007  0.2081995E+04  0.7818608E-02  0.8569217E-01
          4   -1    0    0  501    0  0.00000000000E+00  0.00000000000E+00  0.12628452366E+04  0.12628452366E+04  0.00000000000E+00 0. -1.
         -3   -1    0    0    0  501 -0.00000000000E+00 -0.00000000000E+00 -0.85812221747E+03  0.85812221747E+03  0.00000000000E+00 0.  1.
         24    2    1    2    0    0  0.11601737500E+03 -0.72282880457E+03  0.59570039025E+03  0.94723389154E+03  0.80321717560E+02 0.  0.
        254    2    1    2    0    0 -0.11601737500E+03  0.72282880457E+03 -0.19097737109E+03  0.11737335626E+04  0.89734976881E+03 0.  0.
         23    2    4    4    0    0  0.20647519035E+03  0.30706538920E+03  0.27073760912E+03  0.46745393163E+03  0.91066831126E+02 0.  0.
         23    2    4    4    0    0 -0.32249256536E+03  0.41576341538E+03 -0.46171498022E+03  0.70627963093E+03  0.93752449723E+02 0.  0.
          4    1    3    3  502    0  0.65062275192E+02 -0.58847557874E+03  0.46238757909E+03  0.75122491952E+03  0.00000000000E+00 0. -1.
         -3    1    3    3    0  502  0.50955099809E+02 -0.13435322584E+03  0.13331281116E+03  0.19600897201E+03  0.00000000000E+00 0.  1.
         11    1    5    5    0    0  0.56545801552E+01  0.67730682657E+02  0.37995154895E+02  0.77865598601E+02  0.00000000000E+00 0. -1.
        -11    1    5    5    0    0  0.20082061020E+03  0.23933470654E+03  0.23274245423E+03  0.38958833303E+03  0.00000000000E+00 0.  1.
          3    1    6    6  503    0 -0.42137109326E+02  0.23528127976E+02 -0.70291403788E+02  0.85264237725E+02  0.00000000000E+00 0. -1.
         -3    1    6    6    0  503 -0.28035545603E+03  0.39223528740E+03 -0.39142357643E+03  0.62101539320E+03  0.00000000000E+00 0.  1.
<mgrwt>
<rscale>  0 0.20819948E+04</rscale>
<asrwt>0</asrwt>
<pdfrwt beam="1">  1        4 0.19428388E+00 0.20819948E+04</pdfrwt>
<pdfrwt beam="2">  1       -3 0.13201880E+00 0.20819948E+04</pdfrwt>
<totfact> 0.13511538E-01</totfact>
</mgrwt>
</event>
<event>
12    6  0.1462228E-007  0.1954530E+04  0.7818608E-02  0.8628179E-01
         -1   -1    0    0    0  501 -0.00000000000E+00  0.00000000000E+00  0.17874477098E+04  0.17874477098E+04  0.00000000000E+00 0.  1.
          2   -1    0    0  501    0  0.00000000000E+00 -0.00000000000E+00 -0.53430759437E+03  0.53430759437E+03  0.00000000000E+00 0. -1.
         24    2    1    2    0    0 -0.49396252027E+03  0.45649241611E+03  0.93719601480E+03  0.11563003124E+04  0.79433902048E+02 0.  0.
        254    2    1    2    0    0  0.49396252027E+03 -0.45649241611E+03  0.31594410061E+03  0.11654549918E+04  0.89781978470E+03 0.  0.
         23    2    4    4    0    0 -0.18378420938E+03 -0.17491263422E+03 -0.13278669013E+03  0.30038278447E+03  0.90699762418E+02 0.  0.
         23    2    4    4    0    0  0.67774672966E+03 -0.28157978189E+03  0.44873079075E+03  0.86507220732E+03  0.91448336196E+02 0.  0.
          4    1    3    3  502    0 -0.19338353438E+03  0.13084327698E+03  0.34709081641E+03  0.41831709185E+03  0.00000000000E+00 0. -1.
         -3    1    3    3    0  502 -0.30057898590E+03  0.32564913913E+03  0.59010519839E+03  0.73798322050E+03  0.00000000000E+00 0.  1.
         11    1    5    5    0    0 -0.44406734255E+02 -0.72225987731E+02 -0.86628070867E+02  0.12121457838E+03  0.00000000000E+00 0. -1.
        -11    1    5    5    0    0 -0.13937747513E+03 -0.10268664649E+03 -0.46158619267E+02  0.17916820609E+03  0.00000000000E+00 0.  1.
          2    1    6    6  503    0  0.15163332028E+03 -0.10569950257E+03  0.11467817068E+03  0.21752271489E+03  0.00000000000E+00 0. -1.
         -2    1    6    6    0  503  0.52611340938E+03 -0.17588027932E+03  0.33405262007E+03  0.64754949244E+03  0.00000000000E+00 0.  1.
<mgrwt>
<rscale>  0 0.19545300E+04</rscale>
<asrwt>0</asrwt>
<pdfrwt beam="1">  1        2 0.82201169E-01 0.19545300E+04</pdfrwt>
<pdfrwt beam="2">  1       -1 0.27499195E+00 0.19545300E+04</pdfrwt>
<totfact> 0.29112495E+00</totfact>
</mgrwt>
</event>
<event>
12    6  0.1462228E-007  0.2925464E+04  0.7818608E-02  0.8265341E-01
          2   -1    0    0  501    0  0.00000000000E+00  0.00000000000E+00  0.28118459748E+04  0.28118459748E+04  0.00000000000E+00 0. -1.
         -1   -1    0    0    0  501 -0.00000000000E+00 -0.00000000000E+00 -0.76091833841E+03  0.76091833841E+03  0.00000000000E+00 0.  1.
         24    2    1    2    0    0  0.19950129730E+03  0.10321765586E+04  0.19161798567E+04  0.21871236434E+04  0.81088671094E+02 0.  0.
        254    2    1    2    0    0 -0.19950129730E+03 -0.10321765586E+04  0.13474777972E+03  0.13856406698E+04  0.89255469638E+03 0.  0.
         23    2    4    4    0    0  0.29274677327E+03 -0.48062502742E+03 -0.14705332321E+03  0.58900318651E+03  0.92730704775E+02 0.  0.
         23    2    4    4    0    0 -0.49224807057E+03 -0.55155153117E+03  0.28180110293E+03  0.79663748333E+03  0.93285388476E+02 0.  0.
          4    1    3    3  502    0  0.20034825625E+03  0.94293069058E+03  0.17808226998E+04  0.20249906664E+04  0.00000000000E+00 0. -1.
         -3    1    3    3    0  502 -0.84695894642E+00  0.89245868018E+02  0.13535715688E+03  0.16213297695E+03  0.00000000000E+00 0.  1.
         11    1    5    5    0    0  0.43735829982E+02 -0.14052580627E+03 -0.57962953148E+02  0.15817720756E+03  0.00000000000E+00 0. -1.
        -11    1    5    5    0    0  0.24901094329E+03 -0.34009922115E+03 -0.89090370061E+02  0.43082597896E+03  0.00000000000E+00 0.  1.
          3    1    6    6  503    0 -0.34919601015E+03 -0.33889672456E+03  0.15504842157E+03  0.51071406526E+03  0.00000000000E+00 0. -1.
         -3    1    6    6    0  503 -0.14305206043E+03 -0.21265480661E+03  0.12675268136E+03  0.28592341807E+03  0.00000000000E+00 0.  1.
<mgrwt>
<rscale>  0 0.29254642E+04</rscale>
<asrwt>0</asrwt>
<pdfrwt beam="1">  1        2 0.43259168E+00 0.29254642E+04</pdfrwt>
<pdfrwt beam="2">  1       -1 0.11706436E+00 0.29254642E+04</pdfrwt>
<totfact> 0.14632748E+00</totfact>
</mgrwt>
</event>
<event>
12    6  0.1462228E-007  0.1211776E+04  0.7818608E-02  0.9102611E-01
         -1   -1    0    0    0  501 -0.00000000000E+00  0.00000000000E+00  0.47368032141E+03  0.47368032141E+03  0.00000000000E+00 0.  1.
          2   -1    0    0  501    0  0.00000000000E+00 -0.00000000000E+00 -0.77499607869E+03  0.77499607869E+03  0.00000000000E+00 0. -1.
         24    2    1    2    0    0  0.72191382143E+02  0.82782454253E+02  0.17720180629E+03  0.22291959660E+03  0.78918540313E+02 0.  0.
        254    2    1    2    0    0 -0.72191382143E+02 -0.82782454253E+02 -0.47851756357E+03  0.10257568035E+04  0.90062946371E+03 0.  0.
         23    2    4    4    0    0  0.36795565499E+03 -0.59844543510E+02 -0.21636193813E+02  0.38423518506E+03  0.90530763438E+02 0.  0.
         23    2    4    4    0    0 -0.44014703713E+03 -0.22937910742E+02 -0.45688136976E+03  0.64152161845E+03  0.92486965894E+02 0.  0.
          2    1    3    3  502    0 -0.49378738173E+01  0.62910026909E+01  0.69471927367E+02  0.69930737196E+02  0.00000000000E+00 0. -1.
         -1    1    3    3    0  502  0.77129255961E+02  0.76491451562E+02  0.10772987893E+03  0.15298885940E+03  0.00000000000E+00 0.  1.
         11    1    5    5    0    0  0.34898542091E+03 -0.68879330312E+02 -0.37806788615E+02  0.35772131530E+03  0.00000000000E+00 0. -1.
        -11    1    5    5    0    0  0.18970234077E+02  0.90347868017E+01  0.16170594802E+02  0.26513869762E+02  0.00000000000E+00 0.  1.
          3    1    6    6  503    0 -0.34351188232E+03  0.18373319920E+02 -0.36950340167E+03  0.50484726009E+03  0.00000000000E+00 0. -1.
         -3    1    6    6    0  503 -0.96635154815E+02 -0.41311230662E+02 -0.87377968093E+02  0.13667435836E+03  0.00000000000E+00 0.  1.
<mgrwt>
<rscale>  0 0.12117762E+04</rscale>
<asrwt>0</asrwt>
<pdfrwt beam="1">  1        2 0.11923016E+00 0.12117762E+04</pdfrwt>
<pdfrwt beam="2">  1       -1 0.72873897E-01 0.12117762E+04</pdfrwt>
<totfact> 0.76811906E+01</totfact>
</mgrwt>
</event>
<event>
12    6  0.1462228E-007  0.2450438E+04  0.7818608E-02  0.8420858E-01
         -1   -1    0    0    0  501 -0.00000000000E+00  0.00000000000E+00  0.76045678421E+03  0.76045678421E+03  0.00000000000E+00 0.  1.
          2   -1    0    0  501    0  0.00000000000E+00 -0.00000000000E+00 -0.19740265685E+04  0.19740265685E+04  0.00000000000E+00 0. -1.
         24    2    1    2    0    0  0.90708724831E+03  0.17901622749E+03  0.77283921140E+02  0.93108630680E+03  0.78069331267E+02 0.  0.
        254    2    1    2    0    0 -0.90708724831E+03 -0.17901622749E+03 -0.12908537054E+04  0.18033970459E+04  0.85503422774E+03 0.  0.
         23    2    4    4    0    0 -0.43640572020E+03  0.74587313554E+02 -0.56599188211E+02  0.45530531218E+03  0.89923518763E+02 0.  0.
         23    2    4    4    0    0 -0.47068152811E+03 -0.25360354104E+03 -0.12342545172E+04  0.13480917337E+04  0.90062491284E+02 0.  0.
          4    1    3    3  502    0  0.32677143810E+03  0.93971872042E+02  0.42438424389E+01  0.34004160877E+03  0.00000000000E+00 0. -1.
         -3    1    3    3    0  502  0.58031581021E+03  0.85044355446E+02  0.73040078701E+02  0.59104469803E+03  0.00000000000E+00 0.  1.
         11    1    5    5    0    0 -0.83662575395E+01  0.11767758502E+02 -0.14783326325E+02  0.20664489895E+02  0.00000000000E+00 0. -1.
        -11    1    5    5    0    0 -0.42803946266E+03  0.62819555052E+02 -0.41815861887E+02  0.43464082229E+03  0.00000000000E+00 0.  1.
          3    1    6    6  503    0 -0.10168182882E+03 -0.89724568850E+02 -0.25378410503E+03  0.28774305297E+03  0.00000000000E+00 0. -1.
         -3    1    6    6    0  503 -0.36899969929E+03 -0.16387897219E+03 -0.98047041218E+03  0.10603486808E+04  0.00000000000E+00 0.  1.
<mgrwt>
<rscale>  0 0.24504382E+04</rscale>
<asrwt>0</asrwt>
<pdfrwt beam="1">  1        2 0.30369639E+00 0.24504382E+04</pdfrwt>
<pdfrwt beam="2">  1       -1 0.11699335E+00 0.24504382E+04</pdfrwt>
<totfact> 0.46354150E+00</totfact>
</mgrwt>
</event>
<event>
12    6  0.1462228E-007  0.1774908E+04  0.7818608E-02  0.8719758E-01
          2   -1    0    0  501    0  0.00000000000E+00  0.00000000000E+00  0.19618914581E+04  0.19618914581E+04  0.00000000000E+00 0. -1.
         -1   -1    0    0    0  501 -0.00000000000E+00 -0.00000000000E+00 -0.40143631293E+03  0.40143631293E+03  0.00000000000E+00 0.  1.
         24    2    1    2    0    0 -0.59046532122E+03 -0.19725920769E+03  0.84331811050E+03  0.10525227408E+04  0.95174543648E+02 0.  0.
        254    2    1    2    0    0  0.59046532122E+03  0.19725920769E+03  0.71713703464E+03  0.13108050302E+04  0.90352853318E+03 0.  0.
         23    2    4    4    0    0  0.19444490957E+03  0.51918972638E+03  0.48814026232E+03  0.74422300317E+03  0.90665141628E+02 0.  0.
         23    2    4    4    0    0  0.39602041165E+03 -0.32193051869E+03  0.22899677232E+03  0.56658202707E+03  0.90023587795E+02 0.  0.
          4    1    3    3  502    0 -0.40431474061E+03 -0.14662249560E+03  0.50738459863E+03  0.66513735169E+03  0.00000000000E+00 0. -1.
         -3    1    3    3    0  502 -0.18615058061E+03 -0.50636712098E+02  0.33593351188E+03  0.38738538908E+03  0.00000000000E+00 0.  1.
         11    1    5    5    0    0 -0.89463469916E+01  0.31604256038E+02  0.20817097630E+02  0.38887243126E+02  0.00000000000E+00 0. -1.
        -11    1    5    5    0    0  0.20339125656E+03  0.48758547035E+03  0.46732316469E+03  0.70533576004E+03  0.00000000000E+00 0.  1.
          2    1    6    6  503    0  0.16170329011E+03 -0.17656204890E+03  0.75779544416E+02  0.25112676181E+03  0.00000000000E+00 0. -1.
         -2    1    6    6    0  503  0.23431712153E+03 -0.14536846979E+03  0.15321722790E+03  0.31545526526E+03  0.00000000000E+00 0.  1.
<mgrwt>
<rscale>  0 0.17749079E+04</rscale>
<asrwt>0</asrwt>
<pdfrwt beam="1">  1        2 0.30182945E+00 0.17749079E+04</pdfrwt>
<pdfrwt beam="2">  1       -1 0.61759434E-01 0.17749079E+04</pdfrwt>
<totfact> 0.20098098E+01</totfact>
</mgrwt>
</event>
<event>
12    6  0.1462228E-007  0.1320752E+04  0.7818608E-02  0.9013268E-01
         -1   -1    0    0    0  501 -0.00000000000E+00  0.00000000000E+00  0.67840995908E+03  0.67840995908E+03  0.00000000000E+00 0.  1.
          2   -1    0    0  501    0  0.00000000000E+00 -0.00000000000E+00 -0.64282160844E+03  0.64282160844E+03  0.00000000000E+00 0. -1.
         24    2    1    2    0    0 -0.15350552080E+03 -0.84802820930E+02 -0.29134190623E+03  0.34890413049E+03  0.78093038064E+02 0.  0.
        254    2    1    2    0    0  0.15350552080E+03  0.84802820930E+02  0.32693025687E+03  0.97232743703E+03  0.89876681547E+03 0.  0.
         23    2    4    4    0    0  0.49011817582E+03 -0.53329423860E+02  0.32348064974E+03  0.59701952078E+03  0.93449043406E+02 0.  0.
         23    2    4    4    0    0 -0.33661265502E+03  0.13813224479E+03  0.34496071229E+01  0.37530791625E+03  0.91953986556E+02 0.  0.
          4    1    3    3  502    0 -0.57062590466E+02 -0.13460544682E+02 -0.16301536406E+03  0.17323779730E+03  0.00000000000E+00 0. -1.
         -3    1    3    3    0  502 -0.96442930331E+02 -0.71342276247E+02 -0.12832654217E+03  0.17566633319E+03  0.00000000000E+00 0.  1.
         11    1    5    5    0    0  0.18018739347E+03 -0.20095385614E+01  0.69849707218E+02  0.19326281745E+03  0.00000000000E+00 0. -1.
        -11    1    5    5    0    0  0.30993078235E+03 -0.51319885299E+02  0.25363094253E+03  0.40375670333E+03  0.00000000000E+00 0.  1.
          3    1    6    6  503    0  0.33202330084E+01  0.26085040425E+01  0.83124417998E+01  0.93233539697E+01  0.00000000000E+00 0. -1.
         -3    1    6    6    0  503 -0.33993288803E+03  0.13552374075E+03 -0.48628346769E+01  0.36598456229E+03  0.00000000000E+00 0.  1.
<mgrwt>
<rscale>  0 0.13207522E+04</rscale>
<asrwt>0</asrwt>
<pdfrwt beam="1">  1        2 0.98895632E-01 0.13207522E+04</pdfrwt>
<pdfrwt beam="2">  1       -1 0.10437076E+00 0.13207522E+04</pdfrwt>
<totfact> 0.44033803E+01</totfact>
</mgrwt>
</event>
<event>
12    6  0.1462228E-007  0.1431969E+04  0.7818608E-02  0.8930998E-01
         -1   -1    0    0    0  501 -0.00000000000E+00  0.00000000000E+00  0.35775363342E+03  0.35775363342E+03  0.00000000000E+00 0.  1.
          2   -1    0    0  501    0  0.00000000000E+00 -0.00000000000E+00 -0.14329234831E+04  0.14329234831E+04  0.00000000000E+00 0. -1.
         24    2    1    2    0    0  0.83970674109E+02 -0.16432209365E+03  0.15785356336E+03  0.25321244453E+03  0.71735416821E+02 0.  0.
        254    2    1    2    0    0 -0.83970674109E+02  0.16432209365E+03 -0.12330234131E+04  0.15374646720E+04  0.89966552451E+03 0.  0.
         23    2    4    4    0    0  0.26865732181E+03  0.39158455041E+03 -0.56559624181E+03  0.74406689322E+03  0.90670922317E+02 0.  0.
         23    2    4    4    0    0 -0.35262799592E+03 -0.22726245676E+03 -0.66742717125E+03  0.79339777880E+03  0.89589501223E+02 0.  0.
          4    1    3    3  502    0  0.82812577158E+02 -0.15716591628E+03  0.11931486190E+03  0.21399786084E+03  0.00000000000E+00 0. -1.
         -3    1    3    3    0  502  0.11580969516E+01 -0.71561773666E+01  0.38538701461E+02  0.39214583682E+02  0.00000000000E+00 0.  1.
         11    1    5    5    0    0  0.19003755226E+03  0.31605838575E+03 -0.48081028269E+03  0.60595849892E+03  0.00000000000E+00 0. -1.
        -11    1    5    5    0    0  0.78619769545E+02  0.75526164665E+02 -0.84785959115E+02  0.13810839430E+03  0.00000000000E+00 0.  1.
          2    1    6    6  503    0 -0.14697500752E+03 -0.14709940293E+03 -0.33885509398E+03  0.39757095203E+03  0.00000000000E+00 0. -1.
         -2    1    6    6    0  503 -0.20565298839E+03 -0.80163053835E+02 -0.32857207727E+03  0.39582682677E+03  0.00000000000E+00 0.  1.
<mgrwt>
<rscale>  0 0.14319687E+04</rscale>
<asrwt>0</asrwt>
<pdfrwt beam="1">  1        2 0.22044977E+00 0.14319687E+04</pdfrwt>
<pdfrwt beam="2">  1       -1 0.55039021E-01 0.14319687E+04</pdfrwt>
<totfact> 0.51158985E+01</totfact>
</mgrwt>
</event>
<event>
12    6  0.1462228E-007  0.1496320E+04  0.7818608E-02  0.8886904E-01
          2   -1    0    0  501    0  0.00000000000E+00  0.00000000000E+00  0.51059093270E+03  0.51059093270E+03  0.00000000000E+00 0. -1.
         -1   -1    0    0    0  501 -0.00000000000E+00 -0.00000000000E+00 -0.10962652522E+04  0.10962652522E+04  0.00000000000E+00 0.  1.
         24    2    1    2    0    0  0.62507010194E+02  0.30578601549E+03 -0.56442549854E+03  0.64990900806E+03  0.79958500234E+02 0.  0.
        254    2    1    2    0    0 -0.62507010194E+02 -0.30578601549E+03 -0.21248820965E+02  0.95694717685E+03  0.90436948937E+03 0.  0.
         23    2    4    4    0    0 -0.78279562750E+02  0.12104077889E+03 -0.36396427634E+03  0.40199928920E+03  0.91404999654E+02 0.  0.
         23    2    4    4    0    0  0.15772552556E+02 -0.42682679438E+03  0.34271545538E+03  0.55494788765E+03  0.89907668422E+02 0.  0.
          2    1    3    3  502    0 -0.11118919231E+02  0.67249547337E+01 -0.13500594846E+02  0.18738234768E+02  0.00000000000E+00 0. -1.
         -3    1    3    3    0  502  0.73625929425E+02  0.29906106076E+03 -0.55092490369E+03  0.63117077329E+03  0.00000000000E+00 0.  1.
         11    1    5    5    0    0  0.11051671078E+02  0.51245627702E+02 -0.16352446889E+03  0.17172217596E+03  0.00000000000E+00 0. -1.
        -11    1    5    5    0    0 -0.89331233829E+02  0.69795151187E+02 -0.20043980746E+03  0.23027711323E+03  0.00000000000E+00 0.  1.
          3    1    6    6  503    0  0.94023624468E+01 -0.40864184659E+03  0.29676138020E+03  0.50511768924E+03  0.00000000000E+00 0. -1.
         -3    1    6    6    0  503  0.63701901096E+01 -0.18184947786E+02  0.45954075184E+02  0.49830198415E+02  0.00000000000E+00 0.  1.
<mgrwt>
<rscale>  0 0.14963196E+04</rscale>
<asrwt>0</asrwt>
<pdfrwt beam="1">  1        2 0.78552452E-01 0.14963196E+04</pdfrwt>
<pdfrwt beam="2">  1       -1 0.16865619E+00 0.14963196E+04</pdfrwt>
<totfact> 0.16712700E+01</totfact>
</mgrwt>
</event>
<event>
12    6  0.1462228E-007  0.1424041E+04  0.7818608E-02  0.8936598E-01
          2   -1    0    0  501    0  0.00000000000E+00  0.00000000000E+00  0.14144095801E+04  0.14144095801E+04  0.00000000000E+00 0. -1.
         -1   -1    0    0    0  501 -0.00000000000E+00 -0.00000000000E+00 -0.35843425877E+03  0.35843425877E+03  0.00000000000E+00 0.  1.
         24    2    1    2    0    0 -0.36478646281E+03 -0.17999203416E+03  0.46129099151E+03  0.62005444177E+03  0.78815202215E+02 0.  0.
        254    2    1    2    0    0  0.36478646281E+03  0.17999203416E+03  0.59468432978E+03  0.11527893971E+04  0.89989313036E+03 0.  0.
         23    2    4    4    0    0  0.46645726355E+02 -0.30774593175E+03  0.43311415562E+03  0.54104968246E+03  0.90903821693E+02 0.  0.
         23    2    4    4    0    0  0.31814073645E+03  0.48773796591E+03  0.16157017416E+03  0.61173971459E+03  0.94966866087E+02 0.  0.
          4    1    3    3  502    0 -0.30827325864E+02 -0.12831161335E+02  0.78293307916E+02  0.85116419013E+02  0.00000000000E+00 0. -1.
         -3    1    3    3    0  502 -0.33395913695E+03 -0.16716087283E+03  0.38299768360E+03  0.53493802276E+03  0.00000000000E+00 0.  1.
         11    1    5    5    0    0  0.43510015900E+02 -0.31047352131E+03  0.43522848275E+03  0.53638676448E+03  0.00000000000E+00 0. -1.
        -11    1    5    5    0    0  0.31357104545E+01  0.27275895587E+01 -0.21143271300E+01  0.46629179778E+01  0.00000000000E+00 0.  1.
          3    1    6    6  503    0  0.69933686952E+02  0.18772336322E+03  0.64341035856E+02  0.21040568092E+03  0.00000000000E+00 0.  1.
         -3    1    6    6    0  503  0.24820704950E+03  0.30001460269E+03  0.97229138300E+02  0.40133403368E+03  0.00000000000E+00 0. -1.
<mgrwt>
<rscale>  0 0.14240405E+04</rscale>
<asrwt>0</asrwt>
<pdfrwt beam="1">  1        2 0.21760147E+00 0.14240405E+04</pdfrwt>
<pdfrwt beam="2">  1       -1 0.55143733E-01 0.14240405E+04</pdfrwt>
<totfact> 0.52257850E+01</totfact>
</mgrwt>
</event>
<event>
12    6  0.1462228E-007  0.1716467E+04  0.7818608E-02  0.8752028E-01
          2   -1    0    0  501    0  0.00000000000E+00  0.00000000000E+00  0.17674017314E+04  0.17674017314E+04  0.00000000000E+00 0. -1.
         -1   -1    0    0    0  501 -0.00000000000E+00 -0.00000000000E+00 -0.41675024815E+03  0.41675024815E+03  0.00000000000E+00 0.  1.
         24    2    1    2    0    0  0.77473886553E+02 -0.89941088226E+02 -0.28503692485E+03  0.31863417870E+03  0.78677117775E+02 0.  0.
        254    2    1    2    0    0 -0.77473886553E+02  0.89941088226E+02  0.16356884081E+04  0.18655178008E+04  0.88915043410E+03 0.  0.
         23    2    4    4    0    0 -0.22860966096E+03 -0.24412146711E+03  0.13438825879E+04  0.13880761917E+04  0.94220147566E+02 0.  0.
         23    2    4    4    0    0  0.15113577440E+03  0.33406255534E+03  0.29180582019E+03  0.47744160911E+03  0.91433255607E+02 0.  0.
          4    1    3    3  502    0  0.33357467825E+02 -0.90992071690E+02 -0.21531677488E+03  0.23612198397E+03  0.00000000000E+00 0. -1.
         -3    1    3    3    0  502  0.44116418728E+02  0.10509834631E+01 -0.69720149966E+02  0.82512194729E+02  0.00000000000E+00 0.  1.
         11    1    5    5    0    0 -0.13301660239E+03 -0.19736702636E+03  0.10090855637E+04  0.10367742447E+04  0.00000000000E+00 0.  1.
        -11    1    5    5    0    0 -0.95593058564E+02 -0.46754440755E+02  0.33479702418E+03  0.35130194702E+03  0.00000000000E+00 0. -1.
          1    1    6    6  503    0  0.67467401140E+02  0.57628370009E+02  0.77315483377E+02  0.11768841581E+03  0.00000000000E+00 0. -1.
         -1    1    6    6    0  503  0.83668373263E+02  0.27643418533E+03  0.21449033681E+03  0.35975319330E+03  0.00000000000E+00 0.  1.
<mgrwt>
<rscale>  0 0.17164674E+04</rscale>
<asrwt>0</asrwt>
<pdfrwt beam="1">  1        2 0.27190795E+00 0.17164674E+04</pdfrwt>
<pdfrwt beam="2">  1       -1 0.64115424E-01 0.17164674E+04</pdfrwt>
<totfact> 0.24022588E+01</totfact>
</mgrwt>
</event>
<event>
12    6  0.1462228E-007  0.2686581E+04  0.7818608E-02  0.8339372E-01
          2   -1    0    0  501    0  0.00000000000E+00  0.00000000000E+00  0.21233658691E+04  0.21233658691E+04  0.00000000000E+00 0. -1.
         -1   -1    0    0    0  501 -0.00000000000E+00 -0.00000000000E+00 -0.84979657773E+03  0.84979657773E+03  0.00000000000E+00 0.  1.
         24    2    1    2    0    0 -0.10060460301E+04  0.56642454603E+03  0.23764055091E+03  0.11809531551E+04  0.72193780576E+02 0.  0.
        254    2    1    2    0    0  0.10060460301E+04 -0.56642454603E+03  0.10359287404E+04  0.17922092917E+04  0.89771956037E+03 0.  0.
         23    2    4    4    0    0  0.52689702663E+03 -0.73567228221E+03  0.46377937010E+03  0.10212902180E+04  0.95437004260E+02 0.  0.
         23    2    4    4    0    0  0.47914900348E+03  0.16924773618E+03  0.57214937034E+03  0.77091907373E+03  0.93449197547E+02 0.  0.
          4    1    3    3  502    0 -0.44044757699E+03  0.25396696707E+03  0.68499942213E+02  0.51301611137E+03  0.00000000000E+00 0. -1.
         -3    1    3    3    0  502 -0.56559845312E+03  0.31245757897E+03  0.16914060870E+03  0.66793704370E+03  0.00000000000E+00 0.  1.
         11    1    5    5    0    0 -0.11172036845E+00 -0.76842615046E+01  0.14756805988E+02  0.16638019092E+02  0.00000000000E+00 0. -1.
        -11    1    5    5    0    0  0.52700874700E+03 -0.72798802071E+03  0.44902256411E+03  0.10046521989E+04  0.00000000000E+00 0.  1.
          2    1    6    6  503    0  0.36355777892E+03  0.14874516502E+03  0.38517139888E+03  0.55014215367E+03  0.00000000000E+00 0.  1.
         -2    1    6    6    0  503  0.11559122456E+03  0.20502571161E+02  0.18697797146E+03  0.22077692006E+03  0.00000000000E+00 0. -1.
<mgrwt>
<rscale>  0 0.26865808E+04</rscale>
<asrwt>0</asrwt>
<pdfrwt beam="1">  1        2 0.32667167E+00 0.26865808E+04</pdfrwt>
<pdfrwt beam="2">  1       -1 0.13073794E+00 0.26865808E+04</pdfrwt>
<totfact> 0.28472929E+00</totfact>
</mgrwt>
</event>
<event>
12    6  0.1462228E-007  0.1043154E+04  0.7818608E-02  0.9262441E-01
          2   -1    0    0  501    0  0.00000000000E+00  0.00000000000E+00  0.12985893905E+04  0.12985893905E+04  0.00000000000E+00 0. -1.
         -1   -1    0    0    0  501 -0.00000000000E+00 -0.00000000000E+00 -0.20949082929E+03  0.20949082929E+03  0.00000000000E+00 0.  1.
         24    2    1    2    0    0  0.48543519873E+02 -0.97900266871E+02  0.18017263407E+03  0.22482818200E+03  0.78387484846E+02 0.  0.
        254    2    1    2    0    0 -0.48543519873E+02  0.97900266871E+02  0.90892592710E+03  0.12832520377E+04  0.89924886203E+03 0.  0.
         23    2    4    4    0    0  0.26991613966E+03  0.84292538834E+02 -0.19147142904E+02  0.29774033775E+03  0.91229058390E+02 0.  0.
         23    2    4    4    0    0 -0.31845965953E+03  0.13607728037E+02  0.92807307000E+03  0.98551169999E+03  0.91169965182E+02 0.  0.
          2    1    3    3  502    0  0.14127435756E+02 -0.53255291361E+02  0.15226639035E+03  0.16192826847E+03  0.00000000000E+00 0. -1.
         -1    1    3    3    0  502  0.34416084117E+02 -0.44644975509E+02  0.27906243719E+02  0.62899913535E+02  0.00000000000E+00 0.  1.
         11    1    5    5    0    0  0.69723429240E+02 -0.72365950918E+01  0.22683397031E+02  0.73676735774E+02  0.00000000000E+00 0.  1.
        -11    1    5    5    0    0  0.20019271042E+03  0.91529133926E+02 -0.41830539935E+02  0.22406360198E+03  0.00000000000E+00 0. -1.
          3    1    6    6  503    0 -0.21885085240E+03  0.51071070112E+02  0.60739255370E+03  0.64763389665E+03  0.00000000000E+00 0. -1.
         -3    1    6    6    0  503 -0.99608807131E+02 -0.37463342076E+02  0.32068051631E+03  0.33787780335E+03  0.00000000000E+00 0.  1.
<mgrwt>
<rscale>  0 0.10431540E+04</rscale>
<asrwt>0</asrwt>
<pdfrwt beam="1">  1        2 0.19978298E+00 0.10431540E+04</pdfrwt>
<pdfrwt beam="2">  1       -1 0.32229359E-01 0.10431540E+04</pdfrwt>
<totfact> 0.16883030E+02</totfact>
</mgrwt>
</event>
<event>
12    6  0.1462228E-007  0.1710645E+04  0.7818608E-02  0.8755316E-01
          2   -1    0    0  501    0  0.00000000000E+00  0.00000000000E+00  0.23974266833E+04  0.23974266833E+04  0.00000000000E+00 0. -1.
         -1   -1    0    0    0  501 -0.00000000000E+00 -0.00000000000E+00 -0.30515086647E+03  0.30515086647E+03  0.00000000000E+00 0.  1.
         24    2    1    2    0    0 -0.28672647267E+03  0.51564720157E+03  0.55920719623E+03  0.81689485781E+03  0.80625143526E+02 0.  0.
        254    2    1    2    0    0  0.28672647267E+03 -0.51564720157E+03  0.15330686206E+04  0.18856826919E+04  0.92595664730E+03 0.  0.
         23    2    4    4    0    0  0.53826142035E+03 -0.60226416161E+03  0.10848587588E+04  0.13563614859E+04  0.10173729388E+03 0.  0.
         23    2    4    4    0    0 -0.25153494768E+03  0.86616960033E+02  0.44820986180E+03  0.52932120604E+03  0.92285054448E+02 0.  0.
          2    1    3    3  502    0 -0.19953775348E+03  0.32349394300E+03  0.31091507508E+03  0.49105175912E+03  0.00000000000E+00 0. -1.
         -1    1    3    3    0  502 -0.87188719193E+02  0.19215325857E+03  0.24829212116E+03  0.32584309869E+03  0.00000000000E+00 0.  1.
         11    1    5    5    0    0  0.74673042751E+01  0.31870188274E+01  0.56880031712E+01  0.99131782098E+01  0.00000000000E+00 0.  1.
        -11    1    5    5    0    0  0.53079411608E+03 -0.60545118043E+03  0.10791707556E+04  0.13464483077E+04  0.00000000000E+00 0. -1.
          4    1    6    6  503    0 -0.24708708657E+03  0.63819307229E+02  0.38423994212E+03  0.46126485390E+03  0.00000000000E+00 0. -1.
         -4    1    6    6    0  503 -0.44478611105E+01  0.22797652804E+02  0.63969919686E+02  0.68056352139E+02  0.00000000000E+00 0.  1.
<mgrwt>
<rscale>  0 0.17106453E+04</rscale>
<asrwt>0</asrwt>
<pdfrwt beam="1">  1        2 0.36883486E+00 0.17106453E+04</pdfrwt>
<pdfrwt beam="2">  1       -1 0.46946289E-01 0.17106453E+04</pdfrwt>
<totfact> 0.19556932E+01</totfact>
</mgrwt>
</event>
<event>
12    6  0.1462228E-007  0.1970679E+04  0.7818608E-02  0.8620453E-01
          2   -1    0    0  501    0  0.00000000000E+00  0.00000000000E+00  0.46544936120E+04  0.46544936120E+04  0.00000000000E+00 0. -1.
         -1   -1    0    0    0  501 -0.00000000000E+00 -0.00000000000E+00 -0.20859276967E+03  0.20859276967E+03  0.00000000000E+00 0.  1.
         24    2    1    2    0    0  0.86500207209E+02 -0.54104550687E+02  0.35942156024E+04  0.35965800781E+04  0.81196511381E+02 0.  0.
        254    2    1    2    0    0 -0.86500207209E+02  0.54104550687E+02  0.85168523991E+03  0.12665063035E+04  0.93180517318E+03 0.  0.
         23    2    4    4    0    0  0.30801072766E+03 -0.61373429387E+02  0.13665407693E+02  0.32810475531E+03  0.93961060557E+02 0.  0.
         23    2    4    4    0    0 -0.39451093487E+03  0.11547798007E+03  0.83801983222E+03  0.93840154823E+03  0.96675668680E+02 0.  0.
          2    1    3    3  502    0  0.69527985842E+02 -0.49947312519E+02  0.34784328483E+04  0.34794861625E+04  0.00000000000E+00 0. -1.
         -1    1    3    3    0  502  0.16972221368E+02 -0.41572381679E+01  0.11578275408E+03  0.11709391560E+03  0.00000000000E+00 0.  1.
         11    1    5    5    0    0  0.20667929997E+03  0.47892245405E+01  0.11806996017E+02  0.20707166600E+03  0.00000000000E+00 0.  1.
        -11    1    5    5    0    0  0.10133142769E+03 -0.66162653928E+02  0.18584116767E+01  0.12103308931E+03  0.00000000000E+00 0. -1.
          1    1    6    6  503    0 -0.20474146471E+03  0.10059861025E+03  0.39353925878E+03  0.45487613254E+03  0.00000000000E+00 0. -1.
         -1    1    6    6    0  503 -0.18976947016E+03  0.14879369822E+02  0.44448057344E+03  0.48352541569E+03  0.00000000000E+00 0.  1.
<mgrwt>
<rscale>  0 0.19706788E+04</rscale>
<asrwt>0</asrwt>
<pdfrwt beam="1">  1        2 0.71607586E+00 0.19706788E+04</pdfrwt>
<pdfrwt beam="2">  1       -1 0.32091199E-01 0.19706788E+04</pdfrwt>
<totfact> 0.84031953E-01</totfact>
</mgrwt>
</event>
<event>
12    6  0.1462228E-007  0.1561321E+04  0.7818608E-02  0.8844669E-01
          2   -1    0    0  501    0  0.00000000000E+00  0.00000000000E+00  0.66407881698E+03  0.66407881698E+03  0.00000000000E+00 0. -1.
         -1   -1    0    0    0  501 -0.00000000000E+00 -0.00000000000E+00 -0.91770853192E+03  0.91770853192E+03  0.00000000000E+00 0.  1.
         24    2    1    2    0    0 -0.31092403807E+03  0.27297147680E+03 -0.38865908200E+03  0.57328852874E+03  0.80104123293E+02 0.  0.
        254    2    1    2    0    0  0.31092403807E+03 -0.27297147680E+03  0.13502936707E+03  0.10084988202E+04  0.90975257939E+03 0.  0.
         23    2    4    4    0    0  0.31642080533E+03 -0.27663881082E+03 -0.32515109690E+03  0.53927407151E+03  0.91881068140E+02 0.  0.
         23    2    4    4    0    0 -0.54967672660E+01  0.36673340184E+01  0.46018046397E+03  0.46922474866E+03  0.91444745833E+02 0.  0.
          2    1    3    3  502    0 -0.41472956583E+00  0.32831622750E+01 -0.22166904447E+02  0.22412559155E+02  0.00000000000E+00 0. -1.
         -1    1    3    3    0  502 -0.31050930850E+03  0.26968831453E+03 -0.36649217755E+03  0.55087596959E+03  0.00000000000E+00 0.  1.
         11    1    5    5    0    0  0.21153878442E+03 -0.13190359918E+03 -0.16229800542E+03  0.29746908974E+03  0.00000000000E+00 0. -1.
        -11    1    5    5    0    0  0.10488202092E+03 -0.14473521164E+03 -0.16285309149E+03  0.24180498177E+03  0.00000000000E+00 0.  1.
          1    1    6    6  503    0  0.24103251669E+02 -0.18788932292E+02  0.60112053465E+02  0.67434781007E+02  0.00000000000E+00 0. -1.
         -1    1    6    6    0  503 -0.29600018935E+02  0.22456266311E+02  0.40006841051E+03  0.40178996765E+03  0.00000000000E+00 0.  1.
<mgrwt>
<rscale>  0 0.15613210E+04</rscale>
<asrwt>0</asrwt>
<pdfrwt beam="1">  1        2 0.10216597E+00 0.15613210E+04</pdfrwt>
<pdfrwt beam="2">  1       -1 0.14118593E+00 0.15613210E+04</pdfrwt>
<totfact> 0.19721593E+01</totfact>
</mgrwt>
</event>
<event>
12    6  0.1462228E-007  0.1862569E+04  0.7818608E-02  0.8673716E-01
          2   -1    0    0  501    0  0.00000000000E+00  0.00000000000E+00  0.63942818943E+03  0.63942818943E+03  0.00000000000E+00 0. -1.
         -1   -1    0    0    0  501 -0.00000000000E+00 -0.00000000000E+00 -0.13563533287E+04  0.13563533287E+04  0.00000000000E+00 0.  1.
         24    2    1    2    0    0  0.25631538839E+03  0.68459500960E+02  0.42942842487E+03  0.50993233335E+03  0.72373551183E+02 0.  0.
        254    2    1    2    0    0 -0.25631538839E+03 -0.68459500960E+02 -0.11463535641E+04  0.14858491848E+04  0.90732410103E+03 0.  0.
         23    2    4    4    0    0 -0.47220197217E+03  0.12105514538E+03 -0.10628527102E+04  0.11728591359E+04  0.91179044492E+02 0.  0.
         23    2    4    4    0    0  0.21588658378E+03 -0.18951464634E+03 -0.83500853911E+02  0.31299004893E+03  0.92019345211E+02 0.  0.
          4    1    3    3  502    0  0.16206620294E+03  0.76207532667E+01  0.23758985221E+03  0.28770204707E+03  0.00000000000E+00 0. -1.
         -3    1    3    3    0  502  0.94249185450E+02  0.60838747694E+02  0.19183857265E+03  0.22223028627E+03  0.00000000000E+00 0.  1.
         11    1    5    5    0    0 -0.11018958457E+03 -0.10352226688E+02 -0.22636181395E+03  0.25196941076E+03  0.00000000000E+00 0.  1.
        -11    1    5    5    0    0 -0.36201238761E+03  0.13140737207E+03 -0.83649089628E+03  0.92088972509E+03  0.00000000000E+00 0. -1.
          4    1    6    6  503    0  0.14745733855E+03 -0.16974630356E+03 -0.36861237999E+02  0.22785132242E+03  0.00000000000E+00 0. -1.
         -4    1    6    6    0  503  0.68429245233E+02 -0.19768342785E+02 -0.46639615912E+02  0.85138726511E+02  0.00000000000E+00 0.  1.
<mgrwt>
<rscale>  0 0.18625687E+04</rscale>
<asrwt>0</asrwt>
<pdfrwt beam="1">  1        2 0.98373568E-01 0.18625687E+04</pdfrwt>
<pdfrwt beam="2">  1       -1 0.20866974E+00 0.18625687E+04</pdfrwt>
<totfact> 0.64599342E+00</totfact>
</mgrwt>
</event>
<event>
12    6  0.1462228E-007  0.2704043E+04  0.7818608E-02  0.8333694E-01
         -1   -1    0    0    0  501 -0.00000000000E+00  0.00000000000E+00  0.47983813605E+03  0.47983813605E+03  0.00000000000E+00 0.  1.
          2   -1    0    0  501    0  0.00000000000E+00 -0.00000000000E+00 -0.38095396641E+04  0.38095396641E+04  0.00000000000E+00 0. -1.
         24    2    1    2    0    0 -0.51804038826E+03 -0.45399852481E+03 -0.30468311790E+04  0.31247664972E+04  0.80653109503E+02 0.  0.
        254    2    1    2    0    0  0.51804038826E+03  0.45399852481E+03 -0.28287034904E+03  0.11646113030E+04  0.89544589355E+03 0.  0.
         23    2    4    4    0    0  0.15436826449E+03  0.61935938520E+03  0.36202388919E+02  0.64595555491E+03  0.92262434608E+02 0.  0.
         23    2    4    4    0    0  0.36367212376E+03 -0.16536086039E+03 -0.31907273796E+03  0.51865574807E+03  0.87147835016E+02 0.  0.
          4    1    3    3  502    0 -0.45246425963E+03 -0.37688723806E+03 -0.26997339863E+04  0.27632103599E+04  0.00000000000E+00 0. -1.
         -3    1    3    3    0  502 -0.65576128627E+02 -0.77111286745E+02 -0.34709719276E+03  0.36155613729E+03  0.00000000000E+00 0.  1.
         11    1    5    5    0    0  0.16190300103E+03  0.60593152275E+03  0.43934912349E+02  0.62872559080E+03  0.00000000000E+00 0. -1.
        -11    1    5    5    0    0 -0.75347365374E+01  0.13427862450E+02 -0.77325234298E+01  0.17229964111E+02  0.00000000000E+00 0.  1.
          2    1    6    6  503    0 -0.27392034557E+01  0.94583834515E+00  0.22876022917E+01  0.36920143542E+01  0.00000000000E+00 0.  1.
         -2    1    6    6    0  503  0.36641132722E+03 -0.16630669873E+03 -0.32136034025E+03  0.51496373372E+03  0.00000000000E+00 0. -1.
<mgrwt>
<rscale>  0 0.27040432E+04</rscale>
<asrwt>0</asrwt>
<pdfrwt beam="1">  1        2 0.58608300E+00 0.27040432E+04</pdfrwt>
<pdfrwt beam="2">  1       -1 0.73821255E-01 0.27040432E+04</pdfrwt>
<totfact> 0.89063728E-01</totfact>
</mgrwt>
</event>
<event>
12    6  0.1462228E-007  0.2094630E+04  0.7818608E-02  0.8563613E-01
          2   -1    0    0  501    0  0.00000000000E+00  0.00000000000E+00  0.78170924640E+03  0.78170924640E+03  0.00000000000E+00 0. -1.
         -1   -1    0    0    0  501 -0.00000000000E+00 -0.00000000000E+00 -0.14031672580E+04  0.14031672580E+04  0.00000000000E+00 0.  1.
         24    2    1    2    0    0 -0.29350419987E+02  0.41322111116E+03  0.52019297812E+03  0.66986481866E+03  0.80653623179E+02 0.  0.
        254    2    1    2    0    0  0.29350419987E+02 -0.41322111116E+03 -0.11416509898E+04  0.15150116858E+04  0.90569326585E+03 0.  0.
         23    2    4    4    0    0  0.26553603734E+03 -0.40097157530E+03 -0.11623563435E+04  0.12612213892E+04  0.91211469005E+02 0.  0.
         23    2    4    4    0    0 -0.23618561736E+03 -0.12249535861E+02  0.20705353700E+02  0.25379029659E+03  0.89705663112E+02 0.  0.
          2    1    3    3  502    0 -0.28031484836E+02  0.41196523396E+03  0.49503074645E+03  0.64463676444E+03  0.00000000000E+00 0. -1.
         -1    1    3    3    0  502 -0.13189351509E+01  0.12558772044E+01  0.25162231662E+02  0.25228054219E+02  0.00000000000E+00 0.  1.
         11    1    5    5    0    0  0.56428192318E+02 -0.15640344088E+03 -0.35111125106E+03  0.38849103957E+03  0.00000000000E+00 0.  1.
        -11    1    5    5    0    0  0.20910784503E+03 -0.24456813442E+03 -0.81124509240E+03  0.87273034963E+03  0.00000000000E+00 0. -1.
          2    1    6    6  503    0 -0.11180203067E+03 -0.40984686769E+02  0.37933134121E+02  0.12497344229E+03  0.00000000000E+00 0. -1.
         -2    1    6    6    0  503 -0.12438358668E+03  0.28735150908E+02 -0.17227780421E+02  0.12881685430E+03  0.00000000000E+00 0.  1.
<mgrwt>
<rscale>  0 0.20946301E+04</rscale>
<asrwt>0</asrwt>
<pdfrwt beam="1">  1        2 0.12026296E+00 0.20946301E+04</pdfrwt>
<pdfrwt beam="2">  1       -1 0.21587188E+00 0.20946301E+04</pdfrwt>
<totfact> 0.43836294E+00</totfact>
</mgrwt>
</event>
<event>
12    6  0.1462228E-007  0.1886426E+04  0.7818608E-02  0.8661643E-01
         -1   -1    0    0    0  501 -0.00000000000E+00  0.00000000000E+00  0.43601757745E+03  0.43601757745E+03  0.00000000000E+00 0.  1.
          2   -1    0    0  501    0  0.00000000000E+00 -0.00000000000E+00 -0.20404004905E+04  0.20404004905E+04  0.00000000000E+00 0. -1.
         24    2    1    2    0    0  0.64671029692E+02 -0.29009774465E+03 -0.14939480024E+04  0.15252941702E+04  0.79389092414E+02 0.  0.
        254    2    1    2    0    0 -0.64671029692E+02  0.29009774465E+03 -0.11043491061E+03  0.95112389779E+03  0.89671721068E+03 0.  0.
         23    2    4    4    0    0  0.40657394965E+03  0.16184093783E+03 -0.34352557463E+02  0.44835885370E+03  0.91382152495E+02 0.  0.
         23    2    4    4    0    0 -0.47124497934E+03  0.12825680682E+03 -0.76082353150E+02  0.50276504409E+03  0.91991989064E+02 0.  0.
          4    1    3    3  502    0 -0.10905505446E+02 -0.13152350072E+03 -0.64249389642E+03  0.65590835353E+03  0.00000000000E+00 0. -1.
         -3    1    3    3    0  502  0.75576535138E+02 -0.15857424394E+03 -0.85145410602E+03  0.86938581663E+03  0.00000000000E+00 0.  1.
         11    1    5    5    0    0  0.15903976107E+02  0.11201043047E+02 -0.22143171660E+02  0.29474054226E+02  0.00000000000E+00 0. -1.
        -11    1    5    5    0    0  0.39066997354E+03  0.15063989478E+03 -0.12209385804E+02  0.41888479947E+03  0.00000000000E+00 0.  1.
          2    1    6    6  503    0 -0.70800256786E+02  0.41964862997E+02 -0.40097602792E+02  0.91550771908E+02  0.00000000000E+00 0. -1.
         -2    1    6    6    0  503 -0.40044472255E+03  0.86291943828E+02 -0.35984750358E+02  0.41121427219E+03  0.00000000000E+00 0.  1.
<mgrwt>
<rscale>  0 0.18864257E+04</rscale>
<asrwt>0</asrwt>
<pdfrwt beam="1">  1        2 0.31390778E+00 0.18864257E+04</pdfrwt>
<pdfrwt beam="2">  1       -1 0.67079625E-01 0.18864257E+04</pdfrwt>
<totfact> 0.15247043E+01</totfact>
</mgrwt>
</event>
<event>
12    6  0.1462228E-007  0.1397705E+04  0.7818608E-02  0.8955481E-01
          2   -1    0    0  501    0  0.00000000000E+00  0.00000000000E+00  0.18175498453E+04  0.18175498453E+04  0.00000000000E+00 0. -1.
         -1   -1    0    0    0  501 -0.00000000000E+00 -0.00000000000E+00 -0.26871067486E+03  0.26871067486E+03  0.00000000000E+00 0.  1.
         24    2    1    2    0    0  0.14795656801E+03 -0.59652864855E+01  0.73166313358E+03  0.75087401442E+03  0.80957481590E+02 0.  0.
        254    2    1    2    0    0 -0.14795656801E+03  0.59652864855E+01  0.81717603690E+03  0.13353865058E+04  0.10457311862E+04 0.  0.
         23    2    4    4    0    0 -0.10024965221E+03 -0.36954340656E+03 -0.40043204205E+02  0.39494678790E+03  0.88131634353E+02 0.  0.
         23    2    4    4    0    0 -0.47706915801E+02  0.37550869304E+03  0.85721924111E+03  0.94043971787E+03  0.79494070634E+02 0.  0.
          2    1    3    3  502    0  0.14359095775E+03 -0.25932390919E+02  0.59166396547E+03  0.60939076140E+03  0.00000000000E+00 0. -1.
         -1    1    3    3    0  502  0.43656102664E+01  0.19967104433E+02  0.13999916811E+03  0.14148325302E+03  0.00000000000E+00 0.  1.
         11    1    5    5    0    0 -0.10281084250E+03 -0.21812907229E+03 -0.32487520618E+02  0.24332242089E+03  0.00000000000E+00 0.  1.
        -11    1    5    5    0    0  0.25611902840E+01 -0.15141433427E+03 -0.75556835869E+01  0.15162436701E+03  0.00000000000E+00 0. -1.
          2    1    6    6  503    0 -0.26369465613E+02  0.29962026700E+02  0.10662597507E+03  0.11385152753E+03  0.00000000000E+00 0. -1.
         -2    1    6    6    0  503 -0.21337450187E+02  0.34554666634E+03  0.75059326603E+03  0.82658819034E+03  0.00000000000E+00 0.  1.
<mgrwt>
<rscale>  0 0.13977053E+04</rscale>
<asrwt>0</asrwt>
<pdfrwt beam="1">  1        2 0.27962305E+00 0.13977053E+04</pdfrwt>
<pdfrwt beam="2">  1       -1 0.41340105E-01 0.13977053E+04</pdfrwt>
<totfact> 0.53647716E+01</totfact>
</mgrwt>
</event>
<event>
12    6  0.1462228E-007  0.1373804E+04  0.7818608E-02  0.8973002E-01
          2   -1    0    0  501    0  0.00000000000E+00  0.00000000000E+00  0.48744165498E+03  0.48744165498E+03  0.00000000000E+00 0. -1.
         -3   -1    0    0    0  501 -0.00000000000E+00 -0.00000000000E+00 -0.96798161370E+03  0.96798161370E+03  0.00000000000E+00 0.  1.
         24    2    1    2    0    0 -0.32533569212E+03 -0.74703171649E+02  0.59128954917E+02  0.34825823188E+03  0.79772716779E+02 0.  0.
        254    2    1    2    0    0  0.32533569212E+03  0.74703171649E+02 -0.53966891363E+03  0.11071650368E+04  0.90727504426E+03 0.  0.
         23    2    4    4    0    0  0.41410486973E+03 -0.11714957459E+03  0.79001339829E+02  0.44697475883E+03  0.91314606610E+02 0.  0.
         23    2    4    4    0    0 -0.88769177605E+02  0.19185274624E+03 -0.61867025346E+03  0.66019027797E+03  0.91710836159E+02 0.  0.
          4    1    3    3  502    0 -0.11569034429E+03 -0.47998612895E+02  0.55215464836E+02  0.13688268758E+03  0.00000000000E+00 0. -1.
         -3    1    3    3    0  502 -0.20964534783E+03 -0.26704558755E+02  0.39134900812E+01  0.21137554430E+03  0.00000000000E+00 0.  1.
         11    1    5    5    0    0  0.33278046898E+03 -0.62693129277E+02  0.37637035670E+02  0.34071955543E+03  0.00000000000E+00 0.  1.
        -11    1    5    5    0    0  0.81324400742E+02 -0.54456445313E+02  0.41364304159E+02  0.10625520341E+03  0.00000000000E+00 0. -1.
          4    1    6    6  503    0 -0.19818822507E+02  0.21512615993E+02 -0.24196167810E+02  0.37960939255E+02  0.00000000000E+00 0. -1.
         -4    1    6    6    0  503 -0.68950355098E+02  0.17034013025E+03 -0.59447408565E+03  0.62222933871E+03  0.00000000000E+00 0.  1.
<mgrwt>
<rscale>  0 0.13738043E+04</rscale>
<asrwt>0</asrwt>
<pdfrwt beam="1">  1        2 0.74991025E-01 0.13738043E+04</pdfrwt>
<pdfrwt beam="2">  1       -3 0.14892025E+00 0.13738043E+04</pdfrwt>
<totfact> 0.12749114E+01</totfact>
</mgrwt>
</event>
<event>
12    6  0.1462228E-007  0.1990404E+04  0.7818608E-02  0.8611120E-01
         -1   -1    0    0    0  501 -0.00000000000E+00  0.00000000000E+00  0.15201072995E+04  0.15201072995E+04  0.00000000000E+00 0.  1.
          2   -1    0    0  501    0  0.00000000000E+00 -0.00000000000E+00 -0.65155063262E+03  0.65155063262E+03  0.00000000000E+00 0. -1.
         24    2    1    2    0    0  0.52138470711E+03  0.40573303373E+03  0.76628248831E+03  0.10150868029E+04  0.82164821988E+02 0.  0.
        254    2    1    2    0    0 -0.52138470711E+03 -0.40573303373E+03  0.10227417854E+03  0.11565711292E+04  0.94378782674E+03 0.  0.
         23    2    4    4    0    0  0.23581607617E+03 -0.26020799023E+03 -0.45218581341E+02  0.36622142945E+03  0.93573475561E+02 0.  0.
         23    2    4    4    0    0 -0.75720078328E+03 -0.14552504350E+03  0.14749275988E+03  0.79034969978E+03  0.91476604867E+02 0.  0.
          4    1    3    3  502    0  0.30043433758E+01 -0.39867648071E+01  0.55626690926E+01  0.74741996348E+01  0.00000000000E+00 0. -1.
         -3    1    3    3    0  502  0.51838036373E+03  0.40971979854E+03  0.76071981922E+03  0.10076126032E+04  0.00000000000E+00 0.  1.
         11    1    5    5    0    0  0.16992897391E+02 -0.32552691668E+02 -0.34322134581E+02  0.50263756513E+02  0.00000000000E+00 0.  1.
        -11    1    5    5    0    0  0.21882317878E+03 -0.22765529856E+03 -0.10896446760E+02  0.31595767294E+03  0.00000000000E+00 0. -1.
          1    1    6    6  503    0 -0.54264952284E+03 -0.10236997702E+03  0.63186366863E+02  0.55582428320E+03  0.00000000000E+00 0. -1.
         -1    1    6    6    0  503 -0.21455126044E+03 -0.43155066484E+02  0.84306393020E+02  0.23452541658E+03  0.00000000000E+00 0.  1.
<mgrwt>
<rscale>  0 0.19904039E+04</rscale>
<asrwt>0</asrwt>
<pdfrwt beam="1">  1        2 0.10023856E+00 0.19904039E+04</pdfrwt>
<pdfrwt beam="2">  1       -1 0.23386266E+00 0.19904039E+04</pdfrwt>
<totfact> 0.42347796E+00</totfact>
</mgrwt>
</event>
<event>
12    6  0.1462228E-007  0.2722162E+04  0.7818608E-02  0.8327850E-01
         -1   -1    0    0    0  501 -0.00000000000E+00  0.00000000000E+00  0.15804305092E+04  0.15804305092E+04  0.00000000000E+00 0.  1.
          2   -1    0    0  501    0  0.00000000000E+00 -0.00000000000E+00 -0.11721752519E+04  0.11721752519E+04  0.00000000000E+00 0. -1.
         24    2    1    2    0    0  0.20745032842E+03  0.16759689884E+03  0.13784989732E+04  0.14062946703E+04  0.79252262255E+02 0.  0.
        254    2    1    2    0    0 -0.20745032842E+03 -0.16759689884E+03 -0.97024371595E+03  0.13463110908E+04  0.89445867741E+03 0.  0.
         23    2    4    4    0    0 -0.95503435178E+02 -0.37086226151E+03 -0.55519584999E+02  0.39818915022E+03  0.93874660520E+02 0.  0.
         23    2    4    4    0    0 -0.11194689324E+03  0.20326536267E+03 -0.91472413095E+03  0.94812194058E+03  0.91466189882E+02 0.  0.
          2    1    3    3  502    0  0.41666233897E+02  0.55532526655E+02  0.22171720666E+03  0.23233264147E+03  0.00000000000E+00 0. -1.
         -1    1    3    3    0  502  0.16578409452E+03  0.11206437219E+03  0.11567817666E+04  0.11739620288E+04  0.00000000000E+00 0.  1.
         11    1    5    5    0    0 -0.40697888151E+02 -0.14835171190E+03 -0.69071731303E+02  0.16862814887E+03  0.00000000000E+00 0. -1.
        -11    1    5    5    0    0 -0.54805547027E+02 -0.22251054961E+03  0.13552146305E+02  0.22956100135E+03  0.00000000000E+00 0.  1.
          1    1    6    6  503    0 -0.38333368957E+02  0.72902880315E+02 -0.17519564644E+03  0.19359181714E+03  0.00000000000E+00 0. -1.
         -1    1    6    6    0  503 -0.73613524282E+02  0.13036248236E+03 -0.73952848451E+03  0.75453012344E+03  0.00000000000E+00 0.  1.
<mgrwt>
<rscale>  0 0.27221620E+04</rscale>
<asrwt>0</asrwt>
<pdfrwt beam="1">  1        2 0.18033465E+00 0.27221620E+04</pdfrwt>
<pdfrwt beam="2">  1       -1 0.24314315E+00 0.27221620E+04</pdfrwt>
<totfact> 0.15185684E+00</totfact>
</mgrwt>
</event>
<event>
12    6  0.1462228E-007  0.1519151E+04  0.7818608E-02  0.8871817E-01
         -1   -1    0    0    0  501 -0.00000000000E+00  0.00000000000E+00  0.18769762791E+03  0.18769762791E+03  0.00000000000E+00 0.  1.
          2   -1    0    0  501    0  0.00000000000E+00 -0.00000000000E+00 -0.30738514371E+04  0.30738514371E+04  0.00000000000E+00 0. -1.
         24    2    1    2    0    0 -0.33139564895E+03 -0.12296531191E+03 -0.22442442260E+03  0.42657885831E+03  0.81606720428E+02 0.  0.
        254    2    1    2    0    0  0.33139564895E+03  0.12296531191E+03 -0.26617293865E+04  0.28349702067E+04  0.90956539150E+03 0.  0.
         23    2    4    4    0    0  0.59241400807E+03 -0.10088973180E+03 -0.14597455373E+04  0.15813490760E+04  0.93138453873E+02 0.  0.
         23    2    4    4    0    0 -0.26101835913E+03  0.22385504371E+03 -0.12019838493E+04  0.12536211307E+04  0.92515409401E+02 0.  0.
          4    1    3    3  502    0 -0.70052601052E+01 -0.89574539543E+01  0.58138196274E+01  0.12771458380E+02  0.00000000000E+00 0. -1.
         -3    1    3    3    0  502 -0.32439038884E+03 -0.11400785796E+03 -0.23023824223E+03  0.41380739993E+03  0.00000000000E+00 0.  1.
         11    1    5    5    0    0  0.14048146549E+03 -0.50400989919E+02 -0.28620450442E+03  0.32278215607E+03  0.00000000000E+00 0. -1.
        -11    1    5    5    0    0  0.45193254259E+03 -0.50488741884E+02 -0.11735410328E+04  0.12585669199E+04  0.00000000000E+00 0.  1.
          1    1    6    6  503    0 -0.61941413798E+02  0.22971335500E+02 -0.14300826409E+03  0.15753026566E+03  0.00000000000E+00 0. -1.
         -1    1    6    6    0  503 -0.19907694533E+03  0.20088370821E+03 -0.10589755852E+04  0.10960908650E+04  0.00000000000E+00 0.  1.
<mgrwt>
<rscale>  0 0.15191506E+04</rscale>
<asrwt>0</asrwt>
<pdfrwt beam="1">  1        2 0.47290020E+00 0.15191506E+04</pdfrwt>
<pdfrwt beam="2">  1       -1 0.28876559E-01 0.15191506E+04</pdfrwt>
<totfact> 0.18892514E+01</totfact>
</mgrwt>
</event>
<event>
12    6  0.1462228E-007  0.1844880E+04  0.7818608E-02  0.8682791E-01
          2   -1    0    0  501    0  0.00000000000E+00  0.00000000000E+00  0.32437389962E+04  0.32437389962E+04  0.00000000000E+00 0. -1.
         -1   -1    0    0    0  501 -0.00000000000E+00 -0.00000000000E+00 -0.26231923070E+03  0.26231923070E+03  0.00000000000E+00 0.  1.
         24    2    1    2    0    0  0.54162736886E+03 -0.34937631349E+03  0.16530083158E+04  0.17760767926E+04  0.81168135133E+02 0.  0.
        254    2    1    2    0    0 -0.54162736886E+03  0.34937631349E+03  0.13284114497E+04  0.17299814343E+04  0.90151803533E+03 0.  0.
         23    2    4    4    0    0 -0.50886098753E+02 -0.19640313035E+03  0.77477216696E+03  0.80621670666E+03  0.92465575975E+02 0.  0.
         23    2    4    4    0    0 -0.49074127011E+03  0.54577944384E+03  0.55363928279E+03  0.92376472763E+03  0.90125584961E+02 0.  0.
          4    1    3    3  502    0  0.53814243167E+03 -0.35229728057E+03  0.16490435573E+04  0.17700438708E+04  0.00000000000E+00 0. -1.
         -3    1    3    3    0  502  0.34849371880E+01  0.29209670810E+01  0.39647584197E+01  0.60329217813E+01  0.00000000000E+00 0.  1.
         11    1    5    5    0    0 -0.93711306522E+01 -0.17079803340E+03  0.65316929655E+03  0.67519620575E+03  0.00000000000E+00 0.  1.
        -11    1    5    5    0    0 -0.41514968101E+02 -0.25605096950E+02  0.12160287041E+03  0.13102050091E+03  0.00000000000E+00 0. -1.
          3    1    6    6  503    0 -0.25155520189E+03  0.27470684484E+03  0.22476862535E+03  0.43504575063E+03  0.00000000000E+00 0. -1.
         -3    1    6    6    0  503 -0.23918606822E+03  0.27107259900E+03  0.32887065743E+03  0.48871897700E+03  0.00000000000E+00 0.  1.
<mgrwt>
<rscale>  0 0.18448795E+04</rscale>
<asrwt>0</asrwt>
<pdfrwt beam="1">  1        2 0.49903674E+00 0.18448795E+04</pdfrwt>
<pdfrwt beam="2">  1       -1 0.40356807E-01 0.18448795E+04</pdfrwt>
<totfact> 0.78303618E+00</totfact>
</mgrwt>
</event>
<event>
12    6  0.1462228E-007  0.2667936E+04  0.7818608E-02  0.8345484E-01
         -1   -1    0    0    0  501 -0.00000000000E+00  0.00000000000E+00  0.45454801626E+03  0.45454801626E+03  0.00000000000E+00 0.  1.
          2   -1    0    0  501    0  0.00000000000E+00 -0.00000000000E+00 -0.39148125893E+04  0.39148125893E+04  0.00000000000E+00 0. -1.
         24    2    1    2    0    0 -0.52859705431E+03 -0.10517062036E+04 -0.13666444669E+04  0.18054356103E+04  0.79874023877E+02 0.  0.
        254    2    1    2    0    0  0.52859705431E+03  0.10517062036E+04 -0.20936201061E+04  0.25639249952E+04  0.89719866686E+03 0.  0.
         23    2    4    4    0    0 -0.19844725624E+02  0.89438323839E+03 -0.11942512671E+04  0.14948632572E+04  0.89804668495E+02 0.  0.
         23    2    4    4    0    0  0.54844177994E+03  0.15732296519E+03 -0.89936883903E+03  0.10690617380E+04  0.92140054952E+02 0.  0.
          2    1    3    3  502    0 -0.67456164187E+01 -0.47081157057E+02 -0.60726487676E+02  0.77135238356E+02  0.00000000000E+00 0. -1.
         -1    1    3    3    0  502 -0.52185143789E+03 -0.10046250465E+04 -0.13059179792E+04  0.17283003720E+04  0.00000000000E+00 0.  1.
         11    1    5    5    0    0  0.10767999611E+02  0.29960982180E+03 -0.33724283848E+03  0.45123688595E+03  0.00000000000E+00 0. -1.
        -11    1    5    5    0    0 -0.30612725235E+02  0.59477341659E+03 -0.85700842863E+03  0.10436263713E+04  0.00000000000E+00 0.  1.
          1    1    6    6  503    0  0.25331497145E+03  0.10264703655E+03 -0.49533806232E+03  0.56574259593E+03  0.00000000000E+00 0. -1.
         -1    1    6    6    0  503  0.29512680849E+03  0.54675928636E+02 -0.40403077671E+03  0.50331914209E+03  0.00000000000E+00 0.  1.
<mgrwt>
<rscale>  0 0.26679358E+04</rscale>
<asrwt>0</asrwt>
<pdfrwt beam="1">  1        2 0.60227884E+00 0.26679358E+04</pdfrwt>
<pdfrwt beam="2">  1       -1 0.69930467E-01 0.26679358E+04</pdfrwt>
<totfact> 0.82858156E-01</totfact>
</mgrwt>
</event>
<event>
12    6  0.1462228E-007  0.3966662E+04  0.7818608E-02  0.8011306E-01
         -1   -1    0    0    0  501 -0.00000000000E+00  0.00000000000E+00  0.94166028319E+03  0.94166028319E+03  0.00000000000E+00 0.  1.
          2   -1    0    0  501    0  0.00000000000E+00 -0.00000000000E+00 -0.41773055158E+04  0.41773055158E+04  0.00000000000E+00 0. -1.
         24    2    1    2    0    0 -0.11153456002E+04  0.14266897976E+04 -0.87850352358E+03  0.20143485095E+04  0.79949298453E+02 0.  0.
        254    2    1    2    0    0  0.11153456002E+04 -0.14266897976E+04 -0.23571417091E+04  0.31046172895E+04  0.89615394402E+03 0.  0.
         23    2    4    4    0    0  0.31602209254E+03 -0.11535884482E+03 -0.81559583102E+02  0.35777576285E+03  0.90409650126E+02 0.  0.
         23    2    4    4    0    0  0.79932350761E+03 -0.13113309528E+04 -0.22755821260E+04  0.27468415267E+04  0.91418942563E+02 0.  0.
          4    1    3    3  502    0 -0.13706557635E+02  0.23729370777E+02 -0.24099126671E+02  0.36492748129E+02  0.00000000000E+00 0. -1.
         -3    1    3    3    0  502 -0.11016390425E+04  0.14029604269E+04 -0.85440439691E+03  0.19778557614E+04  0.00000000000E+00 0.  1.
         11    1    5    5    0    0 -0.49944411533E+01 -0.84329775343E+01 -0.43465873539E+01  0.10721584498E+02  0.00000000000E+00 0. -1.
        -11    1    5    5    0    0  0.32101653369E+03 -0.10692586728E+03 -0.77212995749E+02  0.34705417835E+03  0.00000000000E+00 0.  1.
          4    1    6    6  503    0  0.28950666162E+03 -0.55829476003E+03 -0.95134574406E+03  0.11404235489E+04  0.00000000000E+00 0. -1.
         -4    1    6    6    0  503  0.50981684600E+03 -0.75303619279E+03 -0.13242363819E+04  0.16064179778E+04  0.00000000000E+00 0.  1.
<mgrwt>
<rscale>  0 0.39666624E+04</rscale>
<asrwt>0</asrwt>
<pdfrwt beam="1">  1        2 0.64266239E+00 0.39666624E+04</pdfrwt>
<pdfrwt beam="2">  1       -1 0.14487081E+00 0.39666624E+04</pdfrwt>
<totfact> 0.83209731E-02</totfact>
</mgrwt>
</event>
<event>
12    6  0.1462228E-007  0.1318492E+04  0.7818608E-02  0.9015028E-01
          2   -1    0    0  501    0  0.00000000000E+00  0.00000000000E+00  0.42101489349E+03  0.42101489349E+03  0.00000000000E+00 0. -1.
         -1   -1    0    0    0  501 -0.00000000000E+00 -0.00000000000E+00 -0.10322800065E+04  0.10322800065E+04  0.00000000000E+00 0.  1.
         24    2    1    2    0    0 -0.18980453442E+03 -0.33140557672E+03 -0.13620286876E+03  0.41166746813E+03  0.71158030423E+02 0.  0.
        254    2    1    2    0    0  0.18980453442E+03  0.33140557672E+03 -0.47506224426E+03  0.10416274319E+04  0.84465860164E+03 0.  0.
         23    2    4    4    0    0 -0.81673444099E+02 -0.24956366105E+03 -0.11274369794E+03  0.29981725415E+03  0.90701003723E+02 0.  0.
         23    2    4    4    0    0  0.27147797852E+03  0.58096923776E+03 -0.36231854632E+03  0.74181017771E+03  0.88216000254E+02 0.  0.
          2    1    3    3  502    0 -0.14139108826E+03 -0.26863236374E+03 -0.78319497362E+02  0.31351033532E+03  0.00000000000E+00 0. -1.
         -1    1    3    3    0  502 -0.48413446168E+02 -0.62773212977E+02 -0.57883371397E+02  0.98157132811E+02  0.00000000000E+00 0.  1.
         11    1    5    5    0    0  0.18247537287E+02 -0.69747457274E+02 -0.28645777796E+02  0.77577451613E+02  0.00000000000E+00 0. -1.
        -11    1    5    5    0    0 -0.99920981386E+02 -0.17981620377E+03 -0.84097920148E+02  0.22223980254E+03  0.00000000000E+00 0.  1.
          4    1    6    6  503    0  0.56387626239E+02  0.15928706785E+03 -0.56160543652E+02  0.17806162147E+03  0.00000000000E+00 0. -1.
         -4    1    6    6    0  503  0.21509035228E+03  0.42168216991E+03 -0.30615800267E+03  0.56374855624E+03  0.00000000000E+00 0.  1.
<mgrwt>
<rscale>  0 0.13184920E+04</rscale>
<asrwt>0</asrwt>
<pdfrwt beam="1">  1        2 0.64771522E-01 0.13184920E+04</pdfrwt>
<pdfrwt beam="2">  1       -1 0.15881231E+00 0.13184920E+04</pdfrwt>
<totfact> 0.25077391E+01</totfact>
</mgrwt>
</event>
<event>
12    6  0.1462228E-007  0.1287421E+04  0.7818608E-02  0.9039600E-01
         -1   -1    0    0    0  501 -0.00000000000E+00  0.00000000000E+00  0.10047348722E+04  0.10047348722E+04  0.00000000000E+00 0.  1.
          2   -1    0    0  501    0  0.00000000000E+00 -0.00000000000E+00 -0.41241066621E+03  0.41241066621E+03  0.00000000000E+00 0. -1.
         24    2    1    2    0    0  0.25558194024E+03 -0.15226874023E+03  0.86573361331E+01  0.30789851497E+03  0.78858408688E+02 0.  0.
        254    2    1    2    0    0 -0.25558194024E+03  0.15226874023E+03  0.58366686987E+03  0.11092470235E+04  0.89512794987E+03 0.  0.
         23    2    4    4    0    0  0.20134631783E+03  0.35286920878E+03  0.37491528018E+03  0.56027668877E+03  0.91057577725E+02 0.  0.
         23    2    4    4    0    0 -0.45692825807E+03 -0.20060046855E+03  0.20875158968E+03  0.54897033469E+03  0.93633440458E+02 0.  0.
          4    1    3    3  502    0  0.24442425301E+03 -0.12162865909E+03 -0.36670409309E+01  0.27303881292E+03  0.00000000000E+00 0. -1.
         -3    1    3    3    0  502  0.11157687227E+02 -0.30640081139E+02  0.12324377064E+02  0.34859702042E+02  0.00000000000E+00 0.  1.
         11    1    5    5    0    0  0.27582848167E+01 -0.55423416284E+01  0.89927567641E+01  0.10917662757E+02  0.00000000000E+00 0. -1.
        -11    1    5    5    0    0  0.19858803301E+03  0.35841155040E+03  0.36592252342E+03  0.54935902602E+03  0.00000000000E+00 0.  1.
          1    1    6    6  503    0 -0.34352371922E+03 -0.10445046835E+03  0.14731355332E+03  0.38809757665E+03  0.00000000000E+00 0. -1.
         -1    1    6    6    0  503 -0.11340453885E+03 -0.96150000195E+02  0.61438036360E+02  0.16087275804E+03  0.00000000000E+00 0.  1.
<mgrwt>
<rscale>  0 0.12874213E+04</rscale>
<asrwt>0</asrwt>
<pdfrwt beam="1">  1        2 0.63447795E-01 0.12874213E+04</pdfrwt>
<pdfrwt beam="2">  1       -1 0.15457459E+00 0.12874213E+04</pdfrwt>
<totfact> 0.27727772E+01</totfact>
</mgrwt>
</event>
<event>
12    6  0.1462228E-007  0.1735583E+04  0.7818608E-02  0.8741326E-01
          2   -1    0    0  501    0  0.00000000000E+00  0.00000000000E+00  0.17882388768E+04  0.17882388768E+04  0.00000000000E+00 0. -1.
         -1   -1    0    0    0  501 -0.00000000000E+00 -0.00000000000E+00 -0.42111956199E+03  0.42111956199E+03  0.00000000000E+00 0.  1.
         24    2    1    2    0    0  0.57988226167E+03  0.15347879488E+03  0.27733479306E+03  0.66569765614E+03  0.80122431734E+02 0.  0.
        254    2    1    2    0    0 -0.57988226167E+03 -0.15347879488E+03  0.10897845218E+04  0.15436607827E+04  0.91402359389E+03 0.  0.
         23    2    4    4    0    0 -0.52453363685E+03 -0.29921283828E+03  0.21070800263E+03  0.64601855253E+03  0.90984883681E+02 0.  0.
         23    2    4    4    0    0 -0.55348624819E+02  0.14573404341E+03  0.87907651915E+03  0.89764223015E+03  0.93188868151E+02 0.  0.
          2    1    3    3  502    0  0.33642882185E+03  0.10149142377E+03  0.12059377544E+03  0.37152082034E+03  0.00000000000E+00 0. -1.
         -1    1    3    3    0  502  0.24345343982E+03  0.51987371105E+02  0.15674101762E+03  0.29417683579E+03  0.00000000000E+00 0.  1.
         11    1    5    5    0    0 -0.39753120909E+03 -0.26329055404E+03  0.18561334692E+03  0.51166912414E+03  0.00000000000E+00 0.  1.
        -11    1    5    5    0    0 -0.12700242776E+03 -0.35922284247E+02  0.25094655705E+02  0.13434942838E+03  0.00000000000E+00 0. -1.
          1    1    6    6  503    0 -0.65898535767E+01  0.43894532280E+02  0.88122719069E+02  0.98670004309E+02  0.00000000000E+00 0.  1.
         -1    1    6    6    0  503 -0.48758771242E+02  0.10183951113E+03  0.79095380008E+03  0.79897222584E+03  0.00000000000E+00 0. -1.
<mgrwt>
<rscale>  0 0.17355833E+04</rscale>
<asrwt>0</asrwt>
<pdfrwt beam="1">  1        2 0.27511367E+00 0.17355833E+04</pdfrwt>
<pdfrwt beam="2">  1       -1 0.64787626E-01 0.17355833E+04</pdfrwt>
<totfact> 0.22869142E+01</totfact>
</mgrwt>
</event>
<event>
12    6  0.1462228E-007  0.1610157E+04  0.7818608E-02  0.8814332E-01
         -1   -1    0    0    0  501 -0.00000000000E+00  0.00000000000E+00  0.13757733090E+03  0.13757733090E+03  0.00000000000E+00 0.  1.
          2   -1    0    0  501    0  0.00000000000E+00 -0.00000000000E+00 -0.47111805496E+04  0.47111805496E+04  0.00000000000E+00 0. -1.
         24    2    1    2    0    0 -0.18841152446E+03  0.33511899115E+03 -0.38769932287E+03  0.55096707719E+03  0.73826244761E+02 0.  0.
        254    2    1    2    0    0  0.18841152446E+03 -0.33511899115E+03 -0.41859038959E+04  0.42977908034E+04  0.89521546189E+03 0.  0.
         23    2    4    4    0    0  0.26457572435E+03  0.19762369127E+03 -0.83257109716E+03  0.90031367779E+03  0.91294300544E+02 0.  0.
         23    2    4    4    0    0 -0.76164199892E+02 -0.53274268242E+03 -0.33533327987E+04  0.33974771256E+04  0.91619915428E+02 0.  0.
          4    1    3    3  502    0 -0.55685513343E+02  0.99645912561E+02 -0.16555176794E+03  0.20109095493E+03  0.00000000000E+00 0. -1.
         -3    1    3    3    0  502 -0.13272601111E+03  0.23547307859E+03 -0.22214755493E+03  0.34987612226E+03  0.00000000000E+00 0.  1.
         11    1    5    5    0    0  0.12676814690E+03  0.13009580016E+03 -0.35633667760E+03  0.39996363347E+03  0.00000000000E+00 0. -1.
        -11    1    5    5    0    0  0.13780757745E+03  0.67527891106E+02 -0.47623441956E+03  0.50035004432E+03  0.00000000000E+00 0.  1.
          3    1    6    6  503    0 -0.81918603442E+02 -0.32427588852E+03 -0.22313181461E+04  0.22562460368E+04  0.00000000000E+00 0.  1.
         -3    1    6    6    0  503  0.57544035506E+01 -0.20846679390E+03 -0.11220146526E+04  0.11412310888E+04  0.00000000000E+00 0. -1.
<mgrwt>
<rscale>  0 0.16101573E+04</rscale>
<asrwt>0</asrwt>
<pdfrwt beam="1">  1        2 0.72479694E+00 0.16101573E+04</pdfrwt>
<pdfrwt beam="2">  1       -1 0.21165745E-01 0.16101573E+04</pdfrwt>
<totfact> 0.15692554E+00</totfact>
</mgrwt>
</event>
<event>
12    6  0.1462228E-007  0.1784086E+04  0.7818608E-02  0.8714808E-01
          2   -1    0    0  501    0  0.00000000000E+00  0.00000000000E+00  0.19063036052E+04  0.19063036052E+04  0.00000000000E+00 0. -1.
         -1   -1    0    0    0  501 -0.00000000000E+00 -0.00000000000E+00 -0.41742608200E+03  0.41742608200E+03  0.00000000000E+00 0.  1.
         24    2    1    2    0    0  0.27649997882E+01  0.54961091396E+03  0.11194369184E+04  0.12496992569E+04  0.80804805750E+02 0.  0.
        254    2    1    2    0    0 -0.27649997882E+01 -0.54961091396E+03  0.36944060488E+03  0.10740304303E+04  0.84556206321E+03 0.  0.
         23    2    4    4    0    0 -0.34490438140E+02 -0.49146395472E+03 -0.16524853280E+03  0.52746665045E+03  0.90485250931E+02 0.  0.
         23    2    4    4    0    0  0.31725438352E+02 -0.58146959241E+02  0.53468913768E+03  0.54656377986E+03  0.91934319965E+02 0.  0.
          4    1    3    3  502    0 -0.31603045576E+02  0.26999275941E+03  0.60232942283E+03  0.66082946078E+03  0.00000000000E+00 0. -1.
         -3    1    3    3    0  502  0.34368045365E+02  0.27961815455E+03  0.51710749553E+03  0.58886979616E+03  0.00000000000E+00 0.  1.
         11    1    5    5    0    0 -0.38706845344E+01 -0.17616050334E+03 -0.10464726410E+03  0.20493548990E+03  0.00000000000E+00 0.  1.
        -11    1    5    5    0    0 -0.30619753606E+02 -0.31530345137E+03 -0.60601268707E+02  0.32253116055E+03  0.00000000000E+00 0. -1.
          2    1    6    6  503    0  0.32895071167E+02 -0.79993053681E+02  0.47872082845E+03  0.48647158800E+03  0.00000000000E+00 0. -1.
         -2    1    6    6    0  503 -0.11696328149E+01  0.21846094439E+02  0.55968309237E+02  0.60092191856E+02  0.00000000000E+00 0.  1.
<mgrwt>
<rscale>  0 0.17840861E+04</rscale>
<asrwt>0</asrwt>
<pdfrwt beam="1">  1        2 0.29327747E+00 0.17840861E+04</pdfrwt>
<pdfrwt beam="2">  1       -1 0.64219398E-01 0.17840861E+04</pdfrwt>
<totfact> 0.19939241E+01</totfact>
</mgrwt>
</event>
<event>
12    6  0.1462228E-007  0.2110921E+04  0.7818608E-02  0.8556448E-01
         -1   -1    0    0    0  501 -0.00000000000E+00  0.00000000000E+00  0.95151976033E+03  0.95151976033E+03  0.00000000000E+00 0.  1.
          2   -1    0    0  501    0  0.00000000000E+00 -0.00000000000E+00 -0.11707549697E+04  0.11707549697E+04  0.00000000000E+00 0. -1.
         24    2    1    2    0    0 -0.61479119026E+03  0.50671579849E+03 -0.42370320454E+03  0.90565652454E+03  0.77202505372E+02 0.  0.
        254    2    1    2    0    0  0.61479119026E+03 -0.50671579849E+03  0.20446799516E+03  0.12166182055E+04  0.89645055014E+03 0.  0.
         23    2    4    4    0    0  0.27141636300E+03 -0.70898026831E+03  0.13296333731E+02  0.76456511983E+03  0.89795139123E+02 0.  0.
         23    2    4    4    0    0  0.34337482726E+03  0.20226446982E+03  0.19117166143E+03  0.45205308567E+03  0.94806119969E+02 0.  0.
          4    1    3    3  502    0 -0.56265894457E+03  0.43358757022E+03 -0.38362704286E+03  0.80731219300E+03  0.00000000000E+00 0. -1.
         -1    1    3    3    0  502 -0.52132245694E+02  0.73128228262E+02 -0.40076161686E+02  0.98344331537E+02  0.00000000000E+00 0.  1.
         11    1    5    5    0    0  0.17930179214E+03 -0.44632265157E+03 -0.34174967779E+02  0.48220428285E+03  0.00000000000E+00 0.  1.
        -11    1    5    5    0    0  0.92114570865E+02 -0.26265761673E+03  0.47471301510E+02  0.28236083698E+03  0.00000000000E+00 0. -1.
          1    1    6    6  503    0  0.93376749234E+02  0.83601324803E+02  0.20705308979E+02  0.12703191971E+03  0.00000000000E+00 0. -1.
         -1    1    6    6    0  503  0.24999807802E+03  0.11866314502E+03  0.17046635245E+03  0.32502116596E+03  0.00000000000E+00 0.  1.
<mgrwt>
<rscale>  0 0.21109206E+04</rscale>
<asrwt>0</asrwt>
<pdfrwt beam="1">  1        2 0.18011615E+00 0.21109206E+04</pdfrwt>
<pdfrwt beam="2">  1       -1 0.14638766E+00 0.21109206E+04</pdfrwt>
<totfact> 0.77131151E+00</totfact>
</mgrwt>
</event>
<event>
12    6  0.1462228E-007  0.1677233E+04  0.7818608E-02  0.8774457E-01
          2   -1    0    0  501    0  0.00000000000E+00  0.00000000000E+00  0.55691351726E+03  0.55691351726E+03  0.00000000000E+00 0. -1.
         -1   -1    0    0    0  501 -0.00000000000E+00 -0.00000000000E+00 -0.12628126507E+04  0.12628126507E+04  0.00000000000E+00 0.  1.
         24    2    1    2    0    0  0.49555215743E+03  0.26724829182E+03 -0.47345205614E+03  0.74012026111E+03  0.81409834894E+02 0.  0.
        254    2    1    2    0    0 -0.49555215743E+03 -0.26724829182E+03 -0.23244707728E+03  0.10796059068E+04  0.89136057807E+03 0.  0.
         23    2    4    4    0    0 -0.43911487744E+03  0.20084788308E+03  0.92174866362E+02  0.50006396231E+03  0.91684309907E+02 0.  0.
         23    2    4    4    0    0 -0.56437279995E+02 -0.46809617490E+03 -0.32462194364E+03  0.57954194453E+03  0.90500075413E+02 0.  0.
          2    1    3    3  502    0  0.36368181501E+03  0.20334820246E+03 -0.30215328788E+03  0.51469560265E+03  0.00000000000E+00 0. -1.
         -1    1    3    3    0  502  0.13187034242E+03  0.63900089360E+02 -0.17129876826E+03  0.22542465846E+03  0.00000000000E+00 0.  1.
         11    1    5    5    0    0 -0.12727439258E+02 -0.39210813805E+01 -0.93639295224E+01  0.16280226208E+02  0.00000000000E+00 0. -1.
        -11    1    5    5    0    0 -0.42638743818E+03  0.20476896446E+03  0.10153879588E+03  0.48378373610E+03  0.00000000000E+00 0.  1.
          3    1    6    6  503    0 -0.41356331329E+02 -0.83593417184E+02 -0.43012769210E+02  0.10270493587E+03  0.00000000000E+00 0. -1.
         -3    1    6    6    0  503 -0.15080948667E+02 -0.38450275772E+03 -0.28160917443E+03  0.47683700866E+03  0.00000000000E+00 0.  1.
<mgrwt>
<rscale>  0 0.16772328E+04</rscale>
<asrwt>0</asrwt>
<pdfrwt beam="1">  1        2 0.85679003E-01 0.16772328E+04</pdfrwt>
<pdfrwt beam="2">  1       -1 0.19427887E+00 0.16772328E+04</pdfrwt>
<totfact> 0.97416760E+00</totfact>
</mgrwt>
</event>
<event>
12    6  0.1462228E-007  0.1593884E+04  0.7818608E-02  0.8824314E-01
          2   -1    0    0  501    0  0.00000000000E+00  0.00000000000E+00  0.54707839419E+03  0.54707839419E+03  0.00000000000E+00 0. -1.
         -1   -1    0    0    0  501 -0.00000000000E+00 -0.00000000000E+00 -0.11609238803E+04  0.11609238803E+04  0.00000000000E+00 0.  1.
         24    2    1    2    0    0  0.41318161267E+03 -0.30506744127E+03 -0.33130769301E+03  0.61644582683E+03  0.80346009161E+02 0.  0.
        254    2    1    2    0    0 -0.41318161267E+03  0.30506744127E+03 -0.28253779307E+03  0.10915564476E+04  0.92080545453E+03 0.  0.
         23    2    4    4    0    0 -0.16077581795E+03  0.47163902764E+03 -0.49699882641E+03  0.70951878365E+03  0.90093478464E+02 0.  0.
         23    2    4    4    0    0 -0.25240579473E+03 -0.16657158637E+03  0.21446103334E+03  0.38203766399E+03  0.92219646958E+02 0.  0.
          4    1    3    3  502    0  0.26805331533E+03 -0.17491185737E+03 -0.16446727581E+03  0.35985583574E+03  0.00000000000E+00 0. -1.
         -3    1    3    3    0  502  0.14512829735E+03 -0.13015558390E+03 -0.16684041721E+03  0.25658999108E+03  0.00000000000E+00 0.  1.
         11    1    5    5    0    0  0.98513707154E+00  0.36205250649E+02 -0.68826798435E+02  0.77774795740E+02  0.00000000000E+00 0.  1.
        -11    1    5    5    0    0 -0.16176095502E+03  0.43543377699E+03 -0.42817202798E+03  0.63174398791E+03  0.00000000000E+00 0. -1.
          3    1    6    6  503    0 -0.24902403119E+03 -0.16362362428E+03  0.18176057287E+03  0.34903089317E+03  0.00000000000E+00 0. -1.
         -3    1    6    6    0  503 -0.33817635373E+01 -0.29479620853E+01  0.32700460469E+02  0.33006770820E+02  0.00000000000E+00 0.  1.
<mgrwt>
<rscale>  0 0.15938838E+04</rscale>
<asrwt>0</asrwt>
<pdfrwt beam="1">  1        2 0.84165908E-01 0.15938838E+04</pdfrwt>
<pdfrwt beam="2">  1       -1 0.17860367E+00 0.15938838E+04</pdfrwt>
<totfact> 0.12935696E+01</totfact>
</mgrwt>
</event>
<event>
12    6  0.1462228E-007  0.2454738E+04  0.7818608E-02  0.8419290E-01
          2   -1    0    0  501    0  0.00000000000E+00  0.00000000000E+00  0.13297751160E+04  0.13297751160E+04  0.00000000000E+00 0. -1.
         -1   -1    0    0    0  501 -0.00000000000E+00 -0.00000000000E+00 -0.11328489833E+04  0.11328489833E+04  0.00000000000E+00 0.  1.
         24    2    1    2    0    0  0.36563863551E+03 -0.39288798897E+03 -0.83281281902E+03  0.99406368201E+03  0.80825916054E+02 0.  0.
        254    2    1    2    0    0 -0.36563863551E+03  0.39288798897E+03  0.10297389517E+04  0.14685604173E+04  0.89902992546E+03 0.  0.
         23    2    4    4    0    0  0.15106540596E+03 -0.14203821205E+03  0.45485019811E+02  0.23150907681E+03  0.92368582625E+02 0.  0.
         23    2    4    4    0    0 -0.51670404147E+03  0.53492620102E+03  0.98425393186E+03  0.12370513404E+04  0.91712101176E+02 0.  0.
          2    1    3    3  502    0 -0.78438323555E-01 -0.12435849634E+02 -0.77122619169E+01  0.14633369146E+02  0.00000000000E+00 0. -1.
         -1    1    3    3    0  502  0.36571707383E+03 -0.38045213934E+03 -0.82510055710E+03  0.97943031286E+03  0.00000000000E+00 0.  1.
         11    1    5    5    0    0  0.10414314874E+03 -0.14623157486E+03  0.41294908204E+02  0.18421383868E+03  0.00000000000E+00 0. -1.
        -11    1    5    5    0    0  0.46922257218E+02  0.41933628159E+01  0.41901116064E+01  0.47295238126E+02  0.00000000000E+00 0.  1.
          3    1    6    6  503    0 -0.31322130647E+03  0.38620026208E+03  0.66103843972E+03  0.82718199209E+03  0.00000000000E+00 0. -1.
         -3    1    6    6    0  503 -0.20348273500E+03  0.14872593894E+03  0.32321549215E+03  0.40986934835E+03  0.00000000000E+00 0.  1.
<mgrwt>
<rscale>  0 0.24547378E+04</rscale>
<asrwt>0</asrwt>
<pdfrwt beam="1">  1        2 0.20458079E+00 0.24547378E+04</pdfrwt>
<pdfrwt beam="2">  1       -1 0.17428446E+00 0.24547378E+04</pdfrwt>
<totfact> 0.37093036E+00</totfact>
</mgrwt>
</event>
<event>
12    6  0.1721251E-007  0.1536186E+04  0.7818608E-02  0.8860740E-01
         -1   -1    0    0    0  501 -0.00000000000E+00  0.00000000000E+00  0.52284411960E+03  0.52284411960E+03  0.00000000000E+00 0.  1.
          2   -1    0    0  501    0  0.00000000000E+00 -0.00000000000E+00 -0.11283807300E+04  0.11283807300E+04  0.00000000000E+00 0. -1.
         24    2    1    2    0    0 -0.43249327908E+03  0.20989724221E+02  0.70113267909E+02  0.44587585035E+03  0.79989990745E+02 0.  0.
        254    2    1    2    0    0  0.43249327908E+03 -0.20989724221E+02 -0.67564987829E+03  0.12053489992E+04  0.89937336348E+03 0.  0.
         23    2    4    4    0    0  0.22347376751E+02 -0.29461625882E+03  0.60745807448E+02  0.31477943772E+03  0.89988310795E+02 0.  0.
         23    2    4    4    0    0  0.41014590232E+03  0.27362653460E+03 -0.73639568574E+03  0.89056956151E+03  0.88002251564E+02 0.  0.
          4    1    3    3  502    0 -0.83595285105E+02  0.22773983809E+02  0.40730689640E+02  0.95738263557E+02  0.00000000000E+00 0. -1.
         -3    1    3    3    0  502 -0.34889799397E+03 -0.17842595889E+01  0.29382578269E+02  0.35013758679E+03  0.00000000000E+00 0.  1.
         11    1    5    5    0    0 -0.30564075191E+02 -0.68917384443E+02  0.10478760429E+01  0.75398054451E+02  0.00000000000E+00 0. -1.
        -11    1    5    5    0    0  0.52911451942E+02 -0.22569887437E+03  0.59697931406E+02  0.23938138327E+03  0.00000000000E+00 0.  1.
          2    1    6    6  503    0  0.92290316203E+01  0.76485020686E+01 -0.13465917491E+01  0.12061837251E+02  0.00000000000E+00 0. -1.
         -2    1    6    6    0  503  0.40091687070E+03  0.26597803253E+03 -0.73504909399E+03  0.87850772426E+03  0.00000000000E+00 0.  1.
<mgrwt>
<rscale>  0 0.15361865E+04</rscale>
<asrwt>0</asrwt>
<pdfrwt beam="1">  1        2 0.17359703E+00 0.15361865E+04</pdfrwt>
<pdfrwt beam="2">  1       -1 0.80437558E-01 0.15361865E+04</pdfrwt>
<totfact> 0.35465751E+01</totfact>
</mgrwt>
</event>
<event>
12    6  0.1462228E-007  0.1323499E+04  0.7818608E-02  0.9011135E-01
          2   -1    0    0  501    0  0.00000000000E+00  0.00000000000E+00  0.93785288253E+03  0.93785288253E+03  0.00000000000E+00 0. -1.
         -1   -1    0    0    0  501 -0.00000000000E+00 -0.00000000000E+00 -0.46693108295E+03  0.46693108295E+03  0.00000000000E+00 0.  1.
         24    2    1    2    0    0  0.37468936677E+03 -0.75084958846E+02  0.15253753851E+03  0.41903439206E+03  0.79323694170E+02 0.  0.
        254    2    1    2    0    0 -0.37468936677E+03  0.75084958846E+02  0.31838426107E+03  0.98574957342E+03  0.85106040396E+03 0.  0.
         23    2    4    4    0    0 -0.28156539986E+03  0.18919520831E+02  0.59982146310E+03  0.67003977058E+03  0.97624197271E+02 0.  0.
         23    2    4    4    0    0 -0.93123966901E+02  0.56165438015E+02 -0.28143720204E+03  0.31570980284E+03  0.92947034800E+02 0.  0.
          2    1    3    3  502    0  0.32252858394E+03 -0.76987469470E+02  0.15654505541E+03  0.36668530416E+03  0.00000000000E+00 0. -1.
         -1    1    3    3    0  502  0.52160782828E+02  0.19025106248E+01 -0.40075168964E+01  0.52349087897E+02  0.00000000000E+00 0.  1.
         11    1    5    5    0    0 -0.27402499794E+03  0.14495877839E+02  0.60150083196E+03  0.66113771699E+03  0.00000000000E+00 0. -1.
        -11    1    5    5    0    0 -0.75404019244E+01  0.44236429922E+01 -0.16793688567E+01  0.89020535979E+01  0.00000000000E+00 0.  1.
          3    1    6    6  503    0 -0.10128065625E+03  0.56119953341E+02 -0.28437144927E+03  0.30704127027E+03  0.00000000000E+00 0. -1.
         -3    1    6    6    0  503  0.81566893522E+01  0.45484673443E-01  0.29342472262E+01  0.86685325648E+01  0.00000000000E+00 0.  1.
<mgrwt>
<rscale>  0 0.13234994E+04</rscale>
<asrwt>0</asrwt>
<pdfrwt beam="1">  1        2 0.14428506E+00 0.13234994E+04</pdfrwt>
<pdfrwt beam="2">  1       -1 0.71835551E-01 0.13234994E+04</pdfrwt>
<totfact> 0.60418221E+01</totfact>
</mgrwt>
</event>
<event>
12    6  0.1462228E-007  0.1307491E+04  0.7818608E-02  0.9023645E-01
         -1   -1    0    0    0  501 -0.00000000000E+00  0.00000000000E+00  0.31356428216E+03  0.31356428216E+03  0.00000000000E+00 0.  1.
          2   -1    0    0  501    0  0.00000000000E+00 -0.00000000000E+00 -0.13629849366E+04  0.13629849366E+04  0.00000000000E+00 0. -1.
         24    2    1    2    0    0  0.10130805133E+03 -0.26369684353E+03  0.36492559296E+02  0.29633377398E+03  0.81747490270E+02 0.  0.
        254    2    1    2    0    0 -0.10130805133E+03  0.26369684353E+03 -0.10859132137E+04  0.13802154448E+04  0.80373367461E+03 0.  0.
         23    2    4    4    0    0  0.28488506399E+03 -0.96768796544E+02 -0.39667475647E+03  0.50799037144E+03  0.10089427825E+03 0.  0.
         23    2    4    4    0    0 -0.38619311532E+03  0.36046564007E+03 -0.68923845726E+03  0.87222507334E+03  0.81525012140E+02 0.  0.
          2    1    3    3  502    0  0.77837424086E+02 -0.90909382565E+02  0.16731545200E+02  0.12084339052E+03  0.00000000000E+00 0. -1.
         -1    1    3    3    0  502  0.23470627240E+02 -0.17278746097E+03  0.19761014097E+02  0.17549038346E+03  0.00000000000E+00 0.  1.
         11    1    5    5    0    0 -0.43482628033E+01  0.84224312126E+01 -0.14038343757E+02  0.16938708108E+02  0.00000000000E+00 0.  1.
        -11    1    5    5    0    0  0.28923332680E+03 -0.10519122776E+03 -0.38263641271E+03  0.49105166333E+03  0.00000000000E+00 0. -1.
          1    1    6    6  503    0 -0.28581206287E+03  0.29756516147E+03 -0.57450227083E+03  0.70730928157E+03  0.00000000000E+00 0. -1.
         -1    1    6    6    0  503 -0.10038105245E+03  0.62900478604E+02 -0.11473618643E+03  0.16491579177E+03  0.00000000000E+00 0.  1.
<mgrwt>
<rscale>  0 0.13074913E+04</rscale>
<asrwt>0</asrwt>
<pdfrwt beam="1">  1        2 0.20968999E+00 0.13074913E+04</pdfrwt>
<pdfrwt beam="2">  1       -1 0.48240660E-01 0.13074913E+04</pdfrwt>
<totfact> 0.72888148E+01</totfact>
</mgrwt>
</event>
<event>
12    6  0.1462228E-007  0.1808008E+04  0.7818608E-02  0.8702053E-01
          2   -1    0    0  501    0  0.00000000000E+00  0.00000000000E+00  0.55167172659E+03  0.55167172659E+03  0.00000000000E+00 0. -1.
         -1   -1    0    0    0  501 -0.00000000000E+00 -0.00000000000E+00 -0.14813575025E+04  0.14813575025E+04  0.00000000000E+00 0.  1.
         24    2    1    2    0    0 -0.12808804847E+03  0.33704282830E+03 -0.99435702471E+03  0.10611750298E+04  0.85686259259E+02 0.  0.
        254    2    1    2    0    0  0.12808804847E+03 -0.33704282830E+03  0.64671248805E+02  0.97185419927E+03  0.90017431531E+03 0.  0.
         23    2    4    4    0    0  0.70108205557E+02  0.30074557139E+03  0.15398781410E+02  0.32251981681E+03  0.91754294540E+02 0.  0.
         23    2    4    4    0    0  0.57979842913E+02 -0.63778839969E+03  0.49272467394E+02  0.64933438246E+03  0.95245258359E+02 0.  0.
          2    1    3    3  502    0 -0.62500052024E+02  0.26827130034E+03 -0.75065405052E+03  0.79959818075E+03  0.00000000000E+00 0. -1.
         -1    1    3    3    0  502 -0.65587996446E+02  0.68771527957E+02 -0.24370297419E+03  0.26157684906E+03  0.00000000000E+00 0.  1.
         11    1    5    5    0    0  0.70612050751E+02  0.20447729747E+03 -0.25693989012E+02  0.21784675339E+03  0.00000000000E+00 0. -1.
        -11    1    5    5    0    0 -0.50384519454E+00  0.96268273922E+02  0.41092770422E+02  0.10467306342E+03  0.00000000000E+00 0.  1.
          1    1    6    6  503    0  0.81228712660E+02 -0.56895680743E+03  0.40428530815E+02  0.57614617814E+03  0.00000000000E+00 0. -1.
         -1    1    6    6    0  503 -0.23248869747E+02 -0.68831592261E+02  0.88439365791E+01  0.73188204322E+02  0.00000000000E+00 0.  1.
<mgrwt>
<rscale>  0 0.18080078E+04</rscale>
<asrwt>0</asrwt>
<pdfrwt beam="1">  1        2 0.84872574E-01 0.18080078E+04</pdfrwt>
<pdfrwt beam="2">  1       -1 0.22790115E+00 0.18080078E+04</pdfrwt>
<totfact> 0.57624611E+00</totfact>
</mgrwt>
</event>
<event>
12    6  0.1462228E-007  0.1274452E+04  0.7818608E-02  0.9050074E-01
         -1   -1    0    0    0  501 -0.00000000000E+00  0.00000000000E+00  0.13476507464E+04  0.13476507464E+04  0.00000000000E+00 0.  1.
          2   -1    0    0  501    0  0.00000000000E+00 -0.00000000000E+00 -0.30130750645E+03  0.30130750645E+03  0.00000000000E+00 0. -1.
         24    2    1    2    0    0  0.14914790547E+02 -0.79189451930E+02  0.63885682893E+03  0.64880695184E+03  0.79492091489E+02 0.  0.
        254    2    1    2    0    0 -0.14914790547E+02  0.79189451930E+02  0.40748641103E+03  0.10001513010E+04  0.90981538209E+03 0.  0.
         23    2    4    4    0    0 -0.17127819038E+02 -0.39316118853E+03  0.31146304935E+03  0.50974987766E+03  0.89255948323E+02 0.  0.
         23    2    4    4    0    0  0.22130284915E+01  0.47235064046E+03  0.96023361679E+02  0.49040142337E+03  0.90294213651E+02 0.  0.
          4    1    3    3  502    0  0.23706417243E+02 -0.19674028099E+02  0.43929747562E+03  0.44037635460E+03  0.00000000000E+00 0. -1.
         -3    1    3    3    0  502 -0.87916266964E+01 -0.59515423831E+02  0.19955935331E+03  0.20843059724E+03  0.00000000000E+00 0.  1.
         11    1    5    5    0    0 -0.17605954593E+02 -0.16540755556E+03  0.18673388838E+03  0.25007833602E+03  0.00000000000E+00 0.  1.
        -11    1    5    5    0    0  0.47813555471E+00 -0.22775363296E+03  0.12472916097E+03  0.25967154164E+03  0.00000000000E+00 0. -1.
          1    1    6    6  503    0 -0.24875161966E+01  0.17003566432E+03 -0.90974401822E+01  0.17029702961E+03  0.00000000000E+00 0. -1.
         -1    1    6    6    0  503  0.47005446881E+01  0.30231497614E+03  0.10512080186E+03  0.32010439376E+03  0.00000000000E+00 0.  1.
<mgrwt>
<rscale>  0 0.12744525E+04</rscale>
<asrwt>0</asrwt>
<pdfrwt beam="1">  1        2 0.46355002E-01 0.12744525E+04</pdfrwt>
<pdfrwt beam="2">  1       -1 0.20733088E+00 0.12744525E+04</pdfrwt>
<totfact> 0.16478457E+01</totfact>
</mgrwt>
</event>
<event>
12    6  0.1462228E-007  0.2315028E+04  0.7818608E-02  0.8472019E-01
          2   -1    0    0  501    0  0.00000000000E+00  0.00000000000E+00  0.18665898152E+04  0.18665898152E+04  0.00000000000E+00 0. -1.
         -1   -1    0    0    0  501 -0.00000000000E+00 -0.00000000000E+00 -0.71780038767E+03  0.71780038767E+03  0.00000000000E+00 0.  1.
         24    2    1    2    0    0 -0.28057876427E+02  0.42665770116E+03 -0.49346453092E+03  0.65824895434E+03  0.83429037075E+02 0.  0.
        254    2    1    2    0    0  0.28057876427E+02 -0.42665770116E+03  0.16422539584E+04  0.19261412485E+04  0.91115202181E+03 0.  0.
         23    2    4    4    0    0  0.54552788111E+02 -0.70031430628E+03  0.12689602696E+04  0.14532293858E+04  0.90550248956E+02 0.  0.
         23    2    4    4    0    0 -0.26494911683E+02  0.27365660512E+03  0.37329368878E+03  0.47291186270E+03  0.93314167861E+02 0.  0.
          4    1    3    3  502    0 -0.50610672167E+02  0.15976133592E+03 -0.19989188400E+03  0.26084840402E+03  0.00000000000E+00 0. -1.
         -3    1    3    3    0  502  0.22552795740E+02  0.26689636524E+03 -0.29357264692E+03  0.39740055031E+03  0.00000000000E+00 0.  1.
         11    1    5    5    0    0  0.27217981542E+02 -0.57522833447E+03  0.10954232227E+04  0.12375703988E+04  0.00000000000E+00 0.  1.
        -11    1    5    5    0    0  0.27334806569E+02 -0.12508597180E+03  0.17353704695E+03  0.21565898696E+03  0.00000000000E+00 0. -1.
          4    1    6    6  503    0  0.29150462990E+02  0.39893913114E+02  0.52412528598E+02  0.72030180828E+02  0.00000000000E+00 0.  1.
         -4    1    6    6    0  503 -0.55645374674E+02  0.23376269201E+03  0.32088116018E+03  0.40088168187E+03  0.00000000000E+00 0. -1.
<mgrwt>
<rscale>  0 0.23150282E+04</rscale>
<asrwt>0</asrwt>
<pdfrwt beam="1">  1        2 0.28716766E+00 0.23150282E+04</pdfrwt>
<pdfrwt beam="2">  1       -1 0.11043083E+00 0.23150282E+04</pdfrwt>
<totfact> 0.61762510E+00</totfact>
</mgrwt>
</event>
<event>
12    6  0.1462228E-007  0.1848906E+04  0.7818608E-02  0.8680716E-01
         -1   -1    0    0    0  501 -0.00000000000E+00  0.00000000000E+00  0.17239887516E+04  0.17239887516E+04  0.00000000000E+00 0.  1.
          2   -1    0    0  501    0  0.00000000000E+00 -0.00000000000E+00 -0.49571874214E+03  0.49571874214E+03  0.00000000000E+00 0. -1.
         24    2    1    2    0    0  0.90065471693E+02 -0.20732996981E+03  0.12539699402E+04  0.12768961844E+04  0.83221086094E+02 0.  0.
        254    2    1    2    0    0 -0.90065471693E+02  0.20732996981E+03 -0.25699930690E+02  0.94281130943E+03  0.91495091298E+03 0.  0.
         23    2    4    4    0    0 -0.31316145498E+03 -0.23964922056E+03 -0.13228945113E+03  0.42565280510E+03  0.90432106057E+02 0.  0.
         23    2    4    4    0    0  0.22309598329E+03  0.44697919037E+03  0.10658952044E+03  0.51715850433E+03  0.80804568830E+02 0.  0.
          4    1    3    3  502    0  0.34256081405E+00 -0.40522322995E+01  0.75582735432E+00  0.41363280226E+01  0.00000000000E+00 0. -1.
         -3    1    3    3    0  502  0.89722910879E+02 -0.20327773751E+03  0.12532141128E+04  0.12727598563E+04  0.00000000000E+00 0.  1.
         11    1    5    5    0    0 -0.90880893492E+02 -0.53918758998E+02 -0.77026489236E+02  0.13076562782E+03  0.00000000000E+00 0. -1.
        -11    1    5    5    0    0 -0.22228056149E+03 -0.18573046156E+03 -0.55262961891E+02  0.29488717728E+03  0.00000000000E+00 0.  1.
          1    1    6    6  503    0  0.13374876752E+03  0.23282515365E+03  0.95022170715E+02  0.28482538144E+03  0.00000000000E+00 0. -1.
         -1    1    6    6    0  503  0.89347215766E+02  0.21415403672E+03  0.11567349723E+02  0.23233312288E+03  0.00000000000E+00 0.  1.
<mgrwt>
<rscale>  0 0.18489062E+04</rscale>
<asrwt>0</asrwt>
<pdfrwt beam="1">  1        2 0.76264423E-01 0.18489062E+04</pdfrwt>
<pdfrwt beam="2">  1       -1 0.26522904E+00 0.18489062E+04</pdfrwt>
<totfact> 0.37097724E+00</totfact>
</mgrwt>
</event>
<event>
12    6  0.1462228E-007  0.3755833E+04  0.7818608E-02  0.8055700E-01
         -1   -1    0    0    0  501 -0.00000000000E+00  0.00000000000E+00  0.16476562884E+04  0.16476562884E+04  0.00000000000E+00 0.  1.
          2   -1    0    0  501    0  0.00000000000E+00 -0.00000000000E+00 -0.21403551867E+04  0.21403551867E+04  0.00000000000E+00 0. -1.
         24    2    1    2    0    0 -0.21824053876E+03 -0.17467518255E+04 -0.40804029520E+03  0.18088196022E+04  0.80997520338E+02 0.  0.
        254    2    1    2    0    0  0.21824053876E+03  0.17467518255E+04 -0.84658603085E+02  0.19791918729E+04  0.90070112598E+03 0.  0.
         23    2    4    4    0    0 -0.41379053833E+02  0.12947060441E+04 -0.40484306374E+03  0.13603387876E+04  0.92993246879E+02 0.  0.
         23    2    4    4    0    0  0.25961959259E+03  0.45204578133E+03  0.32018446065E+03  0.61885308535E+03  0.93345225537E+02 0.  0.
          2    1    3    3  502    0 -0.12759434552E+03 -0.95543299227E+03 -0.18285786008E+03  0.98110627188E+03  0.00000000000E+00 0. -1.
         -1    1    3    3    0  502 -0.90646193239E+02 -0.79131883319E+03 -0.22518243512E+03  0.82771333033E+03  0.00000000000E+00 0.  1.
         11    1    5    5    0    0 -0.57509689577E+02  0.98653318817E+03 -0.27686987784E+03  0.10262611875E+04  0.00000000000E+00 0.  1.
        -11    1    5    5    0    0  0.16130635744E+02  0.30817285597E+03 -0.12797318590E+03  0.33407760008E+03  0.00000000000E+00 0. -1.
          3    1    6    6  503    0  0.13139837430E+03  0.31803750412E+03  0.20917809912E+03  0.40270195424E+03  0.00000000000E+00 0. -1.
         -3    1    6    6    0  503  0.12822121829E+03  0.13400827721E+03  0.11100636153E+03  0.21615113111E+03  0.00000000000E+00 0.  1.
<mgrwt>
<rscale>  0 0.37558326E+04</rscale>
<asrwt>0</asrwt>
<pdfrwt beam="1">  1        2 0.32928541E+00 0.37558326E+04</pdfrwt>
<pdfrwt beam="2">  1       -1 0.25348558E+00 0.37558326E+04</pdfrwt>
<totfact> 0.33773887E-01</totfact>
</mgrwt>
</event>
<event>
12    6  0.1462228E-007  0.2951497E+04  0.7818608E-02  0.8257718E-01
         -1   -1    0    0    0  501 -0.00000000000E+00  0.00000000000E+00  0.75084330315E+03  0.75084330315E+03  0.00000000000E+00 0.  1.
          2   -1    0    0  501    0  0.00000000000E+00 -0.00000000000E+00 -0.29005176205E+04  0.29005176205E+04  0.00000000000E+00 0. -1.
         24    2    1    2    0    0  0.19954030079E+02  0.74573212616E+03  0.39766237899E+03  0.84950727222E+03  0.83741689663E+02 0.  0.
        254    2    1    2    0    0 -0.19954030079E+02 -0.74573212616E+03 -0.25473366963E+04  0.28018536514E+04  0.89718731165E+03 0.  0.
         23    2    4    4    0    0 -0.25319550244E+03  0.36664566584E+02 -0.29118298283E+03  0.40066024538E+03  0.10143396785E+03 0.  0.
         23    2    4    4    0    0  0.23324147236E+03 -0.78239669275E+03 -0.22561537135E+04  0.24011934060E+04  0.94625710270E+02 0.  0.
          4    1    3    3  502    0 -0.29134837197E+02  0.14825454993E+03  0.74423411968E+02  0.16842533825E+03  0.00000000000E+00 0. -1.
         -3    1    3    3    0  502  0.49088867276E+02  0.59747757623E+03  0.32323896702E+03  0.68108193398E+03  0.00000000000E+00 0.  1.
         11    1    5    5    0    0 -0.22953725274E+03  0.15933811115E+01 -0.22054944743E+03  0.31832679439E+03  0.00000000000E+00 0. -1.
        -11    1    5    5    0    0 -0.23658249699E+02  0.35071185472E+02 -0.70633535397E+02  0.82333450990E+02  0.00000000000E+00 0.  1.
          3    1    6    6  503    0  0.21905883532E+03 -0.72599848914E+03 -0.21547719743E+04  0.22843167120E+04  0.00000000000E+00 0. -1.
         -3    1    6    6    0  503  0.14182637047E+02 -0.56398203609E+02 -0.10138173918E+03  0.11687669401E+03  0.00000000000E+00 0.  1.
<mgrwt>
<rscale>  0 0.29514974E+04</rscale>
<asrwt>0</asrwt>
<pdfrwt beam="1">  1        2 0.44623349E+00 0.29514974E+04</pdfrwt>
<pdfrwt beam="2">  1       -1 0.11551435E+00 0.29514974E+04</pdfrwt>
<totfact> 0.13307117E+00</totfact>
</mgrwt>
</event>
<event>
12    6  0.1462228E-007  0.1867476E+04  0.7818608E-02  0.8671217E-01
          2   -1    0    0  501    0  0.00000000000E+00  0.00000000000E+00  0.14832534895E+04  0.14832534895E+04  0.00000000000E+00 0. -1.
         -1   -1    0    0    0  501 -0.00000000000E+00 -0.00000000000E+00 -0.58780704328E+03  0.58780704328E+03  0.00000000000E+00 0.  1.
         24    2    1    2    0    0 -0.53776131063E+03  0.41989859708E+03  0.67560982227E+02  0.69010865969E+03  0.78634704845E+02 0.  0.
        254    2    1    2    0    0  0.53776131063E+03 -0.41989859708E+03  0.82788546400E+03  0.13809518731E+04  0.86955832197E+03 0.  0.
         23    2    4    4    0    0  0.35492044939E+02  0.21326617497E+03  0.39404097651E+03  0.45927361442E+03  0.94455360332E+02 0.  0.
         23    2    4    4    0    0  0.50226926570E+03 -0.63316477205E+03  0.43384448750E+03  0.92167825869E+03  0.89987384618E+02 0.  0.
          2    1    3    3  502    0 -0.11409392052E+03  0.63676821047E+02  0.36741630783E+02  0.13572806515E+03  0.00000000000E+00 0. -1.
         -1    1    3    3    0  502 -0.42366739012E+03  0.35622177604E+03  0.30819351444E+02  0.55438059453E+03  0.00000000000E+00 0.  1.
         11    1    5    5    0    0  0.61537163315E+02  0.19348959085E+03  0.33277463310E+03  0.38982560289E+03  0.00000000000E+00 0. -1.
        -11    1    5    5    0    0 -0.26045118376E+02  0.19776584123E+02  0.61266343405E+02  0.69448011526E+02  0.00000000000E+00 0.  1.
          4    1    6    6  503    0  0.46433150261E+03 -0.55932921100E+03  0.36297362730E+03  0.81252862394E+03  0.00000000000E+00 0. -1.
         -4    1    6    6    0  503  0.37937763082E+02 -0.73835561048E+02  0.70870860195E+02  0.10914963476E+03  0.00000000000E+00 0.  1.
<mgrwt>
<rscale>  0 0.18674762E+04</rscale>
<asrwt>0</asrwt>
<pdfrwt beam="1">  1        2 0.22819284E+00 0.18674762E+04</pdfrwt>
<pdfrwt beam="2">  1       -1 0.90431853E-01 0.18674762E+04</pdfrwt>
<totfact> 0.16591694E+01</totfact>
</mgrwt>
</event>
<event>
12    6  0.1462228E-007  0.2121542E+04  0.7818608E-02  0.8551813E-01
          2   -1    0    0  501    0  0.00000000000E+00  0.00000000000E+00  0.16709976647E+04  0.16709976647E+04  0.00000000000E+00 0. -1.
         -1   -1    0    0    0  501 -0.00000000000E+00 -0.00000000000E+00 -0.67339133442E+03  0.67339133442E+03  0.00000000000E+00 0.  1.
         24    2    1    2    0    0 -0.54370232101E+03  0.11303748052E+03 -0.32483633142E+03  0.64932986057E+03  0.87868878146E+02 0.  0.
        254    2    1    2    0    0  0.54370232101E+03 -0.11303748052E+03  0.13224426617E+04  0.16950591385E+04  0.90331677934E+03 0.  0.
         23    2    4    4    0    0  0.69666818362E+03 -0.20288810212E+03  0.13030763555E+04  0.14943188397E+04  0.92036223815E+02 0.  0.
         23    2    4    4    0    0 -0.15296586261E+03  0.89850621598E+02  0.19366306159E+02  0.20074029878E+03  0.91923470416E+02 0.  0.
          2    1    3    3  502    0 -0.14807575360E+03 -0.84159407417E+01 -0.81107819163E+02  0.16904358962E+03  0.00000000000E+00 0. -1.
         -1    1    3    3    0  502 -0.39562656741E+03  0.12145342126E+03 -0.24372851225E+03  0.48028627095E+03  0.00000000000E+00 0.  1.
         11    1    5    5    0    0  0.17739064796E+02  0.27356905849E+01  0.64800717942E+02  0.67240549288E+02  0.00000000000E+00 0.  1.
        -11    1    5    5    0    0  0.67892911882E+03 -0.20562379270E+03  0.12382756376E+04  0.14270782904E+04  0.00000000000E+00 0. -1.
          1    1    6    6  503    0 -0.13402392332E+03  0.58082713004E+02  0.48229202755E+02  0.15382480155E+03  0.00000000000E+00 0. -1.
         -1    1    6    6    0  503 -0.18941939288E+02  0.31767908594E+02 -0.28862896596E+02  0.46915497230E+02  0.00000000000E+00 0.  1.
<mgrwt>
<rscale>  0 0.21215422E+04</rscale>
<asrwt>0</asrwt>
<pdfrwt beam="1">  1        2 0.25707656E+00 0.21215422E+04</pdfrwt>
<pdfrwt beam="2">  1       -1 0.10359867E+00 0.21215422E+04</pdfrwt>
<totfact> 0.93673623E+00</totfact>
</mgrwt>
</event>
<event>
12    6  0.1462228E-007  0.1386702E+04  0.7818608E-02  0.8963501E-01
          2   -1    0    0  501    0  0.00000000000E+00  0.00000000000E+00  0.55645429526E+03  0.55645429526E+03  0.00000000000E+00 0. -1.
         -1   -1    0    0    0  501 -0.00000000000E+00 -0.00000000000E+00 -0.86392610282E+03  0.86392610282E+03  0.00000000000E+00 0.  1.
         24    2    1    2    0    0  0.13828370045E+03 -0.17774667497E+03  0.23451762438E+03  0.33608767252E+03  0.85089042807E+02 0.  0.
        254    2    1    2    0    0 -0.13828370045E+03  0.17774667497E+03 -0.54198943194E+03  0.10842927256E+04  0.91171372047E+03 0.  0.
         23    2    4    4    0    0  0.17988616179E+03 -0.19270489417E+03 -0.51598811233E+03  0.58658993390E+03  0.91377300492E+02 0.  0.
         23    2    4    4    0    0 -0.31816986224E+03  0.37045156914E+03 -0.26001319604E+02  0.49770279165E+03  0.92550385654E+02 0.  0.
          4    1    3    3  502    0  0.12328391729E+03 -0.16046028335E+03  0.23858662632E+03  0.31284182114E+03  0.00000000000E+00 0. -1.
         -3    1    3    3    0  502  0.14999783155E+02 -0.17286391617E+02 -0.40690019369E+01  0.23245851385E+02  0.00000000000E+00 0.  1.
         11    1    5    5    0    0  0.10920335284E+02 -0.22794124291E+02 -0.12875632127E+03  0.13121362769E+03  0.00000000000E+00 0.  1.
        -11    1    5    5    0    0  0.16896582651E+03 -0.16991076988E+03 -0.38723179106E+03  0.45537630621E+03  0.00000000000E+00 0. -1.
          1    1    6    6  503    0 -0.24774761348E+03  0.27396517692E+03 -0.58338040194E+02  0.37395069873E+03  0.00000000000E+00 0. -1.
         -1    1    6    6    0  503 -0.70422248758E+02  0.96486392217E+02  0.32336720590E+02  0.12375209292E+03  0.00000000000E+00 0.  1.
<mgrwt>
<rscale>  0 0.13867017E+04</rscale>
<asrwt>0</asrwt>
<pdfrwt beam="1">  1        2 0.85608353E-01 0.13867017E+04</pdfrwt>
<pdfrwt beam="2">  1       -1 0.13291171E+00 0.13867017E+04</pdfrwt>
<totfact> 0.28991929E+01</totfact>
</mgrwt>
</event>
<event>
12    6  0.1462228E-007  0.1515305E+04  0.7818608E-02  0.8874339E-01
         -1   -1    0    0    0  501 -0.00000000000E+00  0.00000000000E+00  0.12370292030E+04  0.12370292030E+04  0.00000000000E+00 0.  1.
          2   -1    0    0  501    0  0.00000000000E+00 -0.00000000000E+00 -0.46404490430E+03  0.46404490430E+03  0.00000000000E+00 0. -1.
         24    2    1    2    0    0  0.40772071054E+03  0.11453402487E+03  0.51188652851E+03  0.66882684564E+03  0.77118809150E+02 0.  0.
        254    2    1    2    0    0 -0.40772071054E+03 -0.11453402487E+03  0.26109777022E+03  0.10322472617E+04  0.90443802607E+03 0.  0.
         23    2    4    4    0    0 -0.18348554081E+03  0.28821930468E+03  0.40759083979E+03  0.54025192909E+03  0.94892270114E+02 0.  0.
         23    2    4    4    0    0 -0.22423516972E+03 -0.40275332955E+03 -0.14649306957E+03  0.49199533260E+03  0.90041835080E+02 0.  0.
          2    1    3    3  502    0  0.17655899959E+03  0.64672755837E+02  0.28262863164E+03  0.33946220571E+03  0.00000000000E+00 0. -1.
         -1    1    3    3    0  502  0.23116171095E+03  0.49861269037E+02  0.22925789687E+03  0.32936463993E+03  0.00000000000E+00 0.  1.
         11    1    5    5    0    0 -0.81070235775E+02  0.13450865466E+03  0.26030544117E+03  0.30401296684E+03  0.00000000000E+00 0. -1.
        -11    1    5    5    0    0 -0.10241530504E+03  0.15371065002E+03  0.14728539862E+03  0.23623896224E+03  0.00000000000E+00 0.  1.
          1    1    6    6  503    0 -0.11212397139E+03 -0.11466874643E+03 -0.56382912077E+02  0.16999923277E+03  0.00000000000E+00 0. -1.
         -1    1    6    6    0  503 -0.11211119833E+03 -0.28808458312E+03 -0.90110157490E+02  0.32199609983E+03  0.00000000000E+00 0.  1.
<mgrwt>
<rscale>  0 0.15153047E+04</rscale>
<asrwt>0</asrwt>
<pdfrwt beam="1">  1        2 0.71391524E-01 0.15153047E+04</pdfrwt>
<pdfrwt beam="2">  1       -1 0.19031218E+00 0.15153047E+04</pdfrwt>
<totfact> 0.13023596E+01</totfact>
</mgrwt>
</event>
<event>
12    6  0.1462228E-007  0.4412474E+04  0.7818608E-02  0.7926142E-01
         -3   -1    0    0    0  501 -0.00000000000E+00  0.00000000000E+00  0.13572697689E+04  0.13572697689E+04  0.00000000000E+00 0.  1.
          2   -1    0    0  501    0  0.00000000000E+00 -0.00000000000E+00 -0.35862308129E+04  0.35862308129E+04  0.00000000000E+00 0. -1.
         24    2    1    2    0    0 -0.14696611950E+03  0.17429847145E+04 -0.23943765610E+04  0.29663536151E+04  0.81362759000E+02 0.  0.
        254    2    1    2    0    0  0.14696611950E+03 -0.17429847145E+04  0.16541551694E+03  0.19771469667E+04  0.90672657384E+03 0.  0.
         23    2    4    4    0    0  0.87769028335E+02  0.77117268264E+02  0.26337773916E+01  0.14656867411E+03  0.88458826853E+02 0.  0.
         23    2    4    4    0    0  0.59197091166E+02 -0.18201019827E+04  0.16278173955E+03  0.18305782926E+04  0.90793543660E+02 0.  0.
          2    1    3    3  502    0 -0.95304023154E+02  0.70484016161E+03 -0.94261085097E+03  0.11808461909E+04  0.00000000000E+00 0. -1.
         -1    1    3    3    0  502 -0.51662096348E+02  0.10381445528E+04 -0.14517657100E+04  0.17855074241E+04  0.00000000000E+00 0.  1.
         11    1    5    5    0    0  0.78851980258E+02  0.13590416092E+02  0.14536012824E+02  0.81324226827E+02  0.00000000000E+00 0.  1.
        -11    1    5    5    0    0  0.89170480773E+01  0.63526852172E+02 -0.11902235432E+02  0.65244447286E+02  0.00000000000E+00 0. -1.
          3    1    6    6  503    0  0.78489013421E+02 -0.13665223552E+04  0.10255545530E+03  0.13726111954E+04  0.00000000000E+00 0. -1.
         -3    1    6    6    0  503 -0.19291922255E+02 -0.45357962755E+03  0.60226284251E+02  0.45796709719E+03  0.00000000000E+00 0.  1.
<mgrwt>
<rscale>  0 0.44124744E+04</rscale>
<asrwt>0</asrwt>
<pdfrwt beam="1">  1        2 0.55172780E+00 0.44124744E+04</pdfrwt>
<pdfrwt beam="2">  1       -3 0.20881074E+00 0.44124744E+04</pdfrwt>
<totfact> 0.43992625E-02</totfact>
</mgrwt>
</event>
<event>
12    6  0.1462228E-007  0.2621995E+04  0.7818608E-02  0.8360768E-01
         -1   -1    0    0    0  501 -0.00000000000E+00  0.00000000000E+00  0.10350103315E+04  0.10350103315E+04  0.00000000000E+00 0.  1.
          2   -1    0    0  501    0  0.00000000000E+00 -0.00000000000E+00 -0.16605770174E+04  0.16605770174E+04  0.00000000000E+00 0. -1.
         24    2    1    2    0    0 -0.56246150184E+03 -0.90478586618E+03 -0.73328095053E+03  0.12957258910E+04  0.78766918481E+02 0.  0.
        254    2    1    2    0    0  0.56246150184E+03  0.90478586618E+03  0.10771426460E+03  0.13998614579E+04  0.90167030215E+03 0.  0.
         23    2    4    4    0    0 -0.17084895152E+03 -0.27042206275E+02  0.79949619158E+02  0.21047641015E+03  0.89374115225E+02 0.  0.
         23    2    4    4    0    0  0.73331045336E+03  0.93182807245E+03  0.27764645442E+02  0.11893850477E+04  0.88420238732E+02 0.  0.
          4    1    3    3  502    0 -0.37353773332E+03 -0.53039095972E+03 -0.45712260578E+03  0.79360322900E+03  0.00000000000E+00 0. -1.
         -3    1    3    3    0  502 -0.18892376852E+03 -0.37439490646E+03 -0.27615834475E+03  0.50212266198E+03  0.00000000000E+00 0.  1.
         11    1    5    5    0    0 -0.21114187995E+02  0.22376413865E+02 -0.53136308374E+01  0.31220946572E+02  0.00000000000E+00 0. -1.
        -11    1    5    5    0    0 -0.14973476352E+03 -0.49418620141E+02  0.85263249995E+02  0.17925546358E+03  0.00000000000E+00 0.  1.
          4    1    6    6  503    0  0.28414486922E+03  0.34012814510E+03 -0.30394251448E+02  0.44424010660E+03  0.00000000000E+00 0. -1.
         -4    1    6    6    0  503  0.44916558413E+03  0.59169992736E+03  0.58158896890E+02  0.74514494113E+03  0.00000000000E+00 0.  1.
<mgrwt>
<rscale>  0 0.26219949E+04</rscale>
<asrwt>0</asrwt>
<pdfrwt beam="1">  1        2 0.25547339E+00 0.26219949E+04</pdfrwt>
<pdfrwt beam="2">  1       -1 0.15923236E+00 0.26219949E+04</pdfrwt>
<totfact> 0.30715897E+00</totfact>
</mgrwt>
</event>
<event>
12    6  0.1462228E-007  0.2140335E+04  0.7818608E-02  0.8543681E-01
          2   -1    0    0  501    0  0.00000000000E+00  0.00000000000E+00  0.25156961758E+04  0.25156961758E+04  0.00000000000E+00 0. -1.
         -1   -1    0    0    0  501 -0.00000000000E+00 -0.00000000000E+00 -0.45524516749E+03  0.45524516749E+03  0.00000000000E+00 0.  1.
         24    2    1    2    0    0 -0.52702131376E+03  0.65611895056E+03  0.50756642434E+03  0.98598188513E+03  0.79328810971E+02 0.  0.
        254    2    1    2    0    0  0.52702131376E+03 -0.65611895056E+03  0.15528845840E+04  0.19849594582E+04  0.90574277640E+03 0.  0.
         23    2    4    4    0    0 -0.17261435649E+03 -0.18491498256E+03  0.82015397482E+03  0.86379131345E+03  0.97435229459E+02 0.  0.
         23    2    4    4    0    0  0.69963567025E+03 -0.47120396800E+03  0.73273060915E+03  0.11211681447E+04  0.92739487843E+02 0.  0.
          2    1    3    3  502    0 -0.35761402545E+03  0.46999781986E+03  0.31684924175E+03  0.67020831379E+03  0.00000000000E+00 0. -1.
         -1    1    3    3    0  502 -0.16940728830E+03  0.18612113070E+03  0.19071718258E+03  0.31577357134E+03  0.00000000000E+00 0.  1.
         11    1    5    5    0    0 -0.21255534916E+02 -0.87491714423E+02  0.23887409254E+03  0.25527912164E+03  0.00000000000E+00 0. -1.
        -11    1    5    5    0    0 -0.15135882157E+03 -0.97423268135E+02  0.58127988228E+03  0.60851219181E+03  0.00000000000E+00 0.  1.
          2    1    6    6  503    0  0.55234160076E+03 -0.41321572724E+03  0.58069454586E+03  0.90168433321E+03  0.00000000000E+00 0.  1.
         -2    1    6    6    0  503  0.14729406949E+03 -0.57988240760E+02  0.15203606330E+03  0.21948381151E+03  0.00000000000E+00 0. -1.
<mgrwt>
<rscale>  0 0.21403350E+04</rscale>
<asrwt>0</asrwt>
<pdfrwt beam="1">  1        2 0.38703017E+00 0.21403350E+04</pdfrwt>
<pdfrwt beam="2">  1       -1 0.70037719E-01 0.21403350E+04</pdfrwt>
<totfact> 0.73457852E+00</totfact>
</mgrwt>
</event>
<event>
12    6  0.1462228E-007  0.1291091E+04  0.7818608E-02  0.9036660E-01
          2   -1    0    0  501    0  0.00000000000E+00  0.00000000000E+00  0.48465104487E+03  0.48465104487E+03  0.00000000000E+00 0. -1.
         -1   -1    0    0    0  501 -0.00000000000E+00 -0.00000000000E+00 -0.85985426801E+03  0.85985426801E+03  0.00000000000E+00 0.  1.
         24    2    1    2    0    0  0.40352529433E+02  0.51672691849E+02  0.23120468273E+03  0.25341439811E+03  0.80404341530E+02 0.  0.
        254    2    1    2    0    0 -0.40352529433E+02 -0.51672691849E+02 -0.60640790586E+03  0.10910909148E+04  0.90468250911E+03 0.  0.
         23    2    4    4    0    0 -0.23037925454E+03 -0.40694592501E+03 -0.21635828248E+03  0.52284578581E+03  0.88753718416E+02 0.  0.
         23    2    4    4    0    0  0.19002672510E+03  0.35527323316E+03 -0.39004962339E+03  0.56824512897E+03  0.91840031763E+02 0.  0.
          4    1    3    3  502    0  0.56350371015E+02  0.62353191355E+02  0.19687130840E+03  0.21405979739E+03  0.00000000000E+00 0. -1.
         -3    1    3    3    0  502 -0.15997841582E+02 -0.10680499506E+02  0.34333374330E+02  0.39354600721E+02  0.00000000000E+00 0.  1.
         11    1    5    5    0    0 -0.17758587471E+03 -0.27856076232E+03 -0.11074601691E+03  0.34842147101E+03  0.00000000000E+00 0. -1.
        -11    1    5    5    0    0 -0.52793379823E+02 -0.12838516269E+03 -0.10561226556E+03  0.17442431479E+03  0.00000000000E+00 0.  1.
          1    1    6    6  503    0  0.16050075114E+03  0.24761608499E+03 -0.32528333418E+03  0.43918499992E+03  0.00000000000E+00 0. -1.
         -1    1    6    6    0  503  0.29525973962E+02  0.10765714817E+03 -0.64766289210E+02  0.12906012905E+03  0.00000000000E+00 0.  1.
<mgrwt>
<rscale>  0 0.12910914E+04</rscale>
<asrwt>0</asrwt>
<pdfrwt beam="1">  1        2 0.74561700E-01 0.12910914E+04</pdfrwt>
<pdfrwt beam="2">  1       -1 0.13228527E+00 0.12910914E+04</pdfrwt>
<totfact> 0.34759392E+01</totfact>
</mgrwt>
</event>
<event>
12    6  0.1462228E-007  0.2154005E+04  0.7818608E-02  0.8537820E-01
         -1   -1    0    0    0  501 -0.00000000000E+00  0.00000000000E+00  0.85759161334E+03  0.85759161334E+03  0.00000000000E+00 0.  1.
          2   -1    0    0  501    0  0.00000000000E+00 -0.00000000000E+00 -0.13525491185E+04  0.13525491185E+04  0.00000000000E+00 0. -1.
         24    2    1    2    0    0 -0.23670697921E+03 -0.18337162437E+03  0.65004698318E+03  0.72050678824E+03  0.83148090410E+02 0.  0.
        254    2    1    2    0    0  0.23670697921E+03  0.18337162437E+03 -0.11450044884E+04  0.14896339436E+04  0.90460967327E+03 0.  0.
         23    2    4    4    0    0  0.21793092893E+03 -0.10195866239E+03 -0.11609808496E+04  0.11892204207E+04  0.92082665530E+02 0.  0.
         23    2    4    4    0    0  0.18776050281E+02  0.28533028676E+03  0.15976361254E+02  0.30041352289E+03  0.90703517074E+02 0.  0.
          4    1    3    3  502    0  0.42079626424E+00 -0.90123883205E+01  0.27463210299E+01  0.94309327182E+01  0.00000000000E+00 0. -1.
         -3    1    3    3    0  502 -0.23712777547E+03 -0.17435923605E+03  0.64730066215E+03  0.71107585552E+03  0.00000000000E+00 0.  1.
         11    1    5    5    0    0  0.14133859435E+02  0.13673844625E+02 -0.48586126118E+02  0.52415185400E+02  0.00000000000E+00 0.  1.
        -11    1    5    5    0    0  0.20379706949E+03 -0.11563250701E+03 -0.11123947235E+04  0.11368052353E+04  0.00000000000E+00 0. -1.
          4    1    6    6  503    0  0.32930976590E+01  0.24657314933E+03 -0.17061143254E+02  0.24718463761E+03  0.00000000000E+00 0. -1.
         -4    1    6    6    0  503  0.15482952622E+02  0.38757137428E+02  0.33037504508E+02  0.53228885275E+02  0.00000000000E+00 0.  1.
<mgrwt>
<rscale>  0 0.21540054E+04</rscale>
<asrwt>0</asrwt>
<pdfrwt beam="1">  1        2 0.20808448E+00 0.21540054E+04</pdfrwt>
<pdfrwt beam="2">  1       -1 0.13193717E+00 0.21540054E+04</pdfrwt>
<totfact> 0.78708170E+00</totfact>
</mgrwt>
</event>
<event>
12    6  0.1462228E-007  0.1476363E+04  0.7818608E-02  0.8900325E-01
         -1   -1    0    0    0  501 -0.00000000000E+00  0.00000000000E+00  0.16646375385E+03  0.16646375385E+03  0.00000000000E+00 0.  1.
          2   -1    0    0  501    0  0.00000000000E+00 -0.00000000000E+00 -0.32734559241E+04  0.32734559241E+04  0.00000000000E+00 0. -1.
         24    2    1    2    0    0 -0.22904548518E+03  0.39779107719E+03 -0.10292760983E+04  0.11301727959E+04  0.84744832867E+02 0.  0.
        254    2    1    2    0    0  0.22904548518E+03 -0.39779107719E+03 -0.20777160720E+04  0.23097468821E+04  0.89851377734E+03 0.  0.
         23    2    4    4    0    0  0.69876724794E+02  0.14624463546E+03 -0.38350026526E+02  0.19121778888E+03  0.93932253150E+02 0.  0.
         23    2    4    4    0    0  0.15916876039E+03 -0.54403571265E+03 -0.20393660454E+04  0.21185290932E+04  0.88555634490E+02 0.  0.
          2    1    3    3  502    0 -0.13411447012E+03  0.27029589458E+03 -0.75658018753E+03  0.81453062674E+03  0.00000000000E+00 0. -1.
         -1    1    3    3    0  502 -0.94931015056E+02  0.12749518262E+03 -0.27269591078E+03  0.31564216918E+03  0.00000000000E+00 0.  1.
         11    1    5    5    0    0 -0.14009399685E+02  0.44784003846E+02 -0.36680414437E+02  0.59559408017E+02  0.00000000000E+00 0.  1.
        -11    1    5    5    0    0  0.83886124479E+02  0.10146063161E+03 -0.16696120886E+01  0.13165838086E+03  0.00000000000E+00 0. -1.
          1    1    6    6  503    0  0.59593982630E+02 -0.31375038273E+03 -0.12560696577E+04  0.12960330746E+04  0.00000000000E+00 0. -1.
         -1    1    6    6    0  503  0.99574777755E+02 -0.23028532993E+03 -0.78329638777E+03  0.82249601861E+03  0.00000000000E+00 0.  1.
<mgrwt>
<rscale>  0 0.14763628E+04</rscale>
<asrwt>0</asrwt>
<pdfrwt beam="1">  1        2 0.50360859E+00 0.14763628E+04</pdfrwt>
<pdfrwt beam="2">  1       -1 0.25609809E-01 0.14763628E+04</pdfrwt>
<totfact> 0.17378821E+01</totfact>
</mgrwt>
</event>
<event>
12    6  0.1462228E-007  0.1297585E+04  0.7818608E-02  0.9031483E-01
         -1   -1    0    0    0  501 -0.00000000000E+00  0.00000000000E+00  0.28183505548E+03  0.28183505548E+03  0.00000000000E+00 0.  1.
          2   -1    0    0  501    0  0.00000000000E+00 -0.00000000000E+00 -0.14935386238E+04  0.14935386238E+04  0.00000000000E+00 0. -1.
         24    2    1    2    0    0  0.13957727456E+03 -0.11279953826E+03  0.64354841766E+02  0.20656516184E+03  0.79511439568E+02 0.  0.
        254    2    1    2    0    0 -0.13957727456E+03  0.11279953826E+03 -0.12760584101E+04  0.15688085174E+04  0.89477904927E+03 0.  0.
         23    2    4    4    0    0  0.73667540546E+02  0.39039332497E+03 -0.24380759649E+03  0.47478948148E+03  0.90272104785E+02 0.  0.
         23    2    4    4    0    0 -0.21324481510E+03 -0.27759378672E+03 -0.10322508136E+04  0.10940190359E+04  0.93830950500E+02 0.  0.
          2    1    3    3  502    0  0.14901469840E+02 -0.11364677366E+02  0.39776235359E+02  0.43969973782E+02  0.00000000000E+00 0. -1.
         -3    1    3    3    0  502  0.12467580472E+03 -0.10143486089E+03  0.24578606407E+02  0.16259518805E+03  0.00000000000E+00 0.  1.
         11    1    5    5    0    0  0.16464252305E+02  0.24901634385E+03 -0.11335888733E+03  0.27409934047E+03  0.00000000000E+00 0. -1.
        -11    1    5    5    0    0  0.57203288241E+02  0.14137698112E+03 -0.13044870916E+03  0.20069014101E+03  0.00000000000E+00 0.  1.
          1    1    6    6  503    0 -0.15211490455E+03 -0.18417709562E+03 -0.82150358538E+03  0.85552807525E+03  0.00000000000E+00 0. -1.
         -1    1    6    6    0  503 -0.61129910549E+02 -0.93416691103E+02 -0.21074722819E+03  0.23849096069E+03  0.00000000000E+00 0.  1.
<mgrwt>
<rscale>  0 0.12975847E+04</rscale>
<asrwt>0</asrwt>
<pdfrwt beam="1">  1        2 0.22977517E+00 0.12975847E+04</pdfrwt>
<pdfrwt beam="2">  1       -1 0.43359240E-01 0.12975847E+04</pdfrwt>
<totfact> 0.75030626E+01</totfact>
</mgrwt>
</event>
<event>
12    6  0.1462228E-007  0.1475915E+04  0.7818608E-02  0.8900629E-01
          2   -1    0    0  501    0  0.00000000000E+00  0.00000000000E+00  0.15774280553E+04  0.15774280553E+04  0.00000000000E+00 0. -1.
         -1   -1    0    0    0  501 -0.00000000000E+00 -0.00000000000E+00 -0.34523369370E+03  0.34523369370E+03  0.00000000000E+00 0.  1.
         24    2    1    2    0    0  0.41663401927E+03  0.65849277511E+02  0.63259154143E+03  0.76449135481E+03  0.79717877123E+02 0.  0.
        254    2    1    2    0    0 -0.41663401927E+03 -0.65849277511E+02  0.59960282017E+03  0.11581703942E+04  0.89661311984E+03 0.  0.
         23    2    4    4    0    0 -0.26703326140E+03 -0.13766369934E+03  0.81441852810E+03  0.87282666620E+03  0.91053794622E+02 0.  0.
         23    2    4    4    0    0 -0.14960075787E+03  0.71814421824E+02 -0.21481570792E+03  0.28534372800E+03  0.87963383281E+02 0.  0.
          2    1    3    3  502    0  0.37252831634E+03  0.58114529789E+02  0.60177877032E+03  0.71013543318E+03  0.00000000000E+00 0. -1.
         -1    1    3    3    0  502  0.44105702926E+02  0.77347477226E+01  0.30812771107E+02  0.54355921629E+02  0.00000000000E+00 0.  1.
         11    1    5    5    0    0 -0.66304759304E+02 -0.81787661719E+02  0.29092635891E+03  0.30939245147E+03  0.00000000000E+00 0. -1.
        -11    1    5    5    0    0 -0.20072850209E+03 -0.55876037617E+02  0.52349216919E+03  0.56343421473E+03  0.00000000000E+00 0.  1.
          3    1    6    6  503    0 -0.31568544749E+02  0.34840914032E+02 -0.13237826620E+02  0.48843652215E+02  0.00000000000E+00 0. -1.
         -3    1    6    6    0  503 -0.11803221312E+03  0.36973507792E+02 -0.20157788131E+03  0.23650007578E+03  0.00000000000E+00 0.  1.
<mgrwt>
<rscale>  0 0.14759151E+04</rscale>
<asrwt>0</asrwt>
<pdfrwt beam="1">  1        2 0.24268124E+00 0.14759151E+04</pdfrwt>
<pdfrwt beam="2">  1       -1 0.53112877E-01 0.14759151E+04</pdfrwt>
<totfact> 0.45261548E+01</totfact>
</mgrwt>
</event>
<event>
12    6  0.1462228E-007  0.1446370E+04  0.7818608E-02  0.8920921E-01
          2   -1    0    0  501    0  0.00000000000E+00  0.00000000000E+00  0.65065767167E+03  0.65065767167E+03  0.00000000000E+00 0. -1.
         -1   -1    0    0    0  501 -0.00000000000E+00 -0.00000000000E+00 -0.80379669066E+03  0.80379669066E+03  0.00000000000E+00 0.  1.
         24    2    1    2    0    0 -0.12774016972E+03 -0.37384137901E+03  0.16266804432E+03  0.43478457589E+03  0.80633784308E+02 0.  0.
        254    2    1    2    0    0  0.12774016972E+03  0.37384137901E+03 -0.31580706332E+03  0.10196697864E+04  0.88539112516E+03 0.  0.
         23    2    4    4    0    0 -0.16635278856E+02  0.51593952384E+03 -0.50703904438E+03  0.72926980095E+03  0.90969914110E+02 0.  0.
         23    2    4    4    0    0  0.14437544858E+03 -0.14209814484E+03  0.19123198106E+03  0.29039998549E+03  0.82014194351E+02 0.  0.
          2    1    3    3  502    0 -0.10039920773E+03 -0.22477428919E+03  0.13487325364E+03  0.28070318228E+03  0.00000000000E+00 0. -1.
         -1    1    3    3    0  502 -0.27340961990E+02 -0.14906708981E+03  0.27794790683E+02  0.15408139361E+03  0.00000000000E+00 0.  1.
         11    1    5    5    0    0  0.35969992514E+02  0.14017173821E+03 -0.14258860667E+03  0.20315872441E+03  0.00000000000E+00 0.  1.
        -11    1    5    5    0    0 -0.52605271370E+02  0.37576778564E+03 -0.36445043772E+03  0.52611107653E+03  0.00000000000E+00 0. -1.
          2    1    6    6  503    0  0.38105766490E+02 -0.48096189261E+02  0.13229326723E+02  0.62771872258E+02  0.00000000000E+00 0. -1.
         -2    1    6    6    0  503  0.10626968209E+03 -0.94001955578E+02  0.17800265434E+03  0.22762811324E+03  0.00000000000E+00 0.  1.
<mgrwt>
<rscale>  0 0.14463699E+04</rscale>
<asrwt>0</asrwt>
<pdfrwt beam="1">  1        2 0.10010118E+00 0.14463699E+04</pdfrwt>
<pdfrwt beam="2">  1       -1 0.12366103E+00 0.14463699E+04</pdfrwt>
<totfact> 0.28615344E+01</totfact>
</mgrwt>
</event>
<event>
12    6  0.1462228E-007  0.3006674E+04  0.7818608E-02  0.8241828E-01
         -1   -1    0    0    0  501 -0.00000000000E+00  0.00000000000E+00  0.15623949541E+04  0.15623949541E+04  0.00000000000E+00 0.  1.
          2   -1    0    0  501    0  0.00000000000E+00 -0.00000000000E+00 -0.14465111831E+04  0.14465111831E+04  0.00000000000E+00 0. -1.
         24    2    1    2    0    0 -0.45779960392E+03 -0.75168051474E+03  0.11041944497E+04  0.14143407449E+04  0.80686345235E+02 0.  0.
        254    2    1    2    0    0  0.45779960392E+03  0.75168051474E+03 -0.98831067875E+03  0.15945653924E+04  0.88953736244E+03 0.  0.
         23    2    4    4    0    0  0.36418469373E+03 -0.10088480868E+03 -0.29149593377E+03  0.48548604797E+03  0.88986446139E+02 0.  0.
         23    2    4    4    0    0  0.93614910189E+02  0.85256532341E+03 -0.69681474497E+03  0.11090793444E+04  0.94206269584E+02 0.  0.
          4    1    3    3  502    0 -0.11939633824E+03 -0.20127329133E+03  0.23879306598E+03  0.33434795012E+03  0.00000000000E+00 0. -1.
         -3    1    3    3    0  502 -0.33840326569E+03 -0.55040722341E+03  0.86540138374E+03  0.10799927948E+04  0.00000000000E+00 0.  1.
         11    1    5    5    0    0  0.29735459644E+03 -0.10745230198E+03 -0.20852712101E+03  0.37874703091E+03  0.00000000000E+00 0.  1.
        -11    1    5    5    0    0  0.66830097295E+02  0.65674933002E+01 -0.82968812762E+02  0.10673901706E+03  0.00000000000E+00 0. -1.
          4    1    6    6  503    0  0.16489943036E+02  0.42940986702E+03 -0.30208358098E+03  0.52528015574E+03  0.00000000000E+00 0. -1.
         -4    1    6    6    0  503  0.77124967153E+02  0.42315545639E+03 -0.39473116400E+03  0.58379918865E+03  0.00000000000E+00 0.  1.
<mgrwt>
<rscale>  0 0.30066738E+04</rscale>
<asrwt>0</asrwt>
<pdfrwt beam="1">  1        2 0.22254018E+00 0.30066738E+04</pdfrwt>
<pdfrwt beam="2">  1       -1 0.24036846E+00 0.30066738E+04</pdfrwt>
<totfact> 0.10692012E+00</totfact>
</mgrwt>
</event>
<event>
12    6  0.1462228E-007  0.1204571E+04  0.7818608E-02  0.9108865E-01
          2   -1    0    0  501    0  0.00000000000E+00  0.00000000000E+00  0.22577230734E+04  0.22577230734E+04  0.00000000000E+00 0. -1.
         -1   -1    0    0    0  501 -0.00000000000E+00 -0.00000000000E+00 -0.16066965364E+03  0.16066965364E+03  0.00000000000E+00 0.  1.
         24    2    1    2    0    0  0.13675718054E+03  0.28109045087E+03  0.24495395997E+03  0.40508377857E+03  0.79850217025E+02 0.  0.
        254    2    1    2    0    0 -0.13675718054E+03 -0.28109045087E+03  0.18520994598E+04  0.20133089485E+04  0.72486284566E+03 0.  0.
         23    2    4    4    0    0 -0.39506992572E+03 -0.29542341040E+03  0.13643053398E+04  0.14537358716E+04  0.93078927223E+02 0.  0.
         23    2    4    4    0    0  0.25831274519E+03  0.14332959532E+02  0.48779411999E+03  0.55957307681E+03  0.90818592497E+02 0.  0.
          2    1    3    3  502    0  0.99415471909E+02  0.24492895681E+03  0.23153052339E+03  0.35139722993E+03  0.00000000000E+00 0. -1.
         -1    1    3    3    0  502  0.37341708628E+02  0.36161494055E+02  0.13423436580E+02  0.53686548642E+02  0.00000000000E+00 0.  1.
         11    1    5    5    0    0 -0.11011450721E+03 -0.13559487470E+03  0.44132781198E+03  0.47463819102E+03  0.00000000000E+00 0.  1.
        -11    1    5    5    0    0 -0.28495541851E+03 -0.15982853569E+03  0.92297752781E+03  0.97909768063E+03  0.00000000000E+00 0. -1.
          2    1    6    6  503    0  0.17441332656E+03 -0.30759302677E+02  0.34705259379E+03  0.38963014005E+03  0.00000000000E+00 0. -1.
         -2    1    6    6    0  503  0.83899418631E+02  0.45092262209E+02  0.14074152620E+03  0.16994293676E+03  0.00000000000E+00 0.  1.
<mgrwt>
<rscale>  0 0.12045706E+04</rscale>
<asrwt>0</asrwt>
<pdfrwt beam="1">  1        2 0.34734199E+00 0.12045706E+04</pdfrwt>
<pdfrwt beam="2">  1       -1 0.24718410E-01 0.12045706E+04</pdfrwt>
<totfact> 0.77151109E+01</totfact>
</mgrwt>
</event>
<event>
12    6  0.1462228E-007  0.1374785E+04  0.7818608E-02  0.8972275E-01
         -1   -1    0    0    0  501 -0.00000000000E+00  0.00000000000E+00  0.35711090198E+03  0.35711090198E+03  0.00000000000E+00 0.  1.
          2   -1    0    0  501    0  0.00000000000E+00 -0.00000000000E+00 -0.13231420263E+04  0.13231420263E+04  0.00000000000E+00 0. -1.
         24    2    1    2    0    0 -0.96058566635E+02  0.15697876281E+03 -0.68594431000E+03  0.71484960462E+03  0.81368179270E+02 0.  0.
        254    2    1    2    0    0  0.96058566635E+02 -0.15697876281E+03 -0.28008681434E+03  0.96540332368E+03  0.90536477379E+03 0.  0.
         23    2    4    4    0    0  0.99686784272E+02 -0.47770022083E+03 -0.37079741633E+03  0.61965718541E+03  0.91374764200E+02 0.  0.
         23    2    4    4    0    0 -0.36282176374E+01  0.32072145802E+03  0.90710601993E+02  0.34574613827E+03  0.91850755107E+02 0.  0.
          4    1    3    3  502    0 -0.10486948452E+03  0.14199938483E+03 -0.66281384971E+03  0.68591809529E+03  0.00000000000E+00 0. -1.
         -3    1    3    3    0  502  0.88109178857E+01  0.14979377984E+02 -0.23130460297E+02  0.28931509334E+02  0.00000000000E+00 0.  1.
         11    1    5    5    0    0  0.10717826302E+03 -0.35610356142E+03 -0.25006560446E+03  0.44814030510E+03  0.00000000000E+00 0.  1.
        -11    1    5    5    0    0 -0.74914787507E+01 -0.12159665941E+03 -0.12073181188E+03  0.17151688031E+03  0.00000000000E+00 0. -1.
          2    1    6    6  503    0  0.14865391993E+02  0.27493123299E+03  0.10446214404E+03  0.29448344994E+03  0.00000000000E+00 0. -1.
         -2    1    6    6    0  503 -0.18493609630E+02  0.45790225036E+02 -0.13751542047E+02  0.51262688329E+02  0.00000000000E+00 0.  1.
<mgrwt>
<rscale>  0 0.13747850E+04</rscale>
<asrwt>0</asrwt>
<pdfrwt beam="1">  1        2 0.20356031E+00 0.13747850E+04</pdfrwt>
<pdfrwt beam="2">  1       -1 0.54940138E-01 0.13747850E+04</pdfrwt>
<totfact> 0.59630152E+01</totfact>
</mgrwt>
</event>
<event>
12    6  0.1462228E-007  0.2690952E+04  0.7818608E-02  0.8337947E-01
         -1   -1    0    0    0  501 -0.00000000000E+00  0.00000000000E+00  0.16447622361E+04  0.16447622361E+04  0.00000000000E+00 0.  1.
          2   -1    0    0  501    0  0.00000000000E+00 -0.00000000000E+00 -0.11006486085E+04  0.11006486085E+04  0.00000000000E+00 0. -1.
         24    2    1    2    0    0  0.33659892742E+03  0.92885168900E+03 -0.43792315262E+03  0.10839570947E+04  0.84391927969E+02 0.  0.
        254    2    1    2    0    0 -0.33659892742E+03 -0.92885168900E+03  0.98203678019E+03  0.16614537499E+04  0.90552085964E+03 0.  0.
         23    2    4    4    0    0  0.34210396174E+02 -0.81802464765E+03  0.30925076126E+03  0.87984088483E+03  0.90273328816E+02 0.  0.
         23    2    4    4    0    0 -0.37080932360E+03 -0.11082704135E+03  0.67278601893E+03  0.78161286505E+03  0.92170797948E+02 0.  0.
          2    1    3    3  502    0  0.24046189501E+03  0.59623285586E+03 -0.32047940244E+03  0.71834712274E+03  0.00000000000E+00 0. -1.
         -1    1    3    3    0  502  0.96137032413E+02  0.33261883315E+03 -0.11744375019E+03  0.36560997200E+03  0.00000000000E+00 0.  1.
         11    1    5    5    0    0 -0.30001436143E+02 -0.26884589297E+03  0.91113313678E+02  0.28544673105E+03  0.00000000000E+00 0.  1.
        -11    1    5    5    0    0  0.64211832317E+02 -0.54917875468E+03  0.21813744758E+03  0.59439415377E+03  0.00000000000E+00 0. -1.
          2    1    6    6  503    0 -0.24738912679E+02 -0.36113265878E+02  0.76714822591E+02  0.88325227303E+02  0.00000000000E+00 0. -1.
         -2    1    6    6    0  503 -0.34607041092E+03 -0.74713775472E+02  0.59607119633E+03  0.69328763775E+03  0.00000000000E+00 0.  1.
<mgrwt>
<rscale>  0 0.26909517E+04</rscale>
<asrwt>0</asrwt>
<pdfrwt beam="1">  1        2 0.16933055E+00 0.26909517E+04</pdfrwt>
<pdfrwt beam="2">  1       -1 0.25304034E+00 0.26909517E+04</pdfrwt>
<totfact> 0.14504820E+00</totfact>
</mgrwt>
</event>
<event>
12    6  0.1462228E-007  0.2990921E+04  0.7818608E-02  0.8246328E-01
         -1   -1    0    0    0  501 -0.00000000000E+00  0.00000000000E+00  0.10755142783E+04  0.10755142783E+04  0.00000000000E+00 0.  1.
          2   -1    0    0  501    0  0.00000000000E+00 -0.00000000000E+00 -0.20793795156E+04  0.20793795156E+04  0.00000000000E+00 0. -1.
         24    2    1    2    0    0  0.47015006477E+03  0.26641394308E+03  0.86123472164E+03  0.10198128880E+04  0.79218737209E+02 0.  0.
        254    2    1    2    0    0 -0.47015006477E+03 -0.26641394308E+03 -0.18650999589E+04  0.21350809059E+04  0.88766837573E+03 0.  0.
         23    2    4    4    0    0 -0.34103310487E+03 -0.21494612265E+03 -0.19165483893E+04  0.19605886194E+04  0.90799734510E+02 0.  0.
         23    2    4    4    0    0 -0.12911695990E+03 -0.51467820429E+02  0.51448430355E+02  0.17449228645E+03  0.92089582321E+02 0.  0.
          4    1    3    3  502    0  0.17512753892E+03  0.13138896196E+03  0.29749143463E+03  0.36936955464E+03  0.00000000000E+00 0. -1.
         -3    1    3    3    0  502  0.29502252586E+03  0.13502498112E+03  0.56374328701E+03  0.65044333338E+03  0.00000000000E+00 0.  1.
         11    1    5    5    0    0 -0.26077947850E+03 -0.14737234129E+03 -0.12228859913E+04  0.12590372080E+04  0.00000000000E+00 0.  1.
        -11    1    5    5    0    0 -0.80253626376E+02 -0.67573781361E+02 -0.69366239801E+03  0.70155141144E+03  0.00000000000E+00 0. -1.
          2    1    6    6  503    0 -0.11763969985E+03 -0.42514517959E+02  0.43132897858E+01  0.12516064752E+03  0.00000000000E+00 0. -1.
         -2    1    6    6    0  503 -0.11477260047E+02 -0.89533024701E+01  0.47135140570E+02  0.49331638933E+02  0.00000000000E+00 0.  1.
<mgrwt>
<rscale>  0 0.29909212E+04</rscale>
<asrwt>0</asrwt>
<pdfrwt beam="1">  1        2 0.31990453E+00 0.29909212E+04</pdfrwt>
<pdfrwt beam="2">  1       -1 0.16546374E+00 0.29909212E+04</pdfrwt>
<totfact> 0.15629424E+00</totfact>
</mgrwt>
</event>
<event>
12    6  0.1462228E-007  0.3483686E+04  0.7818608E-02  0.8117667E-01
          2   -1    0    0  501    0  0.00000000000E+00  0.00000000000E+00  0.20924199516E+04  0.20924199516E+04  0.00000000000E+00 0. -1.
         -1   -1    0    0    0  501 -0.00000000000E+00 -0.00000000000E+00 -0.14500034584E+04  0.14500034584E+04  0.00000000000E+00 0.  1.
         24    2    1    2    0    0  0.24057437755E+03 -0.13915856208E+04  0.11215673266E+04  0.18051282298E+04  0.78664393930E+02 0.  0.
        254    2    1    2    0    0 -0.24057437755E+03  0.13915856208E+04 -0.47915083343E+03  0.17372951802E+04  0.89119159032E+03 0.  0.
         23    2    4    4    0    0 -0.15537807948E+03  0.78697193498E+03  0.18769731520E+03  0.82862302539E+03  0.88986864431E+02 0.  0.
         23    2    4    4    0    0 -0.85196298065E+02  0.60461368584E+03 -0.66684814862E+03  0.90867215478E+03  0.90457245358E+02 0.  0.
          4    1    3    3  502    0  0.12544060346E+03 -0.91368132806E+03  0.75623684939E+03  0.11926621846E+04  0.00000000000E+00 0. -1.
         -3    1    3    3    0  502  0.11513377409E+03 -0.47790429276E+03  0.36533047720E+03  0.61246604522E+03  0.00000000000E+00 0.  1.
         11    1    5    5    0    0 -0.14845086313E+03  0.54067686628E+03  0.12892266481E+03  0.57531746540E+03  0.00000000000E+00 0. -1.
        -11    1    5    5    0    0 -0.69272163568E+01  0.24629506870E+03  0.58774650382E+02  0.25330555999E+03  0.00000000000E+00 0.  1.
          1    1    6    6  503    0 -0.22260167526E+01  0.24643926093E+03 -0.22338526570E+03  0.33262327250E+03  0.00000000000E+00 0. -1.
         -1    1    6    6    0  503 -0.82970281313E+02  0.35817442491E+03 -0.44346288292E+03  0.57604888228E+03  0.00000000000E+00 0.  1.
<mgrwt>
<rscale>  0 0.34836855E+04</rscale>
<asrwt>0</asrwt>
<pdfrwt beam="1">  1        2 0.32191076E+00 0.34836855E+04</pdfrwt>
<pdfrwt beam="2">  1       -1 0.22307746E+00 0.34836855E+04</pdfrwt>
<totfact> 0.58274207E-01</totfact>
</mgrwt>
</event>
<event>
12    6  0.1462228E-007  0.1146128E+04  0.7818608E-02  0.9161363E-01
          2   -1    0    0  501    0  0.00000000000E+00  0.00000000000E+00  0.53183208927E+03  0.53183208927E+03  0.00000000000E+00 0. -1.
         -1   -1    0    0    0  501 -0.00000000000E+00 -0.00000000000E+00 -0.61749287270E+03  0.61749287270E+03  0.00000000000E+00 0.  1.
         24    2    1    2    0    0 -0.24050445230E+02 -0.61454982786E+02 -0.22927226548E+03  0.25119258218E+03  0.78592638332E+02 0.  0.
        254    2    1    2    0    0  0.24050445230E+02  0.61454982786E+02  0.14361148205E+03  0.89813237978E+03  0.88411672024E+03 0.  0.
         23    2    4    4    0    0 -0.86531180922E+02  0.25649479631E+03 -0.28650514250E+03  0.40458117861E+03  0.91233259308E+02 0.  0.
         23    2    4    4    0    0  0.11058162615E+03 -0.19503981352E+03  0.43011662454E+03  0.49355120117E+03  0.91234053795E+02 0.  0.
          2    1    3    3  502    0  0.12291211027E+02  0.67476195250E+01 -0.66120740900E+01  0.15502379222E+02  0.00000000000E+00 0. -1.
         -1    1    3    3    0  502 -0.36341656258E+02 -0.68202602311E+02 -0.22266019139E+03  0.23569020296E+03  0.00000000000E+00 0.  1.
         11    1    5    5    0    0 -0.68771362300E+02  0.25728777639E+03 -0.25680249242E+03  0.36996489059E+03  0.00000000000E+00 0. -1.
        -11    1    5    5    0    0 -0.17759818622E+02 -0.79298008701E+00 -0.29702650073E+02  0.34616288020E+02  0.00000000000E+00 0.  1.
          4    1    6    6  503    0  0.12038954588E+03 -0.15084386217E+03  0.37871470710E+03  0.42505569386E+03  0.00000000000E+00 0. -1.
         -4    1    6    6    0  503 -0.98079197271E+01 -0.44195951349E+02  0.51401917444E+02  0.68495507312E+02  0.00000000000E+00 0.  1.
<mgrwt>
<rscale>  0 0.11461283E+04</rscale>
<asrwt>0</asrwt>
<pdfrwt beam="1">  1        2 0.81820321E-01 0.11461283E+04</pdfrwt>
<pdfrwt beam="2">  1       -1 0.94998904E-01 0.11461283E+04</pdfrwt>
<totfact> 0.69477869E+01</totfact>
</mgrwt>
</event>
<event>
12    6  0.1462228E-007  0.1454666E+04  0.7818608E-02  0.8915172E-01
         -1   -1    0    0    0  501 -0.00000000000E+00  0.00000000000E+00  0.24525682798E+03  0.24525682798E+03  0.00000000000E+00 0.  1.
          2   -1    0    0  501    0  0.00000000000E+00 -0.00000000000E+00 -0.21569762083E+04  0.21569762083E+04  0.00000000000E+00 0. -1.
         24    2    1    2    0    0  0.96835370488E+01 -0.71285523672E+02 -0.13100714448E+04  0.13144374096E+04  0.79266112304E+02 0.  0.
        254    2    1    2    0    0 -0.96835370488E+01  0.71285523672E+02 -0.60164793547E+03  0.10877956266E+04  0.90340671363E+03 0.  0.
         23    2    4    4    0    0 -0.25435453648E+03 -0.32610501465E+03 -0.35761388299E+03  0.55472107438E+03  0.93739374065E+02 0.  0.
         23    2    4    4    0    0  0.24467099943E+03  0.39739053832E+03 -0.24403405249E+03  0.53307455223E+03  0.82660277949E+02 0.  0.
          4    1    3    3  502    0 -0.34549936248E+02 -0.33945598589E+02 -0.52167455024E+03  0.52391825519E+03  0.00000000000E+00 0. -1.
         -3    1    3    3    0  502  0.44233473297E+02 -0.37339925083E+02 -0.78839689457E+03  0.79051915444E+03  0.00000000000E+00 0.  1.
         11    1    5    5    0    0 -0.10488302827E+03 -0.66248191919E+02 -0.11304265137E+03  0.16783299312E+03  0.00000000000E+00 0. -1.
        -11    1    5    5    0    0 -0.14947150821E+03 -0.25985682273E+03 -0.24457123162E+03  0.38688808126E+03  0.00000000000E+00 0.  1.
          4    1    6    6  503    0  0.21119378774E+02  0.54536491765E+02 -0.40797539824E+01  0.58625092634E+02  0.00000000000E+00 0. -1.
         -4    1    6    6    0  503  0.22355162066E+03  0.34285404655E+03 -0.23995429850E+03  0.47444945959E+03  0.00000000000E+00 0.  1.
<mgrwt>
<rscale>  0 0.14546658E+04</rscale>
<asrwt>0</asrwt>
<pdfrwt beam="1">  1        2 0.33184249E+00 0.14546658E+04</pdfrwt>
<pdfrwt beam="2">  1       -1 0.37731820E-01 0.14546658E+04</pdfrwt>
<totfact> 0.40888742E+01</totfact>
</mgrwt>
</event>
<event>
12    6  0.1462228E-007  0.1343241E+04  0.7818608E-02  0.8995961E-01
          2   -1    0    0  501    0  0.00000000000E+00  0.00000000000E+00  0.21740004721E+04  0.21740004721E+04  0.00000000000E+00 0. -1.
         -1   -1    0    0    0  501 -0.00000000000E+00 -0.00000000000E+00 -0.20748568087E+03  0.20748568087E+03  0.00000000000E+00 0.  1.
         24    2    1    2    0    0  0.76702654887E+02 -0.26305371201E+03  0.98495171866E+03  0.10256001950E+04  0.81518827726E+02 0.  0.
        254    2    1    2    0    0 -0.76702654887E+02  0.26305371201E+03  0.98156307258E+03  0.13558859579E+04  0.89436016953E+03 0.  0.
         23    2    4    4    0    0  0.25446975756E+03 -0.19455771478E+03  0.53375683425E+03  0.62923206774E+03  0.91809994404E+02 0.  0.
         23    2    4    4    0    0 -0.33117241245E+03  0.45761142679E+03  0.44780623833E+03  0.72665389020E+03  0.91717306786E+02 0.  0.
          2    1    3    3  502    0  0.66180873001E+01 -0.11153714887E+03  0.51200642658E+03  0.52405621408E+03  0.00000000000E+00 0. -1.
         -1    1    3    3    0  502  0.70084567587E+02 -0.15151656314E+03  0.47294529207E+03  0.50154398094E+03  0.00000000000E+00 0.  1.
         11    1    5    5    0    0  0.17699752357E+03 -0.18052058147E+03  0.43244392343E+03  0.50092269922E+03  0.00000000000E+00 0. -1.
        -11    1    5    5    0    0  0.77472233990E+02 -0.14037133307E+02  0.10131291082E+03  0.12830936852E+03  0.00000000000E+00 0.  1.
          1    1    6    6  503    0 -0.38407668718E+01  0.45079694747E+02  0.28267693456E+02  0.53347847772E+02  0.00000000000E+00 0. -1.
         -1    1    6    6    0  503 -0.32733164558E+03  0.41253173205E+03  0.41953854487E+03  0.67330604243E+03  0.00000000000E+00 0.  1.
<mgrwt>
<rscale>  0 0.13432408E+04</rscale>
<asrwt>0</asrwt>
<pdfrwt beam="1">  1        2 0.33446160E+00 0.13432408E+04</pdfrwt>
<pdfrwt beam="2">  1       -1 0.31920875E-01 0.13432408E+04</pdfrwt>
<totfact> 0.54457016E+01</totfact>
</mgrwt>
</event>
<event>
12    6  0.1462228E-007  0.1883399E+04  0.7818608E-02  0.8663164E-01
         -1   -1    0    0    0  501 -0.00000000000E+00  0.00000000000E+00  0.43352500246E+03  0.43352500246E+03  0.00000000000E+00 0.  1.
          2   -1    0    0  501    0  0.00000000000E+00 -0.00000000000E+00 -0.20455520946E+04  0.20455520946E+04  0.00000000000E+00 0. -1.
         24    2    1    2    0    0  0.92993986996E+01 -0.71272459049E+03 -0.77645779217E+03  0.10570213780E+04  0.79653435913E+02 0.  0.
        254    2    1    2    0    0 -0.92993986996E+01  0.71272459049E+03 -0.83556929994E+03  0.14220557190E+04  0.90332917159E+03 0.  0.
         23    2    4    4    0    0  0.99324182284E+02 -0.13141338374E+03 -0.44098617682E+03  0.47942074564E+03  0.90778150426E+02 0.  0.
         23    2    4    4    0    0 -0.10862358098E+03  0.84413797423E+03 -0.39458312312E+03  0.94263497336E+03  0.92178360116E+02 0.  0.
          4    1    3    3  502    0 -0.26381262316E+02 -0.16408464649E+03 -0.20709552322E+03  0.26553398644E+03  0.00000000000E+00 0. -1.
         -3    1    3    3    0  502  0.35680661015E+02 -0.54863994400E+03 -0.56936226894E+03  0.79148739157E+03  0.00000000000E+00 0.  1.
         11    1    5    5    0    0 -0.15169754719E+02 -0.81392623146E+01 -0.69706346781E+02  0.71800723052E+02  0.00000000000E+00 0.  1.
        -11    1    5    5    0    0  0.11449393700E+03 -0.12327412142E+03 -0.37127983004E+03  0.40762002259E+03  0.00000000000E+00 0. -1.
          2    1    6    6  503    0 -0.48685801100E+02  0.15354021440E+03 -0.98894761907E+02  0.18901078964E+03  0.00000000000E+00 0.  1.
         -2    1    6    6    0  503 -0.59937779883E+02  0.69059775983E+03 -0.29568836122E+03  0.75362418373E+03  0.00000000000E+00 0. -1.
<mgrwt>
<rscale>  0 0.18833990E+04</rscale>
<asrwt>0</asrwt>
<pdfrwt beam="1">  1        2 0.31470032E+00 0.18833990E+04</pdfrwt>
<pdfrwt beam="2">  1       -1 0.66696155E-01 0.18833990E+04</pdfrwt>
<totfact> 0.15327980E+01</totfact>
</mgrwt>
</event>
<event>
12    6  0.1462228E-007  0.1645714E+04  0.7818608E-02  0.8792946E-01
         -1   -1    0    0    0  501 -0.00000000000E+00  0.00000000000E+00  0.66394071449E+03  0.66394071449E+03  0.00000000000E+00 0.  1.
          2   -1    0    0  501    0  0.00000000000E+00 -0.00000000000E+00 -0.10198108379E+04  0.10198108379E+04  0.00000000000E+00 0. -1.
         24    2    1    2    0    0  0.21249205076E+03  0.19004836973E+03 -0.63718381210E+03  0.70246211410E+03  0.78603796770E+02 0.  0.
        254    2    1    2    0    0 -0.21249205076E+03 -0.19004836973E+03  0.28131368868E+03  0.98128943831E+03  0.89583498248E+03 0.  0.
         23    2    4    4    0    0 -0.24430096961E+03  0.57271904456E+02  0.54483754153E+03  0.60713046120E+03  0.93789207598E+02 0.  0.
         23    2    4    4    0    0  0.31808918855E+02 -0.24732027419E+03 -0.26352385285E+03  0.37415897711E+03  0.91493135166E+02 0.  0.
          4    1    3    3  502    0  0.20391508071E+03  0.19212884240E+03 -0.63388434962E+03  0.69303984078E+03  0.00000000000E+00 0. -1.
         -3    1    3    3    0  502  0.85769700475E+01 -0.20804726719E+01 -0.32994624850E+01  0.94222733151E+01  0.00000000000E+00 0.  1.
         11    1    5    5    0    0 -0.17957593875E+03  0.81939468598E+02  0.37663369390E+03  0.42522292233E+03  0.00000000000E+00 0.  1.
        -11    1    5    5    0    0 -0.64725030867E+02 -0.24667564142E+02  0.16820384763E+03  0.18190753888E+03  0.00000000000E+00 0. -1.
          2    1    6    6  503    0 -0.12920987183E+02 -0.15618964608E+02 -0.57254700983E+02  0.60737177658E+02  0.00000000000E+00 0. -1.
         -2    1    6    6    0  503  0.44729906038E+02 -0.23170130958E+03 -0.20626915187E+03  0.31342179945E+03  0.00000000000E+00 0.  1.
<mgrwt>
<rscale>  0 0.16457144E+04</rscale>
<asrwt>0</asrwt>
<pdfrwt beam="1">  1        2 0.15689397E+00 0.16457144E+04</pdfrwt>
<pdfrwt beam="2">  1       -1 0.10214473E+00 0.16457144E+04</pdfrwt>
<totfact> 0.24210778E+01</totfact>
</mgrwt>
</event>
<event>
12    6  0.1462228E-007  0.1603102E+04  0.7818608E-02  0.8818645E-01
         -1   -1    0    0    0  501 -0.00000000000E+00  0.00000000000E+00  0.48792550267E+03  0.48792550267E+03  0.00000000000E+00 0.  1.
          2   -1    0    0  501    0  0.00000000000E+00 -0.00000000000E+00 -0.13167659010E+04  0.13167659010E+04  0.00000000000E+00 0. -1.
         24    2    1    2    0    0  0.72478082427E+01  0.56819194866E+03 -0.14002862127E+03  0.59048257579E+03  0.78530480011E+02 0.  0.
        254    2    1    2    0    0 -0.72478082427E+01 -0.56819194866E+03 -0.68881177710E+03  0.12142088279E+04  0.82276776326E+03 0.  0.
         23    2    4    4    0    0 -0.14997683450E+03 -0.10067375431E+03  0.14058344978E+03  0.24631930237E+03  0.91001300386E+02 0.  0.
         23    2    4    4    0    0  0.14272902626E+03 -0.46751819435E+03 -0.82939522688E+03  0.96788952554E+03  0.99844150002E+02 0.  0.
          4    1    3    3  502    0  0.32547999333E+01  0.50365171947E+03 -0.14890473310E+03  0.52521259295E+03  0.00000000000E+00 0. -1.
         -3    1    3    3    0  502  0.39930083094E+01  0.64540229186E+02  0.88761118350E+01  0.65269982841E+02  0.00000000000E+00 0.  1.
         11    1    5    5    0    0 -0.45806505636E+02 -0.38313563869E+02  0.10329130941E+03  0.11931160771E+03  0.00000000000E+00 0. -1.
        -11    1    5    5    0    0 -0.10417032887E+03 -0.62360190437E+02  0.37292140370E+02  0.12700769465E+03  0.00000000000E+00 0.  1.
          4    1    6    6  503    0 -0.12609791376E+02 -0.30765512154E+02 -0.36046113247E+02  0.49039227735E+02  0.00000000000E+00 0. -1.
         -4    1    6    6    0  503  0.15533881764E+03 -0.43675268220E+03 -0.79334911363E+03  0.91885029780E+03  0.00000000000E+00 0.  1.
<mgrwt>
<rscale>  0 0.16031016E+04</rscale>
<asrwt>0</asrwt>
<pdfrwt beam="1">  1        2 0.20257937E+00 0.16031016E+04</pdfrwt>
<pdfrwt beam="2">  1       -1 0.75065462E-01 0.16031016E+04</pdfrwt>
<totfact> 0.31526546E+01</totfact>
</mgrwt>
</event>
<event>
12    6  0.1462228E-007  0.1611946E+04  0.7818608E-02  0.8813242E-01
         -1   -1    0    0    0  501 -0.00000000000E+00  0.00000000000E+00  0.60993894298E+03  0.60993894298E+03  0.00000000000E+00 0.  1.
          2   -1    0    0  501    0  0.00000000000E+00 -0.00000000000E+00 -0.10650126149E+04  0.10650126149E+04  0.00000000000E+00 0. -1.
         24    2    1    2    0    0 -0.11316062210E+03  0.52180563060E+03 -0.29821023854E+03  0.61675126906E+03  0.79789341420E+02 0.  0.
        254    2    1    2    0    0  0.11316062210E+03 -0.52180563060E+03 -0.15686343342E+03  0.10582002889E+04  0.90005292737E+03 0.  0.
         23    2    4    4    0    0 -0.30862903649E+03 -0.59538272346E+02  0.14417161069E+03  0.35765709161E+03  0.91304182874E+02 0.  0.
         23    2    4    4    0    0  0.42178965859E+03 -0.46226735826E+03 -0.30103504411E+03  0.70054319724E+03  0.92417784126E+02 0.  0.
          2    1    3    3  502    0 -0.31019965268E+02  0.26880529395E+03 -0.18427380438E+03  0.32737647942E+03  0.00000000000E+00 0. -1.
         -1    1    3    3    0  502 -0.82140656829E+02  0.25300033665E+03 -0.11393643416E+03  0.28937478964E+03  0.00000000000E+00 0.  1.
         11    1    5    5    0    0 -0.10776202966E+03 -0.58218607944E+02  0.28112041581E+02  0.12566761011E+03  0.00000000000E+00 0. -1.
        -11    1    5    5    0    0 -0.20086700682E+03 -0.13196644023E+01  0.11605956911E+03  0.23198948150E+03  0.00000000000E+00 0.  1.
          1    1    6    6  503    0  0.49611906488E+02 -0.34976009152E+02 -0.41869781528E+01  0.60845651181E+02  0.00000000000E+00 0. -1.
         -1    1    6    6    0  503  0.37217775210E+03 -0.42729134910E+03 -0.29684806596E+03  0.63969754606E+03  0.00000000000E+00 0.  1.
<mgrwt>
<rscale>  0 0.16119462E+04</rscale>
<asrwt>0</asrwt>
<pdfrwt beam="1">  1        2 0.16384809E+00 0.16119462E+04</pdfrwt>
<pdfrwt beam="2">  1       -1 0.93836761E-01 0.16119462E+04</pdfrwt>
<totfact> 0.27560900E+01</totfact>
</mgrwt>
</event>
<event>
12    6  0.1462228E-007  0.1838463E+04  0.7818608E-02  0.8686108E-01
         -1   -1    0    0    0  501 -0.00000000000E+00  0.00000000000E+00  0.43131924971E+03  0.43131924971E+03  0.00000000000E+00 0.  1.
          2   -1    0    0  501    0  0.00000000000E+00 -0.00000000000E+00 -0.19590749489E+04  0.19590749489E+04  0.00000000000E+00 0. -1.
         24    2    1    2    0    0 -0.16428056869E+01 -0.62152404290E+03 -0.17376221788E+03  0.65009671830E+03  0.78342836783E+02 0.  0.
        254    2    1    2    0    0  0.16428056869E+01  0.62152404290E+03 -0.13539934813E+04  0.17402974803E+04  0.89946769692E+03 0.  0.
         23    2    4    4    0    0  0.23560265281E+03  0.56543493986E+03 -0.13476144628E+04  0.14830910841E+04  0.90934822897E+02 0.  0.
         23    2    4    4    0    0 -0.23395984712E+03  0.56089103036E+02 -0.63790184544E+01  0.25720639620E+03  0.90726186015E+02 0.  0.
          4    1    3    3  502    0 -0.29371162890E+02 -0.13505645647E+03 -0.23503478191E+02  0.14019745052E+03  0.00000000000E+00 0. -1.
         -3    1    3    3    0  502  0.27728357204E+02 -0.48646758643E+03 -0.15025873969E+03  0.50989926779E+03  0.00000000000E+00 0.  1.
         11    1    5    5    0    0  0.19597828786E+03  0.35984036920E+03 -0.87663427744E+03  0.96766742066E+03  0.00000000000E+00 0. -1.
        -11    1    5    5    0    0  0.39624364941E+02  0.20559457066E+03 -0.47098018536E+03  0.51542366339E+03  0.00000000000E+00 0.  1.
          3    1    6    6  503    0 -0.17286404783E+03  0.19577018617E+02  0.31162106837E+02  0.17673798571E+03  0.00000000000E+00 0. -1.
         -3    1    6    6    0  503 -0.61095799287E+02  0.36512084419E+02 -0.37541125291E+02  0.80468410493E+02  0.00000000000E+00 0.  1.
<mgrwt>
<rscale>  0 0.18384632E+04</rscale>
<asrwt>0</asrwt>
<pdfrwt beam="1">  1        2 0.30139614E+00 0.18384632E+04</pdfrwt>
<pdfrwt beam="2">  1       -1 0.66356808E-01 0.18384632E+04</pdfrwt>
<totfact> 0.17366429E+01</totfact>
</mgrwt>
</event>
<event>
12    6  0.1462228E-007  0.1299623E+04  0.7818608E-02  0.9029864E-01
          2   -1    0    0  501    0  0.00000000000E+00  0.00000000000E+00  0.48917549266E+03  0.48917549266E+03  0.00000000000E+00 0. -1.
         -1   -1    0    0    0  501 -0.00000000000E+00 -0.00000000000E+00 -0.86319718685E+03  0.86319718685E+03  0.00000000000E+00 0.  1.
         24    2    1    2    0    0  0.43238150609E+02  0.21072448784E+03  0.16114669614E+03  0.28020997075E+03  0.79215040148E+02 0.  0.
        254    2    1    2    0    0 -0.43238150609E+02 -0.21072448784E+03 -0.53516839033E+03  0.10721627088E+04  0.90379938072E+03 0.  0.
         23    2    4    4    0    0 -0.23416631466E+03  0.28939409653E+03 -0.18168056806E+03  0.42418961070E+03  0.91357490033E+02 0.  0.
         23    2    4    4    0    0  0.19092816405E+03 -0.50011858438E+03 -0.35348782227E+03  0.64797309805E+03  0.91341847155E+02 0.  0.
          2    1    3    3  502    0  0.61169930958E+01  0.16492411167E+03  0.14342137005E+03  0.21864827830E+03  0.00000000000E+00 0. -1.
         -1    1    3    3    0  502  0.37121157513E+02  0.45800376170E+02  0.17725326089E+02  0.61561692451E+02  0.00000000000E+00 0.  1.
         11    1    5    5    0    0 -0.19213797035E+03  0.26217351046E+03 -0.12421184407E+03  0.34796627918E+03  0.00000000000E+00 0.  1.
        -11    1    5    5    0    0 -0.42028344307E+02  0.27220586072E+02 -0.57468723983E+02  0.76223331517E+02  0.00000000000E+00 0. -1.
          2    1    6    6  503    0  0.35075144811E+02 -0.19123835776E+03 -0.15842021038E+03  0.25079740493E+03  0.00000000000E+00 0. -1.
         -2    1    6    6    0  503  0.15585301924E+03 -0.30888022662E+03 -0.19506761189E+03  0.39717569313E+03  0.00000000000E+00 0.  1.
<mgrwt>
<rscale>  0 0.12996229E+04</rscale>
<asrwt>0</asrwt>
<pdfrwt beam="1">  1        2 0.75257768E-01 0.12996229E+04</pdfrwt>
<pdfrwt beam="2">  1       -1 0.13279957E+00 0.12996229E+04</pdfrwt>
<totfact> 0.34027065E+01</totfact>
</mgrwt>
</event>
<event>
12    6  0.1462228E-007  0.1593198E+04  0.7818608E-02  0.8824737E-01
          2   -1    0    0  501    0  0.00000000000E+00  0.00000000000E+00  0.39523034782E+04  0.39523034782E+04  0.00000000000E+00 0. -1.
         -1   -1    0    0    0  501 -0.00000000000E+00 -0.00000000000E+00 -0.16055708731E+03  0.16055708731E+03  0.00000000000E+00 0.  1.
         24    2    1    2    0    0 -0.40927770686E+00  0.45404372346E+03  0.20276531497E+04  0.20791907608E+04  0.74169091383E+02 0.  0.
        254    2    1    2    0    0  0.40927770686E+00 -0.45404372346E+03  0.17640932412E+04  0.20336698047E+04  0.90423008164E+03 0.  0.
         23    2    4    4    0    0  0.93688870954E+02  0.25318764149E+03  0.59557062490E+03  0.66155763559E+03  0.10036209252E+03 0.  0.
         23    2    4    4    0    0 -0.93279593247E+02 -0.70723136495E+03  0.11685226163E+04  0.13721121691E+04  0.91484499779E+02 0.  0.
          2    1    3    3  502    0 -0.43200433607E+01  0.96661587646E+02  0.58357347340E+03  0.59154046705E+03  0.00000000000E+00 0. -1.
         -1    1    3    3    0  502  0.39107656539E+01  0.35738213581E+03  0.14440796763E+04  0.14876502938E+04  0.00000000000E+00 0.  1.
         11    1    5    5    0    0  0.74294769263E+02  0.25711685298E+03  0.56432514562E+03  0.62457318131E+03  0.00000000000E+00 0. -1.
        -11    1    5    5    0    0  0.19394101691E+02 -0.39292114819E+01  0.31245479282E+02  0.36984454286E+02  0.00000000000E+00 0.  1.
          3    1    6    6  503    0 -0.34707123132E+02 -0.28265662406E+03  0.38300669396E+03  0.47727715128E+03  0.00000000000E+00 0. -1.
         -3    1    6    6    0  503 -0.58572470116E+02 -0.42457474090E+03  0.78551592233E+03  0.89483501781E+03  0.00000000000E+00 0.  1.
<mgrwt>
<rscale>  0 0.15931985E+04</rscale>
<asrwt>0</asrwt>
<pdfrwt beam="1">  1        2 0.60804661E+00 0.15931985E+04</pdfrwt>
<pdfrwt beam="2">  1       -1 0.24701093E-01 0.15931985E+04</pdfrwt>
<totfact> 0.59529715E+00</totfact>
</mgrwt>
</event>
<event>
12    6  0.1462228E-007  0.4638338E+04  0.7818608E-02  0.7886856E-01
          2   -1    0    0  501    0  0.00000000000E+00  0.00000000000E+00  0.27696100325E+04  0.27696100325E+04  0.00000000000E+00 0. -1.
         -1   -1    0    0    0  501 -0.00000000000E+00 -0.00000000000E+00 -0.19419863216E+04  0.19419863216E+04  0.00000000000E+00 0.  1.
         24    2    1    2    0    0 -0.19570517555E+04  0.10613647644E+04  0.25186072224E+03  0.22416078781E+04  0.69464517950E+02 0.  0.
        254    2    1    2    0    0  0.19570517555E+04 -0.10613647644E+04  0.57576298863E+03  0.24699884759E+04  0.90155050618E+03 0.  0.
         23    2    4    4    0    0 -0.36892261658E+02 -0.10244874084E+02 -0.72585018008E+02  0.12279557608E+03  0.91346440817E+02 0.  0.
         23    2    4    4    0    0  0.19939440172E+04 -0.10511198903E+04  0.64834800664E+03  0.23471928998E+04  0.91069225867E+02 0.  0.
          4    1    3    3  502    0 -0.46561095622E+02  0.22654374673E+02 -0.43614432833E+01  0.51963241863E+02  0.00000000000E+00 0. -1.
         -3    1    3    3    0  502 -0.19104906599E+04  0.10387103897E+04  0.25622216552E+03  0.21896446363E+04  0.00000000000E+00 0.  1.
         11    1    5    5    0    0 -0.36415336398E+02 -0.32006237730E+02 -0.84914109828E+02  0.97779762868E+02  0.00000000000E+00 0. -1.
        -11    1    5    5    0    0 -0.47692525991E+00  0.21761363646E+02  0.12329091821E+02  0.25015813210E+02  0.00000000000E+00 0.  1.
          4    1    6    6  503    0  0.11076995964E+04 -0.62488649418E+03  0.33755209464E+03  0.13158354544E+04  0.00000000000E+00 0. -1.
         -4    1    6    6    0  503  0.88624442075E+03 -0.42623339610E+03  0.31079591201E+03  0.10313574454E+04  0.00000000000E+00 0.  1.
<mgrwt>
<rscale>  0 0.46383380E+04</rscale>
<asrwt>0</asrwt>
<pdfrwt beam="1">  1        2 0.42609385E+00 0.46383380E+04</pdfrwt>
<pdfrwt beam="2">  1       -1 0.29876713E+00 0.46383380E+04</pdfrwt>
<totfact> 0.69100446E-02</totfact>
</mgrwt>
</event>
<event>
12    6  0.1462228E-007  0.2520768E+04  0.7818608E-02  0.8395624E-01
          2   -1    0    0  501    0  0.00000000000E+00  0.00000000000E+00  0.14326466779E+04  0.14326466779E+04  0.00000000000E+00 0. -1.
         -1   -1    0    0    0  501 -0.00000000000E+00 -0.00000000000E+00 -0.11088340615E+04  0.11088340615E+04  0.00000000000E+00 0.  1.
         24    2    1    2    0    0 -0.86323550575E+03 -0.34700352990E+03  0.72685754051E+03  0.11833659007E+04  0.80286877366E+02 0.  0.
        254    2    1    2    0    0  0.86323550575E+03  0.34700352990E+03 -0.40304492404E+03  0.13581148387E+04  0.90357275083E+03 0.  0.
         23    2    4    4    0    0 -0.53934590861E+02  0.21322972401E+03 -0.35235062144E+03  0.42537831798E+03  0.91760000465E+02 0.  0.
         23    2    4    4    0    0  0.91717009661E+03  0.13377380589E+03 -0.50694302600E+02  0.93273652067E+03  0.91274790769E+02 0.  0.
          2    1    3    3  502    0 -0.58337988560E+03 -0.20922969614E+03  0.44524329955E+03  0.76311909455E+03  0.00000000000E+00 0. -1.
         -1    1    3    3    0  502 -0.27985562014E+03 -0.13777383377E+03  0.28161424096E+03  0.42024680618E+03  0.00000000000E+00 0.  1.
         11    1    5    5    0    0 -0.67838185911E+02  0.20109045285E+03 -0.28373276180E+03  0.35432142161E+03  0.00000000000E+00 0.  1.
        -11    1    5    5    0    0  0.13903595050E+02  0.12139271161E+02 -0.68617859646E+02  0.71056896372E+02  0.00000000000E+00 0. -1.
          4    1    6    6  503    0  0.61332769083E+03  0.59136057789E+02 -0.25405829482E+01  0.61617723443E+03  0.00000000000E+00 0. -1.
         -4    1    6    6    0  503  0.30384240578E+03  0.74637748104E+02 -0.48153719652E+02  0.31655928625E+03  0.00000000000E+00 0.  1.
<mgrwt>
<rscale>  0 0.25207677E+04</rscale>
<asrwt>0</asrwt>
<pdfrwt beam="1">  1        2 0.22040718E+00 0.25207677E+04</pdfrwt>
<pdfrwt beam="2">  1       -1 0.17058986E+00 0.25207677E+04</pdfrwt>
<totfact> 0.34252769E+00</totfact>
</mgrwt>
</event>
<event>
12    6  0.1462228E-007  0.1678370E+04  0.7818608E-02  0.8773798E-01
         -1   -1    0    0    0  501 -0.00000000000E+00  0.00000000000E+00  0.14804558197E+04  0.14804558197E+04  0.00000000000E+00 0.  1.
          2   -1    0    0  501    0  0.00000000000E+00 -0.00000000000E+00 -0.47568572269E+03  0.47568572269E+03  0.00000000000E+00 0. -1.
         24    2    1    2    0    0 -0.18677674102E+03 -0.49449592621E+03  0.23744806008E+02  0.53497123443E+03  0.78858314930E+02 0.  0.
        254    2    1    2    0    0  0.18677674102E+03  0.49449592621E+03  0.98102529098E+03  0.14211703079E+04  0.88198789707E+03 0.  0.
         23    2    4    4    0    0  0.35121496728E+03 -0.35825016705E+02  0.70554826092E+03  0.79416856860E+03  0.90939440293E+02 0.  0.
         23    2    4    4    0    0 -0.16443822626E+03  0.53032094291E+03  0.27547703006E+03  0.62700173934E+03  0.94674992939E+02 0.  0.
          4    1    3    3  502    0 -0.14107704937E+03 -0.39138618956E+03 -0.13333064131E+02  0.41624950911E+03  0.00000000000E+00 0. -1.
         -3    1    3    3    0  502 -0.45699691648E+02 -0.10310973665E+03  0.37077870139E+02  0.11872172532E+03  0.00000000000E+00 0.  1.
         11    1    5    5    0    0  0.87512821885E+02  0.29173238173E+02  0.20128541077E+03  0.22141677536E+03  0.00000000000E+00 0. -1.
        -11    1    5    5    0    0  0.26370214540E+03 -0.64998254879E+02  0.50426285015E+03  0.57275179324E+03  0.00000000000E+00 0.  1.
          4    1    6    6  503    0 -0.42124532713E+02  0.28714487441E+03  0.12522409814E+03  0.31608184053E+03  0.00000000000E+00 0.  1.
         -4    1    6    6    0  503 -0.12231369355E+03  0.24317606850E+03  0.15025293193E+03  0.31091989881E+03  0.00000000000E+00 0. -1.
<mgrwt>
<rscale>  0 0.16783703E+04</rscale>
<asrwt>0</asrwt>
<pdfrwt beam="1">  1        2 0.73182419E-01 0.16783703E+04</pdfrwt>
<pdfrwt beam="2">  1       -1 0.22776243E+00 0.16783703E+04</pdfrwt>
<totfact> 0.69437039E+00</totfact>
</mgrwt>
</event>
<event>
12    6  0.1462228E-007  0.1340087E+04  0.7818608E-02  0.8998366E-01
         -1   -1    0    0    0  501 -0.00000000000E+00  0.00000000000E+00  0.10018374449E+04  0.10018374449E+04  0.00000000000E+00 0.  1.
          2   -1    0    0  501    0  0.00000000000E+00 -0.00000000000E+00 -0.44813496737E+03  0.44813496737E+03  0.00000000000E+00 0. -1.
         24    2    1    2    0    0 -0.55261501982E+02 -0.92298462135E+02  0.51304803852E+03  0.52992415394E+03  0.77643282971E+02 0.  0.
        254    2    1    2    0    0  0.55261501982E+02  0.92298462135E+02  0.40654438977E+02  0.92004825830E+03  0.91283250078E+03 0.  0.
         23    2    4    4    0    0  0.45342940348E+03  0.18854839443E+03  0.89874286940E+01  0.49957717237E+03  0.91366603848E+02 0.  0.
         23    2    4    4    0    0 -0.39816790150E+03 -0.96249932295E+02  0.31667010283E+02  0.42047108593E+03  0.89394671609E+02 0.  0.
          2    1    3    3  502    0 -0.14867428705E+01  0.13701874460E+02  0.50113181634E+02  0.51973865948E+02  0.00000000000E+00 0. -1.
         -1    1    3    3    0  502 -0.53774759112E+02 -0.10600033660E+03  0.46293485688E+03  0.47795028799E+03  0.00000000000E+00 0.  1.
         11    1    5    5    0    0  0.26595650692E+03  0.14295742110E+03  0.38530172368E+02  0.30439162604E+03  0.00000000000E+00 0.  1.
        -11    1    5    5    0    0  0.18747289655E+03  0.45590973334E+02 -0.29542743674E+02  0.19518554633E+03  0.00000000000E+00 0. -1.
          1    1    6    6  503    0 -0.23797273734E+03 -0.21052804662E+02  0.44612163804E+02  0.24303186922E+03  0.00000000000E+00 0. -1.
         -1    1    6    6    0  503 -0.16019516416E+03 -0.75197127633E+02 -0.12945153520E+02  0.17743921670E+03  0.00000000000E+00 0.  1.
<mgrwt>
<rscale>  0 0.13400871E+04</rscale>
<asrwt>0</asrwt>
<pdfrwt beam="1">  1        2 0.68943842E-01 0.13400871E+04</pdfrwt>
<pdfrwt beam="2">  1       -1 0.15412884E+00 0.13400871E+04</pdfrwt>
<totfact> 0.25323300E+01</totfact>
</mgrwt>
</event>
<event>
12    6  0.1462228E-007  0.2406633E+04  0.7818608E-02  0.8437025E-01
          2   -1    0    0  501    0  0.00000000000E+00  0.00000000000E+00  0.90176881854E+03  0.90176881854E+03  0.00000000000E+00 0. -1.
         -1   -1    0    0    0  501 -0.00000000000E+00 -0.00000000000E+00 -0.16057001928E+04  0.16057001928E+04  0.00000000000E+00 0.  1.
         24    2    1    2    0    0 -0.52487154948E+03 -0.51124334285E+03  0.45692727108E+03  0.86730353409E+03  0.81073979345E+02 0.  0.
        254    2    1    2    0    0  0.52487154948E+03  0.51124334285E+03 -0.11608586454E+04  0.16401654773E+04  0.89760241715E+03 0.  0.
         23    2    4    4    0    0  0.71318051564E+02 -0.79154678422E+02  0.10039812098E+03  0.17258899279E+03  0.91408151397E+02 0.  0.
         23    2    4    4    0    0  0.45355349791E+03  0.59039802128E+03 -0.12612567663E+04  0.14675764845E+04  0.93442539340E+02 0.  0.
          2    1    3    3  502    0 -0.41676413265E+03 -0.38900375771E+03  0.31680502799E+03  0.65221291886E+03  0.00000000000E+00 0. -1.
         -1    1    3    3    0  502 -0.10810741683E+03 -0.12223958515E+03  0.14012224309E+03  0.21509061523E+03  0.00000000000E+00 0.  1.
         11    1    5    5    0    0  0.38477724709E+02  0.12966764194E+02  0.43218488731E+02  0.59300168976E+02  0.00000000000E+00 0.  1.
        -11    1    5    5    0    0  0.32840326855E+02 -0.92121442616E+02  0.57179632252E+02  0.11328882382E+03  0.00000000000E+00 0. -1.
          2    1    6    6  503    0  0.44258791370E+03  0.57275588748E+03 -0.11853619249E+04  0.13888902984E+04  0.00000000000E+00 0. -1.
         -2    1    6    6    0  503  0.10965584209E+02  0.17642133797E+02 -0.75894841420E+02  0.78686186057E+02  0.00000000000E+00 0.  1.
<mgrwt>
<rscale>  0 0.24066328E+04</rscale>
<asrwt>0</asrwt>
<pdfrwt beam="1">  1        2 0.13873367E+00 0.24066328E+04</pdfrwt>
<pdfrwt beam="2">  1       -1 0.24703080E+00 0.24066328E+04</pdfrwt>
<totfact> 0.21850129E+00</totfact>
</mgrwt>
</event>
<event>
12    6  0.1462228E-007  0.1741685E+04  0.7818608E-02  0.8737941E-01
         -1   -1    0    0    0  501 -0.00000000000E+00  0.00000000000E+00  0.11633165820E+04  0.11633165820E+04  0.00000000000E+00 0.  1.
          2   -1    0    0  501    0  0.00000000000E+00 -0.00000000000E+00 -0.65190041032E+03  0.65190041032E+03  0.00000000000E+00 0. -1.
         24    2    1    2    0    0  0.55810001546E+03 -0.52599651104E+02 -0.10369642368E+03  0.57478049114E+03  0.73330172242E+02 0.  0.
        254    2    1    2    0    0 -0.55810001546E+03  0.52599651104E+02  0.61511259538E+03  0.12404365012E+04  0.91982436258E+03 0.  0.
         23    2    4    4    0    0  0.77561396873E+02  0.20424126967E+03 -0.10984836782E+03  0.26004979068E+03  0.88481428560E+02 0.  0.
         23    2    4    4    0    0 -0.63566141233E+03 -0.15164161857E+03  0.72496096320E+03  0.98038671053E+03  0.92353085558E+02 0.  0.
          2    1    3    3  502    0  0.34732558366E+03 -0.37743065893E+02 -0.28615727392E+02  0.35054024012E+03  0.00000000000E+00 0. -1.
         -1    1    3    3    0  502  0.21077443180E+03 -0.14856585211E+02 -0.75080696283E+02  0.22424025102E+03  0.00000000000E+00 0.  1.
         11    1    5    5    0    0  0.24641079172E+02  0.12725523758E+03 -0.21348000021E+02  0.13136519851E+03  0.00000000000E+00 0.  1.
        -11    1    5    5    0    0  0.52920317700E+02  0.76986032092E+02 -0.88500367799E+02  0.12868459217E+03  0.00000000000E+00 0. -1.
          3    1    6    6  503    0 -0.54004013206E+03 -0.93632335499E+02  0.60675461898E+03  0.81765611729E+03  0.00000000000E+00 0. -1.
         -3    1    6    6    0  503 -0.95621280269E+02 -0.58009283068E+02  0.11820634422E+03  0.16273059324E+03  0.00000000000E+00 0.  1.
<mgrwt>
<rscale>  0 0.17416849E+04</rscale>
<asrwt>0</asrwt>
<pdfrwt beam="1">  1        2 0.10029237E+00 0.17416849E+04</pdfrwt>
<pdfrwt beam="2">  1       -1 0.17897178E+00 0.17416849E+04</pdfrwt>
<totfact> 0.10271930E+01</totfact>
</mgrwt>
</event>
<event>
12    6  0.1462228E-007  0.1599326E+04  0.7818608E-02  0.8820962E-01
          2   -1    0    0  501    0  0.00000000000E+00  0.00000000000E+00  0.98722319854E+03  0.98722319854E+03  0.00000000000E+00 0. -1.
         -1   -1    0    0    0  501 -0.00000000000E+00 -0.00000000000E+00 -0.64773654713E+03  0.64773654713E+03  0.00000000000E+00 0.  1.
         24    2    1    2    0    0 -0.25165891060E+03 -0.35870252432E+03 -0.21107675546E+03  0.49330635837E+03  0.82450338247E+02 0.  0.
        254    2    1    2    0    0  0.25165891060E+03  0.35870252432E+03  0.55056340687E+03  0.11416533873E+04  0.89902874453E+03 0.  0.
         23    2    4    4    0    0  0.23838314540E+02 -0.26160973080E+03  0.34455588031E+03  0.44370270019E+03  0.95631663228E+02 0.  0.
         23    2    4    4    0    0  0.22782059606E+03  0.62031225512E+03  0.20600752656E+03  0.69795068710E+03  0.89479286926E+02 0.  0.
          4    1    3    3  502    0 -0.96558940594E+02 -0.93532438017E+02 -0.33761194996E+02  0.13860650871E+03  0.00000000000E+00 0. -1.
         -3    1    3    3    0  502 -0.15509997001E+03 -0.26517008630E+03 -0.17731556046E+03  0.35469984966E+03  0.00000000000E+00 0.  1.
         11    1    5    5    0    0  0.25798100354E+02 -0.26858855778E+03  0.32251932986E+03  0.42050454633E+03  0.00000000000E+00 0. -1.
        -11    1    5    5    0    0 -0.19597858144E+01  0.69788269874E+01  0.22036550450E+02  0.23198153855E+02  0.00000000000E+00 0.  1.
          4    1    6    6  503    0  0.77824546242E+01  0.90043246110E+01  0.18023829851E+02  0.21598678297E+02  0.00000000000E+00 0.  1.
         -4    1    6    6    0  503  0.22003814144E+03  0.61130793051E+03  0.18798369671E+03  0.67635200881E+03  0.00000000000E+00 0. -1.
<mgrwt>
<rscale>  0 0.15993255E+04</rscale>
<asrwt>0</asrwt>
<pdfrwt beam="1">  1        2 0.15188049E+00 0.15993255E+04</pdfrwt>
<pdfrwt beam="2">  1       -1 0.99651776E-01 0.15993255E+04</pdfrwt>
<totfact> 0.26992984E+01</totfact>
</mgrwt>
</event>
<event>
12    6  0.1462228E-007  0.1704543E+04  0.7818608E-02  0.8758778E-01
          2   -1    0    0  501    0  0.00000000000E+00  0.00000000000E+00  0.57181816885E+03  0.57181816885E+03  0.00000000000E+00 0. -1.
         -1   -1    0    0    0  501 -0.00000000000E+00 -0.00000000000E+00 -0.12702755126E+04  0.12702755126E+04  0.00000000000E+00 0.  1.
         24    2    1    2    0    0  0.56455486509E+03  0.24953557385E+03 -0.24669776586E+03  0.67012039745E+03  0.84919733217E+02 0.  0.
        254    2    1    2    0    0 -0.56455486509E+03 -0.24953557385E+03 -0.45175957787E+03  0.11719732840E+04  0.88794395308E+03 0.  0.
         23    2    4    4    0    0 -0.31739834003E+03  0.21361166431E+03  0.99115477991E+02  0.40570086729E+03  0.91638781953E+02 0.  0.
         23    2    4    4    0    0 -0.24715652506E+03 -0.46314723817E+03 -0.55087505586E+03  0.76627241667E+03  0.90102038208E+02 0.  0.
          2    1    3    3  502    0  0.17640191970E+03  0.93333586978E+02 -0.40389347816E+02  0.20361752171E+03  0.00000000000E+00 0. -1.
         -1    1    3    3    0  502  0.38815294539E+03  0.15620198688E+03 -0.20630841804E+03  0.46650287574E+03  0.00000000000E+00 0.  1.
         11    1    5    5    0    0 -0.36691574401E+02 -0.52600428849E+01  0.14713372893E+02  0.39880108138E+02  0.00000000000E+00 0.  1.
        -11    1    5    5    0    0 -0.28070676563E+03  0.21887170720E+03  0.84402105098E+02  0.36582075915E+03  0.00000000000E+00 0. -1.
          1    1    6    6  503    0 -0.13196307922E+03 -0.29102431921E+03 -0.27693759909E+03  0.42285203374E+03  0.00000000000E+00 0. -1.
         -1    1    6    6    0  503 -0.11519344584E+03 -0.17212291896E+03 -0.27393745677E+03  0.34342038294E+03  0.00000000000E+00 0.  1.
<mgrwt>
<rscale>  0 0.17045429E+04</rscale>
<asrwt>0</asrwt>
<pdfrwt beam="1">  1        2 0.87972026E-01 0.17045429E+04</pdfrwt>
<pdfrwt beam="2">  1       -1 0.19542700E+00 0.17045429E+04</pdfrwt>
<totfact> 0.92461372E+00</totfact>
</mgrwt>
</event>
<event>
12    6  0.1462228E-007  0.3245346E+04  0.7818608E-02  0.8176943E-01
         -1   -1    0    0    0  501 -0.00000000000E+00  0.00000000000E+00  0.10233335597E+04  0.10233335597E+04  0.00000000000E+00 0.  1.
          2   -1    0    0  501    0  0.00000000000E+00 -0.00000000000E+00 -0.25730298218E+04  0.25730298218E+04  0.00000000000E+00 0. -1.
         24    2    1    2    0    0 -0.57968798144E+03 -0.29970280108E+03  0.77707609953E+03  0.10177072448E+04  0.77594116043E+02 0.  0.
        254    2    1    2    0    0  0.57968798144E+03  0.29970280108E+03 -0.23267723616E+04  0.25786561366E+04  0.89985439006E+03 0.  0.
         23    2    4    4    0    0  0.32736259533E+02  0.23493273311E+03 -0.83409662385E+02  0.26683902703E+03  0.89335562860E+02 0.  0.
         23    2    4    4    0    0  0.54695172191E+03  0.64770067974E+02 -0.22433626992E+04  0.23118171096E+04  0.92036949533E+02 0.  0.
          4    1    3    3  502    0 -0.67286007619E+02 -0.21270584027E+02  0.54508548183E+02  0.89168528031E+02  0.00000000000E+00 0. -1.
         -3    1    3    3    0  502 -0.51240197382E+03 -0.27843221705E+03  0.72256755135E+03  0.92853871676E+03  0.00000000000E+00 0.  1.
         11    1    5    5    0    0  0.40149751852E+01  0.21672870127E+03 -0.58004825545E+02  0.22439253501E+03  0.00000000000E+00 0.  1.
        -11    1    5    5    0    0  0.28721284348E+02  0.18204031833E+02 -0.25404836840E+02  0.42446492016E+02  0.00000000000E+00 0. -1.
          2    1    6    6  503    0  0.25526954816E+03 -0.14430464482E+02 -0.97999809393E+03  0.10128015821E+04  0.00000000000E+00 0. -1.
         -2    1    6    6    0  503  0.29168217375E+03  0.79200532456E+02 -0.12633646053E+04  0.12990155275E+04  0.00000000000E+00 0.  1.
<mgrwt>
<rscale>  0 0.32453461E+04</rscale>
<asrwt>0</asrwt>
<pdfrwt beam="1">  1        2 0.39585074E+00 0.32453461E+04</pdfrwt>
<pdfrwt beam="2">  1       -1 0.15743593E+00 0.32453461E+04</pdfrwt>
<totfact> 0.91947433E-01</totfact>
</mgrwt>
</event>
<event>
12    6  0.1462228E-007  0.1948359E+04  0.7818608E-02  0.8631153E-01
          2   -1    0    0  501    0  0.00000000000E+00  0.00000000000E+00  0.14559641357E+04  0.14559641357E+04  0.00000000000E+00 0. -1.
         -1   -1    0    0    0  501 -0.00000000000E+00 -0.00000000000E+00 -0.65181922129E+03  0.65181922129E+03  0.00000000000E+00 0.  1.
         24    2    1    2    0    0  0.43213307647E+03 -0.62697585212E+03  0.34943496266E+03  0.84168379868E+03  0.80555005443E+02 0.  0.
        254    2    1    2    0    0 -0.43213307647E+03  0.62697585212E+03  0.45470995170E+03  0.12660995583E+04  0.90355367098E+03 0.  0.
         23    2    4    4    0    0 -0.19972418627E+03  0.81635537679E+03  0.44314315341E+03  0.95448483255E+03  0.91321352197E+02 0.  0.
         23    2    4    4    0    0 -0.23240889021E+03 -0.18937952467E+03  0.11566798290E+02  0.31161472571E+03  0.84210746618E+02 0.  0.
          2    1    3    3  502    0  0.24625169533E+03 -0.34556481965E+03  0.15110284954E+03  0.45042980937E+03  0.00000000000E+00 0. -1.
         -1    1    3    3    0  502  0.18588138115E+03 -0.28141103248E+03  0.19833211312E+03  0.39125398931E+03  0.00000000000E+00 0.  1.
         11    1    5    5    0    0 -0.16241042074E+03  0.75108791491E+03  0.38532714766E+03  0.85964365374E+03  0.00000000000E+00 0.  1.
        -11    1    5    5    0    0 -0.37313765532E+02  0.65267461880E+02  0.57816005749E+02  0.94841178816E+02  0.00000000000E+00 0. -1.
          2    1    6    6  503    0 -0.11057886307E+03 -0.70736730414E+02 -0.33922835402E+02  0.13558070936E+03  0.00000000000E+00 0. -1.
         -2    1    6    6    0  503 -0.12183002714E+03 -0.11864279425E+03  0.45489633692E+02  0.17603401635E+03  0.00000000000E+00 0.  1.
<mgrwt>
<rscale>  0 0.19483587E+04</rscale>
<asrwt>0</asrwt>
<pdfrwt beam="1">  1        2 0.22399448E+00 0.19483587E+04</pdfrwt>
<pdfrwt beam="2">  1       -1 0.10027988E+00 0.19483587E+04</pdfrwt>
<totfact> 0.13536232E+01</totfact>
</mgrwt>
</event>
<event>
12    6  0.1462228E-007  0.2419371E+04  0.7818608E-02  0.8432287E-01
          2   -1    0    0  501    0  0.00000000000E+00  0.00000000000E+00  0.16495106299E+04  0.16495106299E+04  0.00000000000E+00 0. -1.
         -1   -1    0    0    0  501 -0.00000000000E+00 -0.00000000000E+00 -0.88713557897E+03  0.88713557897E+03  0.00000000000E+00 0.  1.
         24    2    1    2    0    0 -0.78861479207E+03  0.41980802327E+03  0.88916981883E+03  0.12627073433E+04  0.75198414337E+02 0.  0.
        254    2    1    2    0    0  0.78861479207E+03 -0.41980802327E+03 -0.12679476794E+03  0.12739388655E+04  0.89927262451E+03 0.  0.
         23    2    4    4    0    0  0.24084942831E+03 -0.61203386502E+03  0.29208411198E+02  0.66550377694E+03  0.97202092452E+02 0.  0.
         23    2    4    4    0    0  0.54776536375E+03  0.19222584176E+03 -0.15600317913E+03  0.60843508857E+03  0.94120120764E+02 0.  0.
          2    1    3    3  502    0 -0.74653532878E+03  0.39974588933E+03  0.81631836216E+03  0.11762174295E+04  0.00000000000E+00 0. -1.
         -1    1    3    3    0  502 -0.42079463284E+02  0.20062133941E+02  0.72851456677E+02  0.86489913796E+02  0.00000000000E+00 0.  1.
         11    1    5    5    0    0  0.22668460505E+03 -0.58442136325E+03  0.48901197526E+02  0.62874920844E+03  0.00000000000E+00 0.  1.
        -11    1    5    5    0    0  0.14164823264E+02 -0.27612501775E+02 -0.19692786328E+02  0.36754568502E+02  0.00000000000E+00 0. -1.
          1    1    6    6  503    0  0.69640292798E+02  0.47145244012E+01 -0.44843137684E+02  0.82963269696E+02  0.00000000000E+00 0. -1.
         -1    1    6    6    0  503  0.47812507096E+03  0.18751131736E+03 -0.11116004145E+03  0.52547181887E+03  0.00000000000E+00 0.  1.
<mgrwt>
<rscale>  0 0.24193715E+04</rscale>
<asrwt>0</asrwt>
<pdfrwt beam="1">  1        2 0.25377087E+00 0.24193715E+04</pdfrwt>
<pdfrwt beam="2">  1       -1 0.13648240E+00 0.24193715E+04</pdfrwt>
<totfact> 0.47910578E+00</totfact>
</mgrwt>
</event>
<event>
12    6  0.1462228E-007  0.2580704E+04  0.7818608E-02  0.8374785E-01
         -1   -1    0    0    0  501 -0.00000000000E+00  0.00000000000E+00  0.10266891810E+04  0.10266891810E+04  0.00000000000E+00 0.  1.
          2   -1    0    0  501    0  0.00000000000E+00 -0.00000000000E+00 -0.16217252969E+04  0.16217252969E+04  0.00000000000E+00 0. -1.
         24    2    1    2    0    0 -0.63468401832E+03 -0.44126026870E+01  0.70285862168E+03  0.95033841253E+03  0.79306885556E+02 0.  0.
        254    2    1    2    0    0  0.63468401832E+03  0.44126026870E+01 -0.12978947376E+04  0.16980760654E+04  0.89223780455E+03 0.  0.
         23    2    4    4    0    0  0.57501337896E+03  0.38208714413E+03 -0.91254512102E+03  0.11478204380E+04  0.90123184445E+02 0.  0.
         23    2    4    4    0    0  0.59670639356E+02 -0.37767454144E+03 -0.38534961657E+03  0.55025562737E+03  0.89934887622E+02 0.  0.
          4    1    3    3  502    0 -0.21511295191E+03  0.17522439021E+02  0.19167980286E+03  0.28865509656E+03  0.00000000000E+00 0. -1.
         -3    1    3    3    0  502 -0.41957106641E+03 -0.21935041708E+02  0.51117881882E+03  0.66168331597E+03  0.00000000000E+00 0.  1.
         11    1    5    5    0    0  0.23300455448E+03  0.10984480579E+03 -0.30237352515E+03  0.39722380654E+03  0.00000000000E+00 0. -1.
        -11    1    5    5    0    0  0.34200882448E+03  0.27224233834E+03 -0.61017159587E+03  0.75059663149E+03  0.00000000000E+00 0.  1.
          1    1    6    6  503    0  0.24837173672E+01  0.40702982854E+01  0.80372441090E-01  0.47689243884E+01  0.00000000000E+00 0. -1.
         -1    1    6    6    0  503  0.57186921989E+02 -0.38174483973E+03 -0.38542998901E+03  0.54548670298E+03  0.00000000000E+00 0.  1.
<mgrwt>
<rscale>  0 0.25807036E+04</rscale>
<asrwt>0</asrwt>
<pdfrwt beam="1">  1        2 0.24949620E+00 0.25807036E+04</pdfrwt>
<pdfrwt beam="2">  1       -1 0.15795218E+00 0.25807036E+04</pdfrwt>
<totfact> 0.33138872E+00</totfact>
</mgrwt>
</event>
<event>
12    6  0.1462228E-007  0.1553904E+04  0.7818608E-02  0.8849378E-01
         -1   -1    0    0    0  501 -0.00000000000E+00  0.00000000000E+00  0.19577846790E+03  0.19577846790E+03  0.00000000000E+00 0.  1.
          2   -1    0    0  501    0  0.00000000000E+00 -0.00000000000E+00 -0.30833560391E+04  0.30833560391E+04  0.00000000000E+00 0. -1.
         24    2    1    2    0    0  0.28574994349E+02  0.11611141023E+03  0.94342245373E+02  0.17041922997E+03  0.76445175087E+02 0.  0.
        254    2    1    2    0    0 -0.28574994349E+02 -0.11611141023E+03 -0.29819198166E+04  0.31087152771E+04  0.87061271031E+03 0.  0.
         23    2    4    4    0    0  0.70495073162E+02  0.32627329104E+03 -0.19089872109E+04  0.19400620792E+04  0.90470349164E+02 0.  0.
         23    2    4    4    0    0 -0.99070067511E+02 -0.44238470126E+03 -0.10729326057E+04  0.11686531979E+04  0.95114763698E+02 0.  0.
          4    1    3    3  502    0  0.12364592867E+02  0.38985935596E+02 -0.75645113423E+01  0.41593366814E+02  0.00000000000E+00 0. -1.
         -3    1    3    3    0  502  0.16210401482E+02  0.77125474631E+02  0.10190675672E+03  0.12882586315E+03  0.00000000000E+00 0.  1.
         11    1    5    5    0    0  0.20970668155E+02  0.24281846806E+03 -0.15033713905E+04  0.15229990529E+04  0.00000000000E+00 0.  1.
        -11    1    5    5    0    0  0.49524405007E+02  0.83454822976E+02 -0.40561582040E+03  0.41706302633E+03  0.00000000000E+00 0. -1.
          1    1    6    6  503    0 -0.37069866718E+02 -0.49941952525E+02 -0.10053370342E+03  0.11821759245E+03  0.00000000000E+00 0. -1.
         -1    1    6    6    0  503 -0.62000200792E+02 -0.39244274874E+03 -0.97239890231E+03  0.10504356054E+04  0.00000000000E+00 0.  1.
<mgrwt>
<rscale>  0 0.15539044E+04</rscale>
<asrwt>0</asrwt>
<pdfrwt beam="1">  1        2 0.47436244E+00 0.15539044E+04</pdfrwt>
<pdfrwt beam="2">  1       -1 0.30119766E-01 0.15539044E+04</pdfrwt>
<totfact> 0.17250323E+01</totfact>
</mgrwt>
</event>
<event>
12    6  0.1462228E-007  0.1868845E+04  0.7818608E-02  0.8670521E-01
          4   -1    0    0  501    0  0.00000000000E+00  0.00000000000E+00  0.20561565761E+04  0.20561565761E+04  0.00000000000E+00 0. -1.
         -3   -1    0    0    0  501 -0.00000000000E+00 -0.00000000000E+00 -0.42464949665E+03  0.42464949665E+03  0.00000000000E+00 0.  1.
         24    2    1    2    0    0  0.44180587314E+03 -0.54144563919E+03  0.43409259016E+03  0.82648295872E+03  0.79258403234E+02 0.  0.
        254    2    1    2    0    0 -0.44180587314E+03  0.54144563919E+03  0.11974144893E+04  0.16543231140E+04  0.90256728101E+03 0.  0.
         23    2    4    4    0    0 -0.60500605874E+03  0.17109001453E+03  0.38810874708E+03  0.74488468528E+03  0.94449301903E+02 0.  0.
         23    2    4    4    0    0  0.16320018560E+03  0.37035562466E+03  0.80930574222E+03  0.90943842876E+03  0.91131125437E+02 0.  0.
          4    1    3    3  502    0  0.31452890868E+03 -0.43577312190E+03  0.34434415894E+03  0.63827858178E+03  0.00000000000E+00 0. -1.
         -3    1    3    3    0  502  0.12727696445E+03 -0.10567251729E+03  0.89748431225E+02  0.18820437694E+03  0.00000000000E+00 0.  1.
         11    1    5    5    0    0 -0.38973151990E+02  0.10780437029E+01  0.22294811842E+01  0.39051752082E+02  0.00000000000E+00 0. -1.
        -11    1    5    5    0    0 -0.56603290675E+03  0.17001197082E+03  0.38587926590E+03  0.70583293320E+03  0.00000000000E+00 0.  1.
          2    1    6    6  503    0  0.12367934157E+01 -0.28323806780E+01 -0.55544260210E+00  0.31401520254E+01  0.00000000000E+00 0. -1.
         -2    1    6    6    0  503  0.16196339218E+03  0.37318800534E+03  0.80986118482E+03  0.90629827674E+03  0.00000000000E+00 0.  1.
<mgrwt>
<rscale>  0 0.18688455E+04</rscale>
<asrwt>0</asrwt>
<pdfrwt beam="1">  1        4 0.31633177E+00 0.18688455E+04</pdfrwt>
<pdfrwt beam="2">  1       -3 0.65330693E-01 0.18688455E+04</pdfrwt>
<totfact> 0.11873880E-01</totfact>
</mgrwt>
</event>
<event>
12    6  0.1462228E-007  0.1495709E+04  0.7818608E-02  0.8887311E-01
          2   -1    0    0  501    0  0.00000000000E+00  0.00000000000E+00  0.16885426122E+04  0.16885426122E+04  0.00000000000E+00 0. -1.
         -1   -1    0    0    0  501 -0.00000000000E+00 -0.00000000000E+00 -0.33122430125E+03  0.33122430125E+03  0.00000000000E+00 0.  1.
         24    2    1    2    0    0 -0.19193823461E+03  0.57765546660E+02 -0.14416214684E+03  0.25921234944E+03  0.78937780763E+02 0.  0.
        254    2    1    2    0    0  0.19193823461E+03 -0.57765546660E+02  0.15014804578E+04  0.17605545640E+04  0.89717983897E+03 0.  0.
         23    2    4    4    0    0 -0.99307887836E+02  0.13870455212E+03  0.13557324608E+04  0.13692118868E+04  0.87348018684E+02 0.  0.
         23    2    4    4    0    0  0.29124612245E+03 -0.19647009878E+03  0.14574799698E+03  0.39134267719E+03  0.92096736129E+02 0.  0.
          2    1    3    3  502    0 -0.16779473365E+03  0.27989772445E+02 -0.88860682260E+02  0.19192373708E+03  0.00000000000E+00 0. -1.
         -1    1    3    3    0  502 -0.24143500967E+02  0.29775774215E+02 -0.55301464578E+02  0.67288612361E+02  0.00000000000E+00 0.  1.
         11    1    5    5    0    0 -0.79254382023E+02  0.81247286528E+02  0.11205420530E+04  0.11262756640E+04  0.00000000000E+00 0.  1.
        -11    1    5    5    0    0 -0.20053505813E+02  0.57457265596E+02  0.23519040778E+03  0.24293622285E+03  0.00000000000E+00 0. -1.
          3    1    6    6  503    0  0.67004174853E+02 -0.78888269092E+02  0.98299714221E+01  0.10396897030E+03  0.00000000000E+00 0. -1.
         -3    1    6    6    0  503  0.22424194760E+03 -0.11758182969E+03  0.13591802556E+03  0.28737370688E+03  0.00000000000E+00 0.  1.
<mgrwt>
<rscale>  0 0.14957090E+04</rscale>
<asrwt>0</asrwt>
<pdfrwt beam="1">  1        2 0.25977578E+00 0.14957090E+04</pdfrwt>
<pdfrwt beam="2">  1       -1 0.50957586E-01 0.14957090E+04</pdfrwt>
<totfact> 0.42417180E+01</totfact>
</mgrwt>
</event>
<event>
12    6  0.1462228E-007  0.1598467E+04  0.7818608E-02  0.8821490E-01
         -1   -1    0    0    0  501 -0.00000000000E+00  0.00000000000E+00  0.50248439458E+03  0.50248439458E+03  0.00000000000E+00 0.  1.
          2   -1    0    0  501    0  0.00000000000E+00 -0.00000000000E+00 -0.12712322165E+04  0.12712322165E+04  0.00000000000E+00 0. -1.
         24    2    1    2    0    0  0.36408379359E+03 -0.37874557609E+03 -0.37841125334E+03  0.65227086935E+03  0.79101139000E+02 0.  0.
        254    2    1    2    0    0 -0.36408379359E+03  0.37874557609E+03 -0.39033656858E+03  0.11214457417E+04  0.91064410980E+03 0.  0.
         23    2    4    4    0    0  0.67682068871E+02  0.52908729167E+03 -0.48622006103E+02  0.54352041619E+03  0.92391118002E+02 0.  0.
         23    2    4    4    0    0 -0.43176586246E+03 -0.15034171559E+03 -0.34171456247E+03  0.57792532553E+03  0.90578409432E+02 0.  0.
          4    1    3    3  502    0  0.34780088225E+03 -0.34788494905E+03 -0.32908181350E+03  0.59184814897E+03  0.00000000000E+00 0. -1.
         -3    1    3    3    0  502  0.16282911342E+02 -0.30860627039E+02 -0.49329439843E+02  0.60422720381E+02  0.00000000000E+00 0.  1.
         11    1    5    5    0    0  0.33468289553E+02  0.44027987250E+03 -0.66963865004E+02  0.44659898315E+03  0.00000000000E+00 0.  1.
        -11    1    5    5    0    0  0.34213779318E+02  0.88807419169E+02  0.18341858900E+02  0.96921433041E+02  0.00000000000E+00 0. -1.
          1    1    6    6  503    0 -0.83588629877E+01  0.65354491475E+00 -0.29358024669E+02  0.30531808395E+02  0.00000000000E+00 0. -1.
         -1    1    6    6    0  503 -0.42340699947E+03 -0.15099526050E+03 -0.31235653780E+03  0.54739351714E+03  0.00000000000E+00 0.  1.
<mgrwt>
<rscale>  0 0.15984672E+04</rscale>
<asrwt>0</asrwt>
<pdfrwt beam="1">  1        2 0.19557419E+00 0.15984672E+04</pdfrwt>
<pdfrwt beam="2">  1       -1 0.77305292E-01 0.15984672E+04</pdfrwt>
<totfact> 0.31524362E+01</totfact>
</mgrwt>
</event>
<event>
12    6  0.1462228E-007  0.1510462E+04  0.7818608E-02  0.8877526E-01
         -1   -1    0    0    0  501 -0.00000000000E+00  0.00000000000E+00  0.55013980762E+03  0.55013980762E+03  0.00000000000E+00 0.  1.
          2   -1    0    0  501    0  0.00000000000E+00 -0.00000000000E+00 -0.10367796505E+04  0.10367796505E+04  0.00000000000E+00 0. -1.
         24    2    1    2    0    0  0.34442826563E+03 -0.23687718074E+03  0.78920861695E+02  0.43294434232E+03  0.80440488665E+02 0.  0.
        254    2    1    2    0    0 -0.34442826563E+03  0.23687718074E+03 -0.56556070453E+03  0.11539751158E+04  0.91490875411E+03 0.  0.
         23    2    4    4    0    0 -0.47125708446E+03 -0.18893739583E+03 -0.45305665235E+03  0.68662994280E+03  0.91759298821E+02 0.  0.
         23    2    4    4    0    0  0.12682881883E+03  0.42581457657E+03 -0.11250405218E+03  0.46734517295E+03  0.91382416368E+02 0.  0.
          2    1    3    3  502    0  0.29707720322E+02 -0.49349926149E+02 -0.24820408168E+01  0.57655219922E+02  0.00000000000E+00 0. -1.
         -1    1    3    3    0  502  0.31472054531E+03 -0.18752725459E+03  0.81402902512E+02  0.37528912240E+03  0.00000000000E+00 0.  1.
         11    1    5    5    0    0 -0.14849017097E+03 -0.10542674519E+03 -0.17372173358E+03  0.25168108827E+03  0.00000000000E+00 0. -1.
        -11    1    5    5    0    0 -0.32276691349E+03 -0.83510650641E+02 -0.27933491877E+03  0.43494885453E+03  0.00000000000E+00 0.  1.
          1    1    6    6  503    0  0.69728646794E+01  0.14438314087E+03 -0.10652087174E+02  0.14494336539E+03  0.00000000000E+00 0. -1.
         -1    1    6    6    0  503  0.11985595415E+03  0.28143143570E+03 -0.10185196500E+03  0.32240180756E+03  0.00000000000E+00 0.  1.
<mgrwt>
<rscale>  0 0.15104619E+04</rscale>
<asrwt>0</asrwt>
<pdfrwt beam="1">  1        2 0.15950456E+00 0.15104619E+04</pdfrwt>
<pdfrwt beam="2">  1       -1 0.84636895E-01 0.15104619E+04</pdfrwt>
<totfact> 0.36325582E+01</totfact>
</mgrwt>
</event>
<event>
12    6  0.1462228E-007  0.1927060E+04  0.7818608E-02  0.8641503E-01
          2   -1    0    0  501    0  0.00000000000E+00  0.00000000000E+00  0.10751022768E+04  0.10751022768E+04  0.00000000000E+00 0. -1.
         -1   -1    0    0    0  501 -0.00000000000E+00 -0.00000000000E+00 -0.86353658228E+03  0.86353658228E+03  0.00000000000E+00 0.  1.
         24    2    1    2    0    0  0.24773781163E+03  0.55974357562E+03  0.51616004509E+03  0.80355418999E+03  0.67758765886E+02 0.  0.
        254    2    1    2    0    0 -0.24773781163E+03 -0.55974357562E+03 -0.30459435058E+03  0.11350846691E+04  0.90606434308E+03 0.  0.
         23    2    4    4    0    0 -0.32453628778E+03  0.33441624379E+01  0.17990580895E+03  0.38209893834E+03  0.91096174910E+02 0.  0.
         23    2    4    4    0    0  0.76798476154E+02 -0.56308773805E+03 -0.48450015953E+03  0.75298573073E+03  0.96339500783E+02 0.  0.
          4    1    3    3  502    0  0.12763053000E+03  0.21958172149E+03  0.23740734490E+03  0.34766065640E+03  0.00000000000E+00 0. -1.
         -3    1    3    3    0  502  0.12010728163E+03  0.34016185413E+03  0.27875270019E+03  0.45589353359E+03  0.00000000000E+00 0.  1.
         11    1    5    5    0    0 -0.12438396031E+03 -0.31342751556E+02  0.10438767307E+03  0.16537993816E+03  0.00000000000E+00 0.  1.
        -11    1    5    5    0    0 -0.20015232747E+03  0.34686913994E+02  0.75518135880E+02  0.21671900019E+03  0.00000000000E+00 0. -1.
          1    1    6    6  503    0 -0.11578103188E+02 -0.22030991814E+03 -0.15738857585E+03  0.27100124780E+03  0.00000000000E+00 0. -1.
         -1    1    6    6    0  503  0.88376579341E+02 -0.34277781992E+03 -0.32711158368E+03  0.48198448293E+03  0.00000000000E+00 0.  1.
<mgrwt>
<rscale>  0 0.19270601E+04</rscale>
<asrwt>0</asrwt>
<pdfrwt beam="1">  1        2 0.16540035E+00 0.19270601E+04</pdfrwt>
<pdfrwt beam="2">  1       -1 0.13285178E+00 0.19270601E+04</pdfrwt>
<totfact> 0.11550027E+01</totfact>
</mgrwt>
</event>
<event>
12    6  0.1462228E-007  0.3091339E+04  0.7818608E-02  0.8218119E-01
          2   -1    0    0  501    0  0.00000000000E+00  0.00000000000E+00  0.29357510358E+04  0.29357510358E+04  0.00000000000E+00 0. -1.
         -1   -1    0    0    0  501 -0.00000000000E+00 -0.00000000000E+00 -0.81379340365E+03  0.81379340365E+03  0.00000000000E+00 0.  1.
         24    2    1    2    0    0  0.13841500458E+04  0.12002036903E+03  0.12767983346E+04  0.18885599633E+04  0.78539857019E+02 0.  0.
        254    2    1    2    0    0 -0.13841500458E+04 -0.12002036903E+03  0.84515929752E+03  0.18609844762E+04  0.90481641454E+03 0.  0.
         23    2    4    4    0    0 -0.41549511217E+03 -0.11157833607E+03 -0.15396804829E+03  0.46643020895E+03  0.93621934441E+02 0.  0.
         23    2    4    4    0    0 -0.96865493367E+03 -0.84420329619E+01  0.99912734580E+03  0.13945542672E+04  0.90346569843E+02 0.  0.
          4    1    3    3  502    0  0.72351653298E+03  0.25336586344E+02  0.64765899606E+03  0.97138061092E+03  0.00000000000E+00 0. -1.
         -3    1    3    3    0  502  0.66063351286E+03  0.94683782687E+02  0.62913933856E+03  0.91717935233E+03  0.00000000000E+00 0.  1.
         11    1    5    5    0    0 -0.14166312578E+02 -0.21743005016E+02  0.32284644374E+01  0.26150825260E+02  0.00000000000E+00 0. -1.
        -11    1    5    5    0    0 -0.40132879959E+03 -0.89835331053E+02 -0.15719651272E+03  0.44027938369E+03  0.00000000000E+00 0.  1.
          1    1    6    6  503    0 -0.23943016684E+03 -0.17765840771E+02  0.19803441619E+03  0.31122348865E+03  0.00000000000E+00 0. -1.
         -1    1    6    6    0  503 -0.72922476682E+03  0.93238078092E+01  0.80109292961E+03  0.10833307786E+04  0.00000000000E+00 0.  1.
<mgrwt>
<rscale>  0 0.30913394E+04</rscale>
<asrwt>0</asrwt>
<pdfrwt beam="1">  1        2 0.45165400E+00 0.30913394E+04</pdfrwt>
<pdfrwt beam="2">  1       -1 0.12519899E+00 0.30913394E+04</pdfrwt>
<totfact> 0.10267160E+00</totfact>
</mgrwt>
</event>
<event>
12    6  0.1462228E-007  0.1472780E+04  0.7818608E-02  0.8902758E-01
          4   -1    0    0  501    0  0.00000000000E+00  0.00000000000E+00  0.68203120226E+03  0.68203120226E+03  0.00000000000E+00 0. -1.
         -3   -1    0    0    0  501 -0.00000000000E+00 -0.00000000000E+00 -0.79508148239E+03  0.79508148239E+03  0.00000000000E+00 0.  1.
         24    2    1    2    0    0  0.16334423394E+03  0.32217117961E+03  0.24882673833E+03  0.44639006779E+03  0.82908016391E+02 0.  0.
        254    2    1    2    0    0 -0.16334423394E+03 -0.32217117961E+03 -0.36187701846E+03  0.10307226169E+04  0.89496286442E+03 0.  0.
         23    2    4    4    0    0  0.13911503686E+03  0.20740799858E+03 -0.31544633667E+03  0.41246721947E+03  0.90839113076E+02 0.  0.
         23    2    4    4    0    0 -0.30245927080E+03 -0.52957917819E+03 -0.46430681795E+02  0.61825539739E+03  0.90267445548E+02 0.  0.
          4    1    3    3  502    0  0.13932023384E+03  0.26315403920E+03  0.23921933850E+03  0.38195034732E+03  0.00000000000E+00 0. -1.
         -3    1    3    3    0  502  0.24024000102E+02  0.59017140410E+02  0.96073998291E+01  0.64439720472E+02  0.00000000000E+00 0.  1.
         11    1    5    5    0    0  0.46473113767E+02  0.49972003728E+02 -0.32276701614E+02  0.75489978983E+02  0.00000000000E+00 0. -1.
        -11    1    5    5    0    0  0.92641923091E+02  0.15743599485E+03 -0.28316963506E+03  0.33697724049E+03  0.00000000000E+00 0.  1.
          1    1    6    6  503    0 -0.21291982551E+03 -0.39214038475E+03 -0.72802470104E+02  0.45211628272E+03  0.00000000000E+00 0. -1.
         -1    1    6    6    0  503 -0.89539445294E+02 -0.13743879344E+03  0.26371788309E+02  0.16613911467E+03  0.00000000000E+00 0.  1.
<mgrwt>
<rscale>  0 0.14727802E+04</rscale>
<asrwt>0</asrwt>
<pdfrwt beam="1">  1        4 0.10492788E+00 0.14727802E+04</pdfrwt>
<pdfrwt beam="2">  1       -3 0.12232023E+00 0.14727802E+04</pdfrwt>
<totfact> 0.87879938E-01</totfact>
</mgrwt>
</event>
<event>
12    6  0.1462228E-007  0.1685375E+04  0.7818608E-02  0.8769750E-01
         -1   -1    0    0    0  501 -0.00000000000E+00  0.00000000000E+00  0.18042912889E+04  0.18042912889E+04  0.00000000000E+00 0.  1.
          2   -1    0    0  501    0  0.00000000000E+00 -0.00000000000E+00 -0.39357388954E+03  0.39357388954E+03  0.00000000000E+00 0. -1.
         24    2    1    2    0    0 -0.50748910807E+03  0.32188961130E+03  0.51754037386E+03  0.79713504170E+03  0.80113166565E+02 0.  0.
        254    2    1    2    0    0  0.50748910807E+03 -0.32188961130E+03  0.89317702546E+03  0.14007301367E+04  0.89617051971E+03 0.  0.
         23    2    4    4    0    0  0.22352956459E+03  0.24267956140E+03  0.54459976558E+02  0.34659183715E+03  0.91110793909E+02 0.  0.
         23    2    4    4    0    0  0.28395954348E+03 -0.56456917270E+03  0.83871704890E+03  0.10541382996E+04  0.91596361193E+02 0.  0.
          2    1    3    3  502    0 -0.29539334126E+03  0.14905235550E+03  0.31379126145E+03  0.45600305537E+03  0.00000000000E+00 0. -1.
         -1    1    3    3    0  502 -0.21209576680E+03  0.17283725580E+03  0.20374911241E+03  0.34113198633E+03  0.00000000000E+00 0.  1.
         11    1    5    5    0    0  0.18648374169E+03  0.15032861566E+03  0.16518735757E+02  0.24009945279E+03  0.00000000000E+00 0. -1.
        -11    1    5    5    0    0  0.37045822905E+02  0.92350945735E+02  0.37941240801E+02  0.10649238436E+03  0.00000000000E+00 0.  1.
          3    1    6    6  503    0  0.18320628742E+03 -0.35707245007E+03  0.45762708407E+03  0.60867711180E+03  0.00000000000E+00 0. -1.
         -3    1    6    6    0  503  0.10075325606E+03 -0.20749672262E+03  0.38108996483E+03  0.44546118775E+03  0.00000000000E+00 0.  1.
<mgrwt>
<rscale>  0 0.16853747E+04</rscale>
<asrwt>0</asrwt>
<pdfrwt beam="1">  1        2 0.60549830E-01 0.16853747E+04</pdfrwt>
<pdfrwt beam="2">  1       -1 0.27758327E+00 0.16853747E+04</pdfrwt>
<totfact> 0.40749598E+00</totfact>
</mgrwt>
</event>
<event>
12    6  0.1462228E-007  0.1398753E+04  0.7818608E-02  0.8954721E-01
         -1   -1    0    0    0  501 -0.00000000000E+00  0.00000000000E+00  0.68585147065E+03  0.68585147065E+03  0.00000000000E+00 0.  1.
          2   -1    0    0  501    0  0.00000000000E+00 -0.00000000000E+00 -0.71316875169E+03  0.71316875169E+03  0.00000000000E+00 0. -1.
         24    2    1    2    0    0  0.27295546812E+03 -0.25580655873E+03 -0.81170513924E+01  0.38223613201E+03  0.78082591062E+02 0.  0.
        254    2    1    2    0    0 -0.27295546812E+03  0.25580655873E+03 -0.19200229643E+02  0.10167840903E+04  0.94527221183E+03 0.  0.
         23    2    4    4    0    0 -0.57019572992E+03 -0.39071775778E+01  0.11428894263E+03  0.58867863517E+03  0.91335297916E+02 0.  0.
         23    2    4    4    0    0  0.29724026180E+03  0.25971373631E+03 -0.13348917227E+03  0.42810545516E+03  0.98244203672E+02 0.  0.
          4    1    3    3  502    0  0.11804739355E+03 -0.99458161595E+02  0.34218275235E+02  0.15810756906E+03  0.00000000000E+00 0. -1.
         -3    1    3    3    0  502  0.15490807456E+03 -0.15634839714E+03 -0.42335326627E+02  0.22412856296E+03  0.00000000000E+00 0.  1.
         11    1    5    5    0    0 -0.10538962711E+03 -0.22332937351E+02  0.51101544220E+02  0.11923548723E+03  0.00000000000E+00 0. -1.
        -11    1    5    5    0    0 -0.46480610281E+03  0.18425759773E+02  0.63187398411E+02  0.46944314794E+03  0.00000000000E+00 0.  1.
          3    1    6    6  503    0  0.19703325518E+02 -0.34396210079E+01  0.61885418768E+01  0.20936811593E+02  0.00000000000E+00 0. -1.
         -3    1    6    6    0  503  0.27753693628E+03  0.26315335732E+03 -0.13967771415E+03  0.40716864356E+03  0.00000000000E+00 0.  1.
<mgrwt>
<rscale>  0 0.13987535E+04</rscale>
<asrwt>0</asrwt>
<pdfrwt beam="1">  1        2 0.10971827E+00 0.13987535E+04</pdfrwt>
<pdfrwt beam="2">  1       -1 0.10551561E+00 0.13987535E+04</pdfrwt>
<totfact> 0.37457779E+01</totfact>
</mgrwt>
</event>
<event>
12    6  0.1462228E-007  0.1640046E+04  0.7818608E-02  0.8796317E-01
         -3   -1    0    0    0  501 -0.00000000000E+00  0.00000000000E+00  0.24995675111E+03  0.24995675111E+03  0.00000000000E+00 0.  1.
          2   -1    0    0  501    0  0.00000000000E+00 -0.00000000000E+00 -0.26902150773E+04  0.26902150773E+04  0.00000000000E+00 0. -1.
         24    2    1    2    0    0 -0.10913097623E+03  0.35842315267E+03 -0.88882739823E+02  0.39347028021E+03  0.80882591640E+02 0.  0.
        254    2    1    2    0    0  0.10913097623E+03 -0.35842315267E+03 -0.23513755863E+04  0.25467015482E+04  0.90351806905E+03 0.  0.
         23    2    4    4    0    0  0.45938684035E+03 -0.39772936997E+03 -0.15232335625E+04  0.16424796864E+04  0.90962154453E+02 0.  0.
         23    2    4    4    0    0 -0.35025586412E+03  0.39306217302E+02 -0.82814202385E+03  0.90422186177E+03  0.87027665504E+02 0.  0.
          2    1    3    3  502    0 -0.46295969116E+02  0.16270611814E+03 -0.81520193602E+02  0.18778215997E+03  0.00000000000E+00 0. -1.
         -1    1    3    3    0  502 -0.62835007114E+02  0.19571703453E+03 -0.73625462210E+01  0.20568812025E+03  0.00000000000E+00 0.  1.
         11    1    5    5    0    0  0.44406720224E+03 -0.39104227697E+03 -0.15077396397E+04  0.16196877982E+04  0.00000000000E+00 0. -1.
        -11    1    5    5    0    0  0.15319638110E+02 -0.66870930036E+01 -0.15493922747E+02  0.22791888178E+02  0.00000000000E+00 0.  1.
          3    1    6    6  503    0 -0.28529483384E+03  0.52036600598E+02 -0.59574092602E+03  0.66257693965E+03  0.00000000000E+00 0. -1.
         -3    1    6    6    0  503 -0.64961030281E+02 -0.12730383297E+02 -0.23240109783E+03  0.24164492212E+03  0.00000000000E+00 0.  1.
<mgrwt>
<rscale>  0 0.16400456E+04</rscale>
<asrwt>0</asrwt>
<pdfrwt beam="1">  1        2 0.41387923E+00 0.16400456E+04</pdfrwt>
<pdfrwt beam="2">  1       -3 0.38454886E-01 0.16400456E+04</pdfrwt>
<totfact> 0.11212290E+01</totfact>
</mgrwt>
</event>
<event>
12    6  0.1462228E-007  0.1856384E+04  0.7818608E-02  0.8676877E-01
          2   -1    0    0  501    0  0.00000000000E+00  0.00000000000E+00  0.55269410537E+03  0.55269410537E+03  0.00000000000E+00 0. -1.
         -1   -1    0    0    0  501 -0.00000000000E+00 -0.00000000000E+00 -0.15588014031E+04  0.15588014031E+04  0.00000000000E+00 0.  1.
         24    2    1    2    0    0  0.56355776156E+03  0.38895908812E+03 -0.17573160152E+03  0.71159969695E+03  0.81277365149E+02 0.  0.
        254    2    1    2    0    0 -0.56355776156E+03 -0.38895908812E+03 -0.83037569622E+03  0.13998958115E+04  0.89515248053E+03 0.  0.
         23    2    4    4    0    0 -0.55560665459E+03  0.21142722090E+01 -0.82424105173E+03  0.99830995899E+03  0.92445865680E+02 0.  0.
         23    2    4    4    0    0 -0.79511069663E+01 -0.39107336033E+03 -0.61346444838E+01  0.40158585253E+03  0.90730203518E+02 0.  0.
          2    1    3    3  502    0  0.13661551753E+03  0.61713976300E+02 -0.17777145189E+02  0.15095840948E+03  0.00000000000E+00 0. -1.
         -1    1    3    3    0  502  0.42694224402E+03  0.32724511182E+03 -0.15795445633E+03  0.56064128747E+03  0.00000000000E+00 0.  1.
         11    1    5    5    0    0 -0.50233468237E+03  0.19080613410E+02 -0.77528181311E+03  0.92399463887E+03  0.00000000000E+00 0. -1.
        -11    1    5    5    0    0 -0.53271972218E+02 -0.16966341201E+02 -0.48959238625E+02  0.74315320119E+02  0.00000000000E+00 0.  1.
          1    1    6    6  503    0 -0.19474263577E+02 -0.37495027768E+03  0.10663008643E+02  0.37560705189E+03  0.00000000000E+00 0. -1.
         -1    1    6    6    0  503  0.11523156610E+02 -0.16123082647E+02 -0.16797653126E+02  0.25978800643E+02  0.00000000000E+00 0.  1.
<mgrwt>
<rscale>  0 0.18563840E+04</rscale>
<asrwt>0</asrwt>
<pdfrwt beam="1">  1        2 0.85029864E-01 0.18563840E+04</pdfrwt>
<pdfrwt beam="2">  1       -1 0.23981559E+00 0.18563840E+04</pdfrwt>
<totfact> 0.47773974E+00</totfact>
</mgrwt>
</event>
<event>
12    6  0.1462228E-007  0.1632531E+04  0.7818608E-02  0.8800808E-01
          2   -1    0    0  501    0  0.00000000000E+00  0.00000000000E+00  0.24014543736E+04  0.24014543736E+04  0.00000000000E+00 0. -1.
         -1   -1    0    0    0  501 -0.00000000000E+00 -0.00000000000E+00 -0.27745250522E+03  0.27745250522E+03  0.00000000000E+00 0.  1.
         24    2    1    2    0    0 -0.25458834284E+03 -0.58075025856E+02 -0.71065763660E+02  0.28233552977E+03  0.80467854882E+02 0.  0.
        254    2    1    2    0    0  0.25458834284E+03  0.58075025856E+02  0.21950676320E+04  0.23965713491E+04  0.92576691935E+03 0.  0.
         23    2    4    4    0    0  0.23512802428E+03  0.20535847317E+03  0.21976005105E+04  0.22215006554E+04  0.90331987080E+02 0.  0.
         23    2    4    4    0    0  0.19460318552E+02 -0.14728344732E+03 -0.25328784726E+01  0.17507069365E+03  0.92586254103E+02 0.  0.
          4    1    3    3  502    0 -0.43780042681E+02 -0.57007884606E+01  0.17854045189E+02  0.47623083225E+02  0.00000000000E+00 0. -1.
         -3    1    3    3    0  502 -0.21080830016E+03 -0.52374237395E+02 -0.88919808849E+02  0.23471244654E+03  0.00000000000E+00 0.  1.
         11    1    5    5    0    0  0.19670377296E+03  0.20666398787E+03  0.19931059202E+04  0.20134233502E+04  0.00000000000E+00 0. -1.
        -11    1    5    5    0    0  0.38424251327E+02 -0.13055147010E+01  0.20449459031E+03  0.20807730517E+03  0.00000000000E+00 0.  1.
          3    1    6    6  503    0  0.37321147248E+02 -0.12071999579E+03 -0.33300412855E+02  0.13067173723E+03  0.00000000000E+00 0. -1.
         -3    1    6    6    0  503 -0.17860828695E+02 -0.26563451531E+02  0.30767534382E+02  0.44398956417E+02  0.00000000000E+00 0.  1.
<mgrwt>
<rscale>  0 0.16325312E+04</rscale>
<asrwt>0</asrwt>
<pdfrwt beam="1">  1        2 0.36945451E+00 0.16325312E+04</pdfrwt>
<pdfrwt beam="2">  1       -1 0.42685002E-01 0.16325312E+04</pdfrwt>
<totfact> 0.23389732E+01</totfact>
</mgrwt>
</event>
<event>
12    6  0.1462228E-007  0.2229896E+04  0.7818608E-02  0.8506087E-01
         -1   -1    0    0    0  501 -0.00000000000E+00  0.00000000000E+00  0.92522589704E+03  0.92522589704E+03  0.00000000000E+00 0.  1.
          2   -1    0    0  501    0  0.00000000000E+00 -0.00000000000E+00 -0.13435730936E+04  0.13435730936E+04  0.00000000000E+00 0. -1.
         24    2    1    2    0    0 -0.23321741657E+03 -0.95180250033E+03 -0.33342692300E+03  0.10382580482E+04  0.80547493280E+02 0.  0.
        254    2    1    2    0    0  0.23321741657E+03  0.95180250033E+03 -0.84920273511E+02  0.12305409424E+04  0.73939244992E+03 0.  0.
         23    2    4    4    0    0 -0.14571095176E+03 -0.14666542123E+02  0.51139339501E+02  0.17957404743E+03  0.90469981470E+02 0.  0.
         23    2    4    4    0    0  0.37892836833E+03  0.96646904245E+03 -0.13605961301E+03  0.10509668949E+04  0.91488128453E+02 0.  0.
          4    1    3    3  502    0 -0.32555203528E+02 -0.21956401157E+03 -0.10396022189E+03  0.24510390488E+03  0.00000000000E+00 0. -1.
         -3    1    3    3    0  502 -0.20066221305E+03 -0.73223848876E+03 -0.22946670111E+03  0.79315414333E+03  0.00000000000E+00 0.  1.
         11    1    5    5    0    0 -0.94525979253E+01 -0.13007726775E+02 -0.20154039874E+02  0.25782511255E+02  0.00000000000E+00 0. -1.
        -11    1    5    5    0    0 -0.13625835383E+03 -0.16588153475E+01  0.71293379375E+02  0.15379153618E+03  0.00000000000E+00 0.  1.
          1    1    6    6  503    0  0.57451223694E+02  0.81446970740E+02 -0.25627141571E+02  0.10291259656E+03  0.00000000000E+00 0. -1.
         -1    1    6    6    0  503  0.32147714464E+03  0.88502207171E+03 -0.11043247144E+03  0.94805429839E+03  0.00000000000E+00 0.  1.
<mgrwt>
<rscale>  0 0.22298956E+04</rscale>
<asrwt>0</asrwt>
<pdfrwt beam="1">  1        2 0.20670355E+00 0.22298956E+04</pdfrwt>
<pdfrwt beam="2">  1       -1 0.14234244E+00 0.22298956E+04</pdfrwt>
<totfact> 0.65027051E+00</totfact>
</mgrwt>
</event>
<event>
12    6  0.1462228E-007  0.2894562E+04  0.7818608E-02  0.8274497E-01
          2   -1    0    0  501    0  0.00000000000E+00  0.00000000000E+00  0.23417119839E+04  0.23417119839E+04  0.00000000000E+00 0. -1.
         -1   -1    0    0    0  501 -0.00000000000E+00 -0.00000000000E+00 -0.89448336924E+03  0.89448336924E+03  0.00000000000E+00 0.  1.
         24    2    1    2    0    0 -0.60946701273E+03 -0.79410674283E+03  0.15925066931E+04  0.18826724916E+04  0.79514681517E+02 0.  0.
        254    2    1    2    0    0  0.60946701273E+03  0.79410674283E+03 -0.14527807841E+03  0.13535228615E+04  0.89936803258E+03 0.  0.
         23    2    4    4    0    0  0.82048825376E+03  0.48136815608E+03 -0.79994918354E+02  0.95917449157E+03  0.93275088172E+02 0.  0.
         23    2    4    4    0    0 -0.21102124102E+03  0.31273858675E+03 -0.65283160061E+02  0.39434836997E+03  0.94410582604E+02 0.  0.
          4    1    3    3  502    0 -0.51559286582E+03 -0.62004829415E+03  0.12752274937E+04  0.15088078245E+04  0.00000000000E+00 0. -1.
         -3    1    3    3    0  502 -0.93874146910E+02 -0.17405844868E+03  0.31727919935E+03  0.37386466717E+03  0.00000000000E+00 0.  1.
         11    1    5    5    0    0  0.80168607852E+03  0.48452374133E+03 -0.77209944999E+02  0.93990701668E+03  0.00000000000E+00 0.  1.
        -11    1    5    5    0    0  0.18802175237E+02 -0.31555852479E+01 -0.27849733550E+01  0.19267474887E+02  0.00000000000E+00 0. -1.
          3    1    6    6  503    0 -0.47327081118E+02  0.10369417014E+03  0.19480599428E+02  0.11563661740E+03  0.00000000000E+00 0. -1.
         -3    1    6    6    0  503 -0.16369415990E+03  0.20904441660E+03 -0.84763759489E+02  0.27871175257E+03  0.00000000000E+00 0.  1.
<mgrwt>
<rscale>  0 0.28945621E+04</rscale>
<asrwt>0</asrwt>
<pdfrwt beam="1">  1        2 0.36026338E+00 0.28945621E+04</pdfrwt>
<pdfrwt beam="2">  1       -1 0.13761283E+00 0.28945621E+04</pdfrwt>
<totfact> 0.18471324E+00</totfact>
</mgrwt>
</event>
<event>
12    6  0.1462228E-007  0.1282576E+04  0.7818608E-02  0.9043498E-01
         -1   -1    0    0    0  501 -0.00000000000E+00  0.00000000000E+00  0.18037295671E+03  0.18037295671E+03  0.00000000000E+00 0.  1.
          2   -1    0    0  501    0  0.00000000000E+00 -0.00000000000E+00 -0.22799999986E+04  0.22799999986E+04  0.00000000000E+00 0. -1.
         24    2    1    2    0    0 -0.17379544655E+03  0.13881965761E+03 -0.97554285922E+03  0.10036538774E+04  0.78495101034E+02 0.  0.
        254    2    1    2    0    0  0.17379544655E+03 -0.13881965761E+03 -0.11240841827E+04  0.14567190779E+04  0.89943841790E+03 0.  0.
         23    2    4    4    0    0 -0.30671875715E+03  0.94005076224E+02 -0.20950289585E+03  0.39390489114E+03  0.91412524054E+02 0.  0.
         23    2    4    4    0    0  0.48051420370E+03 -0.23282473383E+03 -0.91458128681E+03  0.10628141867E+04  0.89519878880E+02 0.  0.
          4    1    3    3  502    0 -0.21106236634E+02  0.38721814004E+02 -0.32494004264E+03  0.32791901960E+03  0.00000000000E+00 0. -1.
         -3    1    3    3    0  502 -0.15268920991E+03  0.10009784360E+03 -0.65060281658E+03  0.67573485781E+03  0.00000000000E+00 0.  1.
         11    1    5    5    0    0 -0.30525075028E+03  0.79447890116E+02 -0.18587572298E+03  0.36611442499E+03  0.00000000000E+00 0. -1.
        -11    1    5    5    0    0 -0.14680068715E+01  0.14557186108E+02 -0.23627172864E+02  0.27790466154E+02  0.00000000000E+00 0.  1.
          2    1    6    6  503    0  0.23429205653E+02 -0.26514115880E+02 -0.31993100679E+02  0.47702038840E+02  0.00000000000E+00 0.  1.
         -2    1    6    6    0  503  0.45708499804E+03 -0.20631061795E+03 -0.88258818613E+03  0.10151121479E+04  0.00000000000E+00 0. -1.
<mgrwt>
<rscale>  0 0.12825761E+04</rscale>
<asrwt>0</asrwt>
<pdfrwt beam="1">  1        2 0.35076922E+00 0.12825761E+04</pdfrwt>
<pdfrwt beam="2">  1       -1 0.27749687E-01 0.12825761E+04</pdfrwt>
<totfact> 0.61008008E+01</totfact>
</mgrwt>
</event>
<event>
12    6  0.1462228E-007  0.2183203E+04  0.7818608E-02  0.8525452E-01
         -1   -1    0    0    0  501 -0.00000000000E+00  0.00000000000E+00  0.10380174728E+04  0.10380174728E+04  0.00000000000E+00 0.  1.
          2   -1    0    0  501    0  0.00000000000E+00 -0.00000000000E+00 -0.11479512305E+04  0.11479512305E+04  0.00000000000E+00 0. -1.
         24    2    1    2    0    0 -0.97422824303E+02  0.90182354807E+03 -0.49435963932E+02  0.91195086707E+03  0.80209418894E+02 0.  0.
        254    2    1    2    0    0  0.97422824303E+02 -0.90182354807E+03 -0.60497793686E+02  0.12740178362E+04  0.89257187133E+03 0.  0.
         23    2    4    4    0    0  0.21291767754E+03  0.29787245817E+02 -0.21591732173E+03  0.31809843431E+03  0.91351555356E+02 0.  0.
         23    2    4    4    0    0 -0.11549485323E+03 -0.93161079388E+03  0.15541952804E+03  0.95591940194E+03  0.91591161685E+02 0.  0.
          4    1    3    3  502    0 -0.10543920134E+03  0.68635287845E+03 -0.23797780127E+02  0.69481222879E+03  0.00000000000E+00 0. -1.
         -3    1    3    3    0  502  0.80163770416E+01  0.21547066962E+03 -0.25638183805E+02  0.21713863828E+03  0.00000000000E+00 0.  1.
         11    1    5    5    0    0  0.19628909975E+03  0.20864747546E+02 -0.22311513663E+03  0.29790117919E+03  0.00000000000E+00 0. -1.
        -11    1    5    5    0    0  0.16628577790E+02  0.89224982711E+01  0.71978149066E+01  0.20197255114E+02  0.00000000000E+00 0.  1.
          3    1    6    6  503    0 -0.12907499080E+03 -0.75074310582E+03  0.12995475532E+03  0.77276374308E+03  0.00000000000E+00 0. -1.
         -3    1    6    6    0  503  0.13580137570E+02 -0.18086768806E+03  0.25464772720E+02  0.18315565886E+03  0.00000000000E+00 0.  1.
<mgrwt>
<rscale>  0 0.21832026E+04</rscale>
<asrwt>0</asrwt>
<pdfrwt beam="1">  1        2 0.17660788E+00 0.21832026E+04</pdfrwt>
<pdfrwt beam="2">  1       -1 0.15969500E+00 0.21832026E+04</pdfrwt>
<totfact> 0.62429120E+00</totfact>
</mgrwt>
</event>
<event>
12    6  0.1462228E-007  0.2425375E+04  0.7818608E-02  0.8430064E-01
         -1   -1    0    0    0  501 -0.00000000000E+00  0.00000000000E+00  0.11528013457E+04  0.11528013457E+04  0.00000000000E+00 0.  1.
          2   -1    0    0  501    0  0.00000000000E+00 -0.00000000000E+00 -0.12756842148E+04  0.12756842148E+04  0.00000000000E+00 0. -1.
         24    2    1    2    0    0  0.91528944501E+03 -0.30234375677E+03  0.34693996519E+03  0.10276305742E+04  0.80565142301E+02 0.  0.
        254    2    1    2    0    0 -0.91528944501E+03  0.30234375677E+03 -0.46982283424E+03  0.14008549863E+04  0.90138486882E+03 0.  0.
         23    2    4    4    0    0 -0.23545471083E+02  0.37552681046E+03 -0.29054302879E+03  0.48381060305E+03  0.89903689910E+02 0.  0.
         23    2    4    4    0    0 -0.89174397393E+03 -0.73183053699E+02 -0.17927980546E+03  0.91704438328E+03  0.90917973336E+02 0.  0.
          2    1    3    3  502    0  0.45336259413E+02 -0.10842338094E+02  0.35943393258E+02  0.58863063391E+02  0.00000000000E+00 0. -1.
         -1    1    3    3    0  502  0.86995318560E+03 -0.29150141867E+03  0.31099657193E+03  0.96876751080E+03  0.00000000000E+00 0.  1.
         11    1    5    5    0    0 -0.54200213839E+02  0.15688543230E+03 -0.12991903605E+03  0.21078343857E+03  0.00000000000E+00 0.  1.
        -11    1    5    5    0    0  0.30654742757E+02  0.21864137817E+03 -0.16062399274E+03  0.27302716448E+03  0.00000000000E+00 0. -1.
          3    1    6    6  503    0 -0.66428318802E+03 -0.85083671407E+02 -0.10787558877E+03  0.67834248554E+03  0.00000000000E+00 0. -1.
         -3    1    6    6    0  503 -0.22746078591E+03  0.11900617708E+02 -0.71404216685E+02  0.23870189775E+03  0.00000000000E+00 0.  1.
<mgrwt>
<rscale>  0 0.24253746E+04</rscale>
<asrwt>0</asrwt>
<pdfrwt beam="1">  1        2 0.19625911E+00 0.24253746E+04</pdfrwt>
<pdfrwt beam="2">  1       -1 0.17735405E+00 0.24253746E+04</pdfrwt>
<totfact> 0.37989286E+00</totfact>
</mgrwt>
</event>
<event>
12    6  0.1462228E-007  0.1739344E+04  0.7818608E-02  0.8739238E-01
          2   -1    0    0  501    0  0.00000000000E+00  0.00000000000E+00  0.89602408017E+03  0.89602408017E+03  0.00000000000E+00 0. -1.
         -1   -1    0    0    0  501 -0.00000000000E+00 -0.00000000000E+00 -0.84409477319E+03  0.84409477319E+03  0.00000000000E+00 0.  1.
         24    2    1    2    0    0  0.48112095481E+03 -0.15754891677E+03 -0.36712376350E+03  0.63069526687E+03  0.81839034658E+02 0.  0.
        254    2    1    2    0    0 -0.48112095481E+03  0.15754891677E+03  0.41905307048E+03  0.11094235865E+04  0.89382111411E+03 0.  0.
         23    2    4    4    0    0 -0.17704883009E+03  0.24780068714E+03 -0.22146396569E+03  0.38880485820E+03  0.96806305971E+02 0.  0.
         23    2    4    4    0    0 -0.30407212472E+03 -0.90251770368E+02  0.64051703617E+03  0.72061872829E+03  0.91782562857E+02 0.  0.
          4    1    3    3  502    0  0.85669197611E+02 -0.10993718595E+02 -0.96940134881E+02  0.12983629315E+03  0.00000000000E+00 0. -1.
         -3    1    3    3    0  502  0.39545175720E+03 -0.14655519818E+03 -0.27018362862E+03  0.50085897373E+03  0.00000000000E+00 0.  1.
         11    1    5    5    0    0 -0.15524205957E+03  0.21305362110E+03 -0.22639539294E+03  0.34748642631E+03  0.00000000000E+00 0.  1.
        -11    1    5    5    0    0 -0.21806770524E+02  0.34747066036E+02  0.49314272552E+01  0.41318431887E+02  0.00000000000E+00 0. -1.
          4    1    6    6  503    0 -0.26897098772E+03 -0.10911964069E+03  0.55783293019E+03  0.62883230374E+03  0.00000000000E+00 0.  1.
         -4    1    6    6    0  503 -0.35101137001E+02  0.18867870326E+02  0.82684105983E+02  0.91786424550E+02  0.00000000000E+00 0. -1.
<mgrwt>
<rscale>  0 0.17393438E+04</rscale>
<asrwt>0</asrwt>
<pdfrwt beam="1">  1        2 0.13784986E+00 0.17393438E+04</pdfrwt>
<pdfrwt beam="2">  1       -1 0.12986073E+00 0.17393438E+04</pdfrwt>
<totfact> 0.16245107E+01</totfact>
</mgrwt>
</event>
<event>
12    6  0.1462228E-007  0.2302863E+04  0.7818608E-02  0.8476793E-01
         -1   -1    0    0    0  501 -0.00000000000E+00  0.00000000000E+00  0.12750922585E+04  0.12750922585E+04  0.00000000000E+00 0.  1.
          2   -1    0    0  501    0  0.00000000000E+00 -0.00000000000E+00 -0.10397634073E+04  0.10397634073E+04  0.00000000000E+00 0. -1.
         24    2    1    2    0    0 -0.77562009174E+03  0.44027577990E+03 -0.29411995353E+03  0.94249519872E+03  0.79758156125E+02 0.  0.
        254    2    1    2    0    0  0.77562009174E+03 -0.44027577990E+03  0.52944880475E+03  0.13723604670E+04  0.89868121464E+03 0.  0.
         23    2    4    4    0    0 -0.75623465550E+02  0.18351534061E+02  0.36871791533E+03  0.38775380526E+03  0.91347824642E+02 0.  0.
         23    2    4    4    0    0  0.85124355728E+03 -0.45862731396E+03  0.16073088942E+03  0.98460666176E+03  0.93065851145E+02 0.  0.
          4    1    3    3  502    0 -0.56325307384E+03  0.32500159164E+03 -0.17687819810E+03  0.67391836057E+03  0.00000000000E+00 0. -1.
         -3    1    3    3    0  502 -0.21236701790E+03  0.11527418825E+03 -0.11724175543E+03  0.26857683814E+03  0.00000000000E+00 0.  1.
         11    1    5    5    0    0 -0.46184283248E+02  0.34674070286E+02  0.89508052587E+02  0.10652216036E+03  0.00000000000E+00 0. -1.
        -11    1    5    5    0    0 -0.29439182301E+02 -0.16322536225E+02  0.27920986274E+03  0.28123164491E+03  0.00000000000E+00 0.  1.
          1    1    6    6  503    0  0.50998728861E+03 -0.30679555108E+03  0.13458957701E+03  0.61018431555E+03  0.00000000000E+00 0. -1.
         -1    1    6    6    0  503  0.34125626867E+03 -0.15183176288E+03  0.26141312411E+02  0.37442234621E+03  0.00000000000E+00 0.  1.
<mgrwt>
<rscale>  0 0.23028628E+04</rscale>
<asrwt>0</asrwt>
<pdfrwt beam="1">  1        2 0.15996360E+00 0.23028628E+04</pdfrwt>
<pdfrwt beam="2">  1       -1 0.19616804E+00 0.23028628E+04</pdfrwt>
<totfact> 0.39286833E+00</totfact>
</mgrwt>
</event>
<event>
12    6  0.1462228E-007  0.2310939E+04  0.7818608E-02  0.8473620E-01
          2   -1    0    0  501    0  0.00000000000E+00  0.00000000000E+00  0.19155794105E+04  0.19155794105E+04  0.00000000000E+00 0. -1.
         -1   -1    0    0    0  501 -0.00000000000E+00 -0.00000000000E+00 -0.69697465548E+03  0.69697465548E+03  0.00000000000E+00 0.  1.
         24    2    1    2    0    0 -0.10323324386E+03 -0.57581424415E+03 -0.36727623682E+03  0.69507774487E+03  0.77602131887E+02 0.  0.
        254    2    1    2    0    0  0.10323324386E+03  0.57581424415E+03  0.15858809918E+04  0.19174763211E+04  0.90525011754E+03 0.  0.
         23    2    4    4    0    0  0.22305143543E+03 -0.16182229249E+03  0.24039149874E+03  0.37586771392E+03  0.86891130201E+02 0.  0.
         23    2    4    4    0    0 -0.11981819157E+03  0.73763653664E+03  0.13454894931E+04  0.15416086072E+04  0.88040118540E+02 0.  0.
          2    1    3    3  502    0 -0.35705302986E+02 -0.85626826935E+02 -0.82594703705E+02  0.12421234734E+03  0.00000000000E+00 0. -1.
         -1    1    3    3    0  502 -0.67527940879E+02 -0.49018741721E+03 -0.28468153312E+03  0.57086539753E+03  0.00000000000E+00 0.  1.
         11    1    5    5    0    0  0.50994633961E+02 -0.74004188304E+01  0.77451348436E+02  0.93026503031E+02  0.00000000000E+00 0. -1.
        -11    1    5    5    0    0  0.17205680147E+03 -0.15442187366E+03  0.16294015030E+03  0.28284121089E+03  0.00000000000E+00 0.  1.
          1    1    6    6  503    0 -0.49603132838E+02  0.13365137652E+03  0.21504007017E+03  0.25800269962E+03  0.00000000000E+00 0. -1.
         -1    1    6    6    0  503 -0.70215058731E+02  0.60398516012E+03  0.11304494229E+04  0.12836059075E+04  0.00000000000E+00 0.  1.
<mgrwt>
<rscale>  0 0.23109395E+04</rscale>
<asrwt>0</asrwt>
<pdfrwt beam="1">  1        2 0.29470452E+00 0.23109395E+04</pdfrwt>
<pdfrwt beam="2">  1       -1 0.10722687E+00 0.23109395E+04</pdfrwt>
<totfact> 0.62202617E+00</totfact>
</mgrwt>
</event>
<event>
12    6  0.1462228E-007  0.2320997E+04  0.7818608E-02  0.8469688E-01
          2   -1    0    0  501    0  0.00000000000E+00  0.00000000000E+00  0.34275485281E+04  0.34275485281E+04  0.00000000000E+00 0. -1.
         -1   -1    0    0    0  501 -0.00000000000E+00 -0.00000000000E+00 -0.39292127398E+03  0.39292127398E+03  0.00000000000E+00 0.  1.
         24    2    1    2    0    0  0.56145296005E+03 -0.72687298442E+03  0.71260443420E+03  0.11653926624E+04  0.82226614363E+02 0.  0.
        254    2    1    2    0    0 -0.56145296005E+03  0.72687298442E+03  0.23220228200E+04  0.26550771397E+04  0.90225876533E+03 0.  0.
         23    2    4    4    0    0 -0.59333189868E+03  0.29048467492E+03  0.19888562150E+04  0.20977252539E+04  0.92076645416E+02 0.  0.
         23    2    4    4    0    0  0.31878938630E+02  0.43638830950E+03  0.33316660499E+03  0.55735188583E+03  0.90499251717E+02 0.  0.
          4    1    3    3  502    0  0.56629662462E+02 -0.11472690178E+03  0.83208308092E+02  0.15261979949E+03  0.00000000000E+00 0. -1.
         -3    1    3    3    0  502  0.50482329759E+03 -0.61214608264E+03  0.62939612611E+03  0.10127728629E+04  0.00000000000E+00 0.  1.
         11    1    5    5    0    0 -0.56870760446E+03  0.25773870938E+03  0.18978381354E+04  0.19979107012E+04  0.00000000000E+00 0.  1.
        -11    1    5    5    0    0 -0.24624294222E+02  0.32745965548E+02  0.91018079527E+02  0.99814552679E+02  0.00000000000E+00 0. -1.
          4    1    6    6  503    0 -0.62327396130E+01  0.12429711848E+01 -0.21167811780E+01  0.66987150265E+01  0.00000000000E+00 0. -1.
         -4    1    6    6    0  503  0.38111678243E+02  0.43514533831E+03  0.33528338617E+03  0.55065317080E+03  0.00000000000E+00 0.  1.
<mgrwt>
<rscale>  0 0.23209970E+04</rscale>
<asrwt>0</asrwt>
<pdfrwt beam="1">  1        2 0.52731514E+00 0.23209970E+04</pdfrwt>
<pdfrwt beam="2">  1       -1 0.60449429E-01 0.23209970E+04</pdfrwt>
<totfact> 0.26139362E+00</totfact>
</mgrwt>
</event>
<event>
12    6  0.1462228E-007  0.1373255E+04  0.7818608E-02  0.8973409E-01
         -1   -1    0    0    0  501 -0.00000000000E+00  0.00000000000E+00  0.47048326184E+03  0.47048326184E+03  0.00000000000E+00 0.  1.
          2   -1    0    0  501    0  0.00000000000E+00 -0.00000000000E+00 -0.10020707550E+04  0.10020707550E+04  0.00000000000E+00 0. -1.
         24    2    1    2    0    0 -0.45516783751E+02 -0.17441862851E+03  0.24636747782E+03  0.31630342650E+03  0.82808742960E+02 0.  0.
        254    2    1    2    0    0  0.45516783751E+02  0.17441862851E+03 -0.77795497101E+03  0.11562505904E+04  0.83618649548E+03 0.  0.
         23    2    4    4    0    0  0.37559357580E+03  0.29540826527E+03 -0.37143289913E+03  0.61290143066E+03  0.96691198086E+02 0.  0.
         23    2    4    4    0    0 -0.33007679205E+03 -0.12098963675E+03 -0.40652207188E+03  0.54334915970E+03  0.79868226286E+02 0.  0.
          4    1    3    3  502    0 -0.65364256283E+02 -0.87531659388E+02  0.13505665645E+03  0.17370831254E+03  0.00000000000E+00 0. -1.
         -3    1    3    3    0  502  0.19847472533E+02 -0.86886969125E+02  0.11131082137E+03  0.14259511396E+03  0.00000000000E+00 0.  1.
         11    1    5    5    0    0  0.23277843968E+03  0.12225484547E+03 -0.19280514039E+03  0.32604581179E+03  0.00000000000E+00 0. -1.
        -11    1    5    5    0    0  0.14281513611E+03  0.17315341979E+03 -0.17862775874E+03  0.28685561888E+03  0.00000000000E+00 0.  1.
          1    1    6    6  503    0 -0.26848741933E+03 -0.67095155945E+02 -0.28896779912E+03  0.40011203833E+03  0.00000000000E+00 0. -1.
         -1    1    6    6    0  503 -0.61589372715E+02 -0.53894480810E+02 -0.11755427276E+03  0.14323712137E+03  0.00000000000E+00 0.  1.
<mgrwt>
<rscale>  0 0.13732553E+04</rscale>
<asrwt>0</asrwt>
<pdfrwt beam="1">  1        2 0.15416473E+00 0.13732553E+04</pdfrwt>
<pdfrwt beam="2">  1       -1 0.72382040E-01 0.13732553E+04</pdfrwt>
<totfact> 0.53800816E+01</totfact>
</mgrwt>
</event>
<event>
12    6  0.1462228E-007  0.2362237E+04  0.7818608E-02  0.8453778E-01
          2   -1    0    0  501    0  0.00000000000E+00  0.00000000000E+00  0.39172637870E+04  0.39172637870E+04  0.00000000000E+00 0. -1.
         -1   -1    0    0    0  501 -0.00000000000E+00 -0.00000000000E+00 -0.35612635951E+03  0.35612635951E+03  0.00000000000E+00 0.  1.
         24    2    1    2    0    0 -0.31223855461E+03  0.15632467287E+03 -0.18566417077E+03  0.40354424216E+03  0.80289804731E+02 0.  0.
        254    2    1    2    0    0  0.31223855461E+03 -0.15632467287E+03  0.37468015982E+04  0.38698459043E+04  0.90291460745E+03 0.  0.
         23    2    4    4    0    0 -0.69339183193E+02 -0.25985651987E+03  0.30528533316E+04  0.30660922484E+04  0.93139024425E+02 0.  0.
         23    2    4    4    0    0  0.38157773780E+03  0.10353184700E+03  0.69394826660E+03  0.80375365594E+03  0.90196060836E+02 0.  0.
          2    1    3    3  502    0 -0.95566513482E+01  0.27143069901E+02 -0.97575451406E+01  0.30385613633E+02  0.00000000000E+00 0. -1.
         -1    1    3    3    0  502 -0.30268190326E+03  0.12918160297E+03 -0.17590662563E+03  0.37315862853E+03  0.00000000000E+00 0.  1.
         11    1    5    5    0    0  0.16886602488E+02 -0.88566411341E+02  0.79027338121E+03  0.79540001484E+03  0.00000000000E+00 0. -1.
        -11    1    5    5    0    0 -0.86225785681E+02 -0.17129010853E+03  0.22625799504E+04  0.22706922335E+04  0.00000000000E+00 0.  1.
          4    1    6    6  503    0  0.10331511034E+03  0.15099438020E+02  0.26534137323E+03  0.28514566348E+03  0.00000000000E+00 0. -1.
         -4    1    6    6    0  503  0.27826262746E+03  0.88432408984E+02  0.42860689337E+03  0.51860799246E+03  0.00000000000E+00 0.  1.
<mgrwt>
<rscale>  0 0.23622370E+04</rscale>
<asrwt>0</asrwt>
<pdfrwt beam="1">  1        2 0.60265594E+00 0.23622370E+04</pdfrwt>
<pdfrwt beam="2">  1       -1 0.54788673E-01 0.23622370E+04</pdfrwt>
<totfact> 0.13823283E+00</totfact>
</mgrwt>
</event>
<event>
12    6  0.1571121E-007  0.3237248E+04  0.7818608E-02  0.8179049E-01
         -1   -1    0    0    0  501 -0.00000000000E+00  0.00000000000E+00  0.13197387467E+04  0.13197387467E+04  0.00000000000E+00 0.  1.
          2   -1    0    0  501    0  0.00000000000E+00 -0.00000000000E+00 -0.19851988593E+04  0.19851988593E+04  0.00000000000E+00 0. -1.
         24    2    1    2    0    0  0.36924176577E+03 -0.39507177280E+03  0.11132388237E+04  0.12402135123E+04  0.80048049661E+02 0.  0.
        254    2    1    2    0    0 -0.36924176577E+03  0.39507177280E+03 -0.17786989362E+04  0.20647240937E+04  0.89827305993E+03 0.  0.
         23    2    4    4    0    0 -0.57179592780E+03  0.19682613545E+03 -0.62874710907E+03  0.87682704287E+03  0.88383399410E+02 0.  0.
         23    2    4    4    0    0  0.20255416203E+03  0.19824563735E+03 -0.11499518271E+04  0.11878970508E+04  0.91546039580E+02 0.  0.
          4    1    3    3  502    0  0.18105735691E+03 -0.13796028769E+03  0.44058372044E+03  0.49591211135E+03  0.00000000000E+00 0. -1.
         -3    1    3    3    0  502  0.18818440886E+03 -0.25711148511E+03  0.67265510323E+03  0.74430140092E+03  0.00000000000E+00 0.  1.
         11    1    5    5    0    0 -0.49359808663E+01  0.12753899067E+02 -0.63109574782E+01  0.15061674303E+02  0.00000000000E+00 0. -1.
        -11    1    5    5    0    0 -0.56685994694E+03  0.18407223639E+03 -0.62243615159E+03  0.86176536856E+03  0.00000000000E+00 0.  1.
          1    1    6    6  503    0  0.80182937474E+01 -0.78440595097E+01 -0.19834525974E+02  0.22786634785E+02  0.00000000000E+00 0. -1.
         -1    1    6    6    0  503  0.19453586828E+03  0.20608969686E+03 -0.11301173012E+04  0.11651104161E+04  0.00000000000E+00 0.  1.
<mgrwt>
<rscale>  0 0.32372481E+04</rscale>
<asrwt>0</asrwt>
<pdfrwt beam="1">  1        2 0.30541521E+00 0.32372481E+04</pdfrwt>
<pdfrwt beam="2">  1       -1 0.20303673E+00 0.32372481E+04</pdfrwt>
<totfact> 0.93260270E-01</totfact>
</mgrwt>
</event>
<event>
12    6  0.1462228E-007  0.2273061E+04  0.7818608E-02  0.8488619E-01
          2   -1    0    0  501    0  0.00000000000E+00  0.00000000000E+00  0.17047485300E+04  0.17047485300E+04  0.00000000000E+00 0. -1.
         -1   -1    0    0    0  501 -0.00000000000E+00 -0.00000000000E+00 -0.75770807543E+03  0.75770807543E+03  0.00000000000E+00 0.  1.
         24    2    1    2    0    0  0.18854326895E+02  0.59060614341E+02 -0.62824369273E+03  0.63675782151E+03  0.83227062831E+02 0.  0.
        254    2    1    2    0    0 -0.18854326895E+02 -0.59060614341E+02  0.15752841473E+04  0.18256987839E+04  0.92076721438E+03 0.  0.
         23    2    4    4    0    0  0.40155024103E+03 -0.20950838622E+03  0.88642817090E+03  0.99963250998E+03  0.91508977021E+02 0.  0.
         23    2    4    4    0    0 -0.42040456792E+03  0.15044777188E+03  0.68885597635E+03  0.82606627390E+03  0.92132512875E+02 0.  0.
          2    1    3    3  502    0  0.49782338443E+02  0.24707666771E+02 -0.28024921481E+03  0.28570679449E+03  0.00000000000E+00 0. -1.
         -1    1    3    3    0  502 -0.30928011548E+02  0.34352947569E+02 -0.34799447792E+03  0.35105102702E+03  0.00000000000E+00 0.  1.
         11    1    5    5    0    0  0.38784132137E+02 -0.95413500399E+01  0.36368917309E+02  0.54018000819E+02  0.00000000000E+00 0. -1.
        -11    1    5    5    0    0  0.36276610889E+03 -0.19996703618E+03  0.85005925359E+03  0.94561450916E+03  0.00000000000E+00 0.  1.
          4    1    6    6  503    0 -0.10733755047E+03  0.27766700280E+02  0.10724135401E+03  0.15424995104E+03  0.00000000000E+00 0.  1.
         -4    1    6    6    0  503 -0.31306701746E+03  0.12268107160E+03  0.58161462234E+03  0.67181632286E+03  0.00000000000E+00 0. -1.
<mgrwt>
<rscale>  0 0.22730611E+04</rscale>
<asrwt>0</asrwt>
<pdfrwt beam="1">  1        2 0.26226900E+00 0.22730611E+04</pdfrwt>
<pdfrwt beam="2">  1       -1 0.11657047E+00 0.22730611E+04</pdfrwt>
<totfact> 0.66997355E+00</totfact>
</mgrwt>
</event>
<event>
12    6  0.1462228E-007  0.2708766E+04  0.7818608E-02  0.8332166E-01
          2   -1    0    0  501    0  0.00000000000E+00  0.00000000000E+00  0.20605438664E+04  0.20605438664E+04  0.00000000000E+00 0. -1.
         -1   -1    0    0    0  501 -0.00000000000E+00 -0.00000000000E+00 -0.89022790364E+03  0.89022790364E+03  0.00000000000E+00 0.  1.
         24    2    1    2    0    0 -0.94746427539E+03  0.58451932572E+03  0.31824384185E+02  0.11170077484E+04  0.85686191188E+02 0.  0.
        254    2    1    2    0    0  0.94746427539E+03 -0.58451932572E+03  0.11384915785E+04  0.18337640216E+04  0.90949217541E+03 0.  0.
         23    2    4    4    0    0  0.49195582202E+03  0.18755677259E+03  0.37348633132E+03  0.65159053526E+03  0.88769996021E+02 0.  0.
         23    2    4    4    0    0  0.45550845337E+03 -0.77207609831E+03  0.76500524722E+03  0.11821734863E+04  0.93336331616E+02 0.  0.
          2    1    3    3  502    0 -0.17080279634E+03  0.14540339724E+03  0.10172675672E+02  0.22454225994E+03  0.00000000000E+00 0. -1.
         -1    1    3    3    0  502 -0.77666147905E+03  0.43911592847E+03  0.21651708513E+02  0.89246548850E+03  0.00000000000E+00 0.  1.
         11    1    5    5    0    0  0.49516021390E+03  0.18485000510E+03  0.37383147687E+03  0.64738175361E+03  0.00000000000E+00 0.  1.
        -11    1    5    5    0    0 -0.32043918744E+01  0.27067674881E+01 -0.34514554880E+00  0.42087816491E+01  0.00000000000E+00 0. -1.
          1    1    6    6  503    0  0.91026872177E+01 -0.59613816607E+02  0.44960267925E+02  0.75220288067E+02  0.00000000000E+00 0. -1.
         -1    1    6    6    0  503  0.44640576615E+03 -0.71246228170E+03  0.72004497930E+03  0.11069531982E+04  0.00000000000E+00 0.  1.
<mgrwt>
<rscale>  0 0.27087662E+04</rscale>
<asrwt>0</asrwt>
<pdfrwt beam="1">  1        2 0.31700675E+00 0.27087662E+04</pdfrwt>
<pdfrwt beam="2">  1       -1 0.13695814E+00 0.27087662E+04</pdfrwt>
<totfact> 0.27362661E+00</totfact>
</mgrwt>
</event>
<event>
12    6  0.1462228E-007  0.1640082E+04  0.7818608E-02  0.8796296E-01
         -1   -1    0    0    0  501 -0.00000000000E+00  0.00000000000E+00  0.70841777379E+03  0.70841777379E+03  0.00000000000E+00 0.  1.
          2   -1    0    0  501    0  0.00000000000E+00 -0.00000000000E+00 -0.94925226355E+03  0.94925226355E+03  0.00000000000E+00 0. -1.
         24    2    1    2    0    0  0.44532108744E+02  0.26406328038E+02 -0.65260958697E+03  0.65915841796E+03  0.76877461557E+02 0.  0.
        254    2    1    2    0    0 -0.44532108744E+02 -0.26406328038E+02  0.41177509721E+03  0.99851161938E+03  0.90817747191E+03 0.  0.
         23    2    4    4    0    0 -0.42496407243E+03  0.17093548044E+03  0.16293993328E+03  0.49473292428E+03  0.91639746707E+02 0.  0.
         23    2    4    4    0    0  0.38043196368E+03 -0.19734180848E+03  0.24883516394E+03  0.50377869510E+03  0.90563604505E+02 0.  0.
          4    1    3    3  502    0  0.28579500881E+02  0.44054117814E+02 -0.58744297589E+03  0.58978538732E+03  0.00000000000E+00 0. -1.
         -3    1    3    3    0  502  0.15952607862E+02 -0.17647789776E+02 -0.65166611079E+02  0.69373030647E+02  0.00000000000E+00 0.  1.
         11    1    5    5    0    0 -0.13688554566E+03  0.33242512891E+02  0.90167480994E+02  0.16725098476E+03  0.00000000000E+00 0.  1.
        -11    1    5    5    0    0 -0.28807852677E+03  0.13769296755E+03  0.72772452283E+02  0.32748193951E+03  0.00000000000E+00 0. -1.
          4    1    6    6  503    0  0.38548606501E+03 -0.19677098742E+03  0.24726345845E+03  0.49845515916E+03  0.00000000000E+00 0. -1.
         -4    1    6    6    0  503 -0.50541013212E+01 -0.57082105805E+00  0.15717054902E+01  0.53235359483E+01  0.00000000000E+00 0.  1.
<mgrwt>
<rscale>  0 0.16400819E+04</rscale>
<asrwt>0</asrwt>
<pdfrwt beam="1">  1        2 0.14603881E+00 0.16400819E+04</pdfrwt>
<pdfrwt beam="2">  1       -1 0.10898735E+00 0.16400819E+04</pdfrwt>
<totfact> 0.23134395E+01</totfact>
</mgrwt>
</event>
<event>
12    6  0.1462228E-007  0.1692794E+04  0.7818608E-02  0.8765485E-01
          2   -1    0    0  501    0  0.00000000000E+00  0.00000000000E+00  0.16118290202E+04  0.16118290202E+04  0.00000000000E+00 0. -1.
         -1   -1    0    0    0  501 -0.00000000000E+00 -0.00000000000E+00 -0.44445644522E+03  0.44445644522E+03  0.00000000000E+00 0.  1.
         24    2    1    2    0    0 -0.41951071508E+02  0.10288161507E+03  0.11461410984E+04  0.11543466636E+04  0.80822541243E+02 0.  0.
        254    2    1    2    0    0  0.41951071508E+02 -0.10288161507E+03  0.21231476544E+02  0.90193880179E+03  0.89481747159E+03 0.  0.
         23    2    4    4    0    0  0.41396780604E+03 -0.23264945444E+03 -0.63250373166E+02  0.48782150884E+03  0.92054884155E+02 0.  0.
         23    2    4    4    0    0 -0.37201673453E+03  0.12976783936E+03  0.84481849710E+02  0.41411729295E+03  0.95497677920E+02 0.  0.
          4    1    3    3  502    0 -0.51375334529E+02  0.53990253055E+02  0.90814149070E+03  0.91119445759E+03  0.00000000000E+00 0. -1.
         -3    1    3    3    0  502  0.94242630210E+01  0.48891362017E+02  0.23799960775E+03  0.24315220604E+03  0.00000000000E+00 0.  1.
         11    1    5    5    0    0  0.39449848674E+03 -0.22739748806E+03 -0.79111457245E+02  0.46216587529E+03  0.00000000000E+00 0. -1.
        -11    1    5    5    0    0  0.19469319302E+02 -0.52519663799E+01  0.15861084079E+02  0.25655633555E+02  0.00000000000E+00 0.  1.
          4    1    6    6  503    0 -0.22086678370E+03  0.29382620645E+02  0.31052678236E+02  0.22496609381E+03  0.00000000000E+00 0. -1.
         -4    1    6    6    0  503 -0.15114995083E+03  0.10038521872E+03  0.53429171474E+02  0.18915119914E+03  0.00000000000E+00 0.  1.
<mgrwt>
<rscale>  0 0.16927939E+04</rscale>
<asrwt>0</asrwt>
<pdfrwt beam="1">  1        2 0.24797369E+00 0.16927939E+04</pdfrwt>
<pdfrwt beam="2">  1       -1 0.68377915E-01 0.16927939E+04</pdfrwt>
<totfact> 0.25790544E+01</totfact>
</mgrwt>
</event>
<event>
12    6  0.1462228E-007  0.1652848E+04  0.7818608E-02  0.8788723E-01
         -1   -1    0    0    0  501 -0.00000000000E+00  0.00000000000E+00  0.58386522728E+03  0.58386522728E+03  0.00000000000E+00 0.  1.
          2   -1    0    0  501    0  0.00000000000E+00 -0.00000000000E+00 -0.11697503636E+04  0.11697503636E+04  0.00000000000E+00 0. -1.
         24    2    1    2    0    0 -0.27501522238E+03 -0.48326908686E+03 -0.38682197372E+01  0.56233363542E+03  0.83796011477E+02 0.  0.
        254    2    1    2    0    0  0.27501522238E+03  0.48326908686E+03 -0.58201691660E+03  0.11912819555E+04  0.87819509415E+03 0.  0.
         23    2    4    4    0    0  0.51407445786E+03  0.41112803306E+03 -0.63682836802E+03  0.92035031071E+03  0.90529090972E+02 0.  0.
         23    2    4    4    0    0 -0.23905923548E+03  0.72141053798E+02  0.54811451418E+02  0.27093164477E+03  0.89699560870E+02 0.  0.
          2    1    3    3  502    0 -0.10628980196E+03 -0.24647199312E+03 -0.31538857164E+02  0.27026036503E+03  0.00000000000E+00 0. -1.
         -1    1    3    3    0  502 -0.16872542042E+03 -0.23679709375E+03  0.27670637427E+02  0.29207327039E+03  0.00000000000E+00 0.  1.
         11    1    5    5    0    0  0.30002727086E+03  0.20953896143E+03 -0.29970797567E+03  0.47301988362E+03  0.00000000000E+00 0. -1.
        -11    1    5    5    0    0  0.21404718701E+03  0.20158907164E+03 -0.33712039235E+03  0.44733042710E+03  0.00000000000E+00 0.  1.
          3    1    6    6  503    0 -0.12646608837E+03 -0.55284334622E+01  0.99420470002E+01  0.12697668834E+03  0.00000000000E+00 0. -1.
         -3    1    6    6    0  503 -0.11259314711E+03  0.77669487260E+02  0.44869404418E+02  0.14395495643E+03  0.00000000000E+00 0.  1.
<mgrwt>
<rscale>  0 0.16528479E+04</rscale>
<asrwt>0</asrwt>
<pdfrwt beam="1">  1        2 0.17996160E+00 0.16528479E+04</pdfrwt>
<pdfrwt beam="2">  1       -1 0.89825419E-01 0.16528479E+04</pdfrwt>
<totfact> 0.26098957E+01</totfact>
</mgrwt>
</event>
<event>
12    6  0.1462228E-007  0.2320298E+04  0.7818608E-02  0.8469961E-01
         -1   -1    0    0    0  501 -0.00000000000E+00  0.00000000000E+00  0.22251123931E+04  0.22251123931E+04  0.00000000000E+00 0.  1.
          2   -1    0    0  501    0  0.00000000000E+00 -0.00000000000E+00 -0.60488903837E+03  0.60488903837E+03  0.00000000000E+00 0. -1.
         24    2    1    2    0    0 -0.26421107060E+02  0.29098593771E+02  0.18792050903E+04  0.18812967414E+04  0.79503804007E+02 0.  0.
        254    2    1    2    0    0  0.26421107060E+02 -0.29098593771E+02 -0.25898173553E+03  0.94870469007E+03  0.91182467973E+03 0.  0.
         23    2    4    4    0    0 -0.15477305760E+03  0.11699832446E+02  0.30128093279E+03  0.35132803899E+03  0.92572161463E+02 0.  0.
         23    2    4    4    0    0  0.18119416466E+03 -0.40798426217E+02 -0.56026266832E+03  0.59737665109E+03  0.92025914087E+02 0.  0.
          4    1    3    3  502    0  0.27057704900E+02  0.33619469017E+00  0.46253578937E+03  0.46332665460E+03  0.00000000000E+00 0. -1.
         -3    1    3    3    0  502 -0.53478811960E+02  0.28762399081E+02  0.14166693009E+04  0.14179700868E+04  0.00000000000E+00 0.  1.
         11    1    5    5    0    0 -0.56900924259E+02 -0.25917577992E+02  0.53555530702E+02  0.82326368189E+02  0.00000000000E+00 0.  1.
        -11    1    5    5    0    0 -0.97872133344E+02  0.37617410438E+02  0.24772540209E+03  0.26900167080E+03  0.00000000000E+00 0. -1.
          3    1    6    6  503    0  0.10819824077E+03 -0.18844362958E+02 -0.45081784944E+03  0.46400291238E+03  0.00000000000E+00 0. -1.
         -3    1    6    6    0  503  0.72995923887E+02 -0.21954063259E+02 -0.10944481888E+03  0.13337373871E+03  0.00000000000E+00 0.  1.
<mgrwt>
<rscale>  0 0.23202983E+04</rscale>
<asrwt>0</asrwt>
<pdfrwt beam="1">  1        2 0.93059853E-01 0.23202983E+04</pdfrwt>
<pdfrwt beam="2">  1       -1 0.34232498E+00 0.23202983E+04</pdfrwt>
<totfact> 0.88659585E-01</totfact>
</mgrwt>
</event>
<event>
12    6  0.1462228E-007  0.1457877E+04  0.7818608E-02  0.8912958E-01
          2   -1    0    0  501    0  0.00000000000E+00  0.00000000000E+00  0.84576480196E+03  0.84576480196E+03  0.00000000000E+00 0. -1.
         -1   -1    0    0    0  501 -0.00000000000E+00 -0.00000000000E+00 -0.62824928555E+03  0.62824928555E+03  0.00000000000E+00 0.  1.
         24    2    1    2    0    0 -0.32875432885E+03 -0.20891149843E+03  0.36822425020E+03  0.54193004711E+03  0.79847696336E+02 0.  0.
        254    2    1    2    0    0  0.32875432885E+03  0.20891149843E+03 -0.15070873379E+03  0.93208404041E+03  0.83327313231E+03 0.  0.
         23    2    4    4    0    0 -0.13680751194E+03  0.24816216119E+03 -0.30900470720E+03  0.43010031075E+03  0.95925047133E+02 0.  0.
         23    2    4    4    0    0  0.46556184079E+03 -0.39250662765E+02  0.15829597341E+03  0.50198372965E+03  0.92960246947E+02 0.  0.
          4    1    3    3  502    0 -0.28981201609E+03 -0.16310317534E+03  0.33969648726E+03  0.47538127217E+03  0.00000000000E+00 0. -1.
         -3    1    3    3    0  502 -0.38942312763E+02 -0.45808323084E+02  0.28527762941E+02  0.66548774936E+02  0.00000000000E+00 0.  1.
         11    1    5    5    0    0 -0.13257025690E+03  0.21054293623E+03 -0.21525404824E+03  0.32899469037E+03  0.00000000000E+00 0. -1.
        -11    1    5    5    0    0 -0.42372550400E+01  0.37619224963E+02 -0.93750658957E+02  0.10110562038E+03  0.00000000000E+00 0.  1.
          4    1    6    6  503    0  0.38583178635E+03 -0.63636442885E+02  0.14738341817E+03  0.41789668122E+03  0.00000000000E+00 0. -1.
         -4    1    6    6    0  503  0.79730054438E+02  0.24385780120E+02  0.10912555243E+02  0.84087048436E+02  0.00000000000E+00 0.  1.
<mgrwt>
<rscale>  0 0.14578767E+04</rscale>
<asrwt>0</asrwt>
<pdfrwt beam="1">  1        2 0.13011766E+00 0.14578767E+04</pdfrwt>
<pdfrwt beam="2">  1       -1 0.96653735E-01 0.14578767E+04</pdfrwt>
<totfact> 0.36425057E+01</totfact>
</mgrwt>
</event>
<event>
12    6  0.1462228E-007  0.3286890E+04  0.7818608E-02  0.8166239E-01
         -1   -1    0    0    0  501 -0.00000000000E+00  0.00000000000E+00  0.13660875281E+04  0.13660875281E+04  0.00000000000E+00 0.  1.
          2   -1    0    0  501    0  0.00000000000E+00 -0.00000000000E+00 -0.19771143919E+04  0.19771143919E+04  0.00000000000E+00 0. -1.
         24    2    1    2    0    0  0.76207055098E+03  0.76874224685E+03  0.80676379810E+03  0.13524157016E+04  0.80276006924E+02 0.  0.
        254    2    1    2    0    0 -0.76207055098E+03 -0.76874224685E+03 -0.14177906619E+04  0.19907862184E+04  0.88395884511E+03 0.  0.
         23    2    4    4    0    0 -0.91037971275E+03 -0.48302802217E+03 -0.88466792421E+03  0.13613145370E+04  0.91829412639E+02 0.  0.
         23    2    4    4    0    0  0.14830916176E+03 -0.28571422468E+03 -0.53312273765E+03  0.62947168140E+03  0.91577937487E+02 0.  0.
          4    1    3    3  502    0  0.28929406315E+03  0.28917710272E+03  0.25694792446E+03  0.48304936352E+03  0.00000000000E+00 0. -1.
         -3    1    3    3    0  502  0.47277648783E+03  0.47956514413E+03  0.54981587364E+03  0.86936633810E+03  0.00000000000E+00 0.  1.
         11    1    5    5    0    0 -0.19842016160E+03 -0.14873382333E+03 -0.20202041613E+03  0.31985083909E+03  0.00000000000E+00 0.  1.
        -11    1    5    5    0    0 -0.71195955115E+03 -0.33429419884E+03 -0.68264750808E+03  0.10414636979E+04  0.00000000000E+00 0. -1.
          4    1    6    6  503    0  0.94843410409E+02 -0.23772044246E+03 -0.35707653052E+03  0.43932895410E+03  0.00000000000E+00 0. -1.
         -4    1    6    6    0  503  0.53465751352E+02 -0.47993782219E+02 -0.17604620713E+03  0.19014272730E+03  0.00000000000E+00 0.  1.
<mgrwt>
<rscale>  0 0.32868899E+04</rscale>
<asrwt>0</asrwt>
<pdfrwt beam="1">  1        2 0.30417145E+00 0.32868899E+04</pdfrwt>
<pdfrwt beam="2">  1       -1 0.21016731E+00 0.32868899E+04</pdfrwt>
<totfact> 0.83903562E-01</totfact>
</mgrwt>
</event>
<event>
12    6  0.1462228E-007  0.3252872E+04  0.7818608E-02  0.8174992E-01
         -1   -1    0    0    0  501 -0.00000000000E+00  0.00000000000E+00  0.78928149878E+03  0.78928149878E+03  0.00000000000E+00 0.  1.
          2   -1    0    0  501    0  0.00000000000E+00 -0.00000000000E+00 -0.33515225817E+04  0.33515225817E+04  0.00000000000E+00 0. -1.
         24    2    1    2    0    0  0.65919529319E+03  0.16624720561E+03 -0.28775507855E+04  0.29578724299E+04  0.80834523554E+02 0.  0.
        254    2    1    2    0    0 -0.65919529319E+03 -0.16624720561E+03  0.31530970263E+03  0.11829316506E+04  0.91527619517E+03 0.  0.
         23    2    4    4    0    0 -0.18658669904E+03 -0.36212342506E+03  0.48147862318E+03  0.63715710667E+03  0.90551326709E+02 0.  0.
         23    2    4    4    0    0 -0.47260859415E+03  0.19587621945E+03 -0.16616892054E+03  0.54577454391E+03  0.92365394049E+02 0.  0.
          2    1    3    3  502    0  0.12225178102E+03  0.31813598978E+02 -0.68367191490E+03  0.69524448237E+03  0.00000000000E+00 0. -1.
         -1    1    3    3    0  502  0.53694351217E+03  0.13443360663E+03 -0.21938788706E+04  0.22626279475E+04  0.00000000000E+00 0.  1.
         11    1    5    5    0    0 -0.54144346761E+02 -0.16568515965E+03  0.15154965392E+03  0.23097722835E+03  0.00000000000E+00 0.  1.
        -11    1    5    5    0    0 -0.13244235227E+03 -0.19643826541E+03  0.32992896926E+03  0.40617987832E+03  0.00000000000E+00 0. -1.
          3    1    6    6  503    0 -0.42511445809E+03  0.20030226969E+03 -0.16498611435E+03  0.49805995588E+03  0.00000000000E+00 0. -1.
         -3    1    6    6    0  503 -0.47494136057E+02 -0.44260502406E+01 -0.11828061906E+01  0.47714588032E+02  0.00000000000E+00 0.  1.
<mgrwt>
<rscale>  0 0.32528724E+04</rscale>
<asrwt>0</asrwt>
<pdfrwt beam="1">  1        2 0.51561885E+00 0.32528724E+04</pdfrwt>
<pdfrwt beam="2">  1       -1 0.12142792E+00 0.32528724E+04</pdfrwt>
<totfact> 0.58816266E-01</totfact>
</mgrwt>
</event>
<event>
12    6  0.1462228E-007  0.1489356E+04  0.7818608E-02  0.8891562E-01
          2   -1    0    0  501    0  0.00000000000E+00  0.00000000000E+00  0.77118955345E+03  0.77118955345E+03  0.00000000000E+00 0. -1.
         -1   -1    0    0    0  501 -0.00000000000E+00 -0.00000000000E+00 -0.71907773879E+03  0.71907773879E+03  0.00000000000E+00 0.  1.
         24    2    1    2    0    0 -0.15704562653E+02 -0.41690001258E+03 -0.11681401341E+03  0.44061665073E+03  0.80282410233E+02 0.  0.
        254    2    1    2    0    0  0.15704562653E+02  0.41690001258E+03  0.16892582807E+03  0.10496506415E+04  0.94825011472E+03 0.  0.
         23    2    4    4    0    0  0.41357125255E+03  0.78977368927E+01  0.20333301427E+03  0.47037870606E+03  0.93852316091E+02 0.  0.
         23    2    4    4    0    0 -0.39786668989E+03  0.40900227568E+03 -0.34407186198E+02  0.57927193546E+03  0.93762232837E+02 0.  0.
          4    1    3    3  502    0 -0.21981802749E+02 -0.39856207030E+02  0.10559147773E+01  0.45528363104E+02  0.00000000000E+00 0. -1.
         -3    1    3    3    0  502  0.62772400965E+01 -0.37704380555E+03 -0.11786992819E+03  0.39508828762E+03  0.00000000000E+00 0.  1.
         11    1    5    5    0    0  0.38511385765E+03  0.32492132265E+02  0.18762305054E+03  0.42961707497E+03  0.00000000000E+00 0. -1.
        -11    1    5    5    0    0  0.28457394893E+02 -0.24594395373E+02  0.15709963735E+02  0.40761631081E+02  0.00000000000E+00 0.  1.
          4    1    6    6  503    0 -0.18614501872E+03  0.20870018714E+03  0.28507370542E+02  0.28110212785E+03  0.00000000000E+00 0. -1.
         -4    1    6    6    0  503 -0.21172167117E+03  0.20030208854E+03 -0.62914556740E+02  0.29816980761E+03  0.00000000000E+00 0.  1.
<mgrwt>
<rscale>  0 0.14893559E+04</rscale>
<asrwt>0</asrwt>
<pdfrwt beam="1">  1        2 0.11864455E+00 0.14893559E+04</pdfrwt>
<pdfrwt beam="2">  1       -1 0.11062734E+00 0.14893559E+04</pdfrwt>
<totfact> 0.30071888E+01</totfact>
</mgrwt>
</event>
<event>
12    6  0.1462228E-007  0.2034244E+04  0.7818608E-02  0.8590776E-01
          2   -1    0    0  501    0  0.00000000000E+00  0.00000000000E+00  0.14517357654E+04  0.14517357654E+04  0.00000000000E+00 0. -1.
         -1   -1    0    0    0  501 -0.00000000000E+00 -0.00000000000E+00 -0.71262075567E+03  0.71262075567E+03  0.00000000000E+00 0.  1.
         24    2    1    2    0    0  0.18379158696E+03  0.18866418215E+03  0.10232763359E+04  0.10596635479E+04  0.80117751164E+02 0.  0.
        254    2    1    2    0    0 -0.18379158696E+03 -0.18866418215E+03 -0.28416132621E+03  0.11046929731E+04  0.10345169813E+04 0.  0.
         23    2    4    4    0    0  0.30133065790E+03 -0.41442230020E+03 -0.19576737331E+03  0.55485844645E+03  0.83648208895E+02 0.  0.
         23    2    4    4    0    0 -0.48512224486E+03  0.22575811805E+03 -0.88393952899E+02  0.54983452669E+03  0.90521795807E+02 0.  0.
          2    1    3    3  502    0  0.52831324550E+02  0.58071034037E+02  0.46416013044E+03  0.47075261076E+03  0.00000000000E+00 0. -1.
         -1    1    3    3    0  502  0.13096026241E+03  0.13059314811E+03  0.55911620551E+03  0.58891093717E+03  0.00000000000E+00 0.  1.
         11    1    5    5    0    0  0.10814462251E+03 -0.16061281257E+03 -0.31824190460E+02  0.19622567120E+03  0.00000000000E+00 0. -1.
        -11    1    5    5    0    0  0.19318603539E+03 -0.25380948763E+03 -0.16394318285E+03  0.35863277525E+03  0.00000000000E+00 0.  1.
          1    1    6    6  503    0 -0.38660184934E+03  0.17910448367E+03 -0.10686667890E+03  0.43927200348E+03  0.00000000000E+00 0. -1.
         -1    1    6    6    0  503 -0.98520395519E+02  0.46653634374E+02  0.18472725997E+02  0.11056252321E+03  0.00000000000E+00 0.  1.
<mgrwt>
<rscale>  0 0.20342439E+04</rscale>
<asrwt>0</asrwt>
<pdfrwt beam="1">  1        2 0.22334396E+00 0.20342439E+04</pdfrwt>
<pdfrwt beam="2">  1       -1 0.10963396E+00 0.20342439E+04</pdfrwt>
<totfact> 0.10979072E+01</totfact>
</mgrwt>
</event>
<event>
12    6  0.1462228E-007  0.1492092E+04  0.7818608E-02  0.8889729E-01
         -1   -1    0    0    0  501 -0.00000000000E+00  0.00000000000E+00  0.43175112103E+03  0.43175112103E+03  0.00000000000E+00 0.  1.
          2   -1    0    0  501    0  0.00000000000E+00 -0.00000000000E+00 -0.12891321959E+04  0.12891321959E+04  0.00000000000E+00 0. -1.
         24    2    1    2    0    0 -0.10199866498E+03 -0.45858932018E+03 -0.38345723560E+03  0.61160369126E+03  0.79446405736E+02 0.  0.
        254    2    1    2    0    0  0.10199866498E+03  0.45858932018E+03 -0.47392383925E+03  0.11092796257E+04  0.88610924283E+03 0.  0.
         23    2    4    4    0    0  0.42375883512E+03  0.15827853301E+03 -0.47037588256E+03  0.65886446317E+03  0.90693249899E+02 0.  0.
         23    2    4    4    0    0 -0.32176017014E+03  0.30031078717E+03 -0.35479566940E+01  0.45041516248E+03  0.95629778920E+02 0.  0.
          4    1    3    3  502    0 -0.46882114421E+02 -0.29774029793E+03 -0.28662364000E+03  0.41593308196E+03  0.00000000000E+00 0. -1.
         -3    1    3    3    0  502 -0.55116550562E+02 -0.16084902226E+03 -0.96833595600E+02  0.19567060930E+03  0.00000000000E+00 0.  1.
         11    1    5    5    0    0  0.36053392606E+03  0.11543500003E+03 -0.34571466459E+03  0.51266809963E+03  0.00000000000E+00 0. -1.
        -11    1    5    5    0    0  0.63224909063E+02  0.42843532985E+02 -0.12466121798E+03  0.14619636354E+03  0.00000000000E+00 0.  1.
          3    1    6    6  503    0 -0.24343425777E+03  0.26302907556E+03  0.24551450781E+02  0.35923154954E+03  0.00000000000E+00 0. -1.
         -3    1    6    6    0  503 -0.78325912369E+02  0.37281711608E+02 -0.28099407475E+02  0.91183612943E+02  0.00000000000E+00 0.  1.
<mgrwt>
<rscale>  0 0.14920915E+04</rscale>
<asrwt>0</asrwt>
<pdfrwt beam="1">  1        2 0.19832803E+00 0.14920915E+04</pdfrwt>
<pdfrwt beam="2">  1       -1 0.66423250E-01 0.14920915E+04</pdfrwt>
<totfact> 0.42461559E+01</totfact>
</mgrwt>
</event>
<event>
12    6  0.1462228E-007  0.1821975E+04  0.7818608E-02  0.8694700E-01
         -1   -1    0    0    0  501 -0.00000000000E+00  0.00000000000E+00  0.89679026443E+03  0.89679026443E+03  0.00000000000E+00 0.  1.
          2   -1    0    0  501    0  0.00000000000E+00 -0.00000000000E+00 -0.92540919284E+03  0.92540919284E+03  0.00000000000E+00 0. -1.
         24    2    1    2    0    0 -0.51582597076E+03  0.73840743148E+02  0.44749336096E+03  0.69129020901E+03  0.78121428030E+02 0.  0.
        254    2    1    2    0    0  0.51582597076E+03 -0.73840743148E+02 -0.47611228936E+03  0.11309092483E+04  0.88359715270E+03 0.  0.
         23    2    4    4    0    0  0.52955858902E+03 -0.33727745942E+03 -0.72066071531E+02  0.64002936983E+03  0.10127038926E+03 0.  0.
         23    2    4    4    0    0 -0.13732618258E+02  0.26343671627E+03 -0.40404621783E+03  0.49087987843E+03  0.90123363352E+02 0.  0.
          4    1    3    3  502    0 -0.39410049242E+03  0.69148927938E+02  0.38103194971E+03  0.55252341042E+03  0.00000000000E+00 0. -1.
         -3    1    3    3    0  502 -0.12172547834E+03  0.46918152102E+01  0.66461411244E+02  0.13876679859E+03  0.00000000000E+00 0.  1.
         11    1    5    5    0    0  0.42261668914E+03 -0.29751936979E+03 -0.89749793686E+02  0.52457379539E+03  0.00000000000E+00 0.  1.
        -11    1    5    5    0    0  0.10694189988E+03 -0.39758089636E+02  0.17683722154E+02  0.11545557444E+03  0.00000000000E+00 0. -1.
          2    1    6    6  503    0 -0.71827957324E+01  0.29477836471E+01  0.23587448550E+01  0.81145338902E+01  0.00000000000E+00 0. -1.
         -2    1    6    6    0  503 -0.65498225257E+01  0.26048893263E+03 -0.40640496269E+03  0.48276534454E+03  0.00000000000E+00 0.  1.
<mgrwt>
<rscale>  0 0.18219747E+04</rscale>
<asrwt>0</asrwt>
<pdfrwt beam="1">  1        2 0.14237065E+00 0.18219747E+04</pdfrwt>
<pdfrwt beam="2">  1       -1 0.13796773E+00 0.18219747E+04</pdfrwt>
<totfact> 0.13202339E+01</totfact>
</mgrwt>
</event>
<event>
12    6  0.1462228E-007  0.2480801E+04  0.7818608E-02  0.8409857E-01
         -1   -1    0    0    0  501 -0.00000000000E+00  0.00000000000E+00  0.52800760037E+03  0.52800760037E+03  0.00000000000E+00 0.  1.
          2   -1    0    0  501    0  0.00000000000E+00 -0.00000000000E+00 -0.29139603703E+04  0.29139603703E+04  0.00000000000E+00 0. -1.
         24    2    1    2    0    0 -0.40953157299E+03  0.73450248124E+03 -0.10787529405E+03  0.85176915106E+03  0.81630897395E+02 0.  0.
        254    2    1    2    0    0  0.40953157299E+03 -0.73450248124E+03 -0.22780774759E+04  0.25901988196E+04  0.90126740469E+03 0.  0.
         23    2    4    4    0    0  0.26801528771E+03 -0.47485189290E+02 -0.15459316479E+04  0.15723190029E+04  0.90528169386E+02 0.  0.
         23    2    4    4    0    0  0.14151628527E+03 -0.68701729195E+03 -0.73214582802E+03  0.10178798167E+04  0.89566675029E+02 0.  0.
          2    1    3    3  502    0 -0.93995331679E+02  0.19686895224E+03  0.51484578581E+01  0.21821781172E+03  0.00000000000E+00 0. -1.
         -1    1    3    3    0  502 -0.31553624131E+03  0.53763352900E+03 -0.11302375191E+03  0.63355133934E+03  0.00000000000E+00 0.  1.
         11    1    5    5    0    0  0.97564490568E+02  0.95400763988E+01 -0.37163253063E+03  0.38434435172E+03  0.00000000000E+00 0. -1.
        -11    1    5    5    0    0  0.17045079715E+03 -0.57025265689E+02 -0.11742991172E+04  0.11879746512E+04  0.00000000000E+00 0.  1.
          3    1    6    6  503    0  0.18433478399E+02 -0.43756495015E+02 -0.83776679127E+02  0.96296188644E+02  0.00000000000E+00 0. -1.
         -3    1    6    6    0  503  0.12308280687E+03 -0.64326079694E+03 -0.64836914889E+03  0.92158362803E+03  0.00000000000E+00 0.  1.
<mgrwt>
<rscale>  0 0.24808009E+04</rscale>
<asrwt>0</asrwt>
<pdfrwt beam="1">  1        2 0.44830158E+00 0.24808009E+04</pdfrwt>
<pdfrwt beam="2">  1       -1 0.81231941E-01 0.24808009E+04</pdfrwt>
<totfact> 0.30213347E+00</totfact>
</mgrwt>
</event>
<event>
12    6  0.1462228E-007  0.1347662E+04  0.7818608E-02  0.8992600E-01
         -1   -1    0    0    0  501 -0.00000000000E+00  0.00000000000E+00  0.37932190374E+03  0.37932190374E+03  0.00000000000E+00 0.  1.
          2   -1    0    0  501    0  0.00000000000E+00 -0.00000000000E+00 -0.11970001509E+04  0.11970001509E+04  0.00000000000E+00 0. -1.
         24    2    1    2    0    0 -0.10204576317E+02  0.36422040233E+03 -0.50741473872E+03  0.62976100131E+03  0.79803301042E+02 0.  0.
        254    2    1    2    0    0  0.10204576317E+02 -0.36422040233E+03 -0.31026350845E+03  0.94656105333E+03  0.81667236279E+03 0.  0.
         23    2    4    4    0    0  0.17897856988E+03  0.11386897029E+03 -0.36130798084E+03  0.42896762649E+03  0.92034214770E+02 0.  0.
         23    2    4    4    0    0 -0.16877399356E+03 -0.47808937262E+03  0.51044472385E+02  0.51759342684E+03  0.90792666192E+02 0.  0.
          4    1    3    3  502    0 -0.83768920478E+01  0.36465914201E+03 -0.48291213826E+03  0.60518641380E+03  0.00000000000E+00 0. -1.
         -3    1    3    3    0  502 -0.18276842695E+01 -0.43873967648E+00 -0.24502600459E+02  0.24574587516E+02  0.00000000000E+00 0.  1.
         11    1    5    5    0    0  0.22082221786E+02 -0.41892821766E+01 -0.97793188797E+02  0.10034282425E+03  0.00000000000E+00 0.  1.
        -11    1    5    5    0    0  0.15689634809E+03  0.11805825246E+03 -0.26351479204E+03  0.32862480223E+03  0.00000000000E+00 0. -1.
          2    1    6    6  503    0 -0.17004692449E+03 -0.47002677408E+03  0.36822552146E+02  0.50119559578E+03  0.00000000000E+00 0. -1.
         -2    1    6    6    0  503  0.12729309230E+01 -0.80625985382E+01  0.14221920240E+02  0.16397831065E+02  0.00000000000E+00 0.  1.
<mgrwt>
<rscale>  0 0.13476622E+04</rscale>
<asrwt>0</asrwt>
<pdfrwt beam="1">  1        2 0.18415387E+00 0.13476622E+04</pdfrwt>
<pdfrwt beam="2">  1       -1 0.58357215E-01 0.13476622E+04</pdfrwt>
<totfact> 0.63030610E+01</totfact>
</mgrwt>
</event>
<event>
12    6  0.1462228E-007  0.2122205E+04  0.7818608E-02  0.8551524E-01
          2   -1    0    0  501    0  0.00000000000E+00  0.00000000000E+00  0.23704237225E+04  0.23704237225E+04  0.00000000000E+00 0. -1.
         -1   -1    0    0    0  501 -0.00000000000E+00 -0.00000000000E+00 -0.47499469979E+03  0.47499469979E+03  0.00000000000E+00 0.  1.
         24    2    1    2    0    0 -0.49062890847E+03 -0.10252291953E+03 -0.17043727368E+03  0.53537761665E+03  0.79703533765E+02 0.  0.
        254    2    1    2    0    0  0.49062890847E+03  0.10252291953E+03  0.20658662964E+04  0.23100408057E+04  0.90402283949E+03 0.  0.
         23    2    4    4    0    0  0.51987868290E+03 -0.90605032986E+01  0.47027536660E+03  0.70769524339E+03  0.96528231265E+02 0.  0.
         23    2    4    4    0    0 -0.29249774427E+02  0.11158342283E+03  0.15955909298E+04  0.16023455623E+04  0.91074014331E+02 0.  0.
          2    1    3    3  502    0 -0.22176407482E+02 -0.13436633224E+02  0.65493426143E+01  0.26743785257E+02  0.00000000000E+00 0. -1.
         -1    1    3    3    0  502 -0.46845250099E+03 -0.89086286310E+02 -0.17698661629E+03  0.50863383139E+03  0.00000000000E+00 0.  1.
         11    1    5    5    0    0  0.44731829401E+03 -0.39160729806E+02  0.38207150808E+03  0.58958108535E+03  0.00000000000E+00 0.  1.
        -11    1    5    5    0    0  0.72560388889E+02  0.30100226508E+02  0.88203858520E+02  0.11811415804E+03  0.00000000000E+00 0. -1.
          4    1    6    6  503    0  0.40042484828E+01  0.48479966537E+02  0.24005154813E+03  0.24493077986E+03  0.00000000000E+00 0. -1.
         -4    1    6    6    0  503 -0.33254022910E+02  0.63103456296E+02  0.13555393817E+04  0.13574147824E+04  0.00000000000E+00 0.  1.
<mgrwt>
<rscale>  0 0.21222052E+04</rscale>
<asrwt>0</asrwt>
<pdfrwt beam="1">  1        2 0.36468057E+00 0.21222052E+04</pdfrwt>
<pdfrwt beam="2">  1       -1 0.73076109E-01 0.21222052E+04</pdfrwt>
<totfact> 0.81695948E+00</totfact>
</mgrwt>
</event>
<event>
12    6  0.1462228E-007  0.2687489E+04  0.7818608E-02  0.8339076E-01
          2   -1    0    0  501    0  0.00000000000E+00  0.00000000000E+00  0.19944925398E+04  0.19944925398E+04  0.00000000000E+00 0. -1.
         -1   -1    0    0    0  501 -0.00000000000E+00 -0.00000000000E+00 -0.90531794252E+03  0.90531794252E+03  0.00000000000E+00 0.  1.
         24    2    1    2    0    0  0.76137332046E+02 -0.87432608980E+03 -0.38474641628E+03  0.96156793643E+03  0.79624662591E+02 0.  0.
        254    2    1    2    0    0 -0.76137332046E+02  0.87432608980E+03  0.14739210135E+04  0.19382425459E+04  0.90227379870E+03 0.  0.
         23    2    4    4    0    0  0.27685801445E+03  0.22962377226E+03  0.97931222123E+03  0.10476263583E+04  0.95347380911E+02 0.  0.
         23    2    4    4    0    0 -0.35299534650E+03  0.64470231754E+03  0.49460879229E+03  0.89061618753E+03  0.91173149531E+02 0.  0.
          4    1    3    3  502    0  0.30331534659E+02 -0.58551324242E+03 -0.29058579362E+03  0.65435912349E+03  0.00000000000E+00 0. -1.
         -3    1    3    3    0  502  0.45805797388E+02 -0.28881284738E+03 -0.94160622653E+02  0.30720881293E+03  0.00000000000E+00 0.  1.
         11    1    5    5    0    0  0.18175830223E+03  0.20460524737E+03  0.73106249071E+03  0.78060985967E+03  0.00000000000E+00 0.  1.
        -11    1    5    5    0    0  0.95099712223E+02  0.25018524892E+02  0.24824973052E+03  0.26701649865E+03  0.00000000000E+00 0. -1.
          2    1    6    6  503    0 -0.17996063438E+03  0.23605024902E+03  0.20308809725E+03  0.35965306231E+03  0.00000000000E+00 0.  1.
         -2    1    6    6    0  503 -0.17303471212E+03  0.40865206852E+03  0.29152069505E+03  0.53096312522E+03  0.00000000000E+00 0. -1.
<mgrwt>
<rscale>  0 0.26874894E+04</rscale>
<asrwt>0</asrwt>
<pdfrwt beam="1">  1        2 0.30684501E+00 0.26874894E+04</pdfrwt>
<pdfrwt beam="2">  1       -1 0.13927968E+00 0.26874894E+04</pdfrwt>
<totfact> 0.28561147E+00</totfact>
</mgrwt>
</event>
<event>
12    6  0.1462228E-007  0.1790996E+04  0.7818608E-02  0.8711102E-01
          2   -1    0    0  501    0  0.00000000000E+00  0.00000000000E+00  0.83279426835E+03  0.83279426835E+03  0.00000000000E+00 0. -1.
         -1   -1    0    0    0  501 -0.00000000000E+00 -0.00000000000E+00 -0.96292334305E+03  0.96292334305E+03  0.00000000000E+00 0.  1.
         24    2    1    2    0    0  0.21939792782E+03 -0.56338156397E+03 -0.33683918381E+03  0.69664381639E+03  0.79484173357E+02 0.  0.
        254    2    1    2    0    0 -0.21939792782E+03  0.56338156397E+03  0.20671010910E+03  0.10990737950E+04  0.89425941443E+03 0.  0.
         23    2    4    4    0    0 -0.31704849837E+03  0.64013929504E+03  0.42173450507E+03  0.83444241496E+03  0.90200242459E+02 0.  0.
         23    2    4    4    0    0  0.97650570553E+02 -0.76757731065E+02 -0.21502439597E+03  0.26463138005E+03  0.91470723393E+02 0.  0.
          4    1    3    3  502    0  0.30709768410E+02 -0.15345687526E+03 -0.62415382398E+02  0.16848674250E+03  0.00000000000E+00 0. -1.
         -3    1    3    3    0  502  0.18868815941E+03 -0.40992468872E+03 -0.27442380141E+03  0.52815707389E+03  0.00000000000E+00 0.  1.
         11    1    5    5    0    0  0.18876935430E+01  0.96911200800E+01 -0.26896577903E+01  0.10233056940E+02  0.00000000000E+00 0. -1.
        -11    1    5    5    0    0 -0.31893619191E+03  0.63044817496E+03  0.42442416286E+03  0.82420935801E+03  0.00000000000E+00 0.  1.
          3    1    6    6  503    0 -0.17840833643E+02 -0.83444261726E+01 -0.22103021567E+02  0.29605208251E+02  0.00000000000E+00 0. -1.
         -3    1    6    6    0  503  0.11549140420E+03 -0.68413304892E+02 -0.19292137440E+03  0.23502617180E+03  0.00000000000E+00 0.  1.
<mgrwt>
<rscale>  0 0.17909964E+04</rscale>
<asrwt>0</asrwt>
<pdfrwt beam="1">  1        2 0.12812220E+00 0.17909964E+04</pdfrwt>
<pdfrwt beam="2">  1       -1 0.14814205E+00 0.17909964E+04</pdfrwt>
<totfact> 0.12698200E+01</totfact>
</mgrwt>
</event>
<event>
12    6  0.1462228E-007  0.1284139E+04  0.7818608E-02  0.9042238E-01
         -1   -1    0    0    0  501 -0.00000000000E+00  0.00000000000E+00  0.36739372642E+03  0.36739372642E+03  0.00000000000E+00 0.  1.
          2   -1    0    0  501    0  0.00000000000E+00 -0.00000000000E+00 -0.11221021102E+04  0.11221021102E+04  0.00000000000E+00 0. -1.
         24    2    1    2    0    0 -0.11507026955E+03  0.20626409915E+03  0.61469729673E+02  0.25714552104E+03  0.80989170822E+02 0.  0.
        254    2    1    2    0    0  0.11507026955E+03 -0.20626409915E+03 -0.81617811346E+03  0.12323503156E+04  0.89261108099E+03 0.  0.
         23    2    4    4    0    0  0.25363305256E+03 -0.50872669163E+03 -0.46160180780E+03  0.73802035410E+03  0.92006749570E+02 0.  0.
         23    2    4    4    0    0 -0.13856278301E+03  0.30246259248E+03 -0.35457630566E+03  0.49432996149E+03  0.89187945446E+02 0.  0.
          4    1    3    3  502    0 -0.44428359973E+02  0.13166353449E+03  0.31205863168E+01  0.13899245859E+03  0.00000000000E+00 0. -1.
         -3    1    3    3    0  502 -0.70641909581E+02  0.74600564661E+02  0.58349143356E+02  0.11815306245E+03  0.00000000000E+00 0.  1.
         11    1    5    5    0    0  0.25323762370E+03 -0.51229778776E+03 -0.45491196945E+03  0.73042673646E+03  0.00000000000E+00 0.  1.
        -11    1    5    5    0    0  0.39542886788E+00  0.35710961276E+01 -0.66898383532E+01  0.75936176315E+01  0.00000000000E+00 0. -1.
          3    1    6    6  503    0 -0.15732571006E+01  0.64227060540E+02 -0.36165986205E+02  0.73726311461E+02  0.00000000000E+00 0. -1.
         -3    1    6    6    0  503 -0.13698952591E+03  0.23823553194E+03 -0.31841031945E+03  0.42060365003E+03  0.00000000000E+00 0.  1.
<mgrwt>
<rscale>  0 0.12841391E+04</rscale>
<asrwt>0</asrwt>
<pdfrwt beam="1">  1        2 0.17263109E+00 0.12841391E+04</pdfrwt>
<pdfrwt beam="2">  1       -1 0.56522112E-01 0.12841391E+04</pdfrwt>
<totfact> 0.74838374E+01</totfact>
</mgrwt>
</event>
<event>
12    6  0.1462228E-007  0.1652687E+04  0.7818608E-02  0.8788818E-01
          2   -1    0    0  501    0  0.00000000000E+00  0.00000000000E+00  0.79268957621E+03  0.79268957621E+03  0.00000000000E+00 0. -1.
         -1   -1    0    0    0  501 -0.00000000000E+00 -0.00000000000E+00 -0.86142627685E+03  0.86142627685E+03  0.00000000000E+00 0.  1.
         24    2    1    2    0    0 -0.13394968423E+03  0.65911713621E+02 -0.58156103628E+03  0.60584109490E+03  0.80890799518E+02 0.  0.
        254    2    1    2    0    0  0.13394968423E+03 -0.65911713621E+02  0.51282433564E+03  0.10482747582E+04  0.90200016490E+03 0.  0.
         23    2    4    4    0    0  0.51035863082E+03  0.15834799045E+02  0.30182624182E+03  0.60011208532E+03  0.91207246317E+02 0.  0.
         23    2    4    4    0    0 -0.37640894659E+03 -0.81746512667E+02  0.21099809382E+03  0.44816267284E+03  0.89237874957E+02 0.  0.
          4    1    3    3  502    0 -0.31584285723E+02  0.57007255077E+02 -0.27086065464E+03  0.27859089803E+03  0.00000000000E+00 0. -1.
         -3    1    3    3    0  502 -0.10236539851E+03  0.89044585439E+01 -0.31070038165E+03  0.32725019687E+03  0.00000000000E+00 0.  1.
         11    1    5    5    0    0  0.22731579474E+03 -0.14568954938E+02  0.88462702622E+02  0.24435706403E+03  0.00000000000E+00 0.  1.
        -11    1    5    5    0    0  0.28304283608E+03  0.30403753984E+02  0.21336353920E+03  0.35575502129E+03  0.00000000000E+00 0. -1.
          2    1    6    6  503    0 -0.43468829464E+02 -0.38147046909E+02  0.16608501584E+02  0.60171244359E+02  0.00000000000E+00 0. -1.
         -2    1    6    6    0  503 -0.33294011713E+03 -0.43599465757E+02  0.19438959224E+03  0.38799142848E+03  0.00000000000E+00 0.  1.
<mgrwt>
<rscale>  0 0.16526871E+04</rscale>
<asrwt>0</asrwt>
<pdfrwt beam="1">  1        2 0.12195224E+00 0.16526871E+04</pdfrwt>
<pdfrwt beam="2">  1       -1 0.13252712E+00 0.16526871E+04</pdfrwt>
<totfact> 0.18364905E+01</totfact>
</mgrwt>
</event>
<event>
12    6  0.1462228E-007  0.2228951E+04  0.7818608E-02  0.8506474E-01
         -1   -1    0    0    0  501 -0.00000000000E+00  0.00000000000E+00  0.13797958682E+04  0.13797958682E+04  0.00000000000E+00 0.  1.
          2   -1    0    0  501    0  0.00000000000E+00 -0.00000000000E+00 -0.90017357972E+03  0.90017357972E+03  0.00000000000E+00 0. -1.
         24    2    1    2    0    0 -0.31759995096E+03  0.87520763503E+03  0.14669502827E+03  0.94590726381E+03  0.79768334210E+02 0.  0.
        254    2    1    2    0    0  0.31759995096E+03 -0.87520763503E+03  0.33292726023E+03  0.13340621841E+04  0.89555748964E+03 0.  0.
         23    2    4    4    0    0 -0.12181063645E+03 -0.49279144452E+03  0.50305209074E+03  0.72035236026E+03  0.90359714486E+02 0.  0.
         23    2    4    4    0    0  0.43941058741E+03 -0.38241619051E+03 -0.17012483051E+03  0.61370982386E+03  0.91506736638E+02 0.  0.
          2    1    3    3  502    0 -0.15811149867E+03  0.54363657346E+03  0.75969091909E+02  0.57123661730E+03  0.00000000000E+00 0. -1.
         -1    1    3    3    0  502 -0.15948845228E+03  0.33157106157E+03  0.70725936357E+02  0.37467064651E+03  0.00000000000E+00 0.  1.
         11    1    5    5    0    0 -0.80950936256E+01  0.28833522226E+00  0.16401762453E+02  0.18292935510E+02  0.00000000000E+00 0.  1.
        -11    1    5    5    0    0 -0.11371554283E+03 -0.49307977974E+03  0.48665032829E+03  0.70205942475E+03  0.00000000000E+00 0. -1.
          3    1    6    6  503    0  0.30327338814E+03 -0.30818748637E+03 -0.10145356832E+03  0.44412509638E+03  0.00000000000E+00 0. -1.
         -3    1    6    6    0  503  0.13613719927E+03 -0.74228704147E+02 -0.68671262192E+02  0.16958472748E+03  0.00000000000E+00 0.  1.
<mgrwt>
<rscale>  0 0.22289511E+04</rscale>
<asrwt>0</asrwt>
<pdfrwt beam="1">  1        2 0.13848824E+00 0.22289511E+04</pdfrwt>
<pdfrwt beam="2">  1       -1 0.21227629E+00 0.22289511E+04</pdfrwt>
<totfact> 0.37825613E+00</totfact>
</mgrwt>
</event>
<event>
12    6  0.1462228E-007  0.2457344E+04  0.7818608E-02  0.8418342E-01
          2   -1    0    0  501    0  0.00000000000E+00  0.00000000000E+00  0.31389443243E+04  0.31389443243E+04  0.00000000000E+00 0. -1.
         -1   -1    0    0    0  501 -0.00000000000E+00 -0.00000000000E+00 -0.48093706342E+03  0.48093706342E+03  0.00000000000E+00 0.  1.
         24    2    1    2    0    0  0.53709597504E+03 -0.76886247125E+03  0.41750205607E+03  0.10296840244E+04  0.79496146344E+02 0.  0.
        254    2    1    2    0    0 -0.53709597504E+03  0.76886247125E+03  0.22405052048E+04  0.25901973633E+04  0.89979843402E+03 0.  0.
         23    2    4    4    0    0 -0.54785123772E+03  0.88647253196E+03  0.21904973932E+04  0.24274892407E+04  0.91927448899E+02 0.  0.
         23    2    4    4    0    0  0.10755262681E+02 -0.11761006071E+03  0.50007811623E+02  0.16270812252E+03  0.10012666906E+03 0.  0.
          2    1    3    3  502    0  0.11096270227E+03 -0.16445738670E+03  0.53758660673E+02  0.20554548628E+03  0.00000000000E+00 0. -1.
         -1    1    3    3    0  502  0.42613327277E+03 -0.60440508455E+03  0.36374339540E+03  0.82413853817E+03  0.00000000000E+00 0.  1.
         11    1    5    5    0    0 -0.31096072238E+03  0.43926968032E+03  0.12015502119E+04  0.13165778878E+04  0.00000000000E+00 0. -1.
        -11    1    5    5    0    0 -0.23689051533E+03  0.44720285164E+03  0.98894718124E+03  0.11109113529E+04  0.00000000000E+00 0.  1.
          4    1    6    6  503    0  0.46130398938E+02 -0.29857450418E+02  0.39155441307E+02  0.67473177157E+02  0.00000000000E+00 0. -1.
         -4    1    6    6    0  503 -0.35375136257E+02 -0.87752610287E+02  0.10852370316E+02  0.95234945366E+02  0.00000000000E+00 0.  1.
<mgrwt>
<rscale>  0 0.24573438E+04</rscale>
<asrwt>0</asrwt>
<pdfrwt beam="1">  1        2 0.48291450E+00 0.24573438E+04</pdfrwt>
<pdfrwt beam="2">  1       -1 0.73990319E-01 0.24573438E+04</pdfrwt>
<totfact> 0.26612607E+00</totfact>
</mgrwt>
</event>
<event>
12    6  0.1462228E-007  0.1938239E+04  0.7818608E-02  0.8636053E-01
         -1   -1    0    0    0  501 -0.00000000000E+00  0.00000000000E+00  0.25841375296E+03  0.25841375296E+03  0.00000000000E+00 0.  1.
          2   -1    0    0  501    0  0.00000000000E+00 -0.00000000000E+00 -0.36344543792E+04  0.36344543792E+04  0.00000000000E+00 0. -1.
         24    2    1    2    0    0 -0.18131877665E+02  0.62844065610E+03 -0.47196645671E+03  0.79014387936E+03  0.79426636644E+02 0.  0.
        254    2    1    2    0    0  0.18131877665E+02 -0.62844065610E+03 -0.29040741695E+04  0.31027242528E+04  0.89329982847E+03 0.  0.
         23    2    4    4    0    0 -0.22252000361E+03 -0.49769648193E+03 -0.26826334751E+04  0.27389700010E+04  0.90649680266E+02 0.  0.
         23    2    4    4    0    0  0.24065188128E+03 -0.13074417417E+03 -0.22144069443E+03  0.36375425179E+03  0.90960472226E+02 0.  0.
          2    1    3    3  502    0 -0.30634580124E+02  0.11640697002E+03 -0.10897617040E+03  0.16237261433E+03  0.00000000000E+00 0. -1.
         -1    1    3    3    0  502  0.12502702459E+02  0.51203368607E+03 -0.36299028631E+03  0.62777126503E+03  0.00000000000E+00 0.  1.
         11    1    5    5    0    0 -0.55684979453E+02 -0.22703476212E+03 -0.12165888770E+04  0.12388438545E+04  0.00000000000E+00 0. -1.
        -11    1    5    5    0    0 -0.16683502416E+03 -0.27066171981E+03 -0.14660445981E+04  0.15001261465E+04  0.00000000000E+00 0.  1.
          3    1    6    6  503    0  0.17237004999E+03 -0.12663357372E+03 -0.13269655314E+03  0.25170592234E+03  0.00000000000E+00 0. -1.
         -3    1    6    6    0  503  0.68281831289E+02 -0.41106004499E+01 -0.88744141292E+02  0.11204832946E+03  0.00000000000E+00 0.  1.
<mgrwt>
<rscale>  0 0.19382394E+04</rscale>
<asrwt>0</asrwt>
<pdfrwt beam="1">  1        2 0.55914687E+00 0.19382394E+04</pdfrwt>
<pdfrwt beam="2">  1       -1 0.39755959E-01 0.19382394E+04</pdfrwt>
<totfact> 0.43004945E+00</totfact>
</mgrwt>
</event>
<event>
12    6  0.1462228E-007  0.4104148E+04  0.7818608E-02  0.7983860E-01
          2   -1    0    0  501    0  0.00000000000E+00  0.00000000000E+00  0.41461851615E+04  0.41461851615E+04  0.00000000000E+00 0. -1.
         -1   -1    0    0    0  501 -0.00000000000E+00 -0.00000000000E+00 -0.10156341324E+04  0.10156341324E+04  0.00000000000E+00 0.  1.
         24    2    1    2    0    0 -0.57643960566E+03  0.17611312823E+04  0.22755112311E+04  0.29355477684E+04  0.74988831142E+02 0.  0.
        254    2    1    2    0    0  0.57643960566E+03 -0.17611312823E+04  0.85503979790E+03  0.22262715255E+04  0.88956497050E+03 0.  0.
         23    2    4    4    0    0 -0.17418996951E+03 -0.75588214798E+03  0.46531463627E+03  0.90940347833E+03  0.93792369342E+02 0.  0.
         23    2    4    4    0    0  0.75062957517E+03 -0.10052491344E+04  0.38972516162E+03  0.13168680472E+04  0.91022914003E+02 0.  0.
          2    1    3    3  502    0 -0.75181048942E+01  0.24126608182E+02  0.46788673299E+02  0.53177016395E+02  0.00000000000E+00 0. -1.
         -1    1    3    3    0  502 -0.56892150076E+03  0.17370046742E+04  0.22287225578E+04  0.28823707520E+04  0.00000000000E+00 0.  1.
         11    1    5    5    0    0 -0.52332696847E+02 -0.13562974837E+03  0.12374323015E+03  0.19090973472E+03  0.00000000000E+00 0. -1.
        -11    1    5    5    0    0 -0.12185727266E+03 -0.62025239961E+03  0.34157140613E+03  0.71849374361E+03  0.00000000000E+00 0.  1.
          2    1    6    6  503    0  0.43619210880E+03 -0.50904928741E+03  0.21458234934E+03  0.70387521440E+03  0.00000000000E+00 0. -1.
         -2    1    6    6    0  503  0.31443746636E+03 -0.49619984695E+03  0.17514281228E+03  0.61299283280E+03  0.00000000000E+00 0.  1.
<mgrwt>
<rscale>  0 0.41041477E+04</rscale>
<asrwt>0</asrwt>
<pdfrwt beam="1">  1        2 0.63787463E+00 0.41041477E+04</pdfrwt>
<pdfrwt beam="2">  1       -1 0.15625141E+00 0.41041477E+04</pdfrwt>
<totfact> 0.71307490E-02</totfact>
</mgrwt>
</event>
<event>
12    6  0.1462228E-007  0.1225070E+04  0.7818608E-02  0.9091191E-01
         -1   -1    0    0    0  501 -0.00000000000E+00  0.00000000000E+00  0.21451214215E+03  0.21451214215E+03  0.00000000000E+00 0.  1.
          2   -1    0    0  501    0  0.00000000000E+00 -0.00000000000E+00 -0.17490821762E+04  0.17490821762E+04  0.00000000000E+00 0. -1.
         24    2    1    2    0    0  0.14927185685E+03 -0.45515797366E+02 -0.67499126432E+03  0.69786888000E+03  0.83988045029E+02 0.  0.
        254    2    1    2    0    0 -0.14927185685E+03  0.45515797366E+02 -0.85957876974E+03  0.12657254384E+04  0.91587742021E+03 0.  0.
         23    2    4    4    0    0  0.37378425255E+03 -0.13652309673E+02 -0.45331492281E+03  0.59467685174E+03  0.90802454426E+02 0.  0.
         23    2    4    4    0    0 -0.52305610940E+03  0.59168107039E+02 -0.40626384693E+03  0.67104858662E+03  0.90373302539E+02 0.  0.
          4    1    3    3  502    0  0.15814792412E+03 -0.46486698922E+02 -0.66121402491E+03  0.68145122043E+03  0.00000000000E+00 0. -1.
         -3    1    3    3    0  502 -0.88760672774E+01  0.97090155670E+00 -0.13777239409E+02  0.16417659574E+02  0.00000000000E+00 0.  1.
         11    1    5    5    0    0  0.25450717908E+03  0.20547331648E+02 -0.25585330583E+03  0.36146508981E+03  0.00000000000E+00 0. -1.
        -11    1    5    5    0    0  0.11927707347E+03 -0.34199641321E+02 -0.19746161698E+03  0.23321176193E+03  0.00000000000E+00 0.  1.
          3    1    6    6  503    0 -0.19412995170E+03 -0.16522660634E+02 -0.17511007701E+03  0.26195987390E+03  0.00000000000E+00 0. -1.
         -3    1    6    6    0  503 -0.32892615770E+03  0.75690767673E+02 -0.23115376992E+03  0.40908871272E+03  0.00000000000E+00 0.  1.
<mgrwt>
<rscale>  0 0.12250704E+04</rscale>
<asrwt>0</asrwt>
<pdfrwt beam="1">  1        2 0.26908957E+00 0.12250704E+04</pdfrwt>
<pdfrwt beam="2">  1       -1 0.33001867E-01 0.12250704E+04</pdfrwt>
<totfact> 0.89094278E+01</totfact>
</mgrwt>
</event>
<event>
12    6  0.1462228E-007  0.1076720E+04  0.7818608E-02  0.9228184E-01
          2   -1    0    0  501    0  0.00000000000E+00  0.00000000000E+00  0.15096870543E+04  0.15096870543E+04  0.00000000000E+00 0. -1.
         -1   -1    0    0    0  501 -0.00000000000E+00 -0.00000000000E+00 -0.19198102693E+03  0.19198102693E+03  0.00000000000E+00 0.  1.
         24    2    1    2    0    0 -0.12769791340E+03  0.34571199253E+02  0.16524686108E+03  0.22663748945E+03  0.80969757460E+02 0.  0.
        254    2    1    2    0    0  0.12769791340E+03 -0.34571199253E+02  0.11524591663E+04  0.14750305918E+04  0.91107145264E+03 0.  0.
         23    2    4    4    0    0  0.44418335868E+02 -0.44329085502E+03  0.80285250461E+03  0.92270553547E+03  0.91288500438E+02 0.  0.
         23    2    4    4    0    0  0.83279577532E+02  0.40871965577E+03  0.34960666164E+03  0.55232505629E+03  0.94079247941E+02 0.  0.
          4    1    3    3  502    0 -0.79646464656E+02  0.13506216994E+02  0.15260793968E+03  0.17267067059E+03  0.00000000000E+00 0. -1.
         -3    1    3    3    0  502 -0.48051448744E+02  0.21064982259E+02  0.12638921409E+02  0.53966818864E+02  0.00000000000E+00 0.  1.
         11    1    5    5    0    0  0.30622951786E+02 -0.14594081141E+03  0.35391998006E+03  0.38405186875E+03  0.00000000000E+00 0. -1.
        -11    1    5    5    0    0  0.13795384082E+02 -0.29735004361E+03  0.44893252456E+03  0.53865366671E+03  0.00000000000E+00 0.  1.
          1    1    6    6  503    0  0.71366241487E+02  0.34031634350E+03  0.23973127670E+03  0.42234990127E+03  0.00000000000E+00 0. -1.
         -1    1    6    6    0  503  0.11913336045E+02  0.68403312271E+02  0.10987538494E+03  0.12997515502E+03  0.00000000000E+00 0.  1.
<mgrwt>
<rscale>  0 0.10767196E+04</rscale>
<asrwt>0</asrwt>
<pdfrwt beam="1">  1        2 0.23225954E+00 0.10767196E+04</pdfrwt>
<pdfrwt beam="2">  1       -1 0.29535544E-01 0.10767196E+04</pdfrwt>
<totfact> 0.14880250E+02</totfact>
</mgrwt>
</event>
<event>
12    6  0.1462228E-007  0.1961749E+04  0.7818608E-02  0.8624716E-01
         -1   -1    0    0    0  501 -0.00000000000E+00  0.00000000000E+00  0.41531666149E+03  0.41531666149E+03  0.00000000000E+00 0.  1.
          2   -1    0    0  501    0  0.00000000000E+00 -0.00000000000E+00 -0.23165819300E+04  0.23165819300E+04  0.00000000000E+00 0. -1.
         24    2    1    2    0    0  0.61642986054E+03 -0.39573853965E+03 -0.11136926678E+04  0.13353697227E+04  0.79411417317E+02 0.  0.
        254    2    1    2    0    0 -0.61642986054E+03  0.39573853965E+03 -0.78757260067E+03  0.13965288688E+04  0.89074548288E+03 0.  0.
         23    2    4    4    0    0 -0.65120983839E+03  0.62015751316E+03 -0.56422380863E+03  0.10653757866E+04  0.89484444194E+02 0.  0.
         23    2    4    4    0    0  0.34779977850E+02 -0.22441897351E+03 -0.22334879204E+03  0.33115308216E+03  0.90576809324E+02 0.  0.
          2    1    3    3  502    0  0.49040872025E+03 -0.33065586744E+03 -0.94664356301E+03  0.11162293899E+04  0.00000000000E+00 0. -1.
         -1    1    3    3    0  502  0.12602114029E+03 -0.65082672217E+02 -0.16704910479E+03  0.21914033274E+03  0.00000000000E+00 0.  1.
         11    1    5    5    0    0 -0.49524096685E+03  0.44324877439E+03 -0.45507806005E+03  0.80549930601E+03  0.00000000000E+00 0. -1.
        -11    1    5    5    0    0 -0.15596887155E+03  0.17690873877E+03 -0.10914574858E+03  0.25987648062E+03  0.00000000000E+00 0.  1.
          3    1    6    6  503    0  0.50149115673E+02 -0.14322458203E+03 -0.96742427334E+02  0.17996475196E+03  0.00000000000E+00 0. -1.
         -3    1    6    6    0  503 -0.15369137824E+02 -0.81194391478E+02 -0.12660636471E+03  0.15118833020E+03  0.00000000000E+00 0.  1.
<mgrwt>
<rscale>  0 0.19617493E+04</rscale>
<asrwt>0</asrwt>
<pdfrwt beam="1">  1        2 0.35639721E+00 0.19617493E+04</pdfrwt>
<pdfrwt beam="2">  1       -1 0.63894873E-01 0.19617493E+04</pdfrwt>
<totfact> 0.11694853E+01</totfact>
</mgrwt>
</event>
<event>
12    6  0.1462228E-007  0.1495344E+04  0.7818608E-02  0.8887555E-01
         -1   -1    0    0    0  501 -0.00000000000E+00  0.00000000000E+00  0.22793243306E+03  0.22793243306E+03  0.00000000000E+00 0.  1.
          2   -1    0    0  501    0  0.00000000000E+00 -0.00000000000E+00 -0.24525405156E+04  0.24525405156E+04  0.00000000000E+00 0. -1.
         24    2    1    2    0    0  0.32068474220E+03 -0.32047599216E+03 -0.51585291177E+03  0.69139249802E+03  0.79848571061E+02 0.  0.
        254    2    1    2    0    0 -0.32068474220E+03  0.32047599216E+03 -0.17087551708E+04  0.19890804507E+04  0.91162121527E+03 0.  0.
         23    2    4    4    0    0  0.24918606552E+03 -0.39356270485E+02 -0.86455638307E+03  0.90509107070E+03  0.89941622657E+02 0.  0.
         23    2    4    4    0    0 -0.56987080773E+03  0.35983226264E+03 -0.84419878774E+03  0.10839893800E+04  0.90163118670E+02 0.  0.
          2    1    3    3  502    0  0.22300265714E+03 -0.19139193005E+03 -0.37782643823E+03  0.47865840993E+03  0.00000000000E+00 0. -1.
         -1    1    3    3    0  502  0.97682085068E+02 -0.12908406211E+03 -0.13802647354E+03  0.21273408808E+03  0.00000000000E+00 0.  1.
         11    1    5    5    0    0  0.78483994660E+01  0.13607139311E+02 -0.10987569065E+03  0.11099287820E+03  0.00000000000E+00 0. -1.
        -11    1    5    5    0    0  0.24133766606E+03 -0.52963409796E+02 -0.75468069242E+03  0.79409819251E+03  0.00000000000E+00 0.  1.
          2    1    6    6  503    0 -0.23052923092E+02  0.77152754589E+01 -0.10172239654E+02  0.26352176344E+02  0.00000000000E+00 0. -1.
         -2    1    6    6    0  503 -0.54681788463E+03  0.35211698718E+03 -0.83402654809E+03  0.10576372036E+04  0.00000000000E+00 0.  1.
<mgrwt>
<rscale>  0 0.14953441E+04</rscale>
<asrwt>0</asrwt>
<pdfrwt beam="1">  1        2 0.37731391E+00 0.14953441E+04</pdfrwt>
<pdfrwt beam="2">  1       -1 0.35066530E-01 0.14953441E+04</pdfrwt>
<totfact> 0.31646271E+01</totfact>
</mgrwt>
</event>
<event>
12    6  0.1462228E-007  0.1705162E+04  0.7818608E-02  0.8758426E-01
          2   -1    0    0  501    0  0.00000000000E+00  0.00000000000E+00  0.88177776975E+03  0.88177776975E+03  0.00000000000E+00 0. -1.
         -1   -1    0    0    0  501 -0.00000000000E+00 -0.00000000000E+00 -0.82435050781E+03  0.82435050781E+03  0.00000000000E+00 0.  1.
         24    2    1    2    0    0  0.18136114342E+02 -0.42584786536E+03 -0.41187635002E+03  0.59820544806E+03  0.80822690548E+02 0.  0.
        254    2    1    2    0    0 -0.18136114342E+02  0.42584786536E+03  0.46930361196E+03  0.11079228295E+04  0.90860981332E+03 0.  0.
         23    2    4    4    0    0 -0.25146086045E+03  0.53335886489E+03  0.37516314966E+02  0.59726850360E+03  0.87280859318E+02 0.  0.
         23    2    4    4    0    0  0.23332474611E+03 -0.10751099953E+03  0.43178729700E+03  0.51065432590E+03  0.91260717451E+02 0.  0.
          2    1    3    3  502    0 -0.15956224910E+02 -0.58544658758E+02 -0.31623313693E+02  0.68425961092E+02  0.00000000000E+00 0. -1.
         -1    1    3    3    0  502  0.34092339252E+02 -0.36730320661E+03 -0.38025303633E+03  0.52977948697E+03  0.00000000000E+00 0.  1.
         11    1    5    5    0    0 -0.78910346934E+01  0.65588557838E+02  0.22092054062E+02  0.69657635623E+02  0.00000000000E+00 0. -1.
        -11    1    5    5    0    0 -0.24356982576E+03  0.46777030705E+03  0.15424260904E+02  0.52761086798E+03  0.00000000000E+00 0.  1.
          3    1    6    6  503    0  0.11286122700E+03 -0.92825795180E+02  0.18598047185E+03  0.23652276998E+03  0.00000000000E+00 0. -1.
         -3    1    6    6    0  503  0.12046351912E+03 -0.14685204348E+02  0.24580682515E+03  0.27413155592E+03  0.00000000000E+00 0.  1.
<mgrwt>
<rscale>  0 0.17051615E+04</rscale>
<asrwt>0</asrwt>
<pdfrwt beam="1">  1        2 0.13565812E+00 0.17051615E+04</pdfrwt>
<pdfrwt beam="2">  1       -1 0.12682315E+00 0.17051615E+04</pdfrwt>
<totfact> 0.17681479E+01</totfact>
</mgrwt>
</event>
<event>
12    6  0.1462228E-007  0.1886891E+04  0.7818608E-02  0.8661409E-01
         -1   -1    0    0    0  501 -0.00000000000E+00  0.00000000000E+00  0.20899572145E+03  0.20899572145E+03  0.00000000000E+00 0.  1.
          2   -1    0    0  501    0  0.00000000000E+00 -0.00000000000E+00 -0.42588893885E+04  0.42588893885E+04  0.00000000000E+00 0. -1.
         24    2    1    2    0    0 -0.68739855072E+03  0.18988551655E+03 -0.12524244837E+04  0.14430963703E+04  0.73394616857E+02 0.  0.
        254    2    1    2    0    0  0.68739855072E+03 -0.18988551655E+03 -0.27974691834E+04  0.30247887396E+04  0.90274016779E+03 0.  0.
         23    2    4    4    0    0 -0.72856253349E+01  0.27792213775E+03 -0.52714847608E+03  0.60319618661E+03  0.93093118573E+02 0.  0.
         23    2    4    4    0    0  0.69468417605E+03 -0.46780765430E+03 -0.22703207073E+04  0.24215925530E+04  0.91237453803E+02 0.  0.
          2    1    3    3  502    0 -0.12154414862E+03  0.29007112151E+02 -0.27924273492E+03  0.30592629444E+03  0.00000000000E+00 0. -1.
         -1    1    3    3    0  502 -0.56585440210E+03  0.16087840440E+03 -0.97318174878E+03  0.11371700759E+04  0.00000000000E+00 0.  1.
         11    1    5    5    0    0 -0.35987067757E+02  0.11764840968E+03 -0.16226670994E+03  0.20363374597E+03  0.00000000000E+00 0. -1.
        -11    1    5    5    0    0  0.28701442422E+02  0.16027372807E+03 -0.36488176614E+03  0.39956244064E+03  0.00000000000E+00 0.  1.
          1    1    6    6  503    0  0.42129418636E+03 -0.26184429597E+03 -0.14592162365E+04  0.15412213506E+04  0.00000000000E+00 0. -1.
         -1    1    6    6    0  503  0.27338998969E+03 -0.20596335832E+03 -0.81110447080E+03  0.88037120239E+03  0.00000000000E+00 0.  1.
<mgrwt>
<rscale>  0 0.18868913E+04</rscale>
<asrwt>0</asrwt>
<pdfrwt beam="1">  1        2 0.65521375E+00 0.18868913E+04</pdfrwt>
<pdfrwt beam="2">  1       -1 0.32153188E-01 0.18868913E+04</pdfrwt>
<totfact> 0.20215516E+00</totfact>
</mgrwt>
</event>
<event>
12    6  0.1462228E-007  0.1829146E+04  0.7818608E-02  0.8690952E-01
          2   -1    0    0  501    0  0.00000000000E+00  0.00000000000E+00  0.12426967977E+04  0.12426967977E+04  0.00000000000E+00 0. -1.
         -1   -1    0    0    0  501 -0.00000000000E+00 -0.00000000000E+00 -0.67308754026E+03  0.67308754026E+03  0.00000000000E+00 0.  1.
         24    2    1    2    0    0  0.47652907587E+03 -0.10568709558E+03  0.71785723209E+03  0.87178931469E+03  0.80298700011E+02 0.  0.
        254    2    1    2    0    0 -0.47652907587E+03  0.10568709558E+03 -0.14824797467E+03  0.10439950232E+04  0.91087783168E+03 0.  0.
         23    2    4    4    0    0 -0.45034495352E+03 -0.26925256700E+03  0.15447713476E+03  0.55423037858E+03  0.89446103200E+02 0.  0.
         23    2    4    4    0    0 -0.26184122348E+02  0.37493966257E+03 -0.30272510943E+03  0.48976464467E+03  0.83435942229E+02 0.  0.
          2    1    3    3  502    0  0.45227634441E+03 -0.11807591717E+03  0.67823450764E+03  0.82370981619E+03  0.00000000000E+00 0. -1.
         -1    1    3    3    0  502  0.24252731464E+02  0.12388821588E+02  0.39622724451E+02  0.48079498508E+02  0.00000000000E+00 0.  1.
         11    1    5    5    0    0 -0.21113206443E+03 -0.77179497507E+02  0.51428692421E+02  0.23060427981E+03  0.00000000000E+00 0.  1.
        -11    1    5    5    0    0 -0.23921288910E+03 -0.19207306949E+03  0.10304844234E+03  0.32362609876E+03  0.00000000000E+00 0. -1.
          2    1    6    6  503    0 -0.47783437351E+01  0.28509653916E+03 -0.26733257861E+03  0.39085748911E+03  0.00000000000E+00 0.  1.
         -2    1    6    6    0  503 -0.21405778612E+02  0.89843123415E+02 -0.35392530825E+02  0.98907155561E+02  0.00000000000E+00 0. -1.
<mgrwt>
<rscale>  0 0.18291460E+04</rscale>
<asrwt>0</asrwt>
<pdfrwt beam="1">  1        2 0.19118412E+00 0.18291460E+04</pdfrwt>
<pdfrwt beam="2">  1       -1 0.10355193E+00 0.18291460E+04</pdfrwt>
<totfact> 0.16870371E+01</totfact>
</mgrwt>
</event>
<event>
12    6  0.1462228E-007  0.1600323E+04  0.7818608E-02  0.8820349E-01
          2   -1    0    0  501    0  0.00000000000E+00  0.00000000000E+00  0.24906734718E+04  0.24906734718E+04  0.00000000000E+00 0. -1.
         -1   -1    0    0    0  501 -0.00000000000E+00 -0.00000000000E+00 -0.25706243637E+03  0.25706243637E+03  0.00000000000E+00 0.  1.
         24    2    1    2    0    0  0.46980756845E+03 -0.14335930536E+01  0.37068193576E+03  0.60391416877E+03  0.81154292423E+02 0.  0.
        254    2    1    2    0    0 -0.46980756845E+03  0.14335930536E+01  0.18629290997E+04  0.21438217394E+04  0.95118116746E+03 0.  0.
         23    2    4    4    0    0  0.53939484505E+02  0.65781753041E+02 -0.66078941065E+02  0.14178951340E+03  0.92201586953E+02 0.  0.
         23    2    4    4    0    0 -0.52374705296E+03 -0.64348159987E+02  0.19290080407E+04  0.20020322260E+04  0.92786591250E+02 0.  0.
          4    1    3    3  502    0  0.78678565192E+02 -0.65236782484E+01  0.10366548493E+03  0.13030505655E+03  0.00000000000E+00 0. -1.
         -3    1    3    3    0  502  0.39112900326E+03  0.50900851948E+01  0.26701645084E+03  0.47360911222E+03  0.00000000000E+00 0.  1.
         11    1    5    5    0    0  0.55583191804E+02  0.22756108810E+02 -0.76723450952E+02  0.97436233636E+02  0.00000000000E+00 0.  1.
        -11    1    5    5    0    0 -0.16437072991E+01  0.43025644231E+02  0.10644509887E+02  0.44353279765E+02  0.00000000000E+00 0. -1.
          4    1    6    6  503    0 -0.20033033282E+03 -0.34068489712E+02  0.91386349358E+03  0.93618341640E+03  0.00000000000E+00 0. -1.
         -4    1    6    6    0  503 -0.32341672014E+03 -0.30279670275E+02  0.10151445471E+04  0.10658488096E+04  0.00000000000E+00 0.  1.
<mgrwt>
<rscale>  0 0.16003232E+04</rscale>
<asrwt>0</asrwt>
<pdfrwt beam="1">  1        2 0.38318052E+00 0.16003232E+04</pdfrwt>
<pdfrwt beam="2">  1       -1 0.39548069E-01 0.16003232E+04</pdfrwt>
<totfact> 0.23987438E+01</totfact>
</mgrwt>
</event>
<event>
12    6  0.1462228E-007  0.1188262E+04  0.7818608E-02  0.9123194E-01
          2   -1    0    0  501    0  0.00000000000E+00  0.00000000000E+00  0.18306024196E+04  0.18306024196E+04  0.00000000000E+00 0. -1.
         -1   -1    0    0    0  501 -0.00000000000E+00 -0.00000000000E+00 -0.19282797889E+03  0.19282797889E+03  0.00000000000E+00 0.  1.
         24    2    1    2    0    0  0.13541037969E+03  0.40355797696E+01  0.69516313958E+03  0.71271596348E+03  0.79749590170E+02 0.  0.
        254    2    1    2    0    0 -0.13541037969E+03 -0.40355797696E+01  0.94261130112E+03  0.13107144350E+04  0.90061312909E+03 0.  0.
         23    2    4    4    0    0  0.25974122164E+03 -0.15495644583E+03  0.50854592465E+02  0.31936820006E+03  0.89066577991E+02 0.  0.
         23    2    4    4    0    0 -0.39515160132E+03  0.15092086606E+03  0.89175670866E+03  0.99134623494E+03  0.92819363608E+02 0.  0.
          2    1    3    3  502    0  0.44323785452E+02  0.29786079421E+02  0.37722966620E+03  0.38099085231E+03  0.00000000000E+00 0. -1.
         -1    1    3    3    0  502  0.91086594235E+02 -0.25750499652E+02  0.31793347338E+03  0.33172511117E+03  0.00000000000E+00 0.  1.
         11    1    5    5    0    0  0.14224757494E+03 -0.77090933380E+02  0.71540642655E+02  0.17690519533E+03  0.00000000000E+00 0. -1.
        -11    1    5    5    0    0  0.11749364670E+03 -0.77865512446E+02 -0.20686050190E+02  0.14246300473E+03  0.00000000000E+00 0.  1.
          1    1    6    6  503    0 -0.76611311862E+02  0.11633411982E+01  0.11057928746E+03  0.13453038795E+03  0.00000000000E+00 0. -1.
         -1    1    6    6    0  503 -0.31854028946E+03  0.14975752486E+03  0.78117742120E+03  0.85681584699E+03  0.00000000000E+00 0.  1.
<mgrwt>
<rscale>  0 0.11882615E+04</rscale>
<asrwt>0</asrwt>
<pdfrwt beam="1">  1        2 0.28163113E+00 0.11882615E+04</pdfrwt>
<pdfrwt beam="2">  1       -1 0.29665844E-01 0.11882615E+04</pdfrwt>
<totfact> 0.97183163E+01</totfact>
</mgrwt>
</event>
<event>
12    6  0.1462228E-007  0.1540817E+04  0.7818608E-02  0.8857755E-01
          2   -1    0    0  501    0  0.00000000000E+00  0.00000000000E+00  0.13170536972E+04  0.13170536972E+04  0.00000000000E+00 0. -1.
         -1   -1    0    0    0  501 -0.00000000000E+00 -0.00000000000E+00 -0.45064895858E+03  0.45064895858E+03  0.00000000000E+00 0.  1.
         24    2    1    2    0    0 -0.36508804061E+03 -0.34480590537E+03  0.16139514915E+03  0.53253655850E+03  0.73255731497E+02 0.  0.
        254    2    1    2    0    0  0.36508804061E+03  0.34480590537E+03  0.70500958946E+03  0.12351660973E+04  0.88114492386E+03 0.  0.
         23    2    4    4    0    0  0.38080564521E+03  0.55671982594E+03  0.25439975666E+03  0.72731389369E+03  0.96521291626E+02 0.  0.
         23    2    4    4    0    0 -0.15717604608E+02 -0.21191392057E+03  0.45060983280E+03  0.50785220358E+03  0.98539770889E+02 0.  0.
          4    1    3    3  502    0 -0.37261557031E+02 -0.12952159196E+02  0.16996347880E+01  0.39485070833E+02  0.00000000000E+00 0. -1.
         -3    1    3    3    0  502 -0.32782648357E+03 -0.33185374618E+03  0.15969551436E+03  0.49305148767E+03  0.00000000000E+00 0.  1.
         11    1    5    5    0    0  0.35744560550E+03  0.47146990884E+03  0.20567302733E+03  0.62638057920E+03  0.00000000000E+00 0.  1.
        -11    1    5    5    0    0  0.23360039718E+02  0.85249917100E+02  0.48726729338E+02  0.10093331449E+03  0.00000000000E+00 0. -1.
          3    1    6    6  503    0 -0.34955065929E+02 -0.67571650828E+02  0.83732111209E+02  0.11313200731E+03  0.00000000000E+00 0. -1.
         -3    1    6    6    0  503  0.19237461321E+02 -0.14434226974E+03  0.36687772159E+03  0.39472019628E+03  0.00000000000E+00 0.  1.
<mgrwt>
<rscale>  0 0.15408165E+04</rscale>
<asrwt>0</asrwt>
<pdfrwt beam="1">  1        2 0.20262364E+00 0.15408165E+04</pdfrwt>
<pdfrwt beam="2">  1       -1 0.69330609E-01 0.15408165E+04</pdfrwt>
<totfact> 0.37334940E+01</totfact>
</mgrwt>
</event>
<event>
12    6  0.1462228E-007  0.2773682E+04  0.7818608E-02  0.8311486E-01
          2   -1    0    0  501    0  0.00000000000E+00  0.00000000000E+00  0.23832201456E+04  0.23832201456E+04  0.00000000000E+00 0. -1.
         -1   -1    0    0    0  501 -0.00000000000E+00 -0.00000000000E+00 -0.80702880568E+03  0.80702880568E+03  0.00000000000E+00 0.  1.
         24    2    1    2    0    0 -0.95023291542E+03 -0.77797287237E+03  0.50626783337E+03  0.13319975071E+04  0.98619755645E+02 0.  0.
        254    2    1    2    0    0  0.95023291542E+03  0.77797287237E+03  0.10699235065E+04  0.18582514441E+04  0.89452654297E+03 0.  0.
         23    2    4    4    0    0  0.67011958170E+02  0.48649117381E+03  0.94725000726E+02  0.50753306506E+03  0.86329147080E+02 0.  0.
         23    2    4    4    0    0  0.88322095725E+03  0.29148169856E+03  0.97519850580E+03  0.13507183791E+04  0.91581514994E+02 0.  0.
          4    1    3    3  502    0 -0.21307930581E+03 -0.12524120034E+03  0.90559687314E+02  0.26322842892E+03  0.00000000000E+00 0. -1.
         -3    1    3    3    0  502 -0.73715360961E+03 -0.65273167203E+03  0.41570814605E+03  0.10687690782E+04  0.00000000000E+00 0.  1.
         11    1    5    5    0    0  0.34331261617E+02  0.60676936709E+02 -0.16158570107E+01  0.69734762970E+02  0.00000000000E+00 0. -1.
        -11    1    5    5    0    0  0.32680696554E+02  0.42581423710E+03  0.96340857736E+02  0.43779830209E+03  0.00000000000E+00 0.  1.
          2    1    6    6  503    0  0.14817026562E+02  0.16685276498E+02  0.36237316005E+02  0.42556853728E+02  0.00000000000E+00 0. -1.
         -2    1    6    6    0  503  0.86840393069E+03  0.27479642206E+03  0.93896118980E+03  0.13081615253E+04  0.00000000000E+00 0.  1.
<mgrwt>
<rscale>  0 0.27736815E+04</rscale>
<asrwt>0</asrwt>
<pdfrwt beam="1">  1        2 0.36664925E+00 0.27736815E+04</pdfrwt>
<pdfrwt beam="2">  1       -1 0.12415828E+00 0.27736815E+04</pdfrwt>
<totfact> 0.22931193E+00</totfact>
</mgrwt>
</event>
<event>
12    6  0.1462228E-007  0.1286580E+04  0.7818608E-02  0.9040276E-01
         -1   -1    0    0    0  501 -0.00000000000E+00  0.00000000000E+00  0.14479354258E+04  0.14479354258E+04  0.00000000000E+00 0.  1.
          2   -1    0    0  501    0  0.00000000000E+00 -0.00000000000E+00 -0.28580129583E+03  0.28580129583E+03  0.00000000000E+00 0. -1.
         24    2    1    2    0    0 -0.85972726252E+02 -0.40980658821E+02 -0.11340382565E+03  0.16907323311E+03  0.81575771076E+02 0.  0.
        254    2    1    2    0    0  0.85972726252E+02  0.40980658821E+02  0.12755379556E+04  0.15646634885E+04  0.90116814858E+03 0.  0.
         23    2    4    4    0    0 -0.22874762587E+03 -0.31739990045E+03  0.73523712257E+03  0.83786048680E+03  0.91478936332E+02 0.  0.
         23    2    4    4    0    0  0.31472035213E+03  0.35838055927E+03  0.54030083303E+03  0.72680300170E+03  0.93979188165E+02 0.  0.
          2    1    3    3  502    0 -0.98758177374E+02 -0.35976484500E+02 -0.11434213785E+03  0.15531133096E+03  0.00000000000E+00 0. -1.
         -1    1    3    3    0  502  0.12785451122E+02 -0.50041743209E+01  0.93831220803E+00  0.13761902152E+02  0.00000000000E+00 0.  1.
         11    1    5    5    0    0 -0.59678408059E+02 -0.15842504586E+03  0.29116709888E+03  0.33680600799E+03  0.00000000000E+00 0. -1.
        -11    1    5    5    0    0 -0.16906921781E+03 -0.15897485459E+03  0.44407002369E+03  0.50105447882E+03  0.00000000000E+00 0.  1.
          2    1    6    6  503    0  0.23163934544E+02  0.71709040066E+02  0.10877526207E+03  0.13232842450E+03  0.00000000000E+00 0. -1.
         -2    1    6    6    0  503  0.29155641758E+03  0.28667151920E+03  0.43152557096E+03  0.59447457721E+03  0.00000000000E+00 0.  1.
<mgrwt>
<rscale>  0 0.12865797E+04</rscale>
<asrwt>0</asrwt>
<pdfrwt beam="1">  1        2 0.43969431E-01 0.12865797E+04</pdfrwt>
<pdfrwt beam="2">  1       -1 0.22275929E+00 0.12865797E+04</pdfrwt>
<totfact> 0.13748445E+01</totfact>
</mgrwt>
</event>
<event>
12    6  0.1462228E-007  0.3432263E+04  0.7818608E-02  0.8130033E-01
         -1   -1    0    0    0  501 -0.00000000000E+00  0.00000000000E+00  0.26144319103E+04  0.26144319103E+04  0.00000000000E+00 0.  1.
          2   -1    0    0  501    0  0.00000000000E+00 -0.00000000000E+00 -0.11264806766E+04  0.11264806766E+04  0.00000000000E+00 0. -1.
         24    2    1    2    0    0  0.76733879292E+03  0.76221636338E+03 -0.59022359336E+03  0.12351875095E+04  0.86842879291E+02 0.  0.
        254    2    1    2    0    0 -0.76733879292E+03 -0.76221636338E+03  0.20781748270E+04  0.25057250774E+04  0.88885597505E+03 0.  0.
         23    2    4    4    0    0 -0.25336444444E+03  0.72155935053E+02  0.10018703146E+03  0.29644793222E+03  0.91890775251E+02 0.  0.
         23    2    4    4    0    0 -0.51397434848E+03 -0.83437229843E+03  0.19779877955E+04  0.22092771452E+04  0.90127808006E+02 0.  0.
          4    1    3    3  502    0  0.61433452972E+03  0.62179604968E+03 -0.43794778679E+03  0.97766840276E+03  0.00000000000E+00 0. -1.
         -3    1    3    3    0  502  0.15300426320E+03  0.14042031370E+03 -0.15227580656E+03  0.25751910671E+03  0.00000000000E+00 0.  1.
         11    1    5    5    0    0 -0.14564052024E+03  0.49955864622E+02  0.10498426536E+03  0.18635569624E+03  0.00000000000E+00 0. -1.
        -11    1    5    5    0    0 -0.10772392420E+03  0.22200070431E+02 -0.47972338953E+01  0.11009223599E+03  0.00000000000E+00 0.  1.
          1    1    6    6  503    0 -0.62945381243E+01 -0.37178570287E+02  0.56474356452E+02  0.67905966126E+02  0.00000000000E+00 0. -1.
         -1    1    6    6    0  503 -0.50767981036E+03 -0.79719372814E+03  0.19215134391E+04  0.21413711791E+04  0.00000000000E+00 0.  1.
<mgrwt>
<rscale>  0 0.34322628E+04</rscale>
<asrwt>0</asrwt>
<pdfrwt beam="1">  1        2 0.17330472E+00 0.34322628E+04</pdfrwt>
<pdfrwt beam="2">  1       -1 0.40222029E+00 0.34322628E+04</pdfrwt>
<totfact> 0.13633473E-01</totfact>
</mgrwt>
</event>
<event>
12    6  0.1612278E-007  0.2502608E+04  0.7818608E-02  0.8402057E-01
          2   -1    0    0  501    0  0.00000000000E+00  0.00000000000E+00  0.15101060627E+04  0.15101060627E+04  0.00000000000E+00 0. -1.
         -1   -1    0    0    0  501 -0.00000000000E+00 -0.00000000000E+00 -0.10368552178E+04  0.10368552178E+04  0.00000000000E+00 0.  1.
         24    2    1    2    0    0 -0.12897565139E+03  0.65005684145E+03 -0.67134082756E+03  0.94738965181E+03  0.87407264262E+02 0.  0.
        254    2    1    2    0    0  0.12897565139E+03 -0.65005684145E+03  0.11445916725E+04  0.15995716286E+04  0.89962808016E+03 0.  0.
         23    2    4    4    0    0 -0.19250877631E+03 -0.66499226227E+03  0.46024161364E+03  0.83731397529E+03  0.99990061770E+02 0.  0.
         23    2    4    4    0    0  0.32148442769E+03  0.14935420816E+02  0.68435005887E+03  0.76225765336E+03  0.95532313794E+02 0.  0.
          4    1    3    3  502    0  0.69403449333E+01  0.60284223082E+02 -0.87262058165E+02  0.10628745333E+03  0.00000000000E+00 0. -1.
         -3    1    3    3    0  502 -0.13591599632E+03  0.58977261837E+03 -0.58407876939E+03  0.84110219848E+03  0.00000000000E+00 0.  1.
         11    1    5    5    0    0 -0.28041108823E+02 -0.54584641031E+02  0.75386510484E+02  0.97205518277E+02  0.00000000000E+00 0. -1.
        -11    1    5    5    0    0 -0.16446766749E+03 -0.61040762124E+03  0.38485510315E+03  0.74010845701E+03  0.00000000000E+00 0.  1.
          1    1    6    6  503    0  0.11597290420E+03 -0.23840493452E+02  0.17145479505E+03  0.20836225758E+03  0.00000000000E+00 0. -1.
         -1    1    6    6    0  503  0.20551152349E+03  0.38775914268E+02  0.51289526382E+03  0.55389539578E+03  0.00000000000E+00 0.  1.
<mgrwt>
<rscale>  0 0.25026077E+04</rscale>
<asrwt>0</asrwt>
<pdfrwt beam="1">  1        2 0.23232401E+00 0.25026077E+04</pdfrwt>
<pdfrwt beam="2">  1       -1 0.15951619E+00 0.25026077E+04</pdfrwt>
<totfact> 0.37500608E+00</totfact>
</mgrwt>
</event>
<event>
12    6  0.1462228E-007  0.2251415E+04  0.7818608E-02  0.8497327E-01
         -1   -1    0    0    0  501 -0.00000000000E+00  0.00000000000E+00  0.72831305721E+03  0.72831305721E+03  0.00000000000E+00 0.  1.
          2   -1    0    0  501    0  0.00000000000E+00 -0.00000000000E+00 -0.17399357236E+04  0.17399357236E+04  0.00000000000E+00 0. -1.
         24    2    1    2    0    0 -0.76052740936E+03  0.19245995316E+03  0.14535433383E+03  0.80177101329E+03  0.79158710316E+02 0.  0.
        254    2    1    2    0    0  0.76052740936E+03 -0.19245995316E+03 -0.11569770002E+04  0.16664777676E+04  0.90725387666E+03 0.  0.
         23    2    4    4    0    0  0.35306741691E+03  0.16327460031E+03 -0.10281346287E+04  0.11031756359E+04  0.92846502097E+02 0.  0.
         23    2    4    4    0    0  0.40745999245E+03 -0.35573455348E+03 -0.12884237159E+03  0.56330213168E+03  0.90212066015E+02 0.  0.
          2    1    3    3  502    0 -0.46820469072E+03  0.13450516689E+03  0.54301072279E+02  0.49015903417E+03  0.00000000000E+00 0. -1.
         -1    1    3    3    0  502 -0.29232271865E+03  0.57954786271E+02  0.91053261549E+02  0.31161197911E+03  0.00000000000E+00 0.  1.
         11    1    5    5    0    0  0.22808268906E+03  0.11262314511E+03 -0.54270768588E+03  0.59936409483E+03  0.00000000000E+00 0. -1.
        -11    1    5    5    0    0  0.12498472785E+03  0.50651455199E+02 -0.48542694278E+03  0.50381154104E+03  0.00000000000E+00 0.  1.
          2    1    6    6  503    0  0.23869864695E+01 -0.18254151210E+02 -0.15397513537E+02  0.23999899248E+02  0.00000000000E+00 0.  1.
         -2    1    6    6    0  503  0.40507300598E+03 -0.33748040227E+03 -0.11344485805E+03  0.53930223243E+03  0.00000000000E+00 0. -1.
<mgrwt>
<rscale>  0 0.22514155E+04</rscale>
<asrwt>0</asrwt>
<pdfrwt beam="1">  1        2 0.26768242E+00 0.22514155E+04</pdfrwt>
<pdfrwt beam="2">  1       -1 0.11204816E+00 0.22514155E+04</pdfrwt>
<totfact> 0.70538737E+00</totfact>
</mgrwt>
</event>
<event>
12    6  0.1462228E-007  0.2123914E+04  0.7818608E-02  0.8550782E-01
          2   -1    0    0  501    0  0.00000000000E+00  0.00000000000E+00  0.20539102633E+04  0.20539102633E+04  0.00000000000E+00 0. -1.
         -1   -1    0    0    0  501 -0.00000000000E+00 -0.00000000000E+00 -0.54907600127E+03  0.54907600127E+03  0.00000000000E+00 0.  1.
         24    2    1    2    0    0  0.91707000164E+02  0.74115851086E+03  0.11670850475E+04  0.13880153317E+04  0.82297878306E+02 0.  0.
        254    2    1    2    0    0 -0.91707000164E+02 -0.74115851086E+03  0.33774921450E+03  0.12149709329E+04  0.89685769424E+03 0.  0.
         23    2    4    4    0    0  0.35176035349E+03 -0.93764572954E+02  0.75601480208E+02  0.38266090592E+03  0.90480073357E+02 0.  0.
         23    2    4    4    0    0 -0.44346735366E+03 -0.64739393791E+03  0.26214773429E+03  0.83231002696E+03  0.90754293411E+02 0.  0.
          4    1    3    3  502    0  0.75086242826E+02  0.62847639459E+03  0.10390073709E+04  0.12166169649E+04  0.00000000000E+00 0. -1.
         -3    1    3    3    0  502  0.16620757338E+02  0.11268211628E+03  0.12807767660E+03  0.17139836682E+03  0.00000000000E+00 0.  1.
         11    1    5    5    0    0  0.46522031309E+02 -0.44392711272E+02  0.26636141232E+02  0.69602415410E+02  0.00000000000E+00 0.  1.
        -11    1    5    5    0    0  0.30523832219E+03 -0.49371861682E+02  0.48965338977E+02  0.31305849051E+03  0.00000000000E+00 0. -1.
          1    1    6    6  503    0 -0.31315212009E+03 -0.52342763925E+03  0.20892098621E+03  0.64473926694E+03  0.00000000000E+00 0. -1.
         -1    1    6    6    0  503 -0.13031523357E+03 -0.12396629866E+03  0.53226748080E+02  0.18757076002E+03  0.00000000000E+00 0.  1.
<mgrwt>
<rscale>  0 0.21239142E+04</rscale>
<asrwt>0</asrwt>
<pdfrwt beam="1">  1        2 0.31598619E+00 0.21239142E+04</pdfrwt>
<pdfrwt beam="2">  1       -1 0.84473232E-01 0.21239142E+04</pdfrwt>
<totfact> 0.90575412E+00</totfact>
</mgrwt>
</event>
<event>
12    6  0.1879055E-007  0.1489897E+04  0.7818608E-02  0.8891199E-01
          2   -1    0    0  501    0  0.00000000000E+00  0.00000000000E+00  0.21676681474E+04  0.21676681474E+04  0.00000000000E+00 0. -1.
         -1   -1    0    0    0  501 -0.00000000000E+00 -0.00000000000E+00 -0.25601159167E+03  0.25601159167E+03  0.00000000000E+00 0.  1.
         24    2    1    2    0    0 -0.12627833937E+03  0.80571243213E+02  0.13193166330E+04  0.13300672331E+04  0.77746524889E+02 0.  0.
        254    2    1    2    0    0  0.12627833937E+03 -0.80571243213E+02  0.59233992269E+03  0.10936125060E+04  0.90701917562E+03 0.  0.
         23    2    4    4    0    0 -0.12472425074E+03 -0.26156881662E+03 -0.10817064104E+03  0.32230151594E+03  0.90570387244E+02 0.  0.
         23    2    4    4    0    0  0.25100259011E+03  0.18099757341E+03  0.70051056373E+03  0.77131099001E+03  0.91886732410E+02 0.  0.
          4    1    3    3  502    0 -0.87431401736E+02  0.24890275001E+02  0.96737218952E+03  0.97163405089E+03  0.00000000000E+00 0. -1.
         -3    1    3    3    0  502 -0.38846937630E+02  0.55680968212E+02  0.35194444353E+03  0.35843318222E+03  0.00000000000E+00 0.  1.
         11    1    5    5    0    0 -0.49501905923E+02 -0.13369267218E+03 -0.70104754576E+01  0.14273512550E+03  0.00000000000E+00 0. -1.
        -11    1    5    5    0    0 -0.75222344819E+02 -0.12787614444E+03 -0.10116016559E+03  0.17956639045E+03  0.00000000000E+00 0.  1.
          3    1    6    6  503    0  0.70017578221E+02  0.76036398772E+02  0.14805923608E+03  0.18057002128E+03  0.00000000000E+00 0. -1.
         -3    1    6    6    0  503  0.18098501189E+03  0.10496117463E+03  0.55245132765E+03  0.59074096872E+03  0.00000000000E+00 0.  1.
<mgrwt>
<rscale>  0 0.14898969E+04</rscale>
<asrwt>0</asrwt>
<pdfrwt beam="1">  1        2 0.33348740E+00 0.14898969E+04</pdfrwt>
<pdfrwt beam="2">  1       -1 0.39386400E-01 0.14898969E+04</pdfrwt>
<totfact> 0.37193849E+01</totfact>
</mgrwt>
</event>
<event>
12    6  0.1462228E-007  0.1480240E+04  0.7818608E-02  0.8897701E-01
         -1   -1    0    0    0  501 -0.00000000000E+00  0.00000000000E+00  0.86998424642E+03  0.86998424642E+03  0.00000000000E+00 0.  1.
          2   -1    0    0  501    0  0.00000000000E+00 -0.00000000000E+00 -0.62964044802E+03  0.62964044802E+03  0.00000000000E+00 0. -1.
         24    2    1    2    0    0 -0.23616302307E+03 -0.22598979312E+03  0.40943950089E+03  0.53133132097E+03  0.88475463770E+02 0.  0.
        254    2    1    2    0    0  0.23616302307E+03  0.22598979312E+03 -0.16909570249E+03  0.96829337348E+03  0.89563069424E+03 0.  0.
         23    2    4    4    0    0  0.25276965455E+03 -0.11672796984E+03 -0.43461744546E+03  0.52403114360E+03  0.90545007403E+02 0.  0.
         23    2    4    4    0    0 -0.16606631484E+02  0.34271776296E+03  0.26552174297E+03  0.44426222988E+03  0.95581837431E+02 0.  0.
          2    1    3    3  502    0 -0.18494917826E+03 -0.19439242308E+03  0.27589155913E+03  0.38485161437E+03  0.00000000000E+00 0. -1.
         -1    1    3    3    0  502 -0.51213844811E+02 -0.31597370045E+02  0.13354794176E+03  0.14647970659E+03  0.00000000000E+00 0.  1.
         11    1    5    5    0    0  0.22703354687E+03 -0.11844738407E+03 -0.42561585819E+03  0.49671206241E+03  0.00000000000E+00 0. -1.
        -11    1    5    5    0    0  0.25736107689E+02  0.17194142300E+01 -0.90015872658E+01  0.27319081199E+02  0.00000000000E+00 0.  1.
          1    1    6    6  503    0 -0.29431934012E+02  0.33954472782E+03  0.24455758860E+03  0.41948215108E+03  0.00000000000E+00 0. -1.
         -1    1    6    6    0  503  0.12825302528E+02  0.31730351424E+01  0.20964154368E+02  0.24780078800E+02  0.00000000000E+00 0.  1.
<mgrwt>
<rscale>  0 0.14802395E+04</rscale>
<asrwt>0</asrwt>
<pdfrwt beam="1">  1        2 0.96867761E-01 0.14802395E+04</pdfrwt>
<pdfrwt beam="2">  1       -1 0.13384373E+00 0.14802395E+04</pdfrwt>
<totfact> 0.24350309E+01</totfact>
</mgrwt>
</event>
<event>
12    6  0.1462228E-007  0.1413398E+04  0.7818608E-02  0.8944177E-01
         -1   -1    0    0    0  501 -0.00000000000E+00  0.00000000000E+00  0.47136754521E+03  0.47136754521E+03  0.00000000000E+00 0.  1.
          2   -1    0    0  501    0  0.00000000000E+00 -0.00000000000E+00 -0.10595201568E+04  0.10595201568E+04  0.00000000000E+00 0. -1.
         24    2    1    2    0    0 -0.38417187954E+03  0.65537260876E+02 -0.31771847694E+03  0.50915373719E+03  0.80058303252E+02 0.  0.
        254    2    1    2    0    0  0.38417187954E+03 -0.65537260876E+02 -0.27043413467E+03  0.10217339648E+04  0.90494337287E+03 0.  0.
         23    2    4    4    0    0  0.19431484749E+03  0.23763164250E+03 -0.49504795012E+03  0.58948810510E+03  0.90535604351E+02 0.  0.
         23    2    4    4    0    0  0.18985703204E+03 -0.30316890338E+03  0.22461381545E+03  0.43224585973E+03  0.91804360316E+02 0.  0.
          4    1    3    3  502    0 -0.87449859483E+02 -0.11024781747E+02 -0.45151783344E+02  0.99033869334E+02  0.00000000000E+00 0. -1.
         -3    1    3    3    0  502 -0.29672202005E+03  0.76562042623E+02 -0.27256669360E+03  0.41011986786E+03  0.00000000000E+00 0.  1.
         11    1    5    5    0    0  0.17822685628E+03  0.18493895988E+03 -0.34845087612E+03  0.43288017309E+03  0.00000000000E+00 0. -1.
        -11    1    5    5    0    0  0.16087991216E+02  0.52692682617E+02 -0.14659707400E+03  0.15660793201E+03  0.00000000000E+00 0.  1.
          2    1    6    6  503    0  0.10941914433E+02 -0.90916548740E+02  0.50781307655E+02  0.10471048435E+03  0.00000000000E+00 0. -1.
         -2    1    6    6    0  503  0.17891511761E+03 -0.21225235464E+03  0.17383250780E+03  0.32753537538E+03  0.00000000000E+00 0.  1.
<mgrwt>
<rscale>  0 0.14133979E+04</rscale>
<asrwt>0</asrwt>
<pdfrwt beam="1">  1        2 0.16300310E+00 0.14133979E+04</pdfrwt>
<pdfrwt beam="2">  1       -1 0.72518084E-01 0.14133979E+04</pdfrwt>
<totfact> 0.49121934E+01</totfact>
</mgrwt>
</event>
<event>
12    6  0.1462228E-007  0.1256962E+04  0.7818608E-02  0.9064409E-01
         -3   -1    0    0    0  501 -0.00000000000E+00  0.00000000000E+00  0.74737194860E+03  0.74737194860E+03  0.00000000000E+00 0.  1.
          4   -1    0    0  501    0  0.00000000000E+00 -0.00000000000E+00 -0.52850279103E+03  0.52850279103E+03  0.00000000000E+00 0. -1.
         24    2    1    2    0    0 -0.15740002507E+02 -0.81692669910E+02  0.34513818862E+03  0.36388577836E+03  0.79818860281E+02 0.  0.
        254    2    1    2    0    0  0.15740002507E+02  0.81692669910E+02 -0.12626903105E+03  0.91198896127E+03  0.89936564160E+03 0.  0.
         23    2    4    4    0    0 -0.26968298320E+03  0.17055576282E+03 -0.38355737937E+03  0.50716283215E+03  0.90992831567E+02 0.  0.
         23    2    4    4    0    0  0.28542298570E+03 -0.88863092906E+02  0.25728834832E+03  0.40482612912E+03  0.91235796628E+02 0.  0.
          4    1    3    3  502    0 -0.55435815876E+01  0.15905071003E+02  0.60857197207E+02  0.63145079241E+02  0.00000000000E+00 0. -1.
         -3    1    3    3    0  502 -0.10196420919E+02 -0.97597740913E+02  0.28428099141E+03  0.30074069912E+03  0.00000000000E+00 0.  1.
         11    1    5    5    0    0 -0.13748133939E+03  0.99272042291E+02 -0.27014441220E+03  0.31895777229E+03  0.00000000000E+00 0.  1.
        -11    1    5    5    0    0 -0.13220164381E+03  0.71283720525E+02 -0.11341296716E+03  0.18820505986E+03  0.00000000000E+00 0. -1.
          1    1    6    6  503    0  0.48762530105E+02 -0.13464625302E+02  0.96467188484E+02  0.10892657587E+03  0.00000000000E+00 0. -1.
         -1    1    6    6    0  503  0.23666045560E+03 -0.75398467604E+02  0.16082115983E+03  0.29589955325E+03  0.00000000000E+00 0.  1.
<mgrwt>
<rscale>  0 0.12569617E+04</rscale>
<asrwt>0</asrwt>
<pdfrwt beam="1">  1        4 0.81308122E-01 0.12569617E+04</pdfrwt>
<pdfrwt beam="2">  1       -3 0.11498030E+00 0.12569617E+04</pdfrwt>
<totfact> 0.18851139E+00</totfact>
</mgrwt>
</event>
<event>
12    6  0.1462228E-007  0.2296035E+04  0.7818608E-02  0.8479486E-01
         -1   -1    0    0    0  501 -0.00000000000E+00  0.00000000000E+00  0.68383123717E+03  0.68383123717E+03  0.00000000000E+00 0.  1.
          2   -1    0    0  501    0  0.00000000000E+00 -0.00000000000E+00 -0.19272940745E+04  0.19272940745E+04  0.00000000000E+00 0. -1.
         24    2    1    2    0    0 -0.31168246766E+02  0.74710405924E+03  0.19319769408E+03  0.77642222877E+03  0.79813491195E+02 0.  0.
        254    2    1    2    0    0  0.31168246766E+02 -0.74710405924E+03 -0.14366605314E+04  0.18347030830E+04  0.86197794927E+03 0.  0.
         23    2    4    4    0    0 -0.11936659998E+03 -0.40557143524E+02 -0.94218053680E+03  0.95491349363E+03  0.90897465936E+02 0.  0.
         23    2    4    4    0    0  0.15053484674E+03 -0.70654691572E+03 -0.49447999465E+03  0.87978958932E+03  0.87464119353E+02 0.  0.
          4    1    3    3  502    0  0.68261496535E+01  0.42930049113E+03  0.78800637478E+02  0.43652611431E+03  0.00000000000E+00 0. -1.
         -3    1    3    3    0  502 -0.37994396419E+02  0.31780356811E+03  0.11439705660E+03  0.33989611446E+03  0.00000000000E+00 0.  1.
         11    1    5    5    0    0 -0.11343889837E+03 -0.47974004519E+02 -0.59553723249E+03  0.60814018455E+03  0.00000000000E+00 0. -1.
        -11    1    5    5    0    0 -0.59277016032E+01  0.74168609948E+01 -0.34664330431E+03  0.34677330908E+03  0.00000000000E+00 0.  1.
          1    1    6    6  503    0 -0.44497715325E+01 -0.10899574606E+03 -0.93461924160E+02  0.14364889277E+03  0.00000000000E+00 0. -1.
         -1    1    6    6    0  503  0.15498461828E+03 -0.59755116966E+03 -0.40101807049E+03  0.73614069656E+03  0.00000000000E+00 0.  1.
<mgrwt>
<rscale>  0 0.22960347E+04</rscale>
<asrwt>0</asrwt>
<pdfrwt beam="1">  1        2 0.29650678E+00 0.22960347E+04</pdfrwt>
<pdfrwt beam="2">  1       -1 0.10520481E+00 0.22960347E+04</pdfrwt>
<totfact> 0.64148573E+00</totfact>
</mgrwt>
</event>
<event>
12    6  0.1462228E-007  0.1878975E+04  0.7818608E-02  0.8665393E-01
         -1   -1    0    0    0  501 -0.00000000000E+00  0.00000000000E+00  0.12095810170E+04  0.12095810170E+04  0.00000000000E+00 0.  1.
          2   -1    0    0  501    0  0.00000000000E+00 -0.00000000000E+00 -0.72970441320E+03  0.72970441320E+03  0.00000000000E+00 0. -1.
         24    2    1    2    0    0 -0.41611736414E+03 -0.29237946474E+03 -0.34620990515E+03  0.61892326295E+03  0.67566965703E+02 0.  0.
        254    2    1    2    0    0  0.41611736414E+03  0.29237946474E+03  0.82608650899E+03  0.13203621673E+04  0.89571084639E+03 0.  0.
         23    2    4    4    0    0  0.35520686722E+03  0.37843082105E+03  0.98137774477E+03  0.11135519946E+04  0.86683111469E+02 0.  0.
         23    2    4    4    0    0  0.60910496920E+02 -0.86051356309E+02 -0.15529123578E+03  0.20681017273E+03  0.86834066342E+02 0.  0.
          4    1    3    3  502    0 -0.34466739677E+03 -0.21001103522E+03 -0.26259434628E+03  0.48151431963E+03  0.00000000000E+00 0. -1.
         -3    1    3    3    0  502 -0.71449967372E+02 -0.82368429523E+02 -0.83615558873E+02  0.13740894332E+03  0.00000000000E+00 0.  1.
         11    1    5    5    0    0  0.42937931517E+02  0.15165809372E+02  0.62832058890E+02  0.77598552572E+02  0.00000000000E+00 0. -1.
        -11    1    5    5    0    0  0.31226893570E+03  0.36326501168E+03  0.91854568588E+03  0.10359534420E+04  0.00000000000E+00 0.  1.
          4    1    6    6  503    0  0.18450542746E+02  0.13702554994E+02 -0.52945934873E+02  0.57718753976E+02  0.00000000000E+00 0. -1.
         -4    1    6    6    0  503  0.42459954174E+02 -0.99753911303E+02 -0.10234530091E+03  0.14909141876E+03  0.00000000000E+00 0.  1.
<mgrwt>
<rscale>  0 0.18789748E+04</rscale>
<asrwt>0</asrwt>
<pdfrwt beam="1">  1        2 0.11226222E+00 0.18789748E+04</pdfrwt>
<pdfrwt beam="2">  1       -1 0.18608939E+00 0.18789748E+04</pdfrwt>
<totfact> 0.78346084E+00</totfact>
</mgrwt>
</event>
<event>
12    6  0.1462228E-007  0.2459611E+04  0.7818608E-02  0.8417517E-01
          2   -1    0    0  501    0  0.00000000000E+00  0.00000000000E+00  0.38733547628E+04  0.38733547628E+04  0.00000000000E+00 0. -1.
         -3   -1    0    0    0  501 -0.00000000000E+00 -0.00000000000E+00 -0.39046800658E+03  0.39046800658E+03  0.00000000000E+00 0.  1.
         24    2    1    2    0    0 -0.39104576011E+03 -0.84727788343E+03  0.62913944691E+03  0.11282836811E+04  0.80068864857E+02 0.  0.
        254    2    1    2    0    0  0.39104576011E+03  0.84727788343E+03  0.28537473093E+04  0.31355390883E+04  0.90384460528E+03 0.  0.
         23    2    4    4    0    0  0.50911321203E+03  0.45191987994E+03  0.87608200847E+03  0.11133078741E+04  0.92232837821E+02 0.  0.
         23    2    4    4    0    0 -0.11806745191E+03  0.39535800349E+03  0.19776653009E+04  0.20222312142E+04  0.89505125162E+02 0.  0.
          4    1    3    3  502    0 -0.47790170016E+02 -0.14246837904E+03  0.13181887643E+03  0.19989336047E+03  0.00000000000E+00 0. -1.
         -3    1    3    3    0  502 -0.34325559010E+03 -0.70480950439E+03  0.49732057048E+03  0.92839032062E+03  0.00000000000E+00 0.  1.
         11    1    5    5    0    0  0.47956799915E+03  0.42471438766E+03  0.78114796463E+03  0.10102276573E+04  0.00000000000E+00 0. -1.
        -11    1    5    5    0    0  0.29545212875E+02  0.27205492274E+02  0.94934043846E+02  0.10308021680E+03  0.00000000000E+00 0.  1.
          3    1    6    6  503    0 -0.99054549186E+02  0.36729929018E+03  0.18964126319E+04  0.19341927108E+04  0.00000000000E+00 0. -1.
         -3    1    6    6    0  503 -0.19012902727E+02  0.28058713316E+02  0.81252668955E+02  0.88038503369E+02  0.00000000000E+00 0.  1.
<mgrwt>
<rscale>  0 0.24596106E+04</rscale>
<asrwt>0</asrwt>
<pdfrwt beam="1">  1        2 0.59590071E+00 0.24596106E+04</pdfrwt>
<pdfrwt beam="2">  1       -3 0.60072004E-01 0.24596106E+04</pdfrwt>
<totfact> 0.67689052E-01</totfact>
</mgrwt>
</event>
<event>
12    6  0.1462228E-007  0.1499158E+04  0.7818608E-02  0.8885013E-01
          2   -1    0    0  501    0  0.00000000000E+00  0.00000000000E+00  0.31283026098E+04  0.31283026098E+04  0.00000000000E+00 0. -1.
         -1   -1    0    0    0  501 -0.00000000000E+00 -0.00000000000E+00 -0.17960814394E+03  0.17960814394E+03  0.00000000000E+00 0.  1.
         24    2    1    2    0    0  0.11321752987E+03  0.39316156935E+03  0.15884669179E+04  0.16423376735E+04  0.81557683864E+02 0.  0.
        254    2    1    2    0    0 -0.11321752987E+03 -0.39316156935E+03  0.13602275480E+04  0.16655730803E+04  0.86978185471E+03 0.  0.
         23    2    4    4    0    0  0.17913376988E+02  0.22914732544E+03  0.70818660236E+03  0.75001275673E+03  0.90340941184E+02 0.  0.
         23    2    4    4    0    0 -0.13113090686E+03 -0.62230889479E+03  0.65204094559E+03  0.91556032353E+03  0.92895834250E+02 0.  0.
          4    1    3    3  502    0  0.83081441064E+02  0.35241747846E+03  0.14602133424E+04  0.15044346481E+04  0.00000000000E+00 0. -1.
         -3    1    3    3    0  502  0.30136088808E+02  0.40744090892E+02  0.12825357548E+03  0.13790302540E+03  0.00000000000E+00 0.  1.
         11    1    5    5    0    0  0.13005472939E+02  0.23718044276E+03  0.67969306627E+03  0.72000442296E+03  0.00000000000E+00 0. -1.
        -11    1    5    5    0    0  0.49079040490E+01 -0.80331173194E+01  0.28493536096E+02  0.30008333764E+02  0.00000000000E+00 0.  1.
          3    1    6    6  503    0 -0.10007119588E+03 -0.50828462707E+03  0.47594622234E+03  0.70348582993E+03  0.00000000000E+00 0. -1.
         -3    1    6    6    0  503 -0.31059710983E+02 -0.11402426772E+03  0.17609472325E+03  0.21207449360E+03  0.00000000000E+00 0.  1.
<mgrwt>
<rscale>  0 0.14991579E+04</rscale>
<asrwt>0</asrwt>
<pdfrwt beam="1">  1        2 0.48127728E+00 0.14991579E+04</pdfrwt>
<pdfrwt beam="2">  1       -1 0.27632024E-01 0.14991579E+04</pdfrwt>
<totfact> 0.18876667E+01</totfact>
</mgrwt>
</event>
<event>
12    6  0.1462228E-007  0.1199686E+04  0.7818608E-02  0.9113132E-01
          2   -1    0    0  501    0  0.00000000000E+00  0.00000000000E+00  0.49101811405E+03  0.49101811405E+03  0.00000000000E+00 0. -1.
         -1   -1    0    0    0  501 -0.00000000000E+00 -0.00000000000E+00 -0.73278628681E+03  0.73278628681E+03  0.00000000000E+00 0.  1.
         24    2    1    2    0    0  0.23527797265E+03  0.10524905232E+02 -0.14768426501E+03  0.28810022992E+03  0.75661101662E+02 0.  0.
        254    2    1    2    0    0 -0.23527797265E+03 -0.10524905232E+02 -0.94083907748E+02  0.93570417094E+03  0.90067975206E+03 0.  0.
         23    2    4    4    0    0 -0.21704982929E+03  0.17509386682E+03  0.34343296512E+03  0.45181191779E+03  0.91756835897E+02 0.  0.
         23    2    4    4    0    0 -0.18228143359E+02 -0.18561877205E+03 -0.43751687287E+03  0.48389225314E+03  0.89129708042E+02 0.  0.
          2    1    3    3  502    0  0.16117495879E+03 -0.14199038382E+02 -0.65050364629E+02  0.17438615188E+03  0.00000000000E+00 0. -1.
         -1    1    3    3    0  502  0.74103013864E+02  0.24723943614E+02 -0.82633900382E+02  0.11371407804E+03  0.00000000000E+00 0.  1.
         11    1    5    5    0    0 -0.12097720239E+03  0.43896824236E+02  0.17988660006E+03  0.22118228581E+03  0.00000000000E+00 0. -1.
        -11    1    5    5    0    0 -0.96072626898E+02  0.13119704258E+03  0.16354636507E+03  0.23062963198E+03  0.00000000000E+00 0.  1.
          1    1    6    6  503    0  0.17938971187E+02 -0.16302550191E+03 -0.34242063915E+03  0.37967224691E+03  0.00000000000E+00 0. -1.
         -1    1    6    6    0  503 -0.36167114546E+02 -0.22593270140E+02 -0.95096233726E+02  0.10422000623E+03  0.00000000000E+00 0.  1.
<mgrwt>
<rscale>  0 0.11996855E+04</rscale>
<asrwt>0</asrwt>
<pdfrwt beam="1">  1        2 0.75541249E-01 0.11996855E+04</pdfrwt>
<pdfrwt beam="2">  1       -1 0.11273635E+00 0.11996855E+04</pdfrwt>
<totfact> 0.51118137E+01</totfact>
</mgrwt>
</event>
<event>
12    6  0.1462228E-007  0.1935653E+04  0.7818608E-02  0.8637310E-01
         -1   -1    0    0    0  501 -0.00000000000E+00  0.00000000000E+00  0.39869540350E+03  0.39869540350E+03  0.00000000000E+00 0.  1.
          2   -1    0    0  501    0  0.00000000000E+00 -0.00000000000E+00 -0.23493824888E+04  0.23493824888E+04  0.00000000000E+00 0. -1.
         24    2    1    2    0    0 -0.95328461722E+02 -0.73627311268E+03 -0.55360095529E+03  0.92959782606E+03  0.80575979439E+02 0.  0.
        254    2    1    2    0    0  0.95328461722E+02  0.73627311268E+03 -0.13970861300E+04  0.18184800662E+04  0.89656817063E+03 0.  0.
         23    2    4    4    0    0 -0.14884244881E+03  0.76029823928E+03 -0.61311298994E+03  0.99217938003E+03  0.91131204890E+02 0.  0.
         23    2    4    4    0    0  0.24417091053E+03 -0.24025126602E+02 -0.78397314008E+03  0.82630068622E+03  0.89231717581E+02 0.  0.
          2    1    3    3  502    0 -0.42542812530E+01 -0.31201156857E+03 -0.25303987477E+03  0.40174431677E+03  0.00000000000E+00 0. -1.
         -3    1    3    3    0  502 -0.91074180469E+02 -0.42426154411E+03 -0.30056108052E+03  0.52785350930E+03  0.00000000000E+00 0.  1.
         11    1    5    5    0    0 -0.12444314753E+03  0.70544374202E+03 -0.58933497922E+03  0.92760589038E+03  0.00000000000E+00 0. -1.
        -11    1    5    5    0    0 -0.24399301281E+02  0.54854497257E+02 -0.23778010715E+02  0.64573489653E+02  0.00000000000E+00 0.  1.
          3    1    6    6  503    0  0.23783361992E+03 -0.37280850067E+02 -0.68130317709E+03  0.72258474358E+03  0.00000000000E+00 0. -1.
         -3    1    6    6    0  503  0.63372906143E+01  0.13255723465E+02 -0.10266996299E+03  0.10371594263E+03  0.00000000000E+00 0.  1.
<mgrwt>
<rscale>  0 0.19356529E+04</rscale>
<asrwt>0</asrwt>
<pdfrwt beam="1">  1        2 0.36144346E+00 0.19356529E+04</pdfrwt>
<pdfrwt beam="2">  1       -1 0.61337754E-01 0.19356529E+04</pdfrwt>
<totfact> 0.12184158E+01</totfact>
</mgrwt>
</event>
<event>
12    6  0.1462228E-007  0.1769473E+04  0.7818608E-02  0.8722704E-01
         -1   -1    0    0    0  501 -0.00000000000E+00  0.00000000000E+00  0.85576265301E+03  0.85576265301E+03  0.00000000000E+00 0.  1.
          2   -1    0    0  501    0  0.00000000000E+00 -0.00000000000E+00 -0.91469179652E+03  0.91469179652E+03  0.00000000000E+00 0. -1.
         24    2    1    2    0    0 -0.13746921876E+03 -0.21273799762E+03  0.57934542530E+03  0.63723007445E+03  0.79156833182E+02 0.  0.
        254    2    1    2    0    0  0.13746921876E+03  0.21273799762E+03 -0.63827456881E+03  0.11332243751E+04  0.90146980945E+03 0.  0.
         23    2    4    4    0    0 -0.21717486797E+03 -0.24857766735E+03 -0.17820716630E+03  0.38622156804E+03  0.91943055808E+02 0.  0.
         23    2    4    4    0    0  0.35464408673E+03  0.46131566498E+03 -0.46006740251E+03  0.74700280704E+03  0.88128360229E+02 0.  0.
          4    1    3    3  502    0 -0.91675579431E+01 -0.69186345914E+02  0.19991469583E+03  0.21174673596E+03  0.00000000000E+00 0. -1.
         -3    1    3    3    0  502 -0.12830166081E+03 -0.14355165171E+03  0.37943072946E+03  0.42548333849E+03  0.00000000000E+00 0.  1.
         11    1    5    5    0    0 -0.19782556803E+03 -0.18190035579E+03 -0.16557248762E+03  0.31565320125E+03  0.00000000000E+00 0. -1.
        -11    1    5    5    0    0 -0.19349299945E+02 -0.66677311566E+02 -0.12634678677E+02  0.70568366789E+02  0.00000000000E+00 0.  1.
          4    1    6    6  503    0  0.35977117202E+03  0.45418571044E+03 -0.45597128862E+03  0.73731253335E+03  0.00000000000E+00 0. -1.
         -4    1    6    6    0  503 -0.51270852937E+01  0.71299545390E+01 -0.40961138856E+01  0.96902736959E+01  0.00000000000E+00 0.  1.
<mgrwt>
<rscale>  0 0.17694735E+04</rscale>
<asrwt>0</asrwt>
<pdfrwt beam="1">  1        2 0.14072181E+00 0.17694735E+04</pdfrwt>
<pdfrwt beam="2">  1       -1 0.13165579E+00 0.17694735E+04</pdfrwt>
<totfact> 0.15202729E+01</totfact>
</mgrwt>
</event>
<event>
12    6  0.1462228E-007  0.2064075E+04  0.7818608E-02  0.8577236E-01
          2   -1    0    0  501    0  0.00000000000E+00  0.00000000000E+00  0.36853420882E+03  0.36853420882E+03  0.00000000000E+00 0. -1.
         -1   -1    0    0    0  501 -0.00000000000E+00 -0.00000000000E+00 -0.28901015539E+04  0.28901015539E+04  0.00000000000E+00 0.  1.
         24    2    1    2    0    0 -0.33813861991E+03  0.73648517409E+03 -0.73118899854E+03  0.10963757594E+04  0.10321974744E+03 0.  0.
        254    2    1    2    0    0  0.33813861991E+03 -0.73648517409E+03 -0.17903783466E+04  0.21622600034E+04  0.90175692976E+03 0.  0.
         23    2    4    4    0    0 -0.19515112304E+03 -0.55444538499E+03 -0.61135818024E+03  0.85293506874E+03  0.90806173737E+02 0.  0.
         23    2    4    4    0    0  0.53328974294E+03 -0.18203978909E+03 -0.11790201663E+04  0.13093249346E+04  0.81895036834E+02 0.  0.
          2    1    3    3  502    0 -0.33123383598E+03  0.65990564984E+03 -0.68166299796E+03  0.10049157992E+04  0.00000000000E+00 0. -1.
         -3    1    3    3    0  502 -0.69047839249E+01  0.76579524251E+02 -0.49526000577E+02  0.91459960139E+02  0.00000000000E+00 0.  1.
         11    1    5    5    0    0 -0.24174015142E+02 -0.17155684805E+03 -0.21287649750E+03  0.27446773637E+03  0.00000000000E+00 0.  1.
        -11    1    5    5    0    0 -0.17097710789E+03 -0.38288853694E+03 -0.39848168274E+03  0.57846733237E+03  0.00000000000E+00 0. -1.
          4    1    6    6  503    0  0.26233169747E+03 -0.10709942348E+03 -0.67784820051E+03  0.73468795345E+03  0.00000000000E+00 0. -1.
         -4    1    6    6    0  503  0.27095804547E+03 -0.74940365616E+02 -0.50117196583E+03  0.57463698118E+03  0.00000000000E+00 0.  1.
<mgrwt>
<rscale>  0 0.20640749E+04</rscale>
<asrwt>0</asrwt>
<pdfrwt beam="1">  1        2 0.56697571E-01 0.20640749E+04</pdfrwt>
<pdfrwt beam="2">  1       -1 0.44463101E+00 0.20640749E+04</pdfrwt>
<totfact> 0.32483365E-01</totfact>
</mgrwt>
</event>
<event>
12    6  0.1462228E-007  0.1814577E+04  0.7818608E-02  0.8698586E-01
         -1   -1    0    0    0  501 -0.00000000000E+00  0.00000000000E+00  0.46711657842E+03  0.46711657842E+03  0.00000000000E+00 0.  1.
          2   -1    0    0  501    0  0.00000000000E+00 -0.00000000000E+00 -0.17622411914E+04  0.17622411914E+04  0.00000000000E+00 0. -1.
         24    2    1    2    0    0  0.23878396633E+03 -0.59839320320E+03 -0.21661128914E+03  0.68421728064E+03  0.78362161422E+02 0.  0.
        254    2    1    2    0    0 -0.23878396633E+03  0.59839320320E+03 -0.10785133238E+04  0.15451404891E+04  0.89954206868E+03 0.  0.
         23    2    4    4    0    0 -0.51879190341E+02 -0.22959970195E+03 -0.26421534962E+03  0.36579401258E+03  0.92671652328E+02 0.  0.
         23    2    4    4    0    0 -0.18690477599E+03  0.82799290514E+03 -0.81429797419E+03  0.11793464766E+04  0.85271769828E+02 0.  0.
          2    1    3    3  502    0  0.73149006500E+01 -0.37665228885E+02  0.43243291222E+01  0.38611877199E+02  0.00000000000E+00 0. -1.
         -1    1    3    3    0  502  0.23146906568E+03 -0.56072797431E+03 -0.22093561826E+03  0.64560540345E+03  0.00000000000E+00 0.  1.
         11    1    5    5    0    0  0.11934421859E+02 -0.15893942283E+01 -0.31848618597E+02  0.34048364214E+02  0.00000000000E+00 0. -1.
        -11    1    5    5    0    0 -0.63813612200E+02 -0.22801030772E+03 -0.23236673102E+03  0.33174564837E+03  0.00000000000E+00 0.  1.
          3    1    6    6  503    0 -0.27926177607E+02  0.44205216521E+02 -0.65043205644E+02  0.83454126104E+02  0.00000000000E+00 0. -1.
         -3    1    6    6    0  503 -0.15897859838E+03  0.78378768862E+03 -0.74925476855E+03  0.10958923505E+04  0.00000000000E+00 0.  1.
<mgrwt>
<rscale>  0 0.18145766E+04</rscale>
<asrwt>0</asrwt>
<pdfrwt beam="1">  1        2 0.27111403E+00 0.18145766E+04</pdfrwt>
<pdfrwt beam="2">  1       -1 0.71864088E-01 0.18145766E+04</pdfrwt>
<totfact> 0.19006746E+01</totfact>
</mgrwt>
</event>
<event>
12    6  0.1462228E-007  0.1054270E+04  0.7818608E-02  0.9250947E-01
          2   -1    0    0  501    0  0.00000000000E+00  0.00000000000E+00  0.15196589714E+03  0.15196589714E+03  0.00000000000E+00 0. -1.
         -1   -1    0    0    0  501 -0.00000000000E+00 -0.00000000000E+00 -0.18285092283E+04  0.18285092283E+04  0.00000000000E+00 0.  1.
         24    2    1    2    0    0 -0.58459598651E+02  0.66183223955E+02 -0.78430326322E+02  0.14238272513E+03  0.79522201435E+02 0.  0.
        254    2    1    2    0    0  0.58459598651E+02 -0.66183223955E+02 -0.15981130049E+04  0.18380924003E+04  0.90378136296E+03 0.  0.
         23    2    4    4    0    0 -0.19869455364E+03  0.13971594340E+03 -0.64210869388E+02  0.26598381892E+03  0.87317155793E+02 0.  0.
         23    2    4    4    0    0  0.25715415229E+03 -0.20589916735E+03 -0.15339021355E+04  0.15721085814E+04  0.10073184874E+03 0.  0.
          4    1    3    3  502    0 -0.36300759517E+02  0.80729300654E+01  0.58450991178E+01  0.37644156586E+02  0.00000000000E+00 0. -1.
         -3    1    3    3    0  502 -0.22158839134E+02  0.58110293889E+02 -0.84275425440E+02  0.10473856854E+03  0.00000000000E+00 0.  1.
         11    1    5    5    0    0 -0.85657824938E+01 -0.50631901678E+00 -0.25097496544E+02  0.26523825544E+02  0.00000000000E+00 0.  1.
        -11    1    5    5    0    0 -0.19012877115E+03  0.14022226242E+03 -0.39113372844E+02  0.23945999338E+03  0.00000000000E+00 0. -1.
          2    1    6    6  503    0  0.24200654320E+03 -0.14838678153E+03 -0.13132715685E+04  0.13436026260E+04  0.00000000000E+00 0. -1.
         -2    1    6    6    0  503  0.15147609086E+02 -0.57512385824E+02 -0.22063056697E+03  0.22850595543E+03  0.00000000000E+00 0.  1.
<mgrwt>
<rscale>  0 0.10542695E+04</rscale>
<asrwt>0</asrwt>
<pdfrwt beam="1">  1        2 0.23379371E-01 0.10542695E+04</pdfrwt>
<pdfrwt beam="2">  1       -1 0.28130909E+00 0.10542695E+04</pdfrwt>
<totfact> 0.11931696E+01</totfact>
</mgrwt>
</event>
<event>
12    6  0.1462228E-007  0.1706882E+04  0.7818608E-02  0.8757449E-01
         -1   -1    0    0    0  501 -0.00000000000E+00  0.00000000000E+00  0.45870327506E+03  0.45870327506E+03  0.00000000000E+00 0.  1.
          2   -1    0    0  501    0  0.00000000000E+00 -0.00000000000E+00 -0.15878698849E+04  0.15878698849E+04  0.00000000000E+00 0. -1.
         24    2    1    2    0    0  0.35342614728E+03  0.43242702687E+03 -0.68670875078E+03  0.88884661765E+03  0.81093934175E+02 0.  0.
        254    2    1    2    0    0 -0.35342614728E+03 -0.43242702687E+03 -0.44245785904E+03  0.11577265423E+04  0.91250129565E+03 0.  0.
         23    2    4    4    0    0 -0.18890184534E+03  0.18963026930E+03  0.11036323214E+03  0.30351484276E+03  0.91091550433E+02 0.  0.
         23    2    4    4    0    0 -0.16452430194E+03 -0.62205729617E+03 -0.55282109118E+03  0.85421169953E+03  0.10021448558E+03 0.  0.
          4    1    3    3  502    0  0.32532663405E+03  0.42492537051E+03 -0.65479207014E+03  0.84566639075E+03  0.00000000000E+00 0. -1.
         -1    1    3    3    0  502  0.28099513232E+02  0.75016563579E+01 -0.31916680635E+02  0.43180226895E+02  0.00000000000E+00 0.  1.
         11    1    5    5    0    0 -0.16060563241E+03  0.19615279573E+03  0.10230176784E+03  0.27337838272E+03  0.00000000000E+00 0.  1.
        -11    1    5    5    0    0 -0.28296212928E+02 -0.65225264314E+01  0.80614643015E+01  0.30136460041E+02  0.00000000000E+00 0. -1.
          4    1    6    6  503    0 -0.10026242199E+03 -0.20470038213E+03 -0.21654629570E+03  0.31439958315E+03  0.00000000000E+00 0.  1.
         -4    1    6    6    0  503 -0.64261879945E+02 -0.41735691404E+03 -0.33627479548E+03  0.53981211638E+03  0.00000000000E+00 0. -1.
<mgrwt>
<rscale>  0 0.17068815E+04</rscale>
<asrwt>0</asrwt>
<pdfrwt beam="1">  1        2 0.24428768E+00 0.17068815E+04</pdfrwt>
<pdfrwt beam="2">  1       -1 0.70569734E-01 0.17068815E+04</pdfrwt>
<totfact> 0.24904449E+01</totfact>
</mgrwt>
</event>
<event>
12    6  0.1462228E-007  0.1437764E+04  0.7818608E-02  0.8926928E-01
          2   -1    0    0  501    0  0.00000000000E+00  0.00000000000E+00  0.48253760025E+03  0.48253760025E+03  0.00000000000E+00 0. -1.
         -1   -1    0    0    0  501 -0.00000000000E+00 -0.00000000000E+00 -0.10709864151E+04  0.10709864151E+04  0.00000000000E+00 0.  1.
         24    2    1    2    0    0 -0.30607739430E+03 -0.19541407749E+03  0.72595347470E+02  0.37787295776E+03  0.75152210498E+02 0.  0.
        254    2    1    2    0    0  0.30607739430E+03  0.19541407749E+03 -0.66104416235E+03  0.11756510576E+04  0.90183479183E+03 0.  0.
         23    2    4    4    0    0  0.99610904651E+02  0.22166052219E+03 -0.84444275608E+03  0.88355015967E+03  0.92312496090E+02 0.  0.
         23    2    4    4    0    0  0.20646648965E+03 -0.26246444699E+02  0.18339859373E+03  0.29210089796E+03  0.91491000626E+02 0.  0.
          4    1    3    3  502    0 -0.27988235750E+02 -0.32590825221E+02  0.30941309951E+02  0.52942118303E+02  0.00000000000E+00 0. -1.
         -3    1    3    3    0  502 -0.27808915855E+03 -0.16282325227E+03  0.41654037519E+02  0.32493083945E+03  0.00000000000E+00 0.  1.
         11    1    5    5    0    0  0.55596863057E+02  0.13504645294E+03 -0.64976938945E+03  0.66597959060E+03  0.00000000000E+00 0.  1.
        -11    1    5    5    0    0  0.44014041594E+02  0.86614069249E+02 -0.19467336664E+03  0.21757056907E+03  0.00000000000E+00 0. -1.
          4    1    6    6  503    0  0.31972010932E+02  0.19742047351E+02  0.42383007901E+01  0.37814297696E+02  0.00000000000E+00 0. -1.
         -4    1    6    6    0  503  0.17449447872E+03 -0.45988492050E+02  0.17916029294E+03  0.25428660026E+03  0.00000000000E+00 0.  1.
<mgrwt>
<rscale>  0 0.14377638E+04</rscale>
<asrwt>0</asrwt>
<pdfrwt beam="1">  1        2 0.74236554E-01 0.14377638E+04</pdfrwt>
<pdfrwt beam="2">  1       -1 0.16476714E+00 0.14377638E+04</pdfrwt>
<totfact> 0.19164548E+01</totfact>
</mgrwt>
</event>
<event>
12    6  0.1462228E-007  0.1498301E+04  0.7818608E-02  0.8885584E-01
          2   -1    0    0  501    0  0.00000000000E+00  0.00000000000E+00  0.22226160067E+04  0.22226160067E+04  0.00000000000E+00 0. -1.
         -1   -1    0    0    0  501 -0.00000000000E+00 -0.00000000000E+00 -0.25250714852E+03  0.25250714852E+03  0.00000000000E+00 0.  1.
         24    2    1    2    0    0  0.36117223806E+03  0.18733588623E+03  0.10175334122E+04  0.10987115212E+04  0.79073650379E+02 0.  0.
        254    2    1    2    0    0 -0.36117223806E+03 -0.18733588623E+03  0.95257544604E+03  0.13764116340E+04  0.90640437225E+03 0.  0.
         23    2    4    4    0    0 -0.30178853040E+03 -0.49867791353E+03  0.34354982918E+03  0.68329000744E+03  0.95408440985E+02 0.  0.
         23    2    4    4    0    0 -0.59383707661E+02  0.31134202730E+03  0.60902561686E+03  0.69312162658E+03  0.95105754496E+02 0.  0.
          2    1    3    3  502    0  0.88347888823E+02  0.57674533189E+02  0.35941682644E+03  0.37458264291E+03  0.00000000000E+00 0. -1.
         -1    1    3    3    0  502  0.27282434924E+03  0.12966135304E+03  0.65811658574E+03  0.72412887833E+03  0.00000000000E+00 0.  1.
         11    1    5    5    0    0 -0.13862151037E+03 -0.23551128569E+03  0.21628347302E+03  0.34851116126E+03  0.00000000000E+00 0.  1.
        -11    1    5    5    0    0 -0.16316702003E+03 -0.26316662784E+03  0.12726635616E+03  0.33477884617E+03  0.00000000000E+00 0. -1.
          1    1    6    6  503    0 -0.80093200493E+02  0.20166647184E+03  0.43957869972E+03  0.49021803300E+03  0.00000000000E+00 0. -1.
         -1    1    6    6    0  503  0.20709492832E+02  0.10967555546E+03  0.16944691714E+03  0.20290359357E+03  0.00000000000E+00 0.  1.
<mgrwt>
<rscale>  0 0.14983009E+04</rscale>
<asrwt>0</asrwt>
<pdfrwt beam="1">  1        2 0.34194091E+00 0.14983009E+04</pdfrwt>
<pdfrwt beam="2">  1       -1 0.38847255E-01 0.14983009E+04</pdfrwt>
<totfact> 0.35504382E+01</totfact>
</mgrwt>
</event>
<event>
12    6  0.1462228E-007  0.2183478E+04  0.7818608E-02  0.8525336E-01
          2   -1    0    0  501    0  0.00000000000E+00  0.00000000000E+00  0.10765120936E+04  0.10765120936E+04  0.00000000000E+00 0. -1.
         -3   -1    0    0    0  501 -0.00000000000E+00 -0.00000000000E+00 -0.11071814786E+04  0.11071814786E+04  0.00000000000E+00 0.  1.
         24    2    1    2    0    0  0.34235758208E+03 -0.13981438635E+03  0.82428941399E+03  0.90628874293E+03  0.71759814000E+02 0.  0.
        254    2    1    2    0    0 -0.34235758208E+03  0.13981438635E+03 -0.85495879906E+03  0.12774048293E+04  0.87410055093E+03 0.  0.
         23    2    4    4    0    0 -0.18857044859E+03  0.43924224115E+03 -0.18485625822E+03  0.52051152121E+03  0.90927702144E+02 0.  0.
         23    2    4    4    0    0 -0.15378713349E+03 -0.29942785480E+03 -0.67010254084E+03  0.75689330807E+03  0.10267688106E+03 0.  0.
          2    1    3    3  502    0  0.34452882875E+03 -0.13259213545E+03  0.80755724971E+03  0.88793552682E+03  0.00000000000E+00 0. -1.
         -1    1    3    3    0  502 -0.21712466704E+01 -0.72222509014E+01  0.16732164283E+02  0.18353216115E+02  0.00000000000E+00 0.  1.
         11    1    5    5    0    0 -0.14699307645E+03  0.23985817052E+03 -0.12788781674E+03  0.30902135874E+03  0.00000000000E+00 0. -1.
        -11    1    5    5    0    0 -0.41577372139E+02  0.19938407063E+03 -0.56968441483E+02  0.21149016247E+03  0.00000000000E+00 0.  1.
          3    1    6    6  503    0 -0.26945542596E+02 -0.89985415012E+02 -0.10420028501E+03  0.14028947422E+03  0.00000000000E+00 0. -1.
         -3    1    6    6    0  503 -0.12684159089E+03 -0.20944243979E+03 -0.56590225583E+03  0.61660383385E+03  0.00000000000E+00 0.  1.
<mgrwt>
<rscale>  0 0.21834782E+04</rscale>
<asrwt>0</asrwt>
<pdfrwt beam="1">  1        2 0.16561724E+00 0.21834782E+04</pdfrwt>
<pdfrwt beam="2">  1       -3 0.17033561E+00 0.21834782E+04</pdfrwt>
<totfact> 0.29936618E+00</totfact>
</mgrwt>
</event>
<event>
12    6  0.1937278E-007  0.1421404E+04  0.7818608E-02  0.8938469E-01
          2   -1    0    0  501    0  0.00000000000E+00  0.00000000000E+00  0.16307881201E+04  0.16307881201E+04  0.00000000000E+00 0. -1.
         -1   -1    0    0    0  501 -0.00000000000E+00 -0.00000000000E+00 -0.30972600543E+03  0.30972600543E+03  0.00000000000E+00 0.  1.
         24    2    1    2    0    0 -0.19194810275E+03 -0.16937507023E+03 -0.61115694466E+02  0.27562961108E+03  0.81881413203E+02 0.  0.
        254    2    1    2    0    0  0.19194810275E+03  0.16937507023E+03  0.13821778091E+04  0.16648845145E+04  0.89212833259E+03 0.  0.
         23    2    4    4    0    0  0.29728764846E+03  0.13412167076E+03  0.70143238837E+02  0.34511332527E+03  0.88400027325E+02 0.  0.
         23    2    4    4    0    0 -0.10533954571E+03  0.35253399472E+02  0.13120345703E+04  0.13197711892E+04  0.89565931270E+02 0.  0.
          4    1    3    3  502    0  0.25793673829E+01 -0.36553277913E+01  0.95045043895E+01  0.10504768491E+02  0.00000000000E+00 0. -1.
         -3    1    3    3    0  502 -0.19452747013E+03 -0.16571974244E+03 -0.70620198856E+02  0.26512484259E+03  0.00000000000E+00 0.  1.
         11    1    5    5    0    0  0.29648517063E+03  0.14135103898E+03  0.62111524043E+02  0.33427745069E+03  0.00000000000E+00 0.  1.
        -11    1    5    5    0    0  0.80247783430E+00 -0.72293682139E+01  0.80317147937E+01  0.10835874583E+02  0.00000000000E+00 0. -1.
          3    1    6    6  503    0 -0.22536242241E+02  0.28525353601E+02  0.13501921695E+03  0.13982763303E+03  0.00000000000E+00 0. -1.
         -3    1    6    6    0  503 -0.82803303468E+02  0.67280458713E+01  0.11770153534E+04  0.11799435562E+04  0.00000000000E+00 0.  1.
<mgrwt>
<rscale>  0 0.14214042E+04</rscale>
<asrwt>0</asrwt>
<pdfrwt beam="1">  1        2 0.25089048E+00 0.14214042E+04</pdfrwt>
<pdfrwt beam="2">  1       -1 0.47650156E-01 0.14214042E+04</pdfrwt>
<totfact> 0.52187198E+01</totfact>
</mgrwt>
</event>
<event>
12    6  0.1462228E-007  0.1824880E+04  0.7818608E-02  0.8693179E-01
          2   -1    0    0  501    0  0.00000000000E+00  0.00000000000E+00  0.22624107815E+04  0.22624107815E+04  0.00000000000E+00 0. -1.
         -1   -1    0    0    0  501 -0.00000000000E+00 -0.00000000000E+00 -0.36799096207E+03  0.36799096207E+03  0.00000000000E+00 0.  1.
         24    2    1    2    0    0 -0.43796866855E+03  0.26730346290E+03  0.60959901469E+02  0.52291919120E+03  0.80378324392E+02 0.  0.
        254    2    1    2    0    0  0.43796866855E+03 -0.26730346290E+03  0.18334599180E+04  0.21074825524E+04  0.90368121692E+03 0.  0.
         23    2    4    4    0    0  0.34283854282E+03 -0.13690894083E+03  0.18782542845E+04  0.19163996606E+04  0.92011832662E+02 0.  0.
         23    2    4    4    0    0  0.95130125739E+02 -0.13039452207E+03 -0.44794366536E+02  0.19108289177E+03  0.91943809174E+02 0.  0.
          2    1    3    3  502    0 -0.34131743724E+03  0.21439599254E+03  0.80467504749E+02  0.41102098962E+03  0.00000000000E+00 0. -1.
         -1    1    3    3    0  502 -0.96651231310E+02  0.52907470357E+02 -0.19507603280E+02  0.11189820159E+03  0.00000000000E+00 0.  1.
         11    1    5    5    0    0  0.29719608833E+03 -0.80665683941E+02  0.15354488129E+04  0.15660253908E+04  0.00000000000E+00 0. -1.
        -11    1    5    5    0    0  0.45642454484E+02 -0.56243256887E+02  0.34280547156E+03  0.35037426979E+03  0.00000000000E+00 0.  1.
          3    1    6    6  503    0 -0.10862045302E+02 -0.53967212708E+02 -0.11571325970E+02  0.56252463594E+02  0.00000000000E+00 0. -1.
         -3    1    6    6    0  503  0.10599217104E+03 -0.76427309359E+02 -0.33223040566E+02  0.13483042818E+03  0.00000000000E+00 0.  1.
<mgrwt>
<rscale>  0 0.18248800E+04</rscale>
<asrwt>0</asrwt>
<pdfrwt beam="1">  1        2 0.34806319E+00 0.18248800E+04</pdfrwt>
<pdfrwt beam="2">  1       -1 0.56613995E-01 0.18248800E+04</pdfrwt>
<totfact> 0.16137901E+01</totfact>
</mgrwt>
</event>
<event>
12    6  0.1462228E-007  0.1917489E+04  0.7818608E-02  0.8646200E-01
         -1   -1    0    0    0  501 -0.00000000000E+00  0.00000000000E+00  0.12780921714E+04  0.12780921714E+04  0.00000000000E+00 0.  1.
          2   -1    0    0  501    0  0.00000000000E+00 -0.00000000000E+00 -0.71919007551E+03  0.71919007551E+03  0.00000000000E+00 0. -1.
         24    2    1    2    0    0 -0.33967930079E+03  0.18766189328E+03 -0.44309527011E+03  0.59443606883E+03  0.80136183818E+02 0.  0.
        254    2    1    2    0    0  0.33967930079E+03 -0.18766189328E+03  0.10019973660E+04  0.14028461781E+04  0.90187563686E+03 0.  0.
         23    2    4    4    0    0  0.71307351354E+02  0.66719829106E+02 -0.14338649835E+03  0.19636348181E+03  0.91992690606E+02 0.  0.
         23    2    4    4    0    0  0.26837194943E+03 -0.25438172239E+03  0.11453838644E+04  0.12064826963E+04  0.83443009086E+02 0.  0.
          4    1    3    3  502    0 -0.17510549658E+03  0.79574920174E+02 -0.27476256050E+03  0.33539315363E+03  0.00000000000E+00 0. -1.
         -3    1    3    3    0  502 -0.16457380421E+03  0.10808697311E+03 -0.16833270961E+03  0.25904291520E+03  0.00000000000E+00 0.  1.
         11    1    5    5    0    0  0.46676494003E+02  0.45392923579E+02 -0.14963704342E+03  0.16318841064E+03  0.00000000000E+00 0.  1.
        -11    1    5    5    0    0  0.24630857352E+02  0.21326905527E+02  0.62505450699E+01  0.33175071167E+02  0.00000000000E+00 0. -1.
          4    1    6    6  503    0  0.45173087222E+02 -0.69062694930E+01  0.14809032055E+03  0.15498079690E+03  0.00000000000E+00 0. -1.
         -4    1    6    6    0  503  0.22319886221E+03 -0.24747545290E+03  0.99729354384E+03  0.10515018994E+04  0.00000000000E+00 0.  1.
<mgrwt>
<rscale>  0 0.19174892E+04</rscale>
<asrwt>0</asrwt>
<pdfrwt beam="1">  1        2 0.11064463E+00 0.19174892E+04</pdfrwt>
<pdfrwt beam="2">  1       -1 0.19662956E+00 0.19174892E+04</pdfrwt>
<totfact> 0.67114986E+00</totfact>
</mgrwt>
</event>
<event>
12    6  0.1462228E-007  0.3303100E+04  0.7818608E-02  0.8162107E-01
         -1   -1    0    0    0  501 -0.00000000000E+00  0.00000000000E+00  0.95161105504E+03  0.95161105504E+03  0.00000000000E+00 0.  1.
          2   -1    0    0  501    0  0.00000000000E+00 -0.00000000000E+00 -0.28663158845E+04  0.28663158845E+04  0.00000000000E+00 0. -1.
         24    2    1    2    0    0  0.11960476989E+04  0.88922857506E+03 -0.12901066160E+04  0.19728737164E+04  0.81228464585E+02 0.  0.
        254    2    1    2    0    0 -0.11960476989E+04 -0.88922857506E+03 -0.62459821345E+03  0.18450532231E+04  0.89041614496E+03 0.  0.
         23    2    4    4    0    0 -0.47712322951E+03 -0.27626167445E+01 -0.49574851604E+03  0.69322525762E+03  0.84501233424E+02 0.  0.
         23    2    4    4    0    0 -0.71892446940E+03 -0.88646595832E+03 -0.12884969741E+03  0.11518279655E+04  0.86204000431E+02 0.  0.
          2    1    3    3  502    0  0.89331996547E+03  0.65187569164E+03 -0.10014601884E+04  0.14919400079E+04  0.00000000000E+00 0. -1.
         -1    1    3    3    0  502  0.30272773344E+03  0.23735288342E+03 -0.28864642761E+03  0.48093370857E+03  0.00000000000E+00 0.  1.
         11    1    5    5    0    0 -0.41399648934E+03 -0.34216568042E+01 -0.38295953928E+03  0.56397057516E+03  0.00000000000E+00 0.  1.
        -11    1    5    5    0    0 -0.63126740172E+02  0.65904005965E+00 -0.11278897675E+03  0.12925468245E+03  0.00000000000E+00 0. -1.
          1    1    6    6  503    0 -0.22598951182E+03 -0.25533689747E+03 -0.17415844852E+01  0.34098566506E+03  0.00000000000E+00 0. -1.
         -1    1    6    6    0  503 -0.49293495758E+03 -0.63112906085E+03 -0.12710811292E+03  0.81084230046E+03  0.00000000000E+00 0.  1.
<mgrwt>
<rscale>  0 0.33031003E+04</rscale>
<asrwt>0</asrwt>
<pdfrwt beam="1">  1        2 0.44097167E+00 0.33031003E+04</pdfrwt>
<pdfrwt beam="2">  1       -1 0.14640170E+00 0.33031003E+04</pdfrwt>
<totfact> 0.74385046E-01</totfact>
</mgrwt>
</event>
<event>
12    6  0.1462228E-007  0.1575346E+04  0.7818608E-02  0.8835839E-01
          2   -1    0    0  501    0  0.00000000000E+00  0.00000000000E+00  0.11808119335E+04  0.11808119335E+04  0.00000000000E+00 0. -1.
         -1   -1    0    0    0  501 -0.00000000000E+00 -0.00000000000E+00 -0.52542524031E+03  0.52542524031E+03  0.00000000000E+00 0.  1.
         24    2    1    2    0    0  0.44881922278E+03  0.11150889229E+03 -0.48607531475E+02  0.47216181423E+03  0.81860606598E+02 0.  0.
        254    2    1    2    0    0 -0.44881922278E+03 -0.11150889229E+03  0.70399422470E+03  0.12340753596E+04  0.90192083743E+03 0.  0.
         23    2    4    4    0    0 -0.40305436206E+03 -0.47221965454E+03  0.52783977707E+03  0.82010023735E+03  0.92224444349E+02 0.  0.
         23    2    4    4    0    0 -0.45764860713E+02  0.36071076225E+03  0.17615444763E+03  0.41397512226E+03  0.90212726082E+02 0.  0.
          4    1    3    3  502    0  0.18737045886E+03  0.63476711249E+01 -0.10251653750E+02  0.18775803095E+03  0.00000000000E+00 0. -1.
         -3    1    3    3    0  502  0.26144876391E+03  0.10516122116E+03 -0.38355877725E+02  0.28440378328E+03  0.00000000000E+00 0.  1.
         11    1    5    5    0    0 -0.28258845545E+02 -0.19297350339E+02  0.75436666952E+01  0.35040790357E+02  0.00000000000E+00 0. -1.
        -11    1    5    5    0    0 -0.37479551652E+03 -0.45292230420E+03  0.52029611037E+03  0.78505944699E+03  0.00000000000E+00 0.  1.
          4    1    6    6  503    0  0.12439764395E+02  0.65415192781E+02  0.65213345093E+02  0.93202336682E+02  0.00000000000E+00 0. -1.
         -4    1    6    6    0  503 -0.58204625107E+02  0.29529556947E+03  0.11094110253E+03  0.32077278557E+03  0.00000000000E+00 0.  1.
<mgrwt>
<rscale>  0 0.15753455E+04</rscale>
<asrwt>0</asrwt>
<pdfrwt beam="1">  1        2 0.18166337E+00 0.15753455E+04</pdfrwt>
<pdfrwt beam="2">  1       -1 0.80834653E-01 0.15753455E+04</pdfrwt>
<totfact> 0.32513944E+01</totfact>
</mgrwt>
</event>
<event>
12    6  0.1462228E-007  0.1637774E+04  0.7818608E-02  0.8797672E-01
          2   -1    0    0  501    0  0.00000000000E+00  0.00000000000E+00  0.95131954441E+03  0.95131954441E+03  0.00000000000E+00 0. -1.
         -1   -1    0    0    0  501 -0.00000000000E+00 -0.00000000000E+00 -0.70489009237E+03  0.70489009237E+03  0.00000000000E+00 0.  1.
         24    2    1    2    0    0  0.32711564329E+03 -0.43946546566E+03  0.43671310193E+02  0.55555278657E+03  0.81223000086E+02 0.  0.
        254    2    1    2    0    0 -0.32711564329E+03  0.43946546566E+03  0.20275814184E+03  0.11006568502E+04  0.93284516306E+03 0.  0.
         23    2    4    4    0    0 -0.19968243408E+02  0.61089568818E+03  0.34973799254E+03  0.71012556522E+03  0.91484328576E+02 0.  0.
         23    2    4    4    0    0 -0.30714739988E+03 -0.17143022253E+03 -0.14697985070E+03  0.39053128498E+03  0.84757073993E+02 0.  0.
          2    1    3    3  502    0  0.19517561868E+02 -0.74382279280E+01 -0.87071910061E+01  0.22629132356E+02  0.00000000000E+00 0. -1.
         -1    1    3    3    0  502  0.30759808142E+03 -0.43202723773E+03  0.52378501199E+02  0.53292365421E+03  0.00000000000E+00 0.  1.
         11    1    5    5    0    0 -0.27179801840E+02  0.55594561549E+03  0.28642346828E+03  0.62598136729E+03  0.00000000000E+00 0.  1.
        -11    1    5    5    0    0  0.72115584323E+01  0.54950072692E+02  0.63314524262E+02  0.84144197937E+02  0.00000000000E+00 0. -1.
          1    1    6    6  503    0 -0.45650741064E+02 -0.39561770437E+02 -0.59716423723E+02  0.84942186821E+02  0.00000000000E+00 0. -1.
         -1    1    6    6    0  503 -0.26149665882E+03 -0.13186845209E+03 -0.87263426975E+02  0.30558909816E+03  0.00000000000E+00 0.  1.
<mgrwt>
<rscale>  0 0.16377738E+04</rscale>
<asrwt>0</asrwt>
<pdfrwt beam="1">  1        2 0.14635685E+00 0.16377738E+04</pdfrwt>
<pdfrwt beam="2">  1       -1 0.10844463E+00 0.16377738E+04</pdfrwt>
<totfact> 0.23339144E+01</totfact>
</mgrwt>
</event>
<event>
12    6  0.1462228E-007  0.1350802E+04  0.7818608E-02  0.8990221E-01
         -1   -1    0    0    0  501 -0.00000000000E+00  0.00000000000E+00  0.45527629800E+03  0.45527629800E+03  0.00000000000E+00 0.  1.
          2   -1    0    0  501    0  0.00000000000E+00 -0.00000000000E+00 -0.10019554407E+04  0.10019554407E+04  0.00000000000E+00 0. -1.
         24    2    1    2    0    0  0.15680066614E+03 -0.19625523006E+02  0.20766193724E+03  0.27318422460E+03  0.80836441882E+02 0.  0.
        254    2    1    2    0    0 -0.15680066614E+03  0.19625523006E+02 -0.75434107992E+03  0.11840475141E+04  0.89886953485E+03 0.  0.
         23    2    4    4    0    0 -0.47059464249E+03  0.17240578262E+03 -0.61225303844E+03  0.79626059920E+03  0.89409660191E+02 0.  0.
         23    2    4    4    0    0  0.31379397635E+03 -0.15278025961E+03 -0.14208804148E+03  0.38778691487E+03  0.91548962295E+02 0.  0.
          4    1    3    3  502    0  0.60135390369E+02  0.25027538900E+02  0.46529744006E+02  0.80047860405E+02  0.00000000000E+00 0. -1.
         -3    1    3    3    0  502  0.96665275772E+02 -0.44653061907E+02  0.16113219323E+03  0.19313636419E+03  0.00000000000E+00 0.  1.
         11    1    5    5    0    0 -0.22706396594E+03  0.39129781910E+02 -0.30348129607E+03  0.38103816282E+03  0.00000000000E+00 0. -1.
        -11    1    5    5    0    0 -0.24353067655E+03  0.13327600071E+03 -0.30877174238E+03  0.41522243638E+03  0.00000000000E+00 0.  1.
          3    1    6    6  503    0  0.29262983982E+03 -0.16117287144E+03 -0.11716208735E+03  0.35402806718E+03  0.00000000000E+00 0.  1.
         -3    1    6    6    0  503  0.21164136529E+02  0.83926118295E+01 -0.24925954125E+02  0.33758847690E+02  0.00000000000E+00 0. -1.
<mgrwt>
<rscale>  0 0.13508021E+04</rscale>
<asrwt>0</asrwt>
<pdfrwt beam="1">  1        2 0.15414699E+00 0.13508021E+04</pdfrwt>
<pdfrwt beam="2">  1       -1 0.70042508E-01 0.13508021E+04</pdfrwt>
<totfact> 0.57679899E+01</totfact>
</mgrwt>
</event>
<event>
12    6  0.1462228E-007  0.2531281E+04  0.7818608E-02  0.8391926E-01
          2   -1    0    0  501    0  0.00000000000E+00  0.00000000000E+00  0.13346093013E+04  0.13346093013E+04  0.00000000000E+00 0. -1.
         -1   -1    0    0    0  501 -0.00000000000E+00 -0.00000000000E+00 -0.12002357165E+04  0.12002357165E+04  0.00000000000E+00 0.  1.
         24    2    1    2    0    0  0.47351386241E+03  0.78361736843E+03  0.68161614817E+03  0.11442756757E+04  0.80589643191E+02 0.  0.
        254    2    1    2    0    0 -0.47351386241E+03 -0.78361736843E+03 -0.54724256340E+03  0.13905693421E+04  0.89215307763E+03 0.  0.
         23    2    4    4    0    0 -0.65907732800E+03 -0.42961070299E+03 -0.57853179091E+03  0.98029819930E+03  0.85657726130E+02 0.  0.
         23    2    4    4    0    0  0.18556346559E+03 -0.35400666545E+03  0.31289227508E+02  0.41027114278E+03  0.87114154423E+02 0.  0.
          4    1    3    3  502    0  0.47296384804E+03  0.75844199555E+03  0.66565300568E+03  0.11144608500E+04  0.00000000000E+00 0. -1.
         -3    1    3    3    0  502  0.55001436814E+00  0.25175372885E+02  0.15963142494E+02  0.29814825741E+02  0.00000000000E+00 0.  1.
         11    1    5    5    0    0 -0.37180379438E+02 -0.23793087703E+02 -0.60407458050E+02  0.74816793741E+02  0.00000000000E+00 0. -1.
        -11    1    5    5    0    0 -0.62189694856E+03 -0.40581761528E+03 -0.51812433286E+03  0.90548140555E+03  0.00000000000E+00 0.  1.
          4    1    6    6  503    0  0.25151078621E+02 -0.13549713781E+03  0.45576675941E+01  0.13788699520E+03  0.00000000000E+00 0. -1.
         -4    1    6    6    0  503  0.16041238697E+03 -0.21850952763E+03  0.26731559914E+02  0.27238414758E+03  0.00000000000E+00 0.  1.
<mgrwt>
<rscale>  0 0.25312809E+04</rscale>
<asrwt>0</asrwt>
<pdfrwt beam="1">  1        2 0.20532451E+00 0.25312809E+04</pdfrwt>
<pdfrwt beam="2">  1       -1 0.18465165E+00 0.25312809E+04</pdfrwt>
<totfact> 0.30836951E+00</totfact>
</mgrwt>
</event>
<event>
12    6  0.1462228E-007  0.1150506E+04  0.7818608E-02  0.9157317E-01
         -1   -1    0    0    0  501 -0.00000000000E+00  0.00000000000E+00  0.36536954913E+03  0.36536954913E+03  0.00000000000E+00 0.  1.
          2   -1    0    0  501    0  0.00000000000E+00 -0.00000000000E+00 -0.90570249406E+03  0.90570249406E+03  0.00000000000E+00 0. -1.
         24    2    1    2    0    0  0.64386623301E+02 -0.18383106252E+03 -0.47912396453E+00  0.20954047150E+03  0.77249484335E+02 0.  0.
        254    2    1    2    0    0 -0.64386623301E+02  0.18383106252E+03 -0.53985382097E+03  0.10615315717E+04  0.89301043268E+03 0.  0.
         23    2    4    4    0    0 -0.18857292572E+03  0.25204683356E+03 -0.73451738851E+03  0.80424028933E+03  0.90549954914E+02 0.  0.
         23    2    4    4    0    0  0.12418630242E+03 -0.68215771044E+02  0.19466356754E+03  0.25729128237E+03  0.90715325758E+02 0.  0.
          2    1    3    3  502    0  0.28112203409E+02 -0.14815391615E+02  0.16568830388E+02  0.35837382014E+02  0.00000000000E+00 0. -1.
         -1    1    3    3    0  502  0.36274419892E+02 -0.16901567090E+03 -0.17047954352E+02  0.17370308948E+03  0.00000000000E+00 0.  1.
         11    1    5    5    0    0 -0.68572606473E+02  0.86082114876E+02 -0.15904415748E+03  0.19340986761E+03  0.00000000000E+00 0.  1.
        -11    1    5    5    0    0 -0.12000031925E+03  0.16596471868E+03 -0.57547323103E+03  0.61083042172E+03  0.00000000000E+00 0. -1.
          4    1    6    6  503    0  0.10737796838E+03 -0.16973556912E+02  0.15909351905E+03  0.19268855060E+03  0.00000000000E+00 0. -1.
         -4    1    6    6    0  503  0.16808334035E+02 -0.51242214132E+02  0.35570048485E+02  0.64602731764E+02  0.00000000000E+00 0.  1.
<mgrwt>
<rscale>  0 0.11505062E+04</rscale>
<asrwt>0</asrwt>
<pdfrwt beam="1">  1        2 0.13933884E+00 0.11505062E+04</pdfrwt>
<pdfrwt beam="2">  1       -1 0.56210700E-01 0.11505062E+04</pdfrwt>
<totfact> 0.10510441E+02</totfact>
</mgrwt>
</event>
<event>
12    6  0.1462228E-007  0.4495254E+04  0.7818608E-02  0.7911468E-01
          2   -1    0    0  501    0  0.00000000000E+00  0.00000000000E+00  0.38111384762E+04  0.38111384762E+04  0.00000000000E+00 0. -1.
         -1   -1    0    0    0  501 -0.00000000000E+00 -0.00000000000E+00 -0.13255428804E+04  0.13255428804E+04  0.00000000000E+00 0.  1.
         24    2    1    2    0    0  0.48007973174E+02 -0.20189427548E+04  0.20626594180E+04  0.28881588381E+04  0.91994495005E+02 0.  0.
        254    2    1    2    0    0 -0.48007973174E+02  0.20189427548E+04  0.42293617779E+03  0.22485225185E+04  0.89361283167E+03 0.  0.
         23    2    4    4    0    0 -0.84849768014E+02  0.16712034488E+04  0.67504578116E+03  0.18067165466E+04  0.91746513739E+02 0.  0.
         23    2    4    4    0    0  0.36841794840E+02  0.34773930599E+03 -0.25210960337E+03  0.44180597183E+03  0.96712573425E+02 0.  0.
          2    1    3    3  502    0  0.33210402488E+02 -0.19051313571E+04  0.19692919815E+04  0.27402078985E+04  0.00000000000E+00 0. -1.
         -1    1    3    3    0  502  0.14797570686E+02 -0.11381139770E+03  0.93367436496E+02  0.14795093965E+03  0.00000000000E+00 0.  1.
         11    1    5    5    0    0 -0.35356546858E+01  0.91700751992E+03  0.38610726654E+03  0.99498447913E+03  0.00000000000E+00 0. -1.
        -11    1    5    5    0    0 -0.81314113328E+02  0.75419592888E+03  0.28893851462E+03  0.81173206749E+03  0.00000000000E+00 0.  1.
          4    1    6    6  503    0  0.68818782017E+02  0.25117442928E+03 -0.16912262465E+03  0.31052710164E+03  0.00000000000E+00 0.  1.
         -4    1    6    6    0  503 -0.31976987178E+02  0.96564876706E+02 -0.82986978714E+02  0.13127887019E+03  0.00000000000E+00 0. -1.
<mgrwt>
<rscale>  0 0.44952542E+04</rscale>
<asrwt>0</asrwt>
<pdfrwt beam="1">  1        2 0.58632899E+00 0.44952542E+04</pdfrwt>
<pdfrwt beam="2">  1       -1 0.20392968E+00 0.44952542E+04</pdfrwt>
<totfact> 0.58390951E-02</totfact>
</mgrwt>
</event>
<event>
12    6  0.1462228E-007  0.2088432E+04  0.7818608E-02  0.8566357E-01
          2   -1    0    0  501    0  0.00000000000E+00  0.00000000000E+00  0.14394181386E+04  0.14394181386E+04  0.00000000000E+00 0. -1.
         -1   -1    0    0    0  501 -0.00000000000E+00 -0.00000000000E+00 -0.75751898222E+03  0.75751898222E+03  0.00000000000E+00 0.  1.
         24    2    1    2    0    0 -0.41576434055E+03  0.30798698059E+02  0.10911705466E+04  0.11706542714E+04  0.77263928729E+02 0.  0.
        254    2    1    2    0    0  0.41576434055E+03 -0.30798698059E+02 -0.40927139022E+03  0.10262828494E+04  0.84376825581E+03 0.  0.
         23    2    4    4    0    0  0.58781582720E+03 -0.19802275361E+03 -0.44440505744E+03  0.76831940565E+03  0.89879899652E+02 0.  0.
         23    2    4    4    0    0 -0.17205148665E+03  0.16722405555E+03  0.35133667217E+02  0.25796344379E+03  0.88006618740E+02 0.  0.
          4    1    3    3  502    0 -0.22778519302E+03 -0.10982568483E+02  0.66444955572E+03  0.70249549683E+03  0.00000000000E+00 0. -1.
         -1    1    3    3    0  502 -0.18797914753E+03  0.41781266543E+02  0.42672099085E+03  0.46815877453E+03  0.00000000000E+00 0.  1.
         11    1    5    5    0    0  0.47557011969E+03 -0.13191799924E+03 -0.31999073657E+03  0.58818650848E+03  0.00000000000E+00 0. -1.
        -11    1    5    5    0    0  0.11224570751E+03 -0.66104754372E+02 -0.12441432087E+03  0.18013289716E+03  0.00000000000E+00 0.  1.
          2    1    6    6  503    0 -0.13487720293E+03  0.79618861644E+02  0.43153426025E+02  0.16245996792E+03  0.00000000000E+00 0. -1.
         -2    1    6    6    0  503 -0.37174283721E+02  0.87605193911E+02 -0.80197588078E+01  0.95503475861E+02  0.00000000000E+00 0.  1.
<mgrwt>
<rscale>  0 0.20884315E+04</rscale>
<asrwt>0</asrwt>
<pdfrwt beam="1">  1        2 0.22144894E+00 0.20884315E+04</pdfrwt>
<pdfrwt beam="2">  1       -1 0.11654138E+00 0.20884315E+04</pdfrwt>
<totfact> 0.95998962E+00</totfact>
</mgrwt>
</event>
<event>
12    6  0.1462228E-007  0.2228433E+04  0.7818608E-02  0.8506686E-01
          2   -1    0    0  501    0  0.00000000000E+00  0.00000000000E+00  0.28761467227E+04  0.28761467227E+04  0.00000000000E+00 0. -1.
         -1   -1    0    0    0  501 -0.00000000000E+00 -0.00000000000E+00 -0.43164634828E+03  0.43164634828E+03  0.00000000000E+00 0.  1.
         24    2    1    2    0    0  0.38576789093E+02  0.65237280182E+03  0.20493871897E+04  0.21524721522E+04  0.77910663354E+02 0.  0.
        254    2    1    2    0    0 -0.38576789093E+02 -0.65237280182E+03  0.39511318471E+03  0.11553209188E+04  0.86693342041E+03 0.  0.
         23    2    4    4    0    0 -0.24378835605E+03 -0.74005714746E+03  0.12591676371E+03  0.79423871338E+03  0.88559349532E+02 0.  0.
         23    2    4    4    0    0  0.20521156695E+03  0.87684345649E+02  0.26919642100E+03  0.36108220539E+03  0.90073937915E+02 0.  0.
          2    1    3    3  502    0  0.51521684790E+02  0.51897019290E+03  0.17027221217E+04  0.17807995870E+04  0.00000000000E+00 0. -1.
         -1    1    3    3    0  502 -0.12944895697E+02  0.13340260892E+03  0.34666506793E+03  0.37167256518E+03  0.00000000000E+00 0.  1.
         11    1    5    5    0    0 -0.19905487743E+03 -0.53672400341E+03  0.58638460599E+02  0.57544241165E+03  0.00000000000E+00 0.  1.
        -11    1    5    5    0    0 -0.44733478617E+02 -0.20333314406E+03  0.67278303114E+02  0.21879630173E+03  0.00000000000E+00 0. -1.
          1    1    6    6  503    0  0.39250021309E+02  0.58102880775E+02  0.10094617605E+03  0.12290906958E+03  0.00000000000E+00 0. -1.
         -1    1    6    6    0  503  0.16596154564E+03  0.29581464873E+02  0.16825024495E+03  0.23817313581E+03  0.00000000000E+00 0.  1.
<mgrwt>
<rscale>  0 0.22284328E+04</rscale>
<asrwt>0</asrwt>
<pdfrwt beam="1">  1        2 0.44248410E+00 0.22284328E+04</pdfrwt>
<pdfrwt beam="2">  1       -1 0.66407132E-01 0.22284328E+04</pdfrwt>
<totfact> 0.49582008E+00</totfact>
</mgrwt>
</event>
<event>
12    6  0.1462228E-007  0.2078660E+04  0.7818608E-02  0.8570702E-01
          2   -1    0    0  501    0  0.00000000000E+00  0.00000000000E+00  0.13720874863E+04  0.13720874863E+04  0.00000000000E+00 0. -1.
         -1   -1    0    0    0  501 -0.00000000000E+00 -0.00000000000E+00 -0.78727270392E+03  0.78727270392E+03  0.00000000000E+00 0.  1.
         24    2    1    2    0    0  0.50220176095E+03  0.66432194306E+03  0.35327257527E+03  0.90815119071E+03  0.80042613761E+02 0.  0.
        254    2    1    2    0    0 -0.50220176095E+03 -0.66432194306E+03  0.23154220713E+03  0.12512089995E+04  0.90464463414E+03 0.  0.
         23    2    4    4    0    0 -0.51942436047E+03 -0.22727175311E+02  0.28617952623E+03  0.60037507993E+03  0.90737669267E+02 0.  0.
         23    2    4    4    0    0  0.17222599514E+02 -0.64159476775E+03 -0.54637319103E+02  0.65083391959E+03  0.93054233222E+02 0.  0.
          2    1    3    3  502    0  0.16401934719E+03  0.18513645211E+03  0.13906271222E+03  0.28375392523E+03  0.00000000000E+00 0. -1.
         -1    1    3    3    0  502  0.33818241376E+03  0.47918549095E+03  0.21420986305E+03  0.62439726548E+03  0.00000000000E+00 0.  1.
         11    1    5    5    0    0 -0.45515831172E+03 -0.30224390466E+02  0.21533882775E+03  0.50443375506E+03  0.00000000000E+00 0. -1.
        -11    1    5    5    0    0 -0.64266048748E+02  0.74972151546E+01  0.70840698485E+02  0.95941324874E+02  0.00000000000E+00 0.  1.
          4    1    6    6  503    0 -0.15467996909E+02 -0.40322496551E+03 -0.70821203014E+02  0.40968924142E+03  0.00000000000E+00 0. -1.
         -4    1    6    6    0  503  0.32690596424E+02 -0.23836980223E+03  0.16183883911E+02  0.24114467817E+03  0.00000000000E+00 0.  1.
<mgrwt>
<rscale>  0 0.20786602E+04</rscale>
<asrwt>0</asrwt>
<pdfrwt beam="1">  1        2 0.21109038E+00 0.20786602E+04</pdfrwt>
<pdfrwt beam="2">  1       -1 0.12111888E+00 0.20786602E+04</pdfrwt>
<totfact> 0.95593051E+00</totfact>
</mgrwt>
</event>
<event>
12    6  0.1462228E-007  0.1537423E+04  0.7818608E-02  0.8859941E-01
         -1   -1    0    0    0  501 -0.00000000000E+00  0.00000000000E+00  0.86208393768E+03  0.86208393768E+03  0.00000000000E+00 0.  1.
          2   -1    0    0  501    0  0.00000000000E+00 -0.00000000000E+00 -0.68545265465E+03  0.68545265465E+03  0.00000000000E+00 0. -1.
         24    2    1    2    0    0 -0.33058332309E+03  0.44898517356E+03  0.13537707917E+03  0.57932990951E+03  0.80144687279E+02 0.  0.
        254    2    1    2    0    0  0.33058332309E+03 -0.44898517356E+03  0.41254203861E+02  0.96820668282E+03  0.79047406772E+03 0.  0.
         23    2    4    4    0    0  0.47112757950E+03 -0.39137923910E+03  0.27265394586E+03  0.67634359318E+03  0.89227668792E+02 0.  0.
         23    2    4    4    0    0 -0.14054425641E+03 -0.57605934464E+02 -0.23139974200E+03  0.29186308964E+03  0.92558580400E+02 0.  0.
          2    1    3    3  502    0  0.81896708281E+00  0.95972281710E+01  0.11872899611E+02  0.15288663801E+02  0.00000000000E+00 0. -1.
         -1    1    3    3    0  502 -0.33140229018E+03  0.43938794539E+03  0.12350417956E+03  0.56404124571E+03  0.00000000000E+00 0.  1.
         11    1    5    5    0    0  0.47137260204E+03 -0.37525384860E+03  0.26890719950E+03  0.65978683132E+03  0.00000000000E+00 0.  1.
        -11    1    5    5    0    0 -0.24502254284E+00 -0.16125390501E+02  0.37467463580E+01  0.16556761855E+02  0.00000000000E+00 0. -1.
          2    1    6    6  503    0 -0.20003117030E+01  0.10696722378E+02 -0.60626768278E+02  0.61595666636E+02  0.00000000000E+00 0. -1.
         -2    1    6    6    0  503 -0.13854394470E+03 -0.68302656841E+02 -0.17077297372E+03  0.23026742301E+03  0.00000000000E+00 0.  1.
<mgrwt>
<rscale>  0 0.15374235E+04</rscale>
<asrwt>0</asrwt>
<pdfrwt beam="1">  1        2 0.10545425E+00 0.15374235E+04</pdfrwt>
<pdfrwt beam="2">  1       -1 0.13262830E+00 0.15374235E+04</pdfrwt>
<totfact> 0.22323595E+01</totfact>
</mgrwt>
</event>
<event>
12    6  0.1462228E-007  0.2255004E+04  0.7818608E-02  0.8495877E-01
          4   -1    0    0  501    0  0.00000000000E+00  0.00000000000E+00  0.70142402480E+03  0.70142402480E+03  0.00000000000E+00 0. -1.
         -3   -1    0    0    0  501 -0.00000000000E+00 -0.00000000000E+00 -0.18123992482E+04  0.18123992482E+04  0.00000000000E+00 0.  1.
         24    2    1    2    0    0 -0.73412748476E+03  0.59370462138E+03 -0.46162484314E+03  0.10539673311E+04  0.79506590745E+02 0.  0.
        254    2    1    2    0    0  0.73412748476E+03 -0.59370462138E+03 -0.64935038025E+03  0.14598559419E+04  0.90448610456E+03 0.  0.
         23    2    4    4    0    0  0.37052867076E+03 -0.17848918597E+03  0.18028529419E+03  0.45904013151E+03  0.95211184637E+02 0.  0.
         23    2    4    4    0    0  0.36359881400E+03 -0.41521543541E+03 -0.82963567444E+03  0.10008158104E+04  0.93429003019E+02 0.  0.
          2    1    3    3  502    0 -0.56400884608E+03  0.43674090466E+03 -0.31368895643E+03  0.77926205968E+03  0.00000000000E+00 0. -1.
         -1    1    3    3    0  502 -0.17011863867E+03  0.15696371672E+03 -0.14793588671E+03  0.27470527146E+03  0.00000000000E+00 0.  1.
         11    1    5    5    0    0  0.44553382389E+02 -0.19462209082E+02  0.59328963174E+02  0.76705327951E+02  0.00000000000E+00 0.  1.
        -11    1    5    5    0    0  0.32597528837E+03 -0.15902697689E+03  0.12095633101E+03  0.38233480356E+03  0.00000000000E+00 0. -1.
          1    1    6    6  503    0  0.35390344904E+03 -0.41336490529E+03 -0.82800290381E+03  0.99081128621E+03  0.00000000000E+00 0. -1.
         -1    1    6    6    0  503  0.96953649557E+01 -0.18505301232E+01 -0.16327706303E+01  0.10004524141E+02  0.00000000000E+00 0.  1.
<mgrwt>
<rscale>  0 0.22550037E+04</rscale>
<asrwt>0</asrwt>
<pdfrwt beam="1">  1        4 0.10791139E+00 0.22550037E+04</pdfrwt>
<pdfrwt beam="2">  1       -3 0.27883066E+00 0.22550037E+04</pdfrwt>
<totfact> 0.71500792E-02</totfact>
</mgrwt>
</event>
<event>
12    6  0.1462228E-007  0.1228153E+04  0.7818608E-02  0.9088565E-01
         -1   -1    0    0    0  501 -0.00000000000E+00  0.00000000000E+00  0.15964246241E+03  0.15964246241E+03  0.00000000000E+00 0.  1.
          2   -1    0    0  501    0  0.00000000000E+00 -0.00000000000E+00 -0.23620908616E+04  0.23620908616E+04  0.00000000000E+00 0. -1.
         24    2    1    2    0    0 -0.13686547904E+02 -0.18782788273E+03 -0.99607234384E+02  0.22794544315E+03  0.81061018921E+02 0.  0.
        254    2    1    2    0    0  0.13686547904E+02  0.18782788273E+03 -0.21028411648E+04  0.22937878808E+04  0.89669127512E+03 0.  0.
         23    2    4    4    0    0  0.30882048814E+03 -0.17549371562E+03 -0.49311760065E+03  0.61486925563E+03  0.93440330320E+02 0.  0.
         23    2    4    4    0    0 -0.29513394024E+03  0.36332159835E+03 -0.16097235641E+04  0.16789186252E+04  0.91930248870E+02 0.  0.
          2    1    3    3  502    0 -0.31008530329E+02 -0.92606646938E+02 -0.13856477640E+02  0.98638339315E+02  0.00000000000E+00 0. -1.
         -1    1    3    3    0  502  0.17321982425E+02 -0.95221235790E+02 -0.85750756744E+02  0.12930710384E+03  0.00000000000E+00 0.  1.
         11    1    5    5    0    0  0.20595254346E+03 -0.75494188813E+02 -0.25009818383E+03  0.33266337979E+03  0.00000000000E+00 0. -1.
        -11    1    5    5    0    0  0.10286794469E+03 -0.99999526805E+02 -0.24301941682E+03  0.28220587584E+03  0.00000000000E+00 0.  1.
          2    1    6    6  503    0 -0.10288002942E+03  0.74416515175E+02 -0.35211937254E+03  0.37431293152E+03  0.00000000000E+00 0. -1.
         -2    1    6    6    0  503 -0.19225391082E+03  0.28890508317E+03 -0.12576041916E+04  0.13046056937E+04  0.00000000000E+00 0.  1.
<mgrwt>
<rscale>  0 0.12281531E+04</rscale>
<asrwt>0</asrwt>
<pdfrwt beam="1">  1        2 0.36339856E+00 0.12281531E+04</pdfrwt>
<pdfrwt beam="2">  1       -1 0.24560381E-01 0.12281531E+04</pdfrwt>
<totfact> 0.67992365E+01</totfact>
</mgrwt>
</event>
<event>
12    6  0.1462228E-007  0.1790760E+04  0.7818608E-02  0.8711229E-01
         -1   -1    0    0    0  501 -0.00000000000E+00  0.00000000000E+00  0.27322584448E+03  0.27322584448E+03  0.00000000000E+00 0.  1.
          2   -1    0    0  501    0  0.00000000000E+00 -0.00000000000E+00 -0.29342218778E+04  0.29342218778E+04  0.00000000000E+00 0. -1.
         24    2    1    2    0    0 -0.38869887703E+03 -0.30327079841E+03 -0.19511468373E+03  0.53649119790E+03  0.81811193903E+02 0.  0.
        254    2    1    2    0    0  0.38869887703E+03  0.30327079841E+03 -0.24658813496E+04  0.26709565243E+04  0.90020993699E+03 0.  0.
         23    2    4    4    0    0  0.38667417285E+03 -0.18363131843E+03 -0.17221342024E+04  0.17768947675E+04  0.91495502015E+02 0.  0.
         23    2    4    4    0    0  0.20247041801E+01  0.48690211684E+03 -0.74374714718E+03  0.89406175679E+03  0.95440218028E+02 0.  0.
          2    1    3    3  502    0 -0.17230714989E+03 -0.14054889440E+03 -0.44838113864E+02  0.22683518703E+03  0.00000000000E+00 0. -1.
         -1    1    3    3    0  502 -0.21639172714E+03 -0.16272190401E+03 -0.15027656986E+03  0.30965601087E+03  0.00000000000E+00 0.  1.
         11    1    5    5    0    0  0.36205533140E+03 -0.17714518873E+03 -0.14965849600E+04  0.15499132309E+04  0.00000000000E+00 0. -1.
        -11    1    5    5    0    0  0.24618841442E+02 -0.64861296980E+01 -0.22554924237E+03  0.22698153662E+03  0.00000000000E+00 0.  1.
          3    1    6    6  503    0  0.28161115790E+01  0.45266515014E+03 -0.72580943322E+03  0.85540224572E+03  0.00000000000E+00 0. -1.
         -3    1    6    6    0  503 -0.79140739885E+00  0.34236966693E+02 -0.17937713958E+02  0.38659511068E+02  0.00000000000E+00 0.  1.
<mgrwt>
<rscale>  0 0.17907599E+04</rscale>
<asrwt>0</asrwt>
<pdfrwt beam="1">  1        2 0.45141875E+00 0.17907599E+04</pdfrwt>
<pdfrwt beam="2">  1       -1 0.42034745E-01 0.17907599E+04</pdfrwt>
<totfact> 0.11482586E+01</totfact>
</mgrwt>
</event>
<event>
12    6  0.1462228E-007  0.1453594E+04  0.7818608E-02  0.8915912E-01
         -1   -1    0    0    0  501 -0.00000000000E+00  0.00000000000E+00  0.19962576609E+03  0.19962576609E+03  0.00000000000E+00 0.  1.
          2   -1    0    0  501    0  0.00000000000E+00 -0.00000000000E+00 -0.26461223709E+04  0.26461223709E+04  0.00000000000E+00 0. -1.
         24    2    1    2    0    0  0.35118424171E+03 -0.24238538953E+02 -0.12806402880E+04  0.13307172533E+04  0.82770662071E+02 0.  0.
        254    2    1    2    0    0 -0.35118424171E+03  0.24238538953E+02 -0.11658563168E+04  0.15150308837E+04  0.90121015795E+03 0.  0.
         23    2    4    4    0    0  0.90540436858E+02 -0.34345072250E+03 -0.60231149439E+03  0.70502276388E+03  0.90122093958E+02 0.  0.
         23    2    4    4    0    0 -0.44172467857E+03  0.36768926145E+03 -0.56354482241E+03  0.81000811984E+03  0.90632790403E+02 0.  0.
          4    1    3    3  502    0  0.35469032685E+03 -0.28325681001E+02 -0.12522551490E+04  0.13018258448E+04  0.00000000000E+00 0. -1.
         -3    1    3    3    0  502 -0.35060851478E+01  0.40871420485E+01 -0.28385139045E+02  0.28891408442E+02  0.00000000000E+00 0.  1.
         11    1    5    5    0    0  0.10897874150E+03 -0.29127148052E+03 -0.50508566969E+03  0.59315004441E+03  0.00000000000E+00 0.  1.
        -11    1    5    5    0    0 -0.18438304639E+02 -0.52179241979E+02 -0.97225824705E+02  0.11187271947E+03  0.00000000000E+00 0. -1.
          2    1    6    6  503    0 -0.34260012534E+03  0.30805024574E+03 -0.49173568459E+03  0.67384997090E+03  0.00000000000E+00 0. -1.
         -2    1    6    6    0  503 -0.99124553224E+02  0.59639015711E+02 -0.71809137816E+02  0.13615814893E+03  0.00000000000E+00 0.  1.
<mgrwt>
<rscale>  0 0.14535944E+04</rscale>
<asrwt>0</asrwt>
<pdfrwt beam="1">  1        2 0.40709573E+00 0.14535944E+04</pdfrwt>
<pdfrwt beam="2">  1       -1 0.30711657E-01 0.14535944E+04</pdfrwt>
<totfact> 0.31039260E+01</totfact>
</mgrwt>
</event>
<event>
12    6  0.1462228E-007  0.1554818E+04  0.7818608E-02  0.8848796E-01
         -1   -1    0    0    0  501 -0.00000000000E+00  0.00000000000E+00  0.27966857096E+03  0.27966857096E+03  0.00000000000E+00 0.  1.
          2   -1    0    0  501    0  0.00000000000E+00 -0.00000000000E+00 -0.21610032392E+04  0.21610032392E+04  0.00000000000E+00 0. -1.
         24    2    1    2    0    0 -0.74155114344E+02 -0.39286429584E+03 -0.11321260173E+04  0.12033960917E+04  0.81311121328E+02 0.  0.
        254    2    1    2    0    0  0.74155114344E+02  0.39286429584E+03 -0.74920865088E+03  0.12372757184E+04  0.89983124250E+03 0.  0.
         23    2    4    4    0    0  0.13878173000E+03 -0.94749816088E+02 -0.71122244571E+03  0.73689231155E+03  0.94525209885E+02 0.  0.
         23    2    4    4    0    0 -0.64626615656E+02  0.48761411193E+03 -0.37986205169E+02  0.50038340690E+03  0.83644967056E+02 0.  0.
          2    1    3    3  502    0 -0.49071012401E+02 -0.30066144748E+03 -0.75011779687E+03  0.80961841595E+03  0.00000000000E+00 0. -1.
         -1    1    3    3    0  502 -0.25084101942E+02 -0.92202848362E+02 -0.38200822044E+03  0.39377767573E+03  0.00000000000E+00 0.  1.
         11    1    5    5    0    0  0.10456898215E+03 -0.52869152930E+02 -0.61892359509E+03  0.62991764217E+03  0.00000000000E+00 0. -1.
        -11    1    5    5    0    0  0.34212747851E+02 -0.41880663158E+02 -0.92298850616E+02  0.10697466937E+03  0.00000000000E+00 0.  1.
          3    1    6    6  503    0 -0.74889985339E+02  0.40163524982E+03 -0.76355213698E+01  0.40862903101E+03  0.00000000000E+00 0. -1.
         -3    1    6    6    0  503  0.10263369684E+02  0.85978862113E+02 -0.30350683799E+02  0.91754375888E+02  0.00000000000E+00 0.  1.
<mgrwt>
<rscale>  0 0.15548179E+04</rscale>
<asrwt>0</asrwt>
<pdfrwt beam="1">  1        2 0.33246204E+00 0.15548179E+04</pdfrwt>
<pdfrwt beam="2">  1       -1 0.43025933E-01 0.15548179E+04</pdfrwt>
<totfact> 0.31715534E+01</totfact>
</mgrwt>
</event>
<event>
12    6  0.1462228E-007  0.1709227E+04  0.7818608E-02  0.8756119E-01
         -1   -1    0    0    0  501 -0.00000000000E+00  0.00000000000E+00  0.30922363039E+03  0.30922363039E+03  0.00000000000E+00 0.  1.
          2   -1    0    0  501    0  0.00000000000E+00 -0.00000000000E+00 -0.23619297278E+04  0.23619297278E+04  0.00000000000E+00 0. -1.
         24    2    1    2    0    0  0.79978666566E+01  0.14863529720E+03 -0.18276491077E+04  0.18353754797E+04  0.78393067281E+02 0.  0.
        254    2    1    2    0    0 -0.79978666566E+01 -0.14863529720E+03 -0.22505698964E+03  0.83577787846E+03  0.79102313247E+03 0.  0.
         23    2    4    4    0    0 -0.34067178867E+03  0.10129317738E+03 -0.29713942575E+02  0.36728881336E+03  0.87752940987E+02 0.  0.
         23    2    4    4    0    0  0.33267392202E+03 -0.24992847458E+03 -0.19534304706E+03  0.46848906511E+03  0.90481585392E+02 0.  0.
          2    1    3    3  502    0  0.87495104717E+01  0.15006383372E+03 -0.14590535095E+04  0.14667763469E+04  0.00000000000E+00 0. -1.
         -1    1    3    3    0  502 -0.75164381510E+00 -0.14285365167E+01 -0.36859559821E+03  0.36859913281E+03  0.00000000000E+00 0.  1.
         11    1    5    5    0    0 -0.12566365682E+03  0.47112667655E+02 -0.53102834387E+02  0.14432903075E+03  0.00000000000E+00 0.  1.
        -11    1    5    5    0    0 -0.21500813185E+03  0.54180509724E+02  0.23388891812E+02  0.22295978260E+03  0.00000000000E+00 0. -1.
          3    1    6    6  503    0  0.62669560913E+02 -0.78026514461E+01 -0.28814511724E+02  0.69416362052E+02  0.00000000000E+00 0. -1.
         -3    1    6    6    0  503  0.27000436110E+03 -0.24212582313E+03 -0.16652853534E+03  0.39907270306E+03  0.00000000000E+00 0.  1.
<mgrwt>
<rscale>  0 0.17092273E+04</rscale>
<asrwt>0</asrwt>
<pdfrwt beam="1">  1        2 0.36337381E+00 0.17092273E+04</pdfrwt>
<pdfrwt beam="2">  1       -1 0.47572866E-01 0.17092273E+04</pdfrwt>
<totfact> 0.19986915E+01</totfact>
</mgrwt>
</event>
<event>
12    6  0.1462228E-007  0.3204974E+04  0.7818608E-02  0.8187505E-01
         -1   -1    0    0    0  501 -0.00000000000E+00  0.00000000000E+00  0.14091648688E+04  0.14091648688E+04  0.00000000000E+00 0.  1.
          2   -1    0    0  501    0  0.00000000000E+00 -0.00000000000E+00 -0.18223310246E+04  0.18223310246E+04  0.00000000000E+00 0. -1.
         24    2    1    2    0    0 -0.10825404143E+04  0.24100569835E+03  0.80120753074E+03  0.13704247478E+04  0.78440977105E+02 0.  0.
        254    2    1    2    0    0  0.10825404143E+04 -0.24100569835E+03 -0.12143736866E+04  0.18610711456E+04  0.87115145811E+03 0.  0.
         23    2    4    4    0    0  0.98849887458E+03 -0.27127881533E+03 -0.51844198602E+03  0.11522190258E+04  0.90024273168E+02 0.  0.
         23    2    4    4    0    0  0.94041539698E+02  0.30273116979E+02 -0.69593170058E+03  0.70885211980E+03  0.91597615045E+02 0.  0.
          2    1    3    3  502    0 -0.50415297433E+03  0.85445306657E+02  0.40490689593E+03  0.65224283540E+03  0.00000000000E+00 0. -1.
         -1    1    3    3    0  502 -0.57838743995E+03  0.15556039170E+03  0.39630063481E+03  0.71818191241E+03  0.00000000000E+00 0.  1.
         11    1    5    5    0    0  0.81840026346E+03 -0.25313758244E+03 -0.41034104879E+03  0.94986178110E+03  0.00000000000E+00 0.  1.
        -11    1    5    5    0    0  0.17009861112E+03 -0.18141232894E+02 -0.10810093723E+03  0.20235724466E+03  0.00000000000E+00 0. -1.
          4    1    6    6  503    0  0.20004507762E+02  0.51523271554E+02 -0.22669962347E+03  0.23333998184E+03  0.00000000000E+00 0. -1.
         -4    1    6    6    0  503  0.74037031935E+02 -0.21250154575E+02 -0.46923207710E+03  0.47551213796E+03  0.00000000000E+00 0.  1.
<mgrwt>
<rscale>  0 0.32049742E+04</rscale>
<asrwt>0</asrwt>
<pdfrwt beam="1">  1        2 0.28035862E+00 0.32049742E+04</pdfrwt>
<pdfrwt beam="2">  1       -1 0.21679460E+00 0.32049742E+04</pdfrwt>
<totfact> 0.92885890E-01</totfact>
</mgrwt>
</event>
<event>
12    6  0.1462228E-007  0.1689304E+04  0.7818608E-02  0.8767489E-01
         -1   -1    0    0    0  501 -0.00000000000E+00  0.00000000000E+00  0.37151440324E+03  0.37151440324E+03  0.00000000000E+00 0.  1.
          2   -1    0    0  501    0  0.00000000000E+00 -0.00000000000E+00 -0.19203470649E+04  0.19203470649E+04  0.00000000000E+00 0. -1.
         24    2    1    2    0    0  0.34153759844E+03  0.26048714565E+03 -0.11292858218E+04  0.12108206036E+04  0.79363609703E+02 0.  0.
        254    2    1    2    0    0 -0.34153759844E+03 -0.26048714565E+03 -0.41954683983E+03  0.10810408645E+04  0.89895957404E+03 0.  0.
         23    2    4    4    0    0 -0.57938418444E+03 -0.33823258515E+03 -0.14090519415E+03  0.69284638904E+03  0.10047153942E+03 0.  0.
         23    2    4    4    0    0  0.23784658600E+03  0.77745439495E+02 -0.27864164568E+03  0.38819447548E+03  0.10216864613E+03 0.  0.
          2    1    3    3  502    0  0.23646940656E+03  0.22140411284E+03 -0.86930464230E+03  0.92770044871E+03  0.00000000000E+00 0. -1.
         -1    1    3    3    0  502  0.10506819188E+03  0.39083032812E+02 -0.25998117951E+03  0.28312015488E+03  0.00000000000E+00 0.  1.
         11    1    5    5    0    0 -0.29044832442E+03 -0.12015687183E+03 -0.38671812226E+02  0.31669135142E+03  0.00000000000E+00 0.  1.
        -11    1    5    5    0    0 -0.28893586002E+03 -0.21807571332E+03 -0.10223338192E+03  0.37615503762E+03  0.00000000000E+00 0. -1.
          3    1    6    6  503    0 -0.51768512003E+01  0.19517359958E+02 -0.24838931437E+02  0.32010930055E+02  0.00000000000E+00 0. -1.
         -3    1    6    6    0  503  0.24302343720E+03  0.58228079537E+02 -0.25380271424E+03  0.35618354542E+03  0.00000000000E+00 0.  1.
<mgrwt>
<rscale>  0 0.16893035E+04</rscale>
<asrwt>0</asrwt>
<pdfrwt beam="1">  1        2 0.29543800E+00 0.16893035E+04</pdfrwt>
<pdfrwt beam="2">  1       -1 0.57156063E-01 0.16893035E+04</pdfrwt>
<totfact> 0.24875556E+01</totfact>
</mgrwt>
</event>
<event>
12    6  0.1462228E-007  0.2032872E+04  0.7818608E-02  0.8591404E-01
         -1   -1    0    0    0  501 -0.00000000000E+00  0.00000000000E+00  0.13020856320E+04  0.13020856320E+04  0.00000000000E+00 0.  1.
          2   -1    0    0  501    0  0.00000000000E+00 -0.00000000000E+00 -0.79345205494E+03  0.79345205494E+03  0.00000000000E+00 0. -1.
         24    2    1    2    0    0 -0.76002254841E+03  0.93924933942E+01 -0.99680120318E+02  0.77175107712E+03  0.89112881362E+02 0.  0.
        254    2    1    2    0    0  0.76002254841E+03 -0.93924933942E+01  0.60831369733E+03  0.13237866098E+04  0.89701891888E+03 0.  0.
         23    2    4    4    0    0  0.64803129218E+03 -0.25147205964E+03  0.55336141535E+02  0.70305330178E+03  0.89661051521E+02 0.  0.
         23    2    4    4    0    0  0.11199125623E+03  0.24207956625E+03  0.55297755580E+03  0.62073330799E+03  0.91548372832E+02 0.  0.
          4    1    3    3  502    0 -0.61089872821E+03 -0.91460299175E+01 -0.48035919888E+02  0.61285263774E+03  0.00000000000E+00 0. -1.
         -3    1    3    3    0  502 -0.14912382020E+03  0.18538523312E+02 -0.51644200430E+02  0.15889843938E+03  0.00000000000E+00 0.  1.
         11    1    5    5    0    0  0.46797496497E+03 -0.15558935979E+03  0.60934250107E+01  0.49319949974E+03  0.00000000000E+00 0. -1.
        -11    1    5    5    0    0  0.18005632721E+03 -0.95882699848E+02  0.49242716524E+02  0.20985380204E+03  0.00000000000E+00 0.  1.
          4    1    6    6  503    0  0.84774153484E+01  0.11712855733E+03  0.27203603367E+03  0.29630148351E+03  0.00000000000E+00 0. -1.
         -4    1    6    6    0  503  0.10351384088E+03  0.12495100892E+03  0.28094152213E+03  0.32443182448E+03  0.00000000000E+00 0.  1.
<mgrwt>
<rscale>  0 0.20328724E+04</rscale>
<asrwt>0</asrwt>
<pdfrwt beam="1">  1        2 0.12206955E+00 0.20328724E+04</pdfrwt>
<pdfrwt beam="2">  1       -1 0.20032087E+00 0.20328724E+04</pdfrwt>
<totfact> 0.55137036E+00</totfact>
</mgrwt>
</event>
<event>
12    6  0.1462228E-007  0.1846001E+04  0.7818608E-02  0.8682212E-01
         -3   -1    0    0    0  501 -0.00000000000E+00  0.00000000000E+00  0.34872757291E+03  0.34872757291E+03  0.00000000000E+00 0.  1.
          4   -1    0    0  501    0  0.00000000000E+00 -0.00000000000E+00 -0.24429657939E+04  0.24429657939E+04  0.00000000000E+00 0. -1.
         24    2    1    2    0    0  0.33717133135E+02  0.18816394085E+03  0.21924956137E+03  0.30112805492E+03  0.77879532596E+02 0.  0.
        254    2    1    2    0    0 -0.33717133135E+02 -0.18816394085E+03 -0.23134877824E+04  0.24905653119E+04  0.90230113598E+03 0.  0.
         23    2    4    4    0    0  0.17729206197E+03 -0.45200348026E+03 -0.18177151214E+04  0.18836951811E+04  0.92085022273E+02 0.  0.
         23    2    4    4    0    0 -0.21100919511E+03  0.26383953941E+03 -0.49577266104E+03  0.60687013087E+03  0.91458413138E+02 0.  0.
          4    1    3    3  502    0  0.39743380750E+01  0.57001284554E+02  0.19608148439E+02  0.60410440233E+02  0.00000000000E+00 0. -1.
         -3    1    3    3    0  502  0.29742795060E+02  0.13116265629E+03  0.19964141293E+03  0.24071761469E+03  0.00000000000E+00 0.  1.
         11    1    5    5    0    0  0.10066511267E+03 -0.33810542189E+03 -0.14113094152E+04  0.14547312489E+04  0.00000000000E+00 0.  1.
        -11    1    5    5    0    0  0.76626949296E+02 -0.11389805837E+03 -0.40640570619E+03  0.42896393215E+03  0.00000000000E+00 0. -1.
          2    1    6    6  503    0 -0.49295465873E+02  0.27270724279E+02 -0.13396351350E+03  0.14532707355E+03  0.00000000000E+00 0. -1.
         -2    1    6    6    0  503 -0.16171372923E+03  0.23656881513E+03 -0.36180914754E+03  0.46154305732E+03  0.00000000000E+00 0.  1.
<mgrwt>
<rscale>  0 0.18460006E+04</rscale>
<asrwt>0</asrwt>
<pdfrwt beam="1">  1        4 0.37584089E+00 0.18460006E+04</pdfrwt>
<pdfrwt beam="2">  1       -3 0.53650396E-01 0.18460006E+04</pdfrwt>
<totfact> 0.74022682E-02</totfact>
</mgrwt>
</event>
<event>
12    6  0.1462228E-007  0.1323757E+04  0.7818608E-02  0.9010935E-01
         -1   -1    0    0    0  501 -0.00000000000E+00  0.00000000000E+00  0.28429889002E+03  0.28429889002E+03  0.00000000000E+00 0.  1.
          2   -1    0    0  501    0  0.00000000000E+00 -0.00000000000E+00 -0.15409249465E+04  0.15409249465E+04  0.00000000000E+00 0. -1.
         24    2    1    2    0    0 -0.25520582588E+03 -0.23992506186E+03 -0.38700176937E+03  0.52754117676E+03  0.76388970448E+02 0.  0.
        254    2    1    2    0    0  0.25520582588E+03  0.23992506186E+03 -0.86962428711E+03  0.12976826598E+04  0.89724012163E+03 0.  0.
         23    2    4    4    0    0 -0.29848780675E+03 -0.57416206249E+01 -0.13157052480E+03  0.33840558082E+03  0.89886579368E+02 0.  0.
         23    2    4    4    0    0  0.55369363263E+03  0.24566668249E+03 -0.73805376232E+03  0.95927707895E+03  0.92522432097E+02 0.  0.
          4    1    3    3  502    0 -0.17251176679E+03 -0.11038334131E+03 -0.22382391937E+03  0.30338414362E+03  0.00000000000E+00 0. -1.
         -3    1    3    3    0  502 -0.82694059091E+02 -0.12954172056E+03 -0.16317785000E+03  0.22415703313E+03  0.00000000000E+00 0.  1.
         11    1    5    5    0    0 -0.29167361043E+03  0.11478769467E+02 -0.13081233454E+03  0.31987048010E+03  0.00000000000E+00 0.  1.
        -11    1    5    5    0    0 -0.68141963168E+01 -0.17220390092E+02 -0.75819025925E+00  0.18535100723E+02  0.00000000000E+00 0. -1.
          1    1    6    6  503    0  0.16895021650E+03  0.33853877332E+02 -0.18087051583E+03  0.24980873516E+03  0.00000000000E+00 0. -1.
         -1    1    6    6    0  503  0.38474341613E+03  0.21181280516E+03 -0.55718324649E+03  0.70946834379E+03  0.00000000000E+00 0.  1.
<mgrwt>
<rscale>  0 0.13237572E+04</rscale>
<asrwt>0</asrwt>
<pdfrwt beam="1">  1        2 0.23706537E+00 0.13237572E+04</pdfrwt>
<pdfrwt beam="2">  1       -1 0.43738291E-01 0.13237572E+04</pdfrwt>
<totfact> 0.69293982E+01</totfact>
</mgrwt>
</event>
<event>
12    6  0.1462228E-007  0.1498994E+04  0.7818608E-02  0.8885122E-01
          2   -1    0    0  501    0  0.00000000000E+00  0.00000000000E+00  0.97703883128E+03  0.97703883128E+03  0.00000000000E+00 0. -1.
         -1   -1    0    0    0  501 -0.00000000000E+00 -0.00000000000E+00 -0.57494740532E+03  0.57494740532E+03  0.00000000000E+00 0.  1.
         24    2    1    2    0    0  0.11520625512E+03 -0.15230803326E+03 -0.34201270576E+03  0.39974286693E+03  0.79695988281E+02 0.  0.
        254    2    1    2    0    0 -0.11520625512E+03  0.15230803326E+03  0.74410413173E+03  0.11522433697E+04  0.85878030128E+03 0.  0.
         23    2    4    4    0    0  0.20147167151E+03 -0.94895031911E+02 -0.60309578948E+02  0.24848675864E+03  0.92263331844E+02 0.  0.
         23    2    4    4    0    0 -0.31667792662E+03  0.24720306517E+03  0.80441371068E+03  0.90375661103E+03  0.91106143624E+02 0.  0.
          2    1    3    3  502    0 -0.11567467267E+02 -0.95596136696E+01 -0.36748160105E+02  0.39694077438E+02  0.00000000000E+00 0. -1.
         -1    1    3    3    0  502  0.12677372238E+03 -0.14274841959E+03 -0.30526454566E+03  0.36004878950E+03  0.00000000000E+00 0.  1.
         11    1    5    5    0    0  0.28893429558E+02 -0.32903034051E+02  0.20192186313E+02  0.48219957584E+02  0.00000000000E+00 0.  1.
        -11    1    5    5    0    0  0.17257824195E+03 -0.61991997860E+02 -0.80501765261E+02  0.20026680105E+03  0.00000000000E+00 0. -1.
          3    1    6    6  503    0 -0.29657552236E+03  0.19319618410E+03  0.70442444472E+03  0.78834992506E+03  0.00000000000E+00 0. -1.
         -3    1    6    6    0  503 -0.20102404265E+02  0.54006881071E+02  0.99989265956E+02  0.11540668597E+03  0.00000000000E+00 0.  1.
<mgrwt>
<rscale>  0 0.14989943E+04</rscale>
<asrwt>0</asrwt>
<pdfrwt beam="1">  1        2 0.15031367E+00 0.14989943E+04</pdfrwt>
<pdfrwt beam="2">  1       -1 0.88453447E-01 0.14989943E+04</pdfrwt>
<totfact> 0.36074251E+01</totfact>
</mgrwt>
</event>
<event>
12    6  0.1462228E-007  0.1328511E+04  0.7818608E-02  0.9007256E-01
         -1   -1    0    0    0  501 -0.00000000000E+00  0.00000000000E+00  0.32138757865E+03  0.32138757865E+03  0.00000000000E+00 0.  1.
          2   -1    0    0  501    0  0.00000000000E+00 -0.00000000000E+00 -0.13729075548E+04  0.13729075548E+04  0.00000000000E+00 0. -1.
         24    2    1    2    0    0 -0.30411715503E+02  0.27445996726E+03  0.12557753047E+02  0.28804315426E+03  0.80981574989E+02 0.  0.
        254    2    1    2    0    0  0.30411715503E+02 -0.27445996726E+03 -0.10640777292E+04  0.14062519792E+04  0.87694359518E+03 0.  0.
         23    2    4    4    0    0 -0.14404154833E+03 -0.20956943137E+03 -0.11499809147E+04  0.11821660446E+04  0.10194674501E+03 0.  0.
         23    2    4    4    0    0  0.17445326383E+03 -0.64890535895E+02  0.85903185427E+02  0.22408593458E+03  0.90500971806E+02 0.  0.
          4    1    3    3  502    0 -0.25927442465E+02  0.59813885059E+02  0.31715952387E+02  0.72497136181E+02  0.00000000000E+00 0. -1.
         -3    1    3    3    0  502 -0.44842730384E+01  0.21464608220E+03 -0.19158199340E+02  0.21554601808E+03  0.00000000000E+00 0.  1.
         11    1    5    5    0    0  0.43662305272E+01  0.85611740359E+01 -0.28763224564E+02  0.30326238758E+02  0.00000000000E+00 0. -1.
        -11    1    5    5    0    0 -0.14840777886E+03 -0.21813060540E+03 -0.11212176901E+04  0.11518398059E+04  0.00000000000E+00 0.  1.
          1    1    6    6  503    0  0.88778338535E+02 -0.79516860247E+02  0.39486863789E+02  0.12555372105E+03  0.00000000000E+00 0. -1.
         -1    1    6    6    0  503  0.85674925298E+02  0.14626324352E+02  0.46416321638E+02  0.98532213531E+02  0.00000000000E+00 0.  1.
<mgrwt>
<rscale>  0 0.13285111E+04</rscale>
<asrwt>0</asrwt>
<pdfrwt beam="1">  1        2 0.21121655E+00 0.13285111E+04</pdfrwt>
<pdfrwt beam="2">  1       -1 0.49444242E-01 0.13285111E+04</pdfrwt>
<totfact> 0.68549475E+01</totfact>
</mgrwt>
</event>
<event>
12    6  0.1462228E-007  0.2560634E+04  0.7818608E-02  0.8381697E-01
          2   -1    0    0  501    0  0.00000000000E+00  0.00000000000E+00  0.28673509778E+04  0.28673509778E+04  0.00000000000E+00 0. -1.
         -1   -1    0    0    0  501 -0.00000000000E+00 -0.00000000000E+00 -0.57168157158E+03  0.57168157158E+03  0.00000000000E+00 0.  1.
         24    2    1    2    0    0  0.50881534478E+03  0.68619996637E+03  0.19811485391E+04  0.21588710443E+04  0.77531946510E+02 0.  0.
        254    2    1    2    0    0 -0.50881534478E+03 -0.68619996637E+03  0.31452086710E+03  0.12801615051E+04  0.90007036083E+03 0.  0.
         23    2    4    4    0    0  0.92327517881E+02 -0.45716707848E+03  0.40467796540E+03  0.62414852189E+03  0.90945112510E+02 0.  0.
         23    2    4    4    0    0 -0.60114286266E+03 -0.22903288789E+03 -0.90157098302E+02  0.65601298324E+03  0.91629289785E+02 0.  0.
          2    1    3    3  502    0  0.39194945042E+03  0.55161294458E+03  0.16357515252E+04  0.17701932845E+04  0.00000000000E+00 0. -1.
         -1    1    3    3    0  502  0.11686589435E+03  0.13458702179E+03  0.34539701393E+03  0.38867775975E+03  0.00000000000E+00 0.  1.
         11    1    5    5    0    0 -0.42320129351E+01 -0.34280675035E+02  0.61235198282E+01  0.35079511248E+02  0.00000000000E+00 0.  1.
        -11    1    5    5    0    0  0.96559530816E+02 -0.42288640345E+03  0.39855444557E+03  0.58906901064E+03  0.00000000000E+00 0. -1.
          1    1    6    6  503    0 -0.57713720175E+03 -0.22894301551E+03 -0.10205617470E+03  0.62921992720E+03  0.00000000000E+00 0. -1.
         -1    1    6    6    0  503 -0.24005660911E+02 -0.89872381018E-01  0.11899076401E+02  0.26793056041E+02  0.00000000000E+00 0.  1.
<mgrwt>
<rscale>  0 0.25606341E+04</rscale>
<asrwt>0</asrwt>
<pdfrwt beam="1">  1        2 0.44113091E+00 0.25606341E+04</pdfrwt>
<pdfrwt beam="2">  1       -1 0.87951013E-01 0.25606341E+04</pdfrwt>
<totfact> 0.26978557E+00</totfact>
</mgrwt>
</event>
<event>
12    6  0.1959674E-007  0.2883130E+04  0.7818608E-02  0.8277914E-01
         -1   -1    0    0    0  501 -0.00000000000E+00  0.00000000000E+00  0.10210638208E+04  0.10210638208E+04  0.00000000000E+00 0.  1.
          2   -1    0    0  501    0  0.00000000000E+00 -0.00000000000E+00 -0.20352400897E+04  0.20352400897E+04  0.00000000000E+00 0. -1.
         24    2    1    2    0    0 -0.93270875598E+03 -0.67858798903E+02 -0.14211029552E+04  0.17030942776E+04  0.80287413694E+02 0.  0.
        254    2    1    2    0    0  0.93270875598E+03  0.67858798903E+02  0.40692668632E+03  0.13532096329E+04  0.88940235125E+03 0.  0.
         23    2    4    4    0    0  0.10701921156E+04 -0.55915186835E+02  0.39514291831E+03  0.11464140286E+04  0.98435393218E+02 0.  0.
         23    2    4    4    0    0 -0.13748335965E+03  0.12377398574E+03  0.11783768016E+02  0.20679560427E+03  0.91672738742E+02 0.  0.
          4    1    3    3  502    0 -0.81601932563E+03 -0.78146686612E+02 -0.12073081000E+04  0.14593105539E+04  0.00000000000E+00 0. -1.
         -3    1    3    3    0  502 -0.11668943034E+03  0.10287887709E+02 -0.21379485525E+03  0.24378372366E+03  0.00000000000E+00 0.  1.
         11    1    5    5    0    0  0.57052044160E+03  0.92943422962E+01  0.17804809129E+03  0.59772994060E+03  0.00000000000E+00 0.  1.
        -11    1    5    5    0    0  0.49967167403E+03 -0.65209529131E+02  0.21709482702E+03  0.54868408801E+03  0.00000000000E+00 0. -1.
          2    1    6    6  503    0 -0.14691554875E+03  0.10016094244E+03  0.22450465022E+02  0.17922169577E+03  0.00000000000E+00 0.  1.
         -2    1    6    6    0  503  0.94321890939E+01  0.23613043299E+02 -0.10666697006E+02  0.27573908500E+02  0.00000000000E+00 0. -1.
<mgrwt>
<rscale>  0 0.28831303E+04</rscale>
<asrwt>0</asrwt>
<pdfrwt beam="1">  1        2 0.31311385E+00 0.28831303E+04</pdfrwt>
<pdfrwt beam="2">  1       -1 0.15708674E+00 0.28831303E+04</pdfrwt>
<totfact> 0.19308791E+00</totfact>
</mgrwt>
</event>
<event>
12    6  0.1462228E-007  0.1777662E+04  0.7818608E-02  0.8718269E-01
         -1   -1    0    0    0  501 -0.00000000000E+00  0.00000000000E+00  0.23103920350E+03  0.23103920350E+03  0.00000000000E+00 0.  1.
          2   -1    0    0  501    0  0.00000000000E+00 -0.00000000000E+00 -0.34194232826E+04  0.34194232826E+04  0.00000000000E+00 0. -1.
         24    2    1    2    0    0 -0.50304996214E+01 -0.35555763611E+03 -0.23004425560E+04  0.23289391418E+04  0.73993473733E+02 0.  0.
        254    2    1    2    0    0  0.50304996214E+01  0.35555763611E+03 -0.88794152302E+03  0.13215233442E+04  0.91188665006E+03 0.  0.
         23    2    4    4    0    0  0.38798887106E+03 -0.52986844840E+02 -0.46123118031E+03  0.61166437756E+03  0.89755998693E+02 0.  0.
         23    2    4    4    0    0 -0.38295837144E+03  0.40854448095E+03 -0.42671034271E+03  0.70985896668E+03  0.90842329488E+02 0.  0.
          4    1    3    3  502    0 -0.68783436338E+01 -0.30075735260E+03 -0.20867800057E+04  0.21083531699E+04  0.00000000000E+00 0. -1.
         -3    1    3    3    0  502  0.18478440124E+01 -0.54800283511E+02 -0.21366255033E+03  0.22058597193E+03  0.00000000000E+00 0.  1.
         11    1    5    5    0    0  0.37595689542E+03 -0.68348136464E+02 -0.44183403008E+03  0.58415097801E+03  0.00000000000E+00 0. -1.
        -11    1    5    5    0    0  0.12031975639E+02  0.15361291624E+02 -0.19397150223E+02  0.27513399552E+02  0.00000000000E+00 0.  1.
          2    1    6    6  503    0 -0.10568220540E+03  0.17115567479E+03 -0.13049365521E+03  0.23977403446E+03  0.00000000000E+00 0.  1.
         -2    1    6    6    0  503 -0.27727616604E+03  0.23738880616E+03 -0.29621668751E+03  0.47008493222E+03  0.00000000000E+00 0. -1.
<mgrwt>
<rscale>  0 0.17776623E+04</rscale>
<asrwt>0</asrwt>
<pdfrwt beam="1">  1        2 0.52606510E+00 0.17776623E+04</pdfrwt>
<pdfrwt beam="2">  1       -1 0.35544494E-01 0.17776623E+04</pdfrwt>
<totfact> 0.75723736E+00</totfact>
</mgrwt>
</event>
<event>
12    6  0.1462228E-007  0.2242915E+04  0.7818608E-02  0.8500775E-01
          2   -1    0    0  501    0  0.00000000000E+00  0.00000000000E+00  0.23065965380E+04  0.23065965380E+04  0.00000000000E+00 0. -1.
         -1   -1    0    0    0  501 -0.00000000000E+00 -0.00000000000E+00 -0.54524787599E+03  0.54524787599E+03  0.00000000000E+00 0.  1.
         24    2    1    2    0    0 -0.19895319019E+03  0.36641917534E+03 -0.32833329076E+03  0.53662286779E+03  0.79473067539E+02 0.  0.
        254    2    1    2    0    0  0.19895319019E+03 -0.36641917534E+03  0.20896819528E+04  0.23152215462E+04  0.90533682148E+03 0.  0.
         23    2    4    4    0    0  0.13744169631E+03  0.25115026517E+03  0.11240665039E+04  0.11635030394E+04  0.90813775816E+02 0.  0.
         23    2    4    4    0    0  0.61511493888E+02 -0.61756944051E+03  0.96561544882E+03  0.11517185068E+04  0.94162870148E+02 0.  0.
          2    1    3    3  502    0 -0.48635981863E+02  0.72676822787E+02 -0.31995387413E+02  0.93118656121E+02  0.00000000000E+00 0. -1.
         -1    1    3    3    0  502 -0.15031720833E+03  0.29374235256E+03 -0.29633790335E+03  0.44350421167E+03  0.00000000000E+00 0.  1.
         11    1    5    5    0    0  0.76451675429E+02  0.53060602967E+02  0.35585830541E+03  0.36782525714E+03  0.00000000000E+00 0. -1.
        -11    1    5    5    0    0  0.60990020877E+02  0.19808966220E+03  0.76820819854E+03  0.79567778228E+03  0.00000000000E+00 0.  1.
          2    1    6    6  503    0  0.30689199314E+02 -0.55194747518E+02  0.12189042432E+03  0.13727914135E+03  0.00000000000E+00 0. -1.
         -2    1    6    6    0  503  0.30822294573E+02 -0.56237469300E+03  0.84372502450E+03  0.10144393654E+04  0.00000000000E+00 0.  1.
<mgrwt>
<rscale>  0 0.22429149E+04</rscale>
<asrwt>0</asrwt>
<pdfrwt beam="1">  1        2 0.35486100E+00 0.22429149E+04</pdfrwt>
<pdfrwt beam="2">  1       -1 0.83884290E-01 0.22429149E+04</pdfrwt>
<totfact> 0.65628610E+00</totfact>
</mgrwt>
</event>
<event>
12    6  0.1462228E-007  0.1645056E+04  0.7818608E-02  0.8793337E-01
          2   -1    0    0  501    0  0.00000000000E+00  0.00000000000E+00  0.13378364981E+04  0.13378364981E+04  0.00000000000E+00 0. -1.
         -1   -1    0    0    0  501 -0.00000000000E+00 -0.00000000000E+00 -0.50570640346E+03  0.50570640346E+03  0.00000000000E+00 0.  1.
         24    2    1    2    0    0 -0.20567404439E+03 -0.36788658646E+03 -0.14039756531E+03  0.45122039163E+03  0.79031717948E+02 0.  0.
        254    2    1    2    0    0  0.20567404439E+03  0.36788658646E+03  0.97252765993E+03  0.13923225099E+04  0.90283418700E+03 0.  0.
         23    2    4    4    0    0  0.23606037916E+03 -0.25333792082E+03  0.44749879726E+03  0.57307435287E+03  0.90853924730E+02 0.  0.
         23    2    4    4    0    0 -0.30386334767E+02  0.62122450729E+03  0.52502886267E+03  0.81924815703E+03  0.93107563426E+02 0.  0.
          2    1    3    3  502    0 -0.20406238148E+02 -0.11365809741E+02  0.50891546105E+01  0.23905975844E+02  0.00000000000E+00 0. -1.
         -1    1    3    3    0  502 -0.18526780624E+03 -0.35652077672E+03 -0.14548671992E+03  0.42731441579E+03  0.00000000000E+00 0.  1.
         11    1    5    5    0    0 -0.37986322563E+01 -0.18798126917E+02  0.96091792835E+01  0.21450769429E+02  0.00000000000E+00 0.  1.
        -11    1    5    5    0    0  0.23985901142E+03 -0.23453979391E+03  0.43788961797E+03  0.55162358344E+03  0.00000000000E+00 0. -1.
          1    1    6    6  503    0 -0.49307708796E+02  0.30397050035E+03  0.29926564460E+03  0.42940568379E+03  0.00000000000E+00 0. -1.
         -1    1    6    6    0  503  0.18921374029E+02  0.31725400694E+03  0.22576321807E+03  0.38984247325E+03  0.00000000000E+00 0.  1.
<mgrwt>
<rscale>  0 0.16450562E+04</rscale>
<asrwt>0</asrwt>
<pdfrwt beam="1">  1        2 0.20582100E+00 0.16450562E+04</pdfrwt>
<pdfrwt beam="2">  1       -1 0.77800986E-01 0.16450562E+04</pdfrwt>
<totfact> 0.28332590E+01</totfact>
</mgrwt>
</event>
<event>
12    6  0.1462228E-007  0.1272642E+04  0.7818608E-02  0.9051546E-01
         -1   -1    0    0    0  501 -0.00000000000E+00  0.00000000000E+00  0.23703423672E+03  0.23703423672E+03  0.00000000000E+00 0.  1.
          2   -1    0    0  501    0  0.00000000000E+00 -0.00000000000E+00 -0.17082118123E+04  0.17082118123E+04  0.00000000000E+00 0. -1.
         24    2    1    2    0    0 -0.37789889895E+02 -0.22101678296E+03 -0.37882660233E+02  0.24088421067E+03  0.79458246113E+02 0.  0.
        254    2    1    2    0    0  0.37789889895E+02  0.22101678296E+03 -0.14332949154E+04  0.17043618384E+04  0.89456048849E+03 0.  0.
         23    2    4    4    0    0  0.16276070145E+03 -0.29653482815E+03 -0.35866574987E+03  0.50157770052E+03  0.92277403976E+02 0.  0.
         23    2    4    4    0    0 -0.12497081156E+03  0.51755161111E+03 -0.10746291655E+04  0.12027841379E+04  0.91566724471E+02 0.  0.
          2    1    3    3  502    0 -0.36862058231E+01 -0.49967378209E+02 -0.43537502946E+02  0.66376510613E+02  0.00000000000E+00 0. -1.
         -1    1    3    3    0  502 -0.34103684071E+02 -0.17104940475E+03  0.56548427126E+01  0.17450770005E+03  0.00000000000E+00 0.  1.
         11    1    5    5    0    0  0.73210484911E+02 -0.21858527645E+03 -0.21519461792E+03  0.31535380411E+03  0.00000000000E+00 0.  1.
        -11    1    5    5    0    0  0.89550216542E+02 -0.77949551704E+02 -0.14347113195E+03  0.18622389642E+03  0.00000000000E+00 0. -1.
          3    1    6    6  503    0 -0.73482883296E+02  0.13763409435E+03 -0.28130108130E+03  0.32167246759E+03  0.00000000000E+00 0. -1.
         -3    1    6    6    0  503 -0.51487928263E+02  0.37991751676E+03 -0.79332808421E+03  0.88111167027E+03  0.00000000000E+00 0.  1.
<mgrwt>
<rscale>  0 0.12726424E+04</rscale>
<asrwt>0</asrwt>
<pdfrwt beam="1">  1        2 0.26280182E+00 0.12726424E+04</pdfrwt>
<pdfrwt beam="2">  1       -1 0.36466805E-01 0.12726424E+04</pdfrwt>
<totfact> 0.78235246E+01</totfact>
</mgrwt>
</event>
<event>
12    6  0.1462228E-007  0.3533794E+04  0.7818608E-02  0.8105828E-01
          2   -1    0    0  501    0  0.00000000000E+00  0.00000000000E+00  0.17707735523E+04  0.17707735523E+04  0.00000000000E+00 0. -1.
         -1   -1    0    0    0  501 -0.00000000000E+00 -0.00000000000E+00 -0.17630292924E+04  0.17630292924E+04  0.00000000000E+00 0.  1.
         24    2    1    2    0    0 -0.10413895138E+04  0.43364415625E+03 -0.12040989039E+04  0.16520710659E+04  0.83338241398E+02 0.  0.
        254    2    1    2    0    0  0.10413895138E+04 -0.43364415625E+03  0.12118431638E+04  0.18817317788E+04  0.89432167591E+03 0.  0.
         23    2    4    4    0    0  0.70018556778E+03 -0.67752502865E+03  0.10128119165E+04  0.14085399128E+04  0.94322394643E+02 0.  0.
         23    2    4    4    0    0  0.34120394603E+03  0.24388087240E+03  0.19903124731E+03  0.47319186596E+03  0.91646559639E+02 0.  0.
          4    1    3    3  502    0 -0.94538152006E+02  0.14438918779E+02 -0.10002926656E+03  0.13839002395E+03  0.00000000000E+00 0. -1.
         -3    1    3    3    0  502 -0.94685136181E+03  0.41920523747E+03 -0.11040696374E+04  0.15136810419E+04  0.00000000000E+00 0.  1.
         11    1    5    5    0    0  0.38973813905E+03 -0.43139577456E+03  0.63799983545E+03  0.86315810914E+03  0.00000000000E+00 0.  1.
        -11    1    5    5    0    0  0.31044742874E+03 -0.24612925409E+03  0.37481208104E+03  0.54538180371E+03  0.00000000000E+00 0. -1.
          2    1    6    6  503    0  0.67478593685E+02  0.85027539500E+02  0.22678987897E+02  0.11089355063E+03  0.00000000000E+00 0. -1.
         -2    1    6    6    0  503  0.27372535234E+03  0.15885333290E+03  0.17635225942E+03  0.36229831533E+03  0.00000000000E+00 0.  1.
<mgrwt>
<rscale>  0 0.35337944E+04</rscale>
<asrwt>0</asrwt>
<pdfrwt beam="1">  1        2 0.27242670E+00 0.35337944E+04</pdfrwt>
<pdfrwt beam="2">  1       -1 0.27123528E+00 0.35337944E+04</pdfrwt>
<totfact> 0.42368689E-01</totfact>
</mgrwt>
</event>
<event>
12    6  0.1462228E-007  0.1311321E+04  0.7818608E-02  0.9020635E-01
         -1   -1    0    0    0  501 -0.00000000000E+00  0.00000000000E+00  0.32680210773E+03  0.32680210773E+03  0.00000000000E+00 0.  1.
          2   -1    0    0  501    0  0.00000000000E+00 -0.00000000000E+00 -0.13154473898E+04  0.13154473898E+04  0.00000000000E+00 0. -1.
         24    2    1    2    0    0 -0.25617088596E+03  0.28174249775E+02 -0.64548797665E+03  0.69967249425E+03  0.80433575362E+02 0.  0.
        254    2    1    2    0    0  0.25617088596E+03 -0.28174249775E+02 -0.34315730540E+03  0.94257700326E+03  0.83921222563E+03 0.  0.
         23    2    4    4    0    0  0.49324317570E+03  0.50616814542E+02  0.70940945348E+01  0.50281646050E+03  0.83205615734E+02 0.  0.
         23    2    4    4    0    0 -0.23707228973E+03 -0.78791064317E+02 -0.35025139994E+03  0.43976054275E+03  0.91115253554E+02 0.  0.
          2    1    3    3  502    0 -0.26133329906E+03  0.22656419774E+02 -0.63041820431E+03  0.68281441028E+03  0.00000000000E+00 0. -1.
         -1    1    3    3    0  502  0.51624130978E+01  0.55178300012E+01 -0.15069772340E+02  0.16858083974E+02  0.00000000000E+00 0.  1.
         11    1    5    5    0    0  0.39041123542E+03  0.36893331991E+02 -0.28378238342E+02  0.39317601033E+03  0.00000000000E+00 0.  1.
        -11    1    5    5    0    0  0.10283194028E+03  0.13723482550E+02  0.35472332877E+02  0.10964045017E+03  0.00000000000E+00 0. -1.
          3    1    6    6  503    0 -0.74111904021E+01 -0.30301351110E+02 -0.40710512250E+02  0.51287848755E+02  0.00000000000E+00 0. -1.
         -3    1    6    6    0  503 -0.22966109933E+03 -0.48489713207E+02 -0.30954088769E+03  0.38847269400E+03  0.00000000000E+00 0.  1.
<mgrwt>
<rscale>  0 0.13113214E+04</rscale>
<asrwt>0</asrwt>
<pdfrwt beam="1">  1        2 0.20237652E+00 0.13113214E+04</pdfrwt>
<pdfrwt beam="2">  1       -1 0.50277247E-01 0.13113214E+04</pdfrwt>
<totfact> 0.71778171E+01</totfact>
</mgrwt>
</event>
<event>
12    6  0.1462228E-007  0.2136689E+04  0.7818608E-02  0.8545252E-01
          2   -1    0    0  501    0  0.00000000000E+00  0.00000000000E+00  0.15655965868E+04  0.15655965868E+04  0.00000000000E+00 0. -1.
         -1   -1    0    0    0  501 -0.00000000000E+00 -0.00000000000E+00 -0.72902571047E+03  0.72902571047E+03  0.00000000000E+00 0.  1.
         24    2    1    2    0    0 -0.97256284022E+02  0.78726490293E+03  0.83826733690E+03  0.11569368738E+04  0.81030795008E+02 0.  0.
        254    2    1    2    0    0  0.97256284022E+02 -0.78726490293E+03 -0.16964605998E+01  0.11376854234E+04  0.81552463635E+03 0.  0.
         23    2    4    4    0    0 -0.26139184054E+03 -0.69699594097E+03  0.60382338406E+02  0.75239594324E+03  0.91239205320E+02 0.  0.
         23    2    4    4    0    0  0.35864812456E+03 -0.90268961960E+02 -0.62078799006E+02  0.38528948016E+03  0.88415176834E+02 0.  0.
          2    1    3    3  502    0 -0.17887904750E+02  0.38550679937E+03  0.44699577810E+03  0.59054271237E+03  0.00000000000E+00 0. -1.
         -3    1    3    3    0  502 -0.79368379272E+02  0.40175810355E+03  0.39127155880E+03  0.56639416145E+03  0.00000000000E+00 0.  1.
         11    1    5    5    0    0 -0.25388859420E+03 -0.68940069955E+03  0.48268849269E+02  0.73624902351E+03  0.00000000000E+00 0. -1.
        -11    1    5    5    0    0 -0.75032463371E+01 -0.75952414174E+01  0.12113489137E+02  0.16146919733E+02  0.00000000000E+00 0.  1.
          2    1    6    6  503    0  0.62643051024E+02 -0.23488551654E+02  0.21975189289E+02  0.70418554690E+02  0.00000000000E+00 0.  1.
         -2    1    6    6    0  503  0.29600507354E+03 -0.66780410305E+02 -0.84053988295E+02  0.31487092547E+03  0.00000000000E+00 0. -1.
<mgrwt>
<rscale>  0 0.21366892E+04</rscale>
<asrwt>0</asrwt>
<pdfrwt beam="1">  1        2 0.24086101E+00 0.21366892E+04</pdfrwt>
<pdfrwt beam="2">  1       -1 0.11215780E+00 0.21366892E+04</pdfrwt>
<totfact> 0.88923622E+00</totfact>
</mgrwt>
</event>
<event>
12    6  0.1462228E-007  0.1752418E+04  0.7818608E-02  0.8732021E-01
          2   -1    0    0  501    0  0.00000000000E+00  0.00000000000E+00  0.25028025123E+04  0.25028025123E+04  0.00000000000E+00 0. -1.
         -1   -1    0    0    0  501 -0.00000000000E+00 -0.00000000000E+00 -0.30675291696E+03  0.30675291696E+03  0.00000000000E+00 0.  1.
         24    2    1    2    0    0 -0.11372178468E+03  0.42096748914E+03  0.15602725537E+04  0.16220409613E+04  0.80125945301E+02 0.  0.
        254    2    1    2    0    0  0.11372178468E+03 -0.42096748914E+03  0.63577704160E+03  0.11875144679E+04  0.90323413002E+03 0.  0.
         23    2    4    4    0    0 -0.23165678696E+03 -0.65947607169E+02  0.63412122572E+03  0.68420091147E+03  0.89482984527E+02 0.  0.
         23    2    4    4    0    0  0.34537857163E+03 -0.35501988197E+03  0.16558158762E+01  0.50331355643E+03  0.89422145019E+02 0.  0.
          2    1    3    3  502    0 -0.12365855267E+03  0.41106953451E+03  0.15156102459E+04  0.15752282429E+04  0.00000000000E+00 0. -1.
         -1    1    3    3    0  502  0.99367679878E+01  0.98979546218E+01  0.44662307842E+02  0.46812718417E+02  0.00000000000E+00 0.  1.
         11    1    5    5    0    0 -0.23350523766E+03 -0.75457135097E+02  0.58942981833E+03  0.63847160155E+03  0.00000000000E+00 0. -1.
        -11    1    5    5    0    0  0.18484507056E+01  0.95095279283E+01  0.44691407393E+02  0.45729309925E+02  0.00000000000E+00 0.  1.
          2    1    6    6  503    0  0.26458674743E+03 -0.21279770052E+03  0.77724721991E+01  0.33963129948E+03  0.00000000000E+00 0. -1.
         -2    1    6    6    0  503  0.80791824200E+02 -0.14222218145E+03 -0.61166563229E+01  0.16368225694E+03  0.00000000000E+00 0.  1.
<mgrwt>
<rscale>  0 0.17524177E+04</rscale>
<asrwt>0</asrwt>
<pdfrwt beam="1">  1        2 0.38504653E+00 0.17524177E+04</pdfrwt>
<pdfrwt beam="2">  1       -1 0.47192758E-01 0.17524177E+04</pdfrwt>
<totfact> 0.16783913E+01</totfact>
</mgrwt>
</event>
<event>
12    6  0.1462228E-007  0.9822565E+03  0.7818608E-02  0.9328223E-01
          2   -1    0    0  501    0  0.00000000000E+00  0.00000000000E+00  0.10201106550E+04  0.10201106550E+04  0.00000000000E+00 0. -1.
         -1   -1    0    0    0  501 -0.00000000000E+00 -0.00000000000E+00 -0.23645174397E+03  0.23645174397E+03  0.00000000000E+00 0.  1.
         24    2    1    2    0    0  0.29467035234E+02  0.24773985690E+02  0.24800802502E+02  0.92361029115E+02  0.80208623988E+02 0.  0.
        254    2    1    2    0    0 -0.29467035234E+02 -0.24773985690E+02  0.75885810851E+03  0.11642013698E+04  0.88205280122E+03 0.  0.
         23    2    4    4    0    0  0.15166789052E+03  0.10310731552E+03  0.87415316126E+03  0.89829434514E+03  0.95680267699E+02 0.  0.
         23    2    4    4    0    0 -0.18113492575E+03 -0.12788130121E+03 -0.11529505276E+03  0.26590702469E+03  0.90830105504E+02 0.  0.
          4    1    3    3  502    0  0.23830844043E+02  0.27263126409E+02  0.52615784248E+02  0.63871808659E+02  0.00000000000E+00 0. -1.
         -3    1    3    3    0  502  0.56361911909E+01 -0.24891407191E+01 -0.27814981746E+02  0.28489220456E+02  0.00000000000E+00 0.  1.
         11    1    5    5    0    0  0.36736221791E+01  0.10096140442E+02  0.52018873386E+01  0.11936799555E+02  0.00000000000E+00 0. -1.
        -11    1    5    5    0    0  0.14799426834E+03  0.93011175074E+02  0.86895127393E+03  0.88635754558E+03  0.00000000000E+00 0.  1.
          4    1    6    6  503    0 -0.10582013583E+03 -0.24804108077E+02 -0.31348759257E+02  0.11311891810E+03  0.00000000000E+00 0. -1.
         -4    1    6    6    0  503 -0.75314789917E+02 -0.10307719313E+03 -0.83946293501E+02  0.15278810659E+03  0.00000000000E+00 0.  1.
<mgrwt>
<rscale>  0 0.98225647E+03</rscale>
<asrwt>0</asrwt>
<pdfrwt beam="1">  1        2 0.15694010E+00 0.98225647E+03</pdfrwt>
<pdfrwt beam="2">  1       -1 0.36377192E-01 0.98225647E+03</pdfrwt>
<totfact> 0.20140866E+02</totfact>
</mgrwt>
</event>
<event>
12    6  0.1462228E-007  0.1389816E+04  0.7818608E-02  0.8961223E-01
          2   -1    0    0  501    0  0.00000000000E+00  0.00000000000E+00  0.16501587817E+04  0.16501587817E+04  0.00000000000E+00 0. -1.
         -1   -1    0    0    0  501 -0.00000000000E+00 -0.00000000000E+00 -0.29263677954E+03  0.29263677954E+03  0.00000000000E+00 0.  1.
         24    2    1    2    0    0 -0.28315365955E+03  0.15698741938E+03  0.67695356533E+03  0.75495906203E+03  0.82921715887E+02 0.  0.
        254    2    1    2    0    0  0.28315365955E+03 -0.15698741938E+03  0.68056843680E+03  0.11878364992E+04  0.91812913410E+03 0.  0.
         23    2    4    4    0    0 -0.13022759603E+03 -0.30517216357E+03 -0.32730470120E+02  0.34531498097E+03  0.89899255959E+02 0.  0.
         23    2    4    4    0    0  0.41338125558E+03  0.14818474420E+03  0.71329890692E+03  0.84252151822E+03  0.90578127445E+02 0.  0.
          4    1    3    3  502    0 -0.21706242325E+03  0.98371125243E+02  0.41559080489E+03  0.47907065343E+03  0.00000000000E+00 0. -1.
         -3    1    3    3    0  502 -0.66091236301E+02  0.58616294132E+02  0.26136276044E+03  0.27588840860E+03  0.00000000000E+00 0.  1.
         11    1    5    5    0    0 -0.58655250435E+02 -0.20978340453E+03  0.11474919333E+02  0.21813112798E+03  0.00000000000E+00 0.  1.
        -11    1    5    5    0    0 -0.71572345590E+02 -0.95388759044E+02 -0.44205389453E+02  0.12718385299E+03  0.00000000000E+00 0. -1.
          1    1    6    6  503    0  0.82558833120E+02 -0.52578821508E+01  0.15453427221E+03  0.17528390553E+03  0.00000000000E+00 0. -1.
         -1    1    6    6    0  503  0.33082242246E+03  0.15344262635E+03  0.55876463471E+03  0.66723761269E+03  0.00000000000E+00 0.  1.
<mgrwt>
<rscale>  0 0.13898160E+04</rscale>
<asrwt>0</asrwt>
<pdfrwt beam="1">  1        2 0.25387058E+00 0.13898160E+04</pdfrwt>
<pdfrwt beam="2">  1       -1 0.45021044E-01 0.13898160E+04</pdfrwt>
<totfact> 0.56763282E+01</totfact>
</mgrwt>
</event>
<event>
12    6  0.1462228E-007  0.1514154E+04  0.7818608E-02  0.8875095E-01
          2   -1    0    0  501    0  0.00000000000E+00  0.00000000000E+00  0.37582173671E+03  0.37582173671E+03  0.00000000000E+00 0. -1.
         -1   -1    0    0    0  501 -0.00000000000E+00 -0.00000000000E+00 -0.15250987653E+04  0.15250987653E+04  0.00000000000E+00 0.  1.
         24    2    1    2    0    0 -0.36061160712E+02  0.34751220650E+03 -0.79702844279E+03  0.87403625130E+03  0.81362700303E+02 0.  0.
        254    2    1    2    0    0  0.36061160712E+02 -0.34751220650E+03 -0.35224858581E+03  0.10268842507E+04  0.89908122947E+03 0.  0.
         23    2    4    4    0    0  0.23858942543E+03  0.20642150450E+03  0.15065951751E+02  0.32600268195E+03  0.80721832774E+02 0.  0.
         23    2    4    4    0    0 -0.20252826472E+03 -0.55393371100E+03 -0.36731453757E+03  0.70088156876E+03  0.91949713038E+02 0.  0.
          4    1    3    3  502    0  0.12765200828E+02  0.56097581891E+02 -0.19655457367E+03  0.20480134149E+03  0.00000000000E+00 0. -1.
         -3    1    3    3    0  502 -0.48826361540E+02  0.29141462461E+03 -0.60047386912E+03  0.66923490982E+03  0.00000000000E+00 0.  1.
         11    1    5    5    0    0  0.15159805347E+01  0.52135232870E+01  0.14040035907E+02  0.15053293006E+02  0.00000000000E+00 0. -1.
        -11    1    5    5    0    0  0.23707344490E+03  0.20120798122E+03  0.10259158439E+01  0.31094938895E+03  0.00000000000E+00 0.  1.
          2    1    6    6  503    0 -0.12380653123E+03 -0.20734803746E+03 -0.14663471939E+03  0.28252965640E+03  0.00000000000E+00 0. -1.
         -2    1    6    6    0  503 -0.78721733491E+02 -0.34658567354E+03 -0.22067981818E+03  0.41835191237E+03  0.00000000000E+00 0.  1.
<mgrwt>
<rscale>  0 0.15141536E+04</rscale>
<asrwt>0</asrwt>
<pdfrwt beam="1">  1        2 0.57818729E-01 0.15141536E+04</pdfrwt>
<pdfrwt beam="2">  1       -1 0.23463058E+00 0.15141536E+04</pdfrwt>
<totfact> 0.82886723E+00</totfact>
</mgrwt>
</event>
<event>
12    6  0.1462228E-007  0.4252087E+04  0.7818608E-02  0.7955538E-01
          2   -1    0    0  501    0  0.00000000000E+00  0.00000000000E+00  0.16424763299E+04  0.16424763299E+04  0.00000000000E+00 0. -1.
         -1   -1    0    0    0  501 -0.00000000000E+00 -0.00000000000E+00 -0.27519794605E+04  0.27519794605E+04  0.00000000000E+00 0.  1.
         24    2    1    2    0    0 -0.19408259481E+04  0.52627785859E+03 -0.80906642864E+03  0.21692856536E+04  0.86243932107E+02 0.  0.
        254    2    1    2    0    0  0.19408259481E+04 -0.52627785859E+03 -0.30043670202E+03  0.22251701368E+04  0.90407199973E+03 0.  0.
         23    2    4    4    0    0  0.36711380553E+03 -0.49536780585E+03 -0.14935445332E+03  0.64122474295E+03  0.93277054902E+02 0.  0.
         23    2    4    4    0    0  0.15737121425E+04 -0.30910052740E+02 -0.15108224870E+03  0.15839453938E+04  0.92367883568E+02 0.  0.
          2    1    3    3  502    0 -0.62700961150E+03  0.15092322087E+03 -0.29820586463E+03  0.71052488290E+03  0.00000000000E+00 0. -1.
         -1    1    3    3    0  502 -0.13138163366E+04  0.37535463771E+03 -0.51086056400E+03  0.14587607707E+04  0.00000000000E+00 0.  1.
         11    1    5    5    0    0  0.81427555891E+02 -0.54484948753E+02 -0.30285098686E+02  0.10254873818E+03  0.00000000000E+00 0. -1.
        -11    1    5    5    0    0  0.28568624964E+03 -0.44088285709E+03 -0.11906935463E+03  0.53867600478E+03  0.00000000000E+00 0.  1.
          2    1    6    6  503    0  0.81003251320E+03 -0.27106609397E+02 -0.12277046702E+03  0.81973168066E+03  0.00000000000E+00 0. -1.
         -2    1    6    6    0  503  0.76367962933E+03 -0.38034433427E+01 -0.28311781676E+02  0.76421371319E+03  0.00000000000E+00 0.  1.
<mgrwt>
<rscale>  0 0.42520871E+04</rscale>
<asrwt>0</asrwt>
<pdfrwt beam="1">  1        2 0.25268866E+00 0.42520871E+04</pdfrwt>
<pdfrwt beam="2">  1       -1 0.42338146E+00 0.42520871E+04</pdfrwt>
<totfact> 0.45921031E-02</totfact>
</mgrwt>
</event>
<event>
12    6  0.1462228E-007  0.1992459E+04  0.7818608E-02  0.8610154E-01
         -1   -1    0    0    0  501 -0.00000000000E+00  0.00000000000E+00  0.40665174938E+03  0.40665174938E+03  0.00000000000E+00 0.  1.
          2   -1    0    0  501    0  0.00000000000E+00 -0.00000000000E+00 -0.24405982950E+04  0.24405982950E+04  0.00000000000E+00 0. -1.
         24    2    1    2    0    0 -0.42021621001E+03 -0.85175515929E+02  0.13453709114E+03  0.45618391102E+03  0.78530249647E+02 0.  0.
        254    2    1    2    0    0  0.42021621001E+03  0.85175515929E+02 -0.21684836367E+04  0.23910661333E+04  0.91161364598E+03 0.  0.
         23    2    4    4    0    0  0.66571962326E+02  0.24793502337E+03 -0.18762361099E+04  0.18956788972E+04  0.86214495087E+02 0.  0.
         23    2    4    4    0    0  0.35364424768E+03 -0.16275950744E+03 -0.29224752685E+03  0.49538723617E+03  0.91896602905E+02 0.  0.
          2    1    3    3  502    0 -0.67337943915E+02 -0.32359289099E+02 -0.40438126243E+00  0.74710680668E+02  0.00000000000E+00 0. -1.
         -1    1    3    3    0  502 -0.35287826609E+03 -0.52816226830E+02  0.13494147241E+03  0.38147323035E+03  0.00000000000E+00 0.  1.
         11    1    5    5    0    0  0.80091827387E+02  0.13953448758E+03 -0.11824745161E+04  0.11933694128E+04  0.00000000000E+00 0.  1.
        -11    1    5    5    0    0 -0.13519865061E+02  0.10840053578E+03 -0.69376159378E+03  0.70230948443E+03  0.00000000000E+00 0. -1.
          3    1    6    6  503    0  0.34453002954E+02  0.73384335836E+01 -0.45537770220E+02  0.57572133334E+02  0.00000000000E+00 0. -1.
         -3    1    6    6    0  503  0.31919124473E+03 -0.17009794102E+03 -0.24670975663E+03  0.43781510283E+03  0.00000000000E+00 0.  1.
<mgrwt>
<rscale>  0 0.19924594E+04</rscale>
<asrwt>0</asrwt>
<pdfrwt beam="1">  1        2 0.37547666E+00 0.19924594E+04</pdfrwt>
<pdfrwt beam="2">  1       -1 0.62561808E-01 0.19924594E+04</pdfrwt>
<totfact> 0.10336487E+01</totfact>
</mgrwt>
</event>
<event>
12    6  0.1462228E-007  0.1506807E+04  0.7818608E-02  0.8879939E-01
         -1   -1    0    0    0  501 -0.00000000000E+00  0.00000000000E+00  0.34767652446E+03  0.34767652446E+03  0.00000000000E+00 0.  1.
          2   -1    0    0  501    0  0.00000000000E+00 -0.00000000000E+00 -0.16325993753E+04  0.16325993753E+04  0.00000000000E+00 0. -1.
         24    2    1    2    0    0 -0.36306707573E+03 -0.11039458049E+03 -0.55424350064E+02  0.39196656096E+03  0.81001613908E+02 0.  0.
        254    2    1    2    0    0  0.36306707573E+03  0.11039458049E+03 -0.12294985007E+04  0.15883093388E+04  0.93115805715E+03 0.  0.
         23    2    4    4    0    0  0.22377325875E+03 -0.10609700920E+03 -0.12824737913E+04  0.13094673960E+04  0.92923565436E+02 0.  0.
         23    2    4    4    0    0  0.13929381698E+03  0.21649158969E+03  0.52975290600E+02  0.27884194276E+03  0.93140065355E+02 0.  0.
          2    1    3    3  502    0  0.26982570712E+01 -0.91623339704E+00  0.46673115690E+01  0.54684433015E+01  0.00000000000E+00 0. -1.
         -1    1    3    3    0  502 -0.36576533280E+03 -0.10947834709E+03 -0.60091661633E+02  0.38649811766E+03  0.00000000000E+00 0.  1.
         11    1    5    5    0    0  0.33707644847E+02 -0.52793920741E+02 -0.21687611735E+03  0.22574023492E+03  0.00000000000E+00 0.  1.
        -11    1    5    5    0    0  0.19006561390E+03 -0.53303088461E+02 -0.10655976740E+04  0.10837271611E+04  0.00000000000E+00 0. -1.
          3    1    6    6  503    0  0.98319682426E+02  0.14878073962E+03  0.79667712157E+02  0.19531874665E+03  0.00000000000E+00 0. -1.
         -3    1    6    6    0  503  0.40974134554E+02  0.67710850071E+02 -0.26692421557E+02  0.83523196109E+02  0.00000000000E+00 0.  1.
<mgrwt>
<rscale>  0 0.15068065E+04</rscale>
<asrwt>0</asrwt>
<pdfrwt beam="1">  1        2 0.25116913E+00 0.15068065E+04</pdfrwt>
<pdfrwt beam="2">  1       -1 0.53488697E-01 0.15068065E+04</pdfrwt>
<totfact> 0.41486969E+01</totfact>
</mgrwt>
</event>
<event>
12    6  0.1462228E-007  0.1673639E+04  0.7818608E-02  0.8776543E-01
          2   -1    0    0  501    0  0.00000000000E+00  0.00000000000E+00  0.15901270121E+04  0.15901270121E+04  0.00000000000E+00 0. -1.
         -1   -1    0    0    0  501 -0.00000000000E+00 -0.00000000000E+00 -0.44038446040E+03  0.44038446040E+03  0.00000000000E+00 0.  1.
         24    2    1    2    0    0 -0.29602189640E+02  0.41954207637E+03 -0.93122389901E+02  0.43861753747E+03  0.82593711623E+02 0.  0.
        254    2    1    2    0    0  0.29602189640E+02 -0.41954207637E+03  0.12428649416E+04  0.15918939350E+04  0.90139957504E+03 0.  0.
         23    2    4    4    0    0 -0.30119701016E+03 -0.54110625031E+03  0.85955426043E+03  0.10633719334E+04  0.91710027317E+02 0.  0.
         23    2    4    4    0    0  0.33079919980E+03  0.12156417394E+03  0.38331068118E+03  0.52852200162E+03  0.90567482696E+02 0.  0.
          2    1    3    3  502    0  0.11417212911E+01  0.30990110814E+03 -0.38374261717E+02  0.31227005031E+03  0.00000000000E+00 0. -1.
         -1    1    3    3    0  502 -0.30743910931E+02  0.10964096822E+03 -0.54748128184E+02  0.12634748716E+03  0.00000000000E+00 0.  1.
         11    1    5    5    0    0 -0.63677529562E+02 -0.76944740662E+02  0.19098418509E+03  0.21552326983E+03  0.00000000000E+00 0. -1.
        -11    1    5    5    0    0 -0.23751948060E+03 -0.46416150965E+03  0.66857007535E+03  0.84784866359E+03  0.00000000000E+00 0.  1.
          2    1    6    6  503    0  0.96513821069E+02  0.34361109608E+02  0.17649459247E+03  0.20407338063E+03  0.00000000000E+00 0. -1.
         -2    1    6    6    0  503  0.23428537873E+03  0.87203064336E+02  0.20681608870E+03  0.32444862099E+03  0.00000000000E+00 0.  1.
<mgrwt>
<rscale>  0 0.16736394E+04</rscale>
<asrwt>0</asrwt>
<pdfrwt beam="1">  1        2 0.24463492E+00 0.16736394E+04</pdfrwt>
<pdfrwt beam="2">  1       -1 0.67751456E-01 0.16736394E+04</pdfrwt>
<totfact> 0.27067157E+01</totfact>
</mgrwt>
</event>
<event>
12    6  0.1462228E-007  0.1640576E+04  0.7818608E-02  0.8796001E-01
         -1   -1    0    0    0  501 -0.00000000000E+00  0.00000000000E+00  0.10212949544E+04  0.10212949544E+04  0.00000000000E+00 0.  1.
          2   -1    0    0  501    0  0.00000000000E+00 -0.00000000000E+00 -0.65884211700E+03  0.65884211700E+03  0.00000000000E+00 0. -1.
         24    2    1    2    0    0  0.48466678429E+02  0.53711389903E+03  0.44363572592E+03  0.70278124691E+03  0.79047227925E+02 0.  0.
        254    2    1    2    0    0 -0.48466678429E+02 -0.53711389903E+03 -0.81182888548E+02  0.97735582446E+03  0.81104462687E+03 0.  0.
         23    2    4    4    0    0  0.18525480850E+03 -0.57322749663E+03  0.15734859109E+03  0.62904707103E+03  0.89624391120E+02 0.  0.
         23    2    4    4    0    0 -0.23372148693E+03  0.36113597604E+02 -0.23853147964E+03  0.34830875343E+03  0.92150938978E+02 0.  0.
          2    1    3    3  502    0 -0.26336428087E+01  0.41782601899E+01  0.18462738220E+02  0.19111950064E+02  0.00000000000E+00 0. -1.
         -1    1    3    3    0  502  0.51100321238E+02  0.53293563884E+03  0.42517298770E+03  0.68366929684E+03  0.00000000000E+00 0.  1.
         11    1    5    5    0    0  0.17650391470E+03 -0.51178065390E+03  0.16632029603E+03  0.56633515738E+03  0.00000000000E+00 0.  1.
        -11    1    5    5    0    0  0.87508937958E+01 -0.61446842731E+02 -0.89717049404E+01  0.62711913647E+02  0.00000000000E+00 0. -1.
          2    1    6    6  503    0 -0.64267285675E+02  0.50537489626E+02 -0.98498816912E+02  0.12800913561E+03  0.00000000000E+00 0. -1.
         -2    1    6    6    0  503 -0.16945420125E+03 -0.14423892022E+02 -0.14003266273E+03  0.22029961783E+03  0.00000000000E+00 0.  1.
<mgrwt>
<rscale>  0 0.16405757E+04</rscale>
<asrwt>0</asrwt>
<pdfrwt beam="1">  1        2 0.10136033E+00 0.16405757E+04</pdfrwt>
<pdfrwt beam="2">  1       -1 0.15712230E+00 0.16405757E+04</pdfrwt>
<totfact> 0.14839537E+01</totfact>
</mgrwt>
</event>
<event>
12    6  0.1462228E-007  0.1911347E+04  0.7818608E-02  0.8649229E-01
         -1   -1    0    0    0  501 -0.00000000000E+00  0.00000000000E+00  0.31359566366E+03  0.31359566366E+03  0.00000000000E+00 0.  1.
          2   -1    0    0  501    0  0.00000000000E+00 -0.00000000000E+00 -0.29123871724E+04  0.29123871724E+04  0.00000000000E+00 0. -1.
         24    2    1    2    0    0 -0.23632647331E+03  0.72850040400E+03 -0.11736541864E+04  0.14037867222E+04  0.81178640556E+02 0.  0.
        254    2    1    2    0    0  0.23632647331E+03 -0.72850040400E+03 -0.14251373224E+04  0.18221961139E+04  0.83834315711E+03 0.  0.
         23    2    4    4    0    0 -0.20380984379E+03 -0.14611809605E+03 -0.84462790424E+03  0.88578041804E+03  0.91223362967E+02 0.  0.
         23    2    4    4    0    0  0.44013631709E+03 -0.58238230795E+03 -0.58050941819E+03  0.93641569585E+03  0.83630380757E+02 0.  0.
          4    1    3    3  502    0 -0.21581953334E+02  0.11476209261E+03 -0.13616884924E+03  0.17938247995E+03  0.00000000000E+00 0. -1.
         -3    1    3    3    0  502 -0.21474451997E+03  0.61373831139E+03 -0.10374853371E+04  0.12244042423E+04  0.00000000000E+00 0.  1.
         11    1    5    5    0    0 -0.47742705184E+02 -0.85459248777E+02 -0.35846661865E+03  0.37159247272E+03  0.00000000000E+00 0.  1.
        -11    1    5    5    0    0 -0.15606713860E+03 -0.60658847273E+02 -0.48616128559E+03  0.51418794532E+03  0.00000000000E+00 0. -1.
          4    1    6    6  503    0  0.79843271221E+02 -0.15862602634E+03 -0.12036836205E+03  0.21453602675E+03  0.00000000000E+00 0.  1.
         -4    1    6    6    0  503  0.36029304587E+03 -0.42375628161E+03 -0.46014105615E+03  0.72187966910E+03  0.00000000000E+00 0. -1.
<mgrwt>
<rscale>  0 0.19113472E+04</rscale>
<asrwt>0</asrwt>
<pdfrwt beam="1">  1        2 0.44805954E+00 0.19113472E+04</pdfrwt>
<pdfrwt beam="2">  1       -1 0.48245489E-01 0.19113472E+04</pdfrwt>
<totfact> 0.90554297E+00</totfact>
</mgrwt>
</event>
<event>
12    6  0.1462228E-007  0.1468684E+04  0.7818608E-02  0.8905549E-01
          2   -1    0    0  501    0  0.00000000000E+00  0.00000000000E+00  0.59506348803E+03  0.59506348803E+03  0.00000000000E+00 0. -1.
         -1   -1    0    0    0  501 -0.00000000000E+00 -0.00000000000E+00 -0.90621955009E+03  0.90621955009E+03  0.00000000000E+00 0.  1.
         24    2    1    2    0    0 -0.43222846477E+02  0.21050176149E+03 -0.50159432629E+03  0.55096056853E+03  0.76036003703E+02 0.  0.
        254    2    1    2    0    0  0.43222846477E+02 -0.21050176149E+03  0.19043826423E+03  0.95032246960E+03  0.90590664955E+03 0.  0.
         23    2    4    4    0    0 -0.40936290300E+03 -0.36242420755E+02 -0.27387794388E+00  0.42104780572E+03  0.91595197917E+02 0.  0.
         23    2    4    4    0    0  0.45258574948E+03 -0.17425934073E+03  0.19071214217E+03  0.52927466388E+03  0.92522268619E+02 0.  0.
          4    1    3    3  502    0 -0.32861038920E+02  0.24405397367E+02 -0.75428918574E+02  0.85819537734E+02  0.00000000000E+00 0. -1.
         -3    1    3    3    0  502 -0.10361807557E+02  0.18609636412E+03 -0.42616540772E+03  0.46514103079E+03  0.00000000000E+00 0.  1.
         11    1    5    5    0    0 -0.97437100098E+02 -0.47989109740E+02  0.67335010012E+01  0.10882225492E+03  0.00000000000E+00 0. -1.
        -11    1    5    5    0    0 -0.31192580290E+03  0.11746688985E+02 -0.70073789451E+01  0.31222555081E+03  0.00000000000E+00 0.  1.
          2    1    6    6  503    0  0.21689323323E+03 -0.10982475072E+03  0.53093578125E+02  0.24884348199E+03  0.00000000000E+00 0. -1.
         -2    1    6    6    0  503  0.23569251625E+03 -0.64434590014E+02  0.13761856405E+03  0.28043118189E+03  0.00000000000E+00 0.  1.
<mgrwt>
<rscale>  0 0.14686840E+04</rscale>
<asrwt>0</asrwt>
<pdfrwt beam="1">  1        2 0.91548228E-01 0.14686840E+04</pdfrwt>
<pdfrwt beam="2">  1       -1 0.13941839E+00 0.14686840E+04</pdfrwt>
<totfact> 0.23496286E+01</totfact>
</mgrwt>
</event>
<event>
12    6  0.1462228E-007  0.1585761E+04  0.7818608E-02  0.8829344E-01
         -1   -1    0    0    0  501 -0.00000000000E+00  0.00000000000E+00  0.40116233465E+03  0.40116233465E+03  0.00000000000E+00 0.  1.
          2   -1    0    0  501    0  0.00000000000E+00 -0.00000000000E+00 -0.15670944011E+04  0.15670944011E+04  0.00000000000E+00 0. -1.
         24    2    1    2    0    0  0.40285644403E+03  0.40753086169E+01  0.42416251284E+02  0.41068764522E+03  0.67492821355E+02 0.  0.
        254    2    1    2    0    0 -0.40285644403E+03 -0.40753086169E+01 -0.12083483178E+04  0.15575690906E+04  0.89644067968E+03 0.  0.
         23    2    4    4    0    0 -0.32388283765E+03  0.55560779961E+02  0.61954524618E+00  0.34102659739E+03  0.91168325065E+02 0.  0.
         23    2    4    4    0    0 -0.78973606371E+02 -0.59636088578E+02 -0.12089678630E+04  0.12165424932E+04  0.92623162988E+02 0.  0.
          2    1    3    3  502    0  0.40848959594E+02 -0.12625794171E+01 -0.16132303260E+02  0.43937259987E+02  0.00000000000E+00 0. -1.
         -1    1    3    3    0  502  0.36200748443E+03  0.53378880340E+01  0.58548554544E+02  0.36675038524E+03  0.00000000000E+00 0.  1.
         11    1    5    5    0    0 -0.84723690850E+02  0.53236437623E+02  0.16134042102E+02  0.10135348734E+03  0.00000000000E+00 0.  1.
        -11    1    5    5    0    0 -0.23915914680E+03  0.23243423380E+01 -0.15514496856E+02  0.23967311005E+03  0.00000000000E+00 0. -1.
          4    1    6    6  503    0 -0.30479301298E+02 -0.11667501656E+02 -0.87862558857E+03  0.87923150722E+03  0.00000000000E+00 0. -1.
         -4    1    6    6    0  503 -0.48494305073E+02 -0.47968586923E+02 -0.33034227446E+03  0.33731098596E+03  0.00000000000E+00 0.  1.
<mgrwt>
<rscale>  0 0.15857607E+04</rscale>
<asrwt>0</asrwt>
<pdfrwt beam="1">  1        2 0.24109145E+00 0.15857607E+04</pdfrwt>
<pdfrwt beam="2">  1       -1 0.61717282E-01 0.15857607E+04</pdfrwt>
<totfact> 0.33888386E+01</totfact>
</mgrwt>
</event>
<event>
12    6  0.1462228E-007  0.2701601E+04  0.7818608E-02  0.8334486E-01
         -1   -1    0    0    0  501 -0.00000000000E+00  0.00000000000E+00  0.71406745547E+03  0.71406745547E+03  0.00000000000E+00 0.  1.
          2   -1    0    0  501    0  0.00000000000E+00 -0.00000000000E+00 -0.25553085267E+04  0.25553085267E+04  0.00000000000E+00 0. -1.
         24    2    1    2    0    0 -0.93599240396E+02 -0.81264753943E+03  0.24456914775E+03  0.85770452879E+03  0.81768878732E+02 0.  0.
        254    2    1    2    0    0  0.93599240396E+02  0.81264753943E+03 -0.20858102189E+04  0.24116714533E+04  0.89241138960E+03 0.  0.
         23    2    4    4    0    0 -0.17042222229E+02  0.11313368307E+03  0.54939583859E+02  0.15493941166E+03  0.88871794326E+02 0.  0.
         23    2    4    4    0    0  0.11064146262E+03  0.69951385636E+03 -0.21407498028E+04  0.22567320417E+04  0.92025112247E+02 0.  0.
          2    1    3    3  502    0  0.35160919860E+01 -0.40870172788E+01 -0.34522526755E+01  0.64019263997E+01  0.00000000000E+00 0. -1.
         -1    1    3    3    0  502 -0.97115332382E+02 -0.80856052215E+03  0.24802140043E+03  0.85130260239E+03  0.00000000000E+00 0.  1.
         11    1    5    5    0    0 -0.31557756063E+02  0.11666531204E+03  0.64707660493E+02  0.13709036555E+03  0.00000000000E+00 0. -1.
        -11    1    5    5    0    0  0.14515533834E+02 -0.35316289712E+01 -0.97680766334E+01  0.17849046103E+02  0.00000000000E+00 0.  1.
          1    1    6    6  503    0  0.85757815506E+02  0.27279301556E+03 -0.80743860328E+03  0.85657896911E+03  0.00000000000E+00 0. -1.
         -1    1    6    6    0  503  0.24883647119E+02  0.42672084080E+03 -0.13333111995E+04  0.14001530726E+04  0.00000000000E+00 0.  1.
<mgrwt>
<rscale>  0 0.27016015E+04</rscale>
<asrwt>0</asrwt>
<pdfrwt beam="1">  1        2 0.39312438E+00 0.27016015E+04</pdfrwt>
<pdfrwt beam="2">  1       -1 0.10985653E+00 0.27016015E+04</pdfrwt>
<totfact> 0.24672053E+00</totfact>
</mgrwt>
</event>
<event>
12    6  0.1462228E-007  0.1064438E+04  0.7818608E-02  0.9240563E-01
          2   -1    0    0  501    0  0.00000000000E+00  0.00000000000E+00  0.24483291584E+04  0.24483291584E+04  0.00000000000E+00 0. -1.
         -1   -1    0    0    0  501 -0.00000000000E+00 -0.00000000000E+00 -0.11569402638E+03  0.11569402638E+03  0.00000000000E+00 0.  1.
         24    2    1    2    0    0  0.73594861684E+02  0.88987929926E+02  0.37141588026E+03  0.39655174157E+03  0.77255888399E+02 0.  0.
        254    2    1    2    0    0 -0.73594861684E+02 -0.88987929926E+02  0.19612192518E+04  0.21674714432E+04  0.91554161476E+03 0.  0.
         23    2    4    4    0    0  0.19076505415E+03  0.33168102216E+03  0.60869169378E+03  0.72377490384E+03  0.83312226064E+02 0.  0.
         23    2    4    4    0    0 -0.26435991583E+03 -0.42066895209E+03  0.13525275580E+04  0.14436965394E+04  0.89890880333E+02 0.  0.
          2    1    3    3  502    0 -0.11643463470E+02  0.32785434638E+02  0.12672588547E+03  0.13141501061E+03  0.00000000000E+00 0. -1.
         -3    1    3    3    0  502  0.85238325154E+02  0.56202495288E+02  0.24468999480E+03  0.26513673096E+03  0.00000000000E+00 0.  1.
         11    1    5    5    0    0  0.14313492060E+03  0.16611521652E+03  0.33601301112E+03  0.40123137253E+03  0.00000000000E+00 0. -1.
        -11    1    5    5    0    0  0.47630133543E+02  0.16556580564E+03  0.27267868266E+03  0.32254353132E+03  0.00000000000E+00 0.  1.
          4    1    6    6  503    0 -0.20972022296E+03 -0.25582131521E+03  0.85790268794E+03  0.91946948791E+03  0.00000000000E+00 0. -1.
         -4    1    6    6    0  503 -0.54639692867E+02 -0.16484763688E+03  0.49462487006E+03  0.52422705148E+03  0.00000000000E+00 0.  1.
<mgrwt>
<rscale>  0 0.10644380E+04</rscale>
<asrwt>0</asrwt>
<pdfrwt beam="1">  1        2 0.37666599E+00 0.10644380E+04</pdfrwt>
<pdfrwt beam="2">  1       -1 0.17799083E-01 0.10644380E+04</pdfrwt>
<totfact> 0.10592449E+02</totfact>
</mgrwt>
</event>
<event>
12    6  0.1462228E-007  0.2136174E+04  0.7818608E-02  0.8545474E-01
         -1   -1    0    0    0  501 -0.00000000000E+00  0.00000000000E+00  0.98444054839E+03  0.98444054839E+03  0.00000000000E+00 0.  1.
          2   -1    0    0  501    0  0.00000000000E+00 -0.00000000000E+00 -0.11588404324E+04  0.11588404324E+04  0.00000000000E+00 0. -1.
         24    2    1    2    0    0  0.36321386254E+03  0.65327891680E+02  0.72485032657E+03  0.81725452594E+03  0.79403531794E+02 0.  0.
        254    2    1    2    0    0 -0.36321386254E+03 -0.65327891680E+02 -0.89925021061E+03  0.13260264549E+04  0.90194410825E+03 0.  0.
         23    2    4    4    0    0 -0.56723096695E+03 -0.64701595186E+02 -0.93630797392E+03  0.11004204763E+04  0.91188465903E+02 0.  0.
         23    2    4    4    0    0  0.20401710441E+03 -0.62629649399E+00  0.37057763305E+02  0.22560597860E+03  0.88889867933E+02 0.  0.
          2    1    3    3  502    0  0.16497479777E+02 -0.86909292755E+01  0.15522340237E+02  0.24261948337E+02  0.00000000000E+00 0. -1.
         -1    1    3    3    0  502  0.34671638276E+03  0.74018820956E+02  0.70932798633E+03  0.79299257760E+03  0.00000000000E+00 0.  1.
         11    1    5    5    0    0 -0.51493848627E+03 -0.38722837264E+02 -0.87303044002E+03  0.10143191076E+04  0.00000000000E+00 0.  1.
        -11    1    5    5    0    0 -0.52292480687E+02 -0.25978757922E+02 -0.63277533893E+02  0.86101368718E+02  0.00000000000E+00 0. -1.
          3    1    6    6  503    0  0.11323917605E+03  0.40808807341E+02  0.38196767409E+01  0.12042864975E+03  0.00000000000E+00 0. -1.
         -3    1    6    6    0  503  0.90777928358E+02 -0.41435103835E+02  0.33238086564E+02  0.10517732886E+03  0.00000000000E+00 0.  1.
<mgrwt>
<rscale>  0 0.21361737E+04</rscale>
<asrwt>0</asrwt>
<pdfrwt beam="1">  1        2 0.17828314E+00 0.21361737E+04</pdfrwt>
<pdfrwt beam="2">  1       -1 0.15145239E+00 0.21361737E+04</pdfrwt>
<totfact> 0.71414666E+00</totfact>
</mgrwt>
</event>
<event>
12    6  0.1462228E-007  0.1707990E+04  0.7818608E-02  0.8756820E-01
         -1   -1    0    0    0  501 -0.00000000000E+00  0.00000000000E+00  0.63615463698E+03  0.63615463698E+03  0.00000000000E+00 0.  1.
          2   -1    0    0  501    0  0.00000000000E+00 -0.00000000000E+00 -0.11464315000E+04  0.11464315000E+04  0.00000000000E+00 0. -1.
         24    2    1    2    0    0  0.38255135651E+02 -0.36841980150E+03 -0.72081946863E+03  0.81424763374E+03  0.78879003251E+02 0.  0.
        254    2    1    2    0    0 -0.38255135651E+02  0.36841980150E+03  0.21054260557E+03  0.96833850328E+03  0.86957153969E+03 0.  0.
         23    2    4    4    0    0 -0.34205787315E+03  0.44311590515E+03  0.28277762642E+03  0.63389666771E+03  0.92230718026E+02 0.  0.
         23    2    4    4    0    0  0.30380273750E+03 -0.74696103654E+02 -0.72235020854E+02  0.33444183557E+03  0.93583288725E+02 0.  0.
          4    1    3    3  502    0  0.62413877809E+02 -0.27316113504E+03 -0.54591432053E+03  0.61362443172E+03  0.00000000000E+00 0. -1.
         -3    1    3    3    0  502 -0.24158742157E+02 -0.95258666453E+02 -0.17490514810E+03  0.20062320202E+03  0.00000000000E+00 0.  1.
         11    1    5    5    0    0 -0.28483605942E+03  0.38554532824E+03  0.20456205105E+03  0.52117407227E+03  0.00000000000E+00 0. -1.
        -11    1    5    5    0    0 -0.57221813728E+02  0.57570576912E+02  0.78215575376E+02  0.11272259544E+03  0.00000000000E+00 0.  1.
          3    1    6    6  503    0  0.70456326423E+02 -0.51498814590E+02  0.53736033395E+01  0.87436247919E+02  0.00000000000E+00 0. -1.
         -3    1    6    6    0  503  0.23334641108E+03 -0.23197289064E+02 -0.77608624193E+02  0.24700558765E+03  0.00000000000E+00 0.  1.
<mgrwt>
<rscale>  0 0.17079903E+04</rscale>
<asrwt>0</asrwt>
<pdfrwt beam="1">  1        2 0.17637408E+00 0.17079903E+04</pdfrwt>
<pdfrwt beam="2">  1       -1 0.97869945E-01 0.17079903E+04</pdfrwt>
<totfact> 0.22155567E+01</totfact>
</mgrwt>
</event>
<event>
12    6  0.1462228E-007  0.2854723E+04  0.7818608E-02  0.8286478E-01
         -1   -1    0    0    0  501 -0.00000000000E+00  0.00000000000E+00  0.68752196361E+03  0.68752196361E+03  0.00000000000E+00 0.  1.
          2   -1    0    0  501    0  0.00000000000E+00 -0.00000000000E+00 -0.29633391257E+04  0.29633391257E+04  0.00000000000E+00 0. -1.
         24    2    1    2    0    0  0.45358991712E+03  0.11955180003E+04 -0.11696772362E+04  0.17348286662E+04  0.80489515419E+02 0.  0.
        254    2    1    2    0    0 -0.45358991712E+03 -0.11955180003E+04 -0.11061399260E+04  0.19160324232E+04  0.90145860077E+03 0.  0.
         23    2    4    4    0    0 -0.60965555388E+03 -0.37072311618E+03 -0.53891403514E+03  0.89877924669E+03  0.90886048219E+02 0.  0.
         23    2    4    4    0    0  0.15606563676E+03 -0.82479488415E+03 -0.56722589081E+03  0.10172531765E+04  0.91737287951E+02 0.  0.
          2    1    3    3  502    0  0.29418414069E+03  0.72037904935E+03 -0.66489637895E+03  0.10235123244E+04  0.00000000000E+00 0. -1.
         -1    1    3    3    0  502  0.15940577643E+03  0.47513895098E+03 -0.50478085721E+03  0.71131634180E+03  0.00000000000E+00 0.  1.
         11    1    5    5    0    0 -0.21801237062E+03 -0.13934422110E+03 -0.25070566468E+03  0.36027702675E+03  0.00000000000E+00 0.  1.
        -11    1    5    5    0    0 -0.39164318325E+03 -0.23137889508E+03 -0.28820837046E+03  0.53850221994E+03  0.00000000000E+00 0. -1.
          2    1    6    6  503    0 -0.32994798500E+01 -0.20700025482E+02 -0.32011661477E+02  0.38263874513E+02  0.00000000000E+00 0. -1.
         -2    1    6    6    0  503  0.15936511661E+03 -0.80409485867E+03 -0.53521422934E+03  0.97898930199E+03  0.00000000000E+00 0.  1.
<mgrwt>
<rscale>  0 0.28547229E+04</rscale>
<asrwt>0</asrwt>
<pdfrwt beam="1">  1        2 0.45589832E+00 0.28547229E+04</pdfrwt>
<pdfrwt beam="2">  1       -1 0.10577261E+00 0.28547229E+04</pdfrwt>
<totfact> 0.15116002E+00</totfact>
</mgrwt>
</event>
<event>
12    6  0.1462228E-007  0.1742389E+04  0.7818608E-02  0.8737551E-01
          2   -1    0    0  501    0  0.00000000000E+00  0.00000000000E+00  0.83018033055E+03  0.83018033055E+03  0.00000000000E+00 0. -1.
         -1   -1    0    0    0  501 -0.00000000000E+00 -0.00000000000E+00 -0.91423526312E+03  0.91423526312E+03  0.00000000000E+00 0.  1.
         24    2    1    2    0    0 -0.38964644987E+03  0.49386676917E+03 -0.10464221464E+03  0.64359226684E+03  0.86788658651E+02 0.  0.
        254    2    1    2    0    0  0.38964644987E+03 -0.49386676917E+03  0.20587282065E+02  0.11008233268E+04  0.90313864890E+03 0.  0.
         23    2    4    4    0    0  0.52880048955E+03 -0.37049444659E+03  0.32866818511E+03  0.73009197952E+03  0.90085681195E+02 0.  0.
         23    2    4    4    0    0 -0.13915403968E+03 -0.12337232257E+03 -0.30808090305E+03  0.37073134731E+03  0.89125261955E+02 0.  0.
          2    1    3    3  502    0 -0.21518929950E+03  0.29183544892E+03 -0.18341706903E+02  0.36305754651E+03  0.00000000000E+00 0. -1.
         -1    1    3    3    0  502 -0.17445715038E+03  0.20203132024E+03 -0.86300507737E+02  0.28053472033E+03  0.00000000000E+00 0.  1.
         11    1    5    5    0    0  0.27009744385E+03 -0.20674511632E+03  0.22057034192E+03  0.40539788854E+03  0.00000000000E+00 0. -1.
        -11    1    5    5    0    0  0.25870304570E+03 -0.16374933027E+03  0.10809784320E+03  0.32469409099E+03  0.00000000000E+00 0.  1.
          1    1    6    6  503    0 -0.23022104699E+02 -0.50958785162E+02 -0.15807775957E+03  0.16767645381E+03  0.00000000000E+00 0. -1.
         -1    1    6    6    0  503 -0.11613193498E+03 -0.72413537410E+02 -0.15000314347E+03  0.20305489350E+03  0.00000000000E+00 0.  1.
<mgrwt>
<rscale>  0 0.17423893E+04</rscale>
<asrwt>0</asrwt>
<pdfrwt beam="1">  1        2 0.12772005E+00 0.17423893E+04</pdfrwt>
<pdfrwt beam="2">  1       -1 0.14065158E+00 0.17423893E+04</pdfrwt>
<totfact> 0.14693277E+01</totfact>
</mgrwt>
</event>
<event>
12    6  0.1585740E-007  0.1934079E+04  0.7818608E-02  0.8638077E-01
         -1   -1    0    0    0  501 -0.00000000000E+00  0.00000000000E+00  0.13899348806E+04  0.13899348806E+04  0.00000000000E+00 0.  1.
          2   -1    0    0  501    0  0.00000000000E+00 -0.00000000000E+00 -0.67281223269E+03  0.67281223269E+03  0.00000000000E+00 0. -1.
         24    2    1    2    0    0  0.31176771413E+03  0.11723283943E+03  0.99860537287E+03  0.10551971406E+04  0.72702604433E+02 0.  0.
        254    2    1    2    0    0 -0.31176771413E+03 -0.11723283943E+03 -0.28148272500E+03  0.10075499726E+04  0.90828507452E+03 0.  0.
         23    2    4    4    0    0  0.13748789297E+03  0.10070736269E+03  0.22059182566E+03  0.29364597227E+03  0.92316357538E+02 0.  0.
         23    2    4    4    0    0 -0.44925560710E+03 -0.21794020212E+03 -0.50207455066E+03  0.71390400033E+03  0.90837960419E+02 0.  0.
          4    1    3    3  502    0  0.94781676520E+01 -0.92230473215E+01  0.36384463170E+02  0.38713426922E+02  0.00000000000E+00 0. -1.
         -3    1    3    3    0  502  0.30228954648E+03  0.12645588675E+03  0.96222090970E+03  0.10164837137E+04  0.00000000000E+00 0.  1.
         11    1    5    5    0    0  0.14857408807E+03  0.87062981745E+02  0.17847489513E+03  0.24800707778E+03  0.00000000000E+00 0.  1.
        -11    1    5    5    0    0 -0.11086195100E+02  0.13644380945E+02  0.42116930531E+02  0.45638894493E+02  0.00000000000E+00 0. -1.
          4    1    6    6  503    0 -0.50859372151E+02 -0.12797583426E+01 -0.77293724157E+02  0.92534497951E+02  0.00000000000E+00 0. -1.
         -4    1    6    6    0  503 -0.39839623495E+03 -0.21666044378E+03 -0.42478082650E+03  0.62136950238E+03  0.00000000000E+00 0.  1.
<mgrwt>
<rscale>  0 0.19340788E+04</rscale>
<asrwt>0</asrwt>
<pdfrwt beam="1">  1        2 0.10350957E+00 0.19340788E+04</pdfrwt>
<pdfrwt beam="2">  1       -1 0.21383613E+00 0.19340788E+04</pdfrwt>
<totfact> 0.55608837E+00</totfact>
</mgrwt>
</event>
<event>
12    6  0.1462228E-007  0.1835088E+04  0.7818608E-02  0.8687859E-01
          2   -1    0    0  501    0  0.00000000000E+00  0.00000000000E+00  0.84665256979E+03  0.84665256979E+03  0.00000000000E+00 0. -1.
         -1   -1    0    0    0  501 -0.00000000000E+00 -0.00000000000E+00 -0.99437134221E+03  0.99437134221E+03  0.00000000000E+00 0.  1.
         24    2    1    2    0    0  0.62920599050E+03 -0.16665796051E+03 -0.28990422316E+03  0.71694632976E+03  0.79325449004E+02 0.  0.
        254    2    1    2    0    0 -0.62920599050E+03  0.16665796051E+03  0.14218545074E+03  0.11240775822E+04  0.90535001751E+03 0.  0.
         23    2    4    4    0    0 -0.50659505868E+03 -0.30737745555E+03 -0.21194670972E+02  0.60001961637E+03  0.91950379525E+02 0.  0.
         23    2    4    4    0    0 -0.12261093182E+03  0.47403541606E+03  0.16338012171E+03  0.52405796586E+03  0.90557557040E+02 0.  0.
          4    1    3    3  502    0  0.49317236128E+01 -0.72934072589E-01  0.47183061219E+01  0.68256596628E+01  0.00000000000E+00 0. -1.
         -3    1    3    3    0  502  0.62427426689E+03 -0.16658502644E+03 -0.29462252928E+03  0.71012067009E+03  0.00000000000E+00 0.  1.
         11    1    5    5    0    0 -0.39504078569E+03 -0.20953182537E+03  0.14488290324E+02  0.44740442416E+03  0.00000000000E+00 0.  1.
        -11    1    5    5    0    0 -0.11155427299E+03 -0.97845630173E+02 -0.35682961297E+02  0.15261519221E+03  0.00000000000E+00 0. -1.
          1    1    6    6  503    0 -0.86904448332E+02  0.16300007336E+03  0.66672618032E+02  0.19638392259E+03  0.00000000000E+00 0. -1.
         -1    1    6    6    0  503 -0.35706483485E+02  0.31103534270E+03  0.96707503680E+02  0.32767404328E+03  0.00000000000E+00 0.  1.
<mgrwt>
<rscale>  0 0.18350881E+04</rscale>
<asrwt>0</asrwt>
<pdfrwt beam="1">  1        2 0.13025424E+00 0.18350881E+04</pdfrwt>
<pdfrwt beam="2">  1       -1 0.15298021E+00 0.18350881E+04</pdfrwt>
<totfact> 0.11341488E+01</totfact>
</mgrwt>
</event>
<event>
12    6  0.1462228E-007  0.1773162E+04  0.7818608E-02  0.8720703E-01
          2   -1    0    0  501    0  0.00000000000E+00  0.00000000000E+00  0.16190271885E+04  0.16190271885E+04  0.00000000000E+00 0. -1.
         -1   -1    0    0    0  501 -0.00000000000E+00 -0.00000000000E+00 -0.48549276226E+03  0.48549276226E+03  0.00000000000E+00 0.  1.
         24    2    1    2    0    0  0.57247897793E+02  0.25858023735E+01  0.11872787205E+04  0.11913855225E+04  0.80527603407E+02 0.  0.
        254    2    1    2    0    0 -0.57247897793E+02 -0.25858023735E+01 -0.53744294259E+02  0.91313442825E+03  0.90974833153E+03 0.  0.
         23    2    4    4    0    0 -0.31995683372E+03 -0.32895284934E+03  0.57577247257E+02  0.47130777537E+03  0.90738785491E+02 0.  0.
         23    2    4    4    0    0  0.26270893593E+03  0.32636704696E+03 -0.11132154152E+03  0.44182665288E+03  0.85363172543E+02 0.  0.
          4    1    3    3  502    0  0.54541595212E+02 -0.12632582807E+02  0.11450321366E+04  0.11464000007E+04  0.00000000000E+00 0. -1.
         -3    1    3    3    0  502  0.27063025810E+01  0.15218385180E+02  0.42246583919E+02  0.44985521826E+02  0.00000000000E+00 0.  1.
         11    1    5    5    0    0 -0.25426199539E+02 -0.19227601757E+02 -0.18975130130E+02  0.37097814704E+02  0.00000000000E+00 0.  1.
        -11    1    5    5    0    0 -0.29453063418E+03 -0.30972524758E+03  0.76552377386E+02  0.43420996067E+03  0.00000000000E+00 0. -1.
          3    1    6    6  503    0 -0.32455675970E+01 -0.17394507599E+01  0.24393477448E+01  0.44169916677E+01  0.00000000000E+00 0.  1.
         -3    1    6    6    0  503  0.26595450353E+03  0.32810649772E+03 -0.11376088926E+03  0.43740966121E+03  0.00000000000E+00 0. -1.
<mgrwt>
<rscale>  0 0.17731621E+04</rscale>
<asrwt>0</asrwt>
<pdfrwt beam="1">  1        2 0.24908110E+00 0.17731621E+04</pdfrwt>
<pdfrwt beam="2">  1       -1 0.74691195E-01 0.17731621E+04</pdfrwt>
<totfact> 0.21151015E+01</totfact>
</mgrwt>
</event>
<event>
12    6  0.1462228E-007  0.2311697E+04  0.7818608E-02  0.8473323E-01
          2   -1    0    0  501    0  0.00000000000E+00  0.00000000000E+00  0.18257551892E+04  0.18257551892E+04  0.00000000000E+00 0. -1.
         -1   -1    0    0    0  501 -0.00000000000E+00 -0.00000000000E+00 -0.73174446869E+03  0.73174446869E+03  0.00000000000E+00 0.  1.
         24    2    1    2    0    0 -0.71873257771E+03 -0.65042988861E+03  0.60406896705E+03  0.11450807891E+04  0.81701519673E+02 0.  0.
        254    2    1    2    0    0  0.71873257771E+03  0.65042988861E+03  0.48994175342E+03  0.14124188688E+04  0.90291116997E+03 0.  0.
         23    2    4    4    0    0  0.16952465479E+03 -0.11686414464E+03  0.40166138632E+03  0.46029678764E+03  0.90252016985E+02 0.  0.
         23    2    4    4    0    0  0.54920792292E+03  0.76729403325E+03  0.88280367099E+02  0.95212208113E+03  0.91507147832E+02 0.  0.
          2    1    3    3  502    0 -0.46728216139E+03 -0.39274530532E+03  0.41788855293E+03  0.73975153658E+03  0.00000000000E+00 0. -1.
         -1    1    3    3    0  502 -0.25145041631E+03 -0.25768458328E+03  0.18618041412E+03  0.40532925249E+03  0.00000000000E+00 0.  1.
         11    1    5    5    0    0  0.90439543285E+02 -0.11359007578E+03  0.24557215598E+03  0.28528529597E+03  0.00000000000E+00 0. -1.
        -11    1    5    5    0    0  0.79085111504E+02 -0.32740688591E+01  0.15608923034E+03  0.17501149167E+03  0.00000000000E+00 0.  1.
          4    1    6    6  503    0  0.24266463947E+03  0.26914451051E+03  0.51833000453E+02  0.36607588656E+03  0.00000000000E+00 0.  1.
         -4    1    6    6    0  503  0.30654328345E+03  0.49814952273E+03  0.36447366647E+02  0.58604619456E+03  0.00000000000E+00 0. -1.
<mgrwt>
<rscale>  0 0.23116974E+04</rscale>
<asrwt>0</asrwt>
<pdfrwt beam="1">  1        2 0.28088541E+00 0.23116974E+04</pdfrwt>
<pdfrwt beam="2">  1       -1 0.11257607E+00 0.23116974E+04</pdfrwt>
<totfact> 0.62182841E+00</totfact>
</mgrwt>
</event>
<event>
12    6  0.1462228E-007  0.1399793E+04  0.7818608E-02  0.8953969E-01
          2   -1    0    0  501    0  0.00000000000E+00  0.00000000000E+00  0.99708005224E+03  0.99708005224E+03  0.00000000000E+00 0. -1.
         -1   -1    0    0    0  501 -0.00000000000E+00 -0.00000000000E+00 -0.49128937610E+03  0.49128937610E+03  0.00000000000E+00 0.  1.
         24    2    1    2    0    0  0.24379122725E+03  0.26728137739E+03  0.34392655969E+03  0.50551031697E+03  0.79885573853E+02 0.  0.
        254    2    1    2    0    0 -0.24379122725E+03 -0.26728137739E+03  0.16186411644E+03  0.98285911138E+03  0.89941010859E+03 0.  0.
         23    2    4    4    0    0 -0.16634178473E+03  0.18539034487E+03 -0.24605486339E+03  0.36148258711E+03  0.89930504668E+02 0.  0.
         23    2    4    4    0    0 -0.77449442522E+02 -0.45267172227E+03  0.40791897983E+03  0.62137652426E+03  0.93812507237E+02 0.  0.
          2    1    3    3  502    0  0.38503754639E+02  0.63760517700E+02  0.11385994818E+03  0.13605892304E+03  0.00000000000E+00 0. -1.
         -3    1    3    3    0  502  0.20528747261E+03  0.20352085969E+03  0.23006661152E+03  0.36945139393E+03  0.00000000000E+00 0.  1.
         11    1    5    5    0    0 -0.76448848031E+02  0.24651664562E+02 -0.83036602752E+02  0.11553011870E+03  0.00000000000E+00 0. -1.
        -11    1    5    5    0    0 -0.89892936700E+02  0.16073868031E+03 -0.16301826064E+03  0.24595246841E+03  0.00000000000E+00 0.  1.
          2    1    6    6  503    0  0.19609973675E+02 -0.52538433676E+02  0.36848479860E+02  0.67101777537E+02  0.00000000000E+00 0. -1.
         -2    1    6    6    0  503 -0.97059416197E+02 -0.40013328859E+03  0.37107049997E+03  0.55427474673E+03  0.00000000000E+00 0.  1.
<mgrwt>
<rscale>  0 0.13997926E+04</rscale>
<asrwt>0</asrwt>
<pdfrwt beam="1">  1        2 0.15339693E+00 0.13997926E+04</pdfrwt>
<pdfrwt beam="2">  1       -1 0.75582981E-01 0.13997926E+04</pdfrwt>
<totfact> 0.49428137E+01</totfact>
</mgrwt>
</event>
<event>
12    6  0.1462228E-007  0.1951283E+04  0.7818608E-02  0.8629742E-01
         -1   -1    0    0    0  501 -0.00000000000E+00  0.00000000000E+00  0.76566022160E+03  0.76566022160E+03  0.00000000000E+00 0.  1.
          2   -1    0    0  501    0  0.00000000000E+00 -0.00000000000E+00 -0.12432102464E+04  0.12432102464E+04  0.00000000000E+00 0. -1.
         24    2    1    2    0    0 -0.29706076418E+01  0.66600450454E+02 -0.96414737415E+03  0.96974869642E+03  0.79924530806E+02 0.  0.
        254    2    1    2    0    0  0.29706076418E+01 -0.66600450454E+02  0.48659734937E+03  0.10391217716E+04  0.91572519414E+03 0.  0.
         23    2    4    4    0    0 -0.13017076929E+03 -0.17915371340E+03  0.70502889101E+03  0.74552405189E+03  0.98488032716E+02 0.  0.
         23    2    4    4    0    0  0.13314137693E+03  0.11255326295E+03 -0.21843154164E+03  0.29359771966E+03  0.89957875440E+02 0.  0.
          4    1    3    3  502    0  0.33485982660E+02  0.52247827071E+02 -0.69490965931E+03  0.69767512573E+03  0.00000000000E+00 0. -1.
         -3    1    3    3    0  502 -0.36456590302E+02  0.14352623383E+02 -0.26923771484E+03  0.27207357069E+03  0.00000000000E+00 0.  1.
         11    1    5    5    0    0  0.14681637354E+02 -0.91000662821E+01  0.78074711275E+02  0.79962630162E+02  0.00000000000E+00 0.  1.
        -11    1    5    5    0    0 -0.14485240664E+03 -0.17005364712E+03  0.62695417974E+03  0.66556142173E+03  0.00000000000E+00 0. -1.
          2    1    6    6  503    0  0.59819723478E+02  0.29303716605E+01 -0.98819057343E+02  0.11555168752E+03  0.00000000000E+00 0.  1.
         -2    1    6    6    0  503  0.73321653452E+02  0.10962289129E+03 -0.11961248430E+03  0.17804603214E+03  0.00000000000E+00 0. -1.
<mgrwt>
<rscale>  0 0.19512833E+04</rscale>
<asrwt>0</asrwt>
<pdfrwt beam="1">  1        2 0.19126311E+00 0.19512833E+04</pdfrwt>
<pdfrwt beam="2">  1       -1 0.11779388E+00 0.19512833E+04</pdfrwt>
<totfact> 0.12297897E+01</totfact>
</mgrwt>
</event>
<event>
12    6  0.1462228E-007  0.1077943E+04  0.7818608E-02  0.9226961E-01
          2   -1    0    0  501    0  0.00000000000E+00  0.00000000000E+00  0.69529102302E+03  0.69529102302E+03  0.00000000000E+00 0. -1.
         -1   -1    0    0    0  501 -0.00000000000E+00 -0.00000000000E+00 -0.41779689733E+03  0.41779689733E+03  0.00000000000E+00 0.  1.
         24    2    1    2    0    0 -0.13866325277E+03 -0.39035894058E+01 -0.82029562239E+01  0.16053343205E+03  0.80380088553E+02 0.  0.
        254    2    1    2    0    0  0.13866325277E+03  0.39035894058E+01  0.28569708191E+03  0.95255448830E+03  0.89805038549E+03 0.  0.
         23    2    4    4    0    0  0.32311126113E+03  0.35413669172E+03  0.23804962010E+03  0.54414999815E+03  0.98070971094E+02 0.  0.
         23    2    4    4    0    0 -0.18444800836E+03 -0.35023310231E+03  0.47647461812E+02  0.40840449015E+03  0.88541816183E+02 0.  0.
          4    1    3    3  502    0 -0.10055686768E+03  0.29682593665E+02  0.12686023782E+02  0.10561096157E+03  0.00000000000E+00 0. -1.
         -3    1    3    3    0  502 -0.38106385090E+02 -0.33586183071E+02 -0.20888980006E+02  0.54922470480E+02  0.00000000000E+00 0.  1.
         11    1    5    5    0    0  0.12526428776E+03  0.13191560282E+03  0.38635986074E+02  0.18597206101E+03  0.00000000000E+00 0.  1.
        -11    1    5    5    0    0  0.19784697336E+03  0.22222108889E+03  0.19941363402E+03  0.35817793714E+03  0.00000000000E+00 0. -1.
          1    1    6    6  503    0 -0.17847051514E+03 -0.28534865443E+03  0.18639873303E+02  0.33708014512E+03  0.00000000000E+00 0. -1.
         -1    1    6    6    0  503 -0.59774932194E+01 -0.64884447886E+02  0.29007588509E+02  0.71324345028E+02  0.00000000000E+00 0.  1.
<mgrwt>
<rscale>  0 0.10779433E+04</rscale>
<asrwt>0</asrwt>
<pdfrwt beam="1">  1        2 0.10696785E+00 0.10779433E+04</pdfrwt>
<pdfrwt beam="2">  1       -1 0.64276446E-01 0.10779433E+04</pdfrwt>
<totfact> 0.11519444E+02</totfact>
</mgrwt>
</event>
<event>
12    6  0.1462228E-007  0.1787879E+04  0.7818608E-02  0.8712772E-01
         -1   -1    0    0    0  501 -0.00000000000E+00  0.00000000000E+00  0.38320724435E+03  0.38320724435E+03  0.00000000000E+00 0.  1.
          2   -1    0    0  501    0  0.00000000000E+00 -0.00000000000E+00 -0.20853676778E+04  0.20853676778E+04  0.00000000000E+00 0. -1.
         24    2    1    2    0    0  0.43832884380E+02  0.43500049905E+03  0.51345698913E+02  0.44739201251E+03  0.79852840519E+02 0.  0.
        254    2    1    2    0    0 -0.43832884380E+02 -0.43500049905E+03 -0.17535061324E+04  0.20211829097E+04  0.90512421361E+03 0.  0.
         23    2    4    4    0    0 -0.42901784729E+03 -0.23935214765E+03 -0.12821858067E+04  0.13761068807E+04  0.91235631244E+02 0.  0.
         23    2    4    4    0    0  0.38518496291E+03 -0.19564835139E+03 -0.47132032573E+03  0.64507602897E+03  0.85641699260E+02 0.  0.
          4    1    3    3  502    0  0.13122978061E+02  0.71584995546E+01 -0.22391401084E+01  0.15115237924E+02  0.00000000000E+00 0. -1.
         -3    1    3    3    0  502  0.30709906319E+02  0.42784199949E+03  0.53584839021E+02  0.43227677459E+03  0.00000000000E+00 0.  1.
         11    1    5    5    0    0 -0.44566602409E+01  0.73441472728E+01 -0.19678047442E+02  0.21471466433E+02  0.00000000000E+00 0.  1.
        -11    1    5    5    0    0 -0.42456118705E+03 -0.24669629493E+03 -0.12625077592E+04  0.13546354143E+04  0.00000000000E+00 0. -1.
          4    1    6    6  503    0  0.35199749175E+03 -0.16717334366E+03 -0.38230449980E+03  0.54589915882E+03  0.00000000000E+00 0. -1.
         -4    1    6    6    0  503  0.33187471153E+02 -0.28475007729E+02 -0.89015825929E+02  0.99176870149E+02  0.00000000000E+00 0.  1.
<mgrwt>
<rscale>  0 0.17878792E+04</rscale>
<asrwt>0</asrwt>
<pdfrwt beam="1">  1        2 0.32082579E+00 0.17878792E+04</pdfrwt>
<pdfrwt beam="2">  1       -1 0.58954963E-01 0.17878792E+04</pdfrwt>
<totfact> 0.18792666E+01</totfact>
</mgrwt>
</event>
<event>
12    6  0.1462228E-007  0.1372184E+04  0.7818608E-02  0.8974203E-01
         -1   -1    0    0    0  501 -0.00000000000E+00  0.00000000000E+00  0.25697360494E+04  0.25697360494E+04  0.00000000000E+00 0.  1.
          2   -1    0    0  501    0  0.00000000000E+00 -0.00000000000E+00 -0.18317927973E+03  0.18317927973E+03  0.00000000000E+00 0. -1.
         24    2    1    2    0    0 -0.81992617919E+01 -0.35830835029E+03  0.10000083930E+04  0.10653479367E+04  0.80606070293E+02 0.  0.
        254    2    1    2    0    0  0.81992617919E+01  0.35830835029E+03  0.13865483767E+04  0.16875673924E+04  0.89270107040E+03 0.  0.
         23    2    4    4    0    0 -0.12892152484E+03  0.49932387825E+03  0.13726692407E+04  0.14695603760E+04  0.97168716806E+02 0.  0.
         23    2    4    4    0    0  0.13712078663E+03 -0.14101552797E+03  0.13879136060E+02  0.21800701638E+03  0.92988921493E+02 0.  0.
          4    1    3    3  502    0  0.10617231999E+02 -0.42300417289E+02  0.20585451094E+03  0.21042369304E+03  0.00000000000E+00 0. -1.
         -3    1    3    3    0  502 -0.18816493791E+02 -0.31600793300E+03  0.79415388201E+03  0.85492424370E+03  0.00000000000E+00 0.  1.
         11    1    5    5    0    0 -0.12352207933E+03  0.42239199269E+03  0.12440026900E+04  0.13195512086E+04  0.00000000000E+00 0. -1.
        -11    1    5    5    0    0 -0.53994455016E+01  0.76931885565E+02  0.12866655067E+03  0.15000916735E+03  0.00000000000E+00 0.  1.
          2    1    6    6  503    0  0.57166352203E+02 -0.89071184086E+02  0.48695406227E+02  0.11650283364E+03  0.00000000000E+00 0.  1.
         -2    1    6    6    0  503  0.79954434425E+02 -0.51944343881E+02 -0.34816270167E+02  0.10150418274E+03  0.00000000000E+00 0. -1.
<mgrwt>
<rscale>  0 0.13721842E+04</rscale>
<asrwt>0</asrwt>
<pdfrwt beam="1">  1        2 0.28181429E-01 0.13721842E+04</pdfrwt>
<pdfrwt beam="2">  1       -1 0.39534398E+00 0.13721842E+04</pdfrwt>
<totfact> 0.16623040E+00</totfact>
</mgrwt>
</event>
<event>
12    6  0.1462228E-007  0.1399007E+04  0.7818608E-02  0.8954538E-01
          2   -1    0    0  501    0  0.00000000000E+00  0.00000000000E+00  0.81148993596E+03  0.81148993596E+03  0.00000000000E+00 0. -1.
         -1   -1    0    0    0  501 -0.00000000000E+00 -0.00000000000E+00 -0.60297141066E+03  0.60297141066E+03  0.00000000000E+00 0.  1.
         24    2    1    2    0    0 -0.35370908378E+03 -0.52429644821E+02 -0.13299423283E+03  0.39024471990E+03  0.82124855219E+02 0.  0.
        254    2    1    2    0    0  0.35370908378E+03  0.52429644821E+02  0.34151275813E+03  0.10242166267E+04  0.89695582438E+03 0.  0.
         23    2    4    4    0    0  0.44708893583E+03  0.17762907842E+03  0.55743400822E+03  0.74211072576E+03  0.92493511825E+02 0.  0.
         23    2    4    4    0    0 -0.93379852050E+02 -0.12519943360E+03 -0.21592125009E+03  0.28210590096E+03  0.92558404111E+02 0.  0.
          4    1    3    3  502    0 -0.24863474576E+03 -0.53974672629E+02 -0.57472542779E+02  0.26083633807E+03  0.00000000000E+00 0. -1.
         -3    1    3    3    0  502 -0.10507433801E+03  0.15450278076E+01 -0.75521690050E+02  0.12940838183E+03  0.00000000000E+00 0.  1.
         11    1    5    5    0    0  0.11020549918E+03  0.51305106299E+02  0.20582733804E+03  0.23904468006E+03  0.00000000000E+00 0.  1.
        -11    1    5    5    0    0  0.33688343665E+03  0.12632397213E+03  0.35160667019E+03  0.50306604570E+03  0.00000000000E+00 0. -1.
          2    1    6    6  503    0  0.97806547714E+01 -0.56479665843E+02 -0.61116076232E+02  0.83790146411E+02  0.00000000000E+00 0.  1.
         -2    1    6    6    0  503 -0.10316050682E+03 -0.68719767761E+02 -0.15480517386E+03  0.19831575455E+03  0.00000000000E+00 0. -1.
<mgrwt>
<rscale>  0 0.13990071E+04</rscale>
<asrwt>0</asrwt>
<pdfrwt beam="1">  1        2 0.12484461E+00 0.13990071E+04</pdfrwt>
<pdfrwt beam="2">  1       -1 0.92764832E-01 0.13990071E+04</pdfrwt>
<totfact> 0.42434391E+01</totfact>
</mgrwt>
</event>
<event>
12    6  0.1462228E-007  0.1844805E+04  0.7818608E-02  0.8682829E-01
         -1   -1    0    0    0  501 -0.00000000000E+00  0.00000000000E+00  0.80234104020E+03  0.80234104020E+03  0.00000000000E+00 0.  1.
          2   -1    0    0  501    0  0.00000000000E+00 -0.00000000000E+00 -0.10604300899E+04  0.10604300899E+04  0.00000000000E+00 0. -1.
         24    2    1    2    0    0 -0.46730358116E+02 -0.52989687876E+03  0.37312726138E+03  0.65451225367E+03  0.78663260342E+02 0.  0.
        254    2    1    2    0    0  0.46730358116E+02  0.52989687876E+03 -0.63121631113E+03  0.12082588765E+04  0.88231573297E+03 0.  0.
         23    2    4    4    0    0  0.15958254980E+03  0.73168868553E+03 -0.34378680808E+03  0.82882741557E+03  0.89053875035E+02 0.  0.
         23    2    4    4    0    0 -0.11285219169E+03 -0.20179180677E+03 -0.28742950305E+03  0.37943146090E+03  0.88864862848E+02 0.  0.
          4    1    3    3  502    0  0.12716965165E+02 -0.18969927064E+02  0.10326113531E+02  0.25064077012E+02  0.00000000000E+00 0. -1.
         -3    1    3    3    0  502 -0.59447323281E+02 -0.51092695170E+03  0.36280114785E+03  0.62944817666E+03  0.00000000000E+00 0.  1.
         11    1    5    5    0    0  0.77485643238E+02  0.53102335054E+03 -0.26099174057E+03  0.59674660651E+03  0.00000000000E+00 0. -1.
        -11    1    5    5    0    0  0.82096906563E+02  0.20066533499E+03 -0.82795067511E+02  0.23208080907E+03  0.00000000000E+00 0.  1.
          4    1    6    6  503    0 -0.11752549058E+02 -0.11117290484E+03 -0.13602428206E+03  0.17606857325E+03  0.00000000000E+00 0. -1.
         -4    1    6    6    0  503 -0.10109964263E+03 -0.90618901936E+02 -0.15140522100E+03  0.20336288765E+03  0.00000000000E+00 0.  1.
<mgrwt>
<rscale>  0 0.18448052E+04</rscale>
<asrwt>0</asrwt>
<pdfrwt beam="1">  1        2 0.16314309E+00 0.18448052E+04</pdfrwt>
<pdfrwt beam="2">  1       -1 0.12343708E+00 0.18448052E+04</pdfrwt>
<totfact> 0.14287438E+01</totfact>
</mgrwt>
</event>
<event>
12    6  0.1462228E-007  0.1321764E+04  0.7818608E-02  0.9012482E-01
         -1   -1    0    0    0  501 -0.00000000000E+00  0.00000000000E+00  0.27929765788E+03  0.27929765788E+03  0.00000000000E+00 0.  1.
          2   -1    0    0  501    0  0.00000000000E+00 -0.00000000000E+00 -0.15637971737E+04  0.15637971737E+04  0.00000000000E+00 0. -1.
         24    2    1    2    0    0  0.16778355251E+03  0.28844523496E+03 -0.46280280502E+03  0.57534853946E+03  0.74077874249E+02 0.  0.
        254    2    1    2    0    0 -0.16778355251E+03 -0.28844523496E+03 -0.82169671082E+03  0.12677462921E+04  0.90589359342E+03 0.  0.
         23    2    4    4    0    0 -0.31120443078E+03 -0.53078473439E+03 -0.72867713380E+03  0.95772986329E+03  0.87723963094E+02 0.  0.
         23    2    4    4    0    0  0.14342087827E+03  0.24233949943E+03 -0.93019577016E+02  0.31001642885E+03  0.90330300232E+02 0.  0.
          4    1    3    3  502    0  0.11473606402E+03  0.20508024186E+03 -0.37822569496E+03  0.44528299576E+03  0.00000000000E+00 0. -1.
         -3    1    3    3    0  502  0.53047488487E+02  0.83364993101E+02 -0.84577110067E+02  0.13006554370E+03  0.00000000000E+00 0.  1.
         11    1    5    5    0    0 -0.19917256146E+03 -0.36436412771E+03 -0.54945709082E+03  0.68871911651E+03  0.00000000000E+00 0.  1.
        -11    1    5    5    0    0 -0.11203186932E+03 -0.16642060668E+03 -0.17922004299E+03  0.26901074677E+03  0.00000000000E+00 0. -1.
          3    1    6    6  503    0  0.19824562661E+02  0.11973085408E+03 -0.44819647674E+02  0.12937268460E+03  0.00000000000E+00 0. -1.
         -3    1    6    6    0  503  0.12359631561E+03  0.12260864535E+03 -0.48199929342E+02  0.18064374425E+03  0.00000000000E+00 0.  1.
<mgrwt>
<rscale>  0 0.13217638E+04</rscale>
<asrwt>0</asrwt>
<pdfrwt beam="1">  1        2 0.24058418E+00 0.13217638E+04</pdfrwt>
<pdfrwt beam="2">  1       -1 0.42968871E-01 0.13217638E+04</pdfrwt>
<totfact> 0.69536471E+01</totfact>
</mgrwt>
</event>
<event>
12    6  0.1462228E-007  0.1190759E+04  0.7818608E-02  0.9120984E-01
          2   -1    0    0  501    0  0.00000000000E+00  0.00000000000E+00  0.84723181234E+03  0.84723181234E+03  0.00000000000E+00 0. -1.
         -1   -1    0    0    0  501 -0.00000000000E+00 -0.00000000000E+00 -0.41839422201E+03  0.41839422201E+03  0.00000000000E+00 0.  1.
         24    2    1    2    0    0 -0.55429022151E+02 -0.15759578344E+03  0.27890093020E+03  0.33520132303E+03  0.81641843683E+02 0.  0.
        254    2    1    2    0    0  0.55429022151E+02  0.15759578344E+03  0.14993666013E+03  0.93042471132E+03  0.90293982852E+03 0.  0.
         23    2    4    4    0    0 -0.78352564101E+02  0.36318964329E+03  0.41082800559E+03  0.56129049383E+03  0.90672636439E+02 0.  0.
         23    2    4    4    0    0  0.13378158625E+03 -0.20559385986E+03 -0.26089134545E+03  0.36913421749E+03  0.89607077604E+02 0.  0.
          4    1    3    3  502    0  0.71373642657E+01 -0.10197801838E+02  0.74570970726E+02  0.75602690468E+02  0.00000000000E+00 0. -1.
         -3    1    3    3    0  502 -0.62566386417E+02 -0.14739798160E+03  0.20432995947E+03  0.25959863256E+03  0.00000000000E+00 0.  1.
         11    1    5    5    0    0  0.11644974511E+02  0.29939676599E+02  0.13195026374E+02  0.34728927240E+02  0.00000000000E+00 0. -1.
        -11    1    5    5    0    0 -0.89997538612E+02  0.33324996669E+03  0.39763297921E+03  0.52656156659E+03  0.00000000000E+00 0.  1.
          3    1    6    6  503    0 -0.13567890688E+02 -0.14893743141E+02 -0.20446912338E+02  0.28705181878E+02  0.00000000000E+00 0. -1.
         -3    1    6    6    0  503  0.14734947694E+03 -0.19070011671E+03 -0.24044443312E+03  0.34042903561E+03  0.00000000000E+00 0.  1.
<mgrwt>
<rscale>  0 0.11907592E+04</rscale>
<asrwt>0</asrwt>
<pdfrwt beam="1">  1        2 0.13034336E+00 0.11907592E+04</pdfrwt>
<pdfrwt beam="2">  1       -1 0.64368342E-01 0.11907592E+04</pdfrwt>
<totfact> 0.87943336E+01</totfact>
</mgrwt>
</event>
<event>
12    6  0.1462228E-007  0.3902288E+04  0.7818608E-02  0.8024554E-01
          2   -1    0    0  501    0  0.00000000000E+00  0.00000000000E+00  0.27555729103E+04  0.27555729103E+04  0.00000000000E+00 0. -1.
         -1   -1    0    0    0  501 -0.00000000000E+00 -0.00000000000E+00 -0.13815502631E+04  0.13815502631E+04  0.00000000000E+00 0.  1.
         24    2    1    2    0    0 -0.23857913181E+03 -0.10547770022E+04 -0.93733423149E+03  0.14333196958E+04  0.79594989317E+02 0.  0.
        254    2    1    2    0    0  0.23857913181E+03  0.10547770022E+04  0.23113568787E+04  0.27038034776E+04  0.89370470437E+03 0.  0.
         23    2    4    4    0    0  0.92576946594E+02  0.26850776657E+02  0.10898927150E+04  0.10981378085E+04  0.93536416179E+02 0.  0.
         23    2    4    4    0    0  0.14600218521E+03  0.10279262255E+04  0.12214641637E+04  0.16056656691E+04  0.90766593316E+02 0.  0.
          4    1    3    3  502    0 -0.17377756769E+02 -0.13533584645E+03 -0.15017246100E+03  0.20290279891E+03  0.00000000000E+00 0. -1.
         -3    1    3    3    0  502 -0.22120137504E+03 -0.91944115575E+03 -0.78716177049E+03  0.12304168969E+04  0.00000000000E+00 0.  1.
         11    1    5    5    0    0  0.10867909171E+03  0.11079637747E+02  0.80902122452E+03  0.81636342708E+03  0.00000000000E+00 0. -1.
        -11    1    5    5    0    0 -0.16102145119E+02  0.15771138910E+02  0.28087149045E+03  0.28177438146E+03  0.00000000000E+00 0.  1.
          4    1    6    6  503    0  0.89622098742E+02  0.83888450412E+03  0.95791331398E+03  0.12764627879E+04  0.00000000000E+00 0. -1.
         -4    1    6    6    0  503  0.56380086469E+02  0.18904172142E+03  0.26355084970E+03  0.32920288116E+03  0.00000000000E+00 0.  1.
<mgrwt>
<rscale>  0 0.39022878E+04</rscale>
<asrwt>0</asrwt>
<pdfrwt beam="1">  1        2 0.42393429E+00 0.39022878E+04</pdfrwt>
<pdfrwt beam="2">  1       -1 0.21254619E+00 0.39022878E+04</pdfrwt>
<totfact> 0.27442443E-01</totfact>
</mgrwt>
</event>
<event>
12    6  0.1462228E-007  0.1285382E+04  0.7818608E-02  0.9041238E-01
         -3   -1    0    0    0  501 -0.00000000000E+00  0.00000000000E+00  0.51713407980E+03  0.51713407980E+03  0.00000000000E+00 0.  1.
          2   -1    0    0  501    0  0.00000000000E+00 -0.00000000000E+00 -0.79873220577E+03  0.79873220577E+03  0.00000000000E+00 0. -1.
         24    2    1    2    0    0  0.15530469390E+03  0.27216048292E+03 -0.34998056908E+01  0.32358920141E+03  0.80665024759E+02 0.  0.
        254    2    1    2    0    0 -0.15530469390E+03 -0.27216048292E+03 -0.27809832028E+03  0.99227708416E+03  0.89949111146E+03 0.  0.
         23    2    4    4    0    0  0.27837955222E+03  0.14719625540E+03 -0.15278522784E+02  0.32780347987E+03  0.89776252182E+02 0.  0.
         23    2    4    4    0    0 -0.43368424612E+03 -0.41935673833E+03 -0.26281979749E+03  0.66447360429E+03  0.92243295284E+02 0.  0.
          4    1    3    3  502    0  0.35437946325E+02  0.26516862015E+02 -0.22402697455E+02  0.49607185610E+02  0.00000000000E+00 0. -1.
         -3    1    3    3    0  502  0.11986674758E+03  0.24564362091E+03  0.18902891764E+02  0.27398201580E+03  0.00000000000E+00 0.  1.
         11    1    5    5    0    0  0.19262880451E+02  0.12922638882E+02 -0.27165061073E+02  0.35721054044E+02  0.00000000000E+00 0. -1.
        -11    1    5    5    0    0  0.25911667177E+03  0.13427361652E+03  0.11886538289E+02  0.29208242582E+03  0.00000000000E+00 0.  1.
          3    1    6    6  503    0 -0.51490635157E+02 -0.97105014917E+02 -0.37603539970E+02  0.11616667185E+03  0.00000000000E+00 0. -1.
         -3    1    6    6    0  503 -0.38219361097E+03 -0.32225172341E+03 -0.22521625752E+03  0.54830693244E+03  0.00000000000E+00 0.  1.
<mgrwt>
<rscale>  0 0.12853819E+04</rscale>
<asrwt>0</asrwt>
<pdfrwt beam="1">  1        2 0.12288188E+00 0.12853819E+04</pdfrwt>
<pdfrwt beam="2">  1       -3 0.79559089E-01 0.12853819E+04</pdfrwt>
<totfact> 0.31600257E+01</totfact>
</mgrwt>
</event>
<event>
12    6  0.1462228E-007  0.2787370E+04  0.7818608E-02  0.8307200E-01
         -1   -1    0    0    0  501 -0.00000000000E+00  0.00000000000E+00  0.15026852374E+04  0.15026852374E+04  0.00000000000E+00 0.  1.
          2   -1    0    0  501    0  0.00000000000E+00 -0.00000000000E+00 -0.12925917378E+04  0.12925917378E+04  0.00000000000E+00 0. -1.
         24    2    1    2    0    0  0.43685677899E+03 -0.63507670039E+03  0.10666592508E+04  0.13185999199E+04  0.82325759680E+02 0.  0.
        254    2    1    2    0    0 -0.43685677899E+03  0.63507670039E+03 -0.85656575126E+03  0.14766770553E+04  0.92341971968E+03 0.  0.
         23    2    4    4    0    0 -0.27821121741E+03 -0.18036314441E+03 -0.38771422167E+03  0.51811235842E+03  0.90475150763E+02 0.  0.
         23    2    4    4    0    0 -0.15864556158E+03  0.81543984480E+03 -0.46885152959E+03  0.95856469688E+03  0.94413805209E+02 0.  0.
          2    1    3    3  502    0  0.41430438875E+02 -0.11178437158E+03  0.17166178557E+03  0.20899759716E+03  0.00000000000E+00 0. -1.
         -1    1    3    3    0  502  0.39542634011E+03 -0.52329232881E+03  0.89499746522E+03  0.11096023227E+04  0.00000000000E+00 0.  1.
         11    1    5    5    0    0 -0.27793027752E+03 -0.18787615718E+03 -0.37356074889E+03  0.50208597143E+03  0.00000000000E+00 0. -1.
        -11    1    5    5    0    0 -0.28093989440E+00  0.75130127703E+01 -0.14153472779E+02  0.16026386985E+02  0.00000000000E+00 0.  1.
          3    1    6    6  503    0 -0.77058367030E+02  0.57187805047E+03 -0.35582520799E+03  0.67793368052E+03  0.00000000000E+00 0. -1.
         -3    1    6    6    0  503 -0.81587194548E+02  0.24356179433E+03 -0.11302632160E+03  0.28063101636E+03  0.00000000000E+00 0.  1.
<mgrwt>
<rscale>  0 0.27873705E+04</rscale>
<asrwt>0</asrwt>
<pdfrwt beam="1">  1        2 0.19886027E+00 0.27873705E+04</pdfrwt>
<pdfrwt beam="2">  1       -1 0.23118234E+00 0.27873705E+04</pdfrwt>
<totfact> 0.15359859E+00</totfact>
</mgrwt>
</event>
<event>
12    6  0.1462228E-007  0.1692483E+04  0.7818608E-02  0.8765663E-01
          2   -1    0    0  501    0  0.00000000000E+00  0.00000000000E+00  0.68696092358E+03  0.68696092358E+03  0.00000000000E+00 0. -1.
         -1   -1    0    0    0  501 -0.00000000000E+00 -0.00000000000E+00 -0.10424531559E+04  0.10424531559E+04  0.00000000000E+00 0.  1.
         24    2    1    2    0    0 -0.25451969418E+03 -0.65951436208E+02 -0.67497798047E+03  0.73034491220E+03  0.93158735452E+02 0.  0.
        254    2    1    2    0    0  0.25451969418E+03  0.65951436208E+02  0.31948574813E+03  0.99906916730E+03  0.90936141942E+03 0.  0.
         23    2    4    4    0    0  0.33829095228E+03  0.42292364052E+03  0.89085550586E+02  0.55643759802E+03  0.91549937496E+02 0.  0.
         23    2    4    4    0    0 -0.83771258101E+02 -0.35697220432E+03  0.23040019754E+03  0.44263156929E+03  0.91606095659E+02 0.  0.
          2    1    3    3  502    0 -0.77871005769E+02 -0.36147382336E+02 -0.33770561738E+03  0.34844742903E+03  0.00000000000E+00 0. -1.
         -1    1    3    3    0  502 -0.17664868841E+03 -0.29804053872E+02 -0.33727236309E+03  0.38189748317E+03  0.00000000000E+00 0.  1.
         11    1    5    5    0    0  0.17004893897E+03  0.23839401042E+03  0.91246510398E+02  0.30671529389E+03  0.00000000000E+00 0.  1.
        -11    1    5    5    0    0  0.16824201331E+03  0.18452963011E+03 -0.21609598124E+01  0.24972230413E+03  0.00000000000E+00 0. -1.
          1    1    6    6  503    0 -0.67259422352E+02 -0.35340650400E+03  0.21163879120E+03  0.41738587051E+03  0.00000000000E+00 0. -1.
         -1    1    6    6    0  503 -0.16511835749E+02 -0.35657003185E+01  0.18761406341E+02  0.25245698771E+02  0.00000000000E+00 0.  1.
<mgrwt>
<rscale>  0 0.16924829E+04</rscale>
<asrwt>0</asrwt>
<pdfrwt beam="1">  1        2 0.10568630E+00 0.16924829E+04</pdfrwt>
<pdfrwt beam="2">  1       -1 0.16037741E+00 0.16924829E+04</pdfrwt>
<totfact> 0.13245626E+01</totfact>
</mgrwt>
</event>
<event>
12    6  0.1462228E-007  0.1542692E+04  0.7818608E-02  0.8856549E-01
          2   -1    0    0  501    0  0.00000000000E+00  0.00000000000E+00  0.18606574414E+04  0.18606574414E+04  0.00000000000E+00 0. -1.
         -1   -1    0    0    0  501 -0.00000000000E+00 -0.00000000000E+00 -0.31976575596E+03  0.31976575596E+03  0.00000000000E+00 0.  1.
         24    2    1    2    0    0 -0.49523792827E+03 -0.14381650094E+03  0.52096159492E+03  0.73719486314E+03  0.78176027820E+02 0.  0.
        254    2    1    2    0    0  0.49523792827E+03  0.14381650094E+03  0.10199300905E+04  0.14432283342E+04  0.88130973194E+03 0.  0.
         23    2    4    4    0    0  0.42935452755E+03  0.40520649847E+03  0.29834286484E+03  0.66733322150E+03  0.88247078062E+02 0.  0.
         23    2    4    4    0    0  0.65883400718E+02 -0.26138999753E+03  0.72158722570E+03  0.77589511274E+03  0.93057769016E+02 0.  0.
          2    1    3    3  502    0 -0.42776351954E+03 -0.14809089177E+03  0.43470963136E+03  0.62760258482E+03  0.00000000000E+00 0. -1.
         -1    1    3    3    0  502 -0.67474408728E+02  0.42743908348E+01  0.86251963558E+02  0.10959227832E+03  0.00000000000E+00 0.  1.
         11    1    5    5    0    0  0.39933080929E+03  0.38282808471E+03  0.30102260250E+03  0.62979127090E+03  0.00000000000E+00 0.  1.
        -11    1    5    5    0    0  0.30023718261E+02  0.22378413762E+02 -0.26797376610E+01  0.37541950597E+02  0.00000000000E+00 0. -1.
          1    1    6    6  503    0  0.49198973755E+01 -0.70608431673E+01  0.11509105337E+03  0.11541235403E+03  0.00000000000E+00 0. -1.
         -1    1    6    6    0  503  0.60963503343E+02 -0.25432915437E+03  0.60649617233E+03  0.66048275871E+03  0.00000000000E+00 0.  1.
<mgrwt>
<rscale>  0 0.15426918E+04</rscale>
<asrwt>0</asrwt>
<pdfrwt beam="1">  1        2 0.28625498E+00 0.15426918E+04</pdfrwt>
<pdfrwt beam="2">  1       -1 0.49194733E-01 0.15426918E+04</pdfrwt>
<totfact> 0.36269749E+01</totfact>
</mgrwt>
</event>
<event>
12    6  0.1462228E-007  0.1760750E+04  0.7818608E-02  0.8727455E-01
          2   -1    0    0  501    0  0.00000000000E+00  0.00000000000E+00  0.13783288670E+04  0.13783288670E+04  0.00000000000E+00 0. -1.
         -1   -1    0    0    0  501 -0.00000000000E+00 -0.00000000000E+00 -0.56231896932E+03  0.56231896932E+03  0.00000000000E+00 0.  1.
         24    2    1    2    0    0  0.37758464199E+03 -0.11824397205E+03  0.87163529840E+03  0.96060117898E+03  0.80341352029E+02 0.  0.
        254    2    1    2    0    0 -0.37758464199E+03  0.11824397205E+03 -0.55625400746E+02  0.98004665732E+03  0.89489969635E+03 0.  0.
         23    2    4    4    0    0 -0.14595553451E+03  0.49210663742E+03  0.33578462598E+02  0.52216089175E+03  0.89735851677E+02 0.  0.
         23    2    4    4    0    0 -0.23162910747E+03 -0.37386266537E+03 -0.89203863344E+02  0.45788576557E+03  0.90976420526E+02 0.  0.
          2    1    3    3  502    0  0.14495498148E+03 -0.19725425640E+02  0.39377084713E+03  0.42006727928E+03  0.00000000000E+00 0. -1.
         -1    1    3    3    0  502  0.23262966051E+03 -0.98518546413E+02  0.47786445128E+03  0.54053389971E+03  0.00000000000E+00 0.  1.
         11    1    5    5    0    0  0.11534204414E+02  0.17743449172E+02  0.33272449483E+01  0.21422848059E+02  0.00000000000E+00 0. -1.
        -11    1    5    5    0    0 -0.15748973893E+03  0.47436318825E+03  0.30251217650E+02  0.50073804369E+03  0.00000000000E+00 0.  1.
          2    1    6    6  503    0 -0.49500892635E+02 -0.28709306795E+02  0.14283856121E+01  0.57241619070E+02  0.00000000000E+00 0. -1.
         -2    1    6    6    0  503 -0.18212821484E+03 -0.34515335857E+03 -0.90632248956E+02  0.40064414650E+03  0.00000000000E+00 0.  1.
<mgrwt>
<rscale>  0 0.17607504E+04</rscale>
<asrwt>0</asrwt>
<pdfrwt beam="1">  1        2 0.21205059E+00 0.17607504E+04</pdfrwt>
<pdfrwt beam="2">  1       -1 0.86510611E-01 0.17607504E+04</pdfrwt>
<totfact> 0.21178428E+01</totfact>
</mgrwt>
</event>
<event>
12    6  0.1462228E-007  0.1325670E+04  0.7818608E-02  0.9009453E-01
         -1   -1    0    0    0  501 -0.00000000000E+00  0.00000000000E+00  0.15928885587E+03  0.15928885587E+03  0.00000000000E+00 0.  1.
          2   -1    0    0  501    0  0.00000000000E+00 -0.00000000000E+00 -0.27581962608E+04  0.27581962608E+04  0.00000000000E+00 0. -1.
         24    2    1    2    0    0 -0.72001088426E+02  0.56851289701E+02  0.41931107256E+02  0.13016704886E+03  0.82274035862E+02 0.  0.
        254    2    1    2    0    0  0.72001088426E+02 -0.56851289701E+02 -0.26408385122E+04  0.27873180678E+04  0.88695982874E+03 0.  0.
         23    2    4    4    0    0 -0.14280384224E+03  0.36835252186E+03 -0.12812252280E+04  0.13438789381E+04  0.91629676693E+02 0.  0.
         23    2    4    4    0    0  0.21480493067E+03 -0.42520381156E+03 -0.13596132842E+04  0.14434391297E+04  0.89603566165E+02 0.  0.
          2    1    3    3  502    0 -0.17302456605E+02  0.49800395923E+01 -0.24011546079E+02  0.30012166600E+02  0.00000000000E+00 0. -1.
         -1    1    3    3    0  502 -0.54698631821E+02  0.51871250109E+02  0.65942653335E+02  0.10015488226E+03  0.00000000000E+00 0.  1.
         11    1    5    5    0    0 -0.25442128457E+02  0.15391117651E+03 -0.39901243969E+03  0.42842371455E+03  0.00000000000E+00 0. -1.
        -11    1    5    5    0    0 -0.11736171378E+03  0.21444134535E+03 -0.88221278827E+03  0.91545522351E+03  0.00000000000E+00 0.  1.
          3    1    6    6  503    0  0.12346992215E+03 -0.15589965204E+03 -0.50454122829E+03  0.54232036125E+03  0.00000000000E+00 0. -1.
         -3    1    6    6    0  503  0.91335008516E+02 -0.26930415952E+03 -0.85507205592E+03  0.90111876849E+03  0.00000000000E+00 0.  1.
<mgrwt>
<rscale>  0 0.13256695E+04</rscale>
<asrwt>0</asrwt>
<pdfrwt beam="1">  1        2 0.42433789E+00 0.13256695E+04</pdfrwt>
<pdfrwt beam="2">  1       -1 0.24505978E-01 0.13256695E+04</pdfrwt>
<totfact> 0.39880336E+01</totfact>
</mgrwt>
</event>
<event>
12    6  0.1462228E-007  0.1666959E+04  0.7818608E-02  0.8780436E-01
          2   -1    0    0  501    0  0.00000000000E+00  0.00000000000E+00  0.11346985580E+04  0.11346985580E+04  0.00000000000E+00 0. -1.
         -1   -1    0    0    0  501 -0.00000000000E+00 -0.00000000000E+00 -0.61222271914E+03  0.61222271914E+03  0.00000000000E+00 0.  1.
         24    2    1    2    0    0  0.78981746242E+02 -0.34532262126E+03  0.68529222039E+03  0.77551346454E+03  0.79434736561E+02 0.  0.
        254    2    1    2    0    0 -0.78981746242E+02  0.34532262126E+03 -0.16281638152E+03  0.97140781262E+03  0.88974048763E+03 0.  0.
         23    2    4    4    0    0 -0.25509709585E+02  0.17805613102E+03 -0.52160098892E+03  0.56133711934E+03  0.10332975774E+03 0.  0.
         23    2    4    4    0    0 -0.53472036657E+02  0.16726649023E+03  0.35878460740E+03  0.41007069327E+03  0.92705132103E+02 0.  0.
          2    1    3    3  502    0  0.88407011072E+02 -0.32647509201E+03  0.66589585760E+03  0.74687286634E+03  0.00000000000E+00 0. -1.
         -1    1    3    3    0  502 -0.94252648301E+01 -0.18847529249E+02  0.19396362784E+02  0.28640598199E+02  0.00000000000E+00 0.  1.
         11    1    5    5    0    0 -0.16740985747E+02  0.13415308619E+03 -0.48505945161E+03  0.50354739870E+03  0.00000000000E+00 0.  1.
        -11    1    5    5    0    0 -0.87687238380E+01  0.43903044837E+02 -0.36541537305E+02  0.57789720646E+02  0.00000000000E+00 0. -1.
          2    1    6    6  503    0 -0.61086796793E+02  0.10706769122E+03  0.15847348151E+03  0.20077084347E+03  0.00000000000E+00 0. -1.
         -2    1    6    6    0  503  0.76147601359E+01  0.60198799015E+02  0.20031112588E+03  0.20929984980E+03  0.00000000000E+00 0.  1.
<mgrwt>
<rscale>  0 0.16669592E+04</rscale>
<asrwt>0</asrwt>
<pdfrwt beam="1">  1        2 0.17456901E+00 0.16669592E+04</pdfrwt>
<pdfrwt beam="2">  1       -1 0.94188110E-01 0.16669592E+04</pdfrwt>
<totfact> 0.24639595E+01</totfact>
</mgrwt>
</event>
<event>
12    6  0.1462228E-007  0.1562038E+04  0.7818608E-02  0.8844215E-01
          2   -1    0    0  501    0  0.00000000000E+00  0.00000000000E+00  0.64544386907E+03  0.64544386907E+03  0.00000000000E+00 0. -1.
         -1   -1    0    0    0  501 -0.00000000000E+00 -0.00000000000E+00 -0.94507111373E+03  0.94507111373E+03  0.00000000000E+00 0.  1.
         24    2    1    2    0    0  0.49422384691E+03 -0.20650473150E+01  0.62843537991E+02  0.50481984251E+03  0.81438859606E+02 0.  0.
        254    2    1    2    0    0 -0.49422384691E+03  0.20650473150E+01 -0.36247078265E+03  0.10856951403E+04  0.89615143480E+03 0.  0.
         23    2    4    4    0    0 -0.41134415041E+03  0.14369944678E+02 -0.64909594762E+03  0.77362344296E+03  0.88074836881E+02 0.  0.
         23    2    4    4    0    0 -0.82879696498E+02 -0.12304897363E+02  0.28662516497E+03  0.31207169733E+03  0.90632800308E+02 0.  0.
          2    1    3    3  502    0  0.46064803301E+03  0.29352077019E+00  0.79184268659E+02  0.46740436976E+03  0.00000000000E+00 0. -1.
         -1    1    3    3    0  502  0.33575813899E+02 -0.23585680852E+01 -0.16340730667E+02  0.37415472750E+02  0.00000000000E+00 0.  1.
         11    1    5    5    0    0 -0.25225783217E+03  0.24443702087E+02 -0.32219420424E+03  0.40992757130E+03  0.00000000000E+00 0. -1.
        -11    1    5    5    0    0 -0.15908631824E+03 -0.10073757409E+02 -0.32690174337E+03  0.36369587166E+03  0.00000000000E+00 0.  1.
          3    1    6    6  503    0 -0.54788424650E+02 -0.17004211606E+02  0.57640253531E+02  0.81322281787E+02  0.00000000000E+00 0. -1.
         -3    1    6    6    0  503 -0.28091271849E+02  0.46993142430E+01  0.22898491143E+03  0.23074941554E+03  0.00000000000E+00 0.  1.
<mgrwt>
<rscale>  0 0.15620376E+04</rscale>
<asrwt>0</asrwt>
<pdfrwt beam="1">  1        2 0.99299056E-01 0.15620376E+04</pdfrwt>
<pdfrwt beam="2">  1       -1 0.14539556E+00 0.15620376E+04</pdfrwt>
<totfact> 0.18903110E+01</totfact>
</mgrwt>
</event>
<event>
12    6  0.1462228E-007  0.3060335E+04  0.7818608E-02  0.8226709E-01
          2   -1    0    0  501    0  0.00000000000E+00  0.00000000000E+00  0.31830019182E+04  0.31830019182E+04  0.00000000000E+00 0. -1.
         -1   -1    0    0    0  501 -0.00000000000E+00 -0.00000000000E+00 -0.73559884999E+03  0.73559884999E+03  0.00000000000E+00 0.  1.
         24    2    1    2    0    0  0.12232737853E+04 -0.36762550959E+03  0.18426064280E+04  0.22434746560E+04  0.80204828380E+02 0.  0.
        254    2    1    2    0    0 -0.12232737853E+04  0.36762550959E+03  0.60479664018E+03  0.16751261121E+04  0.89928930073E+03 0.  0.
         23    2    4    4    0    0 -0.13875681551E+03 -0.16289430856E+03 -0.12273922631E+03  0.26260570661E+03  0.90049041402E+02 0.  0.
         23    2    4    4    0    0 -0.10845169698E+04  0.53051981815E+03  0.72753586649E+03  0.14125204055E+04  0.90978699262E+02 0.  0.
          4    1    3    3  502    0  0.96368199323E+03 -0.32145810861E+03  0.14819173264E+04  0.17966906417E+04  0.00000000000E+00 0. -1.
         -3    1    3    3    0  502  0.25959179211E+03 -0.46167400971E+02  0.36068910165E+03  0.44678401437E+03  0.00000000000E+00 0.  1.
         11    1    5    5    0    0 -0.71545810322E+02 -0.10459173518E+03 -0.22725171176E+02  0.12874264036E+03  0.00000000000E+00 0.  1.
        -11    1    5    5    0    0 -0.67211005190E+02 -0.58302573381E+02 -0.10001405513E+03  0.13386306625E+03  0.00000000000E+00 0. -1.
          3    1    6    6  503    0 -0.25385827528E+03  0.91855430592E+02  0.19125097075E+03  0.33084494536E+03  0.00000000000E+00 0. -1.
         -3    1    6    6    0  503 -0.83065869455E+03  0.43866438755E+03  0.53628489574E+03  0.10816754602E+04  0.00000000000E+00 0.  1.
<mgrwt>
<rscale>  0 0.30603350E+04</rscale>
<asrwt>0</asrwt>
<pdfrwt beam="1">  1        2 0.48969260E+00 0.30603350E+04</pdfrwt>
<pdfrwt beam="2">  1       -1 0.11316906E+00 0.30603350E+04</pdfrwt>
<totfact> 0.91746080E-01</totfact>
</mgrwt>
</event>
<event>
12    6  0.1462228E-007  0.1168051E+04  0.7818608E-02  0.9141290E-01
         -1   -1    0    0    0  501 -0.00000000000E+00  0.00000000000E+00  0.42857847676E+03  0.42857847676E+03  0.00000000000E+00 0.  1.
          2   -1    0    0  501    0  0.00000000000E+00 -0.00000000000E+00 -0.79585422539E+03  0.79585422539E+03  0.00000000000E+00 0. -1.
         24    2    1    2    0    0  0.19948727693E+01 -0.13346521230E+03 -0.32297338976E+03  0.35827946280E+03  0.78964679186E+02 0.  0.
        254    2    1    2    0    0 -0.19948727693E+01  0.13346521230E+03 -0.44302358872E+02  0.86615323934E+03  0.85465887500E+03 0.  0.
         23    2    4    4    0    0  0.22239263953E+03  0.16339550694E+03  0.31744839220E+03  0.42982219331E+03  0.88414129752E+02 0.  0.
         23    2    4    4    0    0 -0.22438751230E+03 -0.29930294645E+02 -0.36175075107E+03  0.43633104604E+03  0.90970311741E+02 0.  0.
          4    1    3    3  502    0  0.33984607855E+02 -0.80052320510E+02 -0.23440078382E+03  0.25001410970E+03  0.00000000000E+00 0. -1.
         -3    1    3    3    0  502 -0.31989735086E+02 -0.53412891790E+02 -0.88572605941E+02  0.10826535311E+03  0.00000000000E+00 0.  1.
         11    1    5    5    0    0  0.21363147370E+03  0.13150901098E+03  0.30395055918E+03  0.39410527648E+03  0.00000000000E+00 0. -1.
        -11    1    5    5    0    0  0.87611658344E+01  0.31886495959E+02  0.13497833025E+02  0.35716916828E+02  0.00000000000E+00 0.  1.
          3    1    6    6  503    0 -0.80508690475E+02  0.28080514004E+01 -0.20882306230E+03  0.22382271051E+03  0.00000000000E+00 0. -1.
         -3    1    6    6    0  503 -0.14387882183E+03 -0.32738346045E+02 -0.15292768878E+03  0.21250833552E+03  0.00000000000E+00 0.  1.
<mgrwt>
<rscale>  0 0.11680514E+04</rscale>
<asrwt>0</asrwt>
<pdfrwt beam="1">  1        2 0.12243911E+00 0.11680514E+04</pdfrwt>
<pdfrwt beam="2">  1       -1 0.65935151E-01 0.11680514E+04</pdfrwt>
<totfact> 0.91297360E+01</totfact>
</mgrwt>
</event>
<event>
12    6  0.1462228E-007  0.1039235E+04  0.7818608E-02  0.9266529E-01
          2   -1    0    0  501    0  0.00000000000E+00  0.00000000000E+00  0.11569377982E+03  0.11569377982E+03  0.00000000000E+00 0. -1.
         -1   -1    0    0    0  501 -0.00000000000E+00 -0.00000000000E+00 -0.23337664523E+04  0.23337664523E+04  0.00000000000E+00 0.  1.
         24    2    1    2    0    0  0.43836602219E+02 -0.38375886704E+02 -0.11504035691E+03  0.15155720318E+03  0.79630055531E+02 0.  0.
        254    2    1    2    0    0 -0.43836602219E+02  0.38375886704E+02 -0.21030323156E+04  0.22979030290E+04  0.92423971659E+03 0.  0.
         23    2    4    4    0    0 -0.33161865446E+03  0.34931581592E+03 -0.10347051193E+04  0.11449053278E+04  0.90559674115E+02 0.  0.
         23    2    4    4    0    0  0.28778205224E+03 -0.31093992922E+03 -0.10683271963E+04  0.11529977011E+04  0.92620469064E+02 0.  0.
          4    1    3    3  502    0  0.29030830189E+02 -0.61610045712E+02 -0.63509690545E+02  0.93123936918E+02  0.00000000000E+00 0. -1.
         -3    1    3    3    0  502  0.14805772030E+02  0.23234159008E+02 -0.51530666363E+02  0.58433266261E+02  0.00000000000E+00 0.  1.
         11    1    5    5    0    0 -0.29408392210E+03  0.29488008684E+03 -0.81168380678E+03  0.91228845276E+03  0.00000000000E+00 0.  1.
        -11    1    5    5    0    0 -0.37534732359E+02  0.54435729081E+02 -0.22302131252E+03  0.23261687508E+03  0.00000000000E+00 0. -1.
          1    1    6    6  503    0  0.85685457068E+02 -0.52313011090E+02 -0.18206222362E+03  0.20790695503E+03  0.00000000000E+00 0. -1.
         -1    1    6    6    0  503  0.20209659517E+03 -0.25862691813E+03 -0.88626497270E+03  0.94509074611E+03  0.00000000000E+00 0.  1.
<mgrwt>
<rscale>  0 0.10392348E+04</rscale>
<asrwt>0</asrwt>
<pdfrwt beam="1">  1        2 0.17799044E-01 0.10392348E+04</pdfrwt>
<pdfrwt beam="2">  1       -1 0.35904098E+00 0.10392348E+04</pdfrwt>
<totfact> 0.51617482E+00</totfact>
</mgrwt>
</event>
<event>
12    6  0.1462228E-007  0.2349811E+04  0.7818608E-02  0.8458536E-01
         -1   -1    0    0    0  501 -0.00000000000E+00  0.00000000000E+00  0.12733390584E+04  0.12733390584E+04  0.00000000000E+00 0.  1.
          2   -1    0    0  501    0  0.00000000000E+00 -0.00000000000E+00 -0.10840813666E+04  0.10840813666E+04  0.00000000000E+00 0. -1.
         24    2    1    2    0    0  0.47402448418E+03  0.44126111079E+03 -0.68055845384E+03  0.94462898226E+03  0.98759938910E+02 0.  0.
        254    2    1    2    0    0 -0.47402448418E+03 -0.44126111079E+03  0.86981614565E+03  0.14127914428E+04  0.90553241473E+03 0.  0.
         23    2    4    4    0    0 -0.41990986835E+03 -0.51315130461E+03  0.10173502021E+04  0.12177869358E+04  0.91405844074E+02 0.  0.
         23    2    4    4    0    0 -0.54114615829E+02  0.71890193821E+02 -0.14753405641E+03  0.19500450703E+03  0.90354127452E+02 0.  0.
          2    1    3    3  502    0  0.29195854928E+03  0.20529135518E+03 -0.36066318005E+03  0.50740739495E+03  0.00000000000E+00 0. -1.
         -1    1    3    3    0  502  0.18206593490E+03  0.23596975561E+03 -0.31989527379E+03  0.43722158731E+03  0.00000000000E+00 0.  1.
         11    1    5    5    0    0 -0.40039737544E+03 -0.44915193116E+03  0.89779149906E+03  0.10807798533E+04  0.00000000000E+00 0. -1.
        -11    1    5    5    0    0 -0.19512492908E+02 -0.63999373453E+02  0.11955870300E+03  0.13700708246E+03  0.00000000000E+00 0.  1.
          3    1    6    6  503    0 -0.79326647777E+01  0.59929449142E+02 -0.13140927463E+03  0.14464737642E+03  0.00000000000E+00 0. -1.
         -3    1    6    6    0  503 -0.46181951052E+02  0.11960744679E+02 -0.16124781777E+02  0.50357130613E+02  0.00000000000E+00 0.  1.
<mgrwt>
<rscale>  0 0.23498112E+04</rscale>
<asrwt>0</asrwt>
<pdfrwt beam="1">  1        2 0.16678175E+00 0.23498112E+04</pdfrwt>
<pdfrwt beam="2">  1       -1 0.19589832E+00 0.23498112E+04</pdfrwt>
<totfact> 0.36865395E+00</totfact>
</mgrwt>
</event>
<event>
12    6  0.1462228E-007  0.2214725E+04  0.7818608E-02  0.8512324E-01
          2   -1    0    0  501    0  0.00000000000E+00  0.00000000000E+00  0.32301799868E+04  0.32301799868E+04  0.00000000000E+00 0. -1.
         -1   -1    0    0    0  501 -0.00000000000E+00 -0.00000000000E+00 -0.37962329784E+03  0.37962329784E+03  0.00000000000E+00 0.  1.
         24    2    1    2    0    0 -0.78838786372E+03 -0.44561016754E+03  0.14762667584E+04  0.17337736007E+04  0.80520255607E+02 0.  0.
        254    2    1    2    0    0  0.78838786372E+03  0.44561016754E+03  0.13742899306E+04  0.18760296839E+04  0.90038364968E+03 0.  0.
         23    2    4    4    0    0  0.56448946226E+03  0.55184610747E+03  0.14042784184E+04  0.16134830117E+04  0.90261139742E+02 0.  0.
         23    2    4    4    0    0  0.22389840146E+03 -0.10623593993E+03 -0.29988487864E+02  0.26254667219E+03  0.81331891423E+02 0.  0.
          4    1    3    3  502    0 -0.20889778648E+03 -0.13733437052E+03  0.46997738905E+03  0.53233237807E+03  0.00000000000E+00 0. -1.
         -3    1    3    3    0  502 -0.57949007724E+03 -0.30827579703E+03  0.10062893693E+04  0.12014412227E+04  0.00000000000E+00 0.  1.
         11    1    5    5    0    0  0.53049778863E+03  0.54108040162E+03  0.13212233843E+04  0.15230978748E+04  0.00000000000E+00 0. -1.
        -11    1    5    5    0    0  0.33991673629E+02  0.10765705851E+02  0.83055034088E+02  0.90385136975E+02  0.00000000000E+00 0.  1.
          1    1    6    6  503    0  0.22717017445E+03 -0.11088062276E+03 -0.34711991029E+02  0.25515823127E+03  0.00000000000E+00 0. -1.
         -1    1    6    6    0  503 -0.32717729888E+01  0.46446828284E+01  0.47235031644E+01  0.73884409188E+01  0.00000000000E+00 0.  1.
<mgrwt>
<rscale>  0 0.22147249E+04</rscale>
<asrwt>0</asrwt>
<pdfrwt beam="1">  1        2 0.49695075E+00 0.22147249E+04</pdfrwt>
<pdfrwt beam="2">  1       -1 0.58403586E-01 0.22147249E+04</pdfrwt>
<totfact> 0.38312813E+00</totfact>
</mgrwt>
</event>
