<event>
12    7  0.1611233E-007  0.1390494E+04  0.7818608E-02  0.8960728E-01
         -1   -1    0    0    0  501 -0.00000000000E+00  0.00000000000E+00  0.14896548034E+04  0.14896548034E+04  0.00000000000E+00 0.  1.
          2   -1    0    0  501    0  0.00000000000E+00 -0.00000000000E+00 -0.32448356269E+03  0.32448356269E+03  0.00000000000E+00 0. -1.
         24    2    1    2    0    0 -0.36358816562E+03  0.42968074463E+02  0.14180072444E+03  0.40014613961E+03  0.77245569393E+02 0.  0.
        254    2    1    2    0    0  0.36358816562E+03 -0.42968074463E+02  0.10233705162E+04  0.14139922264E+04  0.90445795555E+03 0.  0.
         23    2    4    4    0    0  0.61736143580E+03  0.13678085286E+03  0.77536662326E+03  0.10047168364E+04  0.91751712501E+02 0.  0.
         23    2    4    4    0    0 -0.25377327019E+03 -0.17974892732E+03  0.24800389298E+03  0.40927539005E+03  0.96383942835E+02 0.  0.
          2    1    3    3  502    0 -0.26879911623E+03  0.38803020814E+02  0.68070829511E+02  0.27998620884E+03  0.00000000000E+00 0. -1.
         -1    1    3    3    0  502 -0.94789049387E+02  0.41650536489E+01  0.73729894931E+02  0.12015993077E+03  0.00000000000E+00 0.  1.
         13    1    5    5    0    0  0.61999109096E+03  0.13697464690E+03  0.76576527381E+03  0.99476000188E+03  0.00000000000E+00 0. -1.
        -13    1    5    5    0    0 -0.26296551566E+01 -0.19379404688E+00  0.96013494433E+01  0.99568345124E+01  0.00000000000E+00 0.  1.
          3    1    6    6  503    0 -0.18989123382E+03 -0.17656276263E+03  0.21738581723E+03  0.33836324174E+03  0.00000000000E+00 0. -1.
         -3    1    6    6    0  503 -0.63882036367E+02 -0.31861646945E+01  0.30618075747E+02  0.70912148312E+02  0.00000000000E+00 0.  1.
<mgrwt>
<rscale>  0 0.13904942E+04</rscale>
<asrwt>0</asrwt>
<pdfrwt beam="1">  1        2 0.49920549E-01 0.13904942E+04</pdfrwt>
<pdfrwt beam="2">  1       -1 0.22917766E+00 0.13904942E+04</pdfrwt>
<totfact> 0.10726683E+01</totfact>
</mgrwt>
</event>
<event>
12    7  0.1611233E-007  0.2435542E+04  0.7818608E-02  0.8426316E-01
         -1   -1    0    0    0  501 -0.00000000000E+00  0.00000000000E+00  0.72426851853E+03  0.72426851853E+03  0.00000000000E+00 0.  1.
          2   -1    0    0  501    0  0.00000000000E+00 -0.00000000000E+00 -0.20475369708E+04  0.20475369708E+04  0.00000000000E+00 0. -1.
         24    2    1    2    0    0  0.58897597194E+03  0.58556491065E+03 -0.13021769104E+04  0.15465479864E+04  0.79793534749E+02 0.  0.
        254    2    1    2    0    0 -0.58897597194E+03 -0.58556491065E+03 -0.21091541844E+02  0.12252575029E+04  0.90057322587E+03 0.  0.
         23    2    4    4    0    0 -0.54066248729E+03 -0.54221037612E+03  0.34347128722E+03  0.84383759660E+03  0.88211944517E+02 0.  0.
         23    2    4    4    0    0 -0.48313484649E+02 -0.43354534536E+02 -0.36456282907E+03  0.38141990629E+03  0.91440035636E+02 0.  0.
          2    1    3    3  502    0  0.46688563599E+03  0.46493177159E+03 -0.96955796599E+03  0.11722569679E+04  0.00000000000E+00 0. -1.
         -1    1    3    3    0  502  0.12209033595E+03  0.12063313906E+03 -0.33261894445E+03  0.37429101857E+03  0.00000000000E+00 0.  1.
         13    1    5    5    0    0 -0.27695978048E+03 -0.24163114769E+03  0.12522575780E+03  0.38829604937E+03  0.00000000000E+00 0. -1.
        -13    1    5    5    0    0 -0.26370270681E+03 -0.30057922843E+03  0.21824552942E+03  0.45554154723E+03  0.00000000000E+00 0.  1.
          3    1    6    6  503    0  0.12409804423E+02 -0.30054331022E+02 -0.24015385105E+03  0.24234508089E+03  0.00000000000E+00 0. -1.
         -3    1    6    6    0  503 -0.60723289073E+02 -0.13300203514E+02 -0.12440897801E+03  0.13907482540E+03  0.00000000000E+00 0.  1.
<mgrwt>
<rscale>  0 0.24355423E+04</rscale>
<asrwt>0</asrwt>
<pdfrwt beam="1">  1        2 0.31500569E+00 0.24355423E+04</pdfrwt>
<pdfrwt beam="2">  1       -1 0.11142592E+00 0.24355423E+04</pdfrwt>
<totfact> 0.47466931E+00</totfact>
</mgrwt>
</event>
<event>
12    7  0.1611233E-007  0.1932003E+04  0.7818608E-02  0.8639089E-01
          2   -1    0    0  501    0  0.00000000000E+00  0.00000000000E+00  0.77144939488E+03  0.77144939488E+03  0.00000000000E+00 0. -1.
         -1   -1    0    0    0  501 -0.00000000000E+00 -0.00000000000E+00 -0.12096173672E+04  0.12096173672E+04  0.00000000000E+00 0.  1.
         24    2    1    2    0    0 -0.43814887783E+03 -0.10785091327E+03  0.44732924320E+03  0.64006847548E+03  0.77317157461E+02 0.  0.
        254    2    1    2    0    0  0.43814887783E+03  0.10785091327E+03 -0.88549721548E+03  0.13409982866E+04  0.90031373826E+03 0.  0.
         23    2    4    4    0    0  0.29335323650E+03 -0.35003261407E+03 -0.64531667526E+03  0.79642955117E+03  0.96371501633E+02 0.  0.
         23    2    4    4    0    0  0.14479564133E+03  0.45788352734E+03 -0.24018054022E+03  0.54456873539E+03  0.90803707550E+02 0.  0.
          2    1    3    3  502    0 -0.38107435111E+03 -0.81969856443E+02  0.41572926494E+03  0.56988379532E+03  0.00000000000E+00 0. -1.
         -1    1    3    3    0  502 -0.57074526714E+02 -0.25881056827E+02  0.31599978263E+02  0.70184680155E+02  0.00000000000E+00 0.  1.
         13    1    5    5    0    0  0.29795302747E+03 -0.34403068892E+03 -0.61441932748E+03  0.76462031851E+03  0.00000000000E+00 0. -1.
        -13    1    5    5    0    0 -0.45997909715E+01 -0.60019251518E+01 -0.30897347774E+02  0.31809232653E+02  0.00000000000E+00 0.  1.
          1    1    6    6  503    0  0.13516487887E+03  0.32942084933E+03 -0.20567107138E+03  0.41120339257E+03  0.00000000000E+00 0. -1.
         -1    1    6    6    0  503  0.96307624586E+01  0.12846267801E+03 -0.34509468837E+02  0.13336534282E+03  0.00000000000E+00 0.  1.
<mgrwt>
<rscale>  0 0.19320027E+04</rscale>
<asrwt>0</asrwt>
<pdfrwt beam="1">  1        2 0.11868452E+00 0.19320027E+04</pdfrwt>
<pdfrwt beam="2">  1       -1 0.18609498E+00 0.19320027E+04</pdfrwt>
<totfact> 0.72552975E+00</totfact>
</mgrwt>
</event>
<event>
12    7  0.1611233E-007  0.3138319E+04  0.7818608E-02  0.8205300E-01
         -1   -1    0    0    0  501 -0.00000000000E+00  0.00000000000E+00  0.99826012057E+03  0.99826012057E+03  0.00000000000E+00 0.  1.
          2   -1    0    0  501    0  0.00000000000E+00 -0.00000000000E+00 -0.24665530534E+04  0.24665530534E+04  0.00000000000E+00 0. -1.
         24    2    1    2    0    0 -0.75980334737E+03 -0.86317276021E+03 -0.16453619758E+04  0.20089418593E+04  0.79139255279E+02 0.  0.
        254    2    1    2    0    0  0.75980334737E+03  0.86317276021E+03  0.17706904304E+03  0.14558713147E+04  0.87512256183E+03 0.  0.
         23    2    4    4    0    0  0.71432587955E+03  0.49564114583E+03  0.45365745240E+03  0.98509554807E+03  0.93201647367E+02 0.  0.
         23    2    4    4    0    0  0.45477467814E+02  0.36753161438E+03 -0.27658840936E+03  0.47077576660E+03  0.89336367588E+02 0.  0.
          2    1    3    3  502    0 -0.51633055449E+03 -0.59524089477E+03 -0.11892897365E+04  0.14266460814E+04  0.00000000000E+00 0. -1.
         -1    1    3    3    0  502 -0.24347279288E+03 -0.26793186545E+03 -0.45607223932E+03  0.58229577782E+03  0.00000000000E+00 0.  1.
         13    1    5    5    0    0  0.40037590141E+03  0.26300589888E+03  0.30001173122E+03  0.56522562233E+03  0.00000000000E+00 0.  1.
        -13    1    5    5    0    0  0.31394997815E+03  0.23263524695E+03  0.15364572118E+03  0.41986992574E+03  0.00000000000E+00 0. -1.
          4    1    6    6  503    0 -0.37108025797E+01  0.27668584487E+03 -0.21579664702E+03  0.35090884810E+03  0.00000000000E+00 0. -1.
         -4    1    6    6    0  503  0.49188270394E+02  0.90845769508E+02 -0.60791762345E+02  0.11986691850E+03  0.00000000000E+00 0.  1.
<mgrwt>
<rscale>  0 0.31383190E+04</rscale>
<asrwt>0</asrwt>
<pdfrwt beam="1">  1        2 0.37946970E+00 0.31383190E+04</pdfrwt>
<pdfrwt beam="2">  1       -1 0.15357848E+00 0.31383190E+04</pdfrwt>
<totfact> 0.11456410E+00</totfact>
</mgrwt>
</event>
<event>
12    7  0.1611233E-007  0.1469576E+04  0.7818608E-02  0.8904941E-01
         -1   -1    0    0    0  501 -0.00000000000E+00  0.00000000000E+00  0.37814373924E+03  0.37814373924E+03  0.00000000000E+00 0.  1.
          2   -1    0    0  501    0  0.00000000000E+00 -0.00000000000E+00 -0.14277984347E+04  0.14277984347E+04  0.00000000000E+00 0. -1.
         24    2    1    2    0    0 -0.19264607940E+03 -0.29572455426E+03 -0.70134960997E+03  0.78921066376E+03  0.79979200348E+02 0.  0.
        254    2    1    2    0    0  0.19264607940E+03  0.29572455426E+03 -0.34830508551E+03  0.10167315102E+04  0.88761534876E+03 0.  0.
         23    2    4    4    0    0  0.88460847405E+02 -0.21682342783E+03  0.14603138013E+03  0.28977833355E+03  0.88366273158E+02 0.  0.
         23    2    4    4    0    0  0.10418523200E+03  0.51254798209E+03 -0.49433646564E+03  0.72695317666E+03  0.10262740023E+03 0.  0.
          4    1    3    3  502    0 -0.55082693436E+02 -0.13714881448E+03 -0.34994728602E+03  0.37987761638E+03  0.00000000000E+00 0. -1.
         -3    1    3    3    0  502 -0.13756338597E+03 -0.15857573979E+03 -0.35140232394E+03  0.40933304739E+03  0.00000000000E+00 0.  1.
         13    1    5    5    0    0 -0.15170482606E+02 -0.63053711555E+02  0.36785826435E+02  0.74559446818E+02  0.00000000000E+00 0.  1.
        -13    1    5    5    0    0  0.10363133001E+03 -0.15376971628E+03  0.10924555370E+03  0.21521888673E+03  0.00000000000E+00 0. -1.
          4    1    6    6  503    0 -0.52712630587E+01  0.57935575434E+02 -0.98065562015E+02  0.11402268006E+03  0.00000000000E+00 0. -1.
         -4    1    6    6    0  503  0.10945649506E+03  0.45461240666E+03 -0.39627090363E+03  0.61293049660E+03  0.00000000000E+00 0.  1.
<mgrwt>
<rscale>  0 0.14695755E+04</rscale>
<asrwt>0</asrwt>
<pdfrwt beam="1">  1        2 0.21966129E+00 0.14695755E+04</pdfrwt>
<pdfrwt beam="2">  1       -1 0.58175961E-01 0.14695755E+04</pdfrwt>
<totfact> 0.46087518E+01</totfact>
</mgrwt>
</event>
<event>
12    7  0.1611233E-007  0.2042208E+04  0.7818608E-02  0.8587138E-01
          2   -1    0    0  501    0  0.00000000000E+00  0.00000000000E+00  0.22025589526E+04  0.22025589526E+04  0.00000000000E+00 0. -1.
         -1   -1    0    0    0  501 -0.00000000000E+00 -0.00000000000E+00 -0.47338256067E+03  0.47338256067E+03  0.00000000000E+00 0.  1.
         24    2    1    2    0    0 -0.43820764502E+03 -0.69229623698E+03  0.73852581351E+03  0.11059578305E+04  0.80139414630E+02 0.  0.
        254    2    1    2    0    0  0.43820764502E+03  0.69229623698E+03  0.99065057844E+03  0.15699836828E+04  0.90119929853E+03 0.  0.
         23    2    4    4    0    0  0.16959510040E+03  0.80609301019E+03  0.43513264164E+03  0.93608536857E+03  0.91471100759E+02 0.  0.
         23    2    4    4    0    0  0.26861254462E+03 -0.11379677320E+03  0.55551793680E+03  0.63389831420E+03  0.90135952387E+02 0.  0.
          4    1    3    3  502    0 -0.34777003217E+03 -0.60005636444E+03  0.63642457785E+03  0.94130116279E+03  0.00000000000E+00 0. -1.
         -3    1    3    3    0  502 -0.90437612853E+02 -0.92239872541E+02  0.10210123567E+03  0.16465666774E+03  0.00000000000E+00 0.  1.
         13    1    5    5    0    0  0.32487449363E+02  0.32795079901E+03  0.14311100696E+03  0.35928807557E+03  0.00000000000E+00 0.  1.
        -13    1    5    5    0    0  0.13710765103E+03  0.47814221118E+03  0.29202163469E+03  0.57679729299E+03  0.00000000000E+00 0. -1.
          2    1    6    6  503    0  0.24600275812E+03 -0.12795761300E+03  0.48764880151E+03  0.56097402911E+03  0.00000000000E+00 0. -1.
         -2    1    6    6    0  503  0.22609786508E+02  0.14160839799E+02  0.67869135290E+02  0.72924285082E+02  0.00000000000E+00 0.  1.
<mgrwt>
<rscale>  0 0.20422076E+04</rscale>
<asrwt>0</asrwt>
<pdfrwt beam="1">  1        2 0.33885522E+00 0.20422076E+04</pdfrwt>
<pdfrwt beam="2">  1       -1 0.72828087E-01 0.20422076E+04</pdfrwt>
<totfact> 0.10312281E+01</totfact>
</mgrwt>
</event>
<event>
12    7  0.1611233E-007  0.2355140E+04  0.7818608E-02  0.8456492E-01
         -1   -1    0    0    0  501 -0.00000000000E+00  0.00000000000E+00  0.14875948047E+04  0.14875948047E+04  0.00000000000E+00 0.  1.
          2   -1    0    0  501    0  0.00000000000E+00 -0.00000000000E+00 -0.93215637646E+03  0.93215637646E+03  0.00000000000E+00 0. -1.
         24    2    1    2    0    0  0.71491026066E+03  0.26457072047E+03  0.90416750494E+03  0.11853726567E+04  0.80592252948E+02 0.  0.
        254    2    1    2    0    0 -0.71491026066E+03 -0.26457072047E+03 -0.34872907668E+03  0.12343785245E+04  0.90608168836E+03 0.  0.
         23    2    4    4    0    0 -0.18150437293E+03  0.17949554079E+03  0.20681787427E+03  0.34077623801E+03  0.90511461808E+02 0.  0.
         23    2    4    4    0    0 -0.53340588773E+03 -0.44406626126E+03 -0.55554695095E+03  0.89360228652E+03  0.90420939560E+02 0.  0.
          2    1    3    3  502    0  0.60086287096E+03  0.23340299415E+03  0.80336513312E+03  0.10300042158E+04  0.00000000000E+00 0. -1.
         -1    1    3    3    0  502  0.11404738970E+03  0.31167726320E+02  0.10080237182E+03  0.15536844089E+03  0.00000000000E+00 0.  1.
         13    1    5    5    0    0 -0.92220499359E+02  0.60335630880E+02  0.40166319297E+02  0.11729595927E+03  0.00000000000E+00 0. -1.
        -13    1    5    5    0    0 -0.89283873568E+02  0.11915990991E+03  0.16665155498E+03  0.22348027874E+03  0.00000000000E+00 0.  1.
          4    1    6    6  503    0 -0.30451372358E+03 -0.21262600814E+03 -0.25458035685E+03  0.45027723158E+03  0.00000000000E+00 0.  1.
         -4    1    6    6    0  503 -0.22889216415E+03 -0.23144025313E+03 -0.30096659410E+03  0.44332505495E+03  0.00000000000E+00 0. -1.
<mgrwt>
<rscale>  0 0.23551399E+04</rscale>
<asrwt>0</asrwt>
<pdfrwt beam="1">  1        2 0.14340867E+00 0.23551399E+04</pdfrwt>
<pdfrwt beam="2">  1       -1 0.22886074E+00 0.23551399E+04</pdfrwt>
<totfact> 0.27580493E+00</totfact>
</mgrwt>
</event>
<event>
12    7  0.1611233E-007  0.2435739E+04  0.7818608E-02  0.8426243E-01
         -1   -1    0    0    0  501 -0.00000000000E+00  0.00000000000E+00  0.56675749113E+03  0.56675749113E+03  0.00000000000E+00 0.  1.
          2   -1    0    0  501    0  0.00000000000E+00 -0.00000000000E+00 -0.26170023586E+04  0.26170023586E+04  0.00000000000E+00 0. -1.
         24    2    1    2    0    0  0.27203849901E+03  0.92213111793E+03 -0.14364988364E+04  0.17304076982E+04  0.80319060126E+02 0.  0.
        254    2    1    2    0    0 -0.27203849901E+03 -0.92213111793E+03 -0.61374603114E+03  0.14533521516E+04  0.90067615833E+03 0.  0.
         23    2    4    4    0    0 -0.43400227684E+02 -0.21945970221E+03  0.22592812442E+03  0.33116949844E+03  0.92647604594E+02 0.  0.
         23    2    4    4    0    0 -0.22863827133E+03 -0.70267141572E+03 -0.83967415556E+03  0.11221826531E+04  0.90656725778E+02 0.  0.
          4    1    3    3  502    0  0.38895816303E+02  0.12843230705E+03 -0.15400642317E+03  0.20426874552E+03  0.00000000000E+00 0. -1.
         -3    1    3    3    0  502  0.23314268271E+03  0.79369881089E+03 -0.12824924132E+04  0.15261389527E+04  0.00000000000E+00 0.  1.
         13    1    5    5    0    0 -0.56207536532E+02 -0.74046707009E+02  0.62392888055E+02  0.11196014676E+03  0.00000000000E+00 0. -1.
        -13    1    5    5    0    0  0.12807308848E+02 -0.14541299520E+03  0.16353523637E+03  0.21920935168E+03  0.00000000000E+00 0.  1.
          3    1    6    6  503    0 -0.20616163797E+03 -0.66284833494E+03 -0.81378684711E+03  0.10696352503E+04  0.00000000000E+00 0. -1.
         -3    1    6    6    0  503 -0.22476633353E+02 -0.39823080789E+02 -0.25887308447E+02  0.52547402877E+02  0.00000000000E+00 0.  1.
<mgrwt>
<rscale>  0 0.24357386E+04</rscale>
<asrwt>0</asrwt>
<pdfrwt beam="1">  1        2 0.40261574E+00 0.24357386E+04</pdfrwt>
<pdfrwt beam="2">  1       -1 0.87193462E-01 0.24357386E+04</pdfrwt>
<totfact> 0.39276636E+00</totfact>
</mgrwt>
</event>
<event>
12    7  0.1611233E-007  0.1404640E+04  0.7818608E-02  0.8950467E-01
         -1   -1    0    0    0  501 -0.00000000000E+00  0.00000000000E+00  0.73187300048E+03  0.73187300048E+03  0.00000000000E+00 0.  1.
          2   -1    0    0  501    0  0.00000000000E+00 -0.00000000000E+00 -0.67395994854E+03  0.67395994854E+03  0.00000000000E+00 0. -1.
         24    2    1    2    0    0 -0.13124307241E+03 -0.37585234584E+03  0.10865993858E+03  0.42129208857E+03  0.84795705740E+02 0.  0.
        254    2    1    2    0    0  0.13124307241E+03  0.37585234584E+03 -0.50746886642E+02  0.98454086044E+03  0.89903043856E+03 0.  0.
         23    2    4    4    0    0 -0.51687687541E+02  0.53286131255E+03 -0.30549687290E+03  0.62217686791E+03  0.84634036591E+02 0.  0.
         23    2    4    4    0    0  0.18293075995E+03 -0.15700896671E+03  0.25474998626E+03  0.36236399254E+03  0.91074853975E+02 0.  0.
          2    1    3    3  502    0 -0.41496085172E+01  0.17188510887E+01 -0.52791239636E+01  0.69312949537E+01  0.00000000000E+00 0. -1.
         -1    1    3    3    0  502 -0.12709346389E+03 -0.37757119693E+03  0.11393906254E+03  0.41436079362E+03  0.00000000000E+00 0.  1.
         13    1    5    5    0    0 -0.54748164529E+02  0.24497313077E+03 -0.10931803223E+03  0.27378756087E+03  0.00000000000E+00 0. -1.
        -13    1    5    5    0    0  0.30604769884E+01  0.28788818178E+03 -0.19617884067E+03  0.34838930703E+03  0.00000000000E+00 0.  1.
          4    1    6    6  503    0  0.12799416275E+03 -0.88386963494E+02  0.10162633294E+03  0.18580277867E+03  0.00000000000E+00 0. -1.
         -4    1    6    6    0  503  0.54936597197E+02 -0.68622003212E+02  0.15312365332E+03  0.17656121387E+03  0.00000000000E+00 0.  1.
<mgrwt>
<rscale>  0 0.14046396E+04</rscale>
<asrwt>0</asrwt>
<pdfrwt beam="1">  1        2 0.10368615E+00 0.14046396E+04</pdfrwt>
<pdfrwt beam="2">  1       -1 0.11259585E+00 0.14046396E+04</pdfrwt>
<totfact> 0.34505240E+01</totfact>
</mgrwt>
</event>
<event>
12    7  0.1611233E-007  0.2090642E+04  0.7818608E-02  0.8565377E-01
          2   -1    0    0  501    0  0.00000000000E+00  0.00000000000E+00  0.67862831682E+03  0.67862831682E+03  0.00000000000E+00 0. -1.
         -1   -1    0    0    0  501 -0.00000000000E+00 -0.00000000000E+00 -0.16101543496E+04  0.16101543496E+04  0.00000000000E+00 0.  1.
         24    2    1    2    0    0 -0.21115960380E+03  0.62352991142E+03  0.21528511533E+03  0.69691850020E+03  0.77264392277E+02 0.  0.
        254    2    1    2    0    0  0.21115960380E+03 -0.62352991142E+03 -0.11468111481E+04  0.15918641662E+04  0.88627184631E+03 0.  0.
         23    2    4    4    0    0 -0.77161122407E+01 -0.57514876599E+03 -0.12119700435E+04  0.13445697630E+04  0.90226492102E+02 0.  0.
         23    2    4    4    0    0  0.21887571604E+03 -0.48381145434E+02  0.65158895373E+02  0.24729440322E+03  0.81618171465E+02 0.  0.
          2    1    3    3  502    0 -0.96595518954E+02  0.38674716201E+03  0.10942114755E+03  0.41337277261E+03  0.00000000000E+00 0. -1.
         -1    1    3    3    0  502 -0.11456408485E+03  0.23678274941E+03  0.10586396779E+03  0.28354572759E+03  0.00000000000E+00 0.  1.
         13    1    5    5    0    0 -0.46224789591E+01 -0.50059881672E+03 -0.97319256163E+03  0.10944059140E+04  0.00000000000E+00 0.  1.
        -13    1    5    5    0    0 -0.30936332815E+01 -0.74549949269E+02 -0.23877748182E+03  0.25016384897E+03  0.00000000000E+00 0. -1.
          4    1    6    6  503    0  0.39155326131E+02 -0.36216652972E+02  0.37147478075E+02  0.64997851074E+02  0.00000000000E+00 0. -1.
         -4    1    6    6    0  503  0.17972038991E+03 -0.12164492462E+02  0.28011417297E+02  0.18229655215E+03  0.00000000000E+00 0.  1.
<mgrwt>
<rscale>  0 0.20906423E+04</rscale>
<asrwt>0</asrwt>
<pdfrwt beam="1">  1        2 0.10440436E+00 0.20906423E+04</pdfrwt>
<pdfrwt beam="2">  1       -1 0.24771605E+00 0.20906423E+04</pdfrwt>
<totfact> 0.32366892E+00</totfact>
</mgrwt>
</event>
<event>
12    7  0.1611233E-007  0.1541880E+04  0.7818608E-02  0.8857071E-01
         -1   -1    0    0    0  501 -0.00000000000E+00  0.00000000000E+00  0.51608985005E+03  0.51608985005E+03  0.00000000000E+00 0.  1.
          2   -1    0    0  501    0  0.00000000000E+00 -0.00000000000E+00 -0.11516377401E+04  0.11516377401E+04  0.00000000000E+00 0. -1.
         24    2    1    2    0    0  0.15688812061E+03 -0.37308705176E+02 -0.72829803844E+03  0.75063545550E+03  0.83843499363E+02 0.  0.
        254    2    1    2    0    0 -0.15688812061E+03  0.37308705176E+02  0.92750148355E+02  0.91709213468E+03  0.89802537359E+03 0.  0.
         23    2    4    4    0    0 -0.22934605816E+03  0.13117333045E+03  0.44949078040E+03  0.52951610645E+03  0.92408269699E+02 0.  0.
         23    2    4    4    0    0  0.72457937553E+02 -0.93864625275E+02 -0.35674063204E+03  0.38757602824E+03  0.94289864360E+02 0.  0.
          2    1    3    3  502    0  0.12886769177E+03 -0.61709247636E+01 -0.64039617330E+03  0.65326275040E+03  0.00000000000E+00 0. -1.
         -1    1    3    3    0  502  0.28020428842E+02 -0.31137780412E+02 -0.87901865142E+02  0.97372705092E+02  0.00000000000E+00 0.  1.
         13    1    5    5    0    0 -0.11386950087E+03  0.11143642803E+03  0.21736409305E+03  0.26950229993E+03  0.00000000000E+00 0.  1.
        -13    1    5    5    0    0 -0.11547655729E+03  0.19736902425E+02  0.23212668735E+03  0.26001380652E+03  0.00000000000E+00 0. -1.
          1    1    6    6  503    0  0.40226134432E+01 -0.58985606684E+02 -0.74715049120E+02  0.95277603768E+02  0.00000000000E+00 0. -1.
         -1    1    6    6    0  503  0.68435324110E+02 -0.34879018591E+02 -0.28202558292E+03  0.29229842447E+03  0.00000000000E+00 0.  1.
<mgrwt>
<rscale>  0 0.15418801E+04</rscale>
<asrwt>0</asrwt>
<pdfrwt beam="1">  1        2 0.17717504E+00 0.15418801E+04</pdfrwt>
<pdfrwt beam="2">  1       -1 0.79398439E-01 0.15418801E+04</pdfrwt>
<totfact> 0.35273968E+01</totfact>
</mgrwt>
</event>
<event>
12    7  0.1611233E-007  0.1254471E+04  0.7818608E-02  0.9066470E-01
          2   -1    0    0  501    0  0.00000000000E+00  0.00000000000E+00  0.54878579535E+03  0.54878579535E+03  0.00000000000E+00 0. -1.
         -1   -1    0    0    0  501 -0.00000000000E+00 -0.00000000000E+00 -0.71689989027E+03  0.71689989027E+03  0.00000000000E+00 0.  1.
         24    2    1    2    0    0  0.22672547353E+03  0.99412516542E+02  0.12713096432E+03  0.28950401897E+03  0.79768453145E+02 0.  0.
        254    2    1    2    0    0 -0.22672547353E+03 -0.99412516542E+02 -0.29524505925E+03  0.97618166665E+03  0.89692458574E+03 0.  0.
         23    2    4    4    0    0 -0.51021680690E+03 -0.67956168755E+02  0.43884049572E+02  0.52387406374E+03  0.87057417487E+02 0.  0.
         23    2    4    4    0    0  0.28349133337E+03 -0.31456347786E+02 -0.33912910882E+03  0.45230760291E+03  0.90646441101E+02 0.  0.
          2    1    3    3  502    0  0.14871656938E+03  0.72675675193E+02  0.12428614794E+03  0.20699134848E+03  0.00000000000E+00 0. -1.
         -1    1    3    3    0  502  0.78008904145E+02  0.26736841348E+02  0.28448163792E+01  0.82512670490E+02  0.00000000000E+00 0.  1.
         13    1    5    5    0    0 -0.36392627336E+03 -0.60765962887E+02  0.68738877587E+02  0.37531302666E+03  0.00000000000E+00 0. -1.
        -13    1    5    5    0    0 -0.14629053354E+03 -0.71902058680E+01 -0.24854828014E+02  0.14856103708E+03  0.00000000000E+00 0.  1.
          4    1    6    6  503    0  0.12500329052E+03 -0.45304050035E+01 -0.21680387013E+03  0.25030035021E+03  0.00000000000E+00 0. -1.
         -4    1    6    6    0  503  0.15848804286E+03 -0.26925942783E+02 -0.12232523869E+03  0.20200725270E+03  0.00000000000E+00 0.  1.
<mgrwt>
<rscale>  0 0.12544712E+04</rscale>
<asrwt>0</asrwt>
<pdfrwt beam="1">  1        2 0.84428584E-01 0.12544712E+04</pdfrwt>
<pdfrwt beam="2">  1       -1 0.11029229E+00 0.12544712E+04</pdfrwt>
<totfact> 0.47074109E+01</totfact>
</mgrwt>
</event>
<event>
12    7  0.1611233E-007  0.1690491E+04  0.7818608E-02  0.8766806E-01
          2   -1    0    0  501    0  0.00000000000E+00  0.00000000000E+00  0.80267023996E+03  0.80267023996E+03  0.00000000000E+00 0. -1.
         -1   -1    0    0    0  501 -0.00000000000E+00 -0.00000000000E+00 -0.89007922266E+03  0.89007922266E+03  0.00000000000E+00 0.  1.
         24    2    1    2    0    0 -0.42778733610E+02  0.57259826435E+03 -0.21894769672E+03  0.62022415229E+03  0.83911338882E+02 0.  0.
        254    2    1    2    0    0  0.42778733610E+02 -0.57259826435E+03  0.13153871403E+03  0.10725253103E+04  0.89627524546E+03 0.  0.
         23    2    4    4    0    0 -0.11942980262E+03 -0.76295778284E+03  0.24173663096E+01  0.77727116485E+03  0.88184828081E+02 0.  0.
         23    2    4    4    0    0  0.16220853623E+03  0.19035951848E+03  0.12912134772E+03  0.29525414549E+03  0.89187064582E+02 0.  0.
          2    1    3    3  502    0  0.89285578927E+01  0.18437263220E+03 -0.10485132009E+03  0.21228939205E+03  0.00000000000E+00 0. -1.
         -1    1    3    3    0  502 -0.51707291503E+02  0.38822563215E+03 -0.11409637664E+03  0.40793476024E+03  0.00000000000E+00 0.  1.
         13    1    5    5    0    0 -0.42249046345E+02 -0.89913266524E+02  0.93167390626E+01  0.99780654642E+02  0.00000000000E+00 0. -1.
        -13    1    5    5    0    0 -0.77180756270E+02 -0.67304451631E+03 -0.68993727529E+01  0.67749051021E+03  0.00000000000E+00 0.  1.
          3    1    6    6  503    0  0.22016330546E+02 -0.85042743171E+00 -0.53571523634E+01  0.22674680130E+02  0.00000000000E+00 0. -1.
         -3    1    6    6    0  503  0.14019220568E+03  0.19120994591E+03  0.13447850008E+03  0.27257946536E+03  0.00000000000E+00 0.  1.
<mgrwt>
<rscale>  0 0.16904912E+04</rscale>
<asrwt>0</asrwt>
<pdfrwt beam="1">  1        2 0.12348773E+00 0.16904912E+04</pdfrwt>
<pdfrwt beam="2">  1       -1 0.13693527E+00 0.16904912E+04</pdfrwt>
<totfact> 0.16556684E+01</totfact>
</mgrwt>
</event>
<event>
12    7  0.1611233E-007  0.1289925E+04  0.7818608E-02  0.9037593E-01
         -1   -1    0    0    0  501 -0.00000000000E+00  0.00000000000E+00  0.10693275960E+04  0.10693275960E+04  0.00000000000E+00 0.  1.
          2   -1    0    0  501    0  0.00000000000E+00 -0.00000000000E+00 -0.38900780959E+03  0.38900780959E+03  0.00000000000E+00 0. -1.
         24    2    1    2    0    0  0.10540320436E+03 -0.19927469256E+03  0.45842777802E+03  0.51708876651E+03  0.80028283812E+02 0.  0.
        254    2    1    2    0    0 -0.10540320436E+03  0.19927469256E+03  0.22189200839E+03  0.94124663907E+03  0.88650376964E+03 0.  0.
         23    2    4    4    0    0  0.14335920424E+03  0.18884109809E+03  0.49787291055E+03  0.55897540196E+03  0.91450769063E+02 0.  0.
         23    2    4    4    0    0 -0.24876240860E+03  0.10433594475E+02 -0.27598090216E+03  0.38227123711E+03  0.89298625620E+02 0.  0.
          4    1    3    3  502    0 -0.54495634103E+01 -0.48871604760E+02  0.13354851256E+03  0.14231421819E+03  0.00000000000E+00 0. -1.
         -3    1    3    3    0  502  0.11085276777E+03 -0.15040308781E+03  0.32487926546E+03  0.37477454832E+03  0.00000000000E+00 0.  1.
         13    1    5    5    0    0  0.12346749769E+03  0.18908500355E+03  0.40224993823E+03  0.46130507732E+03  0.00000000000E+00 0. -1.
        -13    1    5    5    0    0  0.19891706549E+02 -0.24390545763E+00  0.95622972324E+02  0.97670324640E+02  0.00000000000E+00 0.  1.
          3    1    6    6  503    0 -0.16074859810E+03 -0.32398789207E+02 -0.14601237891E+03  0.21956640938E+03  0.00000000000E+00 0. -1.
         -3    1    6    6    0  503 -0.88013810505E+02  0.42832383682E+02 -0.12996852325E+03  0.16270482773E+03  0.00000000000E+00 0.  1.
<mgrwt>
<rscale>  0 0.12899252E+04</rscale>
<asrwt>0</asrwt>
<pdfrwt beam="1">  1        2 0.59847356E-01 0.12899252E+04</pdfrwt>
<pdfrwt beam="2">  1       -1 0.16451194E+00 0.12899252E+04</pdfrwt>
<totfact> 0.24894932E+01</totfact>
</mgrwt>
</event>
<event>
12    7  0.1611233E-007  0.1789709E+04  0.7818608E-02  0.8711791E-01
          2   -1    0    0  501    0  0.00000000000E+00  0.00000000000E+00  0.15491931942E+04  0.15491931942E+04  0.00000000000E+00 0. -1.
         -1   -1    0    0    0  501 -0.00000000000E+00 -0.00000000000E+00 -0.51689134972E+03  0.51689134972E+03  0.00000000000E+00 0.  1.
         24    2    1    2    0    0 -0.16125071819E+03 -0.33300567744E+03  0.10198639764E+04  0.10878215525E+04  0.79615478892E+02 0.  0.
        254    2    1    2    0    0  0.16125071819E+03  0.33300567744E+03  0.12437868041E+02  0.97826299134E+03  0.90551046617E+03 0.  0.
         23    2    4    4    0    0 -0.89377533359E+02 -0.13667900721E+02  0.38373914545E+03  0.40469722981E+03  0.91372649547E+02 0.  0.
         23    2    4    4    0    0  0.25062825155E+03  0.34667357816E+03 -0.37130127741E+03  0.57356576154E+03  0.90088589383E+02 0.  0.
          2    1    3    3  502    0 -0.13068459526E+03 -0.18070179499E+03  0.58788341105E+03  0.62875949865E+03  0.00000000000E+00 0. -1.
         -1    1    3    3    0  502 -0.30566122924E+02 -0.15230388245E+03  0.43198056534E+03  0.45906205388E+03  0.00000000000E+00 0.  1.
         13    1    5    5    0    0 -0.37454630031E+02 -0.43795374405E+01  0.31885782752E+03  0.32107996485E+03  0.00000000000E+00 0.  1.
        -13    1    5    5    0    0 -0.51922903328E+02 -0.92883632809E+01  0.64881317927E+02  0.83617264954E+02  0.00000000000E+00 0. -1.
          4    1    6    6  503    0  0.12515750792E+02  0.10400264276E+02 -0.45371812806E+02  0.48201772916E+02  0.00000000000E+00 0. -1.
         -4    1    6    6    0  503  0.23811250075E+03  0.33627331389E+03 -0.32592946460E+03  0.52536398862E+03  0.00000000000E+00 0.  1.
<mgrwt>
<rscale>  0 0.17897090E+04</rscale>
<asrwt>0</asrwt>
<pdfrwt beam="1">  1        2 0.23833741E+00 0.17897090E+04</pdfrwt>
<pdfrwt beam="2">  1       -1 0.79521747E-01 0.17897090E+04</pdfrwt>
<totfact> 0.20254474E+01</totfact>
</mgrwt>
</event>
<event>
12    7  0.1611233E-007  0.1279306E+04  0.7818608E-02  0.9046138E-01
         -1   -1    0    0    0  501 -0.00000000000E+00  0.00000000000E+00  0.31626555682E+03  0.31626555682E+03  0.00000000000E+00 0.  1.
          2   -1    0    0  501    0  0.00000000000E+00 -0.00000000000E+00 -0.12937105188E+04  0.12937105188E+04  0.00000000000E+00 0. -1.
         24    2    1    2    0    0 -0.23988700831E+03 -0.51375227135E+02 -0.49842003435E+03  0.56116664051E+03  0.79374284653E+02 0.  0.
        254    2    1    2    0    0  0.23988700831E+03  0.51375227135E+02 -0.47902492764E+03  0.10488094351E+04  0.90019506730E+03 0.  0.
         23    2    4    4    0    0  0.23475046905E+03 -0.31578494323E+03  0.40428752985E+02  0.40602223098E+03  0.91605976307E+02 0.  0.
         23    2    4    4    0    0  0.51365392584E+01  0.36716017036E+03 -0.51945368063E+03  0.64278720415E+03  0.92251226328E+02 0.  0.
          4    1    3    3  502    0 -0.16248588583E+03 -0.26768999820E+02 -0.40602727278E+03  0.43815110257E+03  0.00000000000E+00 0. -1.
         -3    1    3    3    0  502 -0.77401122478E+02 -0.24606227316E+02 -0.92392761563E+02  0.12301553793E+03  0.00000000000E+00 0.  1.
         13    1    5    5    0    0  0.22153213201E+02 -0.39690481252E+02  0.35251358758E+02  0.57521799793E+02  0.00000000000E+00 0. -1.
        -13    1    5    5    0    0  0.21259725585E+03 -0.27609446197E+03  0.51773942272E+01  0.34850043119E+03  0.00000000000E+00 0.  1.
          2    1    6    6  503    0 -0.29312582596E+02  0.48496037061E+02 -0.99341781166E+02  0.11436731436E+03  0.00000000000E+00 0. -1.
         -2    1    6    6    0  503  0.34449121855E+02  0.31866413330E+03 -0.42011189946E+03  0.52841988978E+03  0.00000000000E+00 0.  1.
<mgrwt>
<rscale>  0 0.12793062E+04</rscale>
<asrwt>0</asrwt>
<pdfrwt beam="1">  1        2 0.19903239E+00 0.12793062E+04</pdfrwt>
<pdfrwt beam="2">  1       -1 0.48656239E-01 0.12793062E+04</pdfrwt>
<totfact> 0.78830033E+01</totfact>
</mgrwt>
</event>
<event>
12    7  0.1611233E-007  0.2115894E+04  0.7818608E-02  0.8554274E-01
          2   -1    0    0  501    0  0.00000000000E+00  0.00000000000E+00  0.15544386973E+04  0.15544386973E+04  0.00000000000E+00 0. -1.
         -1   -1    0    0    0  501 -0.00000000000E+00 -0.00000000000E+00 -0.72003572000E+03  0.72003572000E+03  0.00000000000E+00 0.  1.
         24    2    1    2    0    0  0.66111481653E+03 -0.18082168287E+03 -0.22436809171E+03  0.72547569011E+03  0.78769630759E+02 0.  0.
        254    2    1    2    0    0 -0.66111481653E+03  0.18082168287E+03  0.10587710691E+04  0.15489987272E+04  0.89923945569E+03 0.  0.
         23    2    4    4    0    0 -0.11021209826E+03  0.47206092110E+03  0.37267756109E+03  0.61800817866E+03  0.89762600857E+02 0.  0.
         23    2    4    4    0    0 -0.55090271827E+03 -0.29123923823E+03  0.68609350796E+03  0.93099054858E+03  0.87778135001E+02 0.  0.
          4    1    3    3  502    0  0.44910455623E+01 -0.61662373902E+01  0.40711014863E+01  0.86467242992E+01  0.00000000000E+00 0. -1.
         -3    1    3    3    0  502  0.65662377097E+03 -0.17465544548E+03 -0.22843919320E+03  0.71682896581E+03  0.00000000000E+00 0.  1.
         13    1    5    5    0    0  0.34126253712E+01  0.54194450052E+02  0.74705873715E+02  0.92356115098E+02  0.00000000000E+00 0.  1.
        -13    1    5    5    0    0 -0.11362472363E+03  0.41786647105E+03  0.29797168738E+03  0.52565206356E+03  0.00000000000E+00 0. -1.
          3    1    6    6  503    0 -0.52005919995E+03 -0.29320148729E+03  0.63752417658E+03  0.87342186790E+03  0.00000000000E+00 0. -1.
         -3    1    6    6    0  503 -0.30843518322E+02  0.19622490585E+01  0.48569331382E+02  0.57568680675E+02  0.00000000000E+00 0.  1.
<mgrwt>
<rscale>  0 0.21158936E+04</rscale>
<asrwt>0</asrwt>
<pdfrwt beam="1">  1        2 0.23914441E+00 0.21158936E+04</pdfrwt>
<pdfrwt beam="2">  1       -1 0.11077473E+00 0.21158936E+04</pdfrwt>
<totfact> 0.93079888E+00</totfact>
</mgrwt>
</event>
<event>
12    7  0.1611233E-007  0.1393923E+04  0.7818608E-02  0.8958229E-01
         -1   -1    0    0    0  501 -0.00000000000E+00  0.00000000000E+00  0.35519754916E+03  0.35519754916E+03  0.00000000000E+00 0.  1.
          2   -1    0    0  501    0  0.00000000000E+00 -0.00000000000E+00 -0.13675632926E+04  0.13675632926E+04  0.00000000000E+00 0. -1.
         24    2    1    2    0    0  0.11836181081E+03 -0.21536783274E+03 -0.73891204263E+03  0.78273295779E+03  0.79290950556E+02 0.  0.
        254    2    1    2    0    0 -0.11836181081E+03  0.21536783274E+03 -0.27345370081E+03  0.94002788397E+03  0.86514893199E+03 0.  0.
         23    2    4    4    0    0 -0.17306607676E+02  0.42141911528E+03 -0.45781554840E+03  0.62884756929E+03  0.89222192601E+02 0.  0.
         23    2    4    4    0    0 -0.10105520313E+03 -0.20605128254E+03  0.18436184759E+03  0.31118031468E+03  0.10086928314E+03 0.  0.
          4    1    3    3  502    0  0.93024320083E+02 -0.20563274421E+03 -0.69844869137E+03  0.73400880383E+03  0.00000000000E+00 0. -1.
         -3    1    3    3    0  502  0.25337490724E+02 -0.97350885354E+01 -0.40463351258E+02  0.48724153969E+02  0.00000000000E+00 0.  1.
         13    1    5    5    0    0 -0.26990757408E+02  0.40985482331E+03 -0.41693377457E+03  0.58527194495E+03  0.00000000000E+00 0.  1.
        -13    1    5    5    0    0  0.96841497321E+01  0.11564291974E+02 -0.40881773827E+02  0.43575624334E+02  0.00000000000E+00 0. -1.
          1    1    6    6  503    0 -0.10938703673E+02  0.58147472021E+01 -0.47169988199E+01  0.13255813854E+02  0.00000000000E+00 0. -1.
         -1    1    6    6    0  503 -0.90116499459E+02 -0.21186602974E+03  0.18907884641E+03  0.29792450083E+03  0.00000000000E+00 0.  1.
<mgrwt>
<rscale>  0 0.13939227E+04</rscale>
<asrwt>0</asrwt>
<pdfrwt beam="1">  1        2 0.21039435E+00 0.13939227E+04</pdfrwt>
<pdfrwt beam="2">  1       -1 0.54645778E-01 0.13939227E+04</pdfrwt>
<totfact> 0.56710600E+01</totfact>
</mgrwt>
</event>
<event>
12    7  0.1611233E-007  0.1150690E+04  0.7818608E-02  0.9157148E-01
          2   -1    0    0  501    0  0.00000000000E+00  0.00000000000E+00  0.59814435000E+03  0.59814435000E+03  0.00000000000E+00 0. -1.
         -1   -1    0    0    0  501 -0.00000000000E+00 -0.00000000000E+00 -0.55341427035E+03  0.55341427035E+03  0.00000000000E+00 0.  1.
         24    2    1    2    0    0 -0.11069314656E+03  0.16283110921E+03  0.65727561855E+02  0.22691958924E+03  0.91681212746E+02 0.  0.
        254    2    1    2    0    0  0.11069314656E+03 -0.16283110921E+03 -0.20997482204E+02  0.92463903111E+03  0.90318851895E+03 0.  0.
         23    2    4    4    0    0  0.45713446424E+03  0.99128376503E+02  0.32207924803E+02  0.47762556858E+03  0.91052072579E+02 0.  0.
         23    2    4    4    0    0 -0.34644131768E+03 -0.26195948572E+03 -0.53205407007E+02  0.44701346253E+03  0.91355687249E+02 0.  0.
          2    1    3    3  502    0 -0.12065402678E+03  0.11080942049E+03  0.43627820070E+02  0.16952730910E+03  0.00000000000E+00 0. -1.
         -1    1    3    3    0  502  0.99608802198E+01  0.52021688727E+02  0.22099741785E+02  0.57392280140E+02  0.00000000000E+00 0.  1.
         13    1    5    5    0    0  0.21480644617E+03  0.26585697706E+02 -0.26174796485E+02  0.21802231218E+03  0.00000000000E+00 0.  1.
        -13    1    5    5    0    0  0.24232801807E+03  0.72542678797E+02  0.58382721289E+02  0.25960325640E+03  0.00000000000E+00 0. -1.
          4    1    6    6  503    0 -0.30380382233E+03 -0.26003067641E+03 -0.57955893868E+02  0.40406880698E+03  0.00000000000E+00 0. -1.
         -4    1    6    6    0  503 -0.42637495347E+02 -0.19288093066E+01  0.47504868609E+01  0.42944655549E+02  0.00000000000E+00 0.  1.
<mgrwt>
<rscale>  0 0.11506896E+04</rscale>
<asrwt>0</asrwt>
<pdfrwt beam="1">  1        2 0.92022208E-01 0.11506896E+04</pdfrwt>
<pdfrwt beam="2">  1       -1 0.85140657E-01 0.11506896E+04</pdfrwt>
<totfact> 0.76867444E+01</totfact>
</mgrwt>
</event>
<event>
12    7  0.1611233E-007  0.2465658E+04  0.7818608E-02  0.8415323E-01
          2   -1    0    0  501    0  0.00000000000E+00  0.00000000000E+00  0.18534781252E+04  0.18534781252E+04  0.00000000000E+00 0. -1.
         -1   -1    0    0    0  501 -0.00000000000E+00 -0.00000000000E+00 -0.82000814283E+03  0.82000814283E+03  0.00000000000E+00 0.  1.
         24    2    1    2    0    0 -0.85084994466E+03 -0.31556632231E+03 -0.15946137192E+03  0.92495423459E+03  0.81146009525E+02 0.  0.
        254    2    1    2    0    0  0.85084994466E+03  0.31556632231E+03  0.11929313542E+04  0.17485320334E+04  0.90041730535E+03 0.  0.
         23    2    4    4    0    0  0.72989851919E+03  0.56007209537E+03  0.63777736846E+03  0.11229964176E+04  0.89041461433E+02 0.  0.
         23    2    4    4    0    0  0.12095142547E+03 -0.24450577307E+03  0.55515398578E+03  0.62553561581E+03  0.93201600486E+02 0.  0.
          2    1    3    3  502    0 -0.38411397451E+03 -0.14257420979E+03 -0.11305348418E+03  0.42503181175E+03  0.00000000000E+00 0. -1.
         -1    1    3    3    0  502 -0.46673597015E+03 -0.17299211252E+03 -0.46407887742E+02  0.49992242285E+03  0.00000000000E+00 0.  1.
         13    1    5    5    0    0  0.59757035196E+03  0.41344777659E+03  0.49306216945E+03  0.87814559866E+03  0.00000000000E+00 0.  1.
        -13    1    5    5    0    0  0.13232816723E+03  0.14662431879E+03  0.14471519902E+03  0.24485081892E+03  0.00000000000E+00 0. -1.
          3    1    6    6  503    0  0.85418749691E+02 -0.22772901569E+03  0.42607956458E+03  0.49061253830E+03  0.00000000000E+00 0. -1.
         -3    1    6    6    0  503  0.35532675781E+02 -0.16776757376E+02  0.12907442120E+03  0.13492307751E+03  0.00000000000E+00 0.  1.
<mgrwt>
<rscale>  0 0.24656578E+04</rscale>
<asrwt>0</asrwt>
<pdfrwt beam="1">  1        2 0.28515048E+00 0.24656578E+04</pdfrwt>
<pdfrwt beam="2">  1       -1 0.12615510E+00 0.24656578E+04</pdfrwt>
<totfact> 0.44867639E+00</totfact>
</mgrwt>
</event>
<event>
12    7  0.1611233E-007  0.1421538E+04  0.7818608E-02  0.8938374E-01
          2   -1    0    0  501    0  0.00000000000E+00  0.00000000000E+00  0.18485482119E+04  0.18485482119E+04  0.00000000000E+00 0. -1.
         -1   -1    0    0    0  501 -0.00000000000E+00 -0.00000000000E+00 -0.27329149559E+03  0.27329149559E+03  0.00000000000E+00 0.  1.
         24    2    1    2    0    0  0.84155799401E+02  0.89947128185E+02 -0.12573089468E+03  0.19320445746E+03  0.79668187286E+02 0.  0.
        254    2    1    2    0    0 -0.84155799401E+02 -0.89947128185E+02  0.17009876110E+04  0.19286352500E+04  0.90061223090E+03 0.  0.
         23    2    4    4    0    0  0.33049366969E+03  0.11498234041E+03  0.11396938305E+04  0.11956170839E+04  0.90283884307E+02 0.  0.
         23    2    4    4    0    0 -0.41464946909E+03 -0.20492946859E+03  0.56129378046E+03  0.73301816607E+03  0.91294328954E+02 0.  0.
          2    1    3    3  502    0  0.75786672275E+00  0.45163576893E+02 -0.15155815957E+02  0.47644745745E+02  0.00000000000E+00 0. -1.
         -1    1    3    3    0  502  0.83397932678E+02  0.44783551292E+02 -0.11057507872E+03  0.14555971172E+03  0.00000000000E+00 0.  1.
         13    1    5    5    0    0  0.28695805310E+03  0.12007785165E+03  0.10595594504E+04  0.11042779739E+04  0.00000000000E+00 0.  1.
        -13    1    5    5    0    0  0.43535616590E+02 -0.50955112393E+01  0.80134380149E+02  0.91339110071E+02  0.00000000000E+00 0. -1.
          1    1    6    6  503    0 -0.22841091827E+03 -0.66723829937E+02  0.31416548821E+03  0.39411111510E+03  0.00000000000E+00 0. -1.
         -1    1    6    6    0  503 -0.18623855082E+03 -0.13820563865E+03  0.24712829225E+03  0.33890705097E+03  0.00000000000E+00 0.  1.
<mgrwt>
<rscale>  0 0.14215379E+04</rscale>
<asrwt>0</asrwt>
<pdfrwt beam="1">  1        2 0.28439203E+00 0.14215379E+04</pdfrwt>
<pdfrwt beam="2">  1       -1 0.42044847E-01 0.14215379E+04</pdfrwt>
<totfact> 0.49894783E+01</totfact>
</mgrwt>
</event>
<event>
12    7  0.1611233E-007  0.1828015E+04  0.7818608E-02  0.8691542E-01
          2   -1    0    0  501    0  0.00000000000E+00  0.00000000000E+00  0.22561524223E+04  0.22561524223E+04  0.00000000000E+00 0. -1.
         -1   -1    0    0    0  501 -0.00000000000E+00 -0.00000000000E+00 -0.37028053942E+03  0.37028053942E+03  0.00000000000E+00 0.  1.
         24    2    1    2    0    0 -0.39697209813E+03 -0.53296284447E+03  0.57124573612E+03  0.87992656974E+03  0.79453362571E+02 0.  0.
        254    2    1    2    0    0  0.39697209813E+03  0.53296284447E+03  0.13146261467E+04  0.17465063919E+04  0.93829975551E+03 0.  0.
         23    2    4    4    0    0  0.32371830180E+03  0.43083920916E+03  0.14441629917E+04  0.15441705723E+04  0.91869727445E+02 0.  0.
         23    2    4    4    0    0  0.73253796326E+02  0.10212363531E+03 -0.12953684497E+03  0.20233581961E+03  0.91458373728E+02 0.  0.
          4    1    3    3  502    0 -0.14718058762E+03 -0.19177407134E+03  0.25894642376E+03  0.35424944628E+03  0.00000000000E+00 0. -1.
         -3    1    3    3    0  502 -0.24979151050E+03 -0.34118877313E+03  0.31229931236E+03  0.52567712346E+03  0.00000000000E+00 0.  1.
         13    1    5    5    0    0  0.69787587842E+02  0.49059774799E+02  0.28929009534E+03  0.30160558381E+03  0.00000000000E+00 0. -1.
        -13    1    5    5    0    0  0.25393071396E+03  0.38177943436E+03  0.11548728963E+04  0.12425649885E+04  0.00000000000E+00 0.  1.
          3    1    6    6  503    0  0.72521628519E+02  0.98000039879E+02 -0.65948146523E+02  0.13860935195E+03  0.00000000000E+00 0. -1.
         -3    1    6    6    0  503  0.73216780758E+00  0.41235954346E+01 -0.63588698451E+02  0.63726467655E+02  0.00000000000E+00 0.  1.
<mgrwt>
<rscale>  0 0.18280146E+04</rscale>
<asrwt>0</asrwt>
<pdfrwt beam="1">  1        2 0.34710036E+00 0.18280146E+04</pdfrwt>
<pdfrwt beam="2">  1       -1 0.56966238E-01 0.18280146E+04</pdfrwt>
<totfact> 0.16069325E+01</totfact>
</mgrwt>
</event>
<event>
12    7  0.1611233E-007  0.2164015E+04  0.7818608E-02  0.8533557E-01
          2   -1    0    0  501    0  0.00000000000E+00  0.00000000000E+00  0.24235990012E+04  0.24235990012E+04  0.00000000000E+00 0. -1.
         -1   -1    0    0    0  501 -0.00000000000E+00 -0.00000000000E+00 -0.48305868183E+03  0.48305868183E+03  0.00000000000E+00 0.  1.
         24    2    1    2    0    0 -0.83535108673E+02  0.63440162734E+03 -0.31515875375E+02  0.64523992998E+03  0.76796990069E+02 0.  0.
        254    2    1    2    0    0  0.83535108673E+02 -0.63440162734E+03  0.19720561948E+04  0.22614177531E+04  0.90308420395E+03 0.  0.
         23    2    4    4    0    0  0.44834969733E+03 -0.54735281134E+03  0.11586807854E+04  0.13610449763E+04  0.96383162803E+02 0.  0.
         23    2    4    4    0    0 -0.36481458866E+03 -0.87048816006E+02  0.81337540939E+03  0.90037277672E+03  0.91784530235E+02 0.  0.
          4    1    3    3  502    0 -0.46924718254E+02  0.35303956610E+03 -0.55714307546E+02  0.36047600264E+03  0.00000000000E+00 0. -1.
         -3    1    3    3    0  502 -0.36610390419E+02  0.28136206124E+03  0.24198432171E+02  0.28476392734E+03  0.00000000000E+00 0.  1.
         13    1    5    5    0    0  0.32301607632E+03 -0.41690291147E+03  0.78265881145E+03  0.94377022537E+03  0.00000000000E+00 0. -1.
        -13    1    5    5    0    0  0.12533362101E+03 -0.13044989987E+03  0.37602197392E+03  0.41727475098E+03  0.00000000000E+00 0.  1.
          2    1    6    6  503    0 -0.31377593248E+03 -0.10646715547E+03  0.68874078741E+03  0.76429998250E+03  0.00000000000E+00 0. -1.
         -2    1    6    6    0  503 -0.51038656179E+02  0.19418339467E+02  0.12463462198E+03  0.13607279423E+03  0.00000000000E+00 0.  1.
<mgrwt>
<rscale>  0 0.21640153E+04</rscale>
<asrwt>0</asrwt>
<pdfrwt beam="1">  1        2 0.37286138E+00 0.21640153E+04</pdfrwt>
<pdfrwt beam="2">  1       -1 0.74316722E-01 0.21640153E+04</pdfrwt>
<totfact> 0.73273387E+00</totfact>
</mgrwt>
</event>
<event>
12    7  0.1611233E-007  0.2886718E+04  0.7818608E-02  0.8276840E-01
         -1   -1    0    0    0  501 -0.00000000000E+00  0.00000000000E+00  0.12146403083E+04  0.12146403083E+04  0.00000000000E+00 0.  1.
          2   -1    0    0  501    0  0.00000000000E+00 -0.00000000000E+00 -0.17151458040E+04  0.17151458040E+04  0.00000000000E+00 0. -1.
         24    2    1    2    0    0  0.37636718187E+03 -0.11675190088E+04  0.21357204373E+03  0.12476312954E+04  0.78853913891E+02 0.  0.
        254    2    1    2    0    0 -0.37636718187E+03  0.11675190088E+04 -0.71407753946E+03  0.16821548170E+04  0.90276530963E+03 0.  0.
         23    2    4    4    0    0 -0.62822336248E+03  0.10078201270E+04 -0.67684473607E+03  0.13695796032E+04  0.85226117976E+02 0.  0.
         23    2    4    4    0    0  0.25185618061E+03  0.15969888184E+03 -0.37232803384E+02  0.31257521376E+03  0.85916901917E+02 0.  0.
          2    1    3    3  502    0  0.75264440083E+01 -0.67113840969E+02  0.24017212414E+02  0.71678040578E+02  0.00000000000E+00 0. -1.
         -3    1    3    3    0  502  0.36884073786E+03 -0.11004051679E+04  0.18955483132E+03  0.11759532548E+04  0.00000000000E+00 0.  1.
         13    1    5    5    0    0 -0.78329192434E+02  0.18229426321E+03 -0.12490295572E+03  0.23445129373E+03  0.00000000000E+00 0. -1.
        -13    1    5    5    0    0 -0.54989417005E+03  0.82552586380E+03 -0.55194178035E+03  0.11351283095E+04  0.00000000000E+00 0.  1.
          1    1    6    6  503    0  0.18933774044E+03  0.11760075780E+03  0.10887152609E+02  0.22315297058E+03  0.00000000000E+00 0. -1.
         -1    1    6    6    0  503  0.62518440178E+02  0.42098124042E+02 -0.48119955992E+02  0.89422243177E+02  0.00000000000E+00 0.  1.
<mgrwt>
<rscale>  0 0.28867180E+04</rscale>
<asrwt>0</asrwt>
<pdfrwt beam="1">  1        2 0.26386858E+00 0.28867180E+04</pdfrwt>
<pdfrwt beam="2">  1       -1 0.18686774E+00 0.28867180E+04</pdfrwt>
<totfact> 0.17586584E+00</totfact>
</mgrwt>
</event>
<event>
12    7  0.1611233E-007  0.1884880E+04  0.7818608E-02  0.8662420E-01
         -1   -1    0    0    0  501 -0.00000000000E+00  0.00000000000E+00  0.65102123483E+03  0.65102123483E+03  0.00000000000E+00 0.  1.
          2   -1    0    0  501    0  0.00000000000E+00 -0.00000000000E+00 -0.13643070352E+04  0.13643070352E+04  0.00000000000E+00 0. -1.
         24    2    1    2    0    0  0.44100776864E+03 -0.40452929710E+03  0.16001502440E+03  0.62455557258E+03  0.79580468659E+02 0.  0.
        254    2    1    2    0    0 -0.44100776864E+03  0.40452929710E+03 -0.87330082472E+03  0.13907726974E+04  0.90192159368E+03 0.  0.
         23    2    4    4    0    0 -0.15089560080E+03  0.56746484567E+03 -0.86030896750E+03  0.10457531741E+04  0.93179118909E+02 0.  0.
         23    2    4    4    0    0 -0.29011216784E+03 -0.16293554857E+03 -0.12991857228E+02  0.34501952328E+03  0.90314008745E+02 0.  0.
          2    1    3    3  502    0  0.28463286458E+03 -0.30441774283E+03  0.91812009172E+02  0.42674989722E+03  0.00000000000E+00 0. -1.
         -1    1    3    3    0  502  0.15637490406E+03 -0.10011155427E+03  0.68203015230E+02  0.19780567536E+03  0.00000000000E+00 0.  1.
         13    1    5    5    0    0 -0.93972876826E+02  0.42735690336E+03 -0.69882193137E+03  0.82451010679E+03  0.00000000000E+00 0. -1.
        -13    1    5    5    0    0 -0.56922723978E+02  0.14010794231E+03 -0.16148703612E+03  0.22124306733E+03  0.00000000000E+00 0.  1.
          3    1    6    6  503    0 -0.25087405785E+03 -0.15568473778E+03  0.16013341002E+02  0.29568895409E+03  0.00000000000E+00 0. -1.
         -3    1    6    6    0  503 -0.39238109987E+02 -0.72508107899E+01 -0.29005198230E+02  0.49330569192E+02  0.00000000000E+00 0.  1.
<mgrwt>
<rscale>  0 0.18848797E+04</rscale>
<asrwt>0</asrwt>
<pdfrwt beam="1">  1        2 0.20989339E+00 0.18848797E+04</pdfrwt>
<pdfrwt beam="2">  1       -1 0.10015711E+00 0.18848797E+04</pdfrwt>
<totfact> 0.15398955E+01</totfact>
</mgrwt>
</event>
<event>
12    7  0.1611233E-007  0.1538563E+04  0.7818608E-02  0.8859207E-01
         -1   -1    0    0    0  501 -0.00000000000E+00  0.00000000000E+00  0.57928336446E+03  0.57928336446E+03  0.00000000000E+00 0.  1.
          2   -1    0    0  501    0  0.00000000000E+00 -0.00000000000E+00 -0.10215962440E+04  0.10215962440E+04  0.00000000000E+00 0. -1.
         24    2    1    2    0    0 -0.62710974898E+02  0.34247820079E+03 -0.53022849055E+03  0.63898713997E+03  0.77060550593E+02 0.  0.
        254    2    1    2    0    0  0.62710974898E+02 -0.34247820079E+03  0.87915610998E+02  0.96189246851E+03  0.89234745583E+03 0.  0.
         23    2    4    4    0    0 -0.18951719351E+03 -0.55370312742E+03 -0.47531438029E+02  0.59405277002E+03  0.90197206271E+02 0.  0.
         23    2    4    4    0    0  0.25222816840E+03  0.21122492663E+03  0.13544704903E+03  0.36783969849E+03  0.93408362192E+02 0.  0.
          2    1    3    3  502    0 -0.38805350362E+02  0.20648977294E+03 -0.24980505117E+03  0.32641452960E+03  0.00000000000E+00 0. -1.
         -1    1    3    3    0  502 -0.23905624536E+02  0.13598842785E+03 -0.28042343938E+03  0.31257261036E+03  0.00000000000E+00 0.  1.
         13    1    5    5    0    0  0.10655187488E+01 -0.11503931878E+02  0.11511298548E+02  0.16309070271E+02  0.00000000000E+00 0.  1.
        -13    1    5    5    0    0 -0.19058271225E+03 -0.54219919555E+03 -0.59042736577E+02  0.57774369975E+03  0.00000000000E+00 0. -1.
          4    1    6    6  503    0  0.25510231575E+03  0.19951186119E+03  0.14255336397E+03  0.35384125796E+03  0.00000000000E+00 0. -1.
         -4    1    6    6    0  503 -0.28741473457E+01  0.11713065443E+02 -0.71063149479E+01  0.13998440527E+02  0.00000000000E+00 0.  1.
<mgrwt>
<rscale>  0 0.15385626E+04</rscale>
<asrwt>0</asrwt>
<pdfrwt beam="1">  1        2 0.15716865E+00 0.15385626E+04</pdfrwt>
<pdfrwt beam="2">  1       -1 0.89120518E-01 0.15385626E+04</pdfrwt>
<totfact> 0.33110164E+01</totfact>
</mgrwt>
</event>
<event>
12    7  0.1611233E-007  0.1548035E+04  0.7818608E-02  0.8853124E-01
          2   -1    0    0  501    0  0.00000000000E+00  0.00000000000E+00  0.10145115363E+04  0.10145115363E+04  0.00000000000E+00 0. -1.
         -1   -1    0    0    0  501 -0.00000000000E+00 -0.00000000000E+00 -0.59053331660E+03  0.59053331660E+03  0.00000000000E+00 0.  1.
         24    2    1    2    0    0 -0.34152430227E+03  0.11241627738E+03  0.49952644686E+03  0.62059107529E+03  0.79563453628E+02 0.  0.
        254    2    1    2    0    0  0.34152430227E+03 -0.11241627738E+03 -0.75548227111E+02  0.98445377766E+03  0.91332657755E+03 0.  0.
         23    2    4    4    0    0  0.17661405070E+03 -0.40057152147E+03 -0.33147122259E+03  0.55598108487E+03  0.87130526256E+02 0.  0.
         23    2    4    4    0    0  0.16491025157E+03  0.28815524409E+03  0.25592299548E+03  0.42847269279E+03  0.88676000583E+02 0.  0.
          2    1    3    3  502    0 -0.18232304475E+03  0.98952827594E+02  0.25897056855E+03  0.33181185951E+03  0.00000000000E+00 0. -1.
         -1    1    3    3    0  502 -0.15920125752E+03  0.13463449784E+02  0.24055587831E+03  0.28877921578E+03  0.00000000000E+00 0.  1.
         13    1    5    5    0    0  0.50068627039E+02 -0.17020445236E+03 -0.17945637656E+03  0.25235097405E+03  0.00000000000E+00 0. -1.
        -13    1    5    5    0    0  0.12654542366E+03 -0.23036706911E+03 -0.15201484604E+03  0.30363011082E+03  0.00000000000E+00 0.  1.
          1    1    6    6  503    0  0.17515900409E+03  0.27996976445E+03  0.24929097370E+03  0.41377498147E+03  0.00000000000E+00 0. -1.
         -1    1    6    6    0  503 -0.10248752520E+02  0.81854796401E+01  0.66320217822E+01  0.14697711321E+02  0.00000000000E+00 0.  1.
<mgrwt>
<rscale>  0 0.15480347E+04</rscale>
<asrwt>0</asrwt>
<pdfrwt beam="1">  1        2 0.15607870E+00 0.15480347E+04</pdfrwt>
<pdfrwt beam="2">  1       -1 0.90851280E-01 0.15480347E+04</pdfrwt>
<totfact> 0.32042307E+01</totfact>
</mgrwt>
</event>
<event>
12    7  0.1611233E-007  0.1438305E+04  0.7818608E-02  0.8926549E-01
          2   -1    0    0  501    0  0.00000000000E+00  0.00000000000E+00  0.75987936240E+03  0.75987936240E+03  0.00000000000E+00 0. -1.
         -1   -1    0    0    0  501 -0.00000000000E+00 -0.00000000000E+00 -0.68060816063E+03  0.68060816063E+03  0.00000000000E+00 0.  1.
         24    2    1    2    0    0 -0.38166298387E+03 -0.17707654731E+03  0.22204909320E+02  0.42885621848E+03  0.80011632082E+02 0.  0.
        254    2    1    2    0    0  0.38166298387E+03  0.17707654731E+03  0.57066292443E+02  0.10116313045E+04  0.91821489736E+03 0.  0.
         23    2    4    4    0    0  0.33381938702E+03 -0.81018092109E+02 -0.36281497995E+03  0.50783652856E+03  0.90906081525E+02 0.  0.
         23    2    4    4    0    0  0.47843596850E+02  0.25809463942E+03  0.41988127240E+03  0.50379477599E+03  0.92774138347E+02 0.  0.
          2    1    3    3  502    0 -0.31894329212E+03 -0.17511619321E+03  0.32353050179E+02  0.36529060290E+03  0.00000000000E+00 0. -1.
         -1    1    3    3    0  502 -0.62719691753E+02 -0.19603541067E+01 -0.10148140858E+02  0.63565615585E+02  0.00000000000E+00 0.  1.
         13    1    5    5    0    0  0.12968569207E+03 -0.29988466422E+02 -0.79881511603E+02  0.15523769755E+03  0.00000000000E+00 0. -1.
        -13    1    5    5    0    0  0.20413369495E+03 -0.51029625687E+02 -0.28293346835E+03  0.35259883101E+03  0.00000000000E+00 0.  1.
          1    1    6    6  503    0 -0.23615097580E+02  0.38102065257E+02  0.94301602071E+02  0.10441375563E+03  0.00000000000E+00 0. -1.
         -1    1    6    6    0  503  0.71458694430E+02  0.21999257416E+03  0.32557967033E+03  0.39938102036E+03  0.00000000000E+00 0.  1.
<mgrwt>
<rscale>  0 0.14383047E+04</rscale>
<asrwt>0</asrwt>
<pdfrwt beam="1">  1        2 0.11690452E+00 0.14383047E+04</pdfrwt>
<pdfrwt beam="2">  1       -1 0.10470895E+00 0.14383047E+04</pdfrwt>
<totfact> 0.35026677E+01</totfact>
</mgrwt>
</event>
<event>
12    7  0.1611233E-007  0.1595105E+04  0.7818608E-02  0.8823561E-01
         -1   -1    0    0    0  501 -0.00000000000E+00  0.00000000000E+00  0.51014296409E+03  0.51014296409E+03  0.00000000000E+00 0.  1.
          2   -1    0    0  501    0  0.00000000000E+00 -0.00000000000E+00 -0.12468862167E+04  0.12468862167E+04  0.00000000000E+00 0. -1.
         24    2    1    2    0    0 -0.28805018160E+03  0.40955931981E+03 -0.46906302236E+03  0.69075248163E+03  0.80044539885E+02 0.  0.
        254    2    1    2    0    0  0.28805018160E+03 -0.40955931981E+03 -0.26768023021E+03  0.10662766991E+04  0.90254171643E+03 0.  0.
         23    2    4    4    0    0  0.15112177223E+03 -0.57274405205E+03  0.12247956168E+03  0.61295355347E+03  0.99183045315E+02 0.  0.
         23    2    4    4    0    0  0.13692840937E+03  0.16318473224E+03 -0.39015979189E+03  0.45332314567E+03  0.88873871645E+02 0.  0.
          2    1    3    3  502    0 -0.14974846425E+03  0.28002296619E+03 -0.29023098403E+03  0.43019935870E+03  0.00000000000E+00 0. -1.
         -1    1    3    3    0  502 -0.13830171735E+03  0.12953635362E+03 -0.17883203833E+03  0.26055312293E+03  0.00000000000E+00 0.  1.
         13    1    5    5    0    0  0.92232337806E+02 -0.45209071145E+03  0.12719103924E+03  0.47861297097E+03  0.00000000000E+00 0. -1.
        -13    1    5    5    0    0  0.58889434427E+02 -0.12065334060E+03 -0.47114775645E+01  0.13434058250E+03  0.00000000000E+00 0.  1.
          3    1    6    6  503    0  0.85620727389E+02  0.50078169057E+02 -0.23132790636E+03  0.25169690549E+03  0.00000000000E+00 0. -1.
         -3    1    6    6    0  503  0.51307681978E+02  0.11310656318E+03 -0.15883188553E+03  0.20162624017E+03  0.00000000000E+00 0.  1.
<mgrwt>
<rscale>  0 0.15951053E+04</rscale>
<asrwt>0</asrwt>
<pdfrwt beam="1">  1        2 0.19182865E+00 0.15951053E+04</pdfrwt>
<pdfrwt beam="2">  1       -1 0.78483534E-01 0.15951053E+04</pdfrwt>
<totfact> 0.31566915E+01</totfact>
</mgrwt>
</event>
<event>
12    7  0.1611233E-007  0.2801079E+04  0.7818608E-02  0.8302933E-01
          2   -1    0    0  501    0  0.00000000000E+00  0.00000000000E+00  0.30954941870E+04  0.30954941870E+04  0.00000000000E+00 0. -1.
         -1   -1    0    0    0  501 -0.00000000000E+00 -0.00000000000E+00 -0.63366663591E+03  0.63366663591E+03  0.00000000000E+00 0.  1.
         24    2    1    2    0    0 -0.87233601158E+03  0.32761258568E+03 -0.17780743634E+02  0.93528010144E+03  0.78310854357E+02 0.  0.
        254    2    1    2    0    0  0.87233601158E+03 -0.32761258568E+03  0.24796082947E+04  0.27938807215E+04  0.88826351223E+03 0.  0.
         23    2    4    4    0    0  0.19954215295E+03 -0.49116811453E+03  0.70794516853E+03  0.88916935885E+03  0.91501910045E+02 0.  0.
         23    2    4    4    0    0  0.67279385863E+03  0.16355552885E+03  0.17716631262E+04  0.19047113626E+04  0.98656753210E+02 0.  0.
          4    1    3    3  502    0 -0.38077221191E+01 -0.32320049398E+01  0.26366469177E+01  0.56476995880E+01  0.00000000000E+00 0. -1.
         -3    1    3    3    0  502 -0.86852828946E+03  0.33084459062E+03 -0.20417390551E+02  0.92963240185E+03  0.00000000000E+00 0.  1.
         13    1    5    5    0    0  0.10142530739E+03 -0.26520227904E+03  0.45315645792E+03  0.53476173866E+03  0.00000000000E+00 0. -1.
        -13    1    5    5    0    0  0.98116845562E+02 -0.22596583549E+03  0.25478871062E+03  0.35440762019E+03  0.00000000000E+00 0.  1.
          4    1    6    6  503    0  0.37884922394E+02 -0.13095087868E+02  0.11455783282E+03  0.12136822373E+03  0.00000000000E+00 0. -1.
         -4    1    6    6    0  503  0.63490893624E+03  0.17665061672E+03  0.16571052934E+04  0.17833431389E+04  0.00000000000E+00 0.  1.
<mgrwt>
<rscale>  0 0.28010794E+04</rscale>
<asrwt>0</asrwt>
<pdfrwt beam="1">  1        2 0.47622987E+00 0.28010794E+04</pdfrwt>
<pdfrwt beam="2">  1       -1 0.97487177E-01 0.28010794E+04</pdfrwt>
<totfact> 0.15124360E+00</totfact>
</mgrwt>
</event>
<event>
12    7  0.1611233E-007  0.2022571E+04  0.7818608E-02  0.8596140E-01
          2   -1    0    0  501    0  0.00000000000E+00  0.00000000000E+00  0.11309023218E+04  0.11309023218E+04  0.00000000000E+00 0. -1.
         -1   -1    0    0    0  501 -0.00000000000E+00 -0.00000000000E+00 -0.90432039250E+03  0.90432039250E+03  0.00000000000E+00 0.  1.
         24    2    1    2    0    0 -0.77176071805E+03 -0.16318722308E+03 -0.96675531085E+02  0.79862342591E+03  0.78794304327E+02 0.  0.
        254    2    1    2    0    0  0.77176071805E+03  0.16318722308E+03  0.32325746036E+03  0.12365992884E+04  0.89578889178E+03 0.  0.
         23    2    4    4    0    0 -0.16055819462E+03  0.89332535134E+00  0.20901626999E+03  0.27881706111E+03  0.90947350468E+02 0.  0.
         23    2    4    4    0    0  0.93231891267E+03  0.16229389773E+03  0.11424119037E+03  0.95778222727E+03  0.93476634143E+02 0.  0.
          2    1    3    3  502    0 -0.39833896431E+02 -0.17987680804E+02  0.10028262864E+02  0.44842636203E+02  0.00000000000E+00 0. -1.
         -3    1    3    3    0  502 -0.73192682162E+03 -0.14519954227E+03 -0.10670379395E+03  0.75378078970E+03  0.00000000000E+00 0.  1.
         13    1    5    5    0    0  0.32596722766E+01  0.68502667522E+01 -0.51102993717E+01  0.91469545530E+01  0.00000000000E+00 0. -1.
        -13    1    5    5    0    0 -0.16381786690E+03 -0.59569414009E+01  0.21412656936E+03  0.26967010656E+03  0.00000000000E+00 0.  1.
          2    1    6    6  503    0  0.20972188791E+03  0.20907101644E+02  0.61717087136E+02  0.21961187584E+03  0.00000000000E+00 0. -1.
         -2    1    6    6    0  503  0.72259702476E+03  0.14138679608E+03  0.52524103238E+02  0.73817035142E+03  0.00000000000E+00 0.  1.
<mgrwt>
<rscale>  0 0.20225707E+04</rscale>
<asrwt>0</asrwt>
<pdfrwt beam="1">  1        2 0.17398497E+00 0.20225707E+04</pdfrwt>
<pdfrwt beam="2">  1       -1 0.13912622E+00 0.20225707E+04</pdfrwt>
<totfact> 0.93971166E+00</totfact>
</mgrwt>
</event>
<event>
12    7  0.1611233E-007  0.2596732E+04  0.7818608E-02  0.8369312E-01
          2   -1    0    0  501    0  0.00000000000E+00  0.00000000000E+00  0.22136102648E+04  0.22136102648E+04  0.00000000000E+00 0. -1.
         -1   -1    0    0    0  501 -0.00000000000E+00 -0.00000000000E+00 -0.76154088549E+03  0.76154088549E+03  0.00000000000E+00 0.  1.
         24    2    1    2    0    0 -0.62514243206E+03  0.92312574163E+03  0.92034421511E+03  0.14478327152E+04  0.78879031779E+02 0.  0.
        254    2    1    2    0    0  0.62514243206E+03 -0.92312574163E+03  0.53172516420E+03  0.15273184351E+04  0.89833499139E+03 0.  0.
         23    2    4    4    0    0  0.20113024825E+03 -0.48019419940E+03 -0.20308006702E+03  0.56604209868E+03  0.90123792416E+02 0.  0.
         23    2    4    4    0    0  0.42401218381E+03 -0.44293154223E+03  0.73480523122E+03  0.96127633643E+03  0.90215209480E+02 0.  0.
          4    1    3    3  502    0 -0.56803962690E+03  0.85492680390E+03  0.82017023056E+03  0.13138675979E+04  0.00000000000E+00 0. -1.
         -3    1    3    3    0  502 -0.57102805163E+02  0.68198937727E+02  0.10017398455E+03  0.13396511727E+03  0.00000000000E+00 0.  1.
         13    1    5    5    0    0  0.15051771442E+03 -0.37234656303E+03 -0.19548330303E+03  0.44666684130E+03  0.00000000000E+00 0. -1.
        -13    1    5    5    0    0  0.50612533834E+02 -0.10784763637E+03 -0.75967639915E+01  0.11937525739E+03  0.00000000000E+00 0.  1.
          3    1    6    6  503    0  0.41274785296E+03 -0.40101444192E+03  0.66917695194E+03  0.88259343174E+03  0.00000000000E+00 0. -1.
         -3    1    6    6    0  503  0.11264330856E+02 -0.41917100311E+02  0.65628279288E+02  0.78682904690E+02  0.00000000000E+00 0.  1.
<mgrwt>
<rscale>  0 0.25967323E+04</rscale>
<asrwt>0</asrwt>
<pdfrwt beam="1">  1        2 0.34055542E+00 0.25967323E+04</pdfrwt>
<pdfrwt beam="2">  1       -1 0.11716014E+00 0.25967323E+04</pdfrwt>
<totfact> 0.33506063E+00</totfact>
</mgrwt>
</event>
<event>
12    7  0.1611233E-007  0.1221736E+04  0.7818608E-02  0.9094041E-01
          2   -1    0    0  501    0  0.00000000000E+00  0.00000000000E+00  0.97846619334E+03  0.97846619334E+03  0.00000000000E+00 0. -1.
         -1   -1    0    0    0  501 -0.00000000000E+00 -0.00000000000E+00 -0.38137237011E+03  0.38137237011E+03  0.00000000000E+00 0.  1.
         24    2    1    2    0    0  0.94397416588E+02  0.12954996884E+03 -0.10113177052E+03  0.20917561098E+03  0.88502737452E+02 0.  0.
        254    2    1    2    0    0 -0.94397416588E+02 -0.12954996884E+03  0.69822559375E+03  0.11506629525E+04  0.90045110014E+03 0.  0.
         23    2    4    4    0    0  0.21517455112E+03 -0.13895666473E+03  0.77225789246E+03  0.81924556794E+03  0.95770590489E+02 0.  0.
         23    2    4    4    0    0 -0.30957196770E+03  0.94066958941E+01 -0.74032298709E+02  0.33141738453E+03  0.91833612599E+02 0.  0.
          4    1    3    3  502    0  0.13161006424E+02  0.73669662984E+02 -0.11099024359E+02  0.75654607764E+02  0.00000000000E+00 0. -1.
         -3    1    3    3    0  502  0.81236410163E+02  0.55880305853E+02 -0.90032746162E+02  0.13352100322E+03  0.00000000000E+00 0.  1.
         13    1    5    5    0    0 -0.63675221435E+01  0.10884294306E+00  0.62474188597E+02  0.62797941256E+02  0.00000000000E+00 0. -1.
        -13    1    5    5    0    0  0.22154207326E+03 -0.13906550767E+03  0.70978370386E+03  0.75644762669E+03  0.00000000000E+00 0.  1.
          4    1    6    6  503    0 -0.13900715217E+03 -0.38886002850E+02 -0.17769341766E+02  0.14543334927E+03  0.00000000000E+00 0. -1.
         -4    1    6    6    0  503 -0.17056481553E+03  0.48292698744E+02 -0.56262956943E+02  0.18598403527E+03  0.00000000000E+00 0.  1.
<mgrwt>
<rscale>  0 0.12217364E+04</rscale>
<asrwt>0</asrwt>
<pdfrwt beam="1">  1        2 0.15053326E+00 0.12217364E+04</pdfrwt>
<pdfrwt beam="2">  1       -1 0.58672673E-01 0.12217364E+04</pdfrwt>
<totfact> 0.86070158E+01</totfact>
</mgrwt>
</event>
<event>
12    7  0.1611233E-007  0.1785599E+04  0.7818608E-02  0.8713995E-01
         -1   -1    0    0    0  501 -0.00000000000E+00  0.00000000000E+00  0.74994717622E+03  0.74994717622E+03  0.00000000000E+00 0.  1.
          2   -1    0    0  501    0  0.00000000000E+00 -0.00000000000E+00 -0.10628628289E+04  0.10628628289E+04  0.00000000000E+00 0. -1.
         24    2    1    2    0    0  0.28093754561E+03  0.56695986296E+03  0.83889010374E+02  0.64335029414E+03  0.80578186648E+02 0.  0.
        254    2    1    2    0    0 -0.28093754561E+03 -0.56695986296E+03 -0.39680466307E+03  0.11694597110E+04  0.89989592969E+03 0.  0.
         23    2    4    4    0    0  0.22359753741E+03 -0.23001809588E+03  0.13223415026E+03  0.35918646483E+03  0.92870139741E+02 0.  0.
         23    2    4    4    0    0 -0.50453508301E+03 -0.33694176708E+03 -0.52903881333E+03  0.81027324617E+03  0.92602716211E+02 0.  0.
          2    1    3    3  502    0  0.60804628655E+02  0.70244533115E+02 -0.39337178039E+01  0.92989093093E+02  0.00000000000E+00 0. -1.
         -1    1    3    3    0  502  0.22013291695E+03  0.49671532985E+03  0.87822728178E+02  0.55036120105E+03  0.00000000000E+00 0.  1.
         13    1    5    5    0    0  0.21447832596E+03 -0.22612935194E+03  0.14440064108E+03  0.34349233071E+03  0.00000000000E+00 0. -1.
        -13    1    5    5    0    0  0.91192114434E+01 -0.38887439448E+01 -0.12166490819E+02  0.15694134117E+02  0.00000000000E+00 0.  1.
          3    1    6    6  503    0 -0.48550563704E+03 -0.30085473804E+03 -0.47700340075E+03  0.74415155803E+03  0.00000000000E+00 0. -1.
         -3    1    6    6    0  503 -0.19029445975E+02 -0.36087029042E+02 -0.52035412584E+02  0.66121688137E+02  0.00000000000E+00 0.  1.
<mgrwt>
<rscale>  0 0.17855990E+04</rscale>
<asrwt>0</asrwt>
<pdfrwt beam="1">  1        2 0.16351736E+00 0.17855990E+04</pdfrwt>
<pdfrwt beam="2">  1       -1 0.11537649E+00 0.17855990E+04</pdfrwt>
<totfact> 0.16872504E+01</totfact>
</mgrwt>
</event>
<event>
12    7  0.1611233E-007  0.1994458E+04  0.7818608E-02  0.8609216E-01
          2   -1    0    0  501    0  0.00000000000E+00  0.00000000000E+00  0.13737050842E+04  0.13737050842E+04  0.00000000000E+00 0. -1.
         -1   -1    0    0    0  501 -0.00000000000E+00 -0.00000000000E+00 -0.72392960822E+03  0.72392960822E+03  0.00000000000E+00 0.  1.
         24    2    1    2    0    0  0.77728794771E+03  0.17795493167E+03  0.41715325509E+03  0.90349214732E+03  0.80229113677E+02 0.  0.
        254    2    1    2    0    0 -0.77728794771E+03 -0.17795493167E+03  0.23262222087E+03  0.11941425451E+04  0.85791538566E+03 0.  0.
         23    2    4    4    0    0 -0.65257241376E+03 -0.25944035982E+03 -0.19279947983E+03  0.73425316188E+03  0.93787050316E+02 0.  0.
         23    2    4    4    0    0 -0.12471553395E+03  0.81485428153E+02  0.42542170070E+03  0.45988938319E+03  0.91218320191E+02 0.  0.
          4    1    3    3  502    0  0.43643673766E+03  0.10382248844E+03  0.18975407096E+03  0.48709623539E+03  0.00000000000E+00 0. -1.
         -3    1    3    3    0  502  0.34085121005E+03  0.74132443225E+02  0.22739918413E+03  0.41639591193E+03  0.00000000000E+00 0.  1.
         13    1    5    5    0    0 -0.34998578776E+03 -0.18234148696E+03 -0.83115594591E+02  0.40329477007E+03  0.00000000000E+00 0. -1.
        -13    1    5    5    0    0 -0.30258662600E+03 -0.77098872860E+02 -0.10968388524E+03  0.33095839181E+03  0.00000000000E+00 0.  1.
          3    1    6    6  503    0  0.19563338385E+01 -0.10364965239E+02  0.57834804324E+01  0.12029480139E+02  0.00000000000E+00 0. -1.
         -3    1    6    6    0  503 -0.12667186779E+03  0.91850393393E+02  0.41963822026E+03  0.44785990305E+03  0.00000000000E+00 0.  1.
<mgrwt>
<rscale>  0 0.19944581E+04</rscale>
<asrwt>0</asrwt>
<pdfrwt beam="1">  1        2 0.21133924E+00 0.19944581E+04</pdfrwt>
<pdfrwt beam="2">  1       -1 0.11137379E+00 0.19944581E+04</pdfrwt>
<totfact> 0.11761855E+01</totfact>
</mgrwt>
</event>
<event>
12    7  0.1611233E-007  0.1888404E+04  0.7818608E-02  0.8660650E-01
          2   -1    0    0  501    0  0.00000000000E+00  0.00000000000E+00  0.91912930195E+03  0.91912930195E+03  0.00000000000E+00 0. -1.
         -1   -1    0    0    0  501 -0.00000000000E+00 -0.00000000000E+00 -0.96995884794E+03  0.96995884794E+03  0.00000000000E+00 0.  1.
         24    2    1    2    0    0 -0.20173339224E+03 -0.65308797148E+03 -0.26487872125E+03  0.73741519798E+03  0.80001107478E+02 0.  0.
        254    2    1    2    0    0  0.20173339224E+03  0.65308797148E+03  0.21404917526E+03  0.11516729519E+04  0.90183883189E+03 0.  0.
         23    2    4    4    0    0 -0.14669371378E+03  0.51033899572E+03  0.44656815331E+03  0.69989245101E+03  0.91985820780E+02 0.  0.
         23    2    4    4    0    0  0.34842710602E+03  0.14274897577E+03 -0.23251897805E+03  0.45178050090E+03  0.90894595833E+02 0.  0.
          2    1    3    3  502    0 -0.20429014345E+02 -0.18618486745E+03 -0.69057056547E+02  0.19962721897E+03  0.00000000000E+00 0. -1.
         -1    1    3    3    0  502 -0.18130437790E+03 -0.46690310404E+03 -0.19582166470E+03  0.53778797901E+03  0.00000000000E+00 0.  1.
         13    1    5    5    0    0 -0.33470887322E+02  0.28759738003E+02  0.39773076616E+02  0.59408084060E+02  0.00000000000E+00 0. -1.
        -13    1    5    5    0    0 -0.11322282645E+03  0.48157925771E+03  0.40679507669E+03  0.64048436695E+03  0.00000000000E+00 0.  1.
          4    1    6    6  503    0  0.15010026723E+02  0.31979067488E+02 -0.13796955411E+02  0.37925158381E+02  0.00000000000E+00 0. -1.
         -4    1    6    6    0  503  0.33341707929E+03  0.11076990828E+03 -0.21872202264E+03  0.41385534252E+03  0.00000000000E+00 0.  1.
<mgrwt>
<rscale>  0 0.18884042E+04</rscale>
<asrwt>0</asrwt>
<pdfrwt beam="1">  1        2 0.14140451E+00 0.18884042E+04</pdfrwt>
<pdfrwt beam="2">  1       -1 0.14922444E+00 0.18884042E+04</pdfrwt>
<totfact> 0.10772876E+01</totfact>
</mgrwt>
</event>
<event>
12    7  0.1611233E-007  0.1767298E+04  0.7818608E-02  0.8723886E-01
         -3   -1    0    0    0  501 -0.00000000000E+00  0.00000000000E+00  0.27351588385E+03  0.27351588385E+03  0.00000000000E+00 0.  1.
          2   -1    0    0  501    0  0.00000000000E+00 -0.00000000000E+00 -0.28548087034E+04  0.28548087034E+04  0.00000000000E+00 0. -1.
         24    2    1    2    0    0 -0.28909556616E+02 -0.15227358679E+03 -0.20224355797E+04  0.20300122487E+04  0.81737676580E+02 0.  0.
        254    2    1    2    0    0  0.28909556616E+02  0.15227358679E+03 -0.55885723977E+03  0.10983123386E+04  0.93270872779E+03 0.  0.
         23    2    4    4    0    0  0.28581584298E+01  0.27820963632E+03 -0.77606000335E+03  0.82978460845E+03  0.94151987810E+02 0.  0.
         23    2    4    4    0    0  0.26051398186E+02 -0.12593604953E+03  0.21720276359E+03  0.26852773011E+03  0.91605335051E+02 0.  0.
          2    1    3    3  502    0 -0.56176236090E+02 -0.11566452920E+03 -0.15822034842E+04  0.15874198935E+04  0.00000000000E+00 0. -1.
         -1    1    3    3    0  502  0.27266679474E+02 -0.36609057582E+02 -0.44023209552E+03  0.44259235515E+03  0.00000000000E+00 0.  1.
         13    1    5    5    0    0 -0.34969623416E+02  0.73839060124E+02 -0.28674835975E+03  0.29816053257E+03  0.00000000000E+00 0.  1.
        -13    1    5    5    0    0  0.37827781846E+02  0.20437057619E+03 -0.48931164360E+03  0.53162407588E+03  0.00000000000E+00 0. -1.
          4    1    6    6  503    0 -0.79846671931E+01 -0.11709005600E+03  0.13358983608E+03  0.17782035999E+03  0.00000000000E+00 0. -1.
         -4    1    6    6    0  503  0.34036065379E+02 -0.88459935365E+01  0.83612927503E+02  0.90707370118E+02  0.00000000000E+00 0.  1.
<mgrwt>
<rscale>  0 0.17672980E+04</rscale>
<asrwt>0</asrwt>
<pdfrwt beam="1">  1        2 0.43920138E+00 0.17672980E+04</pdfrwt>
<pdfrwt beam="2">  1       -3 0.42079363E-01 0.17672980E+04</pdfrwt>
<totfact> 0.73882253E+00</totfact>
</mgrwt>
</event>
<event>
12    7  0.1611233E-007  0.1773492E+04  0.7818608E-02  0.8720525E-01
         -1   -1    0    0    0  501 -0.00000000000E+00  0.00000000000E+00  0.22883072228E+04  0.22883072228E+04  0.00000000000E+00 0.  1.
          2   -1    0    0  501    0  0.00000000000E+00 -0.00000000000E+00 -0.34362446769E+03  0.34362446769E+03  0.00000000000E+00 0. -1.
         24    2    1    2    0    0  0.26149605590E+02  0.51497405239E+03  0.13260091322E+04  0.14249530844E+04  0.79429197445E+02 0.  0.
        254    2    1    2    0    0 -0.26149605590E+02 -0.51497405239E+03  0.61867362288E+03  0.12069786061E+04  0.89897621072E+03 0.  0.
         23    2    4    4    0    0 -0.28313943837E+03 -0.31754522624E+03  0.73272447110E+03  0.85219410749E+03  0.91360462036E+02 0.  0.
         23    2    4    4    0    0  0.25698983278E+03 -0.19742882615E+03 -0.11405084823E+03  0.35478449861E+03  0.88558054008E+02 0.  0.
          2    1    3    3  502    0  0.68309102345E+01  0.29931327832E+02  0.40330091934E+02  0.50685915557E+02  0.00000000000E+00 0. -1.
         -1    1    3    3    0  502  0.19318695355E+02  0.48504272455E+03  0.12856790403E+04  0.13742671688E+04  0.00000000000E+00 0.  1.
         13    1    5    5    0    0 -0.16820959311E+03 -0.24972976108E+03  0.48667174390E+03  0.57228385186E+03  0.00000000000E+00 0.  1.
        -13    1    5    5    0    0 -0.11492984526E+03 -0.67815465154E+02  0.24605272720E+03  0.27991025564E+03  0.00000000000E+00 0. -1.
          2    1    6    6  503    0  0.26405086504E+03 -0.19547734998E+03 -0.11030445887E+03  0.34655638406E+03  0.00000000000E+00 0.  1.
         -2    1    6    6    0  503 -0.70610322653E+01 -0.19514761642E+01 -0.37463893591E+01  0.82281145532E+01  0.00000000000E+00 0. -1.
<mgrwt>
<rscale>  0 0.17734919E+04</rscale>
<asrwt>0</asrwt>
<pdfrwt beam="1">  1        2 0.52865304E-01 0.17734919E+04</pdfrwt>
<pdfrwt beam="2">  1       -1 0.35204725E+00 0.17734919E+04</pdfrwt>
<totfact> 0.15415076E+00</totfact>
</mgrwt>
</event>
<event>
12    7  0.1611233E-007  0.1473708E+04  0.7818608E-02  0.8902127E-01
          2   -1    0    0  501    0  0.00000000000E+00  0.00000000000E+00  0.22585712280E+04  0.22585712280E+04  0.00000000000E+00 0. -1.
         -1   -1    0    0    0  501 -0.00000000000E+00 -0.00000000000E+00 -0.24039718463E+03  0.24039718463E+03  0.00000000000E+00 0.  1.
         24    2    1    2    0    0  0.41458472420E+02  0.44250742333E+03  0.46927977982E+03  0.65135815338E+03  0.80698869828E+02 0.  0.
        254    2    1    2    0    0 -0.41458472420E+02 -0.44250742333E+03  0.15488942635E+04  0.18476102592E+04  0.90391294149E+03 0.  0.
         23    2    4    4    0    0  0.27861287829E+03 -0.52154752326E+03  0.63780245180E+03  0.87444897325E+03  0.90730834447E+02 0.  0.
         23    2    4    4    0    0 -0.32007135071E+03  0.79040099935E+02  0.91109181173E+03  0.97316128599E+03  0.90893301152E+02 0.  0.
          4    1    3    3  502    0  0.19050129629E+02  0.55829555502E+02  0.10059074723E+03  0.11661194251E+03  0.00000000000E+00 0. -1.
         -3    1    3    3    0  502  0.22408342790E+02  0.38667786783E+03  0.36868903258E+03  0.53474621087E+03  0.00000000000E+00 0.  1.
         13    1    5    5    0    0  0.22807256841E+03 -0.38395068403E+03  0.52654283395E+03  0.69042203051E+03  0.00000000000E+00 0.  1.
        -13    1    5    5    0    0  0.50540309883E+02 -0.13759683923E+03  0.11125961785E+03  0.18402694274E+03  0.00000000000E+00 0. -1.
          4    1    6    6  503    0 -0.11818053408E+03  0.72878138110E+02  0.33242565950E+03  0.36025640972E+03  0.00000000000E+00 0. -1.
         -4    1    6    6    0  503 -0.20189081663E+03  0.61619618259E+01  0.57866615223E+03  0.61290487627E+03  0.00000000000E+00 0.  1.
<mgrwt>
<rscale>  0 0.14737085E+04</rscale>
<asrwt>0</asrwt>
<pdfrwt beam="1">  1        2 0.34747248E+00 0.14737085E+04</pdfrwt>
<pdfrwt beam="2">  1       -1 0.36984184E-01 0.14737085E+04</pdfrwt>
<totfact> 0.37125487E+01</totfact>
</mgrwt>
</event>
<event>
12    7  0.1611233E-007  0.1434558E+04  0.7818608E-02  0.8929177E-01
          2   -1    0    0  501    0  0.00000000000E+00  0.00000000000E+00  0.85937123475E+03  0.85937123475E+03  0.00000000000E+00 0. -1.
         -1   -1    0    0    0  501 -0.00000000000E+00 -0.00000000000E+00 -0.59868052893E+03  0.59868052893E+03  0.00000000000E+00 0.  1.
         24    2    1    2    0    0 -0.22918745263E+03 -0.35469147593E+03  0.16648774543E+03  0.46054820070E+03  0.77804525919E+02 0.  0.
        254    2    1    2    0    0  0.22918745263E+03  0.35469147593E+03  0.94202960398E+02  0.99750356298E+03  0.89878041193E+03 0.  0.
         23    2    4    4    0    0  0.50469001050E+03  0.45084236102E+03  0.20910272753E+02  0.68305702335E+03  0.90326167022E+02 0.  0.
         23    2    4    4    0    0 -0.27550255788E+03 -0.96150885090E+02  0.73292687645E+02  0.31444653962E+03  0.91422951819E+02 0.  0.
          2    1    3    3  502    0 -0.22864290987E+03 -0.33117352802E+03  0.16980356518E+03  0.43679141091E+03  0.00000000000E+00 0. -1.
         -1    1    3    3    0  502 -0.54454275527E+00 -0.23517947914E+02 -0.33158197488E+01  0.23756789798E+02  0.00000000000E+00 0.  1.
         13    1    5    5    0    0  0.27316075844E+03  0.23587540182E+03 -0.33537269000E+02  0.36246207188E+03  0.00000000000E+00 0.  1.
        -13    1    5    5    0    0  0.23152925206E+03  0.21496695920E+03  0.54447541753E+02  0.32059495147E+03  0.00000000000E+00 0. -1.
          3    1    6    6  503    0 -0.21444140337E+03 -0.10499391226E+03  0.33686171991E+02  0.24112983074E+03  0.00000000000E+00 0. -1.
         -3    1    6    6    0  503 -0.61061154510E+02  0.88430271664E+01  0.39606515654E+02  0.73316708886E+02  0.00000000000E+00 0.  1.
<mgrwt>
<rscale>  0 0.14345575E+04</rscale>
<asrwt>0</asrwt>
<pdfrwt beam="1">  1        2 0.13221096E+00 0.14345575E+04</pdfrwt>
<pdfrwt beam="2">  1       -1 0.92104696E-01 0.14345575E+04</pdfrwt>
<totfact> 0.39775541E+01</totfact>
</mgrwt>
</event>
<event>
12    7  0.1611233E-007  0.1611761E+04  0.7818608E-02  0.8813355E-01
         -1   -1    0    0    0  501 -0.00000000000E+00  0.00000000000E+00  0.28609054384E+03  0.28609054384E+03  0.00000000000E+00 0.  1.
          2   -1    0    0  501    0  0.00000000000E+00 -0.00000000000E+00 -0.22700612811E+04  0.22700612811E+04  0.00000000000E+00 0. -1.
         24    2    1    2    0    0 -0.10002008295E+02 -0.46428022249E+03 -0.11493007442E+04  0.12422513080E+04  0.81485865264E+02 0.  0.
        254    2    1    2    0    0  0.10002008295E+02  0.46428022249E+03 -0.83466999305E+03  0.13139005170E+04  0.90222192731E+03 0.  0.
         23    2    4    4    0    0  0.39647836207E+03  0.45944201391E+03 -0.45068261577E+03  0.76131910152E+03  0.90608489923E+02 0.  0.
         23    2    4    4    0    0 -0.38647635377E+03  0.48382085821E+01 -0.38398737728E+03  0.55258141549E+03  0.92263397649E+02 0.  0.
          2    1    3    3  502    0  0.28835800589E+02 -0.30544688770E+03 -0.79044191551E+03  0.84789605872E+03  0.00000000000E+00 0. -1.
         -1    1    3    3    0  502 -0.38837808884E+02 -0.15883333480E+03 -0.35885882874E+03  0.39435524924E+03  0.00000000000E+00 0.  1.
         13    1    5    5    0    0  0.23663354736E+03  0.30531882503E+03 -0.33306233533E+03  0.51004464498E+03  0.00000000000E+00 0. -1.
        -13    1    5    5    0    0  0.15984481471E+03  0.15412318888E+03 -0.11762028044E+03  0.25127445654E+03  0.00000000000E+00 0.  1.
          1    1    6    6  503    0 -0.36288065321E+03 -0.30668066627E+01 -0.38308597837E+03  0.52768043416E+03  0.00000000000E+00 0. -1.
         -1    1    6    6    0  503 -0.23595700567E+02  0.79050152448E+01 -0.90139891682E+00  0.24900981331E+02  0.00000000000E+00 0.  1.
<mgrwt>
<rscale>  0 0.16117606E+04</rscale>
<asrwt>0</asrwt>
<pdfrwt beam="1">  1        2 0.34924021E+00 0.16117606E+04</pdfrwt>
<pdfrwt beam="2">  1       -1 0.44013928E-01 0.16117606E+04</pdfrwt>
<totfact> 0.26281662E+01</totfact>
</mgrwt>
</event>
<event>
12    7  0.1611233E-007  0.3404821E+04  0.7818608E-02  0.8136724E-01
          2   -1    0    0  501    0  0.00000000000E+00  0.00000000000E+00  0.22733466096E+04  0.22733466096E+04  0.00000000000E+00 0. -1.
         -1   -1    0    0    0  501 -0.00000000000E+00 -0.00000000000E+00 -0.12748614374E+04  0.12748614374E+04  0.00000000000E+00 0.  1.
         24    2    1    2    0    0 -0.14668277699E+04 -0.93011297687E+00 -0.14648358462E+03  0.14774825885E+04  0.99562981799E+02 0.  0.
        254    2    1    2    0    0  0.14668277699E+04  0.93011297687E+00  0.11449687568E+04  0.20707254584E+04  0.90849650441E+03 0.  0.
         23    2    4    4    0    0  0.86946365099E+03  0.43998906926E+03  0.64475985950E+03  0.11717648584E+04  0.88091915627E+02 0.  0.
         23    2    4    4    0    0  0.59736411887E+03 -0.43905895628E+03  0.50020889731E+03  0.89896059998E+03  0.91129368252E+02 0.  0.
          4    1    3    3  502    0 -0.28705645594E+03  0.77456745004E+01  0.10072035731E+02  0.28733751978E+03  0.00000000000E+00 0. -1.
         -3    1    3    3    0  502 -0.11797713139E+04 -0.86757874773E+01 -0.15655562035E+03  0.11901450688E+04  0.00000000000E+00 0.  1.
         13    1    5    5    0    0  0.15002480225E+03  0.11080296252E+03  0.14128154203E+03  0.23397694739E+03  0.00000000000E+00 0. -1.
        -13    1    5    5    0    0  0.71943884874E+03  0.32918610673E+03  0.50347831747E+03  0.93778791105E+03  0.00000000000E+00 0.  1.
          4    1    6    6  503    0  0.11444125761E+03 -0.49377665822E+02  0.61357164937E+02  0.13892320546E+03  0.00000000000E+00 0. -1.
         -4    1    6    6    0  503  0.48292286126E+03 -0.38968129046E+03  0.43885173237E+03  0.76003739452E+03  0.00000000000E+00 0.  1.
<mgrwt>
<rscale>  0 0.34048212E+04</rscale>
<asrwt>0</asrwt>
<pdfrwt beam="1">  1        2 0.34974563E+00 0.34048212E+04</pdfrwt>
<pdfrwt beam="2">  1       -1 0.19613253E+00 0.34048212E+04</pdfrwt>
<totfact> 0.70743749E-01</totfact>
</mgrwt>
</event>
<event>
12    7  0.1611233E-007  0.1523480E+04  0.7818608E-02  0.8868988E-01
          2   -1    0    0  501    0  0.00000000000E+00  0.00000000000E+00  0.47605463020E+03  0.47605463020E+03  0.00000000000E+00 0. -1.
         -1   -1    0    0    0  501 -0.00000000000E+00 -0.00000000000E+00 -0.12188676490E+04  0.12188676490E+04  0.00000000000E+00 0.  1.
         24    2    1    2    0    0 -0.30261738775E+03 -0.26510720339E+03  0.83054086668E+02  0.41853538190E+03  0.80092271355E+02 0.  0.
        254    2    1    2    0    0  0.30261738775E+03  0.26510720339E+03 -0.82586710550E+03  0.12763868973E+04  0.88614215738E+03 0.  0.
         23    2    4    4    0    0  0.40018581143E+03  0.10394977101E+03 -0.94492708684E+03  0.10357530125E+04  0.94566721976E+02 0.  0.
         23    2    4    4    0    0 -0.97568423675E+02  0.16115743238E+03  0.11905998134E+03  0.24063388483E+03  0.90763825743E+02 0.  0.
          2    1    3    3  502    0 -0.36032965952E+02 -0.31124678656E+01  0.11675278856E+02  0.38004923732E+02  0.00000000000E+00 0. -1.
         -1    1    3    3    0  502 -0.26658442180E+03 -0.26199473552E+03  0.71378807812E+02  0.38053045817E+03  0.00000000000E+00 0.  1.
         13    1    5    5    0    0  0.13594346741E+03  0.50019183593E+01 -0.39309786270E+03  0.41597064220E+03  0.00000000000E+00 0. -1.
        -13    1    5    5    0    0  0.26424234402E+03  0.98947852648E+02 -0.55182922414E+03  0.61978237030E+03  0.00000000000E+00 0.  1.
          3    1    6    6  503    0 -0.89234575843E+02  0.98337545959E+02  0.11739485763E+03  0.17724174189E+03  0.00000000000E+00 0.  1.
         -3    1    6    6    0  503 -0.83338478320E+01  0.62819886421E+02  0.16651237095E+01  0.63392142941E+02  0.00000000000E+00 0. -1.
<mgrwt>
<rscale>  0 0.15234797E+04</rscale>
<asrwt>0</asrwt>
<pdfrwt beam="1">  1        2 0.73239174E-01 0.15234797E+04</pdfrwt>
<pdfrwt beam="2">  1       -1 0.18751810E+00 0.15234797E+04</pdfrwt>
<totfact> 0.13222378E+01</totfact>
</mgrwt>
</event>
<event>
12    7  0.1611233E-007  0.1753648E+04  0.7818608E-02  0.8731345E-01
          2   -1    0    0  501    0  0.00000000000E+00  0.00000000000E+00  0.79875386719E+03  0.79875386719E+03  0.00000000000E+00 0. -1.
         -1   -1    0    0    0  501 -0.00000000000E+00 -0.00000000000E+00 -0.96252473997E+03  0.96252473997E+03  0.00000000000E+00 0.  1.
         24    2    1    2    0    0 -0.57505758303E+03  0.28492670368E+03 -0.10304954421E+03  0.65506401994E+03  0.81333949781E+02 0.  0.
        254    2    1    2    0    0  0.57505758303E+03 -0.28492670368E+03 -0.60721328565E+02  0.11062145872E+04  0.89897118027E+03 0.  0.
         23    2    4    4    0    0  0.19655144314E+03 -0.55017661499E+03  0.11729439884E+03  0.60277794871E+03  0.90865295791E+02 0.  0.
         23    2    4    4    0    0  0.37850613989E+03  0.26524991130E+03 -0.17801572740E+03  0.50343663851E+03  0.90191110443E+02 0.  0.
          4    1    3    3  502    0 -0.54107367371E+03  0.24663015330E+03 -0.84496630609E+02  0.60060538915E+03  0.00000000000E+00 0. -1.
         -3    1    3    3    0  502 -0.33983909324E+02  0.38296550384E+02 -0.18552913604E+02  0.54458630789E+02  0.00000000000E+00 0.  1.
         13    1    5    5    0    0  0.17327063534E+00  0.22163393649E+01 -0.35527317458E+01  0.41909528452E+01  0.00000000000E+00 0. -1.
        -13    1    5    5    0    0  0.19637817250E+03 -0.55239295435E+03  0.12084713059E+03  0.59858699587E+03  0.00000000000E+00 0.  1.
          2    1    6    6  503    0  0.15872930576E+03  0.13122184524E+03 -0.34824141326E+02  0.20887050054E+03  0.00000000000E+00 0. -1.
         -2    1    6    6    0  503  0.21977683413E+03  0.13402806606E+03 -0.14319158608E+03  0.29456613797E+03  0.00000000000E+00 0.  1.
<mgrwt>
<rscale>  0 0.17536480E+04</rscale>
<asrwt>0</asrwt>
<pdfrwt beam="1">  1        2 0.12288521E+00 0.17536480E+04</pdfrwt>
<pdfrwt beam="2">  1       -1 0.14808073E+00 0.17536480E+04</pdfrwt>
<totfact> 0.13487427E+01</totfact>
</mgrwt>
</event>
<event>
12    7  0.1611233E-007  0.1467019E+04  0.7818608E-02  0.8906686E-01
          2   -1    0    0  501    0  0.00000000000E+00  0.00000000000E+00  0.20623515640E+04  0.20623515640E+04  0.00000000000E+00 0. -1.
         -1   -1    0    0    0  501 -0.00000000000E+00 -0.00000000000E+00 -0.26088468640E+03  0.26088468640E+03  0.00000000000E+00 0.  1.
         24    2    1    2    0    0 -0.54612058496E+02  0.26722613641E+03  0.11273552947E+04  0.11631155879E+04  0.86692706206E+02 0.  0.
        254    2    1    2    0    0  0.54612058496E+02 -0.26722613641E+03  0.67411158283E+03  0.11601206625E+04  0.90391439888E+03 0.  0.
         23    2    4    4    0    0  0.17842149915E+03  0.29647021797E+03  0.21094788628E+03  0.41557440914E+03  0.92055729320E+02 0.  0.
         23    2    4    4    0    0 -0.12380944066E+03 -0.56369635438E+03  0.46316369655E+03  0.74454625335E+03  0.82134986696E+02 0.  0.
          2    1    3    3  502    0 -0.38750092440E+02  0.25016249233E+03  0.91126687817E+03  0.94577490212E+03  0.00000000000E+00 0. -1.
         -1    1    3    3    0  502 -0.15861966055E+02  0.17063644080E+02  0.21608841656E+03  0.21734068576E+03  0.00000000000E+00 0.  1.
         13    1    5    5    0    0  0.18156066346E+03  0.29192440670E+03  0.18770739533E+03  0.39168635412E+03  0.00000000000E+00 0.  1.
        -13    1    5    5    0    0 -0.31391643070E+01  0.45458112655E+01  0.23240490954E+02  0.23888055015E+02  0.00000000000E+00 0. -1.
          3    1    6    6  503    0 -0.24958854863E+02 -0.14135243094E+03  0.72560398101E+02  0.16083676676E+03  0.00000000000E+00 0. -1.
         -3    1    6    6    0  503 -0.98850585793E+02 -0.42234392344E+03  0.39060329845E+03  0.58370948659E+03  0.00000000000E+00 0.  1.
<mgrwt>
<rscale>  0 0.14670187E+04</rscale>
<asrwt>0</asrwt>
<pdfrwt beam="1">  1        2 0.31728484E+00 0.14670187E+04</pdfrwt>
<pdfrwt beam="2">  1       -1 0.40136107E-01 0.14670187E+04</pdfrwt>
<totfact> 0.41213855E+01</totfact>
</mgrwt>
</event>
<event>
12    7  0.1611233E-007  0.1360056E+04  0.7818608E-02  0.8983250E-01
          2   -1    0    0  501    0  0.00000000000E+00  0.00000000000E+00  0.20117945301E+04  0.20117945301E+04  0.00000000000E+00 0. -1.
         -1   -1    0    0    0  501 -0.00000000000E+00 -0.00000000000E+00 -0.22986356471E+03  0.22986356471E+03  0.00000000000E+00 0.  1.
         24    2    1    2    0    0 -0.35783456169E+03  0.96190233239E+02  0.57668889547E+03  0.68999809449E+03  0.78924988041E+02 0.  0.
        254    2    1    2    0    0  0.35783456169E+03 -0.96190233239E+02  0.12052420699E+04  0.15516600003E+04  0.90429097914E+03 0.  0.
         23    2    4    4    0    0  0.47871540113E+02  0.59715716612E+02 -0.12567917417E+03  0.17332941270E+03  0.91597922059E+02 0.  0.
         23    2    4    4    0    0  0.30996302157E+03 -0.15590594985E+03  0.13309212440E+04  0.13783305876E+04  0.89778120144E+02 0.  0.
          4    1    3    3  502    0 -0.21676547182E+03  0.56438281696E+02  0.41626788772E+03  0.47270657258E+03  0.00000000000E+00 0. -1.
         -3    1    3    3    0  502 -0.14106908987E+03  0.39751951543E+02  0.16042100775E+03  0.21729152191E+03  0.00000000000E+00 0.  1.
         13    1    5    5    0    0  0.44966380331E+02  0.81704965243E+02 -0.81328728381E+02  0.12374182303E+03  0.00000000000E+00 0. -1.
        -13    1    5    5    0    0  0.29051597823E+01 -0.21989248631E+02 -0.44350445784E+02  0.49587589677E+02  0.00000000000E+00 0.  1.
          3    1    6    6  503    0  0.15503579868E+03 -0.34684398728E+02  0.68133377016E+03  0.69961047216E+03  0.00000000000E+00 0. -1.
         -3    1    6    6    0  503  0.15492722289E+03 -0.12122155112E+03  0.64958747387E+03  0.67872011541E+03  0.00000000000E+00 0.  1.
<mgrwt>
<rscale>  0 0.13600563E+04</rscale>
<asrwt>0</asrwt>
<pdfrwt beam="1">  1        2 0.30950684E+00 0.13600563E+04</pdfrwt>
<pdfrwt beam="2">  1       -1 0.35363627E-01 0.13600563E+04</pdfrwt>
<totfact> 0.55778070E+01</totfact>
</mgrwt>
</event>
<event>
12    7  0.1611233E-007  0.1287754E+04  0.7818608E-02  0.9039333E-01
          2   -1    0    0  501    0  0.00000000000E+00  0.00000000000E+00  0.24839539836E+04  0.24839539836E+04  0.00000000000E+00 0. -1.
         -1   -1    0    0    0  501 -0.00000000000E+00 -0.00000000000E+00 -0.16690221237E+03  0.16690221237E+03  0.00000000000E+00 0.  1.
         24    2    1    2    0    0 -0.12605366237E+03 -0.11025152677E+03  0.29339715997E+02  0.18795114464E+03  0.80124209108E+02 0.  0.
        254    2    1    2    0    0  0.12605366237E+03  0.11025152677E+03  0.22877120552E+04  0.24629050513E+04  0.89678867034E+03 0.  0.
         23    2    4    4    0    0  0.11064989797E+03 -0.47623048069E+02 -0.15906178690E+02  0.15187036344E+03  0.91105686668E+02 0.  0.
         23    2    4    4    0    0  0.15403764396E+02  0.15787457483E+03  0.23036182339E+04  0.23110346879E+04  0.95198233310E+02 0.  0.
          2    1    3    3  502    0 -0.74201666922E+02 -0.30630942238E+02  0.44420004319E+02  0.91745728947E+02  0.00000000000E+00 0. -1.
         -1    1    3    3    0  502 -0.51851995448E+02 -0.79620584527E+02 -0.15080288322E+02  0.96205415690E+02  0.00000000000E+00 0.  1.
         13    1    5    5    0    0  0.14148745347E+02  0.19318845169E+02  0.17622782799E+02  0.29731586690E+02  0.00000000000E+00 0.  1.
        -13    1    5    5    0    0  0.96501152625E+02 -0.66941893237E+02 -0.33528961488E+02  0.12213877675E+03  0.00000000000E+00 0. -1.
          3    1    6    6  503    0  0.20382736097E+02  0.16234692153E+03  0.18123822319E+04  0.18197530968E+04  0.00000000000E+00 0. -1.
         -3    1    6    6    0  503 -0.49789717012E+01 -0.44723466994E+01  0.49123600196E+03  0.49128159101E+03  0.00000000000E+00 0.  1.
<mgrwt>
<rscale>  0 0.12877537E+04</rscale>
<asrwt>0</asrwt>
<pdfrwt beam="1">  1        2 0.38214674E+00 0.12877537E+04</pdfrwt>
<pdfrwt beam="2">  1       -1 0.25677265E-01 0.12877537E+04</pdfrwt>
<totfact> 0.53412822E+01</totfact>
</mgrwt>
</event>
<event>
12    7  0.1611233E-007  0.1402263E+04  0.7818608E-02  0.8952182E-01
          2   -1    0    0  501    0  0.00000000000E+00  0.00000000000E+00  0.19383711061E+04  0.19383711061E+04  0.00000000000E+00 0. -1.
         -1   -1    0    0    0  501 -0.00000000000E+00 -0.00000000000E+00 -0.25360746499E+03  0.25360746499E+03  0.00000000000E+00 0.  1.
         24    2    1    2    0    0  0.16344500773E+03  0.19538383633E+03  0.69201518448E+01  0.26733761730E+03  0.80823258228E+02 0.  0.
        254    2    1    2    0    0 -0.16344500773E+03 -0.19538383633E+03  0.16778434893E+04  0.19246409538E+04  0.90785181197E+03 0.  0.
         23    2    4    4    0    0 -0.66503331311E+02 -0.40969360047E+02 -0.86879858893E+02  0.14802899449E+03  0.90902650065E+02 0.  0.
         23    2    4    4    0    0 -0.96941676415E+02 -0.15441447629E+03  0.17647233482E+04  0.17766119593E+04  0.94127781725E+02 0.  0.
          4    1    3    3  502    0  0.27935277590E+02  0.53519437798E+02  0.34009143139E+02  0.69291642882E+02  0.00000000000E+00 0. -1.
         -3    1    3    3    0  502  0.13550973014E+03  0.14186439854E+03 -0.27088991294E+02  0.19804597442E+03  0.00000000000E+00 0.  1.
         13    1    5    5    0    0 -0.39690353045E+02 -0.67775118495E+02 -0.74206571020E+02  0.10805279263E+03  0.00000000000E+00 0.  1.
        -13    1    5    5    0    0 -0.26812978266E+02  0.26805758448E+02 -0.12673287873E+02  0.39976201858E+02  0.00000000000E+00 0. -1.
          4    1    6    6  503    0 -0.50199739909E+02 -0.75103274883E+02  0.46889426512E+03  0.47751685588E+03  0.00000000000E+00 0. -1.
         -4    1    6    6    0  503 -0.46741936506E+02 -0.79311201404E+02  0.12958290831E+04  0.12990951035E+04  0.00000000000E+00 0.  1.
<mgrwt>
<rscale>  0 0.14022630E+04</rscale>
<asrwt>0</asrwt>
<pdfrwt beam="1">  1        2 0.29821093E+00 0.14022630E+04</pdfrwt>
<pdfrwt beam="2">  1       -1 0.39016534E-01 0.14022630E+04</pdfrwt>
<totfact> 0.51111771E+01</totfact>
</mgrwt>
</event>
<event>
12    7  0.1611233E-007  0.1424131E+04  0.7818608E-02  0.8936534E-01
         -1   -1    0    0    0  501 -0.00000000000E+00  0.00000000000E+00  0.80763624335E+03  0.80763624335E+03  0.00000000000E+00 0.  1.
          2   -1    0    0  501    0  0.00000000000E+00 -0.00000000000E+00 -0.62780362071E+03  0.62780362071E+03  0.00000000000E+00 0. -1.
         24    2    1    2    0    0 -0.55226563004E+02 -0.98411228660E+02 -0.35358842472E+03  0.37963957894E+03  0.79791557272E+02 0.  0.
        254    2    1    2    0    0  0.55226563004E+02  0.98411228660E+02  0.53342104736E+03  0.10558002851E+04  0.90412470661E+03 0.  0.
         23    2    4    4    0    0  0.32310454489E+03  0.38336839283E+03  0.29288898292E+03  0.58768631544E+03  0.90682840111E+02 0.  0.
         23    2    4    4    0    0 -0.26787798188E+03 -0.28495716417E+03  0.24053206444E+03  0.46811396968E+03  0.91191096013E+02 0.  0.
          2    1    3    3  502    0 -0.66688265466E+02 -0.65002061094E+02 -0.30916228398E+03  0.32288374151E+03  0.00000000000E+00 0. -1.
         -1    1    3    3    0  502  0.11461702463E+02 -0.33409167565E+02 -0.44426140743E+02  0.56755837427E+02  0.00000000000E+00 0.  1.
         13    1    5    5    0    0  0.11255872565E+03  0.12035648006E+03  0.49498368336E+02  0.17206172579E+03  0.00000000000E+00 0.  1.
        -13    1    5    5    0    0  0.21054581924E+03  0.26301191277E+03  0.24339061458E+03  0.41562458965E+03  0.00000000000E+00 0. -1.
          1    1    6    6  503    0 -0.24514859426E+03 -0.24977492581E+03  0.24313807750E+03  0.42614724164E+03  0.00000000000E+00 0. -1.
         -1    1    6    6    0  503 -0.22729387623E+02 -0.35182238361E+02 -0.26060130561E+01  0.41966728033E+02  0.00000000000E+00 0.  1.
<mgrwt>
<rscale>  0 0.14241306E+04</rscale>
<asrwt>0</asrwt>
<pdfrwt beam="1">  1        2 0.96585172E-01 0.14241306E+04</pdfrwt>
<pdfrwt beam="2">  1       -1 0.12425173E+00 0.14241306E+04</pdfrwt>
<totfact> 0.29605347E+01</totfact>
</mgrwt>
</event>
<event>
12    7  0.1611233E-007  0.1747187E+04  0.7818608E-02  0.8734900E-01
          2   -1    0    0  501    0  0.00000000000E+00  0.00000000000E+00  0.11927761997E+04  0.11927761997E+04  0.00000000000E+00 0. -1.
         -1   -1    0    0    0  501 -0.00000000000E+00 -0.00000000000E+00 -0.63982260915E+03  0.63982260915E+03  0.00000000000E+00 0.  1.
         24    2    1    2    0    0  0.26211098057E+03 -0.41739424979E+03 -0.21666520884E+03  0.54432368916E+03  0.80151980482E+02 0.  0.
        254    2    1    2    0    0 -0.26211098057E+03  0.41739424979E+03  0.76961879943E+03  0.12882751197E+04  0.90797552928E+03 0.  0.
         23    2    4    4    0    0 -0.25386617351E+03  0.67996060452E+03  0.42227822697E+03  0.84473418552E+03  0.91991768448E+02 0.  0.
         23    2    4    4    0    0 -0.82448070610E+01 -0.26256635473E+03  0.34734057245E+03  0.44354093420E+03  0.84107190904E+02 0.  0.
          4    1    3    3  502    0  0.10124282444E+02 -0.41109348429E+02 -0.96015666886E-01  0.42337794490E+02  0.00000000000E+00 0. -1.
         -3    1    3    3    0  502  0.25198669812E+03 -0.37628490136E+03 -0.21656919317E+03  0.50198589467E+03  0.00000000000E+00 0.  1.
         13    1    5    5    0    0 -0.19333802646E+03  0.42513799193E+03  0.23554933601E+03  0.52307302966E+03  0.00000000000E+00 0. -1.
        -13    1    5    5    0    0 -0.60528147044E+02  0.25482261258E+03  0.18672889097E+03  0.32166115586E+03  0.00000000000E+00 0.  1.
          2    1    6    6  503    0  0.13172737126E+02 -0.19405740505E+03  0.19646010199E+03  0.27645681242E+03  0.00000000000E+00 0. -1.
         -2    1    6    6    0  503 -0.21417544187E+02 -0.68508949678E+02  0.15088047047E+03  0.16708412179E+03  0.00000000000E+00 0.  1.
<mgrwt>
<rscale>  0 0.17471865E+04</rscale>
<asrwt>0</asrwt>
<pdfrwt beam="1">  1        2 0.18350403E+00 0.17471865E+04</pdfrwt>
<pdfrwt beam="2">  1       -1 0.98434248E-01 0.17471865E+04</pdfrwt>
<totfact> 0.20436743E+01</totfact>
</mgrwt>
</event>
<event>
12    7  0.1611233E-007  0.1097617E+04  0.7818608E-02  0.9207518E-01
         -3   -1    0    0    0  501 -0.00000000000E+00  0.00000000000E+00  0.10251736756E+04  0.10251736756E+04  0.00000000000E+00 0.  1.
          2   -1    0    0  501    0  0.00000000000E+00 -0.00000000000E+00 -0.29379483625E+03  0.29379483625E+03  0.00000000000E+00 0. -1.
         24    2    1    2    0    0 -0.76026857050E+02 -0.11130387580E+03  0.10363353067E+01  0.15163156199E+03  0.69443652252E+02 0.  0.
        254    2    1    2    0    0  0.76026857050E+02  0.11130387580E+03  0.73034250407E+03  0.11673369499E+04  0.90061464875E+03 0.  0.
         23    2    4    4    0    0  0.31787769843E+03 -0.19869727387E+03  0.68889364716E+02  0.39249517354E+03  0.93701007891E+02 0.  0.
         23    2    4    4    0    0 -0.24185084138E+03  0.31000114968E+03  0.66145313935E+03  0.77484177634E+03  0.90922937259E+02 0.  0.
          2    1    3    3  502    0 -0.11263014224E+02 -0.46675956030E+01 -0.21627653739E+02  0.24827350732E+02  0.00000000000E+00 0. -1.
         -1    1    3    3    0  502 -0.64763842826E+02 -0.10663628020E+03  0.22663989046E+02  0.12680421126E+03  0.00000000000E+00 0.  1.
         13    1    5    5    0    0  0.81181739576E+02 -0.10235235510E+03  0.29445730471E+02  0.13391613225E+03  0.00000000000E+00 0. -1.
        -13    1    5    5    0    0  0.23669595886E+03 -0.96344918774E+02  0.39443634245E+02  0.25857904129E+03  0.00000000000E+00 0.  1.
          1    1    6    6  503    0 -0.16267924635E+03  0.25466090718E+03  0.54836005721E+03  0.62611138560E+03  0.00000000000E+00 0. -1.
         -1    1    6    6    0  503 -0.79171595030E+02  0.55340242500E+02  0.11309308214E+03  0.14873039074E+03  0.00000000000E+00 0.  1.
<mgrwt>
<rscale>  0 0.10976169E+04</rscale>
<asrwt>0</asrwt>
<pdfrwt beam="1">  1        2 0.45199206E-01 0.10976169E+04</pdfrwt>
<pdfrwt beam="2">  1       -3 0.15771903E+00 0.10976169E+04</pdfrwt>
<totfact> 0.19695767E+01</totfact>
</mgrwt>
</event>
<event>
12    7  0.1611233E-007  0.1262857E+04  0.7818608E-02  0.9059550E-01
         -1   -1    0    0    0  501 -0.00000000000E+00  0.00000000000E+00  0.11982542918E+03  0.11982542918E+03  0.00000000000E+00 0.  1.
          2   -1    0    0  501    0  0.00000000000E+00 -0.00000000000E+00 -0.33273549046E+04  0.33273549046E+04  0.00000000000E+00 0. -1.
         24    2    1    2    0    0 -0.61233662045E+02 -0.25060496606E+03 -0.11442493161E+04  0.11760221645E+04  0.84671267777E+02 0.  0.
        254    2    1    2    0    0  0.61233662045E+02  0.25060496606E+03 -0.20632801592E+04  0.22711581692E+04  0.91349986519E+03 0.  0.
         23    2    4    4    0    0  0.63785279481E+02 -0.43611385289E+02  0.53162674731E+02  0.13246333602E+03  0.93540101558E+02 0.  0.
         23    2    4    4    0    0 -0.25516174360E+01  0.29421635135E+03 -0.21164428340E+04  0.21386948332E+04  0.90086335908E+02 0.  0.
          4    1    3    3  502    0 -0.58978770425E+02 -0.24380105410E+03 -0.97917586415E+03  0.10107931649E+04  0.00000000000E+00 0. -1.
         -3    1    3    3    0  502 -0.22548916205E+01 -0.68039119564E+01 -0.16507345200E+03  0.16522899960E+03  0.00000000000E+00 0.  1.
         13    1    5    5    0    0  0.51555723110E+02  0.18336186321E+02  0.40465101541E+02  0.68056100072E+02  0.00000000000E+00 0. -1.
        -13    1    5    5    0    0  0.12229556371E+02 -0.61947571611E+02  0.12697573189E+02  0.64407235948E+02  0.00000000000E+00 0.  1.
          3    1    6    6  503    0 -0.99757569831E+01  0.16325026762E+03 -0.14704602361E+04  0.14795281246E+04  0.00000000000E+00 0. -1.
         -3    1    6    6    0  503  0.74241395471E+01  0.13096608373E+03 -0.64598259785E+03  0.65916670855E+03  0.00000000000E+00 0.  1.
<mgrwt>
<rscale>  0 0.12628566E+04</rscale>
<asrwt>0</asrwt>
<pdfrwt beam="1">  1        2 0.51190071E+00 0.12628566E+04</pdfrwt>
<pdfrwt beam="2">  1       -1 0.18434683E-01 0.12628566E+04</pdfrwt>
<totfact> 0.28535867E+01</totfact>
</mgrwt>
</event>
<event>
12    7  0.1611233E-007  0.2599521E+04  0.7818608E-02  0.8368364E-01
         -1   -1    0    0    0  501 -0.00000000000E+00  0.00000000000E+00  0.68863122622E+03  0.68863122622E+03  0.00000000000E+00 0.  1.
          2   -1    0    0  501    0  0.00000000000E+00 -0.00000000000E+00 -0.24532397429E+04  0.24532397429E+04  0.00000000000E+00 0. -1.
         24    2    1    2    0    0  0.20857867228E+03 -0.38587098760E+02 -0.21347450848E+04  0.21459541896E+04  0.54669737159E+02 0.  0.
        254    2    1    2    0    0 -0.20857867228E+03  0.38587098760E+02  0.37013656814E+03  0.99591677948E+03  0.89991951076E+03 0.  0.
         23    2    4    4    0    0  0.88773521100E+02 -0.27179762559E+03  0.45827033122E+03  0.54786625624E+03  0.91602679721E+02 0.  0.
         23    2    4    4    0    0 -0.29735219338E+03  0.31038472435E+03 -0.88133763082E+02  0.44805052323E+03  0.90690171246E+02 0.  0.
          2    1    3    3  502    0  0.16975097292E+03 -0.48084139653E+02 -0.18543648341E+04  0.18627389552E+04  0.00000000000E+00 0. -1.
         -1    1    3    3    0  502  0.38827699358E+02  0.94970408927E+01 -0.28038025064E+03  0.28321523436E+03  0.00000000000E+00 0.  1.
         13    1    5    5    0    0  0.61013077407E+02 -0.23309591840E+03  0.31308206434E+03  0.39506541459E+03  0.00000000000E+00 0. -1.
        -13    1    5    5    0    0  0.27760443693E+02 -0.38701707191E+02  0.14518826687E+03  0.15280084166E+03  0.00000000000E+00 0.  1.
          2    1    6    6  503    0 -0.29484781216E+03  0.28242294589E+03 -0.94905148927E+02  0.41917173091E+03  0.00000000000E+00 0. -1.
         -2    1    6    6    0  503 -0.25043812171E+01  0.27961778461E+02  0.67713858450E+01  0.28878792327E+02  0.00000000000E+00 0.  1.
<mgrwt>
<rscale>  0 0.25995211E+04</rscale>
<asrwt>0</asrwt>
<pdfrwt beam="1">  1        2 0.37742150E+00 0.25995211E+04</pdfrwt>
<pdfrwt beam="2">  1       -1 0.10594327E+00 0.25995211E+04</pdfrwt>
<totfact> 0.31067062E+00</totfact>
</mgrwt>
</event>
<event>
12    7  0.1611233E-007  0.3325427E+04  0.7818608E-02  0.8156455E-01
          2   -1    0    0  501    0  0.00000000000E+00  0.00000000000E+00  0.24691345304E+04  0.24691345304E+04  0.00000000000E+00 0. -1.
         -1   -1    0    0    0  501 -0.00000000000E+00 -0.00000000000E+00 -0.11196700399E+04  0.11196700399E+04  0.00000000000E+00 0.  1.
         24    2    1    2    0    0 -0.90277442876E+03  0.85080113905E+03 -0.37496198530E+03  0.12980629929E+04  0.74207787392E+02 0.  0.
        254    2    1    2    0    0  0.90277442876E+03 -0.85080113905E+03  0.17244264759E+04  0.22907415774E+04  0.85731327775E+03 0.  0.
         23    2    4    4    0    0  0.74883858520E+02 -0.32282124405E+03  0.10281185410E+04  0.10840252332E+04  0.90894576710E+02 0.  0.
         23    2    4    4    0    0  0.82789057024E+03 -0.52797989499E+03  0.69630793489E+03  0.12067163442E+04  0.84581494767E+02 0.  0.
          2    1    3    3  502    0 -0.57595756147E+02  0.76482476236E+02 -0.40978532974E+02  0.10414451720E+03  0.00000000000E+00 0. -1.
         -1    1    3    3    0  502 -0.84517867262E+03  0.77431866281E+03 -0.33398345233E+03  0.11939184757E+04  0.00000000000E+00 0.  1.
         13    1    5    5    0    0  0.17636278186E+02 -0.68491232005E+02  0.12063177141E+03  0.13983601626E+03  0.00000000000E+00 0. -1.
        -13    1    5    5    0    0  0.57247580334E+02 -0.25433001205E+03  0.90748676955E+03  0.94418921694E+03  0.00000000000E+00 0.  1.
          1    1    6    6  503    0  0.60108488200E+03 -0.37138196844E+03  0.54476644227E+03  0.89218724407E+03  0.00000000000E+00 0. -1.
         -1    1    6    6    0  503  0.22680568824E+03 -0.15659792656E+03  0.15154149263E+03  0.31452910010E+03  0.00000000000E+00 0.  1.
<mgrwt>
<rscale>  0 0.33254269E+04</rscale>
<asrwt>0</asrwt>
<pdfrwt beam="1">  1        2 0.37986685E+00 0.33254269E+04</pdfrwt>
<pdfrwt beam="2">  1       -1 0.17225693E+00 0.33254269E+04</pdfrwt>
<totfact> 0.81371285E-01</totfact>
</mgrwt>
</event>
<event>
12    7  0.1774297E-007  0.2144759E+04  0.7818608E-02  0.8541779E-01
          2   -1    0    0  501    0  0.00000000000E+00  0.00000000000E+00  0.21179605039E+04  0.21179605039E+04  0.00000000000E+00 0. -1.
         -1   -1    0    0    0  501 -0.00000000000E+00 -0.00000000000E+00 -0.54297404527E+03  0.54297404527E+03  0.00000000000E+00 0.  1.
         24    2    1    2    0    0  0.11651556487E+03 -0.65879604082E+03 -0.67360072159E+02  0.67719477271E+03  0.80419404464E+02 0.  0.
        254    2    1    2    0    0 -0.11651556487E+03  0.65879604082E+03  0.16423465308E+04  0.19837397765E+04  0.88900690284E+03 0.  0.
         23    2    4    4    0    0 -0.44823941329E+03  0.12441072521E+03  0.77749897936E+03  0.91068172627E+03  0.91869165004E+02 0.  0.
         23    2    4    4    0    0  0.33172384843E+03  0.53438531560E+03  0.86484755146E+03  0.10730580502E+04  0.88791411409E+02 0.  0.
          4    1    3    3  502    0  0.53234297210E+02 -0.16341374926E+03 -0.43152240850E+02  0.17720062002E+03  0.00000000000E+00 0. -1.
         -3    1    3    3    0  502  0.63281267656E+02 -0.49538229156E+03 -0.24207831308E+02  0.49999415269E+03  0.00000000000E+00 0.  1.
         13    1    5    5    0    0 -0.19834131023E+03  0.47656323981E+02  0.42902796838E+03  0.47505304779E+03  0.00000000000E+00 0. -1.
        -13    1    5    5    0    0 -0.24989810307E+03  0.76754401232E+02  0.34847101098E+03  0.43562867849E+03  0.00000000000E+00 0.  1.
          3    1    6    6  503    0  0.12041048723E+03  0.23227520379E+03  0.29454022657E+03  0.39395989744E+03  0.00000000000E+00 0. -1.
         -3    1    6    6    0  503  0.21131336120E+03  0.30211011181E+03  0.57030732489E+03  0.67909815278E+03  0.00000000000E+00 0.  1.
<mgrwt>
<rscale>  0 0.21447588E+04</rscale>
<asrwt>0</asrwt>
<pdfrwt beam="1">  1        2 0.32584007E+00 0.21447588E+04</pdfrwt>
<pdfrwt beam="2">  1       -1 0.83534470E-01 0.21447588E+04</pdfrwt>
<totfact> 0.85299668E+00</totfact>
</mgrwt>
</event>
<event>
12    7  0.1611233E-007  0.1698946E+04  0.7818608E-02  0.8761965E-01
          2   -1    0    0  501    0  0.00000000000E+00  0.00000000000E+00  0.14387322219E+04  0.14387322219E+04  0.00000000000E+00 0. -1.
         -1   -1    0    0    0  501 -0.00000000000E+00 -0.00000000000E+00 -0.50155598823E+03  0.50155598823E+03  0.00000000000E+00 0.  1.
         24    2    1    2    0    0 -0.19618901335E+03  0.20611874104E+03  0.94923950001E+03  0.99415803530E+03  0.79495323225E+02 0.  0.
        254    2    1    2    0    0  0.19618901335E+03 -0.20611874104E+03 -0.12063266369E+02  0.94613017480E+03  0.90224260646E+03 0.  0.
         23    2    4    4    0    0  0.50194102695E+03  0.78666783014E+02  0.27816805523E+02  0.51666984204E+03  0.89669915320E+02 0.  0.
         23    2    4    4    0    0 -0.30575201361E+03 -0.28478552406E+03 -0.39880071892E+02  0.42946033277E+03  0.90877217992E+02 0.  0.
          2    1    3    3  502    0 -0.19946057057E+03  0.21049390083E+03  0.93258319476E+03  0.97662869948E+03  0.00000000000E+00 0. -1.
         -1    1    3    3    0  502  0.32715572237E+01 -0.43751597902E+01  0.16656305248E+02  0.17529335822E+02  0.00000000000E+00 0.  1.
         13    1    5    5    0    0  0.33006917716E+02  0.29694286471E+02  0.64027976333E+00  0.44402896575E+02  0.00000000000E+00 0. -1.
        -13    1    5    5    0    0  0.46893410924E+03  0.48972496542E+02  0.27176525760E+02  0.47226694546E+03  0.00000000000E+00 0.  1.
          1    1    6    6  503    0  0.65010857927E+01 -0.39390496526E+01 -0.13961477588E+01  0.77284835003E+01  0.00000000000E+00 0. -1.
         -1    1    6    6    0  503 -0.31225309940E+03 -0.28084647440E+03 -0.38483924133E+02  0.42173184927E+03  0.00000000000E+00 0.  1.
<mgrwt>
<rscale>  0 0.16989465E+04</rscale>
<asrwt>0</asrwt>
<pdfrwt beam="1">  1        2 0.22134342E+00 0.16989465E+04</pdfrwt>
<pdfrwt beam="2">  1       -1 0.77162460E-01 0.16989465E+04</pdfrwt>
<totfact> 0.25117502E+01</totfact>
</mgrwt>
</event>
<event>
12    7  0.1611233E-007  0.1614649E+04  0.7818608E-02  0.8811599E-01
         -1   -1    0    0    0  501 -0.00000000000E+00  0.00000000000E+00  0.20315510462E+03  0.20315510462E+03  0.00000000000E+00 0.  1.
          2   -1    0    0  501    0  0.00000000000E+00 -0.00000000000E+00 -0.32082518025E+04  0.32082518025E+04  0.00000000000E+00 0. -1.
         24    2    1    2    0    0  0.22760303230E+03  0.49932432811E+03 -0.84729948472E+03  0.10126758885E+04  0.80424582197E+02 0.  0.
        254    2    1    2    0    0 -0.22760303230E+03 -0.49932432811E+03 -0.21577972131E+04  0.23987310186E+04  0.89257703393E+03 0.  0.
         23    2    4    4    0    0 -0.36160139946E+03 -0.67725687551E+03 -0.13482743665E+04  0.15541733904E+04  0.90436235170E+02 0.  0.
         23    2    4    4    0    0  0.13399836716E+03  0.17793254740E+03 -0.80952284666E+03  0.84455762817E+03  0.91295094126E+02 0.  0.
          4    1    3    3  502    0  0.18435124967E+03  0.43491336288E+03 -0.67669497357E+03  0.82525820427E+03  0.00000000000E+00 0. -1.
         -3    1    3    3    0  502  0.43251782634E+02  0.64410965232E+02 -0.17060451114E+03  0.18741768424E+03  0.00000000000E+00 0.  1.
         13    1    5    5    0    0 -0.69222941173E+02 -0.14731118494E+03 -0.21815497206E+03  0.27218374791E+03  0.00000000000E+00 0. -1.
        -13    1    5    5    0    0 -0.29237845829E+03 -0.52994569057E+03 -0.11301193944E+04  0.12819896425E+04  0.00000000000E+00 0.  1.
          3    1    6    6  503    0  0.15428626127E+02  0.24234366838E+01 -0.17334246827E+03  0.17404461168E+03  0.00000000000E+00 0. -1.
         -3    1    6    6    0  503  0.11856974103E+03  0.17550911072E+03 -0.63618037839E+03  0.67051301649E+03  0.00000000000E+00 0.  1.
<mgrwt>
<rscale>  0 0.16146489E+04</rscale>
<asrwt>0</asrwt>
<pdfrwt beam="1">  1        2 0.49357713E+00 0.16146489E+04</pdfrwt>
<pdfrwt beam="2">  1       -1 0.31254636E-01 0.16146489E+04</pdfrwt>
<totfact> 0.13366135E+01</totfact>
</mgrwt>
</event>
<event>
12    7  0.1611233E-007  0.2635441E+04  0.7818608E-02  0.8356261E-01
         -1   -1    0    0    0  501 -0.00000000000E+00  0.00000000000E+00  0.12695837265E+04  0.12695837265E+04  0.00000000000E+00 0.  1.
          2   -1    0    0  501    0  0.00000000000E+00 -0.00000000000E+00 -0.13676825339E+04  0.13676825339E+04  0.00000000000E+00 0. -1.
         24    2    1    2    0    0  0.11454973456E+04  0.11469883507E+03 -0.18930947916E+03  0.11696115848E+04  0.82663103996E+02 0.  0.
        254    2    1    2    0    0 -0.11454973456E+04 -0.11469883507E+03  0.91210671789E+02  0.14676546756E+04  0.90574326856E+03 0.  0.
         23    2    4    4    0    0 -0.77546771348E+03 -0.37529585353E+03 -0.24015360466E+03  0.89925751379E+03  0.93771903817E+02 0.  0.
         23    2    4    4    0    0 -0.37002963215E+03  0.26059701846E+03  0.33136427645E+03  0.56839716181E+03  0.91871187796E+02 0.  0.
          2    1    3    3  502    0  0.51484746675E+03  0.58716682487E+02 -0.44207023930E+02  0.52006713392E+03  0.00000000000E+00 0. -1.
         -1    1    3    3    0  502  0.63064987888E+03  0.55982152581E+02 -0.14510245523E+03  0.64954445087E+03  0.00000000000E+00 0.  1.
         13    1    5    5    0    0 -0.72891487826E+03 -0.37190503363E+03 -0.23927070438E+03  0.85257300202E+03  0.00000000000E+00 0. -1.
        -13    1    5    5    0    0 -0.46552835221E+02 -0.33908198987E+01 -0.88290028030E+00  0.46684511774E+02  0.00000000000E+00 0.  1.
          3    1    6    6  503    0 -0.58070151827E+02  0.47079039605E+02  0.10117060933E+03  0.12579376255E+03  0.00000000000E+00 0.  1.
         -3    1    6    6    0  503 -0.31195948032E+03  0.21351797885E+03  0.23019366712E+03  0.44260339926E+03  0.00000000000E+00 0. -1.
<mgrwt>
<rscale>  0 0.26354411E+04</rscale>
<asrwt>0</asrwt>
<pdfrwt beam="1">  1        2 0.21041270E+00 0.26354411E+04</pdfrwt>
<pdfrwt beam="2">  1       -1 0.19532057E+00 0.26354411E+04</pdfrwt>
<totfact> 0.24610780E+00</totfact>
</mgrwt>
</event>
<event>
12    7  0.1611233E-007  0.1340677E+04  0.7818608E-02  0.8997916E-01
          2   -1    0    0  501    0  0.00000000000E+00  0.00000000000E+00  0.46309315839E+03  0.46309315839E+03  0.00000000000E+00 0. -1.
         -1   -1    0    0    0  501 -0.00000000000E+00 -0.00000000000E+00 -0.97033061491E+03  0.97033061491E+03  0.00000000000E+00 0.  1.
         24    2    1    2    0    0 -0.10278277577E+03  0.32168835063E+03 -0.30522788582E+02  0.34840763206E+03  0.80053379253E+02 0.  0.
        254    2    1    2    0    0  0.10278277577E+03 -0.32168835063E+03 -0.47671466793E+03  0.10850161412E+04  0.91430599813E+03 0.  0.
         23    2    4    4    0    0 -0.32142403960E+03  0.11230120022E+03 -0.24693690883E+03  0.43001849786E+03  0.89515913433E+02 0.  0.
         23    2    4    4    0    0  0.42420681537E+03 -0.43398955084E+03 -0.22977775910E+03  0.65499764338E+03  0.89026635386E+02 0.  0.
          2    1    3    3  502    0 -0.11467266173E+03  0.27361834343E+03 -0.17432512785E+02  0.29718800398E+03  0.00000000000E+00 0. -1.
         -3    1    3    3    0  502  0.11889885954E+02  0.48070007199E+02 -0.13090275798E+02  0.51219628079E+02  0.00000000000E+00 0.  1.
         13    1    5    5    0    0 -0.29554719964E+03  0.82998496149E+02 -0.19023280626E+03  0.36114459453E+03  0.00000000000E+00 0.  1.
        -13    1    5    5    0    0 -0.25876839958E+02  0.29302704068E+02 -0.56704102576E+02  0.68873903337E+02  0.00000000000E+00 0. -1.
          4    1    6    6  503    0  0.13392875685E+02 -0.38337234451E+01  0.59885017655E+01  0.15163400277E+02  0.00000000000E+00 0. -1.
         -4    1    6    6    0  503  0.41081393969E+03 -0.43015582740E+03 -0.23576626087E+03  0.63983424310E+03  0.00000000000E+00 0.  1.
<mgrwt>
<rscale>  0 0.13406766E+04</rscale>
<asrwt>0</asrwt>
<pdfrwt beam="1">  1        2 0.71245101E-01 0.13406766E+04</pdfrwt>
<pdfrwt beam="2">  1       -1 0.14928163E+00 0.13406766E+04</pdfrwt>
<totfact> 0.26593191E+01</totfact>
</mgrwt>
</event>
<event>
12    7  0.1611233E-007  0.1393693E+04  0.7818608E-02  0.8958397E-01
          2   -1    0    0  501    0  0.00000000000E+00  0.00000000000E+00  0.26490592457E+04  0.26490592457E+04  0.00000000000E+00 0. -1.
         -1   -1    0    0    0  501 -0.00000000000E+00 -0.00000000000E+00 -0.18330847826E+03  0.18330847826E+03  0.00000000000E+00 0.  1.
         24    2    1    2    0    0  0.38696447157E+03 -0.51671627780E+02  0.88793028702E+03  0.97328085008E+03  0.80274274537E+02 0.  0.
        254    2    1    2    0    0 -0.38696447157E+03  0.51671627780E+02  0.15778204804E+04  0.18590868738E+04  0.90237191711E+03 0.  0.
         23    2    4    4    0    0 -0.57333372075E+03 -0.16262393028E+02  0.15284089261E+04  0.16351631852E+04  0.93534892142E+02 0.  0.
         23    2    4    4    0    0  0.18636924917E+03  0.67934020809E+02  0.49411554294E+02  0.22392368866E+03  0.91388119715E+02 0.  0.
          2    1    3    3  502    0  0.25585009869E+03 -0.88748333956E+01  0.64468479337E+03  0.69365446619E+03  0.00000000000E+00 0. -1.
         -3    1    3    3    0  502  0.13111437288E+03 -0.42796794385E+02  0.24324549366E+03  0.27962638389E+03  0.00000000000E+00 0.  1.
         13    1    5    5    0    0 -0.30074120304E+03 -0.12094882357E+02  0.66996421921E+03  0.73446825147E+03  0.00000000000E+00 0. -1.
        -13    1    5    5    0    0 -0.27259251770E+03 -0.41675106712E+01  0.85844470688E+03  0.90069493372E+03  0.00000000000E+00 0.  1.
          3    1    6    6  503    0  0.97234899923E+02  0.16922016097E+02  0.67598166226E+02  0.11962647060E+03  0.00000000000E+00 0. -1.
         -3    1    6    6    0  503  0.89134349250E+02  0.51012004711E+02 -0.18186611933E+02  0.10429721806E+03  0.00000000000E+00 0.  1.
<mgrwt>
<rscale>  0 0.13936930E+04</rscale>
<asrwt>0</asrwt>
<pdfrwt beam="1">  1        2 0.40754755E+00 0.13936930E+04</pdfrwt>
<pdfrwt beam="2">  1       -1 0.28201306E-01 0.13936930E+04</pdfrwt>
<totfact> 0.36086333E+01</totfact>
</mgrwt>
</event>
<event>
12    7  0.1611233E-007  0.1583327E+04  0.7818608E-02  0.8830857E-01
         -1   -1    0    0    0  501 -0.00000000000E+00  0.00000000000E+00  0.47695778923E+03  0.47695778923E+03  0.00000000000E+00 0.  1.
          2   -1    0    0  501    0  0.00000000000E+00 -0.00000000000E+00 -0.13140185919E+04  0.13140185919E+04  0.00000000000E+00 0. -1.
         24    2    1    2    0    0  0.15643829396E+03  0.39827842659E+02 -0.86722688154E+03  0.88571806064E+03  0.79717137531E+02 0.  0.
        254    2    1    2    0    0 -0.15643829396E+03 -0.39827842659E+02  0.30166078901E+02  0.90525832045E+03  0.89023785448E+03 0.  0.
         23    2    4    4    0    0  0.29246178595E+03  0.67163240967E+02 -0.21029811715E+03  0.37712093332E+03  0.89163350606E+02 0.  0.
         23    2    4    4    0    0 -0.44890007991E+03 -0.10699108363E+03  0.24046419605E+03  0.52813738713E+03  0.90264590995E+02 0.  0.
          2    1    3    3  502    0  0.14366249769E+03  0.20120596827E+02 -0.82255276231E+03  0.83524654949E+03  0.00000000000E+00 0. -1.
         -1    1    3    3    0  502  0.12775796276E+02  0.19707245832E+02 -0.44674119233E+02  0.50471511152E+02  0.00000000000E+00 0.  1.
         13    1    5    5    0    0  0.11260784183E+02 -0.14767674579E+02 -0.43644798364E+01  0.19077163236E+02  0.00000000000E+00 0. -1.
        -13    1    5    5    0    0  0.28120100176E+03  0.81930915546E+02 -0.20593363731E+03  0.35804377008E+03  0.00000000000E+00 0.  1.
          1    1    6    6  503    0 -0.14749270979E+03 -0.67736775246E+02  0.11694131838E+03  0.20004410040E+03  0.00000000000E+00 0. -1.
         -1    1    6    6    0  503 -0.30140737012E+03 -0.39254308380E+02  0.12352287767E+03  0.32809328673E+03  0.00000000000E+00 0.  1.
<mgrwt>
<rscale>  0 0.15833274E+04</rscale>
<asrwt>0</asrwt>
<pdfrwt beam="1">  1        2 0.20215671E+00 0.15833274E+04</pdfrwt>
<pdfrwt beam="2">  1       -1 0.73378121E-01 0.15833274E+04</pdfrwt>
<totfact> 0.33232048E+01</totfact>
</mgrwt>
</event>
<event>
12    7  0.1611233E-007  0.2822437E+04  0.7818608E-02  0.8296336E-01
          2   -1    0    0  501    0  0.00000000000E+00  0.00000000000E+00  0.19083550896E+04  0.19083550896E+04  0.00000000000E+00 0. -1.
         -1   -1    0    0    0  501 -0.00000000000E+00 -0.00000000000E+00 -0.10435887653E+04  0.10435887653E+04  0.00000000000E+00 0.  1.
         24    2    1    2    0    0  0.21324442768E+03  0.36772060704E+03  0.16378636709E+04  0.16940430071E+04  0.80577136153E+02 0.  0.
        254    2    1    2    0    0 -0.21324442768E+03 -0.36772060704E+03 -0.77309734653E+03  0.12579008478E+04  0.89662891149E+03 0.  0.
         23    2    4    4    0    0 -0.39272934442E+03 -0.41082604794E+03 -0.14079106388E+03  0.59241156135E+03  0.90083043463E+02 0.  0.
         23    2    4    4    0    0  0.17948491673E+03  0.43105440899E+02 -0.63230628264E+03  0.66548928645E+03  0.94825318020E+02 0.  0.
          4    1    3    3  502    0  0.14914652073E+03  0.31061747350E+03  0.13750293462E+04  0.14175449207E+04  0.00000000000E+00 0. -1.
         -3    1    3    3    0  502  0.64097906959E+02  0.57103133543E+02  0.26283432469E+03  0.27649808638E+03  0.00000000000E+00 0.  1.
         13    1    5    5    0    0 -0.21820735207E+03 -0.17532858539E+03 -0.95825388228E+02  0.29586663614E+03  0.00000000000E+00 0. -1.
        -13    1    5    5    0    0 -0.17452199235E+03 -0.23549746255E+03 -0.44965675655E+02  0.29654492521E+03  0.00000000000E+00 0.  1.
          1    1    6    6  503    0 -0.93938482833E+01  0.99257587469E+01 -0.71676362919E+02  0.72967568643E+02  0.00000000000E+00 0. -1.
         -1    1    6    6    0  503  0.18887876502E+03  0.33179682152E+02 -0.56062991972E+03  0.59252171781E+03  0.00000000000E+00 0.  1.
<mgrwt>
<rscale>  0 0.28224372E+04</rscale>
<asrwt>0</asrwt>
<pdfrwt beam="1">  1        2 0.29359309E+00 0.28224372E+04</pdfrwt>
<pdfrwt beam="2">  1       -1 0.16055212E+00 0.28224372E+04</pdfrwt>
<totfact> 0.21489926E+00</totfact>
</mgrwt>
</event>
<event>
12    7  0.1611233E-007  0.4306300E+04  0.7818608E-02  0.7945454E-01
          2   -1    0    0  501    0  0.00000000000E+00  0.00000000000E+00  0.29395169627E+04  0.29395169627E+04  0.00000000000E+00 0. -1.
         -1   -1    0    0    0  501 -0.00000000000E+00 -0.00000000000E+00 -0.15771481919E+04  0.15771481919E+04  0.00000000000E+00 0.  1.
         24    2    1    2    0    0  0.14901555752E+04 -0.94733337709E+03 -0.45702092049E+03  0.18257621051E+04  0.80839203805E+02 0.  0.
        254    2    1    2    0    0 -0.14901555752E+04  0.94733337709E+03  0.18193896913E+04  0.26909030495E+04  0.90154101812E+03 0.  0.
         23    2    4    4    0    0 -0.89627964318E+03  0.52169865091E+03  0.44661442923E+03  0.11329257622E+04  0.92572421157E+02 0.  0.
         23    2    4    4    0    0 -0.59387593202E+03  0.42563472618E+03  0.13727752621E+04  0.15579772873E+04  0.94486849705E+02 0.  0.
          4    1    3    3  502    0  0.17758908473E+03 -0.10677157718E+03 -0.80353838950E+02  0.22224939177E+03  0.00000000000E+00 0. -1.
         -3    1    3    3    0  502  0.13125664905E+04 -0.84056179992E+03 -0.37666708154E+03  0.16035127133E+04  0.00000000000E+00 0.  1.
         13    1    5    5    0    0 -0.22755913443E+03  0.87258207064E+02  0.10716440635E+03  0.26623554299E+03  0.00000000000E+00 0. -1.
        -13    1    5    5    0    0 -0.66872050875E+03  0.43444044385E+03  0.33945002288E+03  0.86669021923E+03  0.00000000000E+00 0.  1.
          2    1    6    6  503    0 -0.24576440966E+03  0.23349315198E+03  0.61767074236E+03  0.70458238911E+03  0.00000000000E+00 0. -1.
         -2    1    6    6    0  503 -0.34811152236E+03  0.19214157420E+03  0.75510451972E+03  0.85339489818E+03  0.00000000000E+00 0.  1.
<mgrwt>
<rscale>  0 0.43062995E+04</rscale>
<asrwt>0</asrwt>
<pdfrwt beam="1">  1        2 0.45223338E+00 0.43062995E+04</pdfrwt>
<pdfrwt beam="2">  1       -1 0.24263818E+00 0.43062995E+04</pdfrwt>
<totfact> 0.12929686E-01</totfact>
</mgrwt>
</event>
<event>
12    7  0.1611233E-007  0.2557140E+04  0.7818608E-02  0.8382907E-01
          2   -1    0    0  501    0  0.00000000000E+00  0.00000000000E+00  0.10211126220E+04  0.10211126220E+04  0.00000000000E+00 0. -1.
         -1   -1    0    0    0  501 -0.00000000000E+00 -0.00000000000E+00 -0.16009410449E+04  0.16009410449E+04  0.00000000000E+00 0.  1.
         24    2    1    2    0    0  0.63202962108E+03  0.55113320805E+03 -0.10156123354E+04  0.13193950504E+04  0.78266392852E+02 0.  0.
        254    2    1    2    0    0 -0.63202962108E+03 -0.55113320805E+03  0.43578391240E+03  0.13026586165E+04  0.89655038786E+03 0.  0.
         23    2    4    4    0    0  0.49237819321E+02  0.19522464647E+02 -0.18230381407E+03  0.21605965465E+03  0.10315815173E+03 0.  0.
         23    2    4    4    0    0 -0.68126744040E+03 -0.57065567270E+03  0.61808772647E+03  0.10865989619E+04  0.94295515254E+02 0.  0.
          2    1    3    3  502    0  0.15840993819E+03  0.11201152706E+03 -0.27761826032E+03  0.33869187940E+03  0.00000000000E+00 0. -1.
         -3    1    3    3    0  502  0.47361968289E+03  0.43912168099E+03 -0.73799407507E+03  0.98070317098E+03  0.00000000000E+00 0.  1.
         13    1    5    5    0    0  0.17762477409E+02 -0.17489488573E+02  0.24278452832E+01  0.25045603346E+02  0.00000000000E+00 0.  1.
        -13    1    5    5    0    0  0.31475341913E+02  0.37011953221E+02 -0.18473165935E+03  0.19101405131E+03  0.00000000000E+00 0. -1.
          2    1    6    6  503    0 -0.66464973595E+03 -0.56134925402E+03  0.61868924279E+03  0.10675432711E+04  0.00000000000E+00 0. -1.
         -2    1    6    6    0  503 -0.16617704446E+02 -0.93064186810E+01 -0.60151631412E+00  0.19055690793E+02  0.00000000000E+00 0.  1.
<mgrwt>
<rscale>  0 0.25571399E+04</rscale>
<asrwt>0</asrwt>
<pdfrwt beam="1">  1        2 0.15709425E+00 0.25571399E+04</pdfrwt>
<pdfrwt beam="2">  1       -1 0.24629862E+00 0.25571399E+04</pdfrwt>
<totfact> 0.18213588E+00</totfact>
</mgrwt>
</event>
<event>
12    7  0.1611233E-007  0.2733506E+04  0.7818608E-02  0.8324215E-01
          2   -1    0    0  501    0  0.00000000000E+00  0.00000000000E+00  0.23537173191E+04  0.23537173191E+04  0.00000000000E+00 0. -1.
         -1   -1    0    0    0  501 -0.00000000000E+00 -0.00000000000E+00 -0.79364416948E+03  0.79364416948E+03  0.00000000000E+00 0.  1.
         24    2    1    2    0    0  0.52660802220E+03 -0.37184111258E+03  0.18604897124E+04  0.19706235930E+04  0.79709177786E+02 0.  0.
        254    2    1    2    0    0 -0.52660802220E+03  0.37184111258E+03 -0.30041656287E+03  0.11767378956E+04  0.93748607541E+03 0.  0.
         23    2    4    4    0    0 -0.70551836316E+03 -0.30631759563E+01 -0.16036918977E+03  0.72912440836E+03  0.90214090026E+02 0.  0.
         23    2    4    4    0    0  0.17891034096E+03  0.37490428854E+03 -0.14004737310E+03  0.44761348721E+03  0.90456793863E+02 0.  0.
          2    1    3    3  502    0  0.25204708461E+03 -0.18915388811E+03  0.79174820220E+03  0.85215734576E+03  0.00000000000E+00 0. -1.
         -3    1    3    3    0  502  0.27456093759E+03 -0.18268722447E+03  0.10687415102E+04  0.11184662472E+04  0.00000000000E+00 0.  1.
         13    1    5    5    0    0 -0.63298617207E+03 -0.27396057829E+02 -0.12979885021E+03  0.64673779814E+03  0.00000000000E+00 0.  1.
        -13    1    5    5    0    0 -0.72532191085E+02  0.24332881873E+02 -0.30570339553E+02  0.82386610224E+02  0.00000000000E+00 0. -1.
          3    1    6    6  503    0  0.60666797489E+02  0.53628610995E+02 -0.10824186594E+02  0.81692418560E+02  0.00000000000E+00 0. -1.
         -3    1    6    6    0  503  0.11824354347E+03  0.32127567754E+03 -0.12922318650E+03  0.36592106865E+03  0.00000000000E+00 0.  1.
<mgrwt>
<rscale>  0 0.27335062E+04</rscale>
<asrwt>0</asrwt>
<pdfrwt beam="1">  1        2 0.36211035E+00 0.27335062E+04</pdfrwt>
<pdfrwt beam="2">  1       -1 0.12209910E+00 0.27335062E+04</pdfrwt>
<totfact> 0.24931674E+00</totfact>
</mgrwt>
</event>
<event>
12    7  0.1611233E-007  0.2210753E+04  0.7818608E-02  0.8513966E-01
          2   -1    0    0  501    0  0.00000000000E+00  0.00000000000E+00  0.17583282867E+04  0.17583282867E+04  0.00000000000E+00 0. -1.
         -1   -1    0    0    0  501 -0.00000000000E+00 -0.00000000000E+00 -0.69489697032E+03  0.69489697032E+03  0.00000000000E+00 0.  1.
         24    2    1    2    0    0  0.30148665837E+03  0.18063001280E+03  0.13853837244E+04  0.14319299177E+04  0.87257197764E+02 0.  0.
        254    2    1    2    0    0 -0.30148665837E+03 -0.18063001280E+03 -0.32195240810E+03  0.10212953393E+04  0.90325489773E+03 0.  0.
         23    2    4    4    0    0  0.38213930361E+02  0.13983235162E+03  0.23350087998E+03  0.28999259936E+03  0.92518407346E+02 0.  0.
         23    2    4    4    0    0 -0.33970058873E+03 -0.32046236442E+03 -0.55545328807E+03  0.73130273993E+03  0.90458417041E+02 0.  0.
          4    1    3    3  502    0  0.28758693201E+03  0.18789891160E+03  0.12762851371E+04  0.13217094975E+04  0.00000000000E+00 0. -1.
         -3    1    3    3    0  502  0.13899726357E+02 -0.72688987994E+01  0.10909858730E+03  0.11022042022E+03  0.00000000000E+00 0.  1.
         13    1    5    5    0    0  0.35656870951E+02  0.11023125136E+03  0.99438418107E+02  0.15267724198E+03  0.00000000000E+00 0. -1.
        -13    1    5    5    0    0  0.25570594102E+01  0.29601100263E+02  0.13406246187E+03  0.13731535738E+03  0.00000000000E+00 0.  1.
          4    1    6    6  503    0 -0.25153871088E+03 -0.23415467633E+03 -0.34247016394E+03  0.48516589813E+03  0.00000000000E+00 0. -1.
         -4    1    6    6    0  503 -0.88161877854E+02 -0.86307688087E+02 -0.21298312413E+03  0.24613684181E+03  0.00000000000E+00 0.  1.
<mgrwt>
<rscale>  0 0.22107528E+04</rscale>
<asrwt>0</asrwt>
<pdfrwt beam="1">  1        2 0.27051204E+00 0.22107528E+04</pdfrwt>
<pdfrwt beam="2">  1       -1 0.10690723E+00 0.22107528E+04</pdfrwt>
<totfact> 0.77244509E+00</totfact>
</mgrwt>
</event>
<event>
12    7  0.1611233E-007  0.1609564E+04  0.7818608E-02  0.8814694E-01
          4   -1    0    0  501    0  0.00000000000E+00  0.00000000000E+00  0.55817574396E+03  0.55817574396E+03  0.00000000000E+00 0. -1.
         -3   -1    0    0    0  501 -0.00000000000E+00 -0.00000000000E+00 -0.11603411897E+04  0.11603411897E+04  0.00000000000E+00 0.  1.
         24    2    1    2    0    0 -0.52759966196E+03 -0.93930439243E+02 -0.68212701908E+02  0.54609347925E+03  0.79879813874E+02 0.  0.
        254    2    1    2    0    0  0.52759966196E+03  0.93930439243E+02 -0.53395274382E+03  0.11724234544E+04  0.89570469076E+03 0.  0.
         23    2    4    4    0    0 -0.19217412908E+03  0.18194576879E+03 -0.28772787787E+03  0.40119086336E+03  0.90175487067E+02 0.  0.
         23    2    4    4    0    0  0.71977379104E+03 -0.88015329545E+02 -0.24622486595E+03  0.77123259103E+03  0.91389366755E+02 0.  0.
          4    1    3    3  502    0 -0.16162267081E+03 -0.51538824602E+02 -0.51518273262E+02  0.17729148496E+03  0.00000000000E+00 0. -1.
         -3    1    3    3    0  502 -0.36597699115E+03 -0.42391614641E+02 -0.16694428646E+02  0.36880199429E+03  0.00000000000E+00 0.  1.
         13    1    5    5    0    0 -0.43231226126E+02  0.50122291705E+02 -0.13522154592E+03  0.15055248095E+03  0.00000000000E+00 0. -1.
        -13    1    5    5    0    0 -0.14894290296E+03  0.13182347708E+03 -0.15250633195E+03  0.25063838241E+03  0.00000000000E+00 0.  1.
          3    1    6    6  503    0  0.52833772095E+03 -0.59761496201E+02 -0.13719795135E+03  0.54912244688E+03  0.00000000000E+00 0. -1.
         -3    1    6    6    0  503  0.19143607009E+03 -0.28253833344E+02 -0.10902691460E+03  0.22211014416E+03  0.00000000000E+00 0.  1.
<mgrwt>
<rscale>  0 0.16095643E+04</rscale>
<asrwt>0</asrwt>
<pdfrwt beam="1">  1        4 0.85873192E-01 0.16095643E+04</pdfrwt>
<pdfrwt beam="2">  1       -3 0.17851403E+00 0.16095643E+04</pdfrwt>
<totfact> 0.52351522E-01</totfact>
</mgrwt>
</event>
<event>
12    7  0.1611233E-007  0.1263349E+04  0.7818608E-02  0.9059146E-01
          2   -1    0    0  501    0  0.00000000000E+00  0.00000000000E+00  0.43053934503E+03  0.43053934503E+03  0.00000000000E+00 0. -1.
         -1   -1    0    0    0  501 -0.00000000000E+00 -0.00000000000E+00 -0.92677376584E+03  0.92677376584E+03  0.00000000000E+00 0.  1.
         24    2    1    2    0    0 -0.15447612961E+03  0.18914123780E+03  0.71909781542E+02  0.26668441761E+03  0.79449854974E+02 0.  0.
        254    2    1    2    0    0  0.15447612961E+03 -0.18914123780E+03 -0.56814420235E+03  0.10906286933E+04  0.89835729498E+03 0.  0.
         23    2    4    4    0    0  0.35046301603E+03  0.20024977397E+03 -0.48338087171E+03  0.63641930525E+03  0.91913912880E+02 0.  0.
         23    2    4    4    0    0 -0.19598688641E+03 -0.38939101177E+03 -0.84763330641E+02  0.45420938801E+03  0.95315928603E+02 0.  0.
          4    1    3    3  502    0 -0.12605064134E+03  0.98276501952E+02  0.60044702358E+02  0.17074074294E+03  0.00000000000E+00 0. -1.
         -3    1    3    3    0  502 -0.28425488273E+02  0.90864735850E+02  0.11865079184E+02  0.95943674668E+02  0.00000000000E+00 0.  1.
         13    1    5    5    0    0  0.18505494368E+03  0.53088479449E+02 -0.23005353195E+03  0.29998057669E+03  0.00000000000E+00 0. -1.
        -13    1    5    5    0    0  0.16540807235E+03  0.14716129452E+03 -0.25332733976E+03  0.33643872855E+03  0.00000000000E+00 0.  1.
          3    1    6    6  503    0 -0.20299210489E+03 -0.36744818283E+03 -0.92593764856E+02  0.42988087536E+03  0.00000000000E+00 0. -1.
         -3    1    6    6    0  503  0.70052184767E+01 -0.21942828942E+02  0.78304342156E+01  0.24328512653E+02  0.00000000000E+00 0.  1.
<mgrwt>
<rscale>  0 0.12633488E+04</rscale>
<asrwt>0</asrwt>
<pdfrwt beam="1">  1        2 0.66236823E-01 0.12633488E+04</pdfrwt>
<pdfrwt beam="2">  1       -1 0.14258058E+00 0.12633488E+04</pdfrwt>
<totfact> 0.32860490E+01</totfact>
</mgrwt>
</event>
<event>
12    7  0.1685186E-007  0.1332447E+04  0.7818608E-02  0.9004223E-01
         -1   -1    0    0    0  501 -0.00000000000E+00  0.00000000000E+00  0.23246034132E+03  0.23246034132E+03  0.00000000000E+00 0.  1.
          2   -1    0    0  501    0  0.00000000000E+00 -0.00000000000E+00 -0.19093752137E+04  0.19093752137E+04  0.00000000000E+00 0. -1.
         24    2    1    2    0    0  0.96292072549E+02  0.22271128973E+03 -0.91453776147E+03  0.94971412312E+03  0.81884776899E+02 0.  0.
        254    2    1    2    0    0 -0.96292072549E+02 -0.22271128973E+03 -0.76237711087E+03  0.11921214319E+04  0.88377721588E+03 0.  0.
         23    2    4    4    0    0  0.24255313615E+03 -0.33494049769E+03 -0.70014468864E+03  0.81858141842E+03  0.94105221443E+02 0.  0.
         23    2    4    4    0    0 -0.33884520870E+03  0.11222920796E+03 -0.62232422231E+02  0.37354001344E+03  0.90817380962E+02 0.  0.
          4    1    3    3  502    0  0.96669091841E+02  0.22962085358E+03 -0.88774979846E+03  0.92204682873E+03  0.00000000000E+00 0. -1.
         -3    1    3    3    0  502 -0.37701929264E+00 -0.69095638534E+01 -0.26787963015E+02  0.27667294387E+02  0.00000000000E+00 0.  1.
         13    1    5    5    0    0  0.58751290603E+02 -0.12749990597E+03 -0.17097714603E+03  0.22122641035E+03  0.00000000000E+00 0. -1.
        -13    1    5    5    0    0  0.18380184555E+03 -0.20744059172E+03 -0.52916754261E+03  0.59735500807E+03  0.00000000000E+00 0.  1.
          1    1    6    6  503    0 -0.24805071934E+03  0.41527454722E+02 -0.25738617418E+02  0.25281646562E+03  0.00000000000E+00 0. -1.
         -1    1    6    6    0  503 -0.90794489361E+02  0.70701753235E+02 -0.36493804813E+02  0.12072354782E+03  0.00000000000E+00 0.  1.
<mgrwt>
<rscale>  0 0.13324474E+04</rscale>
<asrwt>0</asrwt>
<pdfrwt beam="1">  1        2 0.29375003E+00 0.13324474E+04</pdfrwt>
<pdfrwt beam="2">  1       -1 0.35763130E-01 0.13324474E+04</pdfrwt>
<totfact> 0.62423006E+01</totfact>
</mgrwt>
</event>
<event>
12    7  0.1611233E-007  0.2000173E+04  0.7818608E-02  0.8606540E-01
         -1   -1    0    0    0  501 -0.00000000000E+00  0.00000000000E+00  0.12591079631E+04  0.12591079631E+04  0.00000000000E+00 0.  1.
          2   -1    0    0  501    0  0.00000000000E+00 -0.00000000000E+00 -0.79435070583E+03  0.79435070583E+03  0.00000000000E+00 0. -1.
         24    2    1    2    0    0 -0.61586705013E+03 -0.42911960209E+03 -0.13039508585E+03  0.76590837400E+03  0.78593273448E+02 0.  0.
        254    2    1    2    0    0  0.61586705013E+03  0.42911960209E+03  0.59515234309E+03  0.12875502949E+04  0.86031598503E+03 0.  0.
         23    2    4    4    0    0  0.57826419889E+03  0.15041377938E+03  0.74429426469E+03  0.95881433863E+03  0.91308240390E+02 0.  0.
         23    2    4    4    0    0  0.37602851236E+02  0.27870582270E+03 -0.14914192160E+03  0.32873595628E+03  0.82055506465E+02 0.  0.
          2    1    3    3  502    0 -0.45454845484E+03 -0.31898519768E+03 -0.61126604500E+02  0.55866118168E+03  0.00000000000E+00 0. -1.
         -1    1    3    3    0  502 -0.16131859529E+03 -0.11013440441E+03 -0.69268481347E+02  0.20724719233E+03  0.00000000000E+00 0.  1.
         13    1    5    5    0    0  0.41559990298E+03  0.14012440883E+03  0.49951719821E+03  0.66473721169E+03  0.00000000000E+00 0. -1.
        -13    1    5    5    0    0  0.16266429591E+03  0.10289370555E+02  0.24477706648E+03  0.29407712693E+03  0.00000000000E+00 0.  1.
          2    1    6    6  503    0  0.64523541300E+01  0.24071934984E+03 -0.14067783075E+03  0.27888651872E+03  0.00000000000E+00 0. -1.
         -2    1    6    6    0  503  0.31150497106E+02  0.37986472861E+02 -0.84640908522E+01  0.49849437553E+02  0.00000000000E+00 0.  1.
<mgrwt>
<rscale>  0 0.20001733E+04</rscale>
<asrwt>0</asrwt>
<pdfrwt beam="1">  1        2 0.12220780E+00 0.20001733E+04</pdfrwt>
<pdfrwt beam="2">  1       -1 0.19370892E+00 0.20001733E+04</pdfrwt>
<totfact> 0.61358096E+00</totfact>
</mgrwt>
</event>
<event>
12    7  0.1611233E-007  0.2554451E+04  0.7818608E-02  0.8383840E-01
         -1   -1    0    0    0  501 -0.00000000000E+00  0.00000000000E+00  0.82386897113E+03  0.82386897113E+03  0.00000000000E+00 0.  1.
          2   -1    0    0  501    0  0.00000000000E+00 -0.00000000000E+00 -0.19800542968E+04  0.19800542968E+04  0.00000000000E+00 0. -1.
         24    2    1    2    0    0 -0.68695396530E+03 -0.66661567339E+03 -0.11501993054E+04  0.14984721763E+04  0.78601619243E+02 0.  0.
        254    2    1    2    0    0  0.68695396530E+03  0.66661567339E+03 -0.59860202060E+01  0.13054510916E+04  0.88762858991E+03 0.  0.
         23    2    4    4    0    0  0.86894006154E+03  0.66166853495E+03  0.40797355324E+02  0.10972049608E+04  0.96603421751E+02 0.  0.
         23    2    4    4    0    0 -0.18198609625E+03  0.49471384395E+01 -0.46783375530E+02  0.20824613078E+03  0.89634554472E+02 0.  0.
          4    1    3    3  502    0 -0.17846063034E+03 -0.19723331621E+03 -0.36853885965E+03  0.45449980052E+03  0.00000000000E+00 0. -1.
         -3    1    3    3    0  502 -0.50849333496E+03 -0.46938235718E+03 -0.78166044578E+03  0.10439723758E+04  0.00000000000E+00 0.  1.
         13    1    5    5    0    0  0.16484314444E+03  0.12308101775E+03  0.45623528328E+02  0.21072186772E+03  0.00000000000E+00 0.  1.
        -13    1    5    5    0    0  0.70409691710E+03  0.53858751720E+03 -0.48261730044E+01  0.88648309307E+03  0.00000000000E+00 0. -1.
          1    1    6    6  503    0 -0.85621213122E+02 -0.10129082206E+02  0.21895946783E+02  0.88955173702E+02  0.00000000000E+00 0. -1.
         -1    1    6    6    0  503 -0.96364883123E+02  0.15076220646E+02 -0.68679322313E+02  0.11929095708E+03  0.00000000000E+00 0.  1.
<mgrwt>
<rscale>  0 0.25544512E+04</rscale>
<asrwt>0</asrwt>
<pdfrwt beam="1">  1        2 0.30462374E+00 0.25544512E+04</pdfrwt>
<pdfrwt beam="2">  1       -1 0.12674907E+00 0.25544512E+04</pdfrwt>
<totfact> 0.37428774E+00</totfact>
</mgrwt>
</event>
<event>
12    7  0.1611233E-007  0.2051036E+04  0.7818608E-02  0.8583124E-01
         -1   -1    0    0    0  501 -0.00000000000E+00  0.00000000000E+00  0.24441019449E+03  0.24441019449E+03  0.00000000000E+00 0.  1.
          2   -1    0    0  501    0  0.00000000000E+00 -0.00000000000E+00 -0.43029605630E+04  0.43029605630E+04  0.00000000000E+00 0. -1.
         24    2    1    2    0    0 -0.48594844049E+03 -0.27800297974E+03 -0.29879383428E+04  0.30412188403E+04  0.88345631854E+02 0.  0.
        254    2    1    2    0    0  0.48594844049E+03  0.27800297974E+03 -0.10706120257E+04  0.15061519172E+04  0.89936196522E+03 0.  0.
         23    2    4    4    0    0  0.31817161519E+03  0.28949138146E+03 -0.21782427678E+02  0.44007584297E+03  0.90298597783E+02 0.  0.
         23    2    4    4    0    0  0.16777682530E+03 -0.11488401720E+02 -0.10488295980E+04  0.10660760742E+04  0.90518637980E+02 0.  0.
          4    1    3    3  502    0 -0.21225360895E+03 -0.12017863297E+03 -0.10714107563E+04  0.10988246025E+04  0.00000000000E+00 0. -1.
         -1    1    3    3    0  502 -0.27369483154E+03 -0.15782434677E+03 -0.19165275864E+04  0.19423942377E+04  0.00000000000E+00 0.  1.
         13    1    5    5    0    0  0.23832636087E+03  0.16982970203E+03 -0.38845381597E+02  0.29521271255E+03  0.00000000000E+00 0. -1.
        -13    1    5    5    0    0  0.79845254317E+02  0.11966167942E+03  0.17062953918E+02  0.14486313042E+03  0.00000000000E+00 0.  1.
          1    1    6    6  503    0  0.17276185169E+02  0.25012510901E+02 -0.29110173759E+03  0.29268466632E+03  0.00000000000E+00 0. -1.
         -1    1    6    6    0  503  0.15050064013E+03 -0.36500912621E+02 -0.75772786044E+03  0.77339140789E+03  0.00000000000E+00 0.  1.
<mgrwt>
<rscale>  0 0.20510363E+04</rscale>
<asrwt>0</asrwt>
<pdfrwt beam="1">  1        2 0.66199388E+00 0.20510363E+04</pdfrwt>
<pdfrwt beam="2">  1       -1 0.37601572E-01 0.20510363E+04</pdfrwt>
<totfact> 0.13710256E+00</totfact>
</mgrwt>
</event>
<event>
12    7  0.1611233E-007  0.1686409E+04  0.7818608E-02  0.8769154E-01
         -1   -1    0    0    0  501 -0.00000000000E+00  0.00000000000E+00  0.16435552796E+03  0.16435552796E+03  0.00000000000E+00 0.  1.
          2   -1    0    0  501    0  0.00000000000E+00 -0.00000000000E+00 -0.43259481204E+04  0.43259481204E+04  0.00000000000E+00 0. -1.
         24    2    1    2    0    0  0.13967276198E+03  0.15047235924E+03  0.72258477310E+00  0.22104407520E+03  0.81911841150E+02 0.  0.
        254    2    1    2    0    0 -0.13967276198E+03 -0.15047235924E+03 -0.41623151772E+04  0.42692595731E+04  0.92712418645E+03 0.  0.
         23    2    4    4    0    0  0.88516962738E+02  0.18354129230E+03 -0.25898997556E+03  0.34395809842E+03  0.98532773022E+02 0.  0.
         23    2    4    4    0    0 -0.22818972472E+03 -0.33401365153E+03 -0.39033252016E+04  0.39253014747E+04  0.91697152254E+02 0.  0.
          2    1    3    3  502    0  0.22374525842E+02  0.52404110937E+02 -0.31039940024E+02  0.64886733054E+02  0.00000000000E+00 0. -1.
         -1    1    3    3    0  502  0.11729823614E+03  0.98068248300E+02  0.31762524798E+02  0.15615734215E+03  0.00000000000E+00 0.  1.
         13    1    5    5    0    0  0.59174034007E+02  0.42284323338E+02 -0.13664472200E+03  0.15479441318E+03  0.00000000000E+00 0.  1.
        -13    1    5    5    0    0  0.29342928731E+02  0.14125696896E+03 -0.12234525356E+03  0.18916368524E+03  0.00000000000E+00 0. -1.
          2    1    6    6  503    0 -0.21808400551E+03 -0.28309868291E+03 -0.31539859384E+04  0.31741664728E+04  0.00000000000E+00 0.  1.
         -2    1    6    6    0  503 -0.10105719203E+02 -0.50914968629E+02 -0.74933926327E+03  0.75113500189E+03  0.00000000000E+00 0. -1.
<mgrwt>
<rscale>  0 0.16864086E+04</rscale>
<asrwt>0</asrwt>
<pdfrwt beam="1">  1        2 0.66553046E+00 0.16864086E+04</pdfrwt>
<pdfrwt beam="2">  1       -1 0.25285467E-01 0.16864086E+04</pdfrwt>
<totfact> 0.27404078E+00</totfact>
</mgrwt>
</event>
<event>
12    7  0.1611233E-007  0.1296039E+04  0.7818608E-02  0.9032712E-01
         -1   -1    0    0    0  501 -0.00000000000E+00  0.00000000000E+00  0.10317782959E+03  0.10317782959E+03  0.00000000000E+00 0.  1.
          2   -1    0    0  501    0  0.00000000000E+00 -0.00000000000E+00 -0.40699585182E+04  0.40699585182E+04  0.00000000000E+00 0. -1.
         24    2    1    2    0    0  0.23898861044E+03  0.15022302745E+03 -0.15571253059E+04  0.15845460899E+04  0.80402604731E+02 0.  0.
        254    2    1    2    0    0 -0.23898861044E+03 -0.15022302745E+03 -0.24096553828E+04  0.25885902580E+04  0.90259511740E+03 0.  0.
         23    2    4    4    0    0 -0.56153038164E+03 -0.12671032353E+02 -0.12438891843E+04  0.13678515440E+04  0.90997906149E+02 0.  0.
         23    2    4    4    0    0  0.32254177120E+03 -0.13755199510E+03 -0.11657661984E+04  0.12207387140E+04  0.90765813095E+02 0.  0.
          4    1    3    3  502    0  0.24030656664E+03  0.14818880666E+03 -0.15566888817E+04  0.15820832604E+04  0.00000000000E+00 0. -1.
         -3    1    3    3    0  502 -0.13179562009E+01  0.20342207980E+01 -0.43642411761E+00  0.24628294324E+01  0.00000000000E+00 0.  1.
         13    1    5    5    0    0 -0.46270478885E+03 -0.48448373588E+01 -0.10974237914E+04  0.11909904164E+04  0.00000000000E+00 0.  1.
        -13    1    5    5    0    0 -0.98825592789E+02 -0.78261949942E+01 -0.14646539296E+03  0.17686112759E+03  0.00000000000E+00 0. -1.
          1    1    6    6  503    0  0.14382558636E+03 -0.88820658936E+02 -0.68421844687E+03  0.70479060137E+03  0.00000000000E+00 0. -1.
         -1    1    6    6    0  503  0.17871618483E+03 -0.48731336164E+02 -0.48154775157E+03  0.51594811259E+03  0.00000000000E+00 0.  1.
<mgrwt>
<rscale>  0 0.12960393E+04</rscale>
<asrwt>0</asrwt>
<pdfrwt beam="1">  1        2 0.62614731E+00 0.12960393E+04</pdfrwt>
<pdfrwt beam="2">  1       -1 0.15873516E-01 0.12960393E+04</pdfrwt>
<totfact> 0.10407211E+01</totfact>
</mgrwt>
</event>
<event>
12    7  0.1611233E-007  0.1409046E+04  0.7818608E-02  0.8947297E-01
         -1   -1    0    0    0  501 -0.00000000000E+00  0.00000000000E+00  0.27242810919E+03  0.27242810919E+03  0.00000000000E+00 0.  1.
          2   -1    0    0  501    0  0.00000000000E+00 -0.00000000000E+00 -0.18219577165E+04  0.18219577165E+04  0.00000000000E+00 0. -1.
         24    2    1    2    0    0 -0.32317596605E+03  0.19968659320E+03 -0.66631848651E+03  0.77293670660E+03  0.95568752251E+02 0.  0.
        254    2    1    2    0    0  0.32317596605E+03 -0.19968659320E+03 -0.88321112082E+03  0.13214491191E+04  0.90655857502E+03 0.  0.
         23    2    4    4    0    0 -0.11596933914E+03 -0.86760984126E+02  0.12539077808E+03  0.21202193756E+03  0.90852070932E+02 0.  0.
         23    2    4    4    0    0  0.43914530520E+03 -0.11292560907E+03 -0.10086018989E+04  0.11094271816E+04  0.89163268519E+02 0.  0.
          2    1    3    3  502    0 -0.29468936473E+03  0.18508080645E+03 -0.64932029815E+03  0.73669096383E+03  0.00000000000E+00 0. -1.
         -1    1    3    3    0  502 -0.28486601321E+02  0.14605786746E+02 -0.16998188362E+02  0.36245742769E+02  0.00000000000E+00 0.  1.
         13    1    5    5    0    0 -0.90768457230E+02 -0.17426363774E+02  0.94064516392E+02  0.13187389517E+03  0.00000000000E+00 0. -1.
        -13    1    5    5    0    0 -0.25200881915E+02 -0.69334620352E+02  0.31326261684E+02  0.80148042395E+02  0.00000000000E+00 0.  1.
          4    1    6    6  503    0  0.34635639661E+03 -0.55592848872E+02 -0.81343070455E+03  0.88584582712E+03  0.00000000000E+00 0. -1.
         -4    1    6    6    0  503  0.92788908589E+02 -0.57332760197E+02 -0.19517119435E+03  0.22358135444E+03  0.00000000000E+00 0.  1.
<mgrwt>
<rscale>  0 0.14090458E+04</rscale>
<asrwt>0</asrwt>
<pdfrwt beam="1">  1        2 0.28030117E+00 0.14090458E+04</pdfrwt>
<pdfrwt beam="2">  1       -1 0.41912019E-01 0.14090458E+04</pdfrwt>
<totfact> 0.51967974E+01</totfact>
</mgrwt>
</event>
<event>
12    7  0.1611233E-007  0.1282061E+04  0.7818608E-02  0.9043913E-01
          2   -1    0    0  501    0  0.00000000000E+00  0.00000000000E+00  0.49979676099E+03  0.49979676099E+03  0.00000000000E+00 0. -1.
         -1   -1    0    0    0  501 -0.00000000000E+00 -0.00000000000E+00 -0.82217477364E+03  0.82217477364E+03  0.00000000000E+00 0.  1.
         24    2    1    2    0    0 -0.45601356395E+02 -0.26088797253E+03 -0.25625077616E+03  0.37733439930E+03  0.81084959746E+02 0.  0.
        254    2    1    2    0    0  0.45601356395E+02  0.26088797253E+03 -0.66127236488E+02  0.94463713534E+03  0.90433649055E+03 0.  0.
         23    2    4    4    0    0 -0.15882536003E+03 -0.32922653568E+02  0.34491657853E+03  0.39176392057E+03  0.90565596168E+02 0.  0.
         23    2    4    4    0    0  0.20442671642E+03  0.29381062609E+03 -0.41104381502E+03  0.55287321477E+03  0.92718969752E+02 0.  0.
          2    1    3    3  502    0  0.59259236495E+01  0.39053983736E+01 -0.84413573545E+01  0.11028382544E+02  0.00000000000E+00 0. -1.
         -1    1    3    3    0  502 -0.51527280044E+02 -0.26479337090E+03 -0.24780941881E+03  0.36630601675E+03  0.00000000000E+00 0.  1.
         13    1    5    5    0    0 -0.16099215789E+03 -0.29557199327E+02  0.26317553038E+03  0.30992493079E+03  0.00000000000E+00 0. -1.
        -13    1    5    5    0    0  0.21667978663E+01 -0.33654542409E+01  0.81741048149E+02  0.81838989778E+02  0.00000000000E+00 0.  1.
          1    1    6    6  503    0  0.18292694487E+03  0.22719785655E+03 -0.28011200236E+03  0.40440557248E+03  0.00000000000E+00 0. -1.
         -1    1    6    6    0  503  0.21499771549E+02  0.66612769542E+02 -0.13093181266E+03  0.14846764229E+03  0.00000000000E+00 0.  1.
<mgrwt>
<rscale>  0 0.12820613E+04</rscale>
<asrwt>0</asrwt>
<pdfrwt beam="1">  1        2 0.76891810E-01 0.12820613E+04</pdfrwt>
<pdfrwt beam="2">  1       -1 0.12648843E+00 0.12820613E+04</pdfrwt>
<totfact> 0.37578047E+01</totfact>
</mgrwt>
</event>
<event>
12    7  0.1611233E-007  0.2573382E+04  0.7818608E-02  0.8377299E-01
         -1   -1    0    0    0  501 -0.00000000000E+00  0.00000000000E+00  0.11510413536E+04  0.11510413536E+04  0.00000000000E+00 0.  1.
          2   -1    0    0  501    0  0.00000000000E+00 -0.00000000000E+00 -0.14383273682E+04  0.14383273682E+04  0.00000000000E+00 0. -1.
         24    2    1    2    0    0 -0.62652879229E+02 -0.10788994092E+04 -0.40909391329E+03  0.11584062691E+04  0.81227678881E+02 0.  0.
        254    2    1    2    0    0  0.62652879229E+02  0.10788994092E+04  0.12180789865E+03  0.14309624527E+04  0.92998228934E+03 0.  0.
         23    2    4    4    0    0 -0.41169891956E+03  0.60875434094E+03  0.15380973546E+03  0.75629950555E+03  0.90849652684E+02 0.  0.
         23    2    4    4    0    0  0.47435179879E+03  0.47014506827E+03 -0.32001836816E+02  0.67466294718E+03  0.89999780536E+02 0.  0.
          2    1    3    3  502    0 -0.79571090521E+02 -0.98829017999E+03 -0.37869659567E+03  0.10613482698E+04  0.00000000000E+00 0. -1.
         -1    1    3    3    0  502  0.16918211292E+02 -0.90609229220E+02 -0.30397317617E+02  0.97057999215E+02  0.00000000000E+00 0.  1.
         13    1    5    5    0    0 -0.26926687587E+03  0.33820590944E+03  0.59793830838E+02  0.43642088610E+03  0.00000000000E+00 0. -1.
        -13    1    5    5    0    0 -0.14243204369E+03  0.27054843150E+03  0.94015904626E+02  0.31987861945E+03  0.00000000000E+00 0.  1.
          3    1    6    6  503    0  0.12427661004E+03  0.14896164502E+03  0.27217209250E+02  0.19589544142E+03  0.00000000000E+00 0. -1.
         -3    1    6    6    0  503  0.35007518875E+03  0.32118342326E+03 -0.59219046065E+02  0.47876750576E+03  0.00000000000E+00 0.  1.
<mgrwt>
<rscale>  0 0.25733824E+04</rscale>
<asrwt>0</asrwt>
<pdfrwt beam="1">  1        2 0.22128113E+00 0.25733824E+04</pdfrwt>
<pdfrwt beam="2">  1       -1 0.17708329E+00 0.25733824E+04</pdfrwt>
<totfact> 0.30351833E+00</totfact>
</mgrwt>
</event>
<event>
12    7  0.1611233E-007  0.1702896E+04  0.7818608E-02  0.8759714E-01
         -1   -1    0    0    0  501 -0.00000000000E+00  0.00000000000E+00  0.28904816254E+03  0.28904816254E+03  0.00000000000E+00 0.  1.
          2   -1    0    0  501    0  0.00000000000E+00 -0.00000000000E+00 -0.25081067597E+04  0.25081067597E+04  0.00000000000E+00 0. -1.
         24    2    1    2    0    0 -0.15050493763E+02  0.50028288159E+03 -0.22588538600E+03  0.55512387495E+03  0.81417626798E+02 0.  0.
        254    2    1    2    0    0  0.15050493763E+02 -0.50028288159E+03 -0.19931732112E+04  0.22420310473E+04  0.89635611695E+03 0.  0.
         23    2    4    4    0    0 -0.27235211347E+03 -0.19798299042E+03 -0.16717118143E+04  0.17075775136E+04  0.88473931506E+02 0.  0.
         23    2    4    4    0    0  0.28740260723E+03 -0.30229989117E+03 -0.32146139689E+03  0.53445353376E+03  0.91201245669E+02 0.  0.
          4    1    3    3  502    0  0.74214067743E+00 -0.66103932795E+00 -0.89356238175E+01  0.89907240413E+01  0.00000000000E+00 0. -1.
         -3    1    3    3    0  502 -0.15792634440E+02  0.50094392092E+03 -0.21694976219E+03  0.54613315091E+03  0.00000000000E+00 0.  1.
         13    1    5    5    0    0 -0.22165062886E+03 -0.11902332382E+03 -0.11167560859E+04  0.11447443856E+04  0.00000000000E+00 0.  1.
        -13    1    5    5    0    0 -0.50701484612E+02 -0.78959666605E+02 -0.55495572837E+03  0.56283312797E+03  0.00000000000E+00 0. -1.
          3    1    6    6  503    0  0.72233121008E+01 -0.28526592203E+02 -0.29478148227E+01  0.29574183212E+02  0.00000000000E+00 0. -1.
         -3    1    6    6    0  503  0.28017929513E+03 -0.27377329897E+03 -0.31851358207E+03  0.50487935055E+03  0.00000000000E+00 0.  1.
<mgrwt>
<rscale>  0 0.17028959E+04</rscale>
<asrwt>0</asrwt>
<pdfrwt beam="1">  1        2 0.38586261E+00 0.17028959E+04</pdfrwt>
<pdfrwt beam="2">  1       -1 0.44468945E-01 0.17028959E+04</pdfrwt>
<totfact> 0.18710211E+01</totfact>
</mgrwt>
</event>
<event>
12    7  0.1611233E-007  0.1654587E+04  0.7818608E-02  0.8787697E-01
         -1   -1    0    0    0  501 -0.00000000000E+00  0.00000000000E+00  0.98263596825E+03  0.98263596825E+03  0.00000000000E+00 0.  1.
          2   -1    0    0  501    0  0.00000000000E+00 -0.00000000000E+00 -0.69650881629E+03  0.69650881629E+03  0.00000000000E+00 0. -1.
         24    2    1    2    0    0 -0.44992946539E+03 -0.34099613358E+03 -0.18281996945E+02  0.57036573933E+03  0.79170437937E+02 0.  0.
        254    2    1    2    0    0  0.44992946539E+03  0.34099613358E+03  0.30440914891E+03  0.11087790452E+04  0.90443969077E+03 0.  0.
         23    2    4    4    0    0 -0.19226881066E+03 -0.25296890958E+02  0.29396745463E+03  0.36355534902E+03  0.90268483840E+02 0.  0.
         23    2    4    4    0    0  0.64219827605E+03  0.36629302454E+03  0.10441694279E+02  0.74522369620E+03  0.93059780865E+02 0.  0.
          2    1    3    3  502    0 -0.39611087268E+03 -0.32902363085E+03 -0.16859623660E+02  0.51521317920E+03  0.00000000000E+00 0. -1.
         -1    1    3    3    0  502 -0.53818592706E+02 -0.11972502734E+02 -0.14223732856E+01  0.55152560125E+02  0.00000000000E+00 0.  1.
         13    1    5    5    0    0 -0.13961122390E+03  0.22404133942E+02  0.17498730596E+03  0.22497510152E+03  0.00000000000E+00 0. -1.
        -13    1    5    5    0    0 -0.52657586761E+02 -0.47701024900E+02  0.11898014867E+03  0.13858024750E+03  0.00000000000E+00 0.  1.
          1    1    6    6  503    0  0.45483940073E+03  0.21545786847E+03  0.27886297426E+02  0.50406211832E+03  0.00000000000E+00 0. -1.
         -1    1    6    6    0  503  0.18735887532E+03  0.15083515607E+03 -0.17444603147E+02  0.24116157788E+03  0.00000000000E+00 0.  1.
<mgrwt>
<rscale>  0 0.16545871E+04</rscale>
<asrwt>0</asrwt>
<pdfrwt beam="1">  1        2 0.10715520E+00 0.16545871E+04</pdfrwt>
<pdfrwt beam="2">  1       -1 0.15117476E+00 0.16545871E+04</pdfrwt>
<totfact> 0.15362529E+01</totfact>
</mgrwt>
</event>
<event>
12    7  0.1611233E-007  0.1528995E+04  0.7818608E-02  0.8865398E-01
          2   -1    0    0  501    0  0.00000000000E+00  0.00000000000E+00  0.42673561148E+03  0.42673561148E+03  0.00000000000E+00 0. -1.
         -1   -1    0    0    0  501 -0.00000000000E+00 -0.00000000000E+00 -0.13695977875E+04  0.13695977875E+04  0.00000000000E+00 0.  1.
         24    2    1    2    0    0  0.43535974734E+03 -0.94859173945E+02 -0.54855586714E+03  0.71287987878E+03  0.93529726327E+02 0.  0.
        254    2    1    2    0    0 -0.43535974734E+03  0.94859173945E+02 -0.39430630887E+03  0.10834535202E+04  0.90545993434E+03 0.  0.
         23    2    4    4    0    0 -0.44586384250E+03 -0.12923449486E+03  0.14280948159E+03  0.49432378299E+03  0.92007248025E+02 0.  0.
         23    2    4    4    0    0  0.10504095156E+02  0.22409366880E+03 -0.53711579046E+03  0.58912973719E+03  0.90841435871E+02 0.  0.
          4    1    3    3  502    0  0.12217206616E+01 -0.53713276411E+01  0.21753330732E+01  0.59224856254E+01  0.00000000000E+00 0. -1.
         -3    1    3    3    0  502  0.43413802668E+03 -0.89487846304E+02 -0.55073120021E+03  0.70695739315E+03  0.00000000000E+00 0.  1.
         13    1    5    5    0    0 -0.42276115165E+02  0.42756802624E+01 -0.80566638400E+01  0.43248828740E+02  0.00000000000E+00 0.  1.
        -13    1    5    5    0    0 -0.40358772733E+03 -0.13351017512E+03  0.15086614543E+03  0.45107495425E+03  0.00000000000E+00 0. -1.
          3    1    6    6  503    0 -0.33548315957E+02  0.10913347961E+03 -0.31686015250E+03  0.33680255658E+03  0.00000000000E+00 0. -1.
         -3    1    6    6    0  503  0.44052411113E+02  0.11496018919E+03 -0.22025563796E+03  0.25232718062E+03  0.00000000000E+00 0.  1.
<mgrwt>
<rscale>  0 0.15289946E+04</rscale>
<asrwt>0</asrwt>
<pdfrwt beam="1">  1        2 0.65651632E-01 0.15289946E+04</pdfrwt>
<pdfrwt beam="2">  1       -1 0.21070735E+00 0.15289946E+04</pdfrwt>
<totfact> 0.10358897E+01</totfact>
</mgrwt>
</event>
<event>
12    7  0.1611233E-007  0.2782921E+04  0.7818608E-02  0.8308590E-01
         -1   -1    0    0    0  501 -0.00000000000E+00  0.00000000000E+00  0.16339323226E+04  0.16339323226E+04  0.00000000000E+00 0.  1.
          2   -1    0    0  501    0  0.00000000000E+00 -0.00000000000E+00 -0.11849711303E+04  0.11849711303E+04  0.00000000000E+00 0. -1.
         24    2    1    2    0    0  0.81745801021E+03 -0.51708536736E+03 -0.58602905200E+03  0.11337307230E+04  0.79375228813E+02 0.  0.
        254    2    1    2    0    0 -0.81745801021E+03  0.51708536736E+03  0.10349902444E+04  0.16851727299E+04  0.91268146034E+03 0.  0.
         23    2    4    4    0    0 -0.70360113049E+03  0.71520937650E+03  0.56513358210E+03  0.11551093810E+04  0.91228906474E+02 0.  0.
         23    2    4    4    0    0 -0.11385687972E+03 -0.19812400914E+03  0.46985666225E+03  0.53006334889E+03  0.89360834354E+02 0.  0.
          2    1    3    3  502    0  0.75496570051E+03 -0.48064433641E+03 -0.56496837918E+03  0.10583862511E+04  0.00000000000E+00 0. -1.
         -1    1    3    3    0  502  0.62492309696E+02 -0.36441030955E+02 -0.21060672821E+02  0.75344471913E+02  0.00000000000E+00 0.  1.
         13    1    5    5    0    0 -0.64101698658E+03  0.66310276342E+03  0.49029612142E+03  0.10445086589E+04  0.00000000000E+00 0.  1.
        -13    1    5    5    0    0 -0.62584143902E+02  0.52106613089E+02  0.74837460678E+02  0.11060072204E+03  0.00000000000E+00 0. -1.
          3    1    6    6  503    0 -0.52803062483E+02 -0.37404166745E+02  0.72910516641E+02  0.97484247621E+02  0.00000000000E+00 0. -1.
         -3    1    6    6    0  503 -0.61053817237E+02 -0.16071984240E+03  0.39694614561E+03  0.43257910127E+03  0.00000000000E+00 0.  1.
<mgrwt>
<rscale>  0 0.27829212E+04</rscale>
<asrwt>0</asrwt>
<pdfrwt beam="1">  1        2 0.18230325E+00 0.27829212E+04</pdfrwt>
<pdfrwt beam="2">  1       -1 0.25137420E+00 0.27829212E+04</pdfrwt>
<totfact> 0.13112040E+00</totfact>
</mgrwt>
</event>
<event>
12    7  0.1611233E-007  0.1669437E+04  0.7818608E-02  0.8778990E-01
          2   -1    0    0  501    0  0.00000000000E+00  0.00000000000E+00  0.13096359744E+04  0.13096359744E+04  0.00000000000E+00 0. -1.
         -1   -1    0    0    0  501 -0.00000000000E+00 -0.00000000000E+00 -0.53202204497E+03  0.53202204497E+03  0.00000000000E+00 0.  1.
         24    2    1    2    0    0 -0.53714949345E+03  0.16138346329E+03  0.55057335495E+03  0.79015282227E+03  0.81463260527E+02 0.  0.
        254    2    1    2    0    0  0.53714949345E+03 -0.16138346329E+03  0.22704057450E+03  0.10515051971E+04  0.85996602058E+03 0.  0.
         23    2    4    4    0    0  0.64596987292E+03 -0.34938468386E+03  0.23962645170E+02  0.74028571370E+03  0.90011085426E+02 0.  0.
         23    2    4    4    0    0 -0.10882037947E+03  0.18800122057E+03  0.20307792933E+03  0.31121948342E+03  0.91818231047E+02 0.  0.
          4    1    3    3  502    0 -0.43579116834E+03  0.14991974689E+03  0.48416919321E+03  0.66843823990E+03  0.00000000000E+00 0. -1.
         -3    1    3    3    0  502 -0.10135832512E+03  0.11463716398E+02  0.66404161736E+02  0.12171458236E+03  0.00000000000E+00 0.  1.
         13    1    5    5    0    0  0.62345324428E+03 -0.35248039991E+03  0.16577687402E+02  0.71638760447E+03  0.00000000000E+00 0.  1.
        -13    1    5    5    0    0  0.22516628645E+02  0.30957160459E+01  0.73849577674E+01  0.23898109227E+02  0.00000000000E+00 0. -1.
          3    1    6    6  503    0  0.18349313093E+01  0.49043987192E+02  0.12399909083E+02  0.50620523485E+02  0.00000000000E+00 0. -1.
         -3    1    6    6    0  503 -0.11065531078E+03  0.13895723338E+03  0.19067802025E+03  0.26059895993E+03  0.00000000000E+00 0.  1.
<mgrwt>
<rscale>  0 0.16694373E+04</rscale>
<asrwt>0</asrwt>
<pdfrwt beam="1">  1        2 0.20148246E+00 0.16694373E+04</pdfrwt>
<pdfrwt beam="2">  1       -1 0.81849546E-01 0.16694373E+04</pdfrwt>
<totfact> 0.26358932E+01</totfact>
</mgrwt>
</event>
<event>
12    7  0.1611233E-007  0.1071450E+04  0.7818608E-02  0.9233475E-01
         -1   -1    0    0    0  501 -0.00000000000E+00  0.00000000000E+00  0.25866868654E+03  0.25866868654E+03  0.00000000000E+00 0.  1.
          2   -1    0    0  501    0  0.00000000000E+00 -0.00000000000E+00 -0.11095316652E+04  0.11095316652E+04  0.00000000000E+00 0. -1.
         24    2    1    2    0    0  0.45933421205E+01  0.13116552436E+03 -0.32522888214E+03  0.36632794350E+03  0.10581513524E+03 0.  0.
        254    2    1    2    0    0 -0.45933421205E+01 -0.13116552436E+03 -0.52563409656E+03  0.10018724083E+04  0.84275241051E+03 0.  0.
         23    2    4    4    0    0  0.33069415204E+03  0.34082858886E+02 -0.51184735954E+03  0.61674906871E+03  0.88721084411E+02 0.  0.
         23    2    4    4    0    0 -0.33528749416E+03 -0.16524838324E+03 -0.13786737024E+02  0.38512333957E+03  0.91679772327E+02 0.  0.
          4    1    3    3  502    0 -0.17433285609E+02  0.29307583126E+02 -0.20237406051E+03  0.20522698225E+03  0.00000000000E+00 0. -1.
         -3    1    3    3    0  502  0.22026627730E+02  0.10185794123E+03 -0.12285482163E+03  0.16110096126E+03  0.00000000000E+00 0.  1.
         13    1    5    5    0    0  0.30047456933E+03  0.56894236281E+01 -0.46976049819E+03  0.55766680196E+03  0.00000000000E+00 0. -1.
        -13    1    5    5    0    0  0.30219582714E+02  0.28393435258E+02 -0.42086861347E+02  0.59082266741E+02  0.00000000000E+00 0.  1.
          2    1    6    6  503    0 -0.25322067144E+03 -0.85203613913E+02  0.12668694605E+02  0.26747123227E+03  0.00000000000E+00 0. -1.
         -2    1    6    6    0  503 -0.82066822726E+02 -0.80044769329E+02 -0.26455431629E+02  0.11765210730E+03  0.00000000000E+00 0.  1.
<mgrwt>
<rscale>  0 0.10714497E+04</rscale>
<asrwt>0</asrwt>
<pdfrwt beam="1">  1        2 0.17069718E+00 0.10714497E+04</pdfrwt>
<pdfrwt beam="2">  1       -1 0.39795182E-01 0.10714497E+04</pdfrwt>
<totfact> 0.14969953E+02</totfact>
</mgrwt>
</event>
<event>
12    7  0.1611233E-007  0.1829383E+04  0.7818608E-02  0.8690828E-01
         -1   -1    0    0    0  501 -0.00000000000E+00  0.00000000000E+00  0.32616790719E+03  0.32616790719E+03  0.00000000000E+00 0.  1.
          2   -1    0    0  501    0  0.00000000000E+00 -0.00000000000E+00 -0.25651216734E+04  0.25651216734E+04  0.00000000000E+00 0. -1.
         24    2    1    2    0    0  0.51279235731E+03 -0.13708803171E+03 -0.23105362856E+03  0.58495565677E+03  0.83894046039E+02 0.  0.
        254    2    1    2    0    0 -0.51279235731E+03  0.13708803171E+03 -0.20079001377E+04  0.23063339238E+04  0.10028778965E+04 0.  0.
         23    2    4    4    0    0 -0.52518566690E+03  0.25747324551E+03 -0.20670123040E+04  0.21502073528E+04  0.93484428249E+02 0.  0.
         23    2    4    4    0    0  0.12393309583E+02 -0.12038521380E+03  0.59112166305E+02  0.15612657104E+03  0.78962422433E+02 0.  0.
          4    1    3    3  502    0  0.57450949007E+02  0.10587270265E+02 -0.31122766564E+02  0.66191603939E+02  0.00000000000E+00 0. -1.
         -3    1    3    3    0  502  0.45534140831E+03 -0.14767530198E+03 -0.19993086199E+03  0.51876405283E+03  0.00000000000E+00 0.  1.
         13    1    5    5    0    0 -0.21368123845E+03  0.14061018466E+03 -0.10211894299E+04  0.10527386890E+04  0.00000000000E+00 0. -1.
        -13    1    5    5    0    0 -0.31150442844E+03  0.11686306085E+03 -0.10458228741E+04  0.10974686638E+04  0.00000000000E+00 0.  1.
          4    1    6    6  503    0 -0.18789154180E+02 -0.89673872305E+02  0.64473757685E+02  0.11203258954E+03  0.00000000000E+00 0. -1.
         -4    1    6    6    0  503  0.31182463763E+02 -0.30711341496E+02 -0.53615913802E+01  0.44093981504E+02  0.00000000000E+00 0.  1.
<mgrwt>
<rscale>  0 0.18293828E+04</rscale>
<asrwt>0</asrwt>
<pdfrwt beam="1">  1        2 0.39463410E+00 0.18293828E+04</pdfrwt>
<pdfrwt beam="2">  1       -1 0.50179678E-01 0.18293828E+04</pdfrwt>
<totfact> 0.13654544E+01</totfact>
</mgrwt>
</event>
<event>
12    7  0.1611233E-007  0.1660119E+04  0.7818608E-02  0.8784443E-01
          2   -1    0    0  501    0  0.00000000000E+00  0.00000000000E+00  0.61515886209E+03  0.61515886209E+03  0.00000000000E+00 0. -1.
         -3   -1    0    0    0  501 -0.00000000000E+00 -0.00000000000E+00 -0.11200336641E+04  0.11200336641E+04  0.00000000000E+00 0.  1.
         24    2    1    2    0    0 -0.47053314616E+03 -0.14748141319E+03 -0.48000078908E+03  0.69276103996E+03  0.79780273869E+02 0.  0.
        254    2    1    2    0    0  0.47053314616E+03  0.14748141319E+03 -0.24874012958E+02  0.10424314862E+04  0.91809175910E+03 0.  0.
         23    2    4    4    0    0  0.42720410137E+03 -0.61901592394E+02  0.37537710011E+03  0.57965942486E+03  0.93605182412E+02 0.  0.
         23    2    4    4    0    0  0.43329044793E+02  0.20938300559E+03 -0.40025111307E+03  0.46277206139E+03  0.90765511815E+02 0.  0.
          2    1    3    3  502    0 -0.37726683837E+03 -0.14199739466E+03 -0.41756643778E+03  0.58039233057E+03  0.00000000000E+00 0. -1.
         -1    1    3    3    0  502 -0.93266307792E+02 -0.54840185296E+01 -0.62434351303E+02  0.11236870940E+03  0.00000000000E+00 0.  1.
         13    1    5    5    0    0  0.34423996220E+03 -0.18549141058E+02  0.26427985413E+03  0.43438354424E+03  0.00000000000E+00 0. -1.
        -13    1    5    5    0    0  0.82964139174E+02 -0.43352451337E+02  0.11109724598E+03  0.14527588062E+03  0.00000000000E+00 0.  1.
          2    1    6    6  503    0  0.46833921534E+02  0.14928677993E+03 -0.35341479920E+03  0.38649964962E+03  0.00000000000E+00 0. -1.
         -2    1    6    6    0  503 -0.35048767405E+01  0.60096225652E+02 -0.46836313873E+02  0.76272411760E+02  0.00000000000E+00 0.  1.
<mgrwt>
<rscale>  0 0.16601188E+04</rscale>
<asrwt>0</asrwt>
<pdfrwt beam="1">  1        2 0.94639826E-01 0.16601188E+04</pdfrwt>
<pdfrwt beam="2">  1       -3 0.17231287E+00 0.16601188E+04</pdfrwt>
<totfact> 0.64273599E+00</totfact>
</mgrwt>
</event>
<event>
12    7  0.1611233E-007  0.2260061E+04  0.7818608E-02  0.8493837E-01
         -1   -1    0    0    0  501 -0.00000000000E+00  0.00000000000E+00  0.66167194158E+03  0.66167194158E+03  0.00000000000E+00 0.  1.
          2   -1    0    0  501    0  0.00000000000E+00 -0.00000000000E+00 -0.19299118400E+04  0.19299118400E+04  0.00000000000E+00 0. -1.
         24    2    1    2    0    0 -0.36658021387E+03  0.26402347970E+03  0.42242189306E+03  0.62358544307E+03  0.79555628574E+02 0.  0.
        254    2    1    2    0    0  0.36658021387E+03 -0.26402347970E+03 -0.16906617915E+04  0.19679983386E+04  0.90032811589E+03 0.  0.
         23    2    4    4    0    0 -0.65590300914E+01  0.22689367894E+03 -0.10293035454E+04  0.10579815861E+04  0.91298879551E+02 0.  0.
         23    2    4    4    0    0  0.37313924396E+03 -0.49091715864E+03 -0.66135824608E+03  0.91001675249E+03  0.10248516050E+03 0.  0.
          4    1    3    3  502    0 -0.13954621186E+03  0.57627596495E+02  0.12114616174E+03  0.19357292587E+03  0.00000000000E+00 0. -1.
         -3    1    3    3    0  502 -0.22703400201E+03  0.20639588320E+03  0.30127573131E+03  0.43001251720E+03  0.00000000000E+00 0.  1.
         13    1    5    5    0    0 -0.34759891699E+02  0.19145368792E+03 -0.74005240049E+03  0.76520606386E+03  0.00000000000E+00 0. -1.
        -13    1    5    5    0    0  0.28200861607E+02  0.35439991023E+02 -0.28925114494E+03  0.29277552221E+03  0.00000000000E+00 0.  1.
          1    1    6    6  503    0  0.28169854591E+03 -0.42174838235E+03 -0.57335957046E+03  0.76548479137E+03  0.00000000000E+00 0. -1.
         -1    1    6    6    0  503  0.91440698055E+02 -0.69168776287E+02 -0.87998675622E+02  0.14453196112E+03  0.00000000000E+00 0.  1.
<mgrwt>
<rscale>  0 0.22600606E+04</rscale>
<asrwt>0</asrwt>
<pdfrwt beam="1">  1        2 0.29690951E+00 0.22600606E+04</pdfrwt>
<pdfrwt beam="2">  1       -1 0.10179568E+00 0.22600606E+04</pdfrwt>
<totfact> 0.69220730E+00</totfact>
</mgrwt>
</event>
<event>
12    7  0.1611233E-007  0.3740158E+04  0.7818608E-02  0.8059120E-01
          2   -1    0    0  501    0  0.00000000000E+00  0.00000000000E+00  0.29937139292E+04  0.29937139292E+04  0.00000000000E+00 0. -1.
         -1   -1    0    0    0  501 -0.00000000000E+00 -0.00000000000E+00 -0.11681796683E+04  0.11681796683E+04  0.00000000000E+00 0.  1.
         24    2    1    2    0    0  0.68920730997E+03  0.31738052912E+03 -0.90859801253E+03  0.11863166878E+04  0.77844839938E+02 0.  0.
        254    2    1    2    0    0 -0.68920730997E+03 -0.31738052912E+03  0.27341322735E+04  0.29755769096E+04  0.89601425205E+03 0.  0.
         23    2    4    4    0    0 -0.63061179194E+03 -0.57165564756E+03  0.16806384436E+04  0.18863309406E+04  0.96111538626E+02 0.  0.
         23    2    4    4    0    0 -0.58595518025E+02  0.25427511844E+03  0.10534938299E+04  0.10892459690E+04  0.92294424825E+02 0.  0.
          4    1    3    3  502    0  0.12425714328E+03  0.68801403541E+02 -0.12815975155E+03  0.19130706391E+03  0.00000000000E+00 0. -1.
         -3    1    3    3    0  502  0.56495016669E+03  0.24857912558E+03 -0.78043826098E+03  0.99500962393E+03  0.00000000000E+00 0.  1.
         13    1    5    5    0    0 -0.17447357182E+03 -0.10543205824E+03  0.37434051022E+03  0.42624847655E+03  0.00000000000E+00 0. -1.
        -13    1    5    5    0    0 -0.45613822012E+03 -0.46622358932E+03  0.13062979334E+04  0.14600824640E+04  0.00000000000E+00 0.  1.
          3    1    6    6  503    0 -0.37327799981E+02  0.10366355444E+03  0.27920254593E+03  0.30015589088E+03  0.00000000000E+00 0. -1.
         -3    1    6    6    0  503 -0.21267718044E+02  0.15061156400E+03  0.77429128395E+03  0.78909007816E+03  0.00000000000E+00 0.  1.
<mgrwt>
<rscale>  0 0.37401581E+04</rscale>
<asrwt>0</asrwt>
<pdfrwt beam="1">  1        2 0.46057137E+00 0.37401581E+04</pdfrwt>
<pdfrwt beam="2">  1       -1 0.17971995E+00 0.37401581E+04</pdfrwt>
<totfact> 0.33591055E-01</totfact>
</mgrwt>
</event>
<event>
12    7  0.1611233E-007  0.1362725E+04  0.7818608E-02  0.8981251E-01
          2   -1    0    0  501    0  0.00000000000E+00  0.00000000000E+00  0.88094842310E+03  0.88094842310E+03  0.00000000000E+00 0. -1.
         -1   -1    0    0    0  501 -0.00000000000E+00 -0.00000000000E+00 -0.52699473454E+03  0.52699473454E+03  0.00000000000E+00 0.  1.
         24    2    1    2    0    0 -0.15752814358E+03  0.16445485484E+03 -0.22170155562E+03  0.32771576429E+03  0.79909493156E+02 0.  0.
        254    2    1    2    0    0  0.15752814358E+03 -0.16445485484E+03  0.57565524418E+03  0.10802273933E+04  0.88524106653E+03 0.  0.
         23    2    4    4    0    0  0.62277518470E+01 -0.50000762981E+03  0.45512535795E+03  0.68239736989E+03  0.92090521869E+02 0.  0.
         23    2    4    4    0    0  0.15130039174E+03  0.33555277497E+03  0.12052988624E+03  0.39783002346E+03  0.90850430723E+02 0.  0.
          2    1    3    3  502    0 -0.54525850590E+02  0.15324568398E+02 -0.30762277776E+02  0.64453304904E+02  0.00000000000E+00 0. -1.
         -1    1    3    3    0  502 -0.10300229299E+03  0.14913028645E+03 -0.19093927785E+03  0.26326245939E+03  0.00000000000E+00 0.  1.
         13    1    5    5    0    0  0.46188298717E+02 -0.35652799130E+03  0.32008656925E+03  0.48135327914E+03  0.00000000000E+00 0.  1.
        -13    1    5    5    0    0 -0.39960546870E+02 -0.14347963851E+03  0.13503878869E+03  0.20104409075E+03  0.00000000000E+00 0. -1.
          2    1    6    6  503    0  0.77039242828E+02  0.84019672900E+02  0.59370443183E+02  0.12852703954E+03  0.00000000000E+00 0. -1.
         -2    1    6    6    0  503  0.74261148908E+02  0.25153310207E+03  0.61159443054E+02  0.26930298392E+03  0.00000000000E+00 0.  1.
<mgrwt>
<rscale>  0 0.13627255E+04</rscale>
<asrwt>0</asrwt>
<pdfrwt beam="1">  1        2 0.13553053E+00 0.13627255E+04</pdfrwt>
<pdfrwt beam="2">  1       -1 0.81076113E-01 0.13627255E+04</pdfrwt>
<totfact> 0.51031654E+01</totfact>
</mgrwt>
</event>
<event>
12    7  0.1611233E-007  0.1885079E+04  0.7818608E-02  0.8662320E-01
         -1   -1    0    0    0  501 -0.00000000000E+00  0.00000000000E+00  0.91664956960E+03  0.91664956960E+03  0.00000000000E+00 0.  1.
          2   -1    0    0  501    0  0.00000000000E+00 -0.00000000000E+00 -0.96916016457E+03  0.96916016457E+03  0.00000000000E+00 0. -1.
         24    2    1    2    0    0 -0.70233847845E+03  0.24475741675E+02 -0.20773245426E+03  0.73721588315E+03  0.80349770224E+02 0.  0.
        254    2    1    2    0    0  0.70233847845E+03 -0.24475741675E+02  0.15522185929E+03  0.11485938510E+04  0.89515116531E+03 0.  0.
         23    2    4    4    0    0  0.47699689016E+03 -0.63353173558E+02  0.51641842859E+03  0.71163871019E+03  0.90564908377E+02 0.  0.
         23    2    4    4    0    0  0.22534158829E+03  0.38877431883E+02 -0.36119656930E+03  0.43695514083E+03  0.90424262789E+02 0.  0.
          2    1    3    3  502    0 -0.64545283307E+03  0.43238866858E+02 -0.18193333903E+03  0.67199605592E+03  0.00000000000E+00 0. -1.
         -3    1    3    3    0  502 -0.56885645379E+02 -0.18763125184E+02 -0.25799115232E+02  0.65219827227E+02  0.00000000000E+00 0.  1.
         13    1    5    5    0    0  0.13060032289E+02  0.94321136005E+01  0.37890971909E+02  0.41173474016E+02  0.00000000000E+00 0.  1.
        -13    1    5    5    0    0  0.46393685788E+03 -0.72785287159E+02  0.47852745668E+03  0.67046523617E+03  0.00000000000E+00 0. -1.
          4    1    6    6  503    0  0.22207879596E+03  0.41228351093E+02 -0.36637040494E+03  0.43040218653E+03  0.00000000000E+00 0. -1.
         -4    1    6    6    0  503  0.32627923215E+01 -0.23509192099E+01  0.51738356393E+01  0.65529543022E+01  0.00000000000E+00 0.  1.
<mgrwt>
<rscale>  0 0.18850785E+04</rscale>
<asrwt>0</asrwt>
<pdfrwt beam="1">  1        2 0.14910156E+00 0.18850785E+04</pdfrwt>
<pdfrwt beam="2">  1       -1 0.14102301E+00 0.18850785E+04</pdfrwt>
<totfact> 0.11604220E+01</totfact>
</mgrwt>
</event>
<event>
12    7  0.1611233E-007  0.1845911E+04  0.7818608E-02  0.8682259E-01
          2   -1    0    0  501    0  0.00000000000E+00  0.00000000000E+00  0.20347112593E+04  0.20347112593E+04  0.00000000000E+00 0. -1.
         -1   -1    0    0    0  501 -0.00000000000E+00 -0.00000000000E+00 -0.41865728756E+03  0.41865728756E+03  0.00000000000E+00 0.  1.
         24    2    1    2    0    0  0.15502412350E+03 -0.64457533416E+02 -0.29173589238E+03  0.34614506781E+03  0.80742334497E+02 0.  0.
        254    2    1    2    0    0 -0.15502412350E+03  0.64457533416E+02  0.19077898642E+04  0.21072234791E+04  0.87894332726E+03 0.  0.
         23    2    4    4    0    0 -0.32544490441E+03  0.92229031465E+02  0.18779573300E+04  0.19103639627E+04  0.91357301869E+02 0.  0.
         23    2    4    4    0    0  0.17042078091E+03 -0.27771498049E+02  0.29832534191E+02  0.19685951642E+03  0.89717280622E+02 0.  0.
          2    1    3    3  502    0  0.68757003145E+02 -0.38111638102E+02 -0.64587322436E+02  0.10174254105E+03  0.00000000000E+00 0. -1.
         -1    1    3    3    0  502  0.86267120357E+02 -0.26345895314E+02 -0.22714856995E+03  0.24440252675E+03  0.00000000000E+00 0.  1.
         13    1    5    5    0    0 -0.97511667140E+02  0.40136986823E+01  0.36641693485E+03  0.37919125142E+03  0.00000000000E+00 0.  1.
        -13    1    5    5    0    0 -0.22793323727E+03  0.88215332783E+02  0.15115403951E+04  0.15311727112E+04  0.00000000000E+00 0. -1.
          4    1    6    6  503    0  0.12118377977E+03 -0.25393713369E+02 -0.21525028362E+02  0.12567289287E+03  0.00000000000E+00 0. -1.
         -4    1    6    6    0  503  0.49237001139E+02 -0.23777846796E+01  0.51357562553E+02  0.71186623550E+02  0.00000000000E+00 0.  1.
<mgrwt>
<rscale>  0 0.18459108E+04</rscale>
<asrwt>0</asrwt>
<pdfrwt beam="1">  1        2 0.31303250E+00 0.18459108E+04</pdfrwt>
<pdfrwt beam="2">  1       -1 0.64408815E-01 0.18459108E+04</pdfrwt>
<totfact> 0.16731152E+01</totfact>
</mgrwt>
</event>
<event>
12    7  0.1611233E-007  0.2387183E+04  0.7818608E-02  0.8444318E-01
         -1   -1    0    0    0  501 -0.00000000000E+00  0.00000000000E+00  0.58370584494E+03  0.58370584494E+03  0.00000000000E+00 0.  1.
          2   -1    0    0  501    0  0.00000000000E+00 -0.00000000000E+00 -0.24407160746E+04  0.24407160746E+04  0.00000000000E+00 0. -1.
         24    2    1    2    0    0 -0.60795788932E+02  0.87033479399E+03 -0.13595701991E+03  0.88738624918E+03  0.88268127806E+02 0.  0.
        254    2    1    2    0    0  0.60795788932E+02 -0.87033479399E+03 -0.17210532097E+04  0.21370356704E+04  0.91854152001E+03 0.  0.
         23    2    4    4    0    0  0.43061323918E+03 -0.24460460290E+03 -0.94191530870E+03  0.10681053787E+04  0.91572254214E+02 0.  0.
         23    2    4    4    0    0 -0.36981745024E+03 -0.62573019109E+03 -0.77913790105E+03  0.10689302916E+04  0.85163847937E+02 0.  0.
          2    1    3    3  502    0 -0.49156947857E+02  0.23428710594E+03 -0.59351465182E+02  0.24663627056E+03  0.00000000000E+00 0. -1.
         -1    1    3    3    0  502 -0.11638841075E+02  0.63604768805E+03 -0.76605554730E+02  0.64074997863E+03  0.00000000000E+00 0.  1.
         13    1    5    5    0    0  0.15813794232E+03 -0.76183326807E+02 -0.24812322659E+03  0.30393526228E+03  0.00000000000E+00 0. -1.
        -13    1    5    5    0    0  0.27247529686E+03 -0.16842127609E+03 -0.69379208211E+03  0.76417011642E+03  0.00000000000E+00 0.  1.
          4    1    6    6  503    0 -0.69559674092E+01 -0.49187380647E+02 -0.67280923682E+02  0.83633166800E+02  0.00000000000E+00 0. -1.
         -4    1    6    6    0  503 -0.36286148284E+03 -0.57654281045E+03 -0.71185697737E+03  0.98529712485E+03  0.00000000000E+00 0.  1.
<mgrwt>
<rscale>  0 0.23871826E+04</rscale>
<asrwt>0</asrwt>
<pdfrwt beam="1">  1        2 0.37549479E+00 0.23871826E+04</pdfrwt>
<pdfrwt beam="2">  1       -1 0.89800898E-01 0.23871826E+04</pdfrwt>
<totfact> 0.46819979E+00</totfact>
</mgrwt>
</event>
<event>
12    7  0.1611233E-007  0.1647166E+04  0.7818608E-02  0.8792085E-01
          2   -1    0    0  501    0  0.00000000000E+00  0.00000000000E+00  0.92480436922E+03  0.92480436922E+03  0.00000000000E+00 0. -1.
         -1   -1    0    0    0  501 -0.00000000000E+00 -0.00000000000E+00 -0.73344005641E+03  0.73344005641E+03  0.00000000000E+00 0.  1.
         24    2    1    2    0    0 -0.31586798292E+03  0.82065645409E+02 -0.41451719662E+03  0.53355064492E+03  0.79651940400E+02 0.  0.
        254    2    1    2    0    0  0.31586798292E+03 -0.82065645409E+02  0.60588150943E+03  0.11246937807E+04  0.88957087638E+03 0.  0.
         23    2    4    4    0    0  0.52218852362E+03  0.20265036671E+03  0.46975607255E+03  0.73696459400E+03  0.93263174878E+02 0.  0.
         23    2    4    4    0    0 -0.20632054070E+03 -0.28471601211E+03  0.13612543688E+03  0.38772918671E+03  0.90401408119E+02 0.  0.
          2    1    3    3  502    0 -0.22664513496E+02  0.12916039134E+02 -0.76248484967E+02  0.80587441321E+02  0.00000000000E+00 0. -1.
         -1    1    3    3    0  502 -0.29320346943E+03  0.69149606275E+02 -0.33826871166E+03  0.45296320360E+03  0.00000000000E+00 0.  1.
         13    1    5    5    0    0  0.15919978174E+03  0.25952775834E+02  0.16833939786E+03  0.23314431143E+03  0.00000000000E+00 0. -1.
        -13    1    5    5    0    0  0.36298874188E+03  0.17669759087E+03  0.30141667469E+03  0.50382028257E+03  0.00000000000E+00 0.  1.
          1    1    6    6  503    0 -0.89301791156E+02 -0.10587928693E+03  0.84297705986E+01  0.13876705062E+03  0.00000000000E+00 0. -1.
         -1    1    6    6    0  503 -0.11701874954E+03 -0.17883672519E+03  0.12769566628E+03  0.24896213609E+03  0.00000000000E+00 0.  1.
<mgrwt>
<rscale>  0 0.16471655E+04</rscale>
<asrwt>0</asrwt>
<pdfrwt beam="1">  1        2 0.14227759E+00 0.16471655E+04</pdfrwt>
<pdfrwt beam="2">  1       -1 0.11283693E+00 0.16471655E+04</pdfrwt>
<totfact> 0.22105043E+01</totfact>
</mgrwt>
</event>
<event>
12    7  0.1611233E-007  0.2830889E+04  0.7818608E-02  0.8293742E-01
          2   -1    0    0  501    0  0.00000000000E+00  0.00000000000E+00  0.34376336072E+04  0.34376336072E+04  0.00000000000E+00 0. -1.
         -1   -1    0    0    0  501 -0.00000000000E+00 -0.00000000000E+00 -0.58280889544E+03  0.58280889544E+03  0.00000000000E+00 0.  1.
         24    2    1    2    0    0  0.50224819291E+03  0.29205203019E+03  0.28913381535E+04  0.29503343771E+04  0.84196099213E+02 0.  0.
        254    2    1    2    0    0 -0.50224819291E+03 -0.29205203019E+03 -0.36513441812E+02  0.10701081255E+04  0.89791454670E+03 0.  0.
         23    2    4    4    0    0 -0.30598601596E+03 -0.42650144123E+03 -0.37112422355E+03  0.64938636107E+03  0.91861500671E+02 0.  0.
         23    2    4    4    0    0 -0.19626217696E+03  0.13444941104E+03  0.33461078174E+03  0.42072176442E+03  0.91907244355E+02 0.  0.
          2    1    3    3  502    0  0.28936326848E+03  0.20389630064E+03  0.18856538673E+04  0.19185920123E+04  0.00000000000E+00 0. -1.
         -1    1    3    3    0  502  0.21288492443E+03  0.88155729554E+02  0.10056842863E+04  0.10317423648E+04  0.00000000000E+00 0.  1.
         13    1    5    5    0    0 -0.15934885941E+03 -0.22476649403E+03 -0.25039556297E+03  0.37230360432E+03  0.00000000000E+00 0.  1.
        -13    1    5    5    0    0 -0.14663715655E+03 -0.20173494721E+03 -0.12072866057E+03  0.27708275675E+03  0.00000000000E+00 0. -1.
          1    1    6    6  503    0 -0.94244404454E+02  0.86830870070E+02  0.10761341683E+03  0.16733874402E+03  0.00000000000E+00 0. -1.
         -1    1    6    6    0  503 -0.10201777250E+03  0.47618540972E+02  0.22699736491E+03  0.25338302040E+03  0.00000000000E+00 0.  1.
<mgrwt>
<rscale>  0 0.28308892E+04</rscale>
<asrwt>0</asrwt>
<pdfrwt beam="1">  1        2 0.52886669E+00 0.28308892E+04</pdfrwt>
<pdfrwt beam="2">  1       -1 0.89662910E-01 0.28308892E+04</pdfrwt>
<totfact> 0.10789055E+00</totfact>
</mgrwt>
</event>
<event>
12    7  0.1611233E-007  0.1677793E+04  0.7818608E-02  0.8774132E-01
          2   -1    0    0  501    0  0.00000000000E+00  0.00000000000E+00  0.18107331924E+04  0.18107331924E+04  0.00000000000E+00 0. -1.
         -1   -1    0    0    0  501 -0.00000000000E+00 -0.00000000000E+00 -0.38865322128E+03  0.38865322128E+03  0.00000000000E+00 0.  1.
         24    2    1    2    0    0  0.10810486707E+03  0.35689382516E+03  0.11392882685E+04  0.12013918348E+04  0.79402249496E+02 0.  0.
        254    2    1    2    0    0 -0.10810486707E+03 -0.35689382516E+03  0.28279170258E+03  0.99799457886E+03  0.88145457493E+03 0.  0.
         23    2    4    4    0    0 -0.30503919624E+02 -0.13729280461E+02  0.54294671474E+03  0.55093587318E+03  0.87293866112E+02 0.  0.
         23    2    4    4    0    0 -0.77600947443E+02 -0.34316454470E+03 -0.26015501216E+03  0.44705870567E+03  0.91635387189E+02 0.  0.
          2    1    3    3  502    0  0.34740666956E+02  0.20485762273E+03  0.72042657921E+03  0.74979198152E+03  0.00000000000E+00 0. -1.
         -1    1    3    3    0  502  0.73364200111E+02  0.15203620243E+03  0.41886168932E+03  0.45159985328E+03  0.00000000000E+00 0.  1.
         13    1    5    5    0    0 -0.45967992821E+02 -0.34865419611E+02  0.23908869503E+03  0.24595133246E+03  0.00000000000E+00 0.  1.
        -13    1    5    5    0    0  0.15464073197E+02  0.21136139150E+02  0.30385801971E+03  0.30498454072E+03  0.00000000000E+00 0. -1.
          3    1    6    6  503    0 -0.27997524175E+02 -0.19347614547E+03 -0.90464803620E+02  0.21540835852E+03  0.00000000000E+00 0. -1.
         -3    1    6    6    0  503 -0.49603423268E+02 -0.14968839923E+03 -0.16969020854E+03  0.23165034716E+03  0.00000000000E+00 0.  1.
<mgrwt>
<rscale>  0 0.16777929E+04</rscale>
<asrwt>0</asrwt>
<pdfrwt beam="1">  1        2 0.27857433E+00 0.16777929E+04</pdfrwt>
<pdfrwt beam="2">  1       -1 0.59792804E-01 0.16777929E+04</pdfrwt>
<totfact> 0.26206625E+01</totfact>
</mgrwt>
</event>
<event>
12    7  0.1611233E-007  0.1069064E+04  0.7818608E-02  0.9235880E-01
         -1   -1    0    0    0  501 -0.00000000000E+00  0.00000000000E+00  0.80238298792E+02  0.80238298792E+02  0.00000000000E+00 0.  1.
          2   -1    0    0  501    0  0.00000000000E+00 -0.00000000000E+00 -0.35609467282E+04  0.35609467282E+04  0.00000000000E+00 0. -1.
         24    2    1    2    0    0 -0.10758975870E+02 -0.27239426436E+02 -0.63125647174E+02  0.10587175231E+03  0.79788712813E+02 0.  0.
        254    2    1    2    0    0  0.10758975870E+02  0.27239426436E+02 -0.34175827822E+04  0.35353132747E+04  0.90427326334E+03 0.  0.
         23    2    4    4    0    0 -0.28043682759E+03  0.34022439343E+03 -0.13900409740E+04  0.14610517013E+04  0.89781469696E+02 0.  0.
         23    2    4    4    0    0  0.29119580346E+03 -0.31298496699E+03 -0.20275418082E+04  0.20742615734E+04  0.94237493539E+02 0.  0.
          2    1    3    3  502    0  0.21140026050E+02 -0.43399590775E+02 -0.44007876343E+02  0.65323183948E+02  0.00000000000E+00 0. -1.
         -1    1    3    3    0  502 -0.31899001920E+02  0.16160164340E+02 -0.19117770831E+02  0.40548568365E+02  0.00000000000E+00 0.  1.
         13    1    5    5    0    0 -0.96980308534E+02  0.64378330246E+02 -0.42915593879E+03  0.44466230945E+03  0.00000000000E+00 0. -1.
        -13    1    5    5    0    0 -0.18345651905E+03  0.27584606318E+03 -0.96088503524E+03  0.10163893919E+04  0.00000000000E+00 0.  1.
          3    1    6    6  503    0  0.11139472516E+03 -0.13482595802E+03 -0.10508365165E+04  0.10652906684E+04  0.00000000000E+00 0. -1.
         -3    1    6    6    0  503  0.17980107830E+03 -0.17815900897E+03 -0.97670529174E+03  0.10089709050E+04  0.00000000000E+00 0.  1.
<mgrwt>
<rscale>  0 0.10690637E+04</rscale>
<asrwt>0</asrwt>
<pdfrwt beam="1">  1        2 0.54783795E+00 0.10690637E+04</pdfrwt>
<pdfrwt beam="2">  1       -1 0.12344354E-01 0.10690637E+04</pdfrwt>
<totfact> 0.38984617E+01</totfact>
</mgrwt>
</event>
<event>
12    7  0.1611233E-007  0.1638737E+04  0.7818608E-02  0.8797097E-01
          2   -1    0    0  501    0  0.00000000000E+00  0.00000000000E+00  0.11149050804E+04  0.11149050804E+04  0.00000000000E+00 0. -1.
         -1   -1    0    0    0  501 -0.00000000000E+00 -0.00000000000E+00 -0.60217225880E+03  0.60217225880E+03  0.00000000000E+00 0.  1.
         24    2    1    2    0    0  0.45765890710E+03  0.27931016515E+03  0.37044811971E+03  0.65671659753E+03  0.81111259822E+02 0.  0.
        254    2    1    2    0    0 -0.45765890710E+03 -0.27931016515E+03  0.14228470187E+03  0.10603607416E+04  0.90368917357E+03 0.  0.
         23    2    4    4    0    0 -0.48432221716E+03  0.65343134384E+02 -0.22709848942E+03  0.54649939937E+03  0.90830250311E+02 0.  0.
         23    2    4    4    0    0  0.26663310051E+02 -0.34465329954E+03  0.36938319129E+03  0.51386134228E+03  0.90070572861E+02 0.  0.
          4    1    3    3  502    0  0.36199249851E+03  0.25106888056E+03  0.27944090002E+03  0.52169087434E+03  0.00000000000E+00 0. -1.
         -3    1    3    3    0  502  0.95666408595E+02  0.28241284589E+02  0.91007219686E+02  0.13502572319E+03  0.00000000000E+00 0.  1.
         13    1    5    5    0    0 -0.10681364309E+02 -0.35916743291E+01 -0.24089942379E+02  0.26595431785E+02  0.00000000000E+00 0. -1.
        -13    1    5    5    0    0 -0.47364085285E+03  0.68934808713E+02 -0.20300854704E+03  0.51990396758E+03  0.00000000000E+00 0.  1.
          3    1    6    6  503    0 -0.20989864097E+02 -0.60252010546E+02  0.36734553375E+02  0.73622731417E+02  0.00000000000E+00 0. -1.
         -3    1    6    6    0  503  0.47653174148E+02 -0.28440128899E+03  0.33264863792E+03  0.44023861086E+03  0.00000000000E+00 0.  1.
<mgrwt>
<rscale>  0 0.16387372E+04</rscale>
<asrwt>0</asrwt>
<pdfrwt beam="1">  1        2 0.17152386E+00 0.16387372E+04</pdfrwt>
<pdfrwt beam="2">  1       -1 0.92641886E-01 0.16387372E+04</pdfrwt>
<totfact> 0.26352291E+01</totfact>
</mgrwt>
</event>
<event>
12    7  0.1611233E-007  0.1587046E+04  0.7818608E-02  0.8828546E-01
          4   -1    0    0  501    0  0.00000000000E+00  0.00000000000E+00  0.77512826081E+03  0.77512826081E+03  0.00000000000E+00 0. -1.
         -3   -1    0    0    0  501 -0.00000000000E+00 -0.00000000000E+00 -0.81235425855E+03  0.81235425855E+03  0.00000000000E+00 0.  1.
         24    2    1    2    0    0  0.17070562487E+03  0.71813959513E+02  0.48924713241E+03  0.53110941503E+03  0.91743114287E+02 0.  0.
        254    2    1    2    0    0 -0.17070562487E+03 -0.71813959513E+02 -0.52647313015E+03  0.10563731043E+04  0.89691277371E+03 0.  0.
         23    2    4    4    0    0 -0.11070492539E+02  0.26448460976E+03 -0.60567888189E+03  0.66721746663E+03  0.90871201203E+02 0.  0.
         23    2    4    4    0    0 -0.15963513233E+03 -0.33629856928E+03  0.79205751733E+02  0.38915563770E+03  0.81169304998E+02 0.  0.
          4    1    3    3  502    0  0.87026738293E+02  0.19302547794E+02  0.12385932249E+03  0.15260200948E+03  0.00000000000E+00 0. -1.
         -3    1    3    3    0  502  0.83678886576E+02  0.52511411719E+02  0.36538780991E+03  0.37850740555E+03  0.00000000000E+00 0.  1.
         13    1    5    5    0    0 -0.43566496773E+02  0.11783636809E+03 -0.22036479625E+03  0.25366137410E+03  0.00000000000E+00 0.  1.
        -13    1    5    5    0    0  0.32496004234E+02  0.14664824167E+03 -0.38531408564E+03  0.41355609253E+03  0.00000000000E+00 0. -1.
          2    1    6    6  503    0 -0.73663581861E+02 -0.10932841855E+03  0.62444097676E+02  0.14587080493E+03  0.00000000000E+00 0. -1.
         -2    1    6    6    0  503 -0.85971550468E+02 -0.22697015072E+03  0.16761654058E+02  0.24328483277E+03  0.00000000000E+00 0.  1.
<mgrwt>
<rscale>  0 0.15870460E+04</rscale>
<asrwt>0</asrwt>
<pdfrwt beam="1">  1        4 0.11925050E+00 0.15870460E+04</pdfrwt>
<pdfrwt beam="2">  1       -3 0.12497758E+00 0.15870460E+04</pdfrwt>
<totfact> 0.60423007E-01</totfact>
</mgrwt>
</event>
<event>
12    7  0.1611233E-007  0.1286790E+04  0.7818608E-02  0.9040107E-01
          2   -1    0    0  501    0  0.00000000000E+00  0.00000000000E+00  0.17636285569E+04  0.17636285569E+04  0.00000000000E+00 0. -1.
         -1   -1    0    0    0  501 -0.00000000000E+00 -0.00000000000E+00 -0.23471899277E+03  0.23471899277E+03  0.00000000000E+00 0.  1.
         24    2    1    2    0    0 -0.21139484403E+03  0.13175903371E+02  0.15628314763E+02  0.22800236528E+03  0.82942448960E+02 0.  0.
        254    2    1    2    0    0  0.21139484403E+03 -0.13175903371E+02  0.15132812494E+04  0.17703451844E+04  0.89400254347E+03 0.  0.
         23    2    4    4    0    0 -0.83658869222E+02  0.36499300415E+03  0.94797500234E+03  0.10233621529E+04  0.91623094764E+02 0.  0.
         23    2    4    4    0    0  0.29505371325E+03 -0.37816890752E+03  0.56530624706E+03  0.74698303151E+03  0.91345936287E+02 0.  0.
          4    1    3    3  502    0 -0.79368510022E+01 -0.11421200912E+02 -0.15373657390E+02  0.20731299420E+02  0.00000000000E+00 0. -1.
         -3    1    3    3    0  502 -0.20345799303E+03  0.24597104283E+02  0.31001972153E+02  0.20727106586E+03  0.00000000000E+00 0.  1.
         13    1    5    5    0    0 -0.36110128900E+02  0.30361233552E+03  0.79600539278E+03  0.85270685292E+03  0.00000000000E+00 0.  1.
        -13    1    5    5    0    0 -0.47548740322E+02  0.61380668630E+02  0.15196960957E+03  0.17065530000E+03  0.00000000000E+00 0. -1.
          1    1    6    6  503    0  0.41666113112E+02 -0.48381899704E+02  0.13060319830E+03  0.14537561215E+03  0.00000000000E+00 0. -1.
         -1    1    6    6    0  503  0.25338760014E+03 -0.32978700782E+03  0.43470304876E+03  0.60160741936E+03  0.00000000000E+00 0.  1.
<mgrwt>
<rscale>  0 0.12867900E+04</rscale>
<asrwt>0</asrwt>
<pdfrwt beam="1">  1        2 0.27132746E+00 0.12867900E+04</pdfrwt>
<pdfrwt beam="2">  1       -1 0.36110615E-01 0.12867900E+04</pdfrwt>
<totfact> 0.74116325E+01</totfact>
</mgrwt>
</event>
<event>
12    7  0.1611233E-007  0.1830834E+04  0.7818608E-02  0.8690072E-01
          2   -1    0    0  501    0  0.00000000000E+00  0.00000000000E+00  0.97594392572E+03  0.97594392572E+03  0.00000000000E+00 0. -1.
         -1   -1    0    0    0  501 -0.00000000000E+00 -0.00000000000E+00 -0.85864387712E+03  0.85864387712E+03  0.00000000000E+00 0.  1.
         24    2    1    2    0    0  0.12872792188E+03 -0.10317466411E+03  0.71909685841E+03  0.74114425573E+03  0.70559385209E+02 0.  0.
        254    2    1    2    0    0 -0.12872792188E+03  0.10317466411E+03 -0.60179680982E+03  0.10934435471E+04  0.89791063098E+03 0.  0.
         23    2    4    4    0    0  0.27405212495E+03  0.30793800024E+03 -0.15118910827E+03  0.44877748988E+03  0.92804686212E+02 0.  0.
         23    2    4    4    0    0 -0.40278004683E+03 -0.20476333613E+03 -0.45060770155E+03  0.64466605723E+03  0.91581847011E+02 0.  0.
          4    1    3    3  502    0  0.10770880202E+03 -0.63141556165E+02  0.40494729395E+03  0.42375742239E+03  0.00000000000E+00 0. -1.
         -3    1    3    3    0  502  0.21019119858E+02 -0.40033107943E+02  0.31414956446E+03  0.31738683334E+03  0.00000000000E+00 0.  1.
         13    1    5    5    0    0  0.74733570780E+02  0.54410907607E+02  0.36972580672E+00  0.92443443063E+02  0.00000000000E+00 0. -1.
        -13    1    5    5    0    0  0.19931855417E+03  0.25352709263E+03 -0.15155883407E+03  0.35633404681E+03  0.00000000000E+00 0.  1.
          3    1    6    6  503    0 -0.18137337039E+03 -0.99460664968E+02 -0.14377876407E+03  0.25191477996E+03  0.00000000000E+00 0. -1.
         -3    1    6    6    0  503 -0.22140667644E+03 -0.10530267116E+03 -0.30682893748E+03  0.39275127727E+03  0.00000000000E+00 0.  1.
<mgrwt>
<rscale>  0 0.18308340E+04</rscale>
<asrwt>0</asrwt>
<pdfrwt beam="1">  1        2 0.15014522E+00 0.18308340E+04</pdfrwt>
<pdfrwt beam="2">  1       -1 0.13209906E+00 0.18308340E+04</pdfrwt>
<totfact> 0.13661134E+01</totfact>
</mgrwt>
</event>
<event>
12    7  0.1611233E-007  0.1483825E+04  0.7818608E-02  0.8895281E-01
          2   -1    0    0  501    0  0.00000000000E+00  0.00000000000E+00  0.57881643513E+03  0.57881643513E+03  0.00000000000E+00 0. -1.
         -1   -1    0    0    0  501 -0.00000000000E+00 -0.00000000000E+00 -0.95096518641E+03  0.95096518641E+03  0.00000000000E+00 0.  1.
         24    2    1    2    0    0 -0.14898762887E+03 -0.11293712609E+03  0.32289314431E+03  0.38157778591E+03  0.79934448473E+02 0.  0.
        254    2    1    2    0    0  0.14898762887E+03  0.11293712609E+03 -0.69504189559E+03  0.11482038356E+04  0.89461539419E+03 0.  0.
         23    2    4    4    0    0  0.88128048541E+02  0.23967903269E+03  0.13257696936E+03  0.30378612696E+03  0.97451354432E+02 0.  0.
         23    2    4    4    0    0  0.60859580329E+02 -0.12674190660E+03 -0.82761886495E+03  0.84441770867E+03  0.91218866936E+02 0.  0.
          2    1    3    3  502    0 -0.11737639500E+03 -0.67445590756E+02  0.28171528288E+03  0.31255339772E+03  0.00000000000E+00 0. -1.
         -1    1    3    3    0  502 -0.31611233874E+02 -0.45491535329E+02  0.41177861427E+02  0.69024388193E+02  0.00000000000E+00 0.  1.
         13    1    5    5    0    0  0.20565410835E+02  0.16204866478E+03  0.47096351453E+02  0.17000227116E+03  0.00000000000E+00 0.  1.
        -13    1    5    5    0    0  0.67562637706E+02  0.77630367905E+02  0.85480617903E+02  0.13378385580E+03  0.00000000000E+00 0. -1.
          1    1    6    6  503    0 -0.93698036984E+01  0.40772837676E+01 -0.16728161588E+03  0.16759342611E+03  0.00000000000E+00 0. -1.
         -1    1    6    6    0  503  0.70229384027E+02 -0.13081919037E+03 -0.66033724907E+03  0.67682428255E+03  0.00000000000E+00 0.  1.
<mgrwt>
<rscale>  0 0.14838252E+04</rscale>
<asrwt>0</asrwt>
<pdfrwt beam="1">  1        2 0.89048683E-01 0.14838252E+04</pdfrwt>
<pdfrwt beam="2">  1       -1 0.14630234E+00 0.14838252E+04</pdfrwt>
<totfact> 0.21364948E+01</totfact>
</mgrwt>
</event>
<event>
12    7  0.1611233E-007  0.1711508E+04  0.7818608E-02  0.8754828E-01
          2   -1    0    0  501    0  0.00000000000E+00  0.00000000000E+00  0.18303061888E+04  0.18303061888E+04  0.00000000000E+00 0. -1.
         -1   -1    0    0    0  501 -0.00000000000E+00 -0.00000000000E+00 -0.40010518943E+03  0.40010518943E+03  0.00000000000E+00 0.  1.
         24    2    1    2    0    0 -0.81721294785E+02 -0.21096251873E+03 -0.22663371887E+03  0.33060799583E+03  0.82190328164E+02 0.  0.
        254    2    1    2    0    0  0.81721294785E+02  0.21096251873E+03  0.16568347182E+04  0.18998033824E+04  0.90164741105E+03 0.  0.
         23    2    4    4    0    0  0.27598772964E+03  0.48926285724E+03  0.88731333296E+03  0.10535292440E+04  0.83973488109E+02 0.  0.
         23    2    4    4    0    0 -0.19426643485E+03 -0.27830033851E+03  0.76952138525E+03  0.84627413838E+03  0.93948011176E+02 0.  0.
          4    1    3    3  502    0  0.11350386280E+02 -0.12536001101E+02 -0.24463850193E+01  0.17087053344E+02  0.00000000000E+00 0. -1.
         -3    1    3    3    0  502 -0.93071681065E+02 -0.19842651763E+03 -0.22418733385E+03  0.31352094248E+03  0.00000000000E+00 0.  1.
         13    1    5    5    0    0  0.11264666922E+03  0.13213583018E+03  0.23618585196E+03  0.29314314997E+03  0.00000000000E+00 0. -1.
        -13    1    5    5    0    0  0.16334106041E+03  0.35712702706E+03  0.65112748099E+03  0.76038609402E+03  0.00000000000E+00 0.  1.
          3    1    6    6  503    0 -0.91948506906E+01 -0.76919404515E+01  0.10083114750E+03  0.10154127994E+03  0.00000000000E+00 0. -1.
         -3    1    6    6    0  503 -0.18507158416E+03 -0.27060839806E+03  0.66869023776E+03  0.74473285844E+03  0.00000000000E+00 0.  1.
<mgrwt>
<rscale>  0 0.17115081E+04</rscale>
<asrwt>0</asrwt>
<pdfrwt beam="1">  1        2 0.28158556E+00 0.17115081E+04</pdfrwt>
<pdfrwt beam="2">  1       -1 0.61554646E-01 0.17115081E+04</pdfrwt>
<totfact> 0.24061222E+01</totfact>
</mgrwt>
</event>
<event>
12    7  0.1611233E-007  0.1605977E+04  0.7818608E-02  0.8816884E-01
          2   -1    0    0  501    0  0.00000000000E+00  0.00000000000E+00  0.65220521424E+03  0.65220521424E+03  0.00000000000E+00 0. -1.
         -1   -1    0    0    0  501 -0.00000000000E+00 -0.00000000000E+00 -0.98863153502E+03  0.98863153502E+03  0.00000000000E+00 0.  1.
         24    2    1    2    0    0  0.29937024563E+03 -0.27776500445E+03 -0.48351189978E+03  0.63793611092E+03  0.80017390128E+02 0.  0.
        254    2    1    2    0    0 -0.29937024563E+03  0.27776500445E+03  0.14708557899E+03  0.10029006383E+04  0.90410153255E+03 0.  0.
         23    2    4    4    0    0 -0.31131084662E+03 -0.21152903950E+03 -0.15717973565E+03  0.41933661025E+03  0.97358849770E+02 0.  0.
         23    2    4    4    0    0  0.11940600986E+02  0.48929404394E+03  0.30426531465E+03  0.58356402808E+03  0.91751587389E+02 0.  0.
          2    1    3    3  502    0  0.14906495770E+03 -0.97732427064E+02 -0.16917189318E+03  0.24574604444E+03  0.00000000000E+00 0. -1.
         -1    1    3    3    0  502  0.15030528793E+03 -0.18003257738E+03 -0.31434000660E+03  0.39219006648E+03  0.00000000000E+00 0.  1.
         13    1    5    5    0    0 -0.27057367765E+03 -0.18554829013E+03 -0.96921477731E+02  0.34209948239E+03  0.00000000000E+00 0.  1.
        -13    1    5    5    0    0 -0.40737168967E+02 -0.25980749372E+02 -0.60258257920E+02  0.77237127865E+02  0.00000000000E+00 0. -1.
          4    1    6    6  503    0  0.11303196713E+02  0.68501967157E+02  0.82780828164E+02  0.10804141461E+03  0.00000000000E+00 0. -1.
         -4    1    6    6    0  503  0.63740427282E+00  0.42079207679E+03  0.22148448648E+03  0.47552261347E+03  0.00000000000E+00 0.  1.
<mgrwt>
<rscale>  0 0.16059771E+04</rscale>
<asrwt>0</asrwt>
<pdfrwt beam="1">  1        2 0.10033926E+00 0.16059771E+04</pdfrwt>
<pdfrwt beam="2">  1       -1 0.15209716E+00 0.16059771E+04</pdfrwt>
<totfact> 0.16473512E+01</totfact>
</mgrwt>
</event>
<event>
12    7  0.1611233E-007  0.1095140E+04  0.7818608E-02  0.9209942E-01
         -1   -1    0    0    0  501 -0.00000000000E+00  0.00000000000E+00  0.20794799606E+03  0.20794799606E+03  0.00000000000E+00 0.  1.
          2   -1    0    0  501    0  0.00000000000E+00 -0.00000000000E+00 -0.14418646815E+04  0.14418646815E+04  0.00000000000E+00 0. -1.
         24    2    1    2    0    0 -0.13646569331E+03 -0.10891121596E+02 -0.34670938151E+03  0.37857769428E+03  0.66122412191E+02 0.  0.
        254    2    1    2    0    0  0.13646569331E+03  0.10891121596E+02 -0.88720730390E+03  0.12712349833E+04  0.90008892927E+03 0.  0.
         23    2    4    4    0    0 -0.33419469221E+03  0.30123863291E+02 -0.12259330709E+03  0.36875503145E+03  0.91419991455E+02 0.  0.
         23    2    4    4    0    0  0.47066038552E+03 -0.19232741694E+02 -0.76461399680E+03  0.90247995181E+03  0.89131377525E+02 0.  0.
          2    1    3    3  502    0 -0.10667320121E+03 -0.34383827057E+02 -0.28357570212E+03  0.30492064255E+03  0.00000000000E+00 0. -1.
         -1    1    3    3    0  502 -0.29792492106E+02  0.23492705461E+02 -0.63133679394E+02  0.73657051730E+02  0.00000000000E+00 0.  1.
         13    1    5    5    0    0 -0.26944567837E+03  0.43388704617E+02 -0.12990822499E+03  0.30225767187E+03  0.00000000000E+00 0.  1.
        -13    1    5    5    0    0 -0.64749013835E+02 -0.13264841327E+02  0.73149178957E+01  0.66497359586E+02  0.00000000000E+00 0. -1.
          1    1    6    6  503    0  0.29278409586E+03 -0.21632137788E+02 -0.55238936304E+03  0.62555933737E+03  0.00000000000E+00 0. -1.
         -1    1    6    6    0  503  0.17787628966E+03  0.23993960938E+01 -0.21222463377E+03  0.27692061444E+03  0.00000000000E+00 0.  1.
<mgrwt>
<rscale>  0 0.10951399E+04</rscale>
<asrwt>0</asrwt>
<pdfrwt beam="1">  1        2 0.22182534E+00 0.10951399E+04</pdfrwt>
<pdfrwt beam="2">  1       -1 0.31991999E-01 0.10951399E+04</pdfrwt>
<totfact> 0.14105630E+02</totfact>
</mgrwt>
</event>
<event>
12    7  0.1611233E-007  0.1383363E+04  0.7818608E-02  0.8965950E-01
         -1   -1    0    0    0  501 -0.00000000000E+00  0.00000000000E+00  0.93483044805E+03  0.93483044805E+03  0.00000000000E+00 0.  1.
          2   -1    0    0  501    0  0.00000000000E+00 -0.00000000000E+00 -0.51177540304E+03  0.51177540304E+03  0.00000000000E+00 0. -1.
         24    2    1    2    0    0  0.54677991128E+02 -0.63227674395E+02 -0.26685288616E+03  0.29100335214E+03  0.80529911098E+02 0.  0.
        254    2    1    2    0    0 -0.54677991128E+02  0.63227674395E+02  0.68990793118E+03  0.11556024989E+04  0.92328584986E+03 0.  0.
         23    2    4    4    0    0  0.36251097366E+03 -0.19732891383E+03  0.26360932799E+03  0.49834071517E+03  0.92199155828E+02 0.  0.
         23    2    4    4    0    0 -0.41718896479E+03  0.26055658823E+03  0.42629860319E+03  0.65726178377E+03  0.91247933201E+02 0.  0.
          4    1    3    3  502    0  0.48588449105E+02 -0.77422628055E+02 -0.25677807060E+03  0.27256206314E+03  0.00000000000E+00 0. -1.
         -3    1    3    3    0  502  0.60895420234E+01  0.14194953661E+02 -0.10074815562E+02  0.18441289003E+02  0.00000000000E+00 0.  1.
         13    1    5    5    0    0  0.32980793848E+03 -0.16803156646E+03  0.26363256361E+03  0.45443372697E+03  0.00000000000E+00 0. -1.
        -13    1    5    5    0    0  0.32703035183E+02 -0.29297347372E+02 -0.23235620162E-01  0.43906988203E+02  0.00000000000E+00 0.  1.
          3    1    6    6  503    0 -0.27941856333E+03  0.20473135305E+03  0.25304625970E+03  0.42897793651E+03  0.00000000000E+00 0. -1.
         -3    1    6    6    0  503 -0.13777040146E+03  0.55825235178E+02  0.17325234348E+03  0.22828384727E+03  0.00000000000E+00 0.  1.
<mgrwt>
<rscale>  0 0.13833629E+04</rscale>
<asrwt>0</asrwt>
<pdfrwt beam="1">  1        2 0.78734678E-01 0.13833629E+04</pdfrwt>
<pdfrwt beam="2">  1       -1 0.14382007E+00 0.13833629E+04</pdfrwt>
<totfact> 0.26074931E+01</totfact>
</mgrwt>
</event>
<event>
12    7  0.1611233E-007  0.2793150E+04  0.7818608E-02  0.8305398E-01
          2   -1    0    0  501    0  0.00000000000E+00  0.00000000000E+00  0.17999852848E+04  0.17999852848E+04  0.00000000000E+00 0. -1.
         -1   -1    0    0    0  501 -0.00000000000E+00 -0.00000000000E+00 -0.10835764540E+04  0.10835764540E+04  0.00000000000E+00 0.  1.
         24    2    1    2    0    0 -0.98577220298E+03  0.23835305253E+03  0.10719110090E+04  0.14774339657E+04  0.72518259815E+02 0.  0.
        254    2    1    2    0    0  0.98577220298E+03 -0.23835305253E+03 -0.35550217818E+03  0.14061277731E+04  0.90678249970E+03 0.  0.
         23    2    4    4    0    0  0.84623515952E+03 -0.43118469061E+03 -0.53191094555E+03  0.10923598212E+04  0.91030447333E+02 0.  0.
         23    2    4    4    0    0  0.13953704346E+03  0.19283163808E+03  0.17640876736E+03  0.31376795190E+03  0.10332302405E+03 0.  0.
          2    1    3    3  502    0 -0.84824432879E+03  0.19557312025E+03  0.95235042056E+03  0.12902474996E+04  0.00000000000E+00 0. -1.
         -1    1    3    3    0  502 -0.13752787419E+03  0.42779932282E+02  0.11956058840E+03  0.18718646608E+03  0.00000000000E+00 0.  1.
         13    1    5    5    0    0  0.65375327089E+03 -0.29352113855E+03 -0.41943786162E+03  0.83034698634E+03  0.00000000000E+00 0.  1.
        -13    1    5    5    0    0  0.19248188864E+03 -0.13766355206E+03 -0.11247308393E+03  0.26201283485E+03  0.00000000000E+00 0. -1.
          4    1    6    6  503    0  0.77958750141E+02  0.60856999724E+02  0.12485316673E+03  0.15927791555E+03  0.00000000000E+00 0.  1.
         -4    1    6    6    0  503  0.61578293318E+02  0.13197463835E+03  0.51555600636E+02  0.15449003636E+03  0.00000000000E+00 0. -1.
<mgrwt>
<rscale>  0 0.27931500E+04</rscale>
<asrwt>0</asrwt>
<pdfrwt beam="1">  1        2 0.27692081E+00 0.27931500E+04</pdfrwt>
<pdfrwt beam="2">  1       -1 0.16670407E+00 0.27931500E+04</pdfrwt>
<totfact> 0.22253826E+00</totfact>
</mgrwt>
</event>
<event>
12    7  0.1611233E-007  0.2461285E+04  0.7818608E-02  0.8416909E-01
          2   -1    0    0  501    0  0.00000000000E+00  0.00000000000E+00  0.12412396899E+04  0.12412396899E+04  0.00000000000E+00 0. -1.
         -1   -1    0    0    0  501 -0.00000000000E+00 -0.00000000000E+00 -0.12201356816E+04  0.12201356816E+04  0.00000000000E+00 0.  1.
         24    2    1    2    0    0 -0.10342136991E+04  0.24515753520E+03 -0.93908711939E+02  0.10701187447E+04  0.81456055564E+02 0.  0.
        254    2    1    2    0    0  0.10342136991E+04 -0.24515753520E+03  0.11501272019E+03  0.13912566269E+04  0.89031841687E+03 0.  0.
         23    2    4    4    0    0  0.13412986076E+03  0.53185083110E+02 -0.30611465872E+03  0.34964563188E+03  0.87900005674E+02 0.  0.
         23    2    4    4    0    0  0.90008383837E+03 -0.29834261831E+03  0.42112737891E+03  0.10416109950E+04  0.91901912822E+02 0.  0.
          2    1    3    3  502    0 -0.45765204949E+02  0.17568493234E+02 -0.20561615630E+02  0.53159062970E+02  0.00000000000E+00 0. -1.
         -1    1    3    3    0  502 -0.98844849418E+03  0.22758904196E+03 -0.73347096310E+02  0.10169596817E+04  0.00000000000E+00 0.  1.
         13    1    5    5    0    0  0.52757379131E+02  0.29876299565E+02 -0.45998980009E+02  0.76104142399E+02  0.00000000000E+00 0. -1.
        -13    1    5    5    0    0  0.81372481627E+02  0.23308783545E+02 -0.26011567871E+03  0.27354148948E+03  0.00000000000E+00 0.  1.
          2    1    6    6  503    0  0.40485614874E+03 -0.14905188890E+03  0.23927641099E+03  0.49333372843E+03  0.00000000000E+00 0. -1.
         -2    1    6    6    0  503  0.49522768964E+03 -0.14929072941E+03  0.18185096793E+03  0.54827726654E+03  0.00000000000E+00 0.  1.
<mgrwt>
<rscale>  0 0.24612849E+04</rscale>
<asrwt>0</asrwt>
<pdfrwt beam="1">  1        2 0.19095995E+00 0.24612849E+04</pdfrwt>
<pdfrwt beam="2">  1       -1 0.18771318E+00 0.24612849E+04</pdfrwt>
<totfact> 0.33470146E+00</totfact>
</mgrwt>
</event>
<event>
12    7  0.1611233E-007  0.2476181E+04  0.7818608E-02  0.8411521E-01
          2   -1    0    0  501    0  0.00000000000E+00  0.00000000000E+00  0.79529860395E+03  0.79529860395E+03  0.00000000000E+00 0. -1.
         -1   -1    0    0    0  501 -0.00000000000E+00 -0.00000000000E+00 -0.19274124618E+04  0.19274124618E+04  0.00000000000E+00 0.  1.
         24    2    1    2    0    0 -0.62493868129E+03  0.64673566659E+03  0.15330776170E+03  0.91603306830E+03  0.82449588276E+02 0.  0.
        254    2    1    2    0    0  0.62493868129E+03 -0.64673566659E+03 -0.12854216196E+04  0.18066779975E+04  0.89608106145E+03 0.  0.
         23    2    4    4    0    0  0.67553775169E+03 -0.14468627996E+03 -0.46225888157E+03  0.83622298880E+03  0.91105652111E+02 0.  0.
         23    2    4    4    0    0 -0.50599070397E+02 -0.50204938663E+03 -0.82316273801E+03  0.97045500868E+03  0.97837508560E+02 0.  0.
          4    1    3    3  502    0 -0.56296292010E+03  0.60665453149E+03  0.15591643123E+03  0.84217985224E+03  0.00000000000E+00 0. -1.
         -3    1    3    3    0  502 -0.61975761191E+02  0.40081135098E+02 -0.26086695301E+01  0.73853216062E+02  0.00000000000E+00 0.  1.
         13    1    5    5    0    0  0.85995123012E+02 -0.21163462509E+02 -0.98953361430E+02  0.13279616359E+03  0.00000000000E+00 0. -1.
        -13    1    5    5    0    0  0.58954262868E+03 -0.12352281745E+03 -0.36330552015E+03  0.70342682521E+03  0.00000000000E+00 0.  1.
          3    1    6    6  503    0  0.50841790372E+01 -0.18861631378E+02 -0.77871810099E+01  0.21029745666E+02  0.00000000000E+00 0. -1.
         -3    1    6    6    0  503 -0.55683249434E+02 -0.48318775525E+03 -0.81537555700E+03  0.94942526301E+03  0.00000000000E+00 0.  1.
<mgrwt>
<rscale>  0 0.24761813E+04</rscale>
<asrwt>0</asrwt>
<pdfrwt beam="1">  1        2 0.12235363E+00 0.24761813E+04</pdfrwt>
<pdfrwt beam="2">  1       -1 0.29652499E+00 0.24761813E+04</pdfrwt>
<totfact> 0.12309880E+00</totfact>
</mgrwt>
</event>
<event>
12    7  0.1611233E-007  0.1530689E+04  0.7818608E-02  0.8864298E-01
          2   -1    0    0  501    0  0.00000000000E+00  0.00000000000E+00  0.44482678621E+03  0.44482678621E+03  0.00000000000E+00 0. -1.
         -1   -1    0    0    0  501 -0.00000000000E+00 -0.00000000000E+00 -0.13168098064E+04  0.13168098064E+04  0.00000000000E+00 0.  1.
         24    2    1    2    0    0  0.12042742943E+03 -0.24064955237E+03 -0.77005260858E+03  0.81940147227E+03  0.77606571645E+02 0.  0.
        254    2    1    2    0    0 -0.12042742943E+03  0.24064955237E+03 -0.10193041164E+03  0.94223512036E+03  0.89721917078E+03 0.  0.
         23    2    4    4    0    0  0.25844303510E+03  0.41370282109E+03  0.26714299608E+02  0.49691956933E+03  0.90953713540E+02 0.  0.
         23    2    4    4    0    0 -0.37887046453E+03 -0.17305326872E+03 -0.12864471125E+03  0.44531555103E+03  0.90918730465E+02 0.  0.
          4    1    3    3  502    0  0.23877162327E+02 -0.67050709547E+02 -0.31399735859E+03  0.32196313102E+03  0.00000000000E+00 0. -1.
         -3    1    3    3    0  502  0.96550267100E+02 -0.17359884282E+03 -0.45605524999E+03  0.49743834125E+03  0.00000000000E+00 0.  1.
         13    1    5    5    0    0  0.86564636623E+02  0.22179711639E+03  0.23818375663E+02  0.23927956907E+03  0.00000000000E+00 0. -1.
        -13    1    5    5    0    0  0.17187839848E+03  0.19190570470E+03  0.28959239454E+01  0.25764000026E+03  0.00000000000E+00 0.  1.
          2    1    6    6  503    0 -0.33855058133E+03 -0.12366547892E+03 -0.92844803607E+02  0.37219592199E+03  0.00000000000E+00 0.  1.
         -2    1    6    6    0  503 -0.40319883202E+02 -0.49387789806E+02 -0.35799907638E+02  0.73119629035E+02  0.00000000000E+00 0. -1.
<mgrwt>
<rscale>  0 0.15306891E+04</rscale>
<asrwt>0</asrwt>
<pdfrwt beam="1">  1        2 0.68434891E-01 0.15306891E+04</pdfrwt>
<pdfrwt beam="2">  1       -1 0.20258612E+00 0.15306891E+04</pdfrwt>
<totfact> 0.11221366E+01</totfact>
</mgrwt>
</event>
<event>
12    7  0.1611233E-007  0.1590235E+04  0.7818608E-02  0.8826569E-01
         -1   -1    0    0    0  501 -0.00000000000E+00  0.00000000000E+00  0.12690663980E+04  0.12690663980E+04  0.00000000000E+00 0.  1.
          2   -1    0    0  501    0  0.00000000000E+00 -0.00000000000E+00 -0.49817102503E+03  0.49817102503E+03  0.00000000000E+00 0. -1.
         24    2    1    2    0    0  0.15117283164E+03 -0.39228277731E+03  0.64356511222E+03  0.77299680181E+03  0.81295753526E+02 0.  0.
        254    2    1    2    0    0 -0.15117283164E+03  0.39228277731E+03  0.12733026078E+03  0.99424062126E+03  0.89194305605E+03 0.  0.
         23    2    4    4    0    0 -0.16834783446E+03 -0.23224486012E+03 -0.10883395445E+03  0.32037456484E+03  0.92284146715E+02 0.  0.
         23    2    4    4    0    0  0.17175002820E+02  0.62452763743E+03  0.23616421523E+03  0.67386605642E+03  0.89398964173E+02 0.  0.
          2    1    3    3  502    0  0.17851026807E+02 -0.52567436424E+01  0.23050933000E+02  0.29624956100E+02  0.00000000000E+00 0. -1.
         -1    1    3    3    0  502  0.13332180484E+03 -0.38702603367E+03  0.62051417922E+03  0.74337184571E+03  0.00000000000E+00 0.  1.
         13    1    5    5    0    0 -0.50542659271E+02 -0.17291827162E+02 -0.33520549604E+01  0.53523863512E+02  0.00000000000E+00 0.  1.
        -13    1    5    5    0    0 -0.11780517519E+03 -0.21495303296E+03 -0.10548189949E+03  0.26685070133E+03  0.00000000000E+00 0. -1.
          2    1    6    6  503    0  0.11891584701E+02  0.38726085488E+03  0.99548008803E+02  0.40002773100E+03  0.00000000000E+00 0.  1.
         -2    1    6    6    0  503  0.52834181188E+01  0.23726678255E+03  0.13661620643E+03  0.27383832542E+03  0.00000000000E+00 0. -1.
<mgrwt>
<rscale>  0 0.15902353E+04</rscale>
<asrwt>0</asrwt>
<pdfrwt beam="1">  1        2 0.76641697E-01 0.15902353E+04</pdfrwt>
<pdfrwt beam="2">  1       -1 0.19524098E+00 0.15902353E+04</pdfrwt>
<totfact> 0.11014994E+01</totfact>
</mgrwt>
</event>
<event>
12    7  0.1611233E-007  0.1459461E+04  0.7818608E-02  0.8911868E-01
          2   -1    0    0  501    0  0.00000000000E+00  0.00000000000E+00  0.16811768326E+04  0.16811768326E+04  0.00000000000E+00 0. -1.
         -1   -1    0    0    0  501 -0.00000000000E+00 -0.00000000000E+00 -0.31674619717E+03  0.31674619717E+03  0.00000000000E+00 0.  1.
         24    2    1    2    0    0  0.83913961321E+02 -0.24754853335E+03  0.91040671316E+03  0.95052686193E+03  0.79618481615E+02 0.  0.
        254    2    1    2    0    0 -0.83913961321E+02  0.24754853335E+03  0.45402392228E+03  0.10473961679E+04  0.90696151030E+03 0.  0.
         23    2    4    4    0    0  0.69665615763E+02 -0.31460574574E+03  0.64143518631E+02  0.34091596063E+03  0.90990262993E+02 0.  0.
         23    2    4    4    0    0 -0.15357957708E+03  0.56215427909E+03  0.38988040365E+03  0.70648020722E+03  0.86622364551E+02 0.  0.
          2    1    3    3  502    0  0.29968293716E+02 -0.13182149630E+03  0.59689074297E+03  0.61200781413E+03  0.00000000000E+00 0. -1.
         -1    1    3    3    0  502  0.53945667605E+02 -0.11572703705E+03  0.31351597018E+03  0.33851904779E+03  0.00000000000E+00 0.  1.
         13    1    5    5    0    0  0.65582407742E+02 -0.28744300833E+03  0.84531383360E+02  0.30670847725E+03  0.00000000000E+00 0. -1.
        -13    1    5    5    0    0  0.40832080206E+01 -0.27162737415E+02 -0.20387864729E+02  0.34207483390E+02  0.00000000000E+00 0.  1.
          4    1    6    6  503    0 -0.16183219322E+03  0.53840405216E+03  0.36070079480E+03  0.66796230846E+03  0.00000000000E+00 0. -1.
         -4    1    6    6    0  503  0.82526161392E+01  0.23750226928E+02  0.29179608848E+02  0.38517898759E+02  0.00000000000E+00 0.  1.
<mgrwt>
<rscale>  0 0.14594607E+04</rscale>
<asrwt>0</asrwt>
<pdfrwt beam="1">  1        2 0.25864258E+00 0.14594607E+04</pdfrwt>
<pdfrwt beam="2">  1       -1 0.48730185E-01 0.14594607E+04</pdfrwt>
<totfact> 0.46752733E+01</totfact>
</mgrwt>
</event>
<event>
12    7  0.1611233E-007  0.1662936E+04  0.7818608E-02  0.8782790E-01
         -1   -1    0    0    0  501 -0.00000000000E+00  0.00000000000E+00  0.30908165527E+04  0.30908165527E+04  0.00000000000E+00 0.  1.
          2   -1    0    0  501    0  0.00000000000E+00 -0.00000000000E+00 -0.22367533121E+03  0.22367533121E+03  0.00000000000E+00 0. -1.
         24    2    1    2    0    0 -0.87563213440E+02  0.18158694978E+02 -0.13287781663E+03  0.17872628943E+03  0.79306480383E+02 0.  0.
        254    2    1    2    0    0  0.87563213440E+02 -0.18158694978E+02  0.30000190381E+04  0.31357655944E+04  0.90824808277E+03 0.  0.
         23    2    4    4    0    0 -0.13068326535E+03 -0.89170459760E+02  0.28303421751E+04  0.28362771667E+04  0.92746165558E+02 0.  0.
         23    2    4    4    0    0  0.21824647879E+03  0.71011764782E+02  0.16967686297E+03  0.29948842777E+03  0.90713198027E+02 0.  0.
          2    1    3    3  502    0 -0.40804956769E+02 -0.30818037463E+02 -0.66691554828E+02  0.84039035069E+02  0.00000000000E+00 0. -1.
         -1    1    3    3    0  502 -0.46758256671E+02  0.48976732441E+02 -0.66186261804E+02  0.94687254365E+02  0.00000000000E+00 0.  1.
         13    1    5    5    0    0 -0.40274436167E+02 -0.30304471882E+01  0.28203641025E+03  0.28491358432E+03  0.00000000000E+00 0.  1.
        -13    1    5    5    0    0 -0.90408829187E+02 -0.86140012572E+02  0.25483057649E+04  0.25513635823E+04  0.00000000000E+00 0. -1.
          3    1    6    6  503    0  0.16568136957E+03  0.92019572554E+02  0.12120339141E+03  0.22496261921E+03  0.00000000000E+00 0. -1.
         -3    1    6    6    0  503  0.52565109228E+02 -0.21007807772E+02  0.48473471566E+02  0.74525808558E+02  0.00000000000E+00 0.  1.
<mgrwt>
<rscale>  0 0.16629365E+04</rscale>
<asrwt>0</asrwt>
<pdfrwt beam="1">  1        2 0.34411592E-01 0.16629365E+04</pdfrwt>
<pdfrwt beam="2">  1       -1 0.47551021E+00 0.16629365E+04</pdfrwt>
<totfact> 0.36148074E-01</totfact>
</mgrwt>
</event>
<event>
12    7  0.1611233E-007  0.1996686E+04  0.7818608E-02  0.8608172E-01
          2   -1    0    0  501    0  0.00000000000E+00  0.00000000000E+00  0.14322531508E+04  0.14322531508E+04  0.00000000000E+00 0. -1.
         -1   -1    0    0    0  501 -0.00000000000E+00 -0.00000000000E+00 -0.69588877063E+03  0.69588877063E+03  0.00000000000E+00 0.  1.
         24    2    1    2    0    0  0.61948038578E+03  0.48595012869E+03  0.39044358120E+03  0.88238299609E+03  0.79057483805E+02 0.  0.
        254    2    1    2    0    0 -0.61948038578E+03 -0.48595012869E+03  0.34592079901E+03  0.12457589254E+04  0.90130495674E+03 0.  0.
         23    2    4    4    0    0 -0.67993413143E+03 -0.64263836596E+03  0.11661469975E+03  0.94750665777E+03  0.94209266142E+02 0.  0.
         23    2    4    4    0    0  0.60453745646E+02  0.15668823728E+03  0.22930609927E+03  0.29825226761E+03  0.90372943470E+02 0.  0.
          4    1    3    3  502    0  0.47764371131E+03  0.33510358688E+03  0.30513197454E+03  0.65844016492E+03  0.00000000000E+00 0. -1.
         -3    1    3    3    0  502  0.14183667447E+03  0.15084654181E+03  0.85311606657E+02  0.22394283117E+03  0.00000000000E+00 0.  1.
         13    1    5    5    0    0 -0.61150023560E+03 -0.56712961851E+03  0.74798044697E+02  0.83735493658E+03  0.00000000000E+00 0. -1.
        -13    1    5    5    0    0 -0.68433895827E+02 -0.75508747457E+02  0.41816655049E+02  0.11015172119E+03  0.00000000000E+00 0.  1.
          2    1    6    6  503    0  0.65183723967E+02  0.14573690337E+03  0.15336430268E+03  0.22137924973E+03  0.00000000000E+00 0. -1.
         -2    1    6    6    0  503 -0.47299783207E+01  0.10951333904E+02  0.75941796592E+02  0.76873017885E+02  0.00000000000E+00 0.  1.
<mgrwt>
<rscale>  0 0.19966861E+04</rscale>
<asrwt>0</asrwt>
<pdfrwt beam="1">  1        2 0.22034664E+00 0.19966861E+04</pdfrwt>
<pdfrwt beam="2">  1       -1 0.10705981E+00 0.19966861E+04</pdfrwt>
<totfact> 0.11948836E+01</totfact>
</mgrwt>
</event>
<event>
12    7  0.1611233E-007  0.1886930E+04  0.7818608E-02  0.8661389E-01
          2   -1    0    0  501    0  0.00000000000E+00  0.00000000000E+00  0.17191160203E+04  0.17191160203E+04  0.00000000000E+00 0. -1.
         -1   -1    0    0    0  501 -0.00000000000E+00 -0.00000000000E+00 -0.51778160643E+03  0.51778160643E+03  0.00000000000E+00 0.  1.
         24    2    1    2    0    0  0.61297890033E+03  0.29618475578E+03  0.75848715561E+03  0.10224940460E+04  0.81992482201E+02 0.  0.
        254    2    1    2    0    0 -0.61297890033E+03 -0.29618475578E+03  0.44284725822E+03  0.12144035807E+04  0.90288084530E+03 0.  0.
         23    2    4    4    0    0  0.14832202217E+03  0.98031520314E+02 -0.68063269721E+02  0.21209624878E+03  0.93501918846E+02 0.  0.
         23    2    4    4    0    0 -0.76130092250E+03 -0.39421627610E+03  0.51091052794E+03  0.10023073319E+04  0.92762347121E+02 0.  0.
          4    1    3    3  502    0  0.56611639367E+03  0.26068038527E+03  0.71971580576E+03  0.95206768431E+03  0.00000000000E+00 0. -1.
         -3    1    3    3    0  502  0.46862506661E+02  0.35504370514E+02  0.38771349843E+02  0.70426361718E+02  0.00000000000E+00 0.  1.
         13    1    5    5    0    0  0.95484448107E+02  0.73901287670E+01 -0.37103751708E+02  0.10270629107E+03  0.00000000000E+00 0. -1.
        -13    1    5    5    0    0  0.52837574063E+02  0.90641391547E+02 -0.30959518013E+02  0.10938995772E+03  0.00000000000E+00 0.  1.
          2    1    6    6  503    0 -0.65403965552E+03 -0.31183099510E+03  0.40172528850E+03  0.82848635952E+03  0.00000000000E+00 0. -1.
         -2    1    6    6    0  503 -0.10726126698E+03 -0.82385281003E+02  0.10918523944E+03  0.17382097236E+03  0.00000000000E+00 0.  1.
<mgrwt>
<rscale>  0 0.18869305E+04</rscale>
<asrwt>0</asrwt>
<pdfrwt beam="1">  1        2 0.26447938E+00 0.18869305E+04</pdfrwt>
<pdfrwt beam="2">  1       -1 0.79658710E-01 0.18869305E+04</pdfrwt>
<totfact> 0.16085918E+01</totfact>
</mgrwt>
</event>
<event>
12    7  0.1611233E-007  0.1304789E+04  0.7818608E-02  0.9025776E-01
         -1   -1    0    0    0  501 -0.00000000000E+00  0.00000000000E+00  0.73354453837E+03  0.73354453837E+03  0.00000000000E+00 0.  1.
          2   -1    0    0  501    0  0.00000000000E+00 -0.00000000000E+00 -0.58022196156E+03  0.58022196156E+03  0.00000000000E+00 0. -1.
         24    2    1    2    0    0 -0.19591224368E+03  0.12547464909E+03  0.28232765274E+03  0.37445069973E+03  0.79868192892E+02 0.  0.
        254    2    1    2    0    0  0.19591224368E+03 -0.12547464909E+03 -0.12900507593E+03  0.93931580020E+03  0.90085868375E+03 0.  0.
         23    2    4    4    0    0  0.12800408556E+03 -0.44864249144E+03  0.14967627650E+03  0.49756693366E+03  0.86629871714E+02 0.  0.
         23    2    4    4    0    0  0.67908158120E+02  0.32316784235E+03 -0.27868135244E+03  0.44174886654E+03  0.91813902113E+02 0.  0.
          4    1    3    3  502    0 -0.23663696910E+02  0.51919951895E+02  0.85123916826E+02  0.10247796432E+03  0.00000000000E+00 0. -1.
         -3    1    3    3    0  502 -0.17224854677E+03  0.73554697195E+02  0.19720373592E+03  0.27197273541E+03  0.00000000000E+00 0.  1.
         13    1    5    5    0    0  0.13506620233E+03 -0.42159197048E+03  0.15511093123E+03  0.46908642015E+03  0.00000000000E+00 0.  1.
        -13    1    5    5    0    0 -0.70621167686E+01 -0.27050520962E+02 -0.54346547225E+01  0.28480513505E+02  0.00000000000E+00 0. -1.
          3    1    6    6  503    0  0.11259385960E+01  0.69416506169E+02 -0.17655941457E+02  0.71635545194E+02  0.00000000000E+00 0. -1.
         -3    1    6    6    0  503  0.66782219524E+02  0.25375133618E+03 -0.26102541098E+03  0.37011332134E+03  0.00000000000E+00 0.  1.
<mgrwt>
<rscale>  0 0.13047891E+04</rscale>
<asrwt>0</asrwt>
<pdfrwt beam="1">  1        2 0.89264917E-01 0.13047891E+04</pdfrwt>
<pdfrwt beam="2">  1       -1 0.11285301E+00 0.13047891E+04</pdfrwt>
<totfact> 0.41551794E+01</totfact>
</mgrwt>
</event>
<event>
12    7  0.1611233E-007  0.1332120E+04  0.7818608E-02  0.9004475E-01
         -1   -1    0    0    0  501 -0.00000000000E+00  0.00000000000E+00  0.67968977297E+03  0.67968977297E+03  0.00000000000E+00 0.  1.
          2   -1    0    0  501    0  0.00000000000E+00 -0.00000000000E+00 -0.65270324831E+03  0.65270324831E+03  0.00000000000E+00 0. -1.
         24    2    1    2    0    0  0.30717266474E+03  0.14000860435E+03 -0.90206120492E+02  0.35870888796E+03  0.81101583656E+02 0.  0.
        254    2    1    2    0    0 -0.30717266474E+03 -0.14000860435E+03  0.11719264515E+03  0.97368413332E+03  0.90574235859E+03 0.  0.
         23    2    4    4    0    0 -0.71414233241E+02  0.37519535042E+03  0.39597584438E+02  0.39465900232E+03  0.91193287748E+02 0.  0.
         23    2    4    4    0    0 -0.23575843150E+03 -0.51520395477E+03  0.77595060715E+02  0.57902513100E+03  0.90730126493E+02 0.  0.
          4    1    3    3  502    0  0.26881977205E+02  0.31000921604E+02  0.90354642589E+01  0.42015919044E+02  0.00000000000E+00 0. -1.
         -1    1    3    3    0  502  0.28029068754E+03  0.10900768274E+03 -0.99241584751E+02  0.31669296892E+03  0.00000000000E+00 0.  1.
         13    1    5    5    0    0 -0.92744397861E+02  0.30356330812E+03  0.39940117962E+02  0.31991783069E+03  0.00000000000E+00 0. -1.
        -13    1    5    5    0    0  0.21330164620E+02  0.71632042296E+02 -0.34253352436E+00  0.74741171622E+02  0.00000000000E+00 0.  1.
          4    1    6    6  503    0 -0.20147646063E+03 -0.38587508990E+03  0.90478963266E+02  0.44461083207E+03  0.00000000000E+00 0. -1.
         -4    1    6    6    0  503 -0.34281970870E+02 -0.12932886486E+03 -0.12883902552E+02  0.13441429894E+03  0.00000000000E+00 0.  1.
<mgrwt>
<rscale>  0 0.13321197E+04</rscale>
<asrwt>0</asrwt>
<pdfrwt beam="1">  1        2 0.10041588E+00 0.13321197E+04</pdfrwt>
<pdfrwt beam="2">  1       -1 0.10456766E+00 0.13321197E+04</pdfrwt>
<totfact> 0.42984004E+01</totfact>
</mgrwt>
</event>
<event>
12    7  0.1611233E-007  0.1626847E+04  0.7818608E-02  0.8804222E-01
         -3   -1    0    0    0  501 -0.00000000000E+00  0.00000000000E+00  0.11063343247E+04  0.11063343247E+04  0.00000000000E+00 0.  1.
          4   -1    0    0  501    0  0.00000000000E+00 -0.00000000000E+00 -0.59806320750E+03  0.59806320750E+03  0.00000000000E+00 0. -1.
         24    2    1    2    0    0  0.39684140724E+03  0.35658812049E+03  0.26315770029E+02  0.53985558292E+03  0.78187853829E+02 0.  0.
        254    2    1    2    0    0 -0.39684140724E+03 -0.35658812049E+03  0.48195534720E+03  0.11645419493E+04  0.91609977886E+03 0.  0.
         23    2    4    4    0    0  0.21276147863E+03 -0.19212598587E+03 -0.79734315380E+02  0.31498799559E+03  0.10334425519E+03 0.  0.
         23    2    4    4    0    0 -0.60960288587E+03 -0.16446213462E+03  0.56168966258E+03  0.84955395372E+03  0.87081404722E+02 0.  0.
          4    1    3    3  502    0  0.15829350376E+03  0.15228361562E+03 -0.26924739888E+02  0.22129635003E+03  0.00000000000E+00 0. -1.
         -3    1    3    3    0  502  0.23854790347E+03  0.20430450487E+03  0.53240509918E+02  0.31855923289E+03  0.00000000000E+00 0.  1.
         13    1    5    5    0    0 -0.70634187700E+01  0.30520899314E+01 -0.10428980905E+02  0.12960354177E+02  0.00000000000E+00 0.  1.
        -13    1    5    5    0    0  0.21982489740E+03 -0.19517807580E+03 -0.69305334475E+02  0.30202764141E+03  0.00000000000E+00 0. -1.
          2    1    6    6  503    0 -0.56926810948E+03 -0.12971445401E+03  0.52148825977E+03  0.78284227346E+03  0.00000000000E+00 0. -1.
         -2    1    6    6    0  503 -0.40334776386E+02 -0.34747680612E+02  0.40201402819E+02  0.66711680256E+02  0.00000000000E+00 0.  1.
<mgrwt>
<rscale>  0 0.16268471E+04</rscale>
<asrwt>0</asrwt>
<pdfrwt beam="1">  1        4 0.92009725E-01 0.16268471E+04</pdfrwt>
<pdfrwt beam="2">  1       -3 0.17020528E+00 0.16268471E+04</pdfrwt>
<totfact> 0.50757346E-01</totfact>
</mgrwt>
</event>
<event>
12    7  0.1671342E-007  0.2702972E+04  0.7818608E-02  0.8334041E-01
          2   -1    0    0  501    0  0.00000000000E+00  0.00000000000E+00  0.29260330748E+04  0.29260330748E+04  0.00000000000E+00 0. -1.
         -1   -1    0    0    0  501 -0.00000000000E+00 -0.00000000000E+00 -0.62422896844E+03  0.62422896844E+03  0.00000000000E+00 0.  1.
         24    2    1    2    0    0  0.50197436784E+03  0.85785933499E+03  0.14599727932E+03  0.10092701451E+04  0.97005750849E+02 0.  0.
        254    2    1    2    0    0 -0.50197436784E+03 -0.85785933499E+03  0.21558068270E+04  0.25409918981E+04  0.90622063878E+03 0.  0.
         23    2    4    4    0    0  0.19955243782E+02 -0.72900286217E+03  0.16061125472E+04  0.17665784630E+04  0.96739685777E+02 0.  0.
         23    2    4    4    0    0 -0.52192961162E+03 -0.12885647282E+03  0.54969427979E+03  0.77441343508E+03  0.92400525565E+02 0.  0.
          4    1    3    3  502    0  0.71762851565E+02  0.66124400494E+02  0.13574650322E+02  0.98522151503E+02  0.00000000000E+00 0. -1.
         -3    1    3    3    0  502  0.43021151627E+03  0.79173493449E+03  0.13242262900E+03  0.91074799363E+03  0.00000000000E+00 0.  1.
         13    1    5    5    0    0 -0.66751476161E+01 -0.21271610372E+03  0.57509086926E+03  0.61320649563E+03  0.00000000000E+00 0. -1.
        -13    1    5    5    0    0  0.26630391398E+02 -0.51628675845E+03  0.10310216779E+04  0.11533719674E+04  0.00000000000E+00 0.  1.
          1    1    6    6  503    0 -0.24370683691E+02 -0.28928368620E+02  0.33448401223E+02  0.50493329055E+02  0.00000000000E+00 0. -1.
         -1    1    6    6    0  503 -0.49755892793E+03 -0.99928104199E+02  0.51624587857E+03  0.72392010603E+03  0.00000000000E+00 0.  1.
<mgrwt>
<rscale>  0 0.27029721E+04</rscale>
<asrwt>0</asrwt>
<pdfrwt beam="1">  1        2 0.45015892E+00 0.27029721E+04</pdfrwt>
<pdfrwt beam="2">  1       -1 0.96035228E-01 0.27029721E+04</pdfrwt>
<totfact> 0.20164652E+00</totfact>
</mgrwt>
</event>
<event>
12    7  0.1611233E-007  0.1310508E+04  0.7818608E-02  0.9021273E-01
          2   -1    0    0  501    0  0.00000000000E+00  0.00000000000E+00  0.10250393232E+04  0.10250393232E+04  0.00000000000E+00 0. -1.
         -1   -1    0    0    0  501 -0.00000000000E+00 -0.00000000000E+00 -0.41886988710E+03  0.41886988710E+03  0.00000000000E+00 0.  1.
         24    2    1    2    0    0 -0.16316802928E+02  0.26900583490E+03  0.36870059992E+03  0.46359010562E+03  0.79657243086E+02 0.  0.
        254    2    1    2    0    0  0.16316802928E+02 -0.26900583490E+03  0.23746883623E+03  0.98031910473E+03  0.91214238014E+03 0.  0.
         23    2    4    4    0    0 -0.15260138671E+03  0.29297720137E+03  0.17080459661E+03  0.38275715958E+03  0.90587025772E+02 0.  0.
         23    2    4    4    0    0  0.16891818964E+03 -0.56198303626E+03  0.66664239617E+02  0.59756194515E+03  0.90982798441E+02 0.  0.
          4    1    3    3  502    0 -0.23702517698E+02  0.11529087846E+03  0.22045849527E+03  0.24991147260E+03  0.00000000000E+00 0. -1.
         -3    1    3    3    0  502  0.73857147697E+01  0.15371495644E+03  0.14824210465E+03  0.21367863302E+03  0.00000000000E+00 0.  1.
         13    1    5    5    0    0 -0.10259690284E+03  0.26656080904E+03  0.14894303260E+03  0.32212546678E+03  0.00000000000E+00 0. -1.
        -13    1    5    5    0    0 -0.50004483863E+02  0.26416392321E+02  0.21861564012E+02  0.60631692792E+02  0.00000000000E+00 0.  1.
          1    1    6    6  503    0 -0.36811171495E+01 -0.10027772323E+03  0.14603890873E+01  0.10035589238E+03  0.00000000000E+00 0. -1.
         -1    1    6    6    0  503  0.17259930679E+03 -0.46170531303E+03  0.65203850530E+02  0.49720605277E+03  0.00000000000E+00 0.  1.
<mgrwt>
<rscale>  0 0.13105085E+04</rscale>
<asrwt>0</asrwt>
<pdfrwt beam="1">  1        2 0.15769836E+00 0.13105085E+04</pdfrwt>
<pdfrwt beam="2">  1       -1 0.64441521E-01 0.13105085E+04</pdfrwt>
<totfact> 0.66237305E+01</totfact>
</mgrwt>
</event>
<event>
12    7  0.1611233E-007  0.1372064E+04  0.7818608E-02  0.8974292E-01
         -1   -1    0    0    0  501 -0.00000000000E+00  0.00000000000E+00  0.44208650846E+03  0.44208650846E+03  0.00000000000E+00 0.  1.
          2   -1    0    0  501    0  0.00000000000E+00 -0.00000000000E+00 -0.10645880801E+04  0.10645880801E+04  0.00000000000E+00 0. -1.
         24    2    1    2    0    0 -0.13845526308E+03  0.15209782333E+03  0.12209018819E+03  0.25242069366E+03  0.80663404344E+02 0.  0.
        254    2    1    2    0    0  0.13845526308E+03 -0.15209782333E+03 -0.74459175979E+03  0.12542538949E+04  0.98814590840E+03 0.  0.
         23    2    4    4    0    0  0.49011057515E+02 -0.46429829210E+03 -0.78265565366E+03  0.91572299325E+03  0.89575333434E+02 0.  0.
         23    2    4    4    0    0  0.89444205561E+02  0.31220046877E+03  0.38063893874E+02  0.33853090160E+03  0.87663633923E+02 0.  0.
          2    1    3    3  502    0 -0.86332900482E+02  0.70962297555E+02  0.22894868055E+02  0.11407538018E+03  0.00000000000E+00 0. -1.
         -1    1    3    3    0  502 -0.52122362595E+02  0.81135525771E+02  0.99195320136E+02  0.13834531348E+03  0.00000000000E+00 0.  1.
         13    1    5    5    0    0 -0.13132442423E+02 -0.31692217822E+02 -0.30970724785E+02  0.46217350726E+02  0.00000000000E+00 0. -1.
        -13    1    5    5    0    0  0.62143499939E+02 -0.43260607428E+03 -0.75168492888E+03  0.86950564253E+03  0.00000000000E+00 0.  1.
          3    1    6    6  503    0  0.40239771508E+02  0.36715047764E+02  0.20267034619E+02  0.58120449375E+02  0.00000000000E+00 0. -1.
         -3    1    6    6    0  503  0.49204434053E+02  0.27548542101E+03  0.17796859255E+02  0.28041045223E+03  0.00000000000E+00 0.  1.
<mgrwt>
<rscale>  0 0.13720642E+04</rscale>
<asrwt>0</asrwt>
<pdfrwt beam="1">  1        2 0.16378278E+00 0.13720642E+04</pdfrwt>
<pdfrwt beam="2">  1       -1 0.68013310E-01 0.13720642E+04</pdfrwt>
<totfact> 0.55809110E+01</totfact>
</mgrwt>
</event>
<event>
12    7  0.1611233E-007  0.1845605E+04  0.7818608E-02  0.8682416E-01
          2   -1    0    0  501    0  0.00000000000E+00  0.00000000000E+00  0.16928100199E+04  0.16928100199E+04  0.00000000000E+00 0. -1.
         -1   -1    0    0    0  501 -0.00000000000E+00 -0.00000000000E+00 -0.50304804424E+03  0.50304804424E+03  0.00000000000E+00 0.  1.
         24    2    1    2    0    0  0.35144834834E+03  0.37524820352E+03 -0.10588138056E+03  0.53119219034E+03  0.81407128302E+02 0.  0.
        254    2    1    2    0    0 -0.35144834834E+03 -0.37524820352E+03  0.12956433562E+04  0.16646658738E+04  0.90999648849E+03 0.  0.
         23    2    4    4    0    0  0.26930115627E+03  0.49786452814E+02  0.37857391284E+03  0.47486780633E+03  0.84731472023E+02 0.  0.
         23    2    4    4    0    0 -0.62074950461E+03 -0.42503465634E+03  0.91706944335E+03  0.11897980674E+04  0.92836796629E+02 0.  0.
          4    1    3    3  502    0  0.14255438418E+02 -0.27742429002E+00 -0.10136753530E+02  0.17494235075E+02  0.00000000000E+00 0. -1.
         -3    1    3    3    0  502  0.33719290992E+03  0.37552562781E+03 -0.95744627026E+02  0.51369795527E+03  0.00000000000E+00 0.  1.
         13    1    5    5    0    0  0.19969668139E+03  0.71452565927E+02  0.25822500470E+03  0.33416221628E+03  0.00000000000E+00 0. -1.
        -13    1    5    5    0    0  0.69604474883E+02 -0.21666113113E+02  0.12034890813E+03  0.14070559005E+03  0.00000000000E+00 0.  1.
          4    1    6    6  503    0 -0.84669160624E+02 -0.93807949917E+02  0.18239014909E+03  0.22188953268E+03  0.00000000000E+00 0. -1.
         -4    1    6    6    0  503 -0.53608034398E+03 -0.33122670642E+03  0.73467929426E+03  0.96790853476E+03  0.00000000000E+00 0.  1.
<mgrwt>
<rscale>  0 0.18456053E+04</rscale>
<asrwt>0</asrwt>
<pdfrwt beam="1">  1        2 0.26043231E+00 0.18456053E+04</pdfrwt>
<pdfrwt beam="2">  1       -1 0.77392008E-01 0.18456053E+04</pdfrwt>
<totfact> 0.17747786E+01</totfact>
</mgrwt>
</event>
<event>
12    7  0.1611233E-007  0.2319929E+04  0.7818608E-02  0.8470105E-01
          2   -1    0    0  501    0  0.00000000000E+00  0.00000000000E+00  0.29881322974E+04  0.29881322974E+04  0.00000000000E+00 0. -1.
         -1   -1    0    0    0  501 -0.00000000000E+00 -0.00000000000E+00 -0.45028724163E+03  0.45028724163E+03  0.00000000000E+00 0.  1.
         24    2    1    2    0    0 -0.51488604274E+02  0.87790488132E+03  0.15061594653E+04  0.17450239476E+04  0.56781915280E+02 0.  0.
        254    2    1    2    0    0  0.51488604274E+02 -0.87790488132E+03  0.10316855905E+04  0.16933955914E+04  0.10148129948E+04 0.  0.
         23    2    4    4    0    0 -0.29695837207E+02  0.82948558462E+02  0.63338634890E+03  0.64621831155E+03  0.93045865602E+02 0.  0.
         23    2    4    4    0    0  0.81184441481E+02 -0.96085343979E+03  0.39829924158E+03  0.10471772799E+04  0.90042897163E+02 0.  0.
          4    1    3    3  502    0 -0.17139482263E+02  0.65624475197E+03  0.10973511782E+04  0.12787222313E+04  0.00000000000E+00 0. -1.
         -3    1    3    3    0  502 -0.34349122010E+02  0.22166012936E+03  0.40880828705E+03  0.46630171637E+03  0.00000000000E+00 0.  1.
         13    1    5    5    0    0 -0.40550422239E+02  0.96547051088E+02  0.59400252433E+03  0.60316222422E+03  0.00000000000E+00 0. -1.
        -13    1    5    5    0    0  0.10854585032E+02 -0.13598492626E+02  0.39383824572E+02  0.43056087326E+02  0.00000000000E+00 0.  1.
          1    1    6    6  503    0  0.31689996726E+02 -0.63284479914E+03  0.30088682634E+03  0.70144827177E+03  0.00000000000E+00 0. -1.
         -1    1    6    6    0  503  0.49494444755E+02 -0.32800864064E+03  0.97412415239E+02  0.34572900810E+03  0.00000000000E+00 0.  1.
<mgrwt>
<rscale>  0 0.23199292E+04</rscale>
<asrwt>0</asrwt>
<pdfrwt beam="1">  1        2 0.45971265E+00 0.23199292E+04</pdfrwt>
<pdfrwt beam="2">  1       -1 0.69274962E-01 0.23199292E+04</pdfrwt>
<totfact> 0.38471307E+00</totfact>
</mgrwt>
</event>
<event>
12    7  0.1611233E-007  0.1655964E+04  0.7818608E-02  0.8786886E-01
          2   -1    0    0  501    0  0.00000000000E+00  0.00000000000E+00  0.41712421099E+04  0.41712421099E+04  0.00000000000E+00 0. -1.
         -1   -1    0    0    0  501 -0.00000000000E+00 -0.00000000000E+00 -0.16435256508E+03  0.16435256508E+03  0.00000000000E+00 0.  1.
         24    2    1    2    0    0  0.31170985407E+03 -0.26255963665E+03  0.25151441814E+04  0.25491999373E+04  0.79808969741E+02 0.  0.
        254    2    1    2    0    0 -0.31170985407E+03  0.26255963665E+03  0.14917453634E+04  0.17863947376E+04  0.89431612603E+03 0.  0.
         23    2    4    4    0    0 -0.39098962499E+03  0.28620049273E+03  0.15664777387E+04  0.16423499732E+04  0.93152132631E+02 0.  0.
         23    2    4    4    0    0  0.79279770922E+02 -0.23640856089E+02 -0.74732375287E+02  0.14404476436E+03  0.91212905167E+02 0.  0.
          2    1    3    3  502    0  0.22644958335E+03 -0.23313700355E+03  0.19466280978E+04  0.19735737198E+04  0.00000000000E+00 0. -1.
         -1    1    3    3    0  502  0.85260270722E+02 -0.29422633091E+02  0.56851608357E+03  0.57562621759E+03  0.00000000000E+00 0.  1.
         13    1    5    5    0    0 -0.20428452462E+03  0.92145200524E+02  0.70336832969E+03  0.73820722849E+03  0.00000000000E+00 0.  1.
        -13    1    5    5    0    0 -0.18670510037E+03  0.19405529221E+03  0.86310940903E+03  0.90414274476E+03  0.00000000000E+00 0. -1.
          4    1    6    6  503    0 -0.18519009999E+02 -0.15563182401E+01 -0.27560316089E+02  0.33240741279E+02  0.00000000000E+00 0. -1.
         -4    1    6    6    0  503  0.97798780921E+02 -0.22084537849E+02 -0.47172059197E+02  0.11080402308E+03  0.00000000000E+00 0.  1.
<mgrwt>
<rscale>  0 0.16559642E+04</rscale>
<asrwt>0</asrwt>
<pdfrwt beam="1">  1        2 0.64172948E+00 0.16559642E+04</pdfrwt>
<pdfrwt beam="2">  1       -1 0.25285013E-01 0.16559642E+04</pdfrwt>
<totfact> 0.37573663E+00</totfact>
</mgrwt>
</event>
<event>
12    7  0.1611233E-007  0.1575119E+04  0.7818608E-02  0.8835981E-01
         -1   -1    0    0    0  501 -0.00000000000E+00  0.00000000000E+00  0.61291850874E+03  0.61291850874E+03  0.00000000000E+00 0.  1.
          2   -1    0    0  501    0  0.00000000000E+00 -0.00000000000E+00 -0.10119619196E+04  0.10119619196E+04  0.00000000000E+00 0. -1.
         24    2    1    2    0    0 -0.12813595882E+03 -0.48491334249E+03 -0.30802086853E+03  0.59399793896E+03  0.79980762554E+02 0.  0.
        254    2    1    2    0    0  0.12813595882E+03  0.48491334249E+03 -0.91022542318E+02  0.10308824894E+04  0.89603227062E+03 0.  0.
         23    2    4    4    0    0 -0.11345810547E+03  0.61682333870E+03  0.15263601210E+03  0.65197101459E+03  0.91786049140E+02 0.  0.
         23    2    4    4    0    0  0.24159406429E+03 -0.13190999621E+03 -0.24365855442E+03  0.37891147477E+03  0.91850288914E+02 0.  0.
          2    1    3    3  502    0 -0.11616587976E+03 -0.43528741994E+03 -0.24478260736E+03  0.51272621782E+03  0.00000000000E+00 0. -1.
         -1    1    3    3    0  502 -0.11970079060E+02 -0.49625922551E+02 -0.63238261170E+02  0.81271721143E+02  0.00000000000E+00 0.  1.
         13    1    5    5    0    0 -0.52179494868E+02  0.43105867712E+03  0.70835900344E+02  0.43994545978E+03  0.00000000000E+00 0.  1.
        -13    1    5    5    0    0 -0.61278610600E+02  0.18576466158E+03  0.81800111757E+02  0.21202555481E+03  0.00000000000E+00 0. -1.
          2    1    6    6  503    0  0.56780972624E+02 -0.66865030063E+02 -0.40330623280E+02  0.96548279485E+02  0.00000000000E+00 0.  1.
         -2    1    6    6    0  503  0.18481309166E+03 -0.65044966148E+02 -0.20332793114E+03  0.28236319529E+03  0.00000000000E+00 0. -1.
<mgrwt>
<rscale>  0 0.15751193E+04</rscale>
<asrwt>0</asrwt>
<pdfrwt beam="1">  1        2 0.15568645E+00 0.15751193E+04</pdfrwt>
<pdfrwt beam="2">  1       -1 0.94295156E-01 0.15751193E+04</pdfrwt>
<totfact> 0.29541394E+01</totfact>
</mgrwt>
</event>
<event>
12    7  0.1611233E-007  0.1594851E+04  0.7818608E-02  0.8823717E-01
         -1   -1    0    0    0  501 -0.00000000000E+00  0.00000000000E+00  0.16832535504E+03  0.16832535504E+03  0.00000000000E+00 0.  1.
          2   -1    0    0  501    0  0.00000000000E+00 -0.00000000000E+00 -0.37777296096E+04  0.37777296096E+04  0.00000000000E+00 0. -1.
         24    2    1    2    0    0  0.47649329021E+03 -0.97917595724E+01 -0.18522384591E+04  0.19142559906E+04  0.80292926348E+02 0.  0.
        254    2    1    2    0    0 -0.47649329021E+03  0.97917595724E+01 -0.17571657955E+04  0.20317989740E+04  0.90190559595E+03 0.  0.
         23    2    4    4    0    0  0.19502553132E+03  0.21298293884E+03 -0.65956150675E+03  0.72589597724E+03  0.92232849232E+02 0.  0.
         23    2    4    4    0    0 -0.67151882153E+03 -0.20319117927E+03 -0.10976042887E+04  0.13059029968E+04  0.91778425902E+02 0.  0.
          2    1    3    3  502    0  0.31671074574E+03  0.16392361714E+02 -0.13410368308E+04  0.13780254670E+04  0.00000000000E+00 0. -1.
         -1    1    3    3    0  502  0.15978254447E+03 -0.26184121286E+02 -0.51120162829E+03  0.53623052364E+03  0.00000000000E+00 0.  1.
         13    1    5    5    0    0  0.17434495786E+03  0.19908169247E+03 -0.51302486199E+03  0.57725574370E+03  0.00000000000E+00 0.  1.
        -13    1    5    5    0    0  0.20680573456E+02  0.13901246367E+02 -0.14653664477E+03  0.14864023354E+03  0.00000000000E+00 0. -1.
          4    1    6    6  503    0 -0.18182759781E+03 -0.39638917920E+02 -0.22479937523E+03  0.29183433356E+03  0.00000000000E+00 0. -1.
         -4    1    6    6    0  503 -0.48969122372E+03 -0.16355226135E+03 -0.87280491347E+03  0.10140686632E+04  0.00000000000E+00 0.  1.
<mgrwt>
<rscale>  0 0.15948513E+04</rscale>
<asrwt>0</asrwt>
<pdfrwt beam="1">  1        2 0.58118916E+00 0.15948513E+04</pdfrwt>
<pdfrwt beam="2">  1       -1 0.25896209E-01 0.15948513E+04</pdfrwt>
<totfact> 0.74737278E+00</totfact>
</mgrwt>
</event>
<event>
12    7  0.1611233E-007  0.1753158E+04  0.7818608E-02  0.8731614E-01
         -1   -1    0    0    0  501 -0.00000000000E+00  0.00000000000E+00  0.25966371976E+03  0.25966371976E+03  0.00000000000E+00 0.  1.
          2   -1    0    0  501    0  0.00000000000E+00 -0.00000000000E+00 -0.29591752599E+04  0.29591752599E+04  0.00000000000E+00 0. -1.
         24    2    1    2    0    0  0.46034039170E+03  0.26513621382E+03 -0.33285310589E+03  0.63202084035E+03  0.80303576649E+02 0.  0.
        254    2    1    2    0    0 -0.46034039170E+03 -0.26513621382E+03 -0.23666584343E+04  0.25868181393E+04  0.89908033757E+03 0.  0.
         23    2    4    4    0    0  0.11766815955E+02 -0.49990856887E+03 -0.11363393565E+04  0.12451295632E+04  0.95044520029E+02 0.  0.
         23    2    4    4    0    0 -0.47210720765E+03  0.23477235505E+03 -0.12303190777E+04  0.13416885761E+04  0.91869081056E+02 0.  0.
          2    1    3    3  502    0  0.26636838132E+03  0.16672814959E+03 -0.24051852200E+03  0.39572660999E+03  0.00000000000E+00 0. -1.
         -1    1    3    3    0  502  0.19397201038E+03  0.98408064233E+02 -0.92334583896E+02  0.23629423035E+03  0.00000000000E+00 0.  1.
         13    1    5    5    0    0 -0.38869966695E+01 -0.46406050453E+03 -0.98551097382E+03  0.10893113146E+04  0.00000000000E+00 0. -1.
        -13    1    5    5    0    0  0.15653812624E+02 -0.35848064341E+02 -0.15082838271E+03  0.15581824860E+03  0.00000000000E+00 0.  1.
          3    1    6    6  503    0 -0.24953301368E+03  0.11877302546E+03 -0.52948930898E+03  0.59727103129E+03  0.00000000000E+00 0. -1.
         -3    1    6    6    0  503 -0.22257419398E+03  0.11599932958E+03 -0.70082976875E+03  0.74441754484E+03  0.00000000000E+00 0.  1.
<mgrwt>
<rscale>  0 0.17531577E+04</rscale>
<asrwt>0</asrwt>
<pdfrwt beam="1">  1        2 0.45525772E+00 0.17531577E+04</pdfrwt>
<pdfrwt beam="2">  1       -1 0.39948265E-01 0.17531577E+04</pdfrwt>
<totfact> 0.12211582E+01</totfact>
</mgrwt>
</event>
<event>
12    7  0.1611233E-007  0.1656168E+04  0.7818608E-02  0.8786766E-01
          2   -1    0    0  501    0  0.00000000000E+00  0.00000000000E+00  0.22897667825E+04  0.22897667825E+04  0.00000000000E+00 0. -1.
         -1   -1    0    0    0  501 -0.00000000000E+00 -0.00000000000E+00 -0.29947282141E+03  0.29947282141E+03  0.00000000000E+00 0.  1.
         24    2    1    2    0    0  0.12540772090E+03  0.41708699829E+03  0.10405984150E+03  0.45484291689E+03  0.79780748457E+02 0.  0.
        254    2    1    2    0    0 -0.12540772090E+03 -0.41708699829E+03  0.18862341195E+04  0.21343966870E+04  0.89893348087E+03 0.  0.
         23    2    4    4    0    0 -0.11813752229E+03  0.11382250471E+03  0.13692364642E+02  0.18592996408E+03  0.86431672106E+02 0.  0.
         23    2    4    4    0    0 -0.72701986167E+01 -0.53090950300E+03  0.18725417549E+04  0.19484667229E+04  0.90510718687E+02 0.  0.
          2    1    3    3  502    0  0.13668694156E+02  0.13210411471E+02  0.19721463575E+02  0.27391317907E+02  0.00000000000E+00 0. -1.
         -1    1    3    3    0  502  0.11173902675E+03  0.40387658682E+03  0.84338377923E+02  0.42745159898E+03  0.00000000000E+00 0.  1.
         13    1    5    5    0    0 -0.93700807093E+02  0.12337962026E+03  0.25751180737E+02  0.15705252388E+03  0.00000000000E+00 0.  1.
        -13    1    5    5    0    0 -0.24436715194E+02 -0.95571155540E+01 -0.12058816095E+02  0.28877440205E+02  0.00000000000E+00 0. -1.
          2    1    6    6  503    0 -0.11687972440E+02 -0.12945365814E+03  0.60732076334E+03  0.62107436583E+03  0.00000000000E+00 0. -1.
         -2    1    6    6    0  503  0.44177738233E+01 -0.40145584486E+03  0.12652209916E+04  0.13273923571E+04  0.00000000000E+00 0.  1.
<mgrwt>
<rscale>  0 0.16561678E+04</rscale>
<asrwt>0</asrwt>
<pdfrwt beam="1">  1        2 0.35227180E+00 0.16561678E+04</pdfrwt>
<pdfrwt beam="2">  1       -1 0.46072743E-01 0.16561678E+04</pdfrwt>
<totfact> 0.23432322E+01</totfact>
</mgrwt>
</event>
<event>
12    7  0.1611233E-007  0.1692380E+04  0.7818608E-02  0.8765722E-01
          2   -1    0    0  501    0  0.00000000000E+00  0.00000000000E+00  0.18171154939E+04  0.18171154939E+04  0.00000000000E+00 0. -1.
         -1   -1    0    0    0  501 -0.00000000000E+00 -0.00000000000E+00 -0.39405174929E+03  0.39405174929E+03  0.00000000000E+00 0.  1.
         24    2    1    2    0    0 -0.56928929108E+03 -0.18268721650E+03  0.39504467233E+03  0.72099643335E+03  0.79439585537E+02 0.  0.
        254    2    1    2    0    0  0.56928929108E+03  0.18268721650E+03  0.10280190723E+04  0.14901708099E+04  0.89795373687E+03 0.  0.
         23    2    4    4    0    0  0.10433727665E+03  0.25673070855E+03 -0.63201907549E+02  0.29819451643E+03  0.90158552021E+02 0.  0.
         23    2    4    4    0    0  0.46495201443E+03 -0.74043492045E+02  0.10912209799E+04  0.11919762934E+04  0.91550220115E+02 0.  0.
          4    1    3    3  502    0 -0.29454997404E+03 -0.83345143601E+02  0.24779123099E+03  0.39383574536E+03  0.00000000000E+00 0. -1.
         -3    1    3    3    0  502 -0.27473931704E+03 -0.99342072903E+02  0.14725344134E+03  0.32716068798E+03  0.00000000000E+00 0.  1.
         13    1    5    5    0    0  0.85888542581E+02  0.23965123268E+03 -0.81269853430E+02  0.26723462378E+03  0.00000000000E+00 0.  1.
        -13    1    5    5    0    0  0.18448734070E+02  0.17079475874E+02  0.18067945881E+02  0.30959892656E+02  0.00000000000E+00 0. -1.
          3    1    6    6  503    0  0.29349380734E+03 -0.58242054946E+02  0.58164720230E+03  0.65409802007E+03  0.00000000000E+00 0. -1.
         -3    1    6    6    0  503  0.17145820709E+03 -0.15801437099E+02  0.50957377756E+03  0.53787827338E+03  0.00000000000E+00 0.  1.
<mgrwt>
<rscale>  0 0.16923800E+04</rscale>
<asrwt>0</asrwt>
<pdfrwt beam="1">  1        2 0.27955623E+00 0.16923800E+04</pdfrwt>
<pdfrwt beam="2">  1       -1 0.60623347E-01 0.16923800E+04</pdfrwt>
<totfact> 0.25262738E+01</totfact>
</mgrwt>
</event>
<event>
12    7  0.1611233E-007  0.3055822E+04  0.7818608E-02  0.8227968E-01
         -1   -1    0    0    0  501 -0.00000000000E+00  0.00000000000E+00  0.17419712605E+04  0.17419712605E+04  0.00000000000E+00 0.  1.
          2   -1    0    0  501    0  0.00000000000E+00 -0.00000000000E+00 -0.13401549684E+04  0.13401549684E+04  0.00000000000E+00 0. -1.
         24    2    1    2    0    0  0.97994495026E+02  0.10705815678E+04 -0.66025903419E+03  0.12642364121E+04  0.81264377620E+02 0.  0.
        254    2    1    2    0    0 -0.97994495026E+02 -0.10705815678E+04  0.10620753263E+04  0.18178898169E+04  0.10104313798E+04 0.  0.
         23    2    4    4    0    0 -0.95266341733E+02 -0.24416075171E+03 -0.17502044261E+03  0.32736428192E+03  0.88572395244E+02 0.  0.
         23    2    4    4    0    0 -0.27281532937E+01 -0.82642081607E+03  0.12370957689E+04  0.14905255350E+04  0.91003411096E+02 0.  0.
          2    1    3    3  502    0  0.77044445778E+02  0.97714077858E+03 -0.62342418452E+03  0.11616357698E+04  0.00000000000E+00 0. -1.
         -1    1    3    3    0  502  0.20950049248E+02  0.93440789206E+02 -0.36834849674E+02  0.10260064231E+03  0.00000000000E+00 0.  1.
         13    1    5    5    0    0 -0.13650763399E+02 -0.98169691137E+02 -0.23913125638E+02  0.10195817366E+03  0.00000000000E+00 0.  1.
        -13    1    5    5    0    0 -0.81615578333E+02 -0.14599106058E+03 -0.15110731697E+03  0.22540610825E+03  0.00000000000E+00 0. -1.
          1    1    6    6  503    0  0.61630218594E+01 -0.25729251366E+03  0.31334756140E+03  0.40549243478E+03  0.00000000000E+00 0. -1.
         -1    1    6    6    0  503 -0.88911751532E+01 -0.56912830241E+03  0.92374820751E+03  0.10850331002E+04  0.00000000000E+00 0.  1.
<mgrwt>
<rscale>  0 0.30558216E+04</rscale>
<asrwt>0</asrwt>
<pdfrwt beam="1">  1        2 0.20617769E+00 0.30558216E+04</pdfrwt>
<pdfrwt beam="2">  1       -1 0.26799558E+00 0.30558216E+04</pdfrwt>
<totfact> 0.80941315E-01</totfact>
</mgrwt>
</event>
<event>
12    7  0.1611233E-007  0.2074464E+04  0.7818608E-02  0.8572576E-01
         -1   -1    0    0    0  501 -0.00000000000E+00  0.00000000000E+00  0.62225478635E+03  0.62225478635E+03  0.00000000000E+00 0.  1.
          2   -1    0    0  501    0  0.00000000000E+00 -0.00000000000E+00 -0.17289552398E+04  0.17289552398E+04  0.00000000000E+00 0. -1.
         24    2    1    2    0    0 -0.72565885073E+03  0.34818190078E+03 -0.19555595575E+03  0.83216400722E+03  0.80270788051E+02 0.  0.
        254    2    1    2    0    0  0.72565885073E+03 -0.34818190078E+03 -0.91114449766E+03  0.15190460189E+04  0.91077171025E+03 0.  0.
         23    2    4    4    0    0  0.32001669187E+03  0.57774710566E+00 -0.91759817892E+03  0.97645401568E+03  0.95210345638E+02 0.  0.
         23    2    4    4    0    0  0.40564215886E+03 -0.34875964788E+03  0.64536812638E+01  0.54259200320E+03  0.90474189107E+02 0.  0.
          2    1    3    3  502    0 -0.34597310613E+03  0.14363042555E+03 -0.12653224117E+03  0.39539536841E+03  0.00000000000E+00 0. -1.
         -1    1    3    3    0  502 -0.37968574461E+03  0.20455147523E+03 -0.69023714579E+02  0.43676863881E+03  0.00000000000E+00 0.  1.
         13    1    5    5    0    0  0.24348837590E+03  0.18703862883E+02 -0.78685849744E+03  0.82388270930E+03  0.00000000000E+00 0. -1.
        -13    1    5    5    0    0  0.76528315971E+02 -0.18126115777E+02 -0.13073968148E+03  0.15257130638E+03  0.00000000000E+00 0.  1.
          3    1    6    6  503    0  0.17629839308E+03 -0.95707163408E+02  0.12874450336E+02  0.20101426815E+03  0.00000000000E+00 0. -1.
         -3    1    6    6    0  503  0.22934376578E+03 -0.25305248447E+03 -0.64207690722E+01  0.34157773504E+03  0.00000000000E+00 0.  1.
<mgrwt>
<rscale>  0 0.20744644E+04</rscale>
<asrwt>0</asrwt>
<pdfrwt beam="1">  1        2 0.26599311E+00 0.20744644E+04</pdfrwt>
<pdfrwt beam="2">  1       -1 0.95731506E-01 0.20744644E+04</pdfrwt>
<totfact> 0.10458667E+01</totfact>
</mgrwt>
</event>
<event>
12    7  0.1611233E-007  0.1131470E+04  0.7818608E-02  0.9175051E-01
         -1   -1    0    0    0  501 -0.00000000000E+00  0.00000000000E+00  0.24689399874E+03  0.24689399874E+03  0.00000000000E+00 0.  1.
          2   -1    0    0  501    0  0.00000000000E+00 -0.00000000000E+00 -0.12963291391E+04  0.12963291391E+04  0.00000000000E+00 0. -1.
         24    2    1    2    0    0  0.10550977528E+03  0.16637351926E+03 -0.22755595612E+03  0.31069744023E+03  0.77063127418E+02 0.  0.
        254    2    1    2    0    0 -0.10550977528E+03 -0.16637351926E+03 -0.82187918428E+03  0.12325256976E+04  0.89711857701E+03 0.  0.
         23    2    4    4    0    0 -0.37042160941E+03  0.10730075692E+03 -0.96053258042E+02  0.40799579577E+03  0.92242722354E+02 0.  0.
         23    2    4    4    0    0  0.26491183413E+03 -0.27367427619E+03 -0.72582592624E+03  0.82452990188E+03  0.89164985168E+02 0.  0.
          2    1    3    3  502    0  0.85073182044E+02  0.15821059259E+03 -0.22591876604E+03  0.28863008637E+03  0.00000000000E+00 0. -1.
         -1    1    3    3    0  502  0.20436593237E+02  0.81629266712E+01 -0.16371900856E+01  0.22067353859E+02  0.00000000000E+00 0.  1.
         13    1    5    5    0    0 -0.29239481710E+03  0.73226005953E+02 -0.11164665579E+03  0.32143701213E+03  0.00000000000E+00 0.  1.
        -13    1    5    5    0    0 -0.78026792311E+02  0.34074750969E+02  0.15593397749E+02  0.86558783640E+02  0.00000000000E+00 0. -1.
          1    1    6    6  503    0  0.24111117933E+03 -0.26258141706E+03 -0.70832332340E+03  0.79297259212E+03  0.00000000000E+00 0. -1.
         -1    1    6    6    0  503  0.23800654807E+02 -0.11092859128E+02 -0.17502602832E+02  0.31557309752E+02  0.00000000000E+00 0.  1.
<mgrwt>
<rscale>  0 0.11314696E+04</rscale>
<asrwt>0</asrwt>
<pdfrwt beam="1">  1        2 0.19943525E+00 0.11314696E+04</pdfrwt>
<pdfrwt beam="2">  1       -1 0.37983692E-01 0.11314696E+04</pdfrwt>
<totfact> 0.12550352E+02</totfact>
</mgrwt>
</event>
<event>
12    7  0.1611233E-007  0.1673978E+04  0.7818608E-02  0.8776347E-01
          2   -1    0    0  501    0  0.00000000000E+00  0.00000000000E+00  0.13055863054E+04  0.13055863054E+04  0.00000000000E+00 0. -1.
         -1   -1    0    0    0  501 -0.00000000000E+00 -0.00000000000E+00 -0.53657902176E+03  0.53657902176E+03  0.00000000000E+00 0.  1.
         24    2    1    2    0    0  0.47198587994E+03 -0.35498393892E+03  0.20303443613E+03  0.62969285038E+03  0.80658761534E+02 0.  0.
        254    2    1    2    0    0 -0.47198587994E+03  0.35498393892E+03  0.56597284751E+03  0.12124724768E+04  0.89497484605E+03 0.  0.
         23    2    4    4    0    0 -0.43179271995E+02 -0.13158433809E+02 -0.21854597070E+03  0.24122119289E+03  0.91584543876E+02 0.  0.
         23    2    4    4    0    0 -0.42880660794E+03  0.36814237273E+03  0.78451881821E+03  0.97125128389E+03  0.91953067978E+02 0.  0.
          4    1    3    3  502    0  0.18888514796E+03 -0.18027815344E+03  0.11672004059E+03  0.28600940474E+03  0.00000000000E+00 0. -1.
         -3    1    3    3    0  502  0.28310073197E+03 -0.17470578549E+03  0.86314395545E+02  0.34368344564E+03  0.00000000000E+00 0.  1.
         13    1    5    5    0    0 -0.32449502252E+02 -0.21488390272E+02 -0.22342380415E+03  0.22678826551E+03  0.00000000000E+00 0.  1.
        -13    1    5    5    0    0 -0.10729769743E+02  0.83299564623E+01  0.48778334490E+01  0.14432927373E+02  0.00000000000E+00 0. -1.
          3    1    6    6  503    0 -0.23051110140E+03  0.13795501077E+03  0.37847860385E+03  0.46412606740E+03  0.00000000000E+00 0. -1.
         -3    1    6    6    0  503 -0.19829550654E+03  0.23018736196E+03  0.40604021436E+03  0.50712521649E+03  0.00000000000E+00 0.  1.
<mgrwt>
<rscale>  0 0.16739776E+04</rscale>
<asrwt>0</asrwt>
<pdfrwt beam="1">  1        2 0.20085943E+00 0.16739776E+04</pdfrwt>
<pdfrwt beam="2">  1       -1 0.82550619E-01 0.16739776E+04</pdfrwt>
<totfact> 0.26012228E+01</totfact>
</mgrwt>
</event>
<event>
12    7  0.1611233E-007  0.2092141E+04  0.7818608E-02  0.8564713E-01
          2   -1    0    0  501    0  0.00000000000E+00  0.00000000000E+00  0.10483037893E+04  0.10483037893E+04  0.00000000000E+00 0. -1.
         -1   -1    0    0    0  501 -0.00000000000E+00 -0.00000000000E+00 -0.10438421447E+04  0.10438421447E+04  0.00000000000E+00 0.  1.
         24    2    1    2    0    0  0.77519556875E+02 -0.19535753149E+03 -0.82178082829E+03  0.85207449065E+03  0.80829209150E+02 0.  0.
        254    2    1    2    0    0 -0.77519556875E+02  0.19535753149E+03  0.82624247282E+03  0.12400714434E+04  0.90051469392E+03 0.  0.
         23    2    4    4    0    0 -0.22700374365E+03 -0.24212942611E+03  0.72375086319E+02  0.35137036816E+03  0.89808818488E+02 0.  0.
         23    2    4    4    0    0  0.14948418677E+03  0.43748695760E+03  0.75386738650E+03  0.88870107522E+03  0.87938640541E+02 0.  0.
          2    1    3    3  502    0  0.30369618499E+02 -0.15163453989E+03 -0.47998548948E+03  0.50428307281E+03  0.00000000000E+00 0. -1.
         -1    1    3    3    0  502  0.47149938377E+02 -0.43722991600E+02 -0.34179533882E+03  0.34779141784E+03  0.00000000000E+00 0.  1.
         13    1    5    5    0    0 -0.63506009982E+02 -0.21531561049E+02  0.30297406141E+02  0.73583654734E+02  0.00000000000E+00 0.  1.
        -13    1    5    5    0    0 -0.16349773366E+03 -0.22059786506E+03  0.42077680178E+02  0.27778671342E+03  0.00000000000E+00 0. -1.
          2    1    6    6  503    0  0.13659462559E+03  0.28934242576E+03  0.55109250673E+03  0.63724413066E+03  0.00000000000E+00 0. -1.
         -2    1    6    6    0  503  0.12889561181E+02  0.14814453184E+03  0.20277487977E+03  0.25145694456E+03  0.00000000000E+00 0.  1.
<mgrwt>
<rscale>  0 0.20921412E+04</rscale>
<asrwt>0</asrwt>
<pdfrwt beam="1">  1        2 0.16127751E+00 0.20921412E+04</pdfrwt>
<pdfrwt beam="2">  1       -1 0.16059110E+00 0.20921412E+04</pdfrwt>
<totfact> 0.71384065E+00</totfact>
</mgrwt>
</event>
<event>
12    7  0.1611233E-007  0.1135787E+04  0.7818608E-02  0.9170997E-01
          2   -1    0    0  501    0  0.00000000000E+00  0.00000000000E+00  0.11677866288E+04  0.11677866288E+04  0.00000000000E+00 0. -1.
         -1   -1    0    0    0  501 -0.00000000000E+00 -0.00000000000E+00 -0.27616597753E+03  0.27616597753E+03  0.00000000000E+00 0.  1.
         24    2    1    2    0    0 -0.13491054741E+02  0.18265190386E+02 -0.81284384615E+02  0.11228483666E+03  0.74061512429E+02 0.  0.
        254    2    1    2    0    0  0.13491054741E+02 -0.18265190386E+02  0.97290503586E+03  0.13316677697E+04  0.90899901770E+03 0.  0.
         23    2    4    4    0    0  0.25958985624E+03 -0.19693969945E+03  0.95552458747E+03  0.10137036413E+04  0.91628032710E+02 0.  0.
         23    2    4    4    0    0 -0.24609880149E+03  0.17867450907E+03  0.17380448393E+02  0.31796412838E+03  0.91158689467E+02 0.  0.
          2    1    3    3  502    0 -0.15426025259E+02 -0.22304812512E+02 -0.76273928933E+01  0.28171688604E+02  0.00000000000E+00 0. -1.
         -1    1    3    3    0  502  0.19349705177E+01  0.40570002897E+02 -0.73656991722E+02  0.84113148054E+02  0.00000000000E+00 0.  1.
         13    1    5    5    0    0  0.92412661932E+02 -0.11794838723E+03  0.50355157443E+03  0.52537235390E+03  0.00000000000E+00 0.  1.
        -13    1    5    5    0    0  0.16717719430E+03 -0.78991312223E+02  0.45197301304E+03  0.48833128737E+03  0.00000000000E+00 0. -1.
          2    1    6    6  503    0 -0.21505460399E+03  0.18696243178E+03  0.10806179775E+02  0.28516698111E+03  0.00000000000E+00 0. -1.
         -2    1    6    6    0  503 -0.31044197508E+02 -0.82879227095E+01  0.65742686181E+01  0.32797147279E+02  0.00000000000E+00 0.  1.
<mgrwt>
<rscale>  0 0.11357868E+04</rscale>
<asrwt>0</asrwt>
<pdfrwt beam="1">  1        2 0.17965948E+00 0.11357868E+04</pdfrwt>
<pdfrwt beam="2">  1       -1 0.42487074E-01 0.11357868E+04</pdfrwt>
<totfact> 0.12183317E+02</totfact>
</mgrwt>
</event>
<event>
12    7  0.1611233E-007  0.1178092E+04  0.7818608E-02  0.9132252E-01
          2   -1    0    0  501    0  0.00000000000E+00  0.00000000000E+00  0.25072668338E+03  0.25072668338E+03  0.00000000000E+00 0. -1.
         -1   -1    0    0    0  501 -0.00000000000E+00 -0.00000000000E+00 -0.13838774716E+04  0.13838774716E+04  0.00000000000E+00 0.  1.
         24    2    1    2    0    0 -0.49405337627E+02 -0.23778249973E+03 -0.26558141022E+03  0.36812075053E+03  0.77446736202E+02 0.  0.
        254    2    1    2    0    0  0.49405337627E+02  0.23778249973E+03 -0.86756937800E+03  0.12664834045E+04  0.89012481346E+03 0.  0.
         23    2    4    4    0    0 -0.49971681585E+02  0.43521391657E+03 -0.97040447502E+02  0.45892653344E+03  0.96376306788E+02 0.  0.
         23    2    4    4    0    0  0.99377019212E+02 -0.19743141683E+03 -0.77052893050E+03  0.80755687101E+03  0.97868845292E+02 0.  0.
          2    1    3    3  502    0  0.75522998349E+00 -0.15434008626E+03 -0.13372032151E+03  0.20421203927E+03  0.00000000000E+00 0. -1.
         -1    1    3    3    0  502 -0.50160567610E+02 -0.83442413473E+02 -0.13186108871E+03  0.16390871125E+03  0.00000000000E+00 0.  1.
         13    1    5    5    0    0 -0.62680777702E+02  0.17820709521E+03 -0.64191618860E+02  0.19951744939E+03  0.00000000000E+00 0.  1.
        -13    1    5    5    0    0  0.12709096117E+02  0.25700682136E+03 -0.32848828642E+02  0.25940908406E+03  0.00000000000E+00 0. -1.
          4    1    6    6  503    0  0.98873163849E+00 -0.10999289919E+03 -0.36266283209E+03  0.37897723578E+03  0.00000000000E+00 0. -1.
         -4    1    6    6    0  503  0.98388287573E+02 -0.87438517642E+02 -0.40786609842E+03  0.42857963523E+03  0.00000000000E+00 0.  1.
<mgrwt>
<rscale>  0 0.11780917E+04</rscale>
<asrwt>0</asrwt>
<pdfrwt beam="1">  1        2 0.38573336E-01 0.11780917E+04</pdfrwt>
<pdfrwt beam="2">  1       -1 0.21290422E+00 0.11780917E+04</pdfrwt>
<totfact> 0.18688829E+01</totfact>
</mgrwt>
</event>
<event>
12    7  0.1611233E-007  0.1130582E+04  0.7818608E-02  0.9175887E-01
          2   -1    0    0  501    0  0.00000000000E+00  0.00000000000E+00  0.21657675258E+04  0.21657675258E+04  0.00000000000E+00 0. -1.
         -1   -1    0    0    0  501 -0.00000000000E+00 -0.00000000000E+00 -0.14754753550E+03  0.14754753550E+03  0.00000000000E+00 0.  1.
         24    2    1    2    0    0  0.21887667130E+02 -0.32841339407E+02  0.52791853071E+03  0.53558979025E+03  0.81245460237E+02 0.  0.
        254    2    1    2    0    0 -0.21887667130E+02  0.32841339407E+02  0.14903014596E+04  0.17777252711E+04  0.96837548261E+03 0.  0.
         23    2    4    4    0    0 -0.23858858005E+03 -0.38976108966E+03  0.55129555488E+03  0.72151072255E+03  0.88389571703E+02 0.  0.
         23    2    4    4    0    0  0.21670091292E+03  0.42260242907E+03  0.93900590474E+03  0.10562145485E+04  0.91131688473E+02 0.  0.
          4    1    3    3  502    0  0.35508794590E+02 -0.28196471516E+02  0.51248744816E+03  0.51448935851E+03  0.00000000000E+00 0. -1.
         -3    1    3    3    0  502 -0.13621127460E+02 -0.46448678913E+01  0.15431082548E+02  0.21100431740E+02  0.00000000000E+00 0.  1.
         13    1    5    5    0    0 -0.45096159097E+02 -0.79428437259E+02  0.60957432926E+02  0.10981051334E+03  0.00000000000E+00 0.  1.
        -13    1    5    5    0    0 -0.19349242096E+03 -0.31033265240E+03  0.49033812195E+03  0.61170020922E+03  0.00000000000E+00 0. -1.
          4    1    6    6  503    0  0.11794734437E+03  0.21897973449E+03  0.39207891427E+03  0.46431624479E+03  0.00000000000E+00 0. -1.
         -4    1    6    6    0  503  0.98753568553E+02  0.20362269458E+03  0.54692699047E+03  0.59189830372E+03  0.00000000000E+00 0.  1.
<mgrwt>
<rscale>  0 0.11305816E+04</rscale>
<asrwt>0</asrwt>
<pdfrwt beam="1">  1        2 0.33319498E+00 0.11305816E+04</pdfrwt>
<pdfrwt beam="2">  1       -1 0.22699622E-01 0.11305816E+04</pdfrwt>
<totfact> 0.10101506E+02</totfact>
</mgrwt>
</event>
<event>
12    7  0.1611233E-007  0.1090658E+04  0.7818608E-02  0.9214345E-01
         -1   -1    0    0    0  501 -0.00000000000E+00  0.00000000000E+00  0.28102557394E+03  0.28102557394E+03  0.00000000000E+00 0.  1.
          2   -1    0    0  501    0  0.00000000000E+00 -0.00000000000E+00 -0.10582095251E+04  0.10582095251E+04  0.00000000000E+00 0. -1.
         24    2    1    2    0    0  0.40860087783E+02  0.68070129157E+02 -0.28948256352E+03  0.31143113094E+03  0.82982561290E+02 0.  0.
        254    2    1    2    0    0 -0.40860087783E+02 -0.68070129157E+02 -0.48770138759E+03  0.10278039681E+04  0.90123540989E+03 0.  0.
         23    2    4    4    0    0 -0.37186146839E+03 -0.19700028961E+03 -0.50106202656E+03  0.66058013124E+03  0.90624994062E+02 0.  0.
         23    2    4    4    0    0  0.33100138061E+03  0.12893016045E+03  0.13360638968E+02  0.36722383682E+03  0.92140867220E+02 0.  0.
          2    1    3    3  502    0  0.63624431905E+02  0.34370056966E+02 -0.21082117355E+03  0.22287874813E+03  0.00000000000E+00 0. -1.
         -1    1    3    3    0  502 -0.22764344122E+02  0.33700072191E+02 -0.78661389974E+02  0.88552382812E+02  0.00000000000E+00 0.  1.
         13    1    5    5    0    0 -0.65618307421E+02 -0.17684314471E+02 -0.40351757142E+02  0.79036457104E+02  0.00000000000E+00 0. -1.
        -13    1    5    5    0    0 -0.30624316097E+03 -0.17931597514E+03 -0.46071026942E+03  0.58154367414E+03  0.00000000000E+00 0.  1.
          2    1    6    6  503    0  0.57294722017E+02  0.60247443264E+02 -0.11525067277E+02  0.83936087391E+02  0.00000000000E+00 0. -1.
         -2    1    6    6    0  503  0.27370665859E+03  0.68682717188E+02  0.24885706245E+02  0.28328774942E+03  0.00000000000E+00 0.  1.
<mgrwt>
<rscale>  0 0.10906584E+04</rscale>
<asrwt>0</asrwt>
<pdfrwt beam="1">  1        2 0.16280146E+00 0.10906584E+04</pdfrwt>
<pdfrwt beam="2">  1       -1 0.43234704E-01 0.10906584E+04</pdfrwt>
<totfact> 0.13816754E+02</totfact>
</mgrwt>
</event>
<event>
12    7  0.1611233E-007  0.3787754E+04  0.7818608E-02  0.8048788E-01
         -1   -1    0    0    0  501 -0.00000000000E+00  0.00000000000E+00  0.10821268138E+04  0.10821268138E+04  0.00000000000E+00 0.  1.
          2   -1    0    0  501    0  0.00000000000E+00 -0.00000000000E+00 -0.33145562321E+04  0.33145562321E+04  0.00000000000E+00 0. -1.
         24    2    1    2    0    0 -0.36474317019E+03 -0.17143549766E+04 -0.14842734761E+04  0.22982744160E+04  0.83348506217E+02 0.  0.
        254    2    1    2    0    0  0.36474317019E+03  0.17143549766E+04 -0.74815594218E+03  0.20984086299E+04  0.87836831584E+03 0.  0.
         23    2    4    4    0    0  0.55075844633E+03  0.16516362498E+04 -0.62952111575E+03  0.18536018875E+04  0.91137008444E+02 0.  0.
         23    2    4    4    0    0 -0.18601527614E+03  0.62718726761E+02 -0.11863482643E+03  0.24480674238E+03  0.85561658619E+02 0.  0.
          2    1    3    3  502    0 -0.75911549217E+02 -0.52705582406E+03 -0.46970115296E+03  0.71004899695E+03  0.00000000000E+00 0. -1.
         -1    1    3    3    0  502 -0.28883162097E+03 -0.11872991525E+04 -0.10145723232E+04  0.15882254191E+04  0.00000000000E+00 0.  1.
         13    1    5    5    0    0  0.58319675073E+02  0.10704304738E+03 -0.34826115585E+02  0.12677640482E+03  0.00000000000E+00 0.  1.
        -13    1    5    5    0    0  0.49243877126E+03  0.15445932025E+04 -0.59469500016E+03  0.17268254827E+04  0.00000000000E+00 0. -1.
          4    1    6    6  503    0 -0.10073963529E+03  0.77589149773E+01 -0.19385431796E+02  0.10288085267E+03  0.00000000000E+00 0. -1.
         -4    1    6    6    0  503 -0.85275640855E+02  0.54959811784E+02 -0.99249394634E+02  0.14192588971E+03  0.00000000000E+00 0.  1.
<mgrwt>
<rscale>  0 0.37877540E+04</rscale>
<asrwt>0</asrwt>
<pdfrwt beam="1">  1        2 0.50993172E+00 0.37877540E+04</pdfrwt>
<pdfrwt beam="2">  1       -1 0.16648105E+00 0.37877540E+04</pdfrwt>
<totfact> 0.25891753E-01</totfact>
</mgrwt>
</event>
<event>
12    7  0.1611233E-007  0.1339804E+04  0.7818608E-02  0.8998582E-01
          2   -1    0    0  501    0  0.00000000000E+00  0.00000000000E+00  0.84583792591E+03  0.84583792591E+03  0.00000000000E+00 0. -1.
         -1   -1    0    0    0  501 -0.00000000000E+00 -0.00000000000E+00 -0.53056145628E+03  0.53056145628E+03  0.00000000000E+00 0.  1.
         24    2    1    2    0    0  0.15778242509E+03 -0.23059168704E+03 -0.15329118073E+03  0.32835172143E+03  0.79049649448E+02 0.  0.
        254    2    1    2    0    0 -0.15778242509E+03  0.23059168704E+03  0.46856765036E+03  0.10480476608E+04  0.89486336189E+03 0.  0.
         23    2    4    4    0    0 -0.22996143423E+03  0.16058018525E+03  0.71087792601E+03  0.76943964216E+03  0.89563832571E+02 0.  0.
         23    2    4    4    0    0  0.72179009140E+02  0.70011501789E+02 -0.24231027565E+03  0.27860801860E+03  0.93790930248E+02 0.  0.
          4    1    3    3  502    0  0.90221045024E+01 -0.36459032016E+02 -0.50782895847E+02  0.63162978839E+02  0.00000000000E+00 0. -1.
         -1    1    3    3    0  502  0.14876032059E+03 -0.19413265503E+03 -0.10250828489E+03  0.26518874260E+03  0.00000000000E+00 0.  1.
         13    1    5    5    0    0 -0.86002321461E+01  0.39243986438E+02  0.13039610806E+03  0.13644485869E+03  0.00000000000E+00 0.  1.
        -13    1    5    5    0    0 -0.22136120209E+03  0.12133619881E+03  0.58048181795E+03  0.63299478347E+03  0.00000000000E+00 0. -1.
          4    1    6    6  503    0  0.90708020315E+02  0.37190346181E+02 -0.19371540679E+03  0.21710993903E+03  0.00000000000E+00 0. -1.
         -4    1    6    6    0  503 -0.18529011175E+02  0.32821155607E+02 -0.48594868864E+02  0.61498079567E+02  0.00000000000E+00 0.  1.
<mgrwt>
<rscale>  0 0.13398045E+04</rscale>
<asrwt>0</asrwt>
<pdfrwt beam="1">  1        2 0.13012891E+00 0.13398045E+04</pdfrwt>
<pdfrwt beam="2">  1       -1 0.81624839E-01 0.13398045E+04</pdfrwt>
<totfact> 0.53292077E+01</totfact>
</mgrwt>
</event>
<event>
12    7  0.1611233E-007  0.2546052E+04  0.7818608E-02  0.8386761E-01
          2   -1    0    0  501    0  0.00000000000E+00  0.00000000000E+00  0.19185863049E+04  0.19185863049E+04  0.00000000000E+00 0. -1.
         -1   -1    0    0    0  501 -0.00000000000E+00 -0.00000000000E+00 -0.84468190593E+03  0.84468190593E+03  0.00000000000E+00 0.  1.
         24    2    1    2    0    0  0.27218953189E+03 -0.89334291517E+03  0.11177957122E+04  0.14588005009E+04  0.80516718265E+02 0.  0.
        254    2    1    2    0    0 -0.27218953189E+03  0.89334291517E+03 -0.43891313237E+02  0.13044677099E+04  0.90970371739E+03 0.  0.
         23    2    4    4    0    0 -0.46392704583E+03  0.17021766521E+03  0.15287509534E+03  0.52529469777E+03  0.91440512492E+02 0.  0.
         23    2    4    4    0    0  0.19173751393E+03  0.72312524995E+03 -0.19676640858E+03  0.77917301213E+03  0.93381807197E+02 0.  0.
          4    1    3    3  502    0  0.16602975261E+03 -0.59440031081E+03  0.68220954734E+03  0.91993884292E+03  0.00000000000E+00 0. -1.
         -3    1    3    3    0  502  0.10615977929E+03 -0.29894260436E+03  0.43558616489E+03  0.53886165802E+03  0.00000000000E+00 0.  1.
         13    1    5    5    0    0 -0.25822974569E+03  0.10902727247E+03  0.13153523305E+03  0.30963053020E+03  0.00000000000E+00 0.  1.
        -13    1    5    5    0    0 -0.20569730014E+03  0.61190392740E+02  0.21339862298E+02  0.21566416756E+03  0.00000000000E+00 0. -1.
          4    1    6    6  503    0  0.97313425264E+02  0.36164874413E+03 -0.50266676727E+02  0.37787095106E+03  0.00000000000E+00 0. -1.
         -4    1    6    6    0  503  0.94424088671E+02  0.36147650582E+03 -0.14649973185E+03  0.40130206107E+03  0.00000000000E+00 0.  1.
<mgrwt>
<rscale>  0 0.25460520E+04</rscale>
<asrwt>0</asrwt>
<pdfrwt beam="1">  1        2 0.29516712E+00 0.25460520E+04</pdfrwt>
<pdfrwt beam="2">  1       -1 0.12995106E+00 0.25460520E+04</pdfrwt>
<totfact> 0.38058490E+00</totfact>
</mgrwt>
</event>
<event>
12    7  0.1611233E-007  0.1186672E+04  0.7818608E-02  0.9124603E-01
          2   -1    0    0  501    0  0.00000000000E+00  0.00000000000E+00  0.74394217786E+03  0.74394217786E+03  0.00000000000E+00 0. -1.
         -1   -1    0    0    0  501 -0.00000000000E+00 -0.00000000000E+00 -0.47321917841E+03  0.47321917841E+03  0.00000000000E+00 0.  1.
         24    2    1    2    0    0  0.93821356115E+02 -0.84276106425E+02 -0.15344783994E+03  0.21264480060E+03  0.75938545309E+02 0.  0.
        254    2    1    2    0    0 -0.93821356115E+02  0.84276106425E+02  0.42417083939E+03  0.10045165557E+04  0.90179138421E+03 0.  0.
         23    2    4    4    0    0 -0.62900557560E+02 -0.22889659021E+03 -0.18290857003E+03  0.31476932280E+03  0.96301881774E+02 0.  0.
         23    2    4    4    0    0 -0.30920798555E+02  0.31317269664E+03  0.60707940942E+03  0.68974723286E+03  0.90402445701E+02 0.  0.
          2    1    3    3  502    0  0.13671911786E+02 -0.31708741528E+02 -0.35377519214E+01  0.34711397982E+02  0.00000000000E+00 0. -1.
         -1    1    3    3    0  502  0.80149444329E+02 -0.52567364897E+02 -0.14991008802E+03  0.17793340262E+03  0.00000000000E+00 0.  1.
         13    1    5    5    0    0 -0.40660721492E+02 -0.97278684260E+02 -0.13855662206E+03  0.17411023577E+03  0.00000000000E+00 0.  1.
        -13    1    5    5    0    0 -0.22239836069E+02 -0.13161790595E+03 -0.44351947977E+02  0.14065908703E+03  0.00000000000E+00 0. -1.
          1    1    6    6  503    0 -0.13132877000E+02  0.77255486482E+02  0.79904342177E+02  0.11191776690E+03  0.00000000000E+00 0. -1.
         -1    1    6    6    0  503 -0.17787921554E+02  0.23591721016E+03  0.52717506725E+03  0.57782946596E+03  0.00000000000E+00 0.  1.
<mgrwt>
<rscale>  0 0.11866722E+04</rscale>
<asrwt>0</asrwt>
<pdfrwt beam="1">  1        2 0.11445264E+00 0.11866722E+04</pdfrwt>
<pdfrwt beam="2">  1       -1 0.72802951E-01 0.11866722E+04</pdfrwt>
<totfact> 0.81333654E+01</totfact>
</mgrwt>
</event>
<event>
12    7  0.1611233E-007  0.1090452E+04  0.7818608E-02  0.9214549E-01
         -1   -1    0    0    0  501 -0.00000000000E+00  0.00000000000E+00  0.10574854065E+04  0.10574854065E+04  0.00000000000E+00 0.  1.
          2   -1    0    0  501    0  0.00000000000E+00 -0.00000000000E+00 -0.28111134647E+03  0.28111134647E+03  0.00000000000E+00 0. -1.
         24    2    1    2    0    0  0.13465627921E+03  0.12810945762E+02  0.24366033129E+03  0.28711377282E+03  0.69047285513E+02 0.  0.
        254    2    1    2    0    0 -0.13465627921E+03 -0.12810945762E+02  0.53271372878E+03  0.10514829802E+04  0.89640175531E+03 0.  0.
         23    2    4    4    0    0  0.34132881563E+03 -0.15260293535E+03  0.13097892064E+03  0.40658763297E+03  0.91460425198E+02 0.  0.
         23    2    4    4    0    0 -0.47598509484E+03  0.13979198959E+03  0.40173480813E+03  0.64489534721E+03  0.91627189866E+02 0.  0.
          4    1    3    3  502    0  0.54703424529E+02 -0.87889661542E+01  0.16030704096E+03  0.16961149124E+03  0.00000000000E+00 0. -1.
         -3    1    3    3    0  502  0.79952854680E+02  0.21599911916E+02  0.83353290329E+02  0.11750228157E+03  0.00000000000E+00 0.  1.
         13    1    5    5    0    0  0.14812921880E+03 -0.10607758441E+03  0.33515460900E+02  0.18525119566E+03  0.00000000000E+00 0.  1.
        -13    1    5    5    0    0  0.19319959683E+03 -0.46525350948E+02  0.97463459744E+02  0.22133643731E+03  0.00000000000E+00 0. -1.
          2    1    6    6  503    0 -0.32197087348E+03  0.50659593916E+02  0.24468254359E+03  0.40755513119E+03  0.00000000000E+00 0. -1.
         -2    1    6    6    0  503 -0.15401422136E+03  0.89132395676E+02  0.15705226454E+03  0.23734021602E+03  0.00000000000E+00 0.  1.
<mgrwt>
<rscale>  0 0.10904516E+04</rscale>
<asrwt>0</asrwt>
<pdfrwt beam="1">  1        2 0.43247900E-01 0.10904516E+04</pdfrwt>
<pdfrwt beam="2">  1       -1 0.16269006E+00 0.10904516E+04</pdfrwt>
<totfact> 0.37497723E+01</totfact>
</mgrwt>
</event>
<event>
12    7  0.1611233E-007  0.1991641E+04  0.7818608E-02  0.8610539E-01
         -1   -1    0    0    0  501 -0.00000000000E+00  0.00000000000E+00  0.73219849170E+03  0.73219849170E+03  0.00000000000E+00 0.  1.
          2   -1    0    0  501    0  0.00000000000E+00 -0.00000000000E+00 -0.13543572115E+04  0.13543572115E+04  0.00000000000E+00 0. -1.
         24    2    1    2    0    0 -0.14410475347E+03  0.65871556576E+02  0.56730530422E+03  0.59431570515E+03  0.79187165946E+02 0.  0.
        254    2    1    2    0    0  0.14410475347E+03 -0.65871556576E+02 -0.11894640241E+04  0.14922399981E+04  0.88704583051E+03 0.  0.
         23    2    4    4    0    0 -0.55002193572E+01  0.39661974666E+03 -0.53264438937E+03  0.67029133267E+03  0.90790689323E+02 0.  0.
         23    2    4    4    0    0  0.14960497282E+03 -0.46249130324E+03 -0.65681963469E+03  0.82194866542E+03  0.88925376628E+02 0.  0.
          2    1    3    3  502    0 -0.99522531222E+02  0.30701620783E+02  0.23294764303E+03  0.25517039040E+03  0.00000000000E+00 0. -1.
         -1    1    3    3    0  502 -0.44582222245E+02  0.35169935793E+02  0.33435766119E+03  0.33914531475E+03  0.00000000000E+00 0.  1.
         13    1    5    5    0    0 -0.13162508479E+02  0.35982010852E+03 -0.42919798843E+03  0.56022734260E+03  0.00000000000E+00 0.  1.
        -13    1    5    5    0    0  0.76622891220E+01  0.36799638138E+02 -0.10344640094E+03  0.11006399006E+03  0.00000000000E+00 0. -1.
          4    1    6    6  503    0  0.49088998302E+01 -0.14568151953E+03 -0.18630116546E+03  0.23654878287E+03  0.00000000000E+00 0. -1.
         -4    1    6    6    0  503  0.14469607299E+03 -0.31680978371E+03 -0.47051846924E+03  0.58539988255E+03  0.00000000000E+00 0.  1.
<mgrwt>
<rscale>  0 0.19916408E+04</rscale>
<asrwt>0</asrwt>
<pdfrwt beam="1">  1        2 0.20836265E+00 0.19916408E+04</pdfrwt>
<pdfrwt beam="2">  1       -1 0.11264592E+00 0.19916408E+04</pdfrwt>
<totfact> 0.11749091E+01</totfact>
</mgrwt>
</event>
<event>
12    7  0.1611233E-007  0.2252158E+04  0.7818608E-02  0.8497027E-01
          2   -1    0    0  501    0  0.00000000000E+00  0.00000000000E+00  0.14905235379E+04  0.14905235379E+04  0.00000000000E+00 0. -1.
         -1   -1    0    0    0  501 -0.00000000000E+00 -0.00000000000E+00 -0.85074387761E+03  0.85074387761E+03  0.00000000000E+00 0.  1.
         24    2    1    2    0    0  0.31441035240E+03 -0.52394356535E+03  0.10227834717E+04  0.11940936867E+04  0.80018581318E+02 0.  0.
        254    2    1    2    0    0 -0.31441035240E+03  0.52394356535E+03 -0.38300381144E+03  0.11471737287E+04  0.89215744963E+03 0.  0.
         23    2    4    4    0    0  0.12916497398E+03  0.59882566555E+03 -0.26867753447E+03  0.67501707817E+03  0.90469166401E+02 0.  0.
         23    2    4    4    0    0 -0.44357532637E+03 -0.74882100197E+02 -0.11432627698E+03  0.47215665056E+03  0.86573702499E+02 0.  0.
          2    1    3    3  502    0  0.28902520688E+03 -0.44479822758E+03  0.91929794652E+03  0.10613622134E+04  0.00000000000E+00 0. -1.
         -1    1    3    3    0  502  0.25385145517E+02 -0.79145337771E+02  0.10348552520E+03  0.13273147339E+03  0.00000000000E+00 0.  1.
         13    1    5    5    0    0  0.88578652454E+02  0.22072467637E+03 -0.83629371443E+02  0.25210996053E+03  0.00000000000E+00 0. -1.
        -13    1    5    5    0    0  0.40586321522E+02  0.37810098918E+03 -0.18504816303E+03  0.42290711764E+03  0.00000000000E+00 0.  1.
          2    1    6    6  503    0 -0.26218334993E+02  0.12240216741E+02  0.51270308573E+01  0.29385548167E+02  0.00000000000E+00 0. -1.
         -2    1    6    6    0  503 -0.41735699138E+03 -0.87122316938E+02 -0.11945330783E+03  0.44277110239E+03  0.00000000000E+00 0.  1.
<mgrwt>
<rscale>  0 0.22521579E+04</rscale>
<asrwt>0</asrwt>
<pdfrwt beam="1">  1        2 0.22931131E+00 0.22521579E+04</pdfrwt>
<pdfrwt beam="2">  1       -1 0.13088367E+00 0.22521579E+04</pdfrwt>
<totfact> 0.66430096E+00</totfact>
</mgrwt>
</event>
<event>
12    7  0.1611233E-007  0.3262715E+04  0.7818608E-02  0.8172448E-01
          2   -1    0    0  501    0  0.00000000000E+00  0.00000000000E+00  0.12913486967E+04  0.12913486967E+04  0.00000000000E+00 0. -1.
         -1   -1    0    0    0  501 -0.00000000000E+00 -0.00000000000E+00 -0.20608900393E+04  0.20608900393E+04  0.00000000000E+00 0.  1.
         24    2    1    2    0    0  0.13785594212E+04  0.98678566973E+02  0.25686815959E+03  0.14078634871E+04  0.77037715943E+02 0.  0.
        254    2    1    2    0    0 -0.13785594212E+04 -0.98678566973E+02 -0.10264095022E+04  0.19443752489E+04  0.90383356062E+03 0.  0.
         23    2    4    4    0    0 -0.83479611634E+03  0.13754758649E+03 -0.12335674617E+03  0.86023277740E+03  0.94761015590E+02 0.  0.
         23    2    4    4    0    0 -0.54376330481E+03 -0.23622615346E+03 -0.90305275599E+03  0.10841424715E+04  0.91538468604E+02 0.  0.
          2    1    3    3  502    0  0.19552591295E+03  0.18517331349E+01  0.60952410574E+02  0.20481456957E+03  0.00000000000E+00 0. -1.
         -1    1    3    3    0  502  0.11830335082E+04  0.96826833838E+02  0.19591574902E+03  0.12030489175E+04  0.00000000000E+00 0.  1.
         13    1    5    5    0    0 -0.31364573963E+03  0.97382987568E+02 -0.37866001074E+02  0.33059178800E+03  0.00000000000E+00 0.  1.
        -13    1    5    5    0    0 -0.52115037672E+03  0.40164598924E+02 -0.85490745100E+02  0.52964098940E+03  0.00000000000E+00 0. -1.
          1    1    6    6  503    0 -0.42947286074E+03 -0.15418352497E+03 -0.73310063749E+03  0.86351377648E+03  0.00000000000E+00 0. -1.
         -1    1    6    6    0  503 -0.11429044406E+03 -0.82042628498E+02 -0.16995211850E+03  0.22062869505E+03  0.00000000000E+00 0.  1.
<mgrwt>
<rscale>  0 0.32627152E+04</rscale>
<asrwt>0</asrwt>
<pdfrwt beam="1">  1        2 0.19866903E+00 0.32627152E+04</pdfrwt>
<pdfrwt beam="2">  1       -1 0.31706000E+00 0.32627152E+04</pdfrwt>
<totfact> 0.40813280E-01</totfact>
</mgrwt>
</event>
<event>
12    7  0.1611233E-007  0.1676367E+04  0.7818608E-02  0.8774959E-01
          2   -1    0    0  501    0  0.00000000000E+00  0.00000000000E+00  0.17158674757E+04  0.17158674757E+04  0.00000000000E+00 0. -1.
         -1   -1    0    0    0  501 -0.00000000000E+00 -0.00000000000E+00 -0.40944406392E+03  0.40944406392E+03  0.00000000000E+00 0.  1.
         24    2    1    2    0    0 -0.46716582634E+03 -0.24907465449E+03  0.64822299892E+03  0.84086553131E+03  0.81115304420E+02 0.  0.
        254    2    1    2    0    0  0.46716582634E+03  0.24907465449E+03  0.65820041287E+03  0.12844460083E+04  0.96762165747E+03 0.  0.
         23    2    4    4    0    0 -0.28082364033E+02 -0.20049678032E+03  0.55981173224E+03  0.60209430154E+03  0.90226350385E+02 0.  0.
         23    2    4    4    0    0  0.49524819037E+03  0.44957143480E+03  0.98388680628E+02  0.68235170678E+03  0.92402782539E+02 0.  0.
          2    1    3    3  502    0 -0.41789962620E+03 -0.24799378123E+03  0.57908426466E+03  0.75596269663E+03  0.00000000000E+00 0. -1.
         -1    1    3    3    0  502 -0.49266200133E+02 -0.10808732552E+01  0.69138734258E+02  0.84902834684E+02  0.00000000000E+00 0.  1.
         13    1    5    5    0    0 -0.19566111523E+02 -0.92963655023E+01  0.20481606944E+02  0.29811933092E+02  0.00000000000E+00 0. -1.
        -13    1    5    5    0    0 -0.85162525097E+01 -0.19120041482E+03  0.53933012530E+03  0.57228236845E+03  0.00000000000E+00 0.  1.
          1    1    6    6  503    0  0.10900212962E+01 -0.41331657452E+01 -0.28219564219E+00  0.42837880297E+01  0.00000000000E+00 0. -1.
         -1    1    6    6    0  503  0.49415816907E+03  0.45370460055E+03  0.98670876270E+02  0.67806791875E+03  0.00000000000E+00 0.  1.
<mgrwt>
<rscale>  0 0.16763672E+04</rscale>
<asrwt>0</asrwt>
<pdfrwt beam="1">  1        2 0.26397961E+00 0.16763672E+04</pdfrwt>
<pdfrwt beam="2">  1       -1 0.62991395E-01 0.16763672E+04</pdfrwt>
<totfact> 0.26674122E+01</totfact>
</mgrwt>
</event>
<event>
12    7  0.1611233E-007  0.2165138E+04  0.7818608E-02  0.8533080E-01
          2   -1    0    0  501    0  0.00000000000E+00  0.00000000000E+00  0.17750955985E+04  0.17750955985E+04  0.00000000000E+00 0. -1.
         -1   -1    0    0    0  501 -0.00000000000E+00 -0.00000000000E+00 -0.66022140281E+03  0.66022140281E+03  0.00000000000E+00 0.  1.
         24    2    1    2    0    0  0.64062038143E+03  0.52244366966E+03  0.82277224500E+03  0.11690325663E+04  0.79631105183E+02 0.  0.
        254    2    1    2    0    0 -0.64062038143E+03 -0.52244366966E+03  0.29210195065E+03  0.12662844349E+04  0.91367984521E+03 0.  0.
         23    2    4    4    0    0  0.19357154988E+03 -0.20132780828E+03 -0.63550752974E+02  0.30007469397E+03  0.89461122527E+02 0.  0.
         23    2    4    4    0    0 -0.83419193132E+03 -0.32111586137E+03  0.35565270362E+03  0.96620974098E+03  0.89893510754E+02 0.  0.
          4    1    3    3  502    0  0.34030004474E+03  0.25487560056E+03  0.37242413453E+03  0.56521272826E+03  0.00000000000E+00 0. -1.
         -3    1    3    3    0  502  0.30032033670E+03  0.26756806909E+03  0.45034811048E+03  0.60381983806E+03  0.00000000000E+00 0.  1.
         13    1    5    5    0    0  0.13784836590E+03 -0.18946455916E+03 -0.64758766241E+02  0.24308987837E+03  0.00000000000E+00 0. -1.
        -13    1    5    5    0    0  0.55723183978E+02 -0.11863249119E+02  0.12080132672E+01  0.56984815595E+02  0.00000000000E+00 0.  1.
          2    1    6    6  503    0 -0.76673647208E+03 -0.28214530636E+03  0.29945477668E+03  0.87015168494E+03  0.00000000000E+00 0. -1.
         -2    1    6    6    0  503 -0.67455459232E+02 -0.38970555011E+02  0.56197926941E+02  0.96058056042E+02  0.00000000000E+00 0.  1.
<mgrwt>
<rscale>  0 0.21651384E+04</rscale>
<asrwt>0</asrwt>
<pdfrwt beam="1">  1        2 0.27309163E+00 0.21651384E+04</pdfrwt>
<pdfrwt beam="2">  1       -1 0.10157252E+00 0.21651384E+04</pdfrwt>
<totfact> 0.85490130E+00</totfact>
</mgrwt>
</event>
<event>
12    7  0.1611233E-007  0.1491473E+04  0.7818608E-02  0.8890143E-01
         -1   -1    0    0    0  501 -0.00000000000E+00  0.00000000000E+00  0.10384840828E+04  0.10384840828E+04  0.00000000000E+00 0.  1.
          2   -1    0    0  501    0  0.00000000000E+00 -0.00000000000E+00 -0.53551443757E+03  0.53551443757E+03  0.00000000000E+00 0. -1.
         24    2    1    2    0    0  0.17262142236E+03  0.18206873078E+02 -0.30128882291E+03  0.35693325889E+03  0.80602424335E+02 0.  0.
        254    2    1    2    0    0 -0.17262142236E+03 -0.18206873078E+02  0.80425846815E+03  0.12170652615E+04  0.89682022805E+03 0.  0.
         23    2    4    4    0    0  0.34179954758E+03  0.92436760788E+02  0.43404401313E+03  0.56741179247E+03  0.90501112861E+02 0.  0.
         23    2    4    4    0    0 -0.51442096994E+03 -0.11064363387E+03  0.37021445502E+03  0.64965346901E+03  0.90110704472E+02 0.  0.
          2    1    3    3  502    0  0.14702651947E+03 -0.11044261241E+02 -0.26745142369E+03  0.30539979890E+03  0.00000000000E+00 0. -1.
         -1    1    3    3    0  502  0.25594902888E+02  0.29251134319E+02 -0.33837399216E+02  0.51533459989E+02  0.00000000000E+00 0.  1.
         13    1    5    5    0    0 -0.86814917405E+00 -0.43056608487E+01 -0.16846555019E+01  0.47043025512E+01  0.00000000000E+00 0. -1.
        -13    1    5    5    0    0  0.34266769676E+03  0.96742421637E+02  0.43572866864E+03  0.56270748992E+03  0.00000000000E+00 0.  1.
          4    1    6    6  503    0 -0.19336308313E+03 -0.39020098766E+01  0.16279150395E+03  0.25279553271E+03  0.00000000000E+00 0. -1.
         -4    1    6    6    0  503 -0.32105788681E+03 -0.10674162399E+03  0.20742295107E+03  0.39685793630E+03  0.00000000000E+00 0.  1.
<mgrwt>
<rscale>  0 0.14914734E+04</rscale>
<asrwt>0</asrwt>
<pdfrwt beam="1">  1        2 0.82386837E-01 0.14914734E+04</pdfrwt>
<pdfrwt beam="2">  1       -1 0.15976678E+00 0.14914734E+04</pdfrwt>
<totfact> 0.18425027E+01</totfact>
</mgrwt>
</event>
<event>
12    7  0.1611233E-007  0.1367394E+04  0.7818608E-02  0.8977764E-01
          2   -1    0    0  501    0  0.00000000000E+00  0.00000000000E+00  0.15845834152E+04  0.15845834152E+04  0.00000000000E+00 0. -1.
         -1   -1    0    0    0  501 -0.00000000000E+00 -0.00000000000E+00 -0.29499356925E+03  0.29499356925E+03  0.00000000000E+00 0.  1.
         24    2    1    2    0    0  0.65864850538E+02 -0.23821635408E+02  0.87969045667E+03  0.88590085535E+03  0.77842000935E+02 0.  0.
        254    2    1    2    0    0 -0.65864850538E+02  0.23821635408E+02  0.40989938927E+03  0.99367612909E+03  0.90247941325E+03 0.  0.
         23    2    4    4    0    0 -0.11601279531E+01 -0.63680755913E+02 -0.27367511996E+03  0.29546202158E+03  0.91340847061E+02 0.  0.
         23    2    4    4    0    0 -0.64704722585E+02  0.87502391321E+02  0.68357450923E+03  0.69821410750E+03  0.91572160846E+02 0.  0.
          2    1    3    3  502    0  0.42699474934E+02  0.30085355757E+01  0.75655179265E+03  0.75776177748E+03  0.00000000000E+00 0. -1.
         -1    1    3    3    0  502  0.23165375603E+02 -0.26830170984E+02  0.12313866402E+03  0.12813907787E+03  0.00000000000E+00 0.  1.
         13    1    5    5    0    0 -0.34825732609E+02 -0.65121875382E+00 -0.52279301732E+02  0.62820228646E+02  0.00000000000E+00 0.  1.
        -13    1    5    5    0    0  0.33665604656E+02 -0.63029537159E+02 -0.22139581823E+03  0.23264179294E+03  0.00000000000E+00 0. -1.
          4    1    6    6  503    0 -0.29249468772E+02  0.60628121301E+02  0.59789562454E+03  0.60167306600E+03  0.00000000000E+00 0. -1.
         -4    1    6    6    0  503 -0.35455253813E+02  0.26874270020E+02  0.85678884689E+02  0.96541041499E+02  0.00000000000E+00 0.  1.
<mgrwt>
<rscale>  0 0.13673945E+04</rscale>
<asrwt>0</asrwt>
<pdfrwt beam="1">  1        2 0.24378206E+00 0.13673945E+04</pdfrwt>
<pdfrwt beam="2">  1       -1 0.45383627E-01 0.13673945E+04</pdfrwt>
<totfact> 0.60941858E+01</totfact>
</mgrwt>
</event>
<event>
12    7  0.1611233E-007  0.2133174E+04  0.7818608E-02  0.8546769E-01
          2   -1    0    0  501    0  0.00000000000E+00  0.00000000000E+00  0.96611738451E+03  0.96611738451E+03  0.00000000000E+00 0. -1.
         -1   -1    0    0    0  501 -0.00000000000E+00 -0.00000000000E+00 -0.11775047221E+04  0.11775047221E+04  0.00000000000E+00 0.  1.
         24    2    1    2    0    0 -0.73724376556E+03  0.14279880999E+03  0.36077734916E+03  0.83693354755E+03  0.79859860759E+02 0.  0.
        254    2    1    2    0    0  0.73724376556E+03 -0.14279880999E+03 -0.57216468671E+03  0.13066885590E+04  0.90340616090E+03 0.  0.
         23    2    4    4    0    0  0.46708776541E+03  0.32553772063E+03 -0.10364749602E+03  0.58556139906E+03  0.89406713888E+02 0.  0.
         23    2    4    4    0    0  0.27015600015E+03 -0.46833653063E+03 -0.46851719069E+03  0.72112715995E+03  0.90513272601E+02 0.  0.
          4    1    3    3  502    0 -0.40634321005E+03  0.98678060208E+02  0.23867653604E+03  0.48147549551E+03  0.00000000000E+00 0. -1.
         -3    1    3    3    0  502 -0.33090055551E+03  0.44120749783E+02  0.12210081312E+03  0.35545805204E+03  0.00000000000E+00 0.  1.
         13    1    5    5    0    0  0.15503276852E+03  0.14633504537E+03 -0.85567339277E+01  0.21335960844E+03  0.00000000000E+00 0. -1.
        -13    1    5    5    0    0  0.31205499689E+03  0.17920267526E+03 -0.95090762091E+02  0.37220179062E+03  0.00000000000E+00 0.  1.
          3    1    6    6  503    0  0.94482155879E+02 -0.87998567129E+02 -0.10377802403E+03  0.16565175480E+03  0.00000000000E+00 0. -1.
         -3    1    6    6    0  503  0.17567384427E+03 -0.38033796350E+03 -0.36473916665E+03  0.55547540515E+03  0.00000000000E+00 0.  1.
<mgrwt>
<rscale>  0 0.21331740E+04</rscale>
<asrwt>0</asrwt>
<pdfrwt beam="1">  1        2 0.14863344E+00 0.21331740E+04</pdfrwt>
<pdfrwt beam="2">  1       -1 0.18115457E+00 0.21331740E+04</pdfrwt>
<totfact> 0.56711277E+00</totfact>
</mgrwt>
</event>
<event>
12    7  0.1611233E-007  0.1833506E+04  0.7818608E-02  0.8688682E-01
         -1   -1    0    0    0  501 -0.00000000000E+00  0.00000000000E+00  0.48936555076E+03  0.48936555076E+03  0.00000000000E+00 0.  1.
          2   -1    0    0  501    0  0.00000000000E+00 -0.00000000000E+00 -0.17173988378E+04  0.17173988378E+04  0.00000000000E+00 0. -1.
         24    2    1    2    0    0 -0.34957540583E+03 -0.50779568246E+03 -0.80653060933E+03  0.10182270447E+04  0.78963734000E+02 0.  0.
        254    2    1    2    0    0  0.34957540583E+03  0.50779568246E+03 -0.42150267773E+03  0.11885373439E+04  0.92460645195E+03 0.  0.
         23    2    4    4    0    0 -0.12238071870E+03 -0.17506149824E+03 -0.24092436103E+03  0.33445251256E+03  0.90500646114E+02 0.  0.
         23    2    4    4    0    0  0.47195612454E+03  0.68285718069E+03 -0.18057831670E+03  0.85408483133E+03  0.88407340914E+02 0.  0.
          2    1    3    3  502    0 -0.24001892774E+03 -0.35758657459E+03 -0.50193521460E+03  0.66137448065E+03  0.00000000000E+00 0. -1.
         -1    1    3    3    0  502 -0.10955647809E+03 -0.15020910787E+03 -0.30459539472E+03  0.35685256405E+03  0.00000000000E+00 0.  1.
         13    1    5    5    0    0 -0.78145413316E+02 -0.17043477917E+03 -0.19565713015E+03  0.27099157210E+03  0.00000000000E+00 0.  1.
        -13    1    5    5    0    0 -0.44235305387E+02 -0.46267190611E+01 -0.45267230880E+02  0.63460940456E+02  0.00000000000E+00 0. -1.
          4    1    6    6  503    0  0.17354005791E+03  0.18199280472E+03 -0.44257075275E+02  0.25533550748E+03  0.00000000000E+00 0. -1.
         -4    1    6    6    0  503  0.29841606662E+03  0.50086437597E+03 -0.13632124143E+03  0.59874932384E+03  0.00000000000E+00 0.  1.
<mgrwt>
<rscale>  0 0.18335057E+04</rscale>
<asrwt>0</asrwt>
<pdfrwt beam="1">  1        2 0.26421521E+00 0.18335057E+04</pdfrwt>
<pdfrwt beam="2">  1       -1 0.75287008E-01 0.18335057E+04</pdfrwt>
<totfact> 0.18242217E+01</totfact>
</mgrwt>
</event>
<event>
12    7  0.1611233E-007  0.3520705E+04  0.7818608E-02  0.8108901E-01
         -1   -1    0    0    0  501 -0.00000000000E+00  0.00000000000E+00  0.18797355794E+04  0.18797355794E+04  0.00000000000E+00 0.  1.
          2   -1    0    0  501    0  0.00000000000E+00 -0.00000000000E+00 -0.16485513131E+04  0.16485513131E+04  0.00000000000E+00 0. -1.
         24    2    1    2    0    0  0.71820035142E+03 -0.92727393926E+03  0.12604761130E+04  0.17234664683E+04  0.76732865820E+02 0.  0.
        254    2    1    2    0    0 -0.71820035142E+03  0.92727393926E+03 -0.10292918467E+04  0.18048204242E+04  0.90680006320E+03 0.  0.
         23    2    4    4    0    0 -0.24430683533E+03  0.34001697178E+03  0.10343236926E+03  0.44054839775E+03  0.89929221429E+02 0.  0.
         23    2    4    4    0    0 -0.47389351609E+03  0.58725696748E+03 -0.11327242159E+04  0.13642720264E+04  0.93424847942E+02 0.  0.
          2    1    3    3  502    0  0.24909314718E+03 -0.35449918753E+03  0.42025567943E+03  0.60359912692E+03  0.00000000000E+00 0. -1.
         -1    1    3    3    0  502  0.46910720425E+03 -0.57277475173E+03  0.84022043354E+03  0.11198673414E+04  0.00000000000E+00 0.  1.
         13    1    5    5    0    0 -0.85975304201E+02  0.10070656216E+03 -0.81624531356E+01  0.13266570859E+03  0.00000000000E+00 0. -1.
        -13    1    5    5    0    0 -0.15833153113E+03  0.23931040962E+03  0.11159482240E+03  0.30788268916E+03  0.00000000000E+00 0.  1.
          2    1    6    6  503    0 -0.11994766780E+03  0.14420014551E+03 -0.35826975188E+03  0.40439873898E+03  0.00000000000E+00 0. -1.
         -2    1    6    6    0  503 -0.35394584829E+03  0.44305682197E+03 -0.77445446406E+03  0.95987328743E+03  0.00000000000E+00 0.  1.
<mgrwt>
<rscale>  0 0.35207048E+04</rscale>
<asrwt>0</asrwt>
<pdfrwt beam="1">  1        2 0.25362328E+00 0.35207048E+04</pdfrwt>
<pdfrwt beam="2">  1       -1 0.28919009E+00 0.35207048E+04</pdfrwt>
<totfact> 0.37957694E-01</totfact>
</mgrwt>
</event>
<event>
12    7  0.1611233E-007  0.2332259E+04  0.7818608E-02  0.8465310E-01
          2   -1    0    0  501    0  0.00000000000E+00  0.00000000000E+00  0.13704295437E+04  0.13704295437E+04  0.00000000000E+00 0. -1.
         -1   -1    0    0    0  501 -0.00000000000E+00 -0.00000000000E+00 -0.99228561410E+03  0.99228561410E+03  0.00000000000E+00 0.  1.
         24    2    1    2    0    0 -0.39499873946E+03 -0.90394994610E+03  0.25216232616E+03  0.10212797240E+04  0.79227058115E+02 0.  0.
        254    2    1    2    0    0  0.39499873946E+03  0.90394994610E+03  0.12598160344E+03  0.13414354338E+04  0.90023782932E+03 0.  0.
         23    2    4    4    0    0 -0.25154929930E+03  0.15998056337E+03 -0.98334207216E+02  0.32651678786E+03  0.89848571542E+02 0.  0.
         23    2    4    4    0    0  0.64654803876E+03  0.74396938273E+03  0.22431581065E+03  0.10149186459E+04  0.90705380458E+02 0.  0.
          4    1    3    3  502    0 -0.38410193427E+03 -0.89471098774E+03  0.24075534975E+03  0.10029980987E+04  0.00000000000E+00 0. -1.
         -3    1    3    3    0  502 -0.10896805194E+02 -0.92389583586E+01  0.11406976406E+02  0.18281625357E+02  0.00000000000E+00 0.  1.
         13    1    5    5    0    0 -0.55035556552E+01  0.10317782810E+02 -0.27590601119E+02  0.29966431838E+02  0.00000000000E+00 0.  1.
        -13    1    5    5    0    0 -0.24604574365E+03  0.14966278056E+03 -0.70743606097E+02  0.29655035602E+03  0.00000000000E+00 0. -1.
          4    1    6    6  503    0  0.54031260659E+03  0.58666499188E+03  0.20892966860E+03  0.82447870315E+03  0.00000000000E+00 0. -1.
         -4    1    6    6    0  503  0.10623543218E+03  0.15730439085E+03  0.15386142052E+02  0.19043994276E+03  0.00000000000E+00 0.  1.
<mgrwt>
<rscale>  0 0.23322586E+04</rscale>
<asrwt>0</asrwt>
<pdfrwt beam="1">  1        2 0.21083531E+00 0.23322586E+04</pdfrwt>
<pdfrwt beam="2">  1       -1 0.15265933E+00 0.23322586E+04</pdfrwt>
<totfact> 0.51580186E+00</totfact>
</mgrwt>
</event>
<event>
12    7  0.1611233E-007  0.1016886E+04  0.7818608E-02  0.9290216E-01
          2   -1    0    0  501    0  0.00000000000E+00  0.00000000000E+00  0.10354803803E+04  0.10354803803E+04  0.00000000000E+00 0. -1.
         -1   -1    0    0    0  501 -0.00000000000E+00 -0.00000000000E+00 -0.24965636474E+03  0.24965636474E+03  0.00000000000E+00 0.  1.
         24    2    1    2    0    0  0.62901794749E+02  0.39413713682E+02  0.69088115994E+02  0.12944490581E+03  0.80453335920E+02 0.  0.
        254    2    1    2    0    0 -0.62901794749E+02 -0.39413713682E+02  0.71673589958E+03  0.11556918392E+04  0.90355033115E+03 0.  0.
         23    2    4    4    0    0  0.32111651230E+03  0.24667514779E+03  0.27435596015E+03  0.49752135154E+03  0.91059647261E+02 0.  0.
         23    2    4    4    0    0 -0.38401830705E+03 -0.28608886148E+03  0.44237993943E+03  0.65817048769E+03  0.90396256825E+02 0.  0.
          4    1    3    3  502    0  0.67431953175E+01  0.26316347652E+02  0.66370587574E+02  0.71715240582E+02  0.00000000000E+00 0. -1.
         -3    1    3    3    0  502  0.56158599431E+02  0.13097366030E+02  0.27175284196E+01  0.57729665231E+02  0.00000000000E+00 0.  1.
         13    1    5    5    0    0  0.28813319237E+03  0.24320493255E+03  0.27068196693E+03  0.46415310296E+03  0.00000000000E+00 0. -1.
        -13    1    5    5    0    0  0.32983319927E+02  0.34702152405E+01  0.36739932172E+01  0.33368248581E+02  0.00000000000E+00 0.  1.
          3    1    6    6  503    0 -0.30535110665E+03 -0.26485934165E+03  0.38734210925E+03  0.55984254821E+03  0.00000000000E+00 0. -1.
         -3    1    6    6    0  503 -0.78667200405E+02 -0.21229519823E+02  0.55037830183E+02  0.98327939481E+02  0.00000000000E+00 0.  1.
<mgrwt>
<rscale>  0 0.10168860E+04</rscale>
<asrwt>0</asrwt>
<pdfrwt beam="1">  1        2 0.15930467E+00 0.10168860E+04</pdfrwt>
<pdfrwt beam="2">  1       -1 0.38408672E-01 0.10168860E+04</pdfrwt>
<totfact> 0.17817692E+02</totfact>
</mgrwt>
</event>
<event>
12    7  0.1611233E-007  0.2078272E+04  0.7818608E-02  0.8570875E-01
         -1   -1    0    0    0  501 -0.00000000000E+00  0.00000000000E+00  0.64995150816E+03  0.64995150816E+03  0.00000000000E+00 0.  1.
          2   -1    0    0  501    0  0.00000000000E+00 -0.00000000000E+00 -0.16613610558E+04  0.16613610558E+04  0.00000000000E+00 0. -1.
         24    2    1    2    0    0  0.80983223570E+03 -0.17449723918E+02 -0.15192967505E+03  0.82781020533E+03  0.77809813291E+02 0.  0.
        254    2    1    2    0    0 -0.80983223570E+03  0.17449723918E+02 -0.85947987263E+03  0.14835023587E+04  0.89774208649E+03 0.  0.
         23    2    4    4    0    0 -0.31433589819E+03  0.43069008186E+03 -0.26911781621E+03  0.60438342207E+03  0.92487395699E+02 0.  0.
         23    2    4    4    0    0 -0.49549633752E+03 -0.41324035795E+03 -0.59036205642E+03  0.87911893660E+03  0.89657866888E+02 0.  0.
          2    1    3    3  502    0  0.76181821136E+02  0.15534730180E+02 -0.30146960314E+02  0.83389669202E+02  0.00000000000E+00 0. -1.
         -1    1    3    3    0  502  0.73365041457E+03 -0.32984454098E+02 -0.12178271474E+03  0.74442053613E+03  0.00000000000E+00 0.  1.
         13    1    5    5    0    0 -0.28009041396E+03  0.40191187437E+03 -0.21725575174E+03  0.53589537824E+03  0.00000000000E+00 0.  1.
        -13    1    5    5    0    0 -0.34245484223E+02  0.28778207495E+02 -0.51862064472E+02  0.68488043830E+02  0.00000000000E+00 0. -1.
          3    1    6    6  503    0 -0.15398933303E+02 -0.40998810960E+02 -0.35835593736E+02  0.56588156229E+02  0.00000000000E+00 0. -1.
         -3    1    6    6    0  503 -0.48009740421E+03 -0.37224154699E+03 -0.55452646268E+03  0.82253078037E+03  0.00000000000E+00 0.  1.
<mgrwt>
<rscale>  0 0.20782725E+04</rscale>
<asrwt>0</asrwt>
<pdfrwt beam="1">  1        2 0.25559401E+00 0.20782725E+04</pdfrwt>
<pdfrwt beam="2">  1       -1 0.99992541E-01 0.20782725E+04</pdfrwt>
<totfact> 0.10329405E+01</totfact>
</mgrwt>
</event>
<event>
12    7  0.1611233E-007  0.4074501E+04  0.7818608E-02  0.7989684E-01
         -1   -1    0    0    0  501 -0.00000000000E+00  0.00000000000E+00  0.19717394464E+04  0.19717394464E+04  0.00000000000E+00 0.  1.
          2   -1    0    0  501    0  0.00000000000E+00 -0.00000000000E+00 -0.21049382405E+04  0.21049382405E+04  0.00000000000E+00 0. -1.
         24    2    1    2    0    0  0.12289575657E+04 -0.34213596434E+03 -0.15219780633E+04  0.19875305680E+04  0.80416523319E+02 0.  0.
        254    2    1    2    0    0 -0.12289575657E+04  0.34213596434E+03  0.13887792692E+04  0.20891471188E+04  0.89912963979E+03 0.  0.
         23    2    4    4    0    0 -0.59031066513E+03  0.31036195409E+03  0.12632025883E+04  0.14313373804E+04  0.90855344712E+02 0.  0.
         23    2    4    4    0    0 -0.63864690061E+03  0.31774010249E+02  0.12557668090E+03  0.65780973841E+03  0.89803662338E+02 0.  0.
          2    1    3    3  502    0  0.75880463349E+03 -0.17602014223E+03 -0.95838089242E+03  0.12350147761E+04  0.00000000000E+00 0. -1.
         -1    1    3    3    0  502  0.47015293225E+03 -0.16611582211E+03 -0.56359717087E+03  0.75251579191E+03  0.00000000000E+00 0.  1.
         13    1    5    5    0    0 -0.34045325368E+03  0.12803190370E+03  0.67442536739E+03  0.76625724303E+03  0.00000000000E+00 0.  1.
        -13    1    5    5    0    0 -0.24985741145E+03  0.18233005039E+03  0.58877722088E+03  0.66508013740E+03  0.00000000000E+00 0. -1.
          1    1    6    6  503    0 -0.62621509729E+03  0.26937461468E+02  0.13538944646E+03  0.64124977748E+03  0.00000000000E+00 0. -1.
         -1    1    6    6    0  503 -0.12431803322E+02  0.48365487804E+01 -0.98127655627E+01  0.16559960928E+02  0.00000000000E+00 0.  1.
<mgrwt>
<rscale>  0 0.40745011E+04</rscale>
<asrwt>0</asrwt>
<pdfrwt beam="1">  1        2 0.32383665E+00 0.40745011E+04</pdfrwt>
<pdfrwt beam="2">  1       -1 0.30334453E+00 0.40745011E+04</pdfrwt>
<totfact> 0.16361456E-01</totfact>
</mgrwt>
</event>
<event>
12    7  0.1611233E-007  0.1933993E+04  0.7818608E-02  0.8638118E-01
         -1   -1    0    0    0  501 -0.00000000000E+00  0.00000000000E+00  0.26752882005E+03  0.26752882005E+03  0.00000000000E+00 0.  1.
          2   -1    0    0  501    0  0.00000000000E+00 -0.00000000000E+00 -0.34952592456E+04  0.34952592456E+04  0.00000000000E+00 0. -1.
         24    2    1    2    0    0 -0.27169840523E+03  0.47119788455E+03 -0.22721460232E+04  0.23376959980E+04  0.79545952356E+02 0.  0.
        254    2    1    2    0    0  0.27169840523E+03 -0.47119788455E+03 -0.95558440238E+03  0.14250920677E+04  0.90658611366E+03 0.  0.
         23    2    4    4    0    0  0.19262397127E+03 -0.14672150621E+02 -0.92549742854E+03  0.94985114445E+03  0.91391684942E+02 0.  0.
         23    2    4    4    0    0  0.79074433959E+02 -0.45652573393E+03 -0.30086973844E+02  0.47524092323E+03  0.10139130765E+03 0.  0.
          4    1    3    3  502    0 -0.19146568406E+03  0.34748097081E+03 -0.14989812100E+04  0.15505956279E+04  0.00000000000E+00 0. -1.
         -3    1    3    3    0  502 -0.80232721170E+02  0.12371691374E+03 -0.77316481316E+03  0.78710037009E+03  0.00000000000E+00 0.  1.
         13    1    5    5    0    0  0.18894997698E+03  0.79502605330E+01 -0.85709306952E+03  0.87770942245E+03  0.00000000000E+00 0. -1.
        -13    1    5    5    0    0  0.36739942883E+01 -0.22622411154E+02 -0.68404359020E+02  0.72141722002E+02  0.00000000000E+00 0.  1.
          3    1    6    6  503    0  0.65644742227E+02 -0.40419654957E+03 -0.59396147045E+02  0.41377770016E+03  0.00000000000E+00 0. -1.
         -3    1    6    6    0  503  0.13429691732E+02 -0.52329184358E+02  0.29309173201E+02  0.61463223063E+02  0.00000000000E+00 0.  1.
<mgrwt>
<rscale>  0 0.19339934E+04</rscale>
<asrwt>0</asrwt>
<pdfrwt beam="1">  1        2 0.53773219E+00 0.19339934E+04</pdfrwt>
<pdfrwt beam="2">  1       -1 0.41158280E-01 0.19339934E+04</pdfrwt>
<totfact> 0.50660708E+00</totfact>
</mgrwt>
</event>
<event>
12    7  0.1611233E-007  0.1407297E+04  0.7818608E-02  0.8948553E-01
          2   -1    0    0  501    0  0.00000000000E+00  0.00000000000E+00  0.13974418820E+04  0.13974418820E+04  0.00000000000E+00 0. -1.
         -1   -1    0    0    0  501 -0.00000000000E+00 -0.00000000000E+00 -0.35430562774E+03  0.35430562774E+03  0.00000000000E+00 0.  1.
         24    2    1    2    0    0 -0.47102096065E+02  0.28681393587E+03  0.68419090806E+03  0.74771967483E+03  0.80539879525E+02 0.  0.
        254    2    1    2    0    0  0.47102096065E+02 -0.28681393587E+03  0.35894534621E+03  0.10040278349E+04  0.89148712299E+03 0.  0.
         23    2    4    4    0    0  0.15271242908E+03  0.29241940517E+03  0.13417818917E+03  0.36731199047E+03  0.89911719901E+02 0.  0.
         23    2    4    4    0    0 -0.10561033301E+03 -0.57923334105E+03  0.22476715704E+03  0.63671584444E+03  0.90675166738E+02 0.  0.
          2    1    3    3  502    0 -0.28537791294E+02  0.19868428354E+03  0.37078268693E+03  0.42162738405E+03  0.00000000000E+00 0. -1.
         -1    1    3    3    0  502 -0.18564304771E+02  0.88129652332E+02  0.31340822114E+03  0.32609229078E+03  0.00000000000E+00 0.  1.
         13    1    5    5    0    0  0.88703441861E+02  0.19566363185E+03  0.41447281544E+02  0.21879313192E+03  0.00000000000E+00 0.  1.
        -13    1    5    5    0    0  0.64008987217E+02  0.96755773322E+02  0.92730907626E+02  0.14851885855E+03  0.00000000000E+00 0. -1.
          4    1    6    6  503    0 -0.59459903279E+02 -0.22359018900E+03  0.45546339802E+02  0.23580186976E+03  0.00000000000E+00 0. -1.
         -4    1    6    6    0  503 -0.46150429734E+02 -0.35564315205E+03  0.17922081724E+03  0.40091397468E+03  0.00000000000E+00 0.  1.
<mgrwt>
<rscale>  0 0.14072974E+04</rscale>
<asrwt>0</asrwt>
<pdfrwt beam="1">  1        2 0.21499106E+00 0.14072974E+04</pdfrwt>
<pdfrwt beam="2">  1       -1 0.54508559E-01 0.14072974E+04</pdfrwt>
<totfact> 0.54723194E+01</totfact>
</mgrwt>
</event>
<event>
12    7  0.1611233E-007  0.2336242E+04  0.7818608E-02  0.8463767E-01
          2   -1    0    0  501    0  0.00000000000E+00  0.00000000000E+00  0.10822067381E+04  0.10822067381E+04  0.00000000000E+00 0. -1.
         -1   -1    0    0    0  501 -0.00000000000E+00 -0.00000000000E+00 -0.12608562679E+04  0.12608562679E+04  0.00000000000E+00 0.  1.
         24    2    1    2    0    0  0.73455708788E+03 -0.65831367680E+03  0.38084784573E+02  0.99023151123E+03  0.78466442552E+02 0.  0.
        254    2    1    2    0    0 -0.73455708788E+03  0.65831367680E+03 -0.21673431443E+03  0.13528314948E+04  0.90012681208E+03 0.  0.
         23    2    4    4    0    0  0.80639828944E+02  0.19988379340E+03  0.21764632509E+03  0.31766122862E+03  0.84157117729E+02 0.  0.
         23    2    4    4    0    0 -0.81519691682E+03  0.45842988340E+03 -0.43438063952E+03  0.10351702662E+04  0.90481869948E+02 0.  0.
          2    1    3    3  502    0  0.56310686421E+03 -0.54354603835E+03  0.16861883297E+02  0.78282562518E+03  0.00000000000E+00 0. -1.
         -1    1    3    3    0  502  0.17145022367E+03 -0.11476763845E+03  0.21222901276E+02  0.20740588605E+03  0.00000000000E+00 0.  1.
         13    1    5    5    0    0  0.31854466424E+02  0.99740890291E+01  0.47496001894E+02  0.58052215109E+02  0.00000000000E+00 0.  1.
        -13    1    5    5    0    0  0.48785362520E+02  0.18990970437E+03  0.17015032320E+03  0.25960901351E+03  0.00000000000E+00 0. -1.
          1    1    6    6  503    0 -0.56591504544E+03  0.27843575668E+03 -0.26482540163E+03  0.68404590679E+03  0.00000000000E+00 0. -1.
         -1    1    6    6    0  503 -0.24928187138E+03  0.17999412672E+03 -0.16955523789E+03  0.35112435938E+03  0.00000000000E+00 0.  1.
<mgrwt>
<rscale>  0 0.23362424E+04</rscale>
<asrwt>0</asrwt>
<pdfrwt beam="1">  1        2 0.16649335E+00 0.23362424E+04</pdfrwt>
<pdfrwt beam="2">  1       -1 0.19397789E+00 0.23362424E+04</pdfrwt>
<totfact> 0.38164783E+00</totfact>
</mgrwt>
</event>
<event>
12    7  0.1611233E-007  0.2038998E+04  0.7818608E-02  0.8588602E-01
          2   -1    0    0  501    0  0.00000000000E+00  0.00000000000E+00  0.72489951844E+03  0.72489951844E+03  0.00000000000E+00 0. -1.
         -1   -1    0    0    0  501 -0.00000000000E+00 -0.00000000000E+00 -0.14338239332E+04  0.14338239332E+04  0.00000000000E+00 0.  1.
         24    2    1    2    0    0  0.72308916547E+03  0.32621077418E+03 -0.54964933831E+03  0.96837403428E+03  0.79765059670E+02 0.  0.
        254    2    1    2    0    0 -0.72308916547E+03 -0.32621077418E+03 -0.15927507647E+03  0.11903494174E+04  0.87309322242E+03 0.  0.
         23    2    4    4    0    0 -0.25262702799E+03 -0.34554513980E+00 -0.46316163606E+03  0.53540951450E+03  0.91236573951E+02 0.  0.
         23    2    4    4    0    0 -0.47046213748E+03 -0.32586522904E+03  0.30388655959E+03  0.65493990288E+03  0.95270483244E+02 0.  0.
          4    1    3    3  502    0  0.59186981961E+02  0.41549659165E+01 -0.38357034697E+02  0.70651430885E+02  0.00000000000E+00 0. -1.
         -3    1    3    3    0  502  0.66390218351E+03  0.32205580827E+03 -0.51129230361E+03  0.89772260339E+03  0.00000000000E+00 0.  1.
         13    1    5    5    0    0 -0.47707662685E+02 -0.53607329365E+01 -0.31132248377E+02  0.57218663262E+02  0.00000000000E+00 0.  1.
        -13    1    5    5    0    0 -0.20491936530E+03  0.50151877967E+01 -0.43202938768E+03  0.47819085123E+03  0.00000000000E+00 0. -1.
          1    1    6    6  503    0 -0.19633487613E+03 -0.88022612705E+02  0.14019274158E+03  0.25680609168E+03  0.00000000000E+00 0. -1.
         -1    1    6    6    0  503 -0.27412726135E+03 -0.23784261634E+03  0.16369381801E+03  0.39813381119E+03  0.00000000000E+00 0.  1.
<mgrwt>
<rscale>  0 0.20389981E+04</rscale>
<asrwt>0</asrwt>
<pdfrwt beam="1">  1        2 0.11152300E+00 0.20389981E+04</pdfrwt>
<pdfrwt beam="2">  1       -1 0.22058830E+00 0.20389981E+04</pdfrwt>
<totfact> 0.45169664E+00</totfact>
</mgrwt>
</event>
<event>
12    7  0.1611233E-007  0.1873974E+04  0.7818608E-02  0.8667921E-01
         -1   -1    0    0    0  501 -0.00000000000E+00  0.00000000000E+00  0.17658961672E+04  0.17658961672E+04  0.00000000000E+00 0.  1.
          2   -1    0    0  501    0  0.00000000000E+00 -0.00000000000E+00 -0.49716679085E+03  0.49716679085E+03  0.00000000000E+00 0. -1.
         24    2    1    2    0    0 -0.30530195531E+03  0.59330637236E+03  0.78461647812E+03  0.10330769554E+04  0.80020264241E+02 0.  0.
        254    2    1    2    0    0  0.30530195531E+03 -0.59330637236E+03  0.48411289820E+03  0.12299860026E+04  0.91284091329E+03 0.  0.
         23    2    4    4    0    0  0.59579690334E+03 -0.53286721289E+03  0.44161817068E+03  0.91755418691E+03  0.89205720875E+02 0.  0.
         23    2    4    4    0    0 -0.29049494803E+03 -0.60439159466E+02  0.42494727517E+02  0.31243181569E+03  0.88134163387E+02 0.  0.
          2    1    3    3  502    0 -0.74764962677E+02  0.22845125125E+03  0.27354231548E+03  0.36414993093E+03  0.00000000000E+00 0. -1.
         -1    1    3    3    0  502 -0.23053699263E+03  0.36485512111E+03  0.51107416264E+03  0.66892702449E+03  0.00000000000E+00 0.  1.
         13    1    5    5    0    0  0.75638316926E+02 -0.79461278066E+02  0.28640265958E+02  0.11338216144E+03  0.00000000000E+00 0.  1.
        -13    1    5    5    0    0  0.52015858641E+03 -0.45340593483E+03  0.41297790473E+03  0.80417202547E+03  0.00000000000E+00 0. -1.
          1    1    6    6  503    0 -0.29762681582E+02  0.20926756464E+02  0.58795753702E+01  0.36855335538E+02  0.00000000000E+00 0.  1.
         -1    1    6    6    0  503 -0.26073226645E+03 -0.81365915930E+02  0.36615152147E+02  0.27557648015E+03  0.00000000000E+00 0. -1.
<mgrwt>
<rscale>  0 0.18739743E+04</rscale>
<asrwt>0</asrwt>
<pdfrwt beam="1">  1        2 0.76487200E-01 0.18739743E+04</pdfrwt>
<pdfrwt beam="2">  1       -1 0.27167633E+00 0.18739743E+04</pdfrwt>
<totfact> 0.33510261E+00</totfact>
</mgrwt>
</event>
<event>
12    7  0.1611233E-007  0.1412673E+04  0.7818608E-02  0.8944696E-01
          2   -1    0    0  501    0  0.00000000000E+00  0.00000000000E+00  0.83529998481E+03  0.83529998481E+03  0.00000000000E+00 0. -1.
         -1   -1    0    0    0  501 -0.00000000000E+00 -0.00000000000E+00 -0.59728387319E+03  0.59728387319E+03  0.00000000000E+00 0.  1.
         24    2    1    2    0    0  0.21015578210E+03  0.32579768656E+03  0.21240523649E+03  0.44945905389E+03  0.81165702817E+02 0.  0.
        254    2    1    2    0    0 -0.21015578210E+03 -0.32579768656E+03  0.25610875135E+02  0.98312480411E+03  0.90308852180E+03 0.  0.
         23    2    4    4    0    0  0.58983273382E+02  0.82112715333E+01 -0.37412089811E+03  0.38976833024E+03  0.91686712957E+02 0.  0.
         23    2    4    4    0    0 -0.26913905548E+03 -0.33400895810E+03  0.39973177325E+03  0.59335647387E+03  0.91041744612E+02 0.  0.
          4    1    3    3  502    0  0.78888227743E+02  0.15298551517E+03  0.13605459566E+03  0.21940549976E+03  0.00000000000E+00 0. -1.
         -3    1    3    3    0  502  0.13126755436E+03  0.17281217140E+03  0.76350640832E+02  0.23005355412E+03  0.00000000000E+00 0.  1.
         13    1    5    5    0    0  0.61390221423E+02  0.18736921836E+02 -0.37347638155E+03  0.37895176356E+03  0.00000000000E+00 0.  1.
        -13    1    5    5    0    0 -0.24069480411E+01 -0.10525650303E+02 -0.64451656164E+00  0.10816566681E+02  0.00000000000E+00 0. -1.
          2    1    6    6  503    0 -0.11597356369E+03 -0.11036709652E+03  0.97821114297E+02  0.18761592116E+03  0.00000000000E+00 0. -1.
         -2    1    6    6    0  503 -0.15316549179E+03 -0.22364186158E+03  0.30191065895E+03  0.40574055271E+03  0.00000000000E+00 0.  1.
<mgrwt>
<rscale>  0 0.14126729E+04</rscale>
<asrwt>0</asrwt>
<pdfrwt beam="1">  1        2 0.12850769E+00 0.14126729E+04</pdfrwt>
<pdfrwt beam="2">  1       -1 0.91889826E-01 0.14126729E+04</pdfrwt>
<totfact> 0.41635892E+01</totfact>
</mgrwt>
</event>
<event>
12    7  0.1611233E-007  0.3193729E+04  0.7818608E-02  0.8190475E-01
         -1   -1    0    0    0  501 -0.00000000000E+00  0.00000000000E+00  0.15390733674E+04  0.15390733674E+04  0.00000000000E+00 0.  1.
          2   -1    0    0  501    0  0.00000000000E+00 -0.00000000000E+00 -0.16568252556E+04  0.16568252556E+04  0.00000000000E+00 0. -1.
         24    2    1    2    0    0 -0.12907441477E+04  0.93727453846E+02  0.62500166434E+03  0.14392969757E+04  0.78379930484E+02 0.  0.
        254    2    1    2    0    0  0.12907441477E+04 -0.93727453846E+02 -0.74275355257E+03  0.17566016473E+04  0.92690949775E+03 0.  0.
         23    2    4    4    0    0 -0.11688560352E+03 -0.83641355655E+02 -0.17739448570E+02  0.17066557776E+03  0.90299117992E+02 0.  0.
         23    2    4    4    0    0  0.14076297512E+04 -0.10086098192E+02 -0.72501410400E+03  0.15859360695E+04  0.89579683951E+02 0.  0.
          4    1    3    3  502    0 -0.32118476102E+03  0.63155777472E+01  0.12296687168E+03  0.34397730850E+03  0.00000000000E+00 0. -1.
         -3    1    3    3    0  502 -0.96955938666E+03  0.87411876099E+02  0.50203479266E+03  0.10953196672E+04  0.00000000000E+00 0.  1.
         13    1    5    5    0    0  0.10888029261E+02  0.79829034975E+00  0.10250033994E+02  0.14974967297E+02  0.00000000000E+00 0.  1.
        -13    1    5    5    0    0 -0.12777363278E+03 -0.84439646004E+02 -0.27989482565E+02  0.15569061046E+03  0.00000000000E+00 0. -1.
          3    1    6    6  503    0  0.63056014227E+03 -0.12841871465E+01 -0.37487226977E+03  0.73357818997E+03  0.00000000000E+00 0. -1.
         -3    1    6    6    0  503  0.77706960893E+03 -0.88019110451E+01 -0.35014183423E+03  0.85235787955E+03  0.00000000000E+00 0.  1.
<mgrwt>
<rscale>  0 0.31937286E+04</rscale>
<asrwt>0</asrwt>
<pdfrwt beam="1">  1        2 0.25489619E+00 0.31937286E+04</pdfrwt>
<pdfrwt beam="2">  1       -1 0.23678052E+00 0.31937286E+04</pdfrwt>
<totfact> 0.84619849E-01</totfact>
</mgrwt>
</event>
<event>
12    7  0.1611233E-007  0.1822099E+04  0.7818608E-02  0.8694635E-01
          4   -1    0    0  501    0  0.00000000000E+00  0.00000000000E+00  0.23962916406E+04  0.23962916406E+04  0.00000000000E+00 0. -1.
         -1   -1    0    0    0  501 -0.00000000000E+00 -0.00000000000E+00 -0.34637323374E+03  0.34637323374E+03  0.00000000000E+00 0.  1.
         24    2    1    2    0    0 -0.18945507114E+03 -0.42754882789E+03  0.22236924545E+02  0.47480728827E+03  0.79096497842E+02 0.  0.
        254    2    1    2    0    0  0.18945507114E+03  0.42754882789E+03  0.20276814824E+04  0.22678575861E+04  0.90166213893E+03 0.  0.
         23    2    4    4    0    0 -0.16137861179E+03 -0.20084483965E+03  0.38186634726E+03  0.46927253986E+03  0.89515940196E+02 0.  0.
         23    2    4    4    0    0  0.35083368293E+03  0.62839366754E+03  0.16458151351E+04  0.17985850463E+04  0.90762520774E+02 0.  0.
          2    1    3    3  502    0 -0.10884586745E+03 -0.18207291260E+03 -0.19753761558E+02  0.21304501745E+03  0.00000000000E+00 0. -1.
         -1    1    3    3    0  502 -0.80609203690E+02 -0.24547591529E+03  0.41990686103E+02  0.26176227083E+03  0.00000000000E+00 0.  1.
         13    1    5    5    0    0 -0.12725461022E+03 -0.13793757581E+03  0.20217352624E+03  0.27585257903E+03  0.00000000000E+00 0.  1.
        -13    1    5    5    0    0 -0.34124001567E+02 -0.62907263839E+02  0.17969282101E+03  0.19341996084E+03  0.00000000000E+00 0. -1.
          3    1    6    6  503    0  0.89137961708E+02  0.96189305297E+02  0.26003418904E+03  0.29123141682E+03  0.00000000000E+00 0. -1.
         -3    1    6    6    0  503  0.26169572122E+03  0.53220436224E+03  0.13857809461E+04  0.15073536294E+04  0.00000000000E+00 0.  1.
<mgrwt>
<rscale>  0 0.18220991E+04</rscale>
<asrwt>0</asrwt>
<pdfrwt beam="1">  1        4 0.36866024E+00 0.18220991E+04</pdfrwt>
<pdfrwt beam="2">  1       -1 0.53288191E-01 0.18220991E+04</pdfrwt>
<totfact> 0.15186059E-01</totfact>
</mgrwt>
</event>
<event>
12    7  0.1611233E-007  0.2417739E+04  0.7818608E-02  0.8432892E-01
         -1   -1    0    0    0  501 -0.00000000000E+00  0.00000000000E+00  0.42396890421E+03  0.42396890421E+03  0.00000000000E+00 0.  1.
          2   -1    0    0  501    0  0.00000000000E+00 -0.00000000000E+00 -0.34468682995E+04  0.34468682995E+04  0.00000000000E+00 0. -1.
         24    2    1    2    0    0 -0.66984136813E+03 -0.46443327548E+02 -0.25711434298E+04  0.26585685915E+04  0.79774544684E+02 0.  0.
        254    2    1    2    0    0  0.66984136813E+03  0.46443327548E+02 -0.45175596547E+03  0.12122686122E+04  0.90258921700E+03 0.  0.
         23    2    4    4    0    0  0.80479891603E+03 -0.17622874359E+03 -0.23633408723E+03  0.86192854519E+03  0.91154544202E+02 0.  0.
         23    2    4    4    0    0 -0.13495754789E+03  0.22267207113E+03 -0.21542187824E+03  0.35034006700E+03  0.92386069972E+02 0.  0.
          2    1    3    3  502    0 -0.48803221803E+03 -0.55798461342E+02 -0.19804068591E+04  0.20404166833E+04  0.00000000000E+00 0. -1.
         -1    1    3    3    0  502 -0.18180915010E+03  0.93551337944E+01 -0.59073657073E+03  0.61815190818E+03  0.00000000000E+00 0.  1.
         13    1    5    5    0    0  0.19193644896E+03 -0.79777609901E+02 -0.44787948404E+02  0.21262649836E+03  0.00000000000E+00 0.  1.
        -13    1    5    5    0    0  0.61286246706E+03 -0.96451133686E+02 -0.19154613883E+03  0.64930204684E+03  0.00000000000E+00 0. -1.
          1    1    6    6  503    0 -0.14879150435E+03  0.20993886736E+03 -0.20365731638E+03  0.32816084822E+03  0.00000000000E+00 0. -1.
         -1    1    6    6    0  503  0.13833956457E+02  0.12733203778E+02 -0.11764561868E+02  0.22179218778E+02  0.00000000000E+00 0.  1.
<mgrwt>
<rscale>  0 0.24177386E+04</rscale>
<asrwt>0</asrwt>
<pdfrwt beam="1">  1        2 0.53028744E+00 0.24177386E+04</pdfrwt>
<pdfrwt beam="2">  1       -1 0.65225984E-01 0.24177386E+04</pdfrwt>
<totfact> 0.21579222E+00</totfact>
</mgrwt>
</event>
<event>
12    7  0.1611233E-007  0.1508954E+04  0.7818608E-02  0.8878520E-01
          2   -1    0    0  501    0  0.00000000000E+00  0.00000000000E+00  0.12015720235E+04  0.12015720235E+04  0.00000000000E+00 0. -1.
         -1   -1    0    0    0  501 -0.00000000000E+00 -0.00000000000E+00 -0.47374237545E+03  0.47374237545E+03  0.00000000000E+00 0.  1.
         24    2    1    2    0    0  0.37627016777E+03 -0.24208056740E+03  0.39569927209E+02  0.45696873427E+03  0.84097590275E+02 0.  0.
        254    2    1    2    0    0 -0.37627016777E+03  0.24208056740E+03  0.68825972086E+03  0.12183456647E+04  0.90026800181E+03 0.  0.
         23    2    4    4    0    0  0.11094812837E+03  0.14112868893E+03  0.68331577019E+03  0.71226569440E+03  0.90416721944E+02 0.  0.
         23    2    4    4    0    0 -0.48721829614E+03  0.10095187847E+03  0.49439506758E+01  0.50607997031E+03  0.92301375078E+02 0.  0.
          4    1    3    3  502    0  0.90104392461E+02 -0.82805136015E+02  0.42220766708E+02  0.12945302327E+03  0.00000000000E+00 0. -1.
         -3    1    3    3    0  502  0.28616577531E+03 -0.15927543138E+03 -0.26508394997E+01  0.32751571100E+03  0.00000000000E+00 0.  1.
         13    1    5    5    0    0  0.47458138896E+02  0.11477835731E+03  0.33619652012E+03  0.35840542183E+03  0.00000000000E+00 0. -1.
        -13    1    5    5    0    0  0.63489989469E+02  0.26350331623E+02  0.34711925007E+03  0.35386027257E+03  0.00000000000E+00 0.  1.
          1    1    6    6  503    0 -0.68421284134E+01 -0.11330284654E+01  0.13195695799E+02  0.14907208402E+02  0.00000000000E+00 0. -1.
         -1    1    6    6    0  503 -0.48037616772E+03  0.10208490693E+03 -0.82517451228E+01  0.49117276191E+03  0.00000000000E+00 0.  1.
<mgrwt>
<rscale>  0 0.15089541E+04</rscale>
<asrwt>0</asrwt>
<pdfrwt beam="1">  1        2 0.18485723E+00 0.15089541E+04</pdfrwt>
<pdfrwt beam="2">  1       -1 0.72883443E-01 0.15089541E+04</pdfrwt>
<totfact> 0.39496650E+01</totfact>
</mgrwt>
</event>
<event>
12    7  0.1611233E-007  0.1308080E+04  0.7818608E-02  0.9023182E-01
         -1   -1    0    0    0  501 -0.00000000000E+00  0.00000000000E+00  0.34544465640E+03  0.34544465640E+03  0.00000000000E+00 0.  1.
          2   -1    0    0  501    0  0.00000000000E+00 -0.00000000000E+00 -0.12383127964E+04  0.12383127964E+04  0.00000000000E+00 0. -1.
         24    2    1    2    0    0 -0.18019734282E+03 -0.89105142175E+02  0.33439249987E+02  0.21930109503E+03  0.81018381370E+02 0.  0.
        254    2    1    2    0    0  0.18019734282E+03  0.89105142175E+02 -0.92630738999E+03  0.13644563578E+04  0.98147081607E+03 0.  0.
         23    2    4    4    0    0  0.42611894616E+03  0.11142631204E+02 -0.99169450263E+03  0.10831986805E+04  0.90332056641E+02 0.  0.
         23    2    4    4    0    0 -0.24592160334E+03  0.77962510971E+02  0.65387112637E+02  0.28125767724E+03  0.90966028849E+02 0.  0.
          2    1    3    3  502    0 -0.20407148314E+02  0.14120739560E+02 -0.47661433850E+01  0.25269806307E+02  0.00000000000E+00 0. -1.
         -1    1    3    3    0  502 -0.15979019451E+03 -0.10322588174E+03  0.38205393372E+02  0.19403128873E+03  0.00000000000E+00 0.  1.
         13    1    5    5    0    0  0.32176348617E+03  0.52027715981E+01 -0.83476266256E+03  0.89464379094E+03  0.00000000000E+00 0. -1.
        -13    1    5    5    0    0  0.10435545999E+03  0.59398596061E+01 -0.15693184007E+03  0.18855488960E+03  0.00000000000E+00 0.  1.
          3    1    6    6  503    0 -0.20990795247E+03  0.27833092309E+02  0.47746832914E+02  0.21706171839E+03  0.00000000000E+00 0. -1.
         -3    1    6    6    0  503 -0.36013650866E+02  0.50129418662E+02  0.17640279723E+02  0.64195958851E+02  0.00000000000E+00 0.  1.
<mgrwt>
<rscale>  0 0.13080803E+04</rscale>
<asrwt>0</asrwt>
<pdfrwt beam="1">  1        2 0.19050966E+00 0.13080803E+04</pdfrwt>
<pdfrwt beam="2">  1       -1 0.53145331E-01 0.13080803E+04</pdfrwt>
<totfact> 0.71651420E+01</totfact>
</mgrwt>
</event>
<event>
12    7  0.1611233E-007  0.1867733E+04  0.7818608E-02  0.8671086E-01
         -1   -1    0    0    0  501 -0.00000000000E+00  0.00000000000E+00  0.52239946295E+03  0.52239946295E+03  0.00000000000E+00 0.  1.
          2   -1    0    0  501    0  0.00000000000E+00 -0.00000000000E+00 -0.16694251837E+04  0.16694251837E+04  0.00000000000E+00 0. -1.
         24    2    1    2    0    0  0.67819382585E+03  0.61596882335E+02 -0.70407679664E+03  0.98257669934E+03  0.77406674024E+02 0.  0.
        254    2    1    2    0    0 -0.67819382585E+03 -0.61596882335E+02 -0.44294892415E+03  0.12092479473E+04  0.89573199530E+03 0.  0.
         23    2    4    4    0    0 -0.27616666797E+03  0.14496718955E+02 -0.67136216303E+03  0.73183276870E+03  0.91508819397E+02 0.  0.
         23    2    4    4    0    0 -0.40202715788E+03 -0.76093601290E+02  0.22841323888E+03  0.47741517864E+03  0.91304837038E+02 0.  0.
          2    1    3    3  502    0  0.16924679161E+03  0.56827191301E+01 -0.13105020165E+03  0.21412829127E+03  0.00000000000E+00 0. -1.
         -1    1    3    3    0  502  0.50894703424E+03  0.55914163204E+02 -0.57302659499E+03  0.76844840807E+03  0.00000000000E+00 0.  1.
         13    1    5    5    0    0 -0.18965849440E+03  0.44189399232E+02 -0.51631533390E+03  0.55181932870E+03  0.00000000000E+00 0. -1.
        -13    1    5    5    0    0 -0.86508173571E+02 -0.29692680276E+02 -0.15504682913E+03  0.18001344000E+03  0.00000000000E+00 0.  1.
          3    1    6    6  503    0 -0.21393311059E+03 -0.85126877397E+02  0.11218835908E+03  0.25612533841E+03  0.00000000000E+00 0. -1.
         -3    1    6    6    0  503 -0.18809404729E+03  0.90332761070E+01  0.11622487981E+03  0.22128984023E+03  0.00000000000E+00 0.  1.
<mgrwt>
<rscale>  0 0.18677332E+04</rscale>
<asrwt>0</asrwt>
<pdfrwt beam="1">  1        2 0.25683464E+00 0.18677332E+04</pdfrwt>
<pdfrwt beam="2">  1       -1 0.80369148E-01 0.18677332E+04</pdfrwt>
<totfact> 0.16849815E+01</totfact>
</mgrwt>
</event>
<event>
12    7  0.1611233E-007  0.2345004E+04  0.7818608E-02  0.8460385E-01
         -1   -1    0    0    0  501 -0.00000000000E+00  0.00000000000E+00  0.11614976479E+04  0.11614976479E+04  0.00000000000E+00 0.  1.
          2   -1    0    0  501    0  0.00000000000E+00 -0.00000000000E+00 -0.11836109001E+04  0.11836109001E+04  0.00000000000E+00 0. -1.
         24    2    1    2    0    0 -0.11894992060E+03  0.87238745305E+03  0.47381678633E+03  0.10029861194E+04  0.79182427782E+02 0.  0.
        254    2    1    2    0    0  0.11894992060E+03 -0.87238745305E+03 -0.49593003860E+03  0.13421224286E+04  0.88325367721E+03 0.  0.
         23    2    4    4    0    0  0.28380044440E+03 -0.90548226139E+03 -0.59818359262E+03  0.11254621894E+04  0.91655394893E+02 0.  0.
         23    2    4    4    0    0 -0.16485052380E+03  0.33094808343E+02  0.10225355402E+03  0.21666023917E+03  0.90636131825E+02 0.  0.
          2    1    3    3  502    0 -0.55572604615E+02  0.17181117729E+03  0.96319329458E+02  0.20465778327E+03  0.00000000000E+00 0. -1.
         -1    1    3    3    0  502 -0.63377315990E+02  0.70057627576E+03  0.37749745687E+03  0.79832833614E+03  0.00000000000E+00 0.  1.
         13    1    5    5    0    0  0.27280857208E+03 -0.89789073732E+03 -0.59660266332E+03  0.11120103556E+04  0.00000000000E+00 0.  1.
        -13    1    5    5    0    0  0.10991872321E+02 -0.75915240765E+01 -0.15809292983E+01  0.13451833792E+02  0.00000000000E+00 0. -1.
          1    1    6    6  503    0 -0.34780312816E+02  0.33642035926E+02  0.65613811689E+02  0.81526860759E+02  0.00000000000E+00 0. -1.
         -1    1    6    6    0  503 -0.13007021098E+03 -0.54722758256E+00  0.36639742330E+02  0.13513337841E+03  0.00000000000E+00 0.  1.
<mgrwt>
<rscale>  0 0.23450043E+04</rscale>
<asrwt>0</asrwt>
<pdfrwt beam="1">  1        2 0.18209398E+00 0.23450043E+04</pdfrwt>
<pdfrwt beam="2">  1       -1 0.17869195E+00 0.23450043E+04</pdfrwt>
<totfact> 0.42427173E+00</totfact>
</mgrwt>
</event>
<event>
12    7  0.1611233E-007  0.1625714E+04  0.7818608E-02  0.8804905E-01
         -1   -1    0    0    0  501 -0.00000000000E+00  0.00000000000E+00  0.54875661955E+03  0.54875661955E+03  0.00000000000E+00 0.  1.
          2   -1    0    0  501    0  0.00000000000E+00 -0.00000000000E+00 -0.12040615782E+04  0.12040615782E+04  0.00000000000E+00 0. -1.
         24    2    1    2    0    0 -0.13972440194E+03 -0.80418119436E+02  0.34435448662E+03  0.38877787061E+03  0.81106336315E+02 0.  0.
        254    2    1    2    0    0  0.13972440194E+03  0.80418119436E+02 -0.99965944528E+03  0.13640403272E+04  0.91394585461E+03 0.  0.
         23    2    4    4    0    0  0.37267088848E+03  0.31306814750E+03 -0.28328237106E+03  0.57022086509E+03  0.89485625289E+02 0.  0.
         23    2    4    4    0    0 -0.23294648654E+03 -0.23265002807E+03 -0.71637707423E+03  0.79381946208E+03  0.92537153336E+02 0.  0.
          4    1    3    3  502    0 -0.77384763692E+01 -0.29099196770E+02  0.11795334333E+03  0.12173593747E+03  0.00000000000E+00 0. -1.
         -3    1    3    3    0  502 -0.13198592557E+03 -0.51318922667E+02  0.22640114329E+03  0.26704193314E+03  0.00000000000E+00 0.  1.
         13    1    5    5    0    0  0.49060710047E+00  0.29717872970E+01  0.54786566833E+01  0.62520311994E+01  0.00000000000E+00 0.  1.
        -13    1    5    5    0    0  0.37218028138E+03  0.31009636021E+03 -0.28876102774E+03  0.56396883389E+03  0.00000000000E+00 0. -1.
          4    1    6    6  503    0 -0.11222788954E+03 -0.98078712681E+02 -0.22169835685E+03  0.26714171240E+03  0.00000000000E+00 0. -1.
         -4    1    6    6    0  503 -0.12071859700E+03 -0.13457131539E+03 -0.49467871738E+03  0.52667774968E+03  0.00000000000E+00 0.  1.
<mgrwt>
<rscale>  0 0.16257143E+04</rscale>
<asrwt>0</asrwt>
<pdfrwt beam="1">  1        2 0.18524024E+00 0.16257143E+04</pdfrwt>
<pdfrwt beam="2">  1       -1 0.84424097E-01 0.16257143E+04</pdfrwt>
<totfact> 0.28562514E+01</totfact>
</mgrwt>
</event>
<event>
12    7  0.1611233E-007  0.2032669E+04  0.7818608E-02  0.8591497E-01
         -1   -1    0    0    0  501 -0.00000000000E+00  0.00000000000E+00  0.24887194760E+03  0.24887194760E+03  0.00000000000E+00 0.  1.
          2   -1    0    0  501    0  0.00000000000E+00 -0.00000000000E+00 -0.41504701907E+04  0.41504701907E+04  0.00000000000E+00 0. -1.
         24    2    1    2    0    0  0.33229665472E+03  0.68540236287E+02 -0.29075012325E+04  0.29283787938E+04  0.81976289487E+02 0.  0.
        254    2    1    2    0    0 -0.33229665472E+03 -0.68540236287E+02 -0.99409701053E+03  0.14709633445E+04  0.10297501948E+04 0.  0.
         23    2    4    4    0    0 -0.29391906991E+03  0.45586679980E+03 -0.52695159929E+03  0.76146444220E+03  0.89146788659E+02 0.  0.
         23    2    4    4    0    0 -0.38377584807E+02 -0.52440703609E+03 -0.46714541124E+03  0.70949890227E+03  0.93210935872E+02 0.  0.
          4    1    3    3  502    0  0.27004564740E+03  0.57635858706E+02 -0.20438517604E+04  0.20624200742E+04  0.00000000000E+00 0. -1.
         -3    1    3    3    0  502  0.62251007321E+02  0.10904377581E+02 -0.86364947210E+03  0.86595871958E+03  0.00000000000E+00 0.  1.
         13    1    5    5    0    0 -0.16503081575E+03  0.24888451835E+03 -0.22818696848E+03  0.37582970373E+03  0.00000000000E+00 0. -1.
        -13    1    5    5    0    0 -0.12888825417E+03  0.20698228145E+03 -0.29876463081E+03  0.38563473848E+03  0.00000000000E+00 0.  1.
          1    1    6    6  503    0 -0.70482328815E+01 -0.30407928045E+03 -0.32656277222E+03  0.44627024389E+03  0.00000000000E+00 0. -1.
         -1    1    6    6    0  503 -0.31329351925E+02 -0.22032775564E+03 -0.14058263902E+03  0.26322865838E+03  0.00000000000E+00 0.  1.
<mgrwt>
<rscale>  0 0.20326688E+04</rscale>
<asrwt>0</asrwt>
<pdfrwt beam="1">  1        2 0.63853383E+00 0.20326688E+04</pdfrwt>
<pdfrwt beam="2">  1       -1 0.38287995E-01 0.20326688E+04</pdfrwt>
<totfact> 0.18055957E+00</totfact>
</mgrwt>
</event>
<event>
12    7  0.1611233E-007  0.1780155E+04  0.7818608E-02  0.8716925E-01
          2   -1    0    0  501    0  0.00000000000E+00  0.00000000000E+00  0.18626602399E+04  0.18626602399E+04  0.00000000000E+00 0. -1.
         -1   -1    0    0    0  501 -0.00000000000E+00 -0.00000000000E+00 -0.42532597555E+03  0.42532597555E+03  0.00000000000E+00 0.  1.
         24    2    1    2    0    0  0.84913424116E+02 -0.52402735438E+03  0.34162183600E+02  0.53791208433E+03  0.79795977038E+02 0.  0.
        254    2    1    2    0    0 -0.84913424116E+02  0.52402735438E+03  0.14031720808E+04  0.17500741311E+04  0.90113962207E+03 0.  0.
         23    2    4    4    0    0  0.23713970527E+03  0.56431762386E+03  0.53231739048E+03  0.81639291748E+03  0.91901964565E+02 0.  0.
         23    2    4    4    0    0 -0.32205312939E+03 -0.40290269478E+02  0.87085469029E+03  0.93368121365E+03  0.89616924525E+02 0.  0.
          4    1    3    3  502    0  0.44887440836E+02 -0.89066206148E+02 -0.50909478884E+00  0.99739313212E+02  0.00000000000E+00 0. -1.
         -3    1    3    3    0  502  0.40025983281E+02 -0.43496114823E+03  0.34671278388E+02  0.43817277112E+03  0.00000000000E+00 0.  1.
         13    1    5    5    0    0  0.12467898830E+03  0.27506397314E+03  0.20302463587E+03  0.36390114346E+03  0.00000000000E+00 0. -1.
        -13    1    5    5    0    0  0.11246071697E+03  0.28925365072E+03  0.32929275461E+03  0.45249177402E+03  0.00000000000E+00 0.  1.
          3    1    6    6  503    0 -0.16475460703E+03  0.16549812744E+02  0.50388481601E+03  0.53039408428E+03  0.00000000000E+00 0. -1.
         -3    1    6    6    0  503 -0.15729852236E+03 -0.56840082222E+02  0.36696987428E+03  0.40328712937E+03  0.00000000000E+00 0.  1.
<mgrwt>
<rscale>  0 0.17801548E+04</rscale>
<asrwt>0</asrwt>
<pdfrwt beam="1">  1        2 0.28656311E+00 0.17801548E+04</pdfrwt>
<pdfrwt beam="2">  1       -1 0.65434766E-01 0.17801548E+04</pdfrwt>
<totfact> 0.20306939E+01</totfact>
</mgrwt>
</event>
<event>
12    7  0.1611233E-007  0.2002136E+04  0.7818608E-02  0.8605623E-01
          2   -1    0    0  501    0  0.00000000000E+00  0.00000000000E+00  0.12077907389E+04  0.12077907389E+04  0.00000000000E+00 0. -1.
         -1   -1    0    0    0  501 -0.00000000000E+00 -0.00000000000E+00 -0.82972738070E+03  0.82972738070E+03  0.00000000000E+00 0.  1.
         24    2    1    2    0    0  0.73846840275E+03  0.15320699180E+03  0.39021903877E+03  0.85282853357E+03  0.78978764592E+02 0.  0.
        254    2    1    2    0    0 -0.73846840275E+03 -0.15320699180E+03 -0.12155680591E+02  0.11846895860E+04  0.91352815526E+03 0.  0.
         23    2    4    4    0    0  0.16182960185E+03 -0.10906582367E+03 -0.15695763900E+03  0.26701361357E+03  0.92608830383E+02 0.  0.
         23    2    4    4    0    0 -0.90029800460E+03 -0.44141168138E+02  0.14480195841E+03  0.91767597244E+03  0.93148502011E+02 0.  0.
          2    1    3    3  502    0  0.43243694138E+03  0.84577409770E+02  0.18419390133E+03  0.47757977324E+03  0.00000000000E+00 0. -1.
         -1    1    3    3    0  502  0.30603146136E+03  0.68629582034E+02  0.20602513744E+03  0.37524876033E+03  0.00000000000E+00 0.  1.
         13    1    5    5    0    0  0.32816886922E+02  0.57390132757E+01 -0.60854663705E+02  0.69377045449E+02  0.00000000000E+00 0. -1.
        -13    1    5    5    0    0  0.12901271493E+03 -0.11480483694E+03 -0.96102975296E+02  0.19763656812E+03  0.00000000000E+00 0.  1.
          4    1    6    6  503    0 -0.35998869082E+03 -0.53720346422E+02  0.29898125796E+02  0.36520080923E+03  0.00000000000E+00 0. -1.
         -4    1    6    6    0  503 -0.54030931378E+03  0.95791782846E+01  0.11490383261E+03  0.55247516321E+03  0.00000000000E+00 0.  1.
<mgrwt>
<rscale>  0 0.20021359E+04</rscale>
<asrwt>0</asrwt>
<pdfrwt beam="1">  1        2 0.18581396E+00 0.20021359E+04</pdfrwt>
<pdfrwt beam="2">  1       -1 0.12765037E+00 0.20021359E+04</pdfrwt>
<totfact> 0.10539094E+01</totfact>
</mgrwt>
</event>
<event>
12    7  0.1611233E-007  0.2438436E+04  0.7818608E-02  0.8425252E-01
          2   -1    0    0  501    0  0.00000000000E+00  0.00000000000E+00  0.29276158272E+04  0.29276158272E+04  0.00000000000E+00 0. -1.
         -1   -1    0    0    0  501 -0.00000000000E+00 -0.00000000000E+00 -0.50774829576E+03  0.50774829576E+03  0.00000000000E+00 0.  1.
         24    2    1    2    0    0  0.17135313599E+03 -0.66056610389E+03 -0.80053239862E+02  0.69188637615E+03  0.81171186212E+02 0.  0.
        254    2    1    2    0    0 -0.17135313599E+03  0.66056610389E+03  0.24999207713E+04  0.27434777468E+04  0.90075346773E+03 0.  0.
         23    2    4    4    0    0 -0.28615332909E+03  0.31974215120E+02  0.21995548270E+03  0.37385046200E+03  0.92074292732E+02 0.  0.
         23    2    4    4    0    0  0.11480019310E+03  0.62859188877E+03  0.22799652886E+04  0.23696272848E+04  0.92654760893E+02 0.  0.
          2    1    3    3  502    0  0.21091526964E+02 -0.21069668242E+03 -0.43561473426E+02  0.21618405691E+03  0.00000000000E+00 0. -1.
         -1    1    3    3    0  502  0.15026160903E+03 -0.44986942147E+03 -0.36491766436E+02  0.47570231925E+03  0.00000000000E+00 0.  1.
         13    1    5    5    0    0 -0.10554577208E+03  0.55843468635E+02  0.99728061258E+02  0.15557663448E+03  0.00000000000E+00 0.  1.
        -13    1    5    5    0    0 -0.18060755701E+03 -0.23869253515E+02  0.12022742144E+03  0.21827382752E+03  0.00000000000E+00 0. -1.
          3    1    6    6  503    0  0.81042048958E+02  0.53022089701E+03  0.17847064092E+04  0.18635661996E+04  0.00000000000E+00 0. -1.
         -3    1    6    6    0  503  0.33758144146E+02  0.98370991759E+02  0.49525887941E+03  0.50606108520E+03  0.00000000000E+00 0.  1.
<mgrwt>
<rscale>  0 0.24384355E+04</rscale>
<asrwt>0</asrwt>
<pdfrwt beam="1">  1        2 0.45040242E+00 0.24384355E+04</pdfrwt>
<pdfrwt beam="2">  1       -1 0.78115124E-01 0.24384355E+04</pdfrwt>
<totfact> 0.32326369E+00</totfact>
</mgrwt>
</event>
<event>
12    7  0.1611233E-007  0.1999701E+04  0.7818608E-02  0.8606760E-01
          2   -1    0    0  501    0  0.00000000000E+00  0.00000000000E+00  0.31045283599E+03  0.31045283599E+03  0.00000000000E+00 0. -1.
         -1   -1    0    0    0  501 -0.00000000000E+00 -0.00000000000E+00 -0.32201385014E+04  0.32201385014E+04  0.00000000000E+00 0.  1.
         24    2    1    2    0    0 -0.33910638072E+03  0.49023811588E+03 -0.21115556918E+04  0.21955535715E+04  0.80383445143E+02 0.  0.
        254    2    1    2    0    0  0.33910638072E+03 -0.49023811588E+03 -0.79812997365E+03  0.13350377659E+04  0.88881259768E+03 0.  0.
         23    2    4    4    0    0 -0.32586230625E+02 -0.18809572465E+03  0.15645459348E+03  0.26293156181E+03  0.90626167957E+02 0.  0.
         23    2    4    4    0    0  0.37169261134E+03 -0.30214239123E+03 -0.95458456713E+03  0.10721062041E+04  0.93459055729E+02 0.  0.
          4    1    3    3  502    0 -0.10675995548E+03  0.96169961922E+02 -0.47409125353E+03  0.49538759203E+03  0.00000000000E+00 0. -1.
         -3    1    3    3    0  502 -0.23234642524E+03  0.39406815396E+03 -0.16374644383E+04  0.17001659795E+04  0.00000000000E+00 0.  1.
         13    1    5    5    0    0 -0.45835743114E+02 -0.17785866275E+03  0.16239363455E+03  0.24516588630E+03  0.00000000000E+00 0.  1.
        -13    1    5    5    0    0  0.13249512489E+02 -0.10237061900E+02 -0.59390410731E+01  0.17765675513E+02  0.00000000000E+00 0. -1.
          1    1    6    6  503    0  0.41338740367E+02 -0.68342490720E+02 -0.20930872131E+03  0.22403064145E+03  0.00000000000E+00 0. -1.
         -1    1    6    6    0  503  0.33035387098E+03 -0.23379990051E+03 -0.74527584582E+03  0.84807556262E+03  0.00000000000E+00 0.  1.
<mgrwt>
<rscale>  0 0.19997011E+04</rscale>
<asrwt>0</asrwt>
<pdfrwt beam="1">  1        2 0.47761971E-01 0.19997011E+04</pdfrwt>
<pdfrwt beam="2">  1       -1 0.49540596E+00 0.19997011E+04</pdfrwt>
<totfact> 0.17858358E-01</totfact>
</mgrwt>
</event>
<event>
12    7  0.1611233E-007  0.1319180E+04  0.7818608E-02  0.9014492E-01
          2   -1    0    0  501    0  0.00000000000E+00  0.00000000000E+00  0.16943888707E+04  0.16943888707E+04  0.00000000000E+00 0. -1.
         -1   -1    0    0    0  501 -0.00000000000E+00 -0.00000000000E+00 -0.25676460798E+03  0.25676460798E+03  0.00000000000E+00 0.  1.
         24    2    1    2    0    0  0.13934438565E+03  0.15664717333E+03 -0.20094999495E+02  0.22637590853E+03  0.82988241544E+02 0.  0.
        254    2    1    2    0    0 -0.13934438565E+03 -0.15664717333E+03  0.14577192622E+04  0.17247775702E+04  0.89775109265E+03 0.  0.
         23    2    4    4    0    0 -0.42110747853E+03  0.16488330168E+03  0.94131171103E+03  0.10482941631E+04  0.91295692257E+02 0.  0.
         23    2    4    4    0    0  0.28176309288E+03 -0.32153047502E+03  0.51640755119E+03  0.67648340705E+03  0.90447521921E+02 0.  0.
          4    1    3    3  502    0  0.15390355625E+02 -0.95398460195E+01 -0.29432978760E+01  0.18344882413E+02  0.00000000000E+00 0. -1.
         -3    1    3    3    0  502  0.12395403002E+03  0.16618701935E+03 -0.17151701619E+02  0.20803102612E+03  0.00000000000E+00 0.  1.
         13    1    5    5    0    0 -0.10500734947E+03  0.29793433887E+02  0.14971984700E+03  0.18528417291E+03  0.00000000000E+00 0.  1.
        -13    1    5    5    0    0 -0.31610012906E+03  0.13508986780E+03  0.79159186403E+03  0.86300999020E+03  0.00000000000E+00 0. -1.
          1    1    6    6  503    0  0.13386147535E+03 -0.13639505556E+03  0.16407151642E+03  0.25187689109E+03  0.00000000000E+00 0. -1.
         -1    1    6    6    0  503  0.14790161754E+03 -0.18513541945E+03  0.35233603476E+03  0.42460651596E+03  0.00000000000E+00 0.  1.
<mgrwt>
<rscale>  0 0.13191802E+04</rscale>
<asrwt>0</asrwt>
<pdfrwt beam="1">  1        2 0.26067520E+00 0.13191802E+04</pdfrwt>
<pdfrwt beam="2">  1       -1 0.39502248E-01 0.13191802E+04</pdfrwt>
<totfact> 0.68646649E+01</totfact>
</mgrwt>
</event>
<event>
12    7  0.1611233E-007  0.1790569E+04  0.7818608E-02  0.8711331E-01
         -1   -1    0    0    0  501 -0.00000000000E+00  0.00000000000E+00  0.10054713310E+04  0.10054713310E+04  0.00000000000E+00 0.  1.
          2   -1    0    0  501    0  0.00000000000E+00 -0.00000000000E+00 -0.79717300772E+03  0.79717300772E+03  0.00000000000E+00 0. -1.
         24    2    1    2    0    0 -0.37374311063E+02 -0.21812105327E+03  0.69808982672E+03  0.73689268144E+03  0.81901066996E+02 0.  0.
        254    2    1    2    0    0  0.37374311063E+02  0.21812105327E+03 -0.48979150341E+03  0.10657516573E+04  0.92030280085E+03 0.  0.
         23    2    4    4    0    0 -0.48844990068E+02 -0.41192043567E+02  0.24831360645E+03  0.27337726980E+03  0.94830728081E+02 0.  0.
         23    2    4    4    0    0  0.86219301131E+02  0.25931309683E+03 -0.73810510986E+03  0.79237438751E+03  0.91547619847E+02 0.  0.
          4    1    3    3  502    0 -0.12766856310E+02 -0.24709386297E+02  0.20131607139E+03  0.20322821407E+03  0.00000000000E+00 0. -1.
         -3    1    3    3    0  502 -0.24607454753E+02 -0.19341166697E+03  0.49677375533E+03  0.53366446737E+03  0.00000000000E+00 0.  1.
         13    1    5    5    0    0 -0.44788537876E+02  0.10434215586E+02  0.18956269161E+03  0.19506127250E+03  0.00000000000E+00 0.  1.
        -13    1    5    5    0    0 -0.40564521925E+01 -0.51626259153E+02  0.58750914840E+02  0.78315997299E+02  0.00000000000E+00 0. -1.
          4    1    6    6  503    0 -0.10203389267E+02  0.55412884173E+02 -0.22382759535E+03  0.23081050523E+03  0.00000000000E+00 0. -1.
         -4    1    6    6    0  503  0.96422690398E+02  0.20390021266E+03 -0.51427751451E+03  0.56156388228E+03  0.00000000000E+00 0.  1.
<mgrwt>
<rscale>  0 0.17905693E+04</rscale>
<asrwt>0</asrwt>
<pdfrwt beam="1">  1        2 0.12264200E+00 0.17905693E+04</pdfrwt>
<pdfrwt beam="2">  1       -1 0.15468790E+00 0.17905693E+04</pdfrwt>
<totfact> 0.11977821E+01</totfact>
</mgrwt>
</event>
<event>
12    7  0.1611233E-007  0.1337778E+04  0.7818608E-02  0.9000132E-01
         -1   -1    0    0    0  501 -0.00000000000E+00  0.00000000000E+00  0.20977627679E+03  0.20977627679E+03  0.00000000000E+00 0.  1.
          2   -1    0    0  501    0  0.00000000000E+00 -0.00000000000E+00 -0.21328086236E+04  0.21328086236E+04  0.00000000000E+00 0. -1.
         24    2    1    2    0    0  0.26333745925E+03  0.21138314923E+03 -0.30308340344E+03  0.46062294253E+03  0.79274791234E+02 0.  0.
        254    2    1    2    0    0 -0.26333745925E+03 -0.21138314923E+03 -0.16199489433E+04  0.18819619578E+04  0.89639097408E+03 0.  0.
         23    2    4    4    0    0 -0.45793559330E+03  0.15986569712E+02 -0.14553832991E+04  0.15285476836E+04  0.91416057141E+02 0.  0.
         23    2    4    4    0    0  0.19459813406E+03 -0.22736971894E+03 -0.16456564420E+03  0.35341427425E+03  0.90853591687E+02 0.  0.
          4    1    3    3  502    0  0.93180707555E+02  0.65166472199E+02 -0.15330430298E+03  0.19087043425E+03  0.00000000000E+00 0. -1.
         -3    1    3    3    0  502  0.17015675169E+03  0.14621667703E+03 -0.14977910045E+03  0.26975250828E+03  0.00000000000E+00 0.  1.
         13    1    5    5    0    0 -0.11876675728E+03 -0.35976242996E+02 -0.39317284635E+03  0.41229203218E+03  0.00000000000E+00 0. -1.
        -13    1    5    5    0    0 -0.33916883603E+03  0.51962812708E+02 -0.10622104528E+04  0.11162556514E+04  0.00000000000E+00 0.  1.
          1    1    6    6  503    0  0.77803721506E+02 -0.29928142276E+02 -0.43515448954E+02  0.94035669179E+02  0.00000000000E+00 0. -1.
         -1    1    6    6    0  503  0.11679441255E+03 -0.19744157667E+03 -0.12105019525E+03  0.25937860507E+03  0.00000000000E+00 0.  1.
<mgrwt>
<rscale>  0 0.13377782E+04</rscale>
<asrwt>0</asrwt>
<pdfrwt beam="1">  1        2 0.32812439E+00 0.13377782E+04</pdfrwt>
<pdfrwt beam="2">  1       -1 0.32273275E-01 0.13377782E+04</pdfrwt>
<totfact> 0.56336110E+01</totfact>
</mgrwt>
</event>
<event>
12    7  0.1611233E-007  0.2186504E+04  0.7818608E-02  0.8524066E-01
          2   -1    0    0  501    0  0.00000000000E+00  0.00000000000E+00  0.21842621425E+04  0.21842621425E+04  0.00000000000E+00 0. -1.
         -1   -1    0    0    0  501 -0.00000000000E+00 -0.00000000000E+00 -0.54718726314E+03  0.54718726314E+03  0.00000000000E+00 0.  1.
         24    2    1    2    0    0  0.86984069626E+01  0.52401272244E+03 -0.24897534046E+03  0.58537866812E+03  0.77553010120E+02 0.  0.
        254    2    1    2    0    0 -0.86984069626E+01 -0.52401272244E+03  0.18860502198E+04  0.21460707375E+04  0.87964150833E+03 0.  0.
         23    2    4    4    0    0 -0.15307800362E+03  0.20354460598E+03  0.40176267344E+03  0.48424263765E+03  0.90633352202E+02 0.  0.
         23    2    4    4    0    0  0.14437959666E+03 -0.72755732842E+03  0.14842875464E+04  0.16618280999E+04  0.91531301212E+02 0.  0.
          4    1    3    3  502    0  0.20659863016E+02  0.52484931106E+02 -0.12642392375E+02  0.57804221455E+02  0.00000000000E+00 0. -1.
         -3    1    3    3    0  502 -0.11961456053E+02  0.47152779133E+03 -0.23633294809E+03  0.52757444667E+03  0.00000000000E+00 0.  1.
         13    1    5    5    0    0 -0.15147874090E+03  0.19156702614E+03  0.40387721438E+03  0.47197514632E+03  0.00000000000E+00 0. -1.
        -13    1    5    5    0    0 -0.15992627215E+01  0.11977579836E+02 -0.21145409436E+01  0.12267491324E+02  0.00000000000E+00 0.  1.
          1    1    6    6  503    0  0.33573997037E+02 -0.40258915899E+03  0.81138512586E+03  0.90639454251E+03  0.00000000000E+00 0. -1.
         -1    1    6    6    0  503  0.11080559962E+03 -0.32496816943E+03  0.67290242054E+03  0.75543355738E+03  0.00000000000E+00 0.  1.
<mgrwt>
<rscale>  0 0.21865044E+04</rscale>
<asrwt>0</asrwt>
<pdfrwt beam="1">  1        2 0.33604033E+00 0.21865044E+04</pdfrwt>
<pdfrwt beam="2">  1       -1 0.84182657E-01 0.21865044E+04</pdfrwt>
<totfact> 0.76727992E+00</totfact>
</mgrwt>
</event>
<event>
12    7  0.1611233E-007  0.1171157E+04  0.7818608E-02  0.9138484E-01
          2   -1    0    0  501    0  0.00000000000E+00  0.00000000000E+00  0.41967753156E+03  0.41967753156E+03  0.00000000000E+00 0. -1.
         -1   -1    0    0    0  501 -0.00000000000E+00 -0.00000000000E+00 -0.81706069913E+03  0.81706069913E+03  0.00000000000E+00 0.  1.
         24    2    1    2    0    0 -0.20011066563E+03  0.11943563642E+03 -0.10989999001E+03  0.27045215396E+03  0.82202250750E+02 0.  0.
        254    2    1    2    0    0  0.20011066563E+03 -0.11943563642E+03 -0.28748317756E+03  0.96628607674E+03  0.89261024808E+03 0.  0.
         23    2    4    4    0    0 -0.33489571714E+03 -0.27721116573E+02 -0.48970675481E+01  0.34821722937E+03  0.91146343311E+02 0.  0.
         23    2    4    4    0    0  0.53500638277E+03 -0.91714519848E+02 -0.28258611001E+03  0.61806884737E+03  0.86664916549E+02 0.  0.
          4    1    3    3  502    0 -0.13821035010E+03  0.42372614630E+02 -0.87907316355E+02  0.16918993946E+03  0.00000000000E+00 0. -1.
         -3    1    3    3    0  502 -0.61900315532E+02  0.77063021790E+02 -0.21992673657E+02  0.10126221450E+03  0.00000000000E+00 0.  1.
         13    1    5    5    0    0 -0.22286934320E+02 -0.25726132558E+02  0.92833922768E+01  0.35280627970E+02  0.00000000000E+00 0. -1.
        -13    1    5    5    0    0 -0.31260878282E+03 -0.19949840152E+01 -0.14180459825E+02  0.31293660140E+03  0.00000000000E+00 0.  1.
          3    1    6    6  503    0  0.61397883409E+02 -0.38541497816E+02 -0.47398609456E+02  0.86612789583E+02  0.00000000000E+00 0. -1.
         -3    1    6    6    0  503  0.47360849936E+03 -0.53173022031E+02 -0.23518750055E+03  0.53145605778E+03  0.00000000000E+00 0.  1.
<mgrwt>
<rscale>  0 0.11711567E+04</rscale>
<asrwt>0</asrwt>
<pdfrwt beam="1">  1        2 0.64565775E-01 0.11711567E+04</pdfrwt>
<pdfrwt beam="2">  1       -1 0.12570164E+00 0.11711567E+04</pdfrwt>
<totfact> 0.47031832E+01</totfact>
</mgrwt>
</event>
<event>
12    7  0.1611233E-007  0.2677455E+04  0.7818608E-02  0.8342357E-01
          2   -1    0    0  501    0  0.00000000000E+00  0.00000000000E+00  0.27923909650E+04  0.27923909650E+04  0.00000000000E+00 0. -1.
         -1   -1    0    0    0  501 -0.00000000000E+00 -0.00000000000E+00 -0.64181245108E+03  0.64181245108E+03  0.00000000000E+00 0.  1.
         24    2    1    2    0    0  0.52708318606E+03  0.48882358958E+03  0.21629202914E+04  0.22806673826E+04  0.80338884311E+02 0.  0.
        254    2    1    2    0    0 -0.52708318606E+03 -0.48882358958E+03 -0.12341777423E+02  0.11535360335E+04  0.90206866393E+03 0.  0.
         23    2    4    4    0    0  0.17813306379E+03  0.73642322138E+02 -0.11220749796E+03  0.24128154916E+03  0.92041747805E+02 0.  0.
         23    2    4    4    0    0 -0.70521624985E+03 -0.56246591172E+03  0.99865720540E+02  0.91225448438E+03  0.92397084563E+02 0.  0.
          4    1    3    3  502    0  0.13613859172E+03  0.14493916821E+03  0.70771057972E+03  0.73511587065E+03  0.00000000000E+00 0. -1.
         -3    1    3    3    0  502  0.39094459434E+03  0.34388442137E+03  0.14552097117E+04  0.15455515119E+04  0.00000000000E+00 0.  1.
         13    1    5    5    0    0  0.43191254462E+02  0.65285678250E+02 -0.37215123659E+02  0.86675657918E+02  0.00000000000E+00 0. -1.
        -13    1    5    5    0    0  0.13494180933E+03  0.83566438878E+01 -0.74992374304E+02  0.15460589124E+03  0.00000000000E+00 0.  1.
          2    1    6    6  503    0 -0.37051026511E+02 -0.60744617557E+02  0.10522786229E+02  0.71926463542E+02  0.00000000000E+00 0. -1.
         -2    1    6    6    0  503 -0.66816522334E+03 -0.50172129416E+03  0.89342934311E+02  0.84032802084E+03  0.00000000000E+00 0.  1.
<mgrwt>
<rscale>  0 0.26774550E+04</rscale>
<asrwt>0</asrwt>
<pdfrwt beam="1">  1        2 0.42959860E+00 0.26774550E+04</pdfrwt>
<pdfrwt beam="2">  1       -1 0.98740378E-01 0.26774550E+04</pdfrwt>
<totfact> 0.22904858E+00</totfact>
</mgrwt>
</event>
<event>
12    7  0.1611233E-007  0.2265876E+04  0.7818608E-02  0.8491499E-01
          2   -1    0    0  501    0  0.00000000000E+00  0.00000000000E+00  0.13143744110E+04  0.13143744110E+04  0.00000000000E+00 0. -1.
         -1   -1    0    0    0  501 -0.00000000000E+00 -0.00000000000E+00 -0.97654666428E+03  0.97654666428E+03  0.00000000000E+00 0.  1.
         24    2    1    2    0    0 -0.35511047657E+03 -0.58339373049E+03  0.82307509851E+03  0.10725066854E+04  0.79788953861E+02 0.  0.
        254    2    1    2    0    0  0.35511047657E+03  0.58339373049E+03 -0.48524735178E+03  0.12184143899E+04  0.88465639527E+03 0.  0.
         23    2    4    4    0    0  0.38608130257E+03 -0.10557841412E+03 -0.98399328440E+02  0.42254512381E+03  0.93039669500E+02 0.  0.
         23    2    4    4    0    0 -0.30970826000E+02  0.68897214460E+03 -0.38684802334E+03  0.79586926605E+03  0.90081559621E+02 0.  0.
          2    1    3    3  502    0 -0.17478061024E+03 -0.34591874025E+03  0.50404920144E+03  0.63582515997E+03  0.00000000000E+00 0. -1.
         -1    1    3    3    0  502 -0.18032986633E+03 -0.23747499023E+03  0.31902589707E+03  0.43668152546E+03  0.00000000000E+00 0.  1.
         13    1    5    5    0    0  0.28790484696E+03 -0.43191696139E+02 -0.45120735836E+02  0.29460245132E+03  0.00000000000E+00 0.  1.
        -13    1    5    5    0    0  0.98176455604E+02 -0.62386717978E+02 -0.53278592604E+02  0.12794267249E+03  0.00000000000E+00 0. -1.
          4    1    6    6  503    0 -0.40524193503E+02  0.31037848102E+03 -0.13390304286E+03  0.34045122503E+03  0.00000000000E+00 0. -1.
         -4    1    6    6    0  503  0.95533675035E+01  0.37859366358E+03 -0.25294498048E+03  0.45541804102E+03  0.00000000000E+00 0.  1.
<mgrwt>
<rscale>  0 0.22658755E+04</rscale>
<asrwt>0</asrwt>
<pdfrwt beam="1">  1        2 0.20221145E+00 0.22658755E+04</pdfrwt>
<pdfrwt beam="2">  1       -1 0.15023795E+00 0.22658755E+04</pdfrwt>
<totfact> 0.58370650E+00</totfact>
</mgrwt>
</event>
<event>
12    7  0.1611233E-007  0.1323673E+04  0.7818608E-02  0.9011000E-01
          2   -1    0    0  501    0  0.00000000000E+00  0.00000000000E+00  0.34171193496E+04  0.34171193496E+04  0.00000000000E+00 0. -1.
         -1   -1    0    0    0  501 -0.00000000000E+00 -0.00000000000E+00 -0.12818619810E+03  0.12818619810E+03  0.00000000000E+00 0.  1.
         24    2    1    2    0    0  0.29417755716E+02 -0.33369630770E+03  0.79264174320E+03  0.86419814532E+03  0.79617028261E+02 0.  0.
        254    2    1    2    0    0 -0.29417755716E+02  0.33369630770E+03  0.24962914083E+04  0.26811074024E+04  0.91904704877E+03 0.  0.
         23    2    4    4    0    0 -0.67485040166E+01 -0.23037832755E+03  0.21159228603E+03  0.32582886032E+03  0.90958422351E+02 0.  0.
         23    2    4    4    0    0 -0.22669251700E+02  0.56407463524E+03  0.22846991223E+04  0.23552785421E+04  0.93770157002E+02 0.  0.
          4    1    3    3  502    0  0.43034240737E+02 -0.32537729285E+03  0.76102186929E+03  0.82878019650E+03  0.00000000000E+00 0. -1.
         -3    1    3    3    0  502 -0.13616485020E+02 -0.83190148502E+01  0.31619873912E+02  0.35417948820E+02  0.00000000000E+00 0.  1.
         13    1    5    5    0    0 -0.22075125347E+01 -0.22057660656E+03  0.15844486229E+03  0.27159471067E+03  0.00000000000E+00 0. -1.
        -13    1    5    5    0    0 -0.45409914819E+01 -0.98017209829E+01  0.53147423744E+02  0.54234149653E+02  0.00000000000E+00 0.  1.
          1    1    6    6  503    0  0.31753258456E+02  0.23091269284E+03  0.10209052085E+04  0.10471754323E+04  0.00000000000E+00 0. -1.
         -1    1    6    6    0  503 -0.54422510156E+02  0.33316194240E+03  0.12637939138E+04  0.13081031098E+04  0.00000000000E+00 0.  1.
<mgrwt>
<rscale>  0 0.13236730E+04</rscale>
<asrwt>0</asrwt>
<pdfrwt beam="1">  1        2 0.52571060E+00 0.13236730E+04</pdfrwt>
<pdfrwt beam="2">  1       -1 0.19720956E-01 0.13236730E+04</pdfrwt>
<totfact> 0.22057766E+01</totfact>
</mgrwt>
</event>
<event>
12    7  0.1611233E-007  0.1799572E+04  0.7818608E-02  0.8706527E-01
         -1   -1    0    0    0  501 -0.00000000000E+00  0.00000000000E+00  0.28605346564E+03  0.28605346564E+03  0.00000000000E+00 0.  1.
          2   -1    0    0  501    0  0.00000000000E+00 -0.00000000000E+00 -0.28302907778E+04  0.28302907778E+04  0.00000000000E+00 0. -1.
         24    2    1    2    0    0 -0.61762764699E+03  0.25473630507E+03 -0.93029887315E+03  0.11482131874E+04  0.81135903946E+02 0.  0.
        254    2    1    2    0    0  0.61762764699E+03 -0.25473630507E+03 -0.16139384390E+04  0.19681310561E+04  0.90685614812E+03 0.  0.
         23    2    4    4    0    0 -0.49109674798E+02 -0.32157696414E+03 -0.18429862848E+03  0.38666791485E+03  0.98603183973E+02 0.  0.
         23    2    4    4    0    0  0.66673732178E+03  0.66840659067E+02 -0.14296398106E+04  0.15814631412E+04  0.90273745444E+02 0.  0.
          2    1    3    3  502    0 -0.24016735053E+03  0.85189795326E+02 -0.29240287104E+03  0.38786221327E+03  0.00000000000E+00 0. -1.
         -1    1    3    3    0  502 -0.37746029645E+03  0.16954650975E+03 -0.63789600210E+03  0.76035097413E+03  0.00000000000E+00 0.  1.
         13    1    5    5    0    0  0.20366031679E+02 -0.16842642130E+02 -0.70458594798E+01  0.27351306661E+02  0.00000000000E+00 0.  1.
        -13    1    5    5    0    0 -0.69475706476E+02 -0.30473432201E+03 -0.17725276900E+03  0.35931660819E+03  0.00000000000E+00 0. -1.
          4    1    6    6  503    0  0.66323575560E+03  0.57586233953E+02 -0.14002158613E+04  0.15504200399E+04  0.00000000000E+00 0. -1.
         -4    1    6    6    0  503  0.35015661845E+01  0.92544251146E+01 -0.29423949266E+02  0.31043101333E+02  0.00000000000E+00 0.  1.
<mgrwt>
<rscale>  0 0.17995716E+04</rscale>
<asrwt>0</asrwt>
<pdfrwt beam="1">  1        2 0.43542936E+00 0.17995716E+04</pdfrwt>
<pdfrwt beam="2">  1       -1 0.44008225E-01 0.17995716E+04</pdfrwt>
<totfact> 0.12197600E+01</totfact>
</mgrwt>
</event>
<event>
12    7  0.1611233E-007  0.1741926E+04  0.7818608E-02  0.8737807E-01
         -1   -1    0    0    0  501 -0.00000000000E+00  0.00000000000E+00  0.11159599356E+04  0.11159599356E+04  0.00000000000E+00 0.  1.
          2   -1    0    0  501    0  0.00000000000E+00 -0.00000000000E+00 -0.67975227591E+03  0.67975227591E+03  0.00000000000E+00 0. -1.
         24    2    1    2    0    0  0.26426987640E+03  0.56270025535E+03 -0.15120143337E+03  0.64470716208E+03  0.79468902333E+02 0.  0.
        254    2    1    2    0    0 -0.26426987640E+03 -0.56270025535E+03  0.58740909302E+03  0.11510050494E+04  0.77025517602E+03 0.  0.
         23    2    4    4    0    0 -0.17407135654E+03  0.78083472146E+02 -0.70339765225E+02  0.22372296298E+03  0.93308176496E+02 0.  0.
         23    2    4    4    0    0 -0.90198519865E+02 -0.64078372750E+03  0.65774885824E+03  0.92728208640E+03  0.92081207768E+02 0.  0.
          4    1    3    3  502    0  0.14476640429E+03  0.28997654825E+03 -0.11880351709E+03  0.34519267956E+03  0.00000000000E+00 0. -1.
         -3    1    3    3    0  502  0.11950347211E+03  0.27272370710E+03 -0.32397916277E+02  0.29951448252E+03  0.00000000000E+00 0.  1.
         13    1    5    5    0    0 -0.64688014840E+02  0.21538916018E+02  0.19943636060E+02  0.71036700278E+02  0.00000000000E+00 0.  1.
        -13    1    5    5    0    0 -0.10938334170E+03  0.56544556129E+02 -0.90283401285E+02  0.15268626270E+03  0.00000000000E+00 0. -1.
          1    1    6    6  503    0 -0.70015543038E+02 -0.43689648643E+03  0.50693053208E+03  0.67287389641E+03  0.00000000000E+00 0. -1.
         -1    1    6    6    0  503 -0.20182976827E+02 -0.20388724107E+03  0.15081832616E+03  0.25440818999E+03  0.00000000000E+00 0.  1.
<mgrwt>
<rscale>  0 0.17419257E+04</rscale>
<asrwt>0</asrwt>
<pdfrwt beam="1">  1        2 0.10457727E+00 0.17419257E+04</pdfrwt>
<pdfrwt beam="2">  1       -1 0.17168614E+00 0.17419257E+04</pdfrwt>
<totfact> 0.11012909E+01</totfact>
</mgrwt>
</event>
<event>
12    7  0.1611233E-007  0.1870090E+04  0.7818608E-02  0.8669890E-01
          2   -1    0    0  501    0  0.00000000000E+00  0.00000000000E+00  0.39205967588E+03  0.39205967588E+03  0.00000000000E+00 0. -1.
         -1   -1    0    0    0  501 -0.00000000000E+00 -0.00000000000E+00 -0.22300399830E+04  0.22300399830E+04  0.00000000000E+00 0.  1.
         24    2    1    2    0    0  0.15569895413E+03  0.13856867692E+03 -0.16528518614E+04  0.16678624883E+04  0.80016008270E+02 0.  0.
        254    2    1    2    0    0 -0.15569895413E+03 -0.13856867692E+03 -0.18512844577E+03  0.95423717064E+03  0.91260757933E+03 0.  0.
         23    2    4    4    0    0  0.26703232014E+03 -0.34466477253E+03 -0.14112713515E+02  0.44580307194E+03  0.91875703201E+02 0.  0.
         23    2    4    4    0    0 -0.42273127427E+03  0.20609609561E+03 -0.17101573225E+03  0.50843409870E+03  0.89897281244E+02 0.  0.
          4    1    3    3  502    0  0.37266848985E+02  0.40830392201E+00 -0.42039031308E+03  0.42203909781E+03  0.00000000000E+00 0. -1.
         -1    1    3    3    0  502  0.11843210514E+03  0.13816037300E+03 -0.12324615483E+04  0.12458233904E+04  0.00000000000E+00 0.  1.
         13    1    5    5    0    0  0.17081685028E+03 -0.27027907961E+03  0.17281113051E+02  0.32019964723E+03  0.00000000000E+00 0. -1.
        -13    1    5    5    0    0  0.96215469864E+02 -0.74385692919E+02 -0.31393826566E+02  0.12560342471E+03  0.00000000000E+00 0.  1.
          1    1    6    6  503    0 -0.20247710353E+03  0.14836480367E+03 -0.94839553137E+02  0.26833492740E+03  0.00000000000E+00 0. -1.
         -1    1    6    6    0  503 -0.22025417074E+03  0.57731291941E+02 -0.76176179115E+02  0.24009917131E+03  0.00000000000E+00 0.  1.
<mgrwt>
<rscale>  0 0.18700896E+04</rscale>
<asrwt>0</asrwt>
<pdfrwt beam="1">  1        2 0.60316873E-01 0.18700896E+04</pdfrwt>
<pdfrwt beam="2">  1       -1 0.34308307E+00 0.18700896E+04</pdfrwt>
<totfact> 0.15102855E+00</totfact>
</mgrwt>
</event>
<event>
12    7  0.1611233E-007  0.1223439E+04  0.7818608E-02  0.9092585E-01
          2   -1    0    0  501    0  0.00000000000E+00  0.00000000000E+00  0.12803050104E+04  0.12803050104E+04  0.00000000000E+00 0. -1.
         -1   -1    0    0    0  501 -0.00000000000E+00 -0.00000000000E+00 -0.29227446103E+03  0.29227446103E+03  0.00000000000E+00 0.  1.
         24    2    1    2    0    0 -0.14059224282E+03  0.35671196188E+02  0.64251149193E+03  0.66417913266E+03  0.85289448527E+02 0.  0.
        254    2    1    2    0    0  0.14059224282E+03 -0.35671196188E+02  0.34551905745E+03  0.90840033877E+03  0.82750779056E+03 0.  0.
         23    2    4    4    0    0  0.14517560742E+03  0.28728411718E+03  0.44645709067E+03  0.55797683756E+03  0.91684766814E+02 0.  0.
         23    2    4    4    0    0 -0.45833645982E+01 -0.32295531337E+03 -0.10093803322E+03  0.35042350121E+03  0.91032971979E+02 0.  0.
          2    1    3    3  502    0 -0.63559378892E+02 -0.41068013126E+01  0.42955524429E+03  0.43425150357E+03  0.00000000000E+00 0. -1.
         -1    1    3    3    0  502 -0.77032863928E+02  0.39777997500E+02  0.21295624764E+03  0.22992762909E+03  0.00000000000E+00 0.  1.
         13    1    5    5    0    0  0.22761018762E+01  0.93512703313E+02  0.11320577097E+03  0.14685146544E+03  0.00000000000E+00 0. -1.
        -13    1    5    5    0    0  0.14289950554E+03  0.19377141387E+03  0.33325131970E+03  0.41112537212E+03  0.00000000000E+00 0.  1.
          1    1    6    6  503    0  0.29062779883E+02 -0.27738613814E+03 -0.82382091780E+02  0.29081699375E+03  0.00000000000E+00 0. -1.
         -1    1    6    6    0  503 -0.33646144481E+02 -0.45569175235E+02 -0.18555941436E+02  0.59606507468E+02  0.00000000000E+00 0.  1.
<mgrwt>
<rscale>  0 0.12234385E+04</rscale>
<asrwt>0</asrwt>
<pdfrwt beam="1">  1        2 0.19697000E+00 0.12234385E+04</pdfrwt>
<pdfrwt beam="2">  1       -1 0.44965302E-01 0.12234385E+04</pdfrwt>
<totfact> 0.93459150E+01</totfact>
</mgrwt>
</event>
<event>
12    7  0.1611233E-007  0.1428860E+04  0.7818608E-02  0.8933189E-01
         -1   -1    0    0    0  501 -0.00000000000E+00  0.00000000000E+00  0.12211441098E+04  0.12211441098E+04  0.00000000000E+00 0.  1.
          2   -1    0    0  501    0  0.00000000000E+00 -0.00000000000E+00 -0.41797700301E+03  0.41797700301E+03  0.00000000000E+00 0. -1.
         24    2    1    2    0    0  0.20477292199E+03 -0.14652131343E+03 -0.15026058307E+03  0.30403534590E+03  0.80366683787E+02 0.  0.
        254    2    1    2    0    0 -0.20477292199E+03  0.14652131343E+03  0.95342768983E+03  0.13350857669E+04  0.90001622226E+03 0.  0.
         23    2    4    4    0    0 -0.12921888180E+03  0.25211834083E+03 -0.64790974990E+02  0.30457788435E+03  0.91151741640E+02 0.  0.
         23    2    4    4    0    0 -0.75554040189E+02 -0.10559702740E+03  0.10182186648E+04  0.10305078825E+04  0.91203625907E+02 0.  0.
          4    1    3    3  502    0  0.14299852992E+03 -0.10778286645E+03 -0.61882163224E+02  0.18946009602E+03  0.00000000000E+00 0. -1.
         -3    1    3    3    0  502  0.61774392067E+02 -0.38738446977E+02 -0.88378419846E+02  0.11457524987E+03  0.00000000000E+00 0.  1.
         13    1    5    5    0    0 -0.13694433065E+02 -0.34898688359E+01 -0.13265316013E+02  0.19382602776E+02  0.00000000000E+00 0.  1.
        -13    1    5    5    0    0 -0.11552444873E+03  0.25560820966E+03 -0.51525658977E+02  0.28519528158E+03  0.00000000000E+00 0. -1.
          4    1    6    6  503    0 -0.58327808172E+02 -0.94542044032E+02  0.98665200904E+03  0.99288595429E+03  0.00000000000E+00 0. -1.
         -4    1    6    6    0  503 -0.17226232016E+02 -0.11054983366E+02  0.31566655781E+02  0.37621928232E+02  0.00000000000E+00 0.  1.
<mgrwt>
<rscale>  0 0.14288599E+04</rscale>
<asrwt>0</asrwt>
<pdfrwt beam="1">  1        2 0.64304155E-01 0.14288599E+04</pdfrwt>
<pdfrwt beam="2">  1       -1 0.18786832E+00 0.14288599E+04</pdfrwt>
<totfact> 0.15374934E+01</totfact>
</mgrwt>
</event>
<event>
12    7  0.1611233E-007  0.1324272E+04  0.7818608E-02  0.9010536E-01
          2   -1    0    0  501    0  0.00000000000E+00  0.00000000000E+00  0.12361759594E+04  0.12361759594E+04  0.00000000000E+00 0. -1.
         -1   -1    0    0    0  501 -0.00000000000E+00 -0.00000000000E+00 -0.35466143576E+03  0.35466143576E+03  0.00000000000E+00 0.  1.
         24    2    1    2    0    0  0.32479439581E+03  0.95467590878E+02  0.36266153015E+03  0.50239681597E+03  0.79206784991E+02 0.  0.
        254    2    1    2    0    0 -0.32479439581E+03 -0.95467590878E+02  0.51885299346E+03  0.10884405792E+04  0.89492402196E+03 0.  0.
         23    2    4    4    0    0  0.10946929003E+03 -0.32551425817E+03  0.46258346064E+03  0.58329058257E+03  0.91111952694E+02 0.  0.
         23    2    4    4    0    0 -0.43426368583E+03  0.23004666729E+03  0.56269532819E+02  0.50514999659E+03  0.10248824696E+03 0.  0.
          2    1    3    3  502    0  0.32228761981E+03  0.97712728172E+02  0.33670113030E+03  0.47621921241E+03  0.00000000000E+00 0. -1.
         -1    1    3    3    0  502  0.25067760007E+01 -0.22451372935E+01  0.25960399855E+02  0.26177603558E+02  0.00000000000E+00 0.  1.
         13    1    5    5    0    0  0.24102595025E+02 -0.13231939503E+03  0.24843926062E+03  0.28250915668E+03  0.00000000000E+00 0. -1.
        -13    1    5    5    0    0  0.85366695001E+02 -0.19319486314E+03  0.21414420002E+03  0.30078142589E+03  0.00000000000E+00 0.  1.
          2    1    6    6  503    0  0.46572050840E+01 -0.85219489402E+00 -0.31008221116E+01  0.56595841808E+01  0.00000000000E+00 0. -1.
         -2    1    6    6    0  503 -0.43892089092E+03  0.23089886219E+03  0.59370354931E+02  0.49949041241E+03  0.00000000000E+00 0.  1.
<mgrwt>
<rscale>  0 0.13242718E+04</rscale>
<asrwt>0</asrwt>
<pdfrwt beam="1">  1        2 0.19018092E+00 0.13242718E+04</pdfrwt>
<pdfrwt beam="2">  1       -1 0.54563298E-01 0.13242718E+04</pdfrwt>
<totfact> 0.68217985E+01</totfact>
</mgrwt>
</event>
<event>
12    7  0.1611233E-007  0.2693173E+04  0.7818608E-02  0.8337223E-01
         -1   -1    0    0    0  501 -0.00000000000E+00  0.00000000000E+00  0.47740373445E+03  0.47740373445E+03  0.00000000000E+00 0.  1.
          2   -1    0    0  501    0  0.00000000000E+00 -0.00000000000E+00 -0.37982425378E+04  0.37982425378E+04  0.00000000000E+00 0. -1.
         24    2    1    2    0    0  0.59860268570E+03 -0.46133975733E+03 -0.84069520981E+01  0.76019503903E+03  0.81647250459E+02 0.  0.
        254    2    1    2    0    0 -0.59860268570E+03  0.46133975733E+03 -0.33124318512E+04  0.35154512332E+04  0.90279181262E+03 0.  0.
         23    2    4    4    0    0 -0.18512090300E+03  0.66793627144E+03 -0.17904464960E+04  0.19222264204E+04  0.94059263937E+02 0.  0.
         23    2    4    4    0    0 -0.41348178270E+03 -0.20659651412E+03 -0.15219853553E+04  0.15932248128E+04  0.90975700285E+02 0.  0.
          4    1    3    3  502    0  0.20882619127E+02 -0.38284294105E+02  0.58306955212E+01  0.43997363182E+02  0.00000000000E+00 0. -1.
         -1    1    3    3    0  502  0.57772006657E+03 -0.42305546322E+03 -0.14237647619E+02  0.71619767585E+03  0.00000000000E+00 0.  1.
         13    1    5    5    0    0 -0.10609381844E+03  0.43414893711E+03 -0.10313120181E+04  0.11239865108E+04  0.00000000000E+00 0. -1.
        -13    1    5    5    0    0 -0.79027084556E+02  0.23378733433E+03 -0.75913447789E+03  0.79823990962E+03  0.00000000000E+00 0.  1.
          3    1    6    6  503    0 -0.27577830693E+03 -0.12137163221E+03 -0.11206371758E+04  0.11604363091E+04  0.00000000000E+00 0. -1.
         -3    1    6    6    0  503 -0.13770347576E+03 -0.85224881907E+02 -0.40134817948E+03  0.43278850366E+03  0.00000000000E+00 0.  1.
<mgrwt>
<rscale>  0 0.26931730E+04</rscale>
<asrwt>0</asrwt>
<pdfrwt beam="1">  1        2 0.58434499E+00 0.26931730E+04</pdfrwt>
<pdfrwt beam="2">  1       -1 0.73446730E-01 0.26931730E+04</pdfrwt>
<totfact> 0.91901908E-01</totfact>
</mgrwt>
</event>
<event>
12    7  0.1611233E-007  0.3072806E+04  0.7818608E-02  0.8223241E-01
         -1   -1    0    0    0  501 -0.00000000000E+00  0.00000000000E+00  0.16469217918E+04  0.16469217918E+04  0.00000000000E+00 0.  1.
          2   -1    0    0  501    0  0.00000000000E+00 -0.00000000000E+00 -0.14333006825E+04  0.14333006825E+04  0.00000000000E+00 0. -1.
         24    2    1    2    0    0 -0.10813055440E+04 -0.42549990350E+03  0.88858401773E+03  0.14651011385E+04  0.81657467528E+02 0.  0.
        254    2    1    2    0    0  0.10813055440E+04  0.42549990350E+03 -0.67496290845E+03  0.16151213357E+04  0.89597441590E+03 0.  0.
         23    2    4    4    0    0  0.24701596341E+03  0.27834685433E+02  0.20648120922E+03  0.33471607156E+03  0.87227879159E+02 0.  0.
         23    2    4    4    0    0  0.83428958063E+03  0.39766521807E+03 -0.88144411767E+03  0.12804052642E+04  0.91198563527E+02 0.  0.
          4    1    3    3  502    0 -0.12327544015E+03 -0.23187142876E+02  0.84554348227E+02  0.15127430563E+03  0.00000000000E+00 0. -1.
         -3    1    3    3    0  502 -0.95803010389E+03 -0.40231276063E+03  0.80402966950E+03  0.13138268329E+04  0.00000000000E+00 0.  1.
         13    1    5    5    0    0  0.15502542238E+03  0.54439361859E+02  0.15553448049E+03  0.22624654765E+03  0.00000000000E+00 0.  1.
        -13    1    5    5    0    0  0.91990541034E+02 -0.26604676426E+02  0.50946728732E+02  0.10846952390E+03  0.00000000000E+00 0. -1.
          1    1    6    6  503    0  0.55306337520E+03  0.28929000485E+03 -0.54384531010E+03  0.82784994124E+03  0.00000000000E+00 0. -1.
         -1    1    6    6    0  503  0.28122620543E+03  0.10837521322E+03 -0.33759880757E+03  0.45255532295E+03  0.00000000000E+00 0.  1.
<mgrwt>
<rscale>  0 0.30728060E+04</rscale>
<asrwt>0</asrwt>
<pdfrwt beam="1">  1        2 0.22050780E+00 0.30728060E+04</pdfrwt>
<pdfrwt beam="2">  1       -1 0.25337258E+00 0.30728060E+04</pdfrwt>
<totfact> 0.88936917E-01</totfact>
</mgrwt>
</event>
<event>
12    7  0.1611233E-007  0.3361775E+04  0.7818608E-02  0.8147352E-01
          2   -1    0    0  501    0  0.00000000000E+00  0.00000000000E+00  0.29411054477E+04  0.29411054477E+04  0.00000000000E+00 0. -1.
         -1   -1    0    0    0  501 -0.00000000000E+00 -0.00000000000E+00 -0.96065362610E+03  0.96065362610E+03  0.00000000000E+00 0.  1.
         24    2    1    2    0    0  0.22022067955E+03 -0.11251360804E+04  0.21473304795E+04  0.24355452245E+04  0.80149891567E+02 0.  0.
        254    2    1    2    0    0 -0.22022067955E+03  0.11251360804E+04 -0.16687865789E+03  0.14662138493E+04  0.89861349782E+03 0.  0.
         23    2    4    4    0    0  0.10280432347E+03  0.36665984412E+03  0.31858584494E+03  0.50554993538E+03  0.95266081843E+02 0.  0.
         23    2    4    4    0    0 -0.32302500301E+03  0.75847623626E+03 -0.48546450283E+03  0.96066391397E+03  0.86994359275E+02 0.  0.
          2    1    3    3  502    0  0.16178294906E+03 -0.90568572783E+03  0.16601921173E+04  0.18980722395E+04  0.00000000000E+00 0. -1.
         -1    1    3    3    0  502  0.58437730490E+02 -0.21945035255E+03  0.48713836225E+03  0.53747298496E+03  0.00000000000E+00 0.  1.
         13    1    5    5    0    0  0.16703307765E+02  0.16387031578E+01  0.20399804737E+02  0.26416621125E+02  0.00000000000E+00 0.  1.
        -13    1    5    5    0    0  0.86101015700E+02  0.36502114096E+03  0.29818604020E+03  0.47913331425E+03  0.00000000000E+00 0. -1.
          4    1    6    6  503    0 -0.31663744685E+03  0.74574889576E+03 -0.46047073008E+03  0.93189805319E+03  0.00000000000E+00 0. -1.
         -4    1    6    6    0  503 -0.63875561586E+01  0.12727340497E+02 -0.24993772750E+02  0.28765860774E+02  0.00000000000E+00 0.  1.
<mgrwt>
<rscale>  0 0.33617755E+04</rscale>
<asrwt>0</asrwt>
<pdfrwt beam="1">  1        2 0.45247776E+00 0.33617755E+04</pdfrwt>
<pdfrwt beam="2">  1       -1 0.14779287E+00 0.33617755E+04</pdfrwt>
<totfact> 0.64897908E-01</totfact>
</mgrwt>
</event>
<event>
12    7  0.1611233E-007  0.2170819E+04  0.7818608E-02  0.8530673E-01
          2   -1    0    0  501    0  0.00000000000E+00  0.00000000000E+00  0.78444698956E+03  0.78444698956E+03  0.00000000000E+00 0. -1.
         -1   -1    0    0    0  501 -0.00000000000E+00 -0.00000000000E+00 -0.15018400883E+04  0.15018400883E+04  0.00000000000E+00 0.  1.
         24    2    1    2    0    0 -0.75394312980E+03 -0.33441989596E+02  0.20766763641E+03  0.78680776281E+03  0.79949976606E+02 0.  0.
        254    2    1    2    0    0  0.75394312980E+03  0.33441989596E+02 -0.92506073519E+03  0.14994793151E+04  0.90727737929E+03 0.  0.
         23    2    4    4    0    0 -0.10501124828E+03  0.19120692558E+03 -0.43203728307E+03  0.49235988740E+03  0.90413461944E+02 0.  0.
         23    2    4    4    0    0  0.85895437808E+03 -0.15776493599E+03 -0.49302345212E+03  0.10071194277E+04  0.92331027637E+02 0.  0.
          2    1    3    3  502    0 -0.18152078861E+00 -0.45619753864E+01  0.74031724876E+00  0.46252177086E+01  0.00000000000E+00 0. -1.
         -1    1    3    3    0  502 -0.75376160901E+03 -0.28880014209E+02  0.20692731916E+03  0.78218254510E+03  0.00000000000E+00 0.  1.
         13    1    5    5    0    0 -0.59541061923E+02  0.35148756636E+02 -0.88491207196E+02  0.11229989715E+03  0.00000000000E+00 0.  1.
        -13    1    5    5    0    0 -0.45470186355E+02  0.15605816895E+03 -0.34354607587E+03  0.38005999025E+03  0.00000000000E+00 0. -1.
          3    1    6    6  503    0  0.25684752299E+03 -0.45187259196E+02 -0.99861538417E+02  0.27925770412E+03  0.00000000000E+00 0. -1.
         -3    1    6    6    0  503  0.60210685509E+03 -0.11257767679E+03 -0.39316191371E+03  0.72786172358E+03  0.00000000000E+00 0.  1.
<mgrwt>
<rscale>  0 0.21708191E+04</rscale>
<asrwt>0</asrwt>
<pdfrwt beam="1">  1        2 0.12068415E+00 0.21708191E+04</pdfrwt>
<pdfrwt beam="2">  1       -1 0.23105232E+00 0.21708191E+04</pdfrwt>
<totfact> 0.34331420E+00</totfact>
</mgrwt>
</event>
<event>
12    7  0.1611233E-007  0.1153381E+04  0.7818608E-02  0.9154670E-01
         -1   -1    0    0    0  501 -0.00000000000E+00  0.00000000000E+00  0.73747385764E+03  0.73747385764E+03  0.00000000000E+00 0.  1.
          2   -1    0    0  501    0  0.00000000000E+00 -0.00000000000E+00 -0.45096108013E+03  0.45096108013E+03  0.00000000000E+00 0. -1.
         24    2    1    2    0    0  0.34739067557E+02 -0.51863166972E+02 -0.15230419929E+03  0.18298783683E+03  0.79946159412E+02 0.  0.
        254    2    1    2    0    0 -0.34739067557E+02  0.51863166972E+02  0.43881697680E+03  0.10054471009E+04  0.90247822287E+03 0.  0.
         23    2    4    4    0    0  0.33773629664E+03 -0.22177236284E+03  0.10128111322E+03  0.42637145906E+03  0.91027304809E+02 0.  0.
         23    2    4    4    0    0 -0.37247536419E+03  0.27363552981E+03  0.33753586358E+03  0.57907564188E+03  0.88226071599E+02 0.  0.
          4    1    3    3  502    0  0.60877906291E+02 -0.38618309778E+02 -0.11038562846E+03  0.13184263459E+03  0.00000000000E+00 0. -1.
         -3    1    3    3    0  502 -0.26138838733E+02 -0.13244857194E+02 -0.41918570829E+02  0.51145202246E+02  0.00000000000E+00 0.  1.
         13    1    5    5    0    0  0.13131060748E+03 -0.11068530914E+03  0.18757801780E+01  0.17174758178E+03  0.00000000000E+00 0. -1.
        -13    1    5    5    0    0  0.20642568916E+03 -0.11108705370E+03  0.99405333046E+02  0.25462387728E+03  0.00000000000E+00 0.  1.
          1    1    6    6  503    0 -0.24459622846E+03  0.19341482158E+03  0.27467781912E+03  0.41555326072E+03  0.00000000000E+00 0. -1.
         -1    1    6    6    0  503 -0.12787913573E+03  0.80220708232E+02  0.62858044462E+02  0.16352238116E+03  0.00000000000E+00 0.  1.
<mgrwt>
<rscale>  0 0.11533811E+04</rscale>
<asrwt>0</asrwt>
<pdfrwt beam="1">  1        2 0.69378628E-01 0.11533811E+04</pdfrwt>
<pdfrwt beam="2">  1       -1 0.11345752E+00 0.11533811E+04</pdfrwt>
<totfact> 0.55719421E+01</totfact>
</mgrwt>
</event>
<event>
12    7  0.1611233E-007  0.1801538E+04  0.7818608E-02  0.8705482E-01
          2   -1    0    0  501    0  0.00000000000E+00  0.00000000000E+00  0.44622618153E+03  0.44622618153E+03  0.00000000000E+00 0. -1.
         -1   -1    0    0    0  501 -0.00000000000E+00 -0.00000000000E+00 -0.18183260642E+04  0.18183260642E+04  0.00000000000E+00 0.  1.
         24    2    1    2    0    0  0.39779128643E+03 -0.39473991820E+03 -0.96516344476E+03  0.11191004645E+04  0.82388494767E+02 0.  0.
        254    2    1    2    0    0 -0.39779128643E+03  0.39473991820E+03 -0.40693643790E+03  0.11454517812E+04  0.91236232271E+03 0.  0.
         23    2    4    4    0    0 -0.74074839711E+02 -0.19635545189E+03  0.14391027432E+03  0.27019098580E+03  0.90832022926E+02 0.  0.
         23    2    4    4    0    0 -0.32371644672E+03  0.59109537009E+03 -0.55084671222E+03  0.87526079536E+03  0.91996114655E+02 0.  0.
          4    1    3    3  502    0  0.56226928585E+01 -0.28628195208E+02 -0.63780595967E+02  0.70136671277E+02  0.00000000000E+00 0. -1.
         -3    1    3    3    0  502  0.39216859357E+03 -0.36611172299E+03 -0.90138284879E+03  0.10489637933E+04  0.00000000000E+00 0.  1.
         13    1    5    5    0    0 -0.85408909778E+01  0.79487390864E+01 -0.30305923196E+00  0.11671380238E+02  0.00000000000E+00 0.  1.
        -13    1    5    5    0    0 -0.65533948733E+02 -0.20430419097E+03  0.14421333355E+03  0.25851960556E+03  0.00000000000E+00 0. -1.
          3    1    6    6  503    0 -0.26258249584E+03  0.49564002768E+03 -0.41164571782E+03  0.69574478163E+03  0.00000000000E+00 0. -1.
         -3    1    6    6    0  503 -0.61133950874E+02  0.95455342406E+02 -0.13920099440E+03  0.17951601373E+03  0.00000000000E+00 0.  1.
<mgrwt>
<rscale>  0 0.18015379E+04</rscale>
<asrwt>0</asrwt>
<pdfrwt beam="1">  1        2 0.68650183E-01 0.18015379E+04</pdfrwt>
<pdfrwt beam="2">  1       -1 0.27974247E+00 0.18015379E+04</pdfrwt>
<totfact> 0.33874890E+00</totfact>
</mgrwt>
</event>
<event>
12    7  0.1611233E-007  0.1738206E+04  0.7818608E-02  0.8739869E-01
         -3   -1    0    0    0  501 -0.00000000000E+00  0.00000000000E+00  0.19270914060E+04  0.19270914060E+04  0.00000000000E+00 0.  1.
          4   -1    0    0  501    0  0.00000000000E+00 -0.00000000000E+00 -0.39195857382E+03  0.39195857382E+03  0.00000000000E+00 0. -1.
         24    2    1    2    0    0  0.47175158430E+03  0.41859785951E+03  0.51494220555E+03  0.81799719450E+03  0.78614310877E+02 0.  0.
        254    2    1    2    0    0 -0.47175158430E+03 -0.41859785951E+03  0.10201906267E+04  0.15010527854E+04  0.90255017833E+03 0.  0.
         23    2    4    4    0    0  0.10171397805E+03 -0.13695818901E+03 -0.90941313060E+02  0.21610080892E+03  0.96571001494E+02 0.  0.
         23    2    4    4    0    0 -0.57346556235E+03 -0.28163967051E+03  0.11111319397E+04  0.12849519764E+04  0.91124854207E+02 0.  0.
          2    1    3    3  502    0  0.10784838656E+03  0.54682110014E+02  0.99681250726E+02  0.15670915540E+03  0.00000000000E+00 0. -1.
         -1    1    3    3    0  502  0.36390319774E+03  0.36391574950E+03  0.41526095482E+03  0.66128803910E+03  0.00000000000E+00 0.  1.
         13    1    5    5    0    0  0.33018730176E+02 -0.53721243103E+02  0.15056311615E+02  0.64829784994E+02  0.00000000000E+00 0. -1.
        -13    1    5    5    0    0  0.68695247873E+02 -0.83236945905E+02 -0.10599762467E+03  0.15127102393E+03  0.00000000000E+00 0.  1.
          1    1    6    6  503    0 -0.24042518304E+03 -0.12039790368E+03  0.37987315995E+03  0.46540685588E+03  0.00000000000E+00 0.  1.
         -1    1    6    6    0  503 -0.33304037931E+03 -0.16124176683E+03  0.73125877978E+03  0.81954512055E+03  0.00000000000E+00 0. -1.
<mgrwt>
<rscale>  0 0.17382060E+04</rscale>
<asrwt>0</asrwt>
<pdfrwt beam="1">  1        4 0.60301320E-01 0.17382060E+04</pdfrwt>
<pdfrwt beam="2">  1       -3 0.29647559E+00 0.17382060E+04</pdfrwt>
<totfact> 0.22478899E-01</totfact>
</mgrwt>
</event>
<event>
12    7  0.1611233E-007  0.2289954E+04  0.7818608E-02  0.8481893E-01
          2   -1    0    0  501    0  0.00000000000E+00  0.00000000000E+00  0.10672599058E+04  0.10672599058E+04  0.00000000000E+00 0. -1.
         -1   -1    0    0    0  501 -0.00000000000E+00 -0.00000000000E+00 -0.12283535630E+04  0.12283535630E+04  0.00000000000E+00 0.  1.
         24    2    1    2    0    0 -0.93633168591E+03 -0.24083182878E+03 -0.15571397175E+03  0.98249970032E+03  0.79635572028E+02 0.  0.
        254    2    1    2    0    0  0.93633168591E+03  0.24083182878E+03 -0.53796853967E+01  0.13131137685E+04  0.88855041065E+03 0.  0.
         23    2    4    4    0    0  0.28509579636E+03  0.13153789223E+03  0.41332469490E+03  0.52629839587E+03  0.87010734306E+02 0.  0.
         23    2    4    4    0    0  0.65123588956E+03  0.10929393655E+03 -0.41870438030E+03  0.78681537265E+03  0.87816423005E+02 0.  0.
          4    1    3    3  502    0 -0.69043652603E+03 -0.14210816875E+03 -0.10428528453E+03  0.71258174877E+03  0.00000000000E+00 0. -1.
         -3    1    3    3    0  502 -0.24589515988E+03 -0.98723660022E+02 -0.51428687216E+02  0.26991795155E+03  0.00000000000E+00 0.  1.
         13    1    5    5    0    0  0.20601406461E+03  0.55236303308E+02  0.30336396492E+03  0.37084031500E+03  0.00000000000E+00 0.  1.
        -13    1    5    5    0    0  0.79081731749E+02  0.76301588918E+02  0.10996072998E+03  0.15545808087E+03  0.00000000000E+00 0. -1.
          1    1    6    6  503    0  0.32239084710E+03  0.11721043484E+02 -0.18714597089E+03  0.37295690847E+03  0.00000000000E+00 0. -1.
         -1    1    6    6    0  503  0.32884504246E+03  0.97572893066E+02 -0.23155840941E+03  0.41385846419E+03  0.00000000000E+00 0.  1.
<mgrwt>
<rscale>  0 0.22899542E+04</rscale>
<asrwt>0</asrwt>
<pdfrwt beam="1">  1        2 0.16419383E+00 0.22899542E+04</pdfrwt>
<pdfrwt beam="2">  1       -1 0.18897747E+00 0.22899542E+04</pdfrwt>
<totfact> 0.42434689E+00</totfact>
</mgrwt>
</event>
<event>
12    7  0.1611233E-007  0.1747231E+04  0.7818608E-02  0.8734876E-01
         -1   -1    0    0    0  501 -0.00000000000E+00  0.00000000000E+00  0.46519439940E+04  0.46519439940E+04  0.00000000000E+00 0.  1.
          2   -1    0    0  501    0  0.00000000000E+00 -0.00000000000E+00 -0.16406123641E+03  0.16406123641E+03  0.00000000000E+00 0. -1.
         24    2    1    2    0    0  0.22386020902E+03 -0.59047637829E+03  0.18035838999E+04  0.19133260055E+04  0.95528911924E+02 0.  0.
        254    2    1    2    0    0 -0.22386020902E+03  0.59047637829E+03  0.26842988577E+04  0.29026792249E+04  0.90626187087E+03 0.  0.
         23    2    4    4    0    0 -0.49938995087E+03  0.61310584605E+03  0.21752044691E+04  0.23162586342E+04  0.90832136325E+02 0.  0.
         23    2    4    4    0    0  0.27552974185E+03 -0.22629467761E+02  0.50909438862E+03  0.58642059062E+03  0.91012532766E+02 0.  0.
          4    1    3    3  502    0  0.76878044500E+02 -0.11220114149E+03  0.45595945474E+03  0.47581336073E+03  0.00000000000E+00 0. -1.
         -3    1    3    3    0  502  0.14698216452E+03 -0.47827523680E+03  0.13476244452E+04  0.14375126448E+04  0.00000000000E+00 0.  1.
         13    1    5    5    0    0 -0.34540783403E+03  0.39910587870E+03  0.13306266286E+04  0.14314884907E+04  0.00000000000E+00 0. -1.
        -13    1    5    5    0    0 -0.15398211684E+03  0.21399996734E+03  0.84457784050E+03  0.88477014359E+03  0.00000000000E+00 0.  1.
          2    1    6    6  503    0  0.19636804187E+03 -0.34848945374E+02  0.28029864510E+03  0.34400899306E+03  0.00000000000E+00 0. -1.
         -2    1    6    6    0  503  0.79161699976E+02  0.12219477613E+02  0.22879574352E+03  0.24241159755E+03  0.00000000000E+00 0.  1.
<mgrwt>
<rscale>  0 0.17472306E+04</rscale>
<asrwt>0</asrwt>
<pdfrwt beam="1">  1        2 0.25240194E-01 0.17472306E+04</pdfrwt>
<pdfrwt beam="2">  1       -1 0.71568359E+00 0.17472306E+04</pdfrwt>
<totfact> 0.41201202E-02</totfact>
</mgrwt>
</event>
<event>
12    7  0.1611233E-007  0.1715886E+04  0.7818608E-02  0.8752356E-01
         -1   -1    0    0    0  501 -0.00000000000E+00  0.00000000000E+00  0.41410418324E+03  0.41410418324E+03  0.00000000000E+00 0.  1.
          2   -1    0    0  501    0  0.00000000000E+00 -0.00000000000E+00 -0.17774902989E+04  0.17774902989E+04  0.00000000000E+00 0. -1.
         24    2    1    2    0    0  0.40944833661E+03  0.14984929811E+03 -0.10526474827E+04  0.11422517280E+04  0.81052666641E+02 0.  0.
        254    2    1    2    0    0 -0.40944833661E+03 -0.14984929811E+03 -0.31073863296E+03  0.10493427542E+04  0.90247380304E+03 0.  0.
         23    2    4    4    0    0  0.18197916565E+03 -0.17896337030E+03 -0.35685524884E+03  0.44812736095E+03  0.91258744053E+02 0.  0.
         23    2    4    4    0    0 -0.59142750226E+03  0.29114072187E+02  0.46116615874E+02  0.60121539320E+03  0.93268896944E+02 0.  0.
          4    1    3    3  502    0  0.36811941571E+03  0.10576377629E+03 -0.90405186349E+03  0.98183891371E+03  0.00000000000E+00 0. -1.
         -3    1    3    3    0  502  0.41328920902E+02  0.44085521827E+02 -0.14859561917E+03  0.16041281425E+03  0.00000000000E+00 0.  1.
         13    1    5    5    0    0  0.98247197290E+02 -0.85836810405E+02 -0.10732998977E+03  0.16893843997E+03  0.00000000000E+00 0. -1.
        -13    1    5    5    0    0  0.83731968361E+02 -0.93126559896E+02 -0.24952525906E+03  0.27918892097E+03  0.00000000000E+00 0.  1.
          3    1    6    6  503    0 -0.23225465264E+03  0.22340400637E+02 -0.26132160103E+02  0.23478544879E+03  0.00000000000E+00 0. -1.
         -3    1    6    6    0  503 -0.35917284962E+03  0.67736715496E+01  0.72248775978E+02  0.36642994441E+03  0.00000000000E+00 0.  1.
<mgrwt>
<rscale>  0 0.17158860E+04</rscale>
<asrwt>0</asrwt>
<pdfrwt beam="1">  1        2 0.27346004E+00 0.17158860E+04</pdfrwt>
<pdfrwt beam="2">  1       -1 0.63708336E-01 0.17158860E+04</pdfrwt>
<totfact> 0.24021395E+01</totfact>
</mgrwt>
</event>
<event>
12    7  0.1611233E-007  0.1191069E+04  0.7818608E-02  0.9120710E-01
          2   -1    0    0  501    0  0.00000000000E+00  0.00000000000E+00  0.82422791594E+03  0.82422791594E+03  0.00000000000E+00 0. -1.
         -1   -1    0    0    0  501 -0.00000000000E+00 -0.00000000000E+00 -0.43029503363E+03  0.43029503363E+03  0.00000000000E+00 0.  1.
         24    2    1    2    0    0 -0.10034641940E+03  0.24936944083E+03  0.18688892623E+03  0.33698241505E+03  0.79844570265E+02 0.  0.
        254    2    1    2    0    0  0.10034641940E+03 -0.24936944083E+03  0.20704395608E+03  0.91754053453E+03  0.85250156062E+03 0.  0.
         23    2    4    4    0    0 -0.22261210318E+03  0.20363578647E+03  0.15593498878E+03  0.35146725653E+03  0.90497677744E+02 0.  0.
         23    2    4    4    0    0  0.32295852257E+03 -0.45300522730E+03  0.51108967301E+02  0.56607327800E+03  0.91164062314E+02 0.  0.
          4    1    3    3  502    0 -0.10942621886E+03  0.24312425114E+03  0.18750138733E+03  0.32594519343E+03  0.00000000000E+00 0. -1.
         -3    1    3    3    0  502  0.90797994639E+01  0.62451896826E+01 -0.61246110161E+00  0.11037221619E+02  0.00000000000E+00 0.  1.
         13    1    5    5    0    0 -0.19267933322E+03  0.18774286942E+03  0.10188018658E+03  0.28766696523E+03  0.00000000000E+00 0.  1.
        -13    1    5    5    0    0 -0.29932769958E+02  0.15892917056E+02  0.54054802199E+02  0.63800291306E+02  0.00000000000E+00 0. -1.
          4    1    6    6  503    0  0.75993003687E+02 -0.86638381882E+02 -0.24494810893E+02  0.11781825659E+03  0.00000000000E+00 0. -1.
         -4    1    6    6    0  503  0.24696551889E+03 -0.36636684542E+03  0.75603778194E+02  0.44825502141E+03  0.00000000000E+00 0.  1.
<mgrwt>
<rscale>  0 0.11910687E+04</rscale>
<asrwt>0</asrwt>
<pdfrwt beam="1">  1        2 0.12680429E+00 0.11910687E+04</pdfrwt>
<pdfrwt beam="2">  1       -1 0.66199236E-01 0.11910687E+04</pdfrwt>
<totfact> 0.86270936E+01</totfact>
</mgrwt>
</event>
<event>
12    7  0.1611233E-007  0.1679221E+04  0.7818608E-02  0.8773305E-01
          2   -1    0    0  501    0  0.00000000000E+00  0.00000000000E+00  0.88652481237E+03  0.88652481237E+03  0.00000000000E+00 0. -1.
         -1   -1    0    0    0  501 -0.00000000000E+00 -0.00000000000E+00 -0.79517853733E+03  0.79517853733E+03  0.00000000000E+00 0.  1.
         24    2    1    2    0    0 -0.51627187435E+03  0.27373617838E+03 -0.62312060244E+02  0.59300517309E+03  0.79398985227E+02 0.  0.
        254    2    1    2    0    0  0.51627187435E+03 -0.27373617838E+03  0.15365833528E+03  0.10886981766E+04  0.90564048727E+03 0.  0.
         23    2    4    4    0    0  0.35996479049E+03 -0.51210407390E+03  0.35795881577E+03  0.72590815910E+03  0.83563800565E+02 0.  0.
         23    2    4    4    0    0  0.15630708387E+03  0.23836789552E+03 -0.20430048049E+03  0.36279001752E+03  0.92880312250E+02 0.  0.
          4    1    3    3  502    0 -0.67763515766E+02  0.60339372375E+02 -0.28772296188E+02  0.95187073469E+02  0.00000000000E+00 0. -1.
         -3    1    3    3    0  502 -0.44850835859E+03  0.21339680600E+03 -0.33539764056E+02  0.49781809962E+03  0.00000000000E+00 0.  1.
         13    1    5    5    0    0  0.16062174230E+03 -0.28167044787E+03  0.21720277699E+03  0.39027507175E+03  0.00000000000E+00 0.  1.
        -13    1    5    5    0    0  0.19934304819E+03 -0.23043362603E+03  0.14075603878E+03  0.33563308735E+03  0.00000000000E+00 0. -1.
          1    1    6    6  503    0  0.55019038379E+02  0.19866299557E+02 -0.32108392493E+02  0.66728654346E+02  0.00000000000E+00 0. -1.
         -1    1    6    6    0  503  0.10128804549E+03  0.21850159596E+03 -0.17219208800E+03  0.29606136318E+03  0.00000000000E+00 0.  1.
<mgrwt>
<rscale>  0 0.16792207E+04</rscale>
<asrwt>0</asrwt>
<pdfrwt beam="1">  1        2 0.13638843E+00 0.16792207E+04</pdfrwt>
<pdfrwt beam="2">  1       -1 0.12233516E+00 0.16792207E+04</pdfrwt>
<totfact> 0.19235619E+01</totfact>
</mgrwt>
</event>
<event>
12    7  0.1611233E-007  0.1508737E+04  0.7818608E-02  0.8878664E-01
         -1   -1    0    0    0  501 -0.00000000000E+00  0.00000000000E+00  0.15480601141E+04  0.15480601141E+04  0.00000000000E+00 0.  1.
          2   -1    0    0  501    0  0.00000000000E+00 -0.00000000000E+00 -0.36760297747E+03  0.36760297747E+03  0.00000000000E+00 0. -1.
         24    2    1    2    0    0  0.81180515082E+02  0.45932999660E+03  0.35843101134E+03  0.59436269016E+03  0.84969969734E+02 0.  0.
        254    2    1    2    0    0 -0.81180515082E+02 -0.45932999660E+03  0.82202612528E+03  0.13213004014E+04  0.92332739497E+03 0.  0.
         23    2    4    4    0    0 -0.18000492852E+03  0.22641633341E+03  0.40600226867E+03  0.50771855367E+03  0.96302425947E+02 0.  0.
         23    2    4    4    0    0  0.98824413437E+02 -0.68574633001E+03  0.41602385661E+03  0.81358184774E+03  0.93942960854E+02 0.  0.
          2    1    3    3  502    0  0.21297492809E+02  0.18344709407E+02  0.12839963587E+02  0.30902689657E+02  0.00000000000E+00 0. -1.
         -1    1    3    3    0  502  0.59883022274E+02  0.44098528719E+03  0.34559104775E+03  0.56346000050E+03  0.00000000000E+00 0.  1.
         13    1    5    5    0    0 -0.75832805431E+02  0.14951032020E+03  0.28413529793E+03  0.32990425544E+03  0.00000000000E+00 0.  1.
        -13    1    5    5    0    0 -0.10417212309E+03  0.76906013213E+02  0.12186697074E+03  0.17781429823E+03  0.00000000000E+00 0. -1.
          3    1    6    6  503    0 -0.13756636836E+02 -0.33003153581E+02  0.31671059954E+02  0.47765146728E+02  0.00000000000E+00 0. -1.
         -3    1    6    6    0  503  0.11258105027E+03 -0.65274317643E+03  0.38435279665E+03  0.76581670101E+03  0.00000000000E+00 0.  1.
<mgrwt>
<rscale>  0 0.15087366E+04</rscale>
<asrwt>0</asrwt>
<pdfrwt beam="1">  1        2 0.56554305E-01 0.15087366E+04</pdfrwt>
<pdfrwt beam="2">  1       -1 0.23816309E+00 0.15087366E+04</pdfrwt>
<totfact> 0.80580171E+00</totfact>
</mgrwt>
</event>
<event>
12    7  0.1611233E-007  0.1631635E+04  0.7818608E-02  0.8801346E-01
          2   -1    0    0  501    0  0.00000000000E+00  0.00000000000E+00  0.74601159806E+03  0.74601159806E+03  0.00000000000E+00 0. -1.
         -1   -1    0    0    0  501 -0.00000000000E+00 -0.00000000000E+00 -0.89215484727E+03  0.89215484727E+03  0.00000000000E+00 0.  1.
         24    2    1    2    0    0  0.16193452985E+03  0.82010061042E+02  0.47963102145E+03  0.51901157522E+03  0.79866491103E+02 0.  0.
        254    2    1    2    0    0 -0.16193452985E+03 -0.82010061042E+02 -0.62577427066E+03  0.11191548701E+04  0.90992622965E+03 0.  0.
         23    2    4    4    0    0 -0.54460521127E+02  0.10810707118E+03  0.20545831658E+03  0.25496056604E+03  0.90214650601E+02 0.  0.
         23    2    4    4    0    0 -0.10747400872E+03 -0.19011713222E+03 -0.83123258724E+03  0.86419430407E+03  0.90493063717E+02 0.  0.
          4    1    3    3  502    0  0.16357515846E+03  0.85942891523E+02  0.48037352335E+03  0.51468605480E+03  0.00000000000E+00 0. -1.
         -3    1    3    3    0  502 -0.16406286044E+01 -0.39328304813E+01 -0.74250190119E+00  0.43255204178E+01  0.00000000000E+00 0.  1.
         13    1    5    5    0    0 -0.56372646561E+02  0.15708689209E+02  0.77155984046E+02  0.96838443147E+02  0.00000000000E+00 0. -1.
        -13    1    5    5    0    0  0.19121254347E+01  0.92398381971E+02  0.12830233254E+03  0.15812212289E+03  0.00000000000E+00 0.  1.
          2    1    6    6  503    0 -0.99670411861E+02 -0.93439082517E+02 -0.41926137125E+03  0.44095935251E+03  0.00000000000E+00 0.  1.
         -2    1    6    6    0  503 -0.78035968642E+01 -0.96678049704E+02 -0.41197121599E+03  0.42323495156E+03  0.00000000000E+00 0. -1.
<mgrwt>
<rscale>  0 0.16316346E+04</rscale>
<asrwt>0</asrwt>
<pdfrwt beam="1">  1        2 0.11477101E+00 0.16316346E+04</pdfrwt>
<pdfrwt beam="2">  1       -1 0.13725459E+00 0.16316346E+04</pdfrwt>
<totfact> 0.18208051E+01</totfact>
</mgrwt>
</event>
<event>
12    7  0.1611233E-007  0.1345710E+04  0.7818608E-02  0.8994082E-01
          2   -1    0    0  501    0  0.00000000000E+00  0.00000000000E+00  0.21825496112E+04  0.21825496112E+04  0.00000000000E+00 0. -1.
         -1   -1    0    0    0  501 -0.00000000000E+00 -0.00000000000E+00 -0.20743344819E+03  0.20743344819E+03  0.00000000000E+00 0.  1.
         24    2    1    2    0    0  0.16079233632E+03 -0.26093255793E+03  0.24862647868E+03  0.40252165701E+03  0.79174385071E+02 0.  0.
        254    2    1    2    0    0 -0.16079233632E+03  0.26093255793E+03  0.17264896844E+04  0.19874614024E+04  0.93557266990E+03 0.  0.
         23    2    4    4    0    0 -0.33214544081E+03  0.21427901445E+03  0.17412811662E+04  0.17878563795E+04  0.90190044283E+02 0.  0.
         23    2    4    4    0    0  0.17135310449E+03  0.46653543485E+02 -0.14791481819E+02  0.19960502293E+03  0.89916281647E+02 0.  0.
          4    1    3    3  502    0  0.67543347028E+02 -0.72375097739E+02  0.12154653785E+03  0.15676038838E+03  0.00000000000E+00 0. -1.
         -3    1    3    3    0  502  0.93248989293E+02 -0.18855746019E+03  0.12707994083E+03  0.24576126864E+03  0.00000000000E+00 0.  1.
         13    1    5    5    0    0 -0.20016912516E+03  0.15831725089E+03  0.12642420739E+04  0.12897441809E+04  0.00000000000E+00 0. -1.
        -13    1    5    5    0    0 -0.13197631565E+03  0.55961763560E+02  0.47703909227E+03  0.49811219863E+03  0.00000000000E+00 0.  1.
          2    1    6    6  503    0  0.17080665495E+03  0.60841494617E+02 -0.33166577056E+01  0.18134938947E+03  0.00000000000E+00 0.  1.
         -2    1    6    6    0  503  0.54644953780E+00 -0.14187951132E+02 -0.11474824114E+02  0.18255633456E+02  0.00000000000E+00 0. -1.
<mgrwt>
<rscale>  0 0.13457099E+04</rscale>
<asrwt>0</asrwt>
<pdfrwt beam="1">  1        2 0.33577685E+00 0.13457099E+04</pdfrwt>
<pdfrwt beam="2">  1       -1 0.31912840E-01 0.13457099E+04</pdfrwt>
<totfact> 0.53874444E+01</totfact>
</mgrwt>
</event>
<event>
12    7  0.1611233E-007  0.1812225E+04  0.7818608E-02  0.8699825E-01
          2   -1    0    0  501    0  0.00000000000E+00  0.00000000000E+00  0.16104087986E+04  0.16104087986E+04  0.00000000000E+00 0. -1.
         -1   -1    0    0    0  501 -0.00000000000E+00 -0.00000000000E+00 -0.50983300017E+03  0.50983300017E+03  0.00000000000E+00 0.  1.
         24    2    1    2    0    0  0.35623591711E+03 -0.26214657503E+03 -0.18984842668E+03  0.48789204464E+03  0.79820841068E+02 0.  0.
        254    2    1    2    0    0 -0.35623591711E+03  0.26214657503E+03  0.12904242251E+04  0.16323497541E+04  0.89651892539E+03 0.  0.
         23    2    4    4    0    0 -0.21649814881E+03  0.16258702221E+03 -0.39010374921E+02  0.28889998515E+03  0.92926873619E+02 0.  0.
         23    2    4    4    0    0 -0.13973776830E+03  0.99559552814E+02  0.13294346000E+04  0.13434497689E+04  0.89566609546E+02 0.  0.
          2    1    3    3  502    0  0.10460212887E+03 -0.41287338285E+02 -0.69012366523E+02  0.13194300436E+03  0.00000000000E+00 0. -1.
         -1    1    3    3    0  502  0.25163378824E+03 -0.22085923674E+03 -0.12083606016E+03  0.35594904027E+03  0.00000000000E+00 0.  1.
         13    1    5    5    0    0 -0.50663821962E+02  0.71823582964E+02 -0.47023033675E+02  0.99682574313E+02  0.00000000000E+00 0. -1.
        -13    1    5    5    0    0 -0.16583432685E+03  0.90763439249E+02  0.80126587542E+01  0.18921741084E+03  0.00000000000E+00 0.  1.
          3    1    6    6  503    0 -0.67810138580E+01 -0.14484529993E+02  0.18464107312E+03  0.18533243009E+03  0.00000000000E+00 0.  1.
         -3    1    6    6    0  503 -0.13295675444E+03  0.11404408281E+03  0.11447935269E+04  0.11581173389E+04  0.00000000000E+00 0. -1.
<mgrwt>
<rscale>  0 0.18122247E+04</rscale>
<asrwt>0</asrwt>
<pdfrwt beam="1">  1        2 0.24775520E+00 0.18122247E+04</pdfrwt>
<pdfrwt beam="2">  1       -1 0.78435847E-01 0.18122247E+04</pdfrwt>
<totfact> 0.19232723E+01</totfact>
</mgrwt>
</event>
<event>
12    7  0.1611233E-007  0.1245476E+04  0.7818608E-02  0.9073957E-01
         -1   -1    0    0    0  501 -0.00000000000E+00  0.00000000000E+00  0.39592880332E+03  0.39592880332E+03  0.00000000000E+00 0.  1.
          2   -1    0    0  501    0  0.00000000000E+00 -0.00000000000E+00 -0.97947559037E+03  0.97947559037E+03  0.00000000000E+00 0. -1.
         24    2    1    2    0    0  0.13009249489E+03 -0.15755379660E+03 -0.36082962005E+03  0.42297345332E+03  0.83434234353E+02 0.  0.
        254    2    1    2    0    0 -0.13009249489E+03  0.15755379660E+03 -0.22271716701E+03  0.95243094037E+03  0.90320236030E+03 0.  0.
         23    2    4    4    0    0 -0.38860389448E+03 -0.21982893280E+03 -0.59182468428E+02  0.45860686312E+03  0.86486668523E+02 0.  0.
         23    2    4    4    0    0  0.25851139959E+03  0.37738272940E+03 -0.16353469858E+03  0.49382407725E+03  0.88728538051E+02 0.  0.
          4    1    3    3  502    0  0.14167100066E+03 -0.15062163195E+03 -0.34445304850E+03  0.40175297269E+03  0.00000000000E+00 0. -1.
         -3    1    3    3    0  502 -0.11578505777E+02 -0.69321646448E+01 -0.16376571546E+02  0.21220480633E+02  0.00000000000E+00 0.  1.
         13    1    5    5    0    0 -0.16976326007E+03 -0.93897915014E+02  0.17350234041E+02  0.19477528985E+03  0.00000000000E+00 0. -1.
        -13    1    5    5    0    0 -0.21884063441E+03 -0.12593101779E+03 -0.76532702469E+02  0.26383157328E+03  0.00000000000E+00 0.  1.
          4    1    6    6  503    0  0.96812140029E+02  0.19100523316E+03 -0.11236297152E+03  0.24182850725E+03  0.00000000000E+00 0. -1.
         -4    1    6    6    0  503  0.16169925956E+03  0.18637749625E+03 -0.51171727056E+02  0.25199557000E+03  0.00000000000E+00 0.  1.
<mgrwt>
<rscale>  0 0.12454760E+04</rscale>
<asrwt>0</asrwt>
<pdfrwt beam="1">  1        2 0.15068855E+00 0.12454760E+04</pdfrwt>
<pdfrwt beam="2">  1       -1 0.60912124E-01 0.12454760E+04</pdfrwt>
<totfact> 0.79674822E+01</totfact>
</mgrwt>
</event>
<event>
12    7  0.1611233E-007  0.2164255E+04  0.7818608E-02  0.8533455E-01
          2   -1    0    0  501    0  0.00000000000E+00  0.00000000000E+00  0.32346498407E+04  0.32346498407E+04  0.00000000000E+00 0. -1.
         -1   -1    0    0    0  501 -0.00000000000E+00 -0.00000000000E+00 -0.36201736518E+03  0.36201736518E+03  0.00000000000E+00 0.  1.
         24    2    1    2    0    0 -0.20442755218E+03 -0.13280727945E+03 -0.24262434786E+03  0.35270078000E+03  0.78120858101E+02 0.  0.
        254    2    1    2    0    0  0.20442755218E+03  0.13280727945E+03  0.31152568234E+04  0.32439664259E+04  0.87124319170E+03 0.  0.
         23    2    4    4    0    0 -0.54782337410E+02  0.21463529951E+03  0.28278133427E+04  0.28379233397E+04  0.90615476558E+02 0.  0.
         23    2    4    4    0    0  0.25920988959E+03 -0.81828020059E+02  0.28744348075E+03  0.40604308625E+03  0.91442011893E+02 0.  0.
          4    1    3    3  502    0 -0.49026597187E+01  0.86292501934E+01 -0.31545981280E+01  0.10414005981E+02  0.00000000000E+00 0. -1.
         -3    1    3    3    0  502 -0.19952489246E+03 -0.14143652964E+03 -0.23946974974E+03  0.34228677402E+03  0.00000000000E+00 0.  1.
         13    1    5    5    0    0 -0.53883577885E+02  0.12857136289E+03  0.12468783121E+04  0.12546471856E+04  0.00000000000E+00 0. -1.
        -13    1    5    5    0    0 -0.89875952509E+00  0.86063936619E+02  0.15809350306E+04  0.15832761540E+04  0.00000000000E+00 0.  1.
          2    1    6    6  503    0  0.24744523495E+03 -0.88525140051E+02  0.23723884639E+03  0.35404535720E+03  0.00000000000E+00 0. -1.
         -2    1    6    6    0  503  0.11764654638E+02  0.66971199921E+01  0.50204634358E+02  0.51997729046E+02  0.00000000000E+00 0.  1.
<mgrwt>
<rscale>  0 0.21642545E+04</rscale>
<asrwt>0</asrwt>
<pdfrwt beam="1">  1        2 0.49763842E+00 0.21642545E+04</pdfrwt>
<pdfrwt beam="2">  1       -1 0.55694981E-01 0.21642545E+04</pdfrwt>
<totfact> 0.41958260E+00</totfact>
</mgrwt>
</event>
<event>
12    7  0.1611233E-007  0.2033948E+04  0.7818608E-02  0.8590912E-01
          2   -1    0    0  501    0  0.00000000000E+00  0.00000000000E+00  0.17604415688E+04  0.17604415688E+04  0.00000000000E+00 0. -1.
         -1   -1    0    0    0  501 -0.00000000000E+00 -0.00000000000E+00 -0.58748652151E+03  0.58748652151E+03  0.00000000000E+00 0.  1.
         24    2    1    2    0    0  0.31616335476E+03  0.64559857161E+03  0.91894618064E+03  0.11694585746E+04  0.80090524769E+02 0.  0.
        254    2    1    2    0    0 -0.31616335476E+03 -0.64559857161E+03  0.25400886666E+03  0.11784695157E+04  0.89861733382E+03 0.  0.
         23    2    4    4    0    0 -0.29531787586E+03 -0.38534782624E+03 -0.28648913744E+03  0.57096745480E+03  0.90676422440E+02 0.  0.
         23    2    4    4    0    0 -0.20845478901E+02 -0.26025074537E+03  0.54049800409E+03  0.60750206094E+03  0.93571775482E+02 0.  0.
          2    1    3    3  502    0  0.30549011395E+03  0.59329243986E+03  0.87425408044E+03  0.10998364997E+04  0.00000000000E+00 0. -1.
         -1    1    3    3    0  502  0.10673240812E+02  0.52306131748E+02  0.44692100203E+02  0.69622074864E+02  0.00000000000E+00 0.  1.
         13    1    5    5    0    0 -0.97748797437E+02 -0.81815846664E+02 -0.10865411816E+03  0.16749441053E+03  0.00000000000E+00 0.  1.
        -13    1    5    5    0    0 -0.19756907842E+03 -0.30353197958E+03 -0.17783501927E+03  0.40347304427E+03  0.00000000000E+00 0. -1.
          4    1    6    6  503    0 -0.34560925993E+02 -0.12839025387E+03  0.35831825917E+03  0.38219169241E+03  0.00000000000E+00 0. -1.
         -4    1    6    6    0  503  0.13715447092E+02 -0.13186049150E+03  0.18217974492E+03  0.22531036853E+03  0.00000000000E+00 0.  1.
<mgrwt>
<rscale>  0 0.20339476E+04</rscale>
<asrwt>0</asrwt>
<pdfrwt beam="1">  1        2 0.27083716E+00 0.20339476E+04</pdfrwt>
<pdfrwt beam="2">  1       -1 0.90382542E-01 0.20339476E+04</pdfrwt>
<totfact> 0.11459815E+01</totfact>
</mgrwt>
</event>
<event>
12    7  0.1611233E-007  0.1830406E+04  0.7818608E-02  0.8690295E-01
          2   -1    0    0  501    0  0.00000000000E+00  0.00000000000E+00  0.12569609746E+04  0.12569609746E+04  0.00000000000E+00 0. -1.
         -1   -1    0    0    0  501 -0.00000000000E+00 -0.00000000000E+00 -0.66636647917E+03  0.66636647917E+03  0.00000000000E+00 0.  1.
         24    2    1    2    0    0 -0.40685681339E+03 -0.44662109359E+02 -0.35651472969E+03  0.54861711527E+03  0.79692007497E+02 0.  0.
        254    2    1    2    0    0  0.40685681339E+03  0.44662109359E+02  0.94710922510E+03  0.13747103385E+04  0.90845223310E+03 0.  0.
         23    2    4    4    0    0 -0.49559514988E+02 -0.34314944229E+03  0.52447149393E+03  0.63518469371E+03  0.90451986759E+02 0.  0.
         23    2    4    4    0    0  0.45641632838E+03  0.38781155165E+03  0.42263773117E+03  0.73952564476E+03  0.97784779244E+02 0.  0.
          2    1    3    3  502    0 -0.43949372955E+02  0.86124544019E+01 -0.14416681578E+02  0.47048511790E+02  0.00000000000E+00 0. -1.
         -1    1    3    3    0  502 -0.36290744044E+03 -0.53274563761E+02 -0.34209804812E+03  0.50156860348E+03  0.00000000000E+00 0.  1.
         13    1    5    5    0    0 -0.19515651931E+02 -0.47324600455E+02  0.14054496657E+03  0.14957729142E+03  0.00000000000E+00 0.  1.
        -13    1    5    5    0    0 -0.30043863057E+02 -0.29582484183E+03  0.38392652736E+03  0.48560740229E+03  0.00000000000E+00 0. -1.
          1    1    6    6  503    0  0.29952638839E+03  0.24982590038E+03  0.33026176839E+03  0.51107912647E+03  0.00000000000E+00 0. -1.
         -1    1    6    6    0  503  0.15688993999E+03  0.13798565126E+03  0.92375962775E+02  0.22844651830E+03  0.00000000000E+00 0.  1.
<mgrwt>
<rscale>  0 0.18304061E+04</rscale>
<asrwt>0</asrwt>
<pdfrwt beam="1">  1        2 0.19337861E+00 0.18304061E+04</pdfrwt>
<pdfrwt beam="2">  1       -1 0.10251792E+00 0.18304061E+04</pdfrwt>
<totfact> 0.16933311E+01</totfact>
</mgrwt>
</event>
<event>
12    7  0.1611233E-007  0.1581217E+04  0.7818608E-02  0.8832171E-01
          2   -1    0    0  501    0  0.00000000000E+00  0.00000000000E+00  0.16100079458E+04  0.16100079458E+04  0.00000000000E+00 0. -1.
         -1   -1    0    0    0  501 -0.00000000000E+00 -0.00000000000E+00 -0.38823505839E+03  0.38823505839E+03  0.00000000000E+00 0.  1.
         24    2    1    2    0    0 -0.40082701570E+03  0.22847300258E+03  0.13530486990E+03  0.48739657010E+03  0.79911196389E+02 0.  0.
        254    2    1    2    0    0  0.40082701570E+03 -0.22847300258E+03  0.10864680175E+04  0.15108464341E+04  0.94307050897E+03 0.  0.
         23    2    4    4    0    0  0.12294559795E+03 -0.35479726083E+03  0.11245841055E+04  0.11888272661E+04  0.87316332821E+02 0.  0.
         23    2    4    4    0    0  0.27788141774E+03  0.12632425825E+03 -0.38116088015E+02  0.32201916794E+03  0.95223987556E+02 0.  0.
          4    1    3    3  502    0 -0.80659220495E+02  0.15017652354E+02  0.38376833570E+02  0.90577155442E+02  0.00000000000E+00 0. -1.
         -3    1    3    3    0  502 -0.32016779520E+03  0.21345535022E+03  0.96928036328E+02  0.39681941466E+03  0.00000000000E+00 0.  1.
         13    1    5    5    0    0 -0.11918261639E+02 -0.16878187555E+02  0.82704604673E+02  0.85246523740E+02  0.00000000000E+00 0. -1.
        -13    1    5    5    0    0  0.13486385959E+03 -0.33791907328E+03  0.10418795009E+04  0.11035807424E+04  0.00000000000E+00 0.  1.
          4    1    6    6  503    0  0.58144353692E+02  0.56661960127E+02  0.21369731953E+02  0.83952421260E+02  0.00000000000E+00 0. -1.
         -4    1    6    6    0  503  0.21973706405E+03  0.69662298124E+02 -0.59485819968E+02  0.23806674668E+03  0.00000000000E+00 0.  1.
<mgrwt>
<rscale>  0 0.15812167E+04</rscale>
<asrwt>0</asrwt>
<pdfrwt beam="1">  1        2 0.24769353E+00 0.15812167E+04</pdfrwt>
<pdfrwt beam="2">  1       -1 0.59728471E-01 0.15812167E+04</pdfrwt>
<totfact> 0.34229594E+01</totfact>
</mgrwt>
</event>
<event>
12    7  0.1611233E-007  0.1569094E+04  0.7818608E-02  0.8839763E-01
          2   -1    0    0  501    0  0.00000000000E+00  0.00000000000E+00  0.15732151889E+04  0.15732151889E+04  0.00000000000E+00 0. -1.
         -1   -1    0    0    0  501 -0.00000000000E+00 -0.00000000000E+00 -0.39124600612E+03  0.39124600612E+03  0.00000000000E+00 0.  1.
         24    2    1    2    0    0 -0.18686722234E+02  0.28783874109E+02  0.10568374560E+04  0.10604294347E+04  0.80171519723E+02 0.  0.
        254    2    1    2    0    0  0.18686722234E+02 -0.28783874109E+02  0.12513172676E+03  0.90403176030E+03  0.89467187818E+03 0.  0.
         23    2    4    4    0    0 -0.23275862328E+03  0.15284867070E+03  0.39034045376E+03  0.48611343344E+03  0.80008171373E+02 0.  0.
         23    2    4    4    0    0  0.25144534552E+03 -0.18163254481E+03 -0.26520872700E+03  0.41791832686E+03  0.90027306587E+02 0.  0.
          4    1    3    3  502    0 -0.10786183145E+02  0.16637522228E+02  0.10276689511E+04  0.10278602152E+04  0.00000000000E+00 0. -1.
         -3    1    3    3    0  502 -0.79005390896E+01  0.12146351881E+02  0.29168504881E+02  0.32569219501E+02  0.00000000000E+00 0.  1.
         13    1    5    5    0    0 -0.76499639799E+02  0.12255250660E+02  0.13206132146E+03  0.15310969493E+03  0.00000000000E+00 0.  1.
        -13    1    5    5    0    0 -0.15625898348E+03  0.14059342004E+03  0.25827913230E+03  0.33300373851E+03  0.00000000000E+00 0. -1.
          4    1    6    6  503    0  0.24056804375E+03 -0.16436481004E+03 -0.21025994960E+03  0.35930213033E+03  0.00000000000E+00 0. -1.
         -4    1    6    6    0  503  0.10877301763E+02 -0.17267734775E+02 -0.54948777399E+02  0.58616196529E+02  0.00000000000E+00 0.  1.
<mgrwt>
<rscale>  0 0.15690942E+04</rscale>
<asrwt>0</asrwt>
<pdfrwt beam="1">  1        2 0.24203310E+00 0.15690942E+04</pdfrwt>
<pdfrwt beam="2">  1       -1 0.60191694E-01 0.15690942E+04</pdfrwt>
<totfact> 0.35382400E+01</totfact>
</mgrwt>
</event>
<event>
12    7  0.1611233E-007  0.1464871E+04  0.7818608E-02  0.8908155E-01
         -1   -1    0    0    0  501 -0.00000000000E+00  0.00000000000E+00  0.37375688630E+03  0.37375688630E+03  0.00000000000E+00 0.  1.
          2   -1    0    0  501    0  0.00000000000E+00 -0.00000000000E+00 -0.14353233295E+04  0.14353233295E+04  0.00000000000E+00 0. -1.
         24    2    1    2    0    0 -0.33587418828E+03  0.26143511849E+03 -0.50675331691E+03  0.66637147100E+03  0.78052684931E+02 0.  0.
        254    2    1    2    0    0  0.33587418828E+03 -0.26143511849E+03 -0.55481312632E+03  0.11427087448E+04  0.90377313462E+03 0.  0.
         23    2    4    4    0    0  0.15557011474E+03  0.27349945619E+02 -0.72770308820E+03  0.75017058927E+03  0.90851793090E+02 0.  0.
         23    2    4    4    0    0  0.18030407354E+03 -0.28878506411E+03  0.17288996188E+03  0.39253815556E+03  0.91043354876E+02 0.  0.
          2    1    3    3  502    0 -0.12821624548E+03  0.74731091405E+02 -0.12918006081E+03  0.19675271215E+03  0.00000000000E+00 0. -1.
         -1    1    3    3    0  502 -0.20765794280E+03  0.18670402709E+03 -0.37757325610E+03  0.46961875885E+03  0.00000000000E+00 0.  1.
         13    1    5    5    0    0  0.43257308203E+02 -0.10537927514E+02 -0.38463350824E+03  0.38720172816E+03  0.00000000000E+00 0. -1.
        -13    1    5    5    0    0  0.11231280654E+03  0.37887873133E+02 -0.34306957996E+03  0.36296886111E+03  0.00000000000E+00 0.  1.
          3    1    6    6  503    0  0.14650308360E+03 -0.18180615993E+03  0.15148096796E+03  0.27832196634E+03  0.00000000000E+00 0. -1.
         -3    1    6    6    0  503  0.33800989941E+02 -0.10697890418E+03  0.21408993916E+02  0.11421618922E+03  0.00000000000E+00 0.  1.
<mgrwt>
<rscale>  0 0.14648713E+04</rscale>
<asrwt>0</asrwt>
<pdfrwt beam="1">  1        2 0.22081898E+00 0.14648713E+04</pdfrwt>
<pdfrwt beam="2">  1       -1 0.57501059E-01 0.14648713E+04</pdfrwt>
<totfact> 0.46708855E+01</totfact>
</mgrwt>
</event>
<event>
12    7  0.1611233E-007  0.1952309E+04  0.7818608E-02  0.8629248E-01
         -1   -1    0    0    0  501 -0.00000000000E+00  0.00000000000E+00  0.38043418836E+03  0.38043418836E+03  0.00000000000E+00 0.  1.
          2   -1    0    0  501    0  0.00000000000E+00 -0.00000000000E+00 -0.25047119599E+04  0.25047119599E+04  0.00000000000E+00 0. -1.
         24    2    1    2    0    0 -0.21037009621E+02  0.50381357064E+02  0.29161610445E+03  0.30759240918E+03  0.81192985504E+02 0.  0.
        254    2    1    2    0    0  0.21037009621E+02 -0.50381357064E+02 -0.24158938760E+04  0.25775537391E+04  0.89680500719E+03 0.  0.
         23    2    4    4    0    0  0.11054906004E+03 -0.30952990524E+03 -0.33901319074E+03  0.48060863184E+03  0.89581563901E+02 0.  0.
         23    2    4    4    0    0 -0.89512050423E+02  0.25914854817E+03 -0.20768806853E+04  0.20969451073E+04  0.92601430058E+02 0.  0.
          2    1    3    3  502    0 -0.21612438324E+02 -0.15360446103E+02  0.43769730592E+02  0.51174506455E+02  0.00000000000E+00 0. -1.
         -1    1    3    3    0  502  0.57542870311E+00  0.65741803166E+02  0.24784637386E+03  0.25641790272E+03  0.00000000000E+00 0.  1.
         13    1    5    5    0    0  0.90762349397E+02 -0.27505735932E+03 -0.24806292413E+03  0.38135229030E+03  0.00000000000E+00 0. -1.
        -13    1    5    5    0    0  0.19786710647E+02 -0.34472545911E+02 -0.90950266613E+02  0.99256341544E+02  0.00000000000E+00 0.  1.
          1    1    6    6  503    0 -0.98760115002E+02  0.15765023906E+03 -0.14386928101E+04  0.14506702451E+04  0.00000000000E+00 0. -1.
         -1    1    6    6    0  503  0.92480645785E+01  0.10149830911E+03 -0.63818787513E+03  0.64627486213E+03  0.00000000000E+00 0.  1.
<mgrwt>
<rscale>  0 0.19523095E+04</rscale>
<asrwt>0</asrwt>
<pdfrwt beam="1">  1        2 0.38534030E+00 0.19523095E+04</pdfrwt>
<pdfrwt beam="2">  1       -1 0.58528337E-01 0.19523095E+04</pdfrwt>
<totfact> 0.10872536E+01</totfact>
</mgrwt>
</event>
<event>
12    7  0.1611233E-007  0.2355717E+04  0.7818608E-02  0.8456271E-01
          2   -1    0    0  501    0  0.00000000000E+00  0.00000000000E+00  0.22891659825E+04  0.22891659825E+04  0.00000000000E+00 0. -1.
         -1   -1    0    0    0  501 -0.00000000000E+00 -0.00000000000E+00 -0.60605063233E+03  0.60605063233E+03  0.00000000000E+00 0.  1.
         24    2    1    2    0    0  0.94298414124E+03 -0.28893372536E+03  0.91377952496E+03  0.13465419195E+04  0.74029267616E+02 0.  0.
        254    2    1    2    0    0 -0.94298414124E+03  0.28893372536E+03  0.76933582516E+03  0.15486746953E+04  0.91313411481E+03 0.  0.
         23    2    4    4    0    0 -0.97437389451E+03  0.50313969378E+03  0.56296743403E+03  0.12356654180E+04  0.85922381670E+02 0.  0.
         23    2    4    4    0    0  0.31389753266E+02 -0.21420596843E+03  0.20636839113E+03  0.31300927729E+03  0.92289659718E+02 0.  0.
          4    1    3    3  502    0  0.70753625995E+03 -0.23600116012E+03  0.72491322504E+03  0.10400977313E+04  0.00000000000E+00 0. -1.
         -3    1    3    3    0  502  0.23544788129E+03 -0.52932565240E+02  0.18886629992E+03  0.30644418825E+03  0.00000000000E+00 0.  1.
         13    1    5    5    0    0 -0.82815848816E+03  0.42869963268E+03  0.51204835119E+03  0.10638718769E+04  0.00000000000E+00 0.  1.
        -13    1    5    5    0    0 -0.14621540635E+03  0.74440061107E+02  0.50919082837E+02  0.17179354105E+03  0.00000000000E+00 0. -1.
          4    1    6    6  503    0  0.82652766637E+01 -0.13303167977E+03  0.18118122633E+03  0.22492749808E+03  0.00000000000E+00 0. -1.
         -4    1    6    6    0  503  0.23124476602E+02 -0.81174288656E+02  0.25187164803E+02  0.88081779204E+02  0.00000000000E+00 0.  1.
<mgrwt>
<rscale>  0 0.23557169E+04</rscale>
<asrwt>0</asrwt>
<pdfrwt beam="1">  1        2 0.35217938E+00 0.23557169E+04</pdfrwt>
<pdfrwt beam="2">  1       -1 0.93238560E-01 0.23557169E+04</pdfrwt>
<totfact> 0.52716677E+00</totfact>
</mgrwt>
</event>
<event>
12    7  0.1611233E-007  0.1495248E+04  0.7818608E-02  0.8887619E-01
          2   -1    0    0  501    0  0.00000000000E+00  0.00000000000E+00  0.18064965996E+04  0.18064965996E+04  0.00000000000E+00 0. -1.
         -1   -1    0    0    0  501 -0.00000000000E+00 -0.00000000000E+00 -0.30940655164E+03  0.30940655164E+03  0.00000000000E+00 0.  1.
         24    2    1    2    0    0 -0.16280919090E+03  0.44597968922E+03  0.54229969697E+03  0.72526488271E+03  0.80718479466E+02 0.  0.
        254    2    1    2    0    0  0.16280919090E+03 -0.44597968922E+03  0.95479035095E+03  0.13906382685E+04  0.89266200976E+03 0.  0.
         23    2    4    4    0    0 -0.36021369559E+02  0.84418219669E+02  0.78182390480E+03  0.79145188017E+03  0.81996863581E+02 0.  0.
         23    2    4    4    0    0  0.19883056046E+03 -0.53039790889E+03  0.17296644616E+03  0.59918638832E+03  0.90837233148E+02 0.  0.
          2    1    3    3  502    0 -0.38376567381E+02  0.88216243662E+02  0.16264695226E+03  0.18896798049E+03  0.00000000000E+00 0. -1.
         -1    1    3    3    0  502 -0.12443262352E+03  0.35776344556E+03  0.37965274471E+03  0.53629690223E+03  0.00000000000E+00 0.  1.
         13    1    5    5    0    0 -0.31621664663E+02  0.55309169990E+02  0.22488767201E+03  0.23373809913E+03  0.00000000000E+00 0.  1.
        -13    1    5    5    0    0 -0.43997048959E+01  0.29109049679E+02  0.55693623278E+03  0.55771378104E+03  0.00000000000E+00 0. -1.
          4    1    6    6  503    0 -0.86201529731E+01 -0.10440479907E+02  0.72587720049E+01  0.15362305458E+02  0.00000000000E+00 0.  1.
         -4    1    6    6    0  503  0.20745071343E+03 -0.51995742898E+03  0.16570767415E+03  0.58382408286E+03  0.00000000000E+00 0. -1.
<mgrwt>
<rscale>  0 0.14952483E+04</rscale>
<asrwt>0</asrwt>
<pdfrwt beam="1">  1        2 0.27792255E+00 0.14952483E+04</pdfrwt>
<pdfrwt beam="2">  1       -1 0.47601009E-01 0.14952483E+04</pdfrwt>
<totfact> 0.41520683E+01</totfact>
</mgrwt>
</event>
<event>
12    7  0.1611233E-007  0.2595866E+04  0.7818608E-02  0.8369607E-01
          2   -1    0    0  501    0  0.00000000000E+00  0.00000000000E+00  0.23588972706E+04  0.23588972706E+04  0.00000000000E+00 0. -1.
         -1   -1    0    0    0  501 -0.00000000000E+00 -0.00000000000E+00 -0.71416025841E+03  0.71416025841E+03  0.00000000000E+00 0.  1.
         24    2    1    2    0    0 -0.19883715879E+03 -0.62472433263E+03  0.18198011585E+04  0.19359173273E+04  0.79264962057E+02 0.  0.
        254    2    1    2    0    0  0.19883715879E+03  0.62472433263E+03 -0.17506414631E+03  0.11371402017E+04  0.91248215077E+03 0.  0.
         23    2    4    4    0    0  0.49842207561E+03  0.54388636094E+03  0.46838769463E+02  0.74467206564E+03  0.90031527524E+02 0.  0.
         23    2    4    4    0    0 -0.29958491681E+03  0.80837971693E+02 -0.22190291577E+03  0.39246813606E+03  0.92219486770E+02 0.  0.
          4    1    3    3  502    0 -0.18198621970E+03 -0.61360123747E+03  0.17561922955E+04  0.18691807942E+04  0.00000000000E+00 0. -1.
         -3    1    3    3    0  502 -0.16850939087E+02 -0.11123095157E+02  0.63608862962E+02  0.66736533033E+02  0.00000000000E+00 0.  1.
         13    1    5    5    0    0  0.32089314798E+03  0.30372070428E+03 -0.32284967391E+01  0.44184737390E+03  0.00000000000E+00 0.  1.
        -13    1    5    5    0    0  0.17752892763E+03  0.24016565666E+03  0.50067266202E+02  0.30282469174E+03  0.00000000000E+00 0. -1.
          2    1    6    6  503    0 -0.39782996369E+02 -0.20600350301E+02 -0.29634312365E+02  0.53714557635E+02  0.00000000000E+00 0. -1.
         -2    1    6    6    0  503 -0.25980192045E+03  0.10143832199E+03 -0.19226860341E+03  0.33875357842E+03  0.00000000000E+00 0.  1.
<mgrwt>
<rscale>  0 0.25958665E+04</rscale>
<asrwt>0</asrwt>
<pdfrwt beam="1">  1        2 0.36290727E+00 0.25958665E+04</pdfrwt>
<pdfrwt beam="2">  1       -1 0.10987081E+00 0.25958665E+04</pdfrwt>
<totfact> 0.32315568E+00</totfact>
</mgrwt>
</event>
<event>
12    7  0.1611233E-007  0.1653517E+04  0.7818608E-02  0.8788329E-01
         -3   -1    0    0    0  501 -0.00000000000E+00  0.00000000000E+00  0.11235856561E+04  0.11235856561E+04  0.00000000000E+00 0.  1.
          4   -1    0    0  501    0  0.00000000000E+00 -0.00000000000E+00 -0.60834657986E+03  0.60834657986E+03  0.00000000000E+00 0. -1.
         24    2    1    2    0    0 -0.54378725769E+03  0.16929705766E+03  0.16813757036E+03  0.59863023397E+03  0.75642839032E+02 0.  0.
        254    2    1    2    0    0  0.54378725769E+03 -0.16929705766E+03  0.34710150583E+03  0.11333020020E+04  0.91625754945E+03 0.  0.
         23    2    4    4    0    0 -0.21186299630E+03 -0.18244915737E+03 -0.65731377448E+01  0.29383738242E+03  0.90130887825E+02 0.  0.
         23    2    4    4    0    0  0.75565025399E+03  0.13152099704E+02  0.35367464358E+03  0.83946461954E+03  0.91841220971E+02 0.  0.
          4    1    3    3  502    0 -0.45475615362E+03  0.15104289534E+03  0.16789769656E+03  0.50774674002E+03  0.00000000000E+00 0. -1.
         -3    1    3    3    0  502 -0.89031104068E+02  0.18254162320E+02  0.23987380862E+00  0.90883493953E+02  0.00000000000E+00 0.  1.
         13    1    5    5    0    0 -0.15628528965E+02  0.52654965663E+01 -0.14791470967E+02  0.22153193563E+02  0.00000000000E+00 0.  1.
        -13    1    5    5    0    0 -0.19623446734E+03 -0.18771465393E+03  0.82183332222E+01  0.27168418885E+03  0.00000000000E+00 0. -1.
          4    1    6    6  503    0  0.32888295035E+03  0.51281664915E+02  0.15427861931E+03  0.36687286158E+03  0.00000000000E+00 0. -1.
         -4    1    6    6    0  503  0.42676730363E+03 -0.38129565211E+02  0.19939602427E+03  0.47259175796E+03  0.00000000000E+00 0.  1.
<mgrwt>
<rscale>  0 0.16535168E+04</rscale>
<asrwt>0</asrwt>
<pdfrwt beam="1">  1        4 0.93591781E-01 0.16535168E+04</pdfrwt>
<pdfrwt beam="2">  1       -3 0.17285933E+00 0.16535168E+04</pdfrwt>
<totfact> 0.46660581E-01</totfact>
</mgrwt>
</event>
<event>
12    7  0.1611233E-007  0.1223076E+04  0.7818608E-02  0.9092895E-01
         -1   -1    0    0    0  501 -0.00000000000E+00  0.00000000000E+00  0.94484174160E+03  0.94484174160E+03  0.00000000000E+00 0.  1.
          2   -1    0    0  501    0  0.00000000000E+00 -0.00000000000E+00 -0.39581079960E+03  0.39581079960E+03  0.00000000000E+00 0. -1.
         24    2    1    2    0    0 -0.97039622039E+02  0.11170068781E+03  0.37986990857E+03  0.41587794356E+03  0.82216692979E+02 0.  0.
        254    2    1    2    0    0  0.97039622039E+02 -0.11170068781E+03  0.16916103343E+03  0.92477459763E+03  0.89705009297E+03 0.  0.
         23    2    4    4    0    0  0.21198511433E+03 -0.46955185797E+03  0.88193580228E+02  0.53036415614E+03  0.89952178993E+02 0.  0.
         23    2    4    4    0    0 -0.11494549229E+03  0.35785117015E+03  0.80967453203E+02  0.39441044150E+03  0.87942832022E+02 0.  0.
          4    1    3    3  502    0 -0.47384402377E+02  0.53732873795E+02  0.84388728119E+02  0.11069760950E+03  0.00000000000E+00 0. -1.
         -1    1    3    3    0  502 -0.49655219662E+02  0.57967814017E+02  0.29548118045E+03  0.30518033406E+03  0.00000000000E+00 0.  1.
         13    1    5    5    0    0  0.67825764700E+02 -0.84074611513E+02  0.43275901963E+02  0.11636871723E+03  0.00000000000E+00 0. -1.
        -13    1    5    5    0    0  0.14415934963E+03 -0.38547724645E+03  0.44917678265E+02  0.41399543891E+03  0.00000000000E+00 0.  1.
          3    1    6    6  503    0 -0.55650869750E+02  0.10659459101E+03 -0.10075437385E+02  0.12066872243E+03  0.00000000000E+00 0. -1.
         -3    1    6    6    0  503 -0.59294622540E+02  0.25125657915E+03  0.91042890588E+02  0.27374171906E+03  0.00000000000E+00 0.  1.
<mgrwt>
<rscale>  0 0.12230757E+04</rscale>
<asrwt>0</asrwt>
<pdfrwt beam="1">  1        2 0.60893969E-01 0.12230757E+04</pdfrwt>
<pdfrwt beam="2">  1       -1 0.14536027E+00 0.12230757E+04</pdfrwt>
<totfact> 0.34448138E+01</totfact>
</mgrwt>
</event>
<event>
12    7  0.1611233E-007  0.2547852E+04  0.7818608E-02  0.8386134E-01
          2   -1    0    0  501    0  0.00000000000E+00  0.00000000000E+00  0.13154619110E+04  0.13154619110E+04  0.00000000000E+00 0. -1.
         -1   -1    0    0    0  501 -0.00000000000E+00 -0.00000000000E+00 -0.12337018786E+04  0.12337018786E+04  0.00000000000E+00 0.  1.
         24    2    1    2    0    0  0.74324628745E+03 -0.35683470375E+03 -0.70020998273E+03  0.10847439514E+04  0.81420946726E+02 0.  0.
        254    2    1    2    0    0 -0.74324628745E+03  0.35683470375E+03  0.78197001511E+03  0.14644198382E+04  0.92374363784E+03 0.  0.
         23    2    4    4    0    0 -0.65842959134E+03  0.62896381016E+03  0.46038062033E+03  0.10250730508E+04  0.98485748520E+02 0.  0.
         23    2    4    4    0    0 -0.84816696113E+02 -0.27212910641E+03  0.32158939479E+03  0.43934678743E+03  0.91420666674E+02 0.  0.
          2    1    3    3  502    0  0.13348295548E+03 -0.95700468230E+02 -0.15967477297E+03  0.22906835693E+03  0.00000000000E+00 0. -1.
         -1    1    3    3    0  502  0.60976333197E+03 -0.26113423552E+03 -0.54053520976E+03  0.85567559447E+03  0.00000000000E+00 0.  1.
         13    1    5    5    0    0 -0.51398963032E+03  0.50157808907E+03  0.40585855863E+03  0.82491641341E+03  0.00000000000E+00 0. -1.
        -13    1    5    5    0    0 -0.14443996102E+03  0.12738572109E+03  0.54522061699E+02  0.20015663739E+03  0.00000000000E+00 0.  1.
          1    1    6    6  503    0  0.47724833833E+01 -0.13720657849E+03  0.15306577093E+03  0.20561505784E+03  0.00000000000E+00 0. -1.
         -1    1    6    6    0  503 -0.89589179497E+02 -0.13492252791E+03  0.16852362385E+03  0.23373172959E+03  0.00000000000E+00 0.  1.
<mgrwt>
<rscale>  0 0.25478523E+04</rscale>
<asrwt>0</asrwt>
<pdfrwt beam="1">  1        2 0.20237876E+00 0.25478523E+04</pdfrwt>
<pdfrwt beam="2">  1       -1 0.18980029E+00 0.25478523E+04</pdfrwt>
<totfact> 0.29054495E+00</totfact>
</mgrwt>
</event>
<event>
12    7  0.1611233E-007  0.1205368E+04  0.7818608E-02  0.9108171E-01
          2   -1    0    0  501    0  0.00000000000E+00  0.00000000000E+00  0.13023582407E+04  0.13023582407E+04  0.00000000000E+00 0. -1.
         -1   -1    0    0    0  501 -0.00000000000E+00 -0.00000000000E+00 -0.27890022297E+03  0.27890022297E+03  0.00000000000E+00 0.  1.
         24    2    1    2    0    0  0.17661581288E+03  0.15443202007E+03  0.73764141188E+02  0.25863203967E+03  0.80043670814E+02 0.  0.
        254    2    1    2    0    0 -0.17661581288E+03 -0.15443202007E+03  0.94969387650E+03  0.13226264239E+04  0.89015717943E+03 0.  0.
         23    2    4    4    0    0 -0.23908793974E+03  0.12993182979E+02  0.10621753580E+04  0.10927367042E+04  0.92331727473E+02 0.  0.
         23    2    4    4    0    0  0.62472126858E+02 -0.16742520305E+03 -0.11248148151E+03  0.22988971972E+03  0.90902333843E+02 0.  0.
          4    1    3    3  502    0  0.49008615931E+02  0.70199288083E+02  0.61153330527E+02  0.10521175941E+03  0.00000000000E+00 0. -1.
         -3    1    3    3    0  502  0.12760719695E+03  0.84232731990E+02  0.12610810661E+02  0.15342028027E+03  0.00000000000E+00 0.  1.
         13    1    5    5    0    0 -0.24540326376E+03  0.10506078725E+02  0.98120163099E+03  0.10114790063E+04  0.00000000000E+00 0. -1.
        -13    1    5    5    0    0  0.63153240206E+01  0.24871042539E+01  0.80973727009E+02  0.81257697917E+02  0.00000000000E+00 0.  1.
          4    1    6    6  503    0  0.66735540313E+02 -0.17354086801E+03 -0.11835046489E+03  0.22040167365E+03  0.00000000000E+00 0. -1.
         -4    1    6    6    0  503 -0.42634134550E+01  0.61156649565E+01  0.58689833819E+01  0.94880460626E+01  0.00000000000E+00 0.  1.
<mgrwt>
<rscale>  0 0.12053680E+04</rscale>
<asrwt>0</asrwt>
<pdfrwt beam="1">  1        2 0.20036280E+00 0.12053680E+04</pdfrwt>
<pdfrwt beam="2">  1       -1 0.42907727E-01 0.12053680E+04</pdfrwt>
<totfact> 0.99097245E+01</totfact>
</mgrwt>
</event>
<event>
12    7  0.1611233E-007  0.2864078E+04  0.7818608E-02  0.8283646E-01
         -1   -1    0    0    0  501 -0.00000000000E+00  0.00000000000E+00  0.94575788699E+03  0.94575788699E+03  0.00000000000E+00 0.  1.
          2   -1    0    0  501    0  0.00000000000E+00 -0.00000000000E+00 -0.21683511563E+04  0.21683511563E+04  0.00000000000E+00 0. -1.
         24    2    1    2    0    0 -0.90032773731E+03  0.91322945319E+03 -0.68780959260E+03  0.14574993360E+04  0.81512024472E+02 0.  0.
        254    2    1    2    0    0  0.90032773731E+03 -0.91322945319E+03 -0.53478367666E+03  0.16566097072E+04  0.90209981292E+03 0.  0.
         23    2    4    4    0    0  0.86910490039E+03 -0.72173971095E+03 -0.74517133464E+03  0.13565675058E+04  0.93506906758E+02 0.  0.
         23    2    4    4    0    0  0.31222836918E+02 -0.19148974224E+03  0.21038765798E+03  0.30004220140E+03  0.90106431872E+02 0.  0.
          2    1    3    3  502    0 -0.84775684941E+03  0.84139098862E+03 -0.65770561030E+03  0.13635274626E+04  0.00000000000E+00 0. -1.
         -1    1    3    3    0  502 -0.52570887896E+02  0.71838464570E+02 -0.30103982298E+02  0.93971873431E+02  0.00000000000E+00 0.  1.
         13    1    5    5    0    0  0.32949712229E+03 -0.29539042188E+03 -0.34305019120E+03  0.55991721586E+03  0.00000000000E+00 0. -1.
        -13    1    5    5    0    0  0.53960777810E+03 -0.42634928908E+03 -0.40212114344E+03  0.79665028996E+03  0.00000000000E+00 0.  1.
          3    1    6    6  503    0 -0.45069404984E+01 -0.17350699062E+03  0.17752113668E+03  0.24827150919E+03  0.00000000000E+00 0. -1.
         -3    1    6    6    0  503  0.35729777416E+02 -0.17982751619E+02  0.32866521296E+02  0.51770692212E+02  0.00000000000E+00 0.  1.
<mgrwt>
<rscale>  0 0.28640777E+04</rscale>
<asrwt>0</asrwt>
<pdfrwt beam="1">  1        2 0.33359248E+00 0.28640777E+04</pdfrwt>
<pdfrwt beam="2">  1       -1 0.14550121E+00 0.28640777E+04</pdfrwt>
<totfact> 0.20048453E+00</totfact>
</mgrwt>
</event>
<event>
12    7  0.2080626E-007  0.1846602E+04  0.7818608E-02  0.8681902E-01
         -1   -1    0    0    0  501 -0.00000000000E+00  0.00000000000E+00  0.53460657564E+03  0.53460657564E+03  0.00000000000E+00 0.  1.
          2   -1    0    0  501    0  0.00000000000E+00 -0.00000000000E+00 -0.15946021867E+04  0.15946021867E+04  0.00000000000E+00 0. -1.
         24    2    1    2    0    0 -0.16725501789E+03  0.93689330342E+02 -0.11822527778E+04  0.12002628088E+04  0.78468134089E+02 0.  0.
        254    2    1    2    0    0  0.16725501789E+03 -0.93689330342E+02  0.12225716672E+03  0.92894595352E+03  0.90068964584E+03 0.  0.
         23    2    4    4    0    0  0.21324279012E+03  0.24101398456E+03 -0.25051947190E+03  0.41789378488E+03  0.91186519546E+02 0.  0.
         23    2    4    4    0    0 -0.45987772232E+02 -0.33470331490E+03  0.37277663862E+03  0.51105216864E+03  0.89837144724E+02 0.  0.
          2    1    3    3  502    0 -0.16870964501E+03  0.70006232796E+02 -0.10100582466E+04  0.10264411714E+04  0.00000000000E+00 0. -1.
         -1    1    3    3    0  502  0.14546271181E+01  0.23683097546E+02 -0.17219453118E+03  0.17382163737E+03  0.00000000000E+00 0.  1.
         13    1    5    5    0    0  0.96872867865E+02  0.46526459671E+02 -0.89824242335E+02  0.14006233787E+03  0.00000000000E+00 0. -1.
        -13    1    5    5    0    0  0.11636992226E+03  0.19448752489E+03 -0.16069522956E+03  0.27783144701E+03  0.00000000000E+00 0.  1.
          3    1    6    6  503    0 -0.28449300733E+02 -0.22198796071E+03  0.30520827215E+03  0.37847074762E+03  0.00000000000E+00 0. -1.
         -3    1    6    6    0  503 -0.17538471499E+02 -0.11271535420E+03  0.67568366463E+02  0.13258142102E+03  0.00000000000E+00 0.  1.
<mgrwt>
<rscale>  0 0.18466021E+04</rscale>
<asrwt>0</asrwt>
<pdfrwt beam="1">  1        2 0.24532341E+00 0.18466021E+04</pdfrwt>
<pdfrwt beam="2">  1       -1 0.82247166E-01 0.18466021E+04</pdfrwt>
<totfact> 0.17688732E+01</totfact>
</mgrwt>
</event>
<event>
12    7  0.1611233E-007  0.2305972E+04  0.7818608E-02  0.8475570E-01
         -1   -1    0    0    0  501 -0.00000000000E+00  0.00000000000E+00  0.89314067514E+03  0.89314067514E+03  0.00000000000E+00 0.  1.
          2   -1    0    0  501    0  0.00000000000E+00 -0.00000000000E+00 -0.14884295203E+04  0.14884295203E+04  0.00000000000E+00 0. -1.
         24    2    1    2    0    0 -0.76180038355E+03  0.21749517764E+03  0.38865357987E+03  0.88620121615E+03  0.81590524455E+02 0.  0.
        254    2    1    2    0    0  0.76180038355E+03 -0.21749517764E+03 -0.98394242500E+03  0.14953689793E+04  0.80021354133E+03 0.  0.
         23    2    4    4    0    0  0.25570751358E+03 -0.92969268400E+02 -0.91932726274E+03  0.96312816676E+03  0.91780347671E+02 0.  0.
         23    2    4    4    0    0  0.50609286997E+03 -0.12452590924E+03 -0.64615162252E+02  0.53224081249E+03  0.86420299617E+02 0.  0.
          2    1    3    3  502    0  0.17158678840E+01  0.28239434971E+00 -0.89719081668E+00  0.19567576564E+01  0.00000000000E+00 0. -1.
         -1    1    3    3    0  502 -0.76351625143E+03  0.21721278329E+03  0.38955077069E+03  0.88424445849E+03  0.00000000000E+00 0.  1.
         13    1    5    5    0    0  0.11562426455E+03 -0.46813906209E+02 -0.57783506684E+03  0.59114623980E+03  0.00000000000E+00 0. -1.
        -13    1    5    5    0    0  0.14008324904E+03 -0.46155362191E+02 -0.34149219591E+03  0.37198192696E+03  0.00000000000E+00 0.  1.
          4    1    6    6  503    0  0.17383986694E+03 -0.54248247403E+02 -0.62799891937E+02  0.19263176818E+03  0.00000000000E+00 0. -1.
         -4    1    6    6    0  503  0.33225300303E+03 -0.70277661835E+02 -0.18152703150E+01  0.33960904431E+03  0.00000000000E+00 0.  1.
<mgrwt>
<rscale>  0 0.23059722E+04</rscale>
<asrwt>0</asrwt>
<pdfrwt beam="1">  1        2 0.22898915E+00 0.23059722E+04</pdfrwt>
<pdfrwt beam="2">  1       -1 0.13740626E+00 0.23059722E+04</pdfrwt>
<totfact> 0.58549314E+00</totfact>
</mgrwt>
</event>
<event>
12    7  0.1611233E-007  0.1128728E+04  0.7818608E-02  0.9177636E-01
         -3   -1    0    0    0  501 -0.00000000000E+00  0.00000000000E+00  0.12211970101E+04  0.12211970101E+04  0.00000000000E+00 0.  1.
          4   -1    0    0  501    0  0.00000000000E+00 -0.00000000000E+00 -0.26081504464E+03  0.26081504464E+03  0.00000000000E+00 0. -1.
         24    2    1    2    0    0 -0.96566699020E+02 -0.68198842373E+02 -0.20728412415E+02  0.14468758613E+03  0.80799882658E+02 0.  0.
        254    2    1    2    0    0  0.96566699020E+02  0.68198842373E+02  0.98111037793E+03  0.13373244687E+04  0.90104547684E+03 0.  0.
         23    2    4    4    0    0 -0.28472112640E+03 -0.25073124749E+03  0.32024463832E+03  0.50516846767E+03  0.93307417011E+02 0.  0.
         23    2    4    4    0    0  0.38128782542E+03  0.31893008986E+03  0.66086573961E+03  0.83215600098E+03  0.92969221538E+02 0.  0.
          4    1    3    3  502    0 -0.98309068824E+02 -0.57766033140E+02 -0.41529308944E+02  0.12135184835E+03  0.00000000000E+00 0. -1.
         -3    1    3    3    0  502  0.17423698040E+01 -0.10432809234E+02  0.20800896528E+02  0.23335737773E+02  0.00000000000E+00 0.  1.
         13    1    5    5    0    0 -0.31416612201E+02 -0.53939635482E+02  0.93231376184E+02  0.11219882933E+03  0.00000000000E+00 0. -1.
        -13    1    5    5    0    0 -0.25330451420E+03 -0.19679161200E+03  0.22701326214E+03  0.39296963834E+03  0.00000000000E+00 0.  1.
          1    1    6    6  503    0  0.31612190836E+02  0.19051243558E+02  0.98613027359E+02  0.10529392032E+03  0.00000000000E+00 0. -1.
         -1    1    6    6    0  503  0.34967563459E+03  0.29987884630E+03  0.56225271225E+03  0.72686208067E+03  0.00000000000E+00 0.  1.
<mgrwt>
<rscale>  0 0.11287277E+04</rscale>
<asrwt>0</asrwt>
<pdfrwt beam="1">  1        4 0.40125392E-01 0.11287277E+04</pdfrwt>
<pdfrwt beam="2">  1       -3 0.18787646E+00 0.11287277E+04</pdfrwt>
<totfact> 0.24107053E+00</totfact>
</mgrwt>
</event>
<event>
12    7  0.1611233E-007  0.1828989E+04  0.7818608E-02  0.8691033E-01
         -3   -1    0    0    0  501 -0.00000000000E+00  0.00000000000E+00  0.15803803593E+04  0.15803803593E+04  0.00000000000E+00 0.  1.
          4   -1    0    0  501    0  0.00000000000E+00 -0.00000000000E+00 -0.52917676879E+03  0.52917676879E+03  0.00000000000E+00 0. -1.
         24    2    1    2    0    0  0.20995670843E+03  0.62019951903E+03  0.53890222971E+03  0.85174658656E+03  0.79544778032E+02 0.  0.
        254    2    1    2    0    0 -0.20995670843E+03 -0.62019951903E+03  0.51230136078E+03  0.12578105415E+04  0.94387785823E+03 0.  0.
         23    2    4    4    0    0 -0.17443271406E+03 -0.80480069726E+03  0.15583396294E+03  0.84319542076E+03  0.92538421900E+02 0.  0.
         23    2    4    4    0    0 -0.35523994365E+02  0.18460117824E+03  0.35646739784E+03  0.41461512075E+03  0.97453288546E+02 0.  0.
          2    1    3    3  502    0  0.20405039169E+03  0.57139940218E+03  0.47192064558E+03  0.76866308281E+03  0.00000000000E+00 0. -1.
         -1    1    3    3    0  502  0.59063167404E+01  0.48800116850E+02  0.66981584127E+02  0.83083503743E+02  0.00000000000E+00 0.  1.
         13    1    5    5    0    0 -0.83259417201E+02 -0.44202013160E+03  0.13018937825E+03  0.46825548742E+03  0.00000000000E+00 0.  1.
        -13    1    5    5    0    0 -0.91173296859E+02 -0.36278056566E+03  0.25644584686E+02  0.37493993333E+03  0.00000000000E+00 0. -1.
          3    1    6    6  503    0  0.31077971409E+02  0.95924540280E+02  0.16765433540E+03  0.19564082885E+03  0.00000000000E+00 0. -1.
         -3    1    6    6    0  503 -0.66601965774E+02  0.88676637958E+02  0.18881306244E+03  0.21897429190E+03  0.00000000000E+00 0.  1.
<mgrwt>
<rscale>  0 0.18289894E+04</rscale>
<asrwt>0</asrwt>
<pdfrwt beam="1">  1        4 0.81411811E-01 0.18289894E+04</pdfrwt>
<pdfrwt beam="2">  1       -3 0.24313544E+00 0.18289894E+04</pdfrwt>
<totfact> 0.23071654E-01</totfact>
</mgrwt>
</event>
<event>
12    7  0.1611233E-007  0.2778849E+04  0.7818608E-02  0.8309865E-01
          2   -1    0    0  501    0  0.00000000000E+00  0.00000000000E+00  0.13062056678E+04  0.13062056678E+04  0.00000000000E+00 0. -1.
         -1   -1    0    0    0  501 -0.00000000000E+00 -0.00000000000E+00 -0.14779452452E+04  0.14779452452E+04  0.00000000000E+00 0.  1.
         24    2    1    2    0    0  0.58472519774E+03 -0.10922084261E+03 -0.12196163527E+04  0.13593641591E+04  0.81080945739E+02 0.  0.
        254    2    1    2    0    0 -0.58472519774E+03  0.10922084261E+03  0.10478767754E+04  0.14247867539E+04  0.76035439658E+03 0.  0.
         23    2    4    4    0    0 -0.52442114824E+03  0.29998091496E+03  0.37685299312E+03  0.71776348486E+03  0.90333558062E+02 0.  0.
         23    2    4    4    0    0 -0.60304049507E+02 -0.19076007235E+03  0.67102378226E+03  0.70702326906E+03  0.97892814035E+02 0.  0.
          2    1    3    3  502    0  0.21891997150E+02 -0.73929876504E+01 -0.20795406192E+02  0.31086407388E+02  0.00000000000E+00 0. -1.
         -1    1    3    3    0  502  0.56283320059E+03 -0.10182785496E+03 -0.11988209466E+04  0.13282777517E+04  0.00000000000E+00 0.  1.
         13    1    5    5    0    0 -0.42587081991E+03  0.23832913076E+03  0.34362271180E+03  0.59686120488E+03  0.00000000000E+00 0. -1.
        -13    1    5    5    0    0 -0.98550328323E+02  0.61651784199E+02  0.33230281320E+02  0.12090227998E+03  0.00000000000E+00 0.  1.
          3    1    6    6  503    0 -0.16843196367E+02 -0.15159234901E+03  0.36719979856E+03  0.39761743625E+03  0.00000000000E+00 0. -1.
         -3    1    6    6    0  503 -0.43460853139E+02 -0.39167723334E+02  0.30382398369E+03  0.30940583281E+03  0.00000000000E+00 0.  1.
<mgrwt>
<rscale>  0 0.27788490E+04</rscale>
<asrwt>0</asrwt>
<pdfrwt beam="1">  1        2 0.20095472E+00 0.27788490E+04</pdfrwt>
<pdfrwt beam="2">  1       -1 0.22737619E+00 0.27788490E+04</pdfrwt>
<totfact> 0.15995670E+00</totfact>
</mgrwt>
</event>
<event>
12    7  0.1611233E-007  0.1282184E+04  0.7818608E-02  0.9043814E-01
         -1   -1    0    0    0  501 -0.00000000000E+00  0.00000000000E+00  0.27766941214E+03  0.27766941214E+03  0.00000000000E+00 0.  1.
          2   -1    0    0  501    0  0.00000000000E+00 -0.00000000000E+00 -0.14801742608E+04  0.14801742608E+04  0.00000000000E+00 0. -1.
         24    2    1    2    0    0  0.13680183907E+03 -0.22135798410E+03 -0.54904014575E+03  0.61280283035E+03  0.79800544747E+02 0.  0.
        254    2    1    2    0    0 -0.13680183907E+03  0.22135798410E+03 -0.65346470295E+03  0.11450408426E+04  0.90354209253E+03 0.  0.
         23    2    4    4    0    0 -0.51056698809E+02 -0.32262354224E+03 -0.42053129820E+03  0.54028958950E+03  0.91507001145E+02 0.  0.
         23    2    4    4    0    0 -0.85745140260E+02  0.54398152634E+03 -0.23293340475E+03  0.60475125311E+03  0.90542680640E+02 0.  0.
          2    1    3    3  502    0  0.41359762853E+02 -0.48472600170E+02 -0.22008130931E+03  0.22912006821E+03  0.00000000000E+00 0. -1.
         -1    1    3    3    0  502  0.95442076217E+02 -0.17288538393E+03 -0.32895883645E+03  0.38368276214E+03  0.00000000000E+00 0.  1.
         13    1    5    5    0    0 -0.16042031668E+02 -0.75788680763E+02 -0.45156667139E+02  0.89668252459E+02  0.00000000000E+00 0. -1.
        -13    1    5    5    0    0 -0.35014667141E+02 -0.24683486148E+03 -0.37537463106E+03  0.45062133705E+03  0.00000000000E+00 0.  1.
          1    1    6    6  503    0 -0.20944769521E+02  0.29464547802E+03 -0.16490292055E+03  0.33830107049E+03  0.00000000000E+00 0. -1.
         -1    1    6    6    0  503 -0.64800370740E+02  0.24933604832E+03 -0.68030484192E+02  0.26645018262E+03  0.00000000000E+00 0.  1.
<mgrwt>
<rscale>  0 0.12821843E+04</rscale>
<asrwt>0</asrwt>
<pdfrwt beam="1">  1        2 0.22771911E+00 0.12821843E+04</pdfrwt>
<pdfrwt beam="2">  1       -1 0.42718372E-01 0.12821843E+04</pdfrwt>
<totfact> 0.78569263E+01</totfact>
</mgrwt>
</event>
<event>
12    7  0.1611233E-007  0.2265599E+04  0.7818608E-02  0.8491610E-01
         -1   -1    0    0    0  501 -0.00000000000E+00  0.00000000000E+00  0.77437287168E+03  0.77437287168E+03  0.00000000000E+00 0.  1.
          2   -1    0    0  501    0  0.00000000000E+00 -0.00000000000E+00 -0.16571281929E+04  0.16571281929E+04  0.00000000000E+00 0. -1.
         24    2    1    2    0    0  0.23523336846E+03  0.49968390288E+03  0.46372370899E+03  0.72552794448E+03  0.79576249669E+02 0.  0.
        254    2    1    2    0    0 -0.23523336846E+03 -0.49968390288E+03 -0.13464790302E+04  0.17059731201E+04  0.89012345619E+03 0.  0.
         23    2    4    4    0    0 -0.31539380123E+03 -0.38772884107E+03 -0.14316469806E+04  0.15192178816E+04  0.92752308098E+02 0.  0.
         23    2    4    4    0    0  0.80160432770E+02 -0.11195506182E+03  0.85167950406E+02  0.18675523848E+03  0.93082267250E+02 0.  0.
          2    1    3    3  502    0  0.20740751548E+03  0.40869474968E+03  0.34652612391E+03  0.57456908240E+03  0.00000000000E+00 0. -1.
         -1    1    3    3    0  502  0.27825852979E+02  0.90989153201E+02  0.11719758507E+03  0.15095886208E+03  0.00000000000E+00 0.  1.
         13    1    5    5    0    0 -0.17396583436E+03 -0.22590824799E+03 -0.94846154034E+03  0.99039282183E+03  0.00000000000E+00 0. -1.
        -13    1    5    5    0    0 -0.14142796687E+03 -0.16182059308E+03 -0.48318544028E+03  0.52882505978E+03  0.00000000000E+00 0.  1.
          4    1    6    6  503    0  0.16141516551E+02  0.77203735468E+01 -0.10461097159E+02  0.20726487354E+02  0.00000000000E+00 0. -1.
         -4    1    6    6    0  503  0.64018916220E+02 -0.11967543536E+03  0.95629047565E+02  0.16602875113E+03  0.00000000000E+00 0.  1.
<mgrwt>
<rscale>  0 0.22655994E+04</rscale>
<asrwt>0</asrwt>
<pdfrwt beam="1">  1        2 0.25494280E+00 0.22655994E+04</pdfrwt>
<pdfrwt beam="2">  1       -1 0.11913429E+00 0.22655994E+04</pdfrwt>
<totfact> 0.67603161E+00</totfact>
</mgrwt>
</event>
<event>
12    7  0.1611233E-007  0.1942091E+04  0.7818608E-02  0.8634184E-01
         -1   -1    0    0    0  501 -0.00000000000E+00  0.00000000000E+00  0.13471368099E+04  0.13471368099E+04  0.00000000000E+00 0.  1.
          2   -1    0    0  501    0  0.00000000000E+00 -0.00000000000E+00 -0.69995104272E+03  0.69995104272E+03  0.00000000000E+00 0. -1.
         24    2    1    2    0    0  0.23409520556E+03 -0.58630352086E+03  0.70805606904E+03  0.95215443250E+03  0.81867469602E+02 0.  0.
        254    2    1    2    0    0 -0.23409520556E+03  0.58630352086E+03 -0.60870301909E+02  0.10949334201E+04  0.89253661937E+03 0.  0.
         23    2    4    4    0    0  0.28395828585E+02  0.49762286398E+03 -0.40139237636E+03  0.64674002562E+03  0.93391558025E+02 0.  0.
         23    2    4    4    0    0 -0.26249103415E+03  0.88680656889E+02  0.34052207445E+03  0.44819339446E+03  0.90311869312E+02 0.  0.
          2    1    3    3  502    0  0.11004987074E+03 -0.29424876453E+03  0.29194351908E+03  0.42886399687E+03  0.00000000000E+00 0. -1.
         -1    1    3    3    0  502  0.12404533482E+03 -0.29205475634E+03  0.41611254997E+03  0.52329043564E+03  0.00000000000E+00 0.  1.
         13    1    5    5    0    0  0.62825789904E+02  0.32154442290E+03 -0.25425706689E+03  0.41471020223E+03  0.00000000000E+00 0.  1.
        -13    1    5    5    0    0 -0.34429961319E+02  0.17607844108E+03 -0.14713530947E+03  0.23202982339E+03  0.00000000000E+00 0. -1.
          4    1    6    6  503    0 -0.10156956463E+03  0.31975114436E+02  0.20228935470E+03  0.22860395322E+03  0.00000000000E+00 0. -1.
         -4    1    6    6    0  503 -0.16092146952E+03  0.56705542453E+02  0.13823271975E+03  0.21958944124E+03  0.00000000000E+00 0.  1.
<mgrwt>
<rscale>  0 0.19420915E+04</rscale>
<asrwt>0</asrwt>
<pdfrwt beam="1">  1        2 0.10768478E+00 0.19420915E+04</pdfrwt>
<pdfrwt beam="2">  1       -1 0.20725182E+00 0.19420915E+04</pdfrwt>
<totfact> 0.58597921E+00</totfact>
</mgrwt>
</event>
<event>
12    7  0.1611233E-007  0.1513558E+04  0.7818608E-02  0.8875487E-01
          2   -1    0    0  501    0  0.00000000000E+00  0.00000000000E+00  0.28531622277E+04  0.28531622277E+04  0.00000000000E+00 0. -1.
         -1   -1    0    0    0  501 -0.00000000000E+00 -0.00000000000E+00 -0.20072971621E+03  0.20072971621E+03  0.00000000000E+00 0.  1.
         24    2    1    2    0    0  0.65158868547E+02 -0.25618981805E+03  0.41362554326E+02  0.27865680238E+03  0.77845048590E+02 0.  0.
        254    2    1    2    0    0 -0.65158868547E+02  0.25618981805E+03  0.26110699571E+04  0.27752351415E+04  0.90242166891E+03 0.  0.
         23    2    4    4    0    0 -0.10491116317E+03  0.57506248340E+03  0.18857396982E+04  0.19763728349E+04  0.91280673328E+02 0.  0.
         23    2    4    4    0    0  0.39752294620E+02 -0.31887266535E+03  0.72533025892E+03  0.79886230655E+03  0.93898768272E+02 0.  0.
          4    1    3    3  502    0  0.67588790863E+01 -0.25481568464E+01 -0.11004131705E+02  0.13163071997E+02  0.00000000000E+00 0. -1.
         -3    1    3    3    0  502  0.58399989461E+02 -0.25364166120E+03  0.52366686032E+02  0.26549373038E+03  0.00000000000E+00 0.  1.
         13    1    5    5    0    0 -0.79057551869E+02  0.22553446310E+03  0.84879840781E+03  0.88180192087E+03  0.00000000000E+00 0.  1.
        -13    1    5    5    0    0 -0.25853611298E+02  0.34952802030E+03  0.10369412904E+04  0.10945709141E+04  0.00000000000E+00 0. -1.
          4    1    6    6  503    0 -0.11421890966E+02 -0.30689845972E+02  0.14797025894E+03  0.15155040010E+03  0.00000000000E+00 0. -1.
         -4    1    6    6    0  503  0.51174185586E+02 -0.28818281938E+03  0.57735999999E+03  0.64731190646E+03  0.00000000000E+00 0.  1.
<mgrwt>
<rscale>  0 0.15135580E+04</rscale>
<asrwt>0</asrwt>
<pdfrwt beam="1">  1        2 0.43894801E+00 0.15135580E+04</pdfrwt>
<pdfrwt beam="2">  1       -1 0.30881497E-01 0.15135580E+04</pdfrwt>
<totfact> 0.23005377E+01</totfact>
</mgrwt>
</event>
<event>
12    7  0.1611233E-007  0.1096062E+04  0.7818608E-02  0.9209039E-01
          2   -1    0    0  501    0  0.00000000000E+00  0.00000000000E+00  0.16890869291E+04  0.16890869291E+04  0.00000000000E+00 0. -1.
         -1   -1    0    0    0  501 -0.00000000000E+00 -0.00000000000E+00 -0.17781079934E+03  0.17781079934E+03  0.00000000000E+00 0.  1.
         24    2    1    2    0    0  0.21146119110E+02 -0.97763308502E+02  0.24966617897E+02  0.13050647971E+03  0.80023661457E+02 0.  0.
        254    2    1    2    0    0 -0.21146119110E+02  0.97763308502E+02  0.14863095119E+04  0.17363912487E+04  0.89215120962E+03 0.  0.
         23    2    4    4    0    0  0.31444970228E+03 -0.35672380706E+02  0.17402885584E+03  0.37207188053E+03  0.89444438648E+02 0.  0.
         23    2    4    4    0    0 -0.33559582139E+03  0.13343568921E+03  0.13122806560E+04  0.13643193682E+04  0.94112591241E+02 0.  0.
          2    1    3    3  502    0  0.12433152311E+02  0.71051145704E+01  0.20725217132E+02  0.25191279337E+02  0.00000000000E+00 0. -1.
         -1    1    3    3    0  502  0.87129667991E+01 -0.10486842307E+03  0.42414007655E+01  0.10531520037E+03  0.00000000000E+00 0.  1.
         13    1    5    5    0    0  0.29789161457E+03 -0.12141488366E+02  0.16947454204E+03  0.34294088437E+03  0.00000000000E+00 0.  1.
        -13    1    5    5    0    0  0.16558087708E+02 -0.23530892340E+02  0.45543137930E+01  0.29130996155E+02  0.00000000000E+00 0. -1.
          1    1    6    6  503    0  0.11744646853E+01  0.16595210681E+02  0.65772150243E+02  0.67843615267E+02  0.00000000000E+00 0. -1.
         -1    1    6    6    0  503 -0.33677028607E+03  0.11684047853E+03  0.12465085058E+04  0.12964757530E+04  0.00000000000E+00 0.  1.
<mgrwt>
<rscale>  0 0.10960619E+04</rscale>
<asrwt>0</asrwt>
<pdfrwt beam="1">  1        2 0.25985952E+00 0.10960619E+04</pdfrwt>
<pdfrwt beam="2">  1       -1 0.27355509E-01 0.10960619E+04</pdfrwt>
<totfact> 0.13489948E+02</totfact>
</mgrwt>
</event>
<event>
12    7  0.1611233E-007  0.2524313E+04  0.7818608E-02  0.8394375E-01
          2   -1    0    0  501    0  0.00000000000E+00  0.00000000000E+00  0.12449071132E+04  0.12449071132E+04  0.00000000000E+00 0. -1.
         -1   -1    0    0    0  501 -0.00000000000E+00 -0.00000000000E+00 -0.12796445297E+04  0.12796445297E+04  0.00000000000E+00 0.  1.
         24    2    1    2    0    0  0.97090711895E+03  0.52524027774E+03  0.21635529736E+02  0.11070687908E+04  0.81211011057E+02 0.  0.
        254    2    1    2    0    0 -0.97090711895E+03 -0.52524027774E+03 -0.56372946213E+02  0.14174828521E+04  0.88743548720E+03 0.  0.
         23    2    4    4    0    0 -0.48752454046E+01 -0.43100617649E+03 -0.48780804075E+02  0.44303258076E+03  0.90045591639E+02 0.  0.
         23    2    4    4    0    0 -0.96603187355E+03 -0.94234101249E+02 -0.75921421388E+01  0.97445027134E+03  0.86011883780E+02 0.  0.
          2    1    3    3  502    0  0.58689497850E+03  0.33881562075E+03 -0.21563616293E+02  0.67801676248E+03  0.00000000000E+00 0. -1.
         -1    1    3    3    0  502  0.38401214045E+03  0.18642465699E+03  0.43199146028E+02  0.42905202827E+03  0.00000000000E+00 0.  1.
         13    1    5    5    0    0  0.37046979727E+02 -0.99227471256E+02 -0.10895318662E+02  0.10647665344E+03  0.00000000000E+00 0.  1.
        -13    1    5    5    0    0 -0.41922225131E+02 -0.33177870523E+03 -0.37885485413E+02  0.33655592732E+03  0.00000000000E+00 0. -1.
          3    1    6    6  503    0 -0.42031271108E+03  0.16894847152E+01 -0.25396152269E+00  0.42031618331E+03  0.00000000000E+00 0. -1.
         -3    1    6    6    0  503 -0.54571916247E+03 -0.95923585964E+02 -0.73381806161E+01  0.55413408804E+03  0.00000000000E+00 0.  1.
<mgrwt>
<rscale>  0 0.25243126E+04</rscale>
<asrwt>0</asrwt>
<pdfrwt beam="1">  1        2 0.19152417E+00 0.25243126E+04</pdfrwt>
<pdfrwt beam="2">  1       -1 0.19686839E+00 0.25243126E+04</pdfrwt>
<totfact> 0.28582474E+00</totfact>
</mgrwt>
</event>
<event>
12    7  0.1611233E-007  0.2671670E+04  0.7818608E-02  0.8344256E-01
         -3   -1    0    0    0  501 -0.00000000000E+00  0.00000000000E+00  0.91936491854E+03  0.91936491854E+03  0.00000000000E+00 0.  1.
          2   -1    0    0  501    0  0.00000000000E+00 -0.00000000000E+00 -0.19409656103E+04  0.19409656103E+04  0.00000000000E+00 0. -1.
         24    2    1    2    0    0 -0.53331907934E+03  0.85380438943E+03  0.21197393044E+03  0.10316972326E+04  0.77814245243E+02 0.  0.
        254    2    1    2    0    0  0.53331907934E+03 -0.85380438943E+03 -0.12335746222E+04  0.18286332963E+04  0.89932319432E+03 0.  0.
         23    2    4    4    0    0  0.55218103930E+03 -0.88473291060E+03 -0.13297325399E+04  0.16924309476E+04  0.92074217894E+02 0.  0.
         23    2    4    4    0    0 -0.18861959960E+02  0.30928521177E+02  0.96157917676E+02  0.13620234863E+03  0.89400154830E+02 0.  0.
          2    1    3    3  502    0 -0.17900858657E+03  0.33736344764E+03  0.53318437013E+02  0.38561771950E+03  0.00000000000E+00 0. -1.
         -1    1    3    3    0  502 -0.35431049277E+03  0.51644094179E+03  0.15865549343E+03  0.64607951309E+03  0.00000000000E+00 0.  1.
         13    1    5    5    0    0  0.35061785217E+03 -0.49868284658E+03 -0.72555069709E+03  0.94765039639E+03  0.00000000000E+00 0. -1.
        -13    1    5    5    0    0  0.20156318712E+03 -0.38605006402E+03 -0.60418184281E+03  0.74478055125E+03  0.00000000000E+00 0.  1.
          4    1    6    6  503    0 -0.52046454922E+02  0.12783233881E+02  0.34083207795E+02  0.63513066309E+02  0.00000000000E+00 0. -1.
         -4    1    6    6    0  503  0.33184494962E+02  0.18145287297E+02  0.62074709881E+02  0.72689282317E+02  0.00000000000E+00 0.  1.
<mgrwt>
<rscale>  0 0.26716704E+04</rscale>
<asrwt>0</asrwt>
<pdfrwt beam="1">  1        2 0.29861009E+00 0.26716704E+04</pdfrwt>
<pdfrwt beam="2">  1       -3 0.14144076E+00 0.26716704E+04</pdfrwt>
<totfact> 0.15104416E+00</totfact>
</mgrwt>
</event>
<event>
12    7  0.1611233E-007  0.3947181E+04  0.7818608E-02  0.8015287E-01
         -1   -1    0    0    0  501 -0.00000000000E+00  0.00000000000E+00  0.19254470644E+04  0.19254470644E+04  0.00000000000E+00 0.  1.
          2   -1    0    0  501    0  0.00000000000E+00 -0.00000000000E+00 -0.20229378126E+04  0.20229378126E+04  0.00000000000E+00 0. -1.
         24    2    1    2    0    0 -0.51284502922E+03  0.11459135133E+04  0.13409467899E+04  0.18386533751E+04  0.79875755947E+02 0.  0.
        254    2    1    2    0    0  0.51284502922E+03 -0.11459135133E+04 -0.14384375380E+04  0.21097315020E+04  0.89762835049E+03 0.  0.
         23    2    4    4    0    0  0.70808317826E+03 -0.59391230460E+03 -0.69941251781E+03  0.11625871759E+04  0.91200101732E+02 0.  0.
         23    2    4    4    0    0 -0.19523814904E+03 -0.55200120872E+03 -0.73902502021E+03  0.94714432609E+03  0.90006247976E+02 0.  0.
          4    1    3    3  502    0 -0.90187462206E+01  0.49361902149E+02  0.69253673863E+02  0.85521965078E+02  0.00000000000E+00 0. -1.
         -3    1    3    3    0  502 -0.50382628300E+03  0.10965516112E+04  0.12716931160E+04  0.17531314100E+04  0.00000000000E+00 0.  1.
         13    1    5    5    0    0  0.20124523524E+03 -0.20681385548E+03 -0.25683940302E+03  0.38631346659E+03  0.00000000000E+00 0. -1.
        -13    1    5    5    0    0  0.50683794302E+03 -0.38709844912E+03 -0.44257311479E+03  0.77627370929E+03  0.00000000000E+00 0.  1.
          4    1    6    6  503    0 -0.20410494973E+03 -0.54111563971E+03 -0.72265452444E+03  0.92557794255E+03  0.00000000000E+00 0.  1.
         -4    1    6    6    0  503  0.88668006880E+01 -0.10885569008E+02 -0.16370495766E+02  0.21566383533E+02  0.00000000000E+00 0. -1.
<mgrwt>
<rscale>  0 0.39471811E+04</rscale>
<asrwt>0</asrwt>
<pdfrwt beam="1">  1        2 0.31122120E+00 0.39471811E+04</pdfrwt>
<pdfrwt beam="2">  1       -1 0.29622263E+00 0.39471811E+04</pdfrwt>
<totfact> 0.20430290E-01</totfact>
</mgrwt>
</event>
<event>
12    7  0.1611233E-007  0.2449126E+04  0.7818608E-02  0.8421337E-01
          2   -1    0    0  501    0  0.00000000000E+00  0.00000000000E+00  0.30456432353E+04  0.30456432353E+04  0.00000000000E+00 0. -1.
         -1   -1    0    0    0  501 -0.00000000000E+00 -0.00000000000E+00 -0.49236050017E+03  0.49236050017E+03  0.00000000000E+00 0.  1.
         24    2    1    2    0    0 -0.46747708617E+03  0.79481652452E+03  0.18475030853E+04  0.20663511478E+04  0.79191426579E+02 0.  0.
        254    2    1    2    0    0  0.46747708617E+03 -0.79481652452E+03  0.70577964982E+03  0.14716525877E+04  0.90408422778E+03 0.  0.
         23    2    4    4    0    0 -0.23861847670E+02 -0.73170875059E+03  0.61336138077E+03  0.95958684367E+03  0.92885109942E+02 0.  0.
         23    2    4    4    0    0  0.49133893384E+03 -0.63107773927E+02  0.92418269051E+02  0.51206574400E+03  0.90959610152E+02 0.  0.
          4    1    3    3  502    0 -0.42031083022E+03  0.66992733523E+03  0.16150420970E+04  0.17982838496E+04  0.00000000000E+00 0. -1.
         -3    1    3    3    0  502 -0.47166255956E+02  0.12488918930E+03  0.23246098827E+03  0.26806729821E+03  0.00000000000E+00 0.  1.
         13    1    5    5    0    0 -0.36952140626E+02 -0.29061425686E+03  0.19819108694E+03  0.35369734792E+03  0.00000000000E+00 0. -1.
        -13    1    5    5    0    0  0.13090292956E+02 -0.44109449374E+03  0.41517029383E+03  0.60588949575E+03  0.00000000000E+00 0.  1.
          3    1    6    6  503    0  0.54159168844E+02 -0.12740420141E+02 -0.17774702479E+02  0.58407824163E+02  0.00000000000E+00 0. -1.
         -3    1    6    6    0  503  0.43717976500E+03 -0.50367353787E+02  0.11019297153E+03  0.45365791983E+03  0.00000000000E+00 0.  1.
<mgrwt>
<rscale>  0 0.24491259E+04</rscale>
<asrwt>0</asrwt>
<pdfrwt beam="1">  1        2 0.46856049E+00 0.24491259E+04</pdfrwt>
<pdfrwt beam="2">  1       -1 0.75747771E-01 0.24491259E+04</pdfrwt>
<totfact> 0.29078214E+00</totfact>
</mgrwt>
</event>
<event>
12    7  0.1611233E-007  0.1737035E+04  0.7818608E-02  0.8740520E-01
         -1   -1    0    0    0  501 -0.00000000000E+00  0.00000000000E+00  0.49156544588E+03  0.49156544588E+03  0.00000000000E+00 0.  1.
          2   -1    0    0  501    0  0.00000000000E+00 -0.00000000000E+00 -0.15345307161E+04  0.15345307161E+04  0.00000000000E+00 0. -1.
         24    2    1    2    0    0 -0.42419799249E+03 -0.46406006834E+03 -0.46879211384E+03  0.78827308825E+03  0.79452701647E+02 0.  0.
        254    2    1    2    0    0  0.42419799249E+03  0.46406006834E+03 -0.57417315633E+03  0.12378230737E+04  0.89846283421E+03 0.  0.
         23    2    4    4    0    0  0.25719097384E+03  0.28880380726E+03  0.18313238267E+03  0.43749695545E+03  0.91166223654E+02 0.  0.
         23    2    4    4    0    0  0.16700701865E+03  0.17525626108E+03 -0.75730553900E+03  0.80032611824E+03  0.91673959241E+02 0.  0.
          4    1    3    3  502    0 -0.23720580519E+03 -0.21462806167E+03 -0.26939359190E+03  0.41821609992E+03  0.00000000000E+00 0. -1.
         -3    1    3    3    0  502 -0.18699218729E+03 -0.24943200666E+03 -0.19939852194E+03  0.37005698833E+03  0.00000000000E+00 0.  1.
         13    1    5    5    0    0  0.90117278265E+02  0.47167354553E+02  0.65904441966E+02  0.12119933436E+03  0.00000000000E+00 0. -1.
        -13    1    5    5    0    0  0.16707369557E+03  0.24163645271E+03  0.11722794071E+03  0.31629762110E+03  0.00000000000E+00 0.  1.
          2    1    6    6  503    0  0.66873733320E+02  0.98154706224E+02 -0.23964602083E+03  0.26746337668E+03  0.00000000000E+00 0. -1.
         -2    1    6    6    0  503  0.10013328533E+03  0.77101554853E+02 -0.51765951817E+03  0.53286274156E+03  0.00000000000E+00 0.  1.
<mgrwt>
<rscale>  0 0.17370346E+04</rscale>
<asrwt>0</asrwt>
<pdfrwt beam="1">  1        2 0.23608165E+00 0.17370346E+04</pdfrwt>
<pdfrwt beam="2">  1       -1 0.75625453E-01 0.17370346E+04</pdfrwt>
<totfact> 0.23053462E+01</totfact>
</mgrwt>
</event>
<event>
12    7  0.1611233E-007  0.1468759E+04  0.7818608E-02  0.8905497E-01
          2   -1    0    0  501    0  0.00000000000E+00  0.00000000000E+00  0.10925777301E+04  0.10925777301E+04  0.00000000000E+00 0. -1.
         -1   -1    0    0    0  501 -0.00000000000E+00 -0.00000000000E+00 -0.49361571041E+03  0.49361571041E+03  0.00000000000E+00 0.  1.
         24    2    1    2    0    0  0.22521817825E+03  0.40171530329E+02  0.62270597991E+03  0.67015315777E+03  0.94897511998E+02 0.  0.
        254    2    1    2    0    0 -0.22521817825E+03 -0.40171530329E+02 -0.23743960258E+02  0.91604028270E+03  0.88669557584E+03 0.  0.
         23    2    4    4    0    0  0.10192028302E+03 -0.33922354128E+03  0.19324128396E+03  0.41406552575E+03  0.92993068228E+02 0.  0.
         23    2    4    4    0    0 -0.32713846126E+03  0.29905201095E+03 -0.21698524422E+03  0.50197475695E+03  0.91893320309E+02 0.  0.
          2    1    3    3  502    0  0.11629340746E+03 -0.27365940902E+02  0.30649724168E+03  0.32895837199E+03  0.00000000000E+00 0. -1.
         -1    1    3    3    0  502  0.10892477079E+03  0.67537471231E+02  0.31620873823E+03  0.34119478578E+03  0.00000000000E+00 0.  1.
         13    1    5    5    0    0  0.88864401542E+02 -0.32836520982E+03  0.15827800800E+03  0.37519664271E+03  0.00000000000E+00 0. -1.
        -13    1    5    5    0    0  0.13055881474E+02 -0.10858331457E+02  0.34963275955E+02  0.38868883037E+02  0.00000000000E+00 0.  1.
          1    1    6    6  503    0 -0.28861678020E+03  0.26923308282E+03 -0.22226247730E+03  0.45297539394E+03  0.00000000000E+00 0. -1.
         -1    1    6    6    0  503 -0.38521681067E+02  0.29818928130E+02  0.52772330811E+01  0.48999363017E+02  0.00000000000E+00 0.  1.
<mgrwt>
<rscale>  0 0.14687594E+04</rscale>
<asrwt>0</asrwt>
<pdfrwt beam="1">  1        2 0.16808888E+00 0.14687594E+04</pdfrwt>
<pdfrwt beam="2">  1       -1 0.75940879E-01 0.14687594E+04</pdfrwt>
<totfact> 0.42366786E+01</totfact>
</mgrwt>
</event>
<event>
12    7  0.1888219E-007  0.1522049E+04  0.7818608E-02  0.8869922E-01
          2   -1    0    0  501    0  0.00000000000E+00  0.00000000000E+00  0.16822869475E+04  0.16822869475E+04  0.00000000000E+00 0. -1.
         -1   -1    0    0    0  501 -0.00000000000E+00 -0.00000000000E+00 -0.34426846825E+03  0.34426846825E+03  0.00000000000E+00 0.  1.
         24    2    1    2    0    0 -0.40723932726E+03  0.10000925964E+03  0.78438123023E+03  0.89290538401E+03  0.78615448699E+02 0.  0.
        254    2    1    2    0    0  0.40723932726E+03 -0.10000925964E+03  0.55363724898E+03  0.11336500317E+04  0.89599244933E+03 0.  0.
         23    2    4    4    0    0 -0.17358980573E+03  0.23348317618E+03  0.24073765652E+03  0.38834989217E+03  0.90626735940E+02 0.  0.
         23    2    4    4    0    0  0.58082913299E+03 -0.33349243582E+03  0.31289959246E+03  0.74530013954E+03  0.94796922735E+02 0.  0.
          2    1    3    3  502    0 -0.39480365426E+03  0.93817619860E+02  0.71484015425E+03  0.82199033896E+03  0.00000000000E+00 0. -1.
         -1    1    3    3    0  502 -0.12435673002E+02  0.61916397763E+01  0.69541075978E+02  0.70915045050E+02  0.00000000000E+00 0.  1.
         13    1    5    5    0    0  0.94696357974E+01  0.19976380653E+02  0.28202530591E+02  0.35834515734E+02  0.00000000000E+00 0.  1.
        -13    1    5    5    0    0 -0.18305944153E+03  0.21350679553E+03  0.21253512593E+03  0.35251537643E+03  0.00000000000E+00 0. -1.
          3    1    6    6  503    0  0.55977376494E+03 -0.33844110043E+03  0.30849272792E+03  0.72322666541E+03  0.00000000000E+00 0. -1.
         -3    1    6    6    0  503  0.21055368052E+02  0.49486646175E+01  0.44068645456E+01  0.22073474135E+02  0.00000000000E+00 0.  1.
<mgrwt>
<rscale>  0 0.15220491E+04</rscale>
<asrwt>0</asrwt>
<pdfrwt beam="1">  1        2 0.25881337E+00 0.15220491E+04</pdfrwt>
<pdfrwt beam="2">  1       -1 0.52964381E-01 0.15220491E+04</pdfrwt>
<totfact> 0.39622166E+01</totfact>
</mgrwt>
</event>
<event>
12    7  0.1611233E-007  0.1943222E+04  0.7818608E-02  0.8633636E-01
          2   -1    0    0  501    0  0.00000000000E+00  0.00000000000E+00  0.19853123754E+04  0.19853123754E+04  0.00000000000E+00 0. -1.
         -1   -1    0    0    0  501 -0.00000000000E+00 -0.00000000000E+00 -0.47550575164E+03  0.47550575164E+03  0.00000000000E+00 0.  1.
         24    2    1    2    0    0  0.26526706612E+03 -0.32023785144E+03  0.14103723493E+04  0.14726745639E+04  0.81861527519E+02 0.  0.
        254    2    1    2    0    0 -0.26526706612E+03  0.32023785144E+03  0.99434274483E+02  0.98814356314E+03  0.89085443737E+03 0.  0.
         23    2    4    4    0    0 -0.17474384137E+03  0.82921343191E+02  0.47773989824E+03  0.52358700480E+03  0.92176905847E+02 0.  0.
         23    2    4    4    0    0 -0.90523224747E+02  0.23731650825E+03 -0.37830562376E+03  0.46455655834E+03  0.90465858866E+02 0.  0.
          2    1    3    3  502    0  0.25714197271E+03 -0.27945198251E+03  0.13124504994E+04  0.13662875678E+04  0.00000000000E+00 0. -1.
         -1    1    3    3    0  502  0.81250934081E+01 -0.40785868934E+02  0.97921849908E+02  0.10638699609E+03  0.00000000000E+00 0.  1.
         13    1    5    5    0    0 -0.79052797314E+02  0.41547207030E+02  0.33581380895E+03  0.34748586943E+03  0.00000000000E+00 0. -1.
        -13    1    5    5    0    0 -0.95691044061E+02  0.41374136162E+02  0.14192608929E+03  0.17610113537E+03  0.00000000000E+00 0.  1.
          1    1    6    6  503    0 -0.94781023417E+02  0.12719624059E+03 -0.20547745765E+03  0.25958295711E+03  0.00000000000E+00 0. -1.
         -1    1    6    6    0  503  0.42577986701E+01  0.11012026767E+03 -0.17282816611E+03  0.20497360123E+03  0.00000000000E+00 0.  1.
<mgrwt>
<rscale>  0 0.19432215E+04</rscale>
<asrwt>0</asrwt>
<pdfrwt beam="1">  1        2 0.30543267E+00 0.19432215E+04</pdfrwt>
<pdfrwt beam="2">  1       -1 0.73154732E-01 0.19432215E+04</pdfrwt>
<totfact> 0.13626012E+01</totfact>
</mgrwt>
</event>
<event>
12    7  0.1611233E-007  0.2348003E+04  0.7818608E-02  0.8459231E-01
         -1   -1    0    0    0  501 -0.00000000000E+00  0.00000000000E+00  0.50267479922E+03  0.50267479922E+03  0.00000000000E+00 0.  1.
          2   -1    0    0  501    0  0.00000000000E+00 -0.00000000000E+00 -0.27418917115E+04  0.27418917115E+04  0.00000000000E+00 0. -1.
         24    2    1    2    0    0 -0.82903364710E+03  0.53762908292E+03 -0.11448280654E+04  0.15143837151E+04  0.79905683536E+02 0.  0.
        254    2    1    2    0    0  0.82903364710E+03 -0.53762908292E+03 -0.10943888468E+04  0.17301827956E+04  0.90526445825E+03 0.  0.
         23    2    4    4    0    0  0.32649936362E+03 -0.60143184757E+03 -0.23609990415E+03  0.72953212936E+03  0.90287658748E+02 0.  0.
         23    2    4    4    0    0  0.50253428348E+03  0.63802764649E+02 -0.85828894265E+03  0.10006506662E+04  0.89612208529E+02 0.  0.
          2    1    3    3  502    0 -0.47529861558E+03  0.29510631190E+03 -0.58946746014E+03  0.81269206706E+03  0.00000000000E+00 0. -1.
         -1    1    3    3    0  502 -0.35373503152E+03  0.24252277101E+03 -0.55536060528E+03  0.70169164801E+03  0.00000000000E+00 0.  1.
         13    1    5    5    0    0  0.27572099197E+03 -0.54719733143E+03 -0.23178418015E+03  0.65511135778E+03  0.00000000000E+00 0. -1.
        -13    1    5    5    0    0  0.50778371658E+02 -0.54234516140E+02 -0.43157240054E+01  0.74420771582E+02  0.00000000000E+00 0.  1.
          3    1    6    6  503    0  0.49002221280E+03  0.60771846420E+02 -0.79345674603E+03  0.93455261713E+03  0.00000000000E+00 0. -1.
         -3    1    6    6    0  503  0.12512070681E+02  0.30309182296E+01 -0.64832196620E+02  0.66098049113E+02  0.00000000000E+00 0.  1.
<mgrwt>
<rscale>  0 0.23480033E+04</rscale>
<asrwt>0</asrwt>
<pdfrwt beam="1">  1        2 0.42182949E+00 0.23480033E+04</pdfrwt>
<pdfrwt beam="2">  1       -1 0.77334585E-01 0.23480033E+04</pdfrwt>
<totfact> 0.43173101E+00</totfact>
</mgrwt>
</event>
<event>
12    7  0.1611233E-007  0.2412581E+04  0.7818608E-02  0.8434808E-01
          2   -1    0    0  501    0  0.00000000000E+00  0.00000000000E+00  0.80241521712E+03  0.80241521712E+03  0.00000000000E+00 0. -1.
         -1   -1    0    0    0  501 -0.00000000000E+00 -0.00000000000E+00 -0.18134459095E+04  0.18134459095E+04  0.00000000000E+00 0.  1.
         24    2    1    2    0    0  0.58370570415E+03  0.47534750857E+03  0.33780340377E+03  0.82867355895E+03  0.76948844874E+02 0.  0.
        254    2    1    2    0    0 -0.58370570415E+03 -0.47534750857E+03 -0.13488340961E+04  0.17871875676E+04  0.89889842591E+03 0.  0.
         23    2    4    4    0    0 -0.58474710745E+03 -0.38502018624E+03 -0.36526549382E+03  0.79542230872E+03  0.95436076831E+02 0.  0.
         23    2    4    4    0    0  0.10414032911E+01 -0.90327322333E+02 -0.98356860229E+03  0.99176525891E+03  0.89615978978E+02 0.  0.
          4    1    3    3  502    0  0.26524142881E+03  0.18344050062E+03  0.11332968948E+03  0.34182897967E+03  0.00000000000E+00 0. -1.
         -3    1    3    3    0  502  0.31846427535E+03  0.29190700795E+03  0.22447371429E+03  0.48684457928E+03  0.00000000000E+00 0.  1.
         13    1    5    5    0    0 -0.80613741315E+02 -0.91322741557E+02 -0.45024611229E+02  0.12986775593E+03  0.00000000000E+00 0.  1.
        -13    1    5    5    0    0 -0.50413336613E+03 -0.29369744468E+03 -0.32024088259E+03  0.66555455279E+03  0.00000000000E+00 0. -1.
          1    1    6    6  503    0 -0.18298226571E+02 -0.76924923280E+02 -0.92875425149E+03  0.93211411778E+03  0.00000000000E+00 0. -1.
         -1    1    6    6    0  503  0.19339629862E+02 -0.13402399052E+02 -0.54814350800E+02  0.59651141122E+02  0.00000000000E+00 0.  1.
<mgrwt>
<rscale>  0 0.24125809E+04</rscale>
<asrwt>0</asrwt>
<pdfrwt beam="1">  1        2 0.12344850E+00 0.24125809E+04</pdfrwt>
<pdfrwt beam="2">  1       -1 0.27899168E+00 0.24125809E+04</pdfrwt>
<totfact> 0.15883758E+00</totfact>
</mgrwt>
</event>
<event>
12    7  0.1611233E-007  0.1499718E+04  0.7818608E-02  0.8884641E-01
         -3   -1    0    0    0  501 -0.00000000000E+00  0.00000000000E+00  0.36486031783E+03  0.36486031783E+03  0.00000000000E+00 0.  1.
          2   -1    0    0  501    0  0.00000000000E+00 -0.00000000000E+00 -0.15411056544E+04  0.15411056544E+04  0.00000000000E+00 0. -1.
         24    2    1    2    0    0  0.44487290638E+03  0.11794623269E+03 -0.52551826924E+03  0.70311466833E+03  0.79859682478E+02 0.  0.
        254    2    1    2    0    0 -0.44487290638E+03 -0.11794623269E+03 -0.65072706733E+03  0.12028513039E+04  0.90087864139E+03 0.  0.
         23    2    4    4    0    0 -0.56929148642E+03 -0.10274297376E+03 -0.79735108319E+03  0.98949823366E+03  0.93215285094E+02 0.  0.
         23    2    4    4    0    0  0.12441858004E+03 -0.15203258927E+02  0.14662401586E+03  0.21335307025E+03  0.91158150573E+02 0.  0.
          4    1    3    3  502    0  0.42845481335E+03  0.11879880858E+03 -0.52305095609E+03  0.68649033982E+03  0.00000000000E+00 0. -1.
         -3    1    3    3    0  502  0.16418093022E+02 -0.85257589796E+00 -0.24673131528E+01  0.16624328508E+02  0.00000000000E+00 0.  1.
         13    1    5    5    0    0 -0.20659555927E+03  0.66619787391E+01 -0.29933066312E+03  0.36376496939E+03  0.00000000000E+00 0. -1.
        -13    1    5    5    0    0 -0.36269592715E+03 -0.10940495250E+03 -0.49802042007E+03  0.62573326427E+03  0.00000000000E+00 0.  1.
          3    1    6    6  503    0  0.42566224458E+02 -0.45803290415E+02  0.88658869997E+02  0.10849064525E+03  0.00000000000E+00 0. -1.
         -3    1    6    6    0  503  0.81852355586E+02  0.30600031488E+02  0.57965145861E+02  0.10486242500E+03  0.00000000000E+00 0.  1.
<mgrwt>
<rscale>  0 0.14997177E+04</rscale>
<asrwt>0</asrwt>
<pdfrwt beam="1">  1        2 0.23709318E+00 0.14997177E+04</pdfrwt>
<pdfrwt beam="2">  1       -3 0.56132357E-01 0.14997177E+04</pdfrwt>
<totfact> 0.23235999E+01</totfact>
</mgrwt>
</event>
<event>
12    7  0.1611233E-007  0.1812850E+04  0.7818608E-02  0.8699496E-01
         -1   -1    0    0    0  501 -0.00000000000E+00  0.00000000000E+00  0.27030764770E+03  0.27030764770E+03  0.00000000000E+00 0.  1.
          2   -1    0    0  501    0  0.00000000000E+00 -0.00000000000E+00 -0.30395219869E+04  0.30395219869E+04  0.00000000000E+00 0. -1.
         24    2    1    2    0    0 -0.58711432189E+03  0.82854466399E+02 -0.16940154184E+04  0.17964645997E+04  0.77644902177E+02 0.  0.
        254    2    1    2    0    0  0.58711432189E+03 -0.82854466399E+02 -0.10751989208E+04  0.15133650349E+04  0.88467673184E+03 0.  0.
         23    2    4    4    0    0  0.74472545392E+03  0.11134680186E+03 -0.96189226429E+03  0.12248761324E+04  0.89837072371E+02 0.  0.
         23    2    4    4    0    0 -0.15761113203E+03 -0.19420126826E+03 -0.11330665654E+03  0.28848890249E+03  0.88498852615E+02 0.  0.
          2    1    3    3  502    0 -0.22372049131E+03  0.46013313869E+02 -0.75965540131E+03  0.79324927484E+03  0.00000000000E+00 0. -1.
         -1    1    3    3    0  502 -0.36339383058E+03  0.36841152530E+02 -0.93436001706E+03  0.10032153249E+04  0.00000000000E+00 0.  1.
         13    1    5    5    0    0  0.48181594209E+03  0.11344845706E+03 -0.64775607851E+03  0.81523315174E+03  0.00000000000E+00 0. -1.
        -13    1    5    5    0    0  0.26290951183E+03 -0.21016551991E+01 -0.31413618578E+03  0.40964298064E+03  0.00000000000E+00 0.  1.
          4    1    6    6  503    0 -0.28719737973E+02 -0.10068599389E+03 -0.30780400075E+02  0.10913260624E+03  0.00000000000E+00 0. -1.
         -4    1    6    6    0  503 -0.12889139405E+03 -0.93515274364E+02 -0.82526256460E+02  0.17935629625E+03  0.00000000000E+00 0.  1.
<mgrwt>
<rscale>  0 0.18128497E+04</rscale>
<asrwt>0</asrwt>
<pdfrwt beam="1">  1        2 0.46761878E+00 0.18128497E+04</pdfrwt>
<pdfrwt beam="2">  1       -1 0.41585791E-01 0.18128497E+04</pdfrwt>
<totfact> 0.10050759E+01</totfact>
</mgrwt>
</event>
<event>
12    7  0.1611233E-007  0.3413089E+04  0.7818608E-02  0.8134701E-01
         -1   -1    0    0    0  501 -0.00000000000E+00  0.00000000000E+00  0.11906487248E+04  0.11906487248E+04  0.00000000000E+00 0.  1.
          2   -1    0    0  501    0  0.00000000000E+00 -0.00000000000E+00 -0.24459724917E+04  0.24459724917E+04  0.00000000000E+00 0. -1.
         24    2    1    2    0    0 -0.13688837566E+04 -0.52903179416E+03 -0.12373985867E+04  0.19212142227E+04  0.78685761998E+02 0.  0.
        254    2    1    2    0    0  0.13688837566E+04  0.52903179416E+03 -0.17925180213E+02  0.17154069938E+04  0.88802165742E+03 0.  0.
         23    2    4    4    0    0  0.94236589157E+02  0.37710082402E+03  0.13118824796E+03  0.42015093809E+03  0.90724242407E+02 0.  0.
         23    2    4    4    0    0  0.12746471674E+04  0.15193097014E+03 -0.14911342817E+03  0.12952560557E+04  0.87435772524E+02 0.  0.
          2    1    3    3  502    0 -0.39875652510E+03 -0.16700833250E+03 -0.32092367791E+03  0.53841485537E+03  0.00000000000E+00 0. -1.
         -1    1    3    3    0  502 -0.97012723145E+03 -0.36202346166E+03 -0.91647490875E+03  0.13827993674E+04  0.00000000000E+00 0.  1.
         13    1    5    5    0    0  0.52492680001E+00  0.16478668796E+03  0.32491930834E+02  0.16796027401E+03  0.00000000000E+00 0.  1.
        -13    1    5    5    0    0  0.93711662357E+02  0.21231413606E+03  0.98696317124E+02  0.25219066408E+03  0.00000000000E+00 0. -1.
          3    1    6    6  503    0  0.68250716252E+03  0.88978491962E+02 -0.12315105846E+03  0.69921340242E+03  0.00000000000E+00 0. -1.
         -3    1    6    6    0  503  0.59214000487E+03  0.62952478173E+02 -0.25962369709E+02  0.59604265327E+03  0.00000000000E+00 0.  1.
<mgrwt>
<rscale>  0 0.34130889E+04</rscale>
<asrwt>0</asrwt>
<pdfrwt beam="1">  1        2 0.37630346E+00 0.34130889E+04</pdfrwt>
<pdfrwt beam="2">  1       -1 0.18317673E+00 0.34130889E+04</pdfrwt>
<totfact> 0.69473686E-01</totfact>
</mgrwt>
</event>
<event>
12    7  0.1611233E-007  0.1427684E+04  0.7818608E-02  0.8934020E-01
          2   -1    0    0  501    0  0.00000000000E+00  0.00000000000E+00  0.17707060847E+04  0.17707060847E+04  0.00000000000E+00 0. -1.
         -1   -1    0    0    0  501 -0.00000000000E+00 -0.00000000000E+00 -0.28777813963E+03  0.28777813963E+03  0.00000000000E+00 0.  1.
         24    2    1    2    0    0 -0.10245720194E+03  0.37290037827E+03  0.10390928513E+04  0.11103708475E+04  0.60475573383E+02 0.  0.
        254    2    1    2    0    0  0.10245720194E+03 -0.37290037827E+03  0.44383509370E+03  0.94811337677E+03  0.74322083829E+03 0.  0.
         23    2    4    4    0    0  0.37417294976E+03 -0.38877353308E+03  0.33588682885E+03  0.64202958661E+03  0.90729112910E+02 0.  0.
         23    2    4    4    0    0 -0.27171574782E+03  0.15873154809E+02  0.10794826485E+03  0.30608379016E+03  0.89179897195E+02 0.  0.
          4    1    3    3  502    0 -0.28291469613E+02  0.15806443076E+03  0.50549492597E+03  0.53038654933E+03  0.00000000000E+00 0. -1.
         -3    1    3    3    0  502 -0.74165732328E+02  0.21483594751E+03  0.53359792537E+03  0.57998429819E+03  0.00000000000E+00 0.  1.
         13    1    5    5    0    0  0.34054141405E+03 -0.36298878922E+03  0.33439606966E+03  0.59962492209E+03  0.00000000000E+00 0.  1.
        -13    1    5    5    0    0  0.33631535706E+02 -0.25784743861E+02  0.14907591859E+01  0.42404664518E+02  0.00000000000E+00 0. -1.
          3    1    6    6  503    0 -0.98195623487E+02  0.23109914861E+02 -0.13403425128E+01  0.10088728936E+03  0.00000000000E+00 0. -1.
         -3    1    6    6    0  503 -0.17352012433E+03 -0.72367600518E+01  0.10928860736E+03  0.20519650080E+03  0.00000000000E+00 0.  1.
<mgrwt>
<rscale>  0 0.14276841E+04</rscale>
<asrwt>0</asrwt>
<pdfrwt beam="1">  1        2 0.27241631E+00 0.14276841E+04</pdfrwt>
<pdfrwt beam="2">  1       -1 0.44273561E-01 0.14276841E+04</pdfrwt>
<totfact> 0.50048050E+01</totfact>
</mgrwt>
</event>
<event>
12    7  0.1611233E-007  0.1527623E+04  0.7818608E-02  0.8866289E-01
         -1   -1    0    0    0  501 -0.00000000000E+00  0.00000000000E+00  0.98764472764E+03  0.98764472764E+03  0.00000000000E+00 0.  1.
          2   -1    0    0  501    0  0.00000000000E+00 -0.00000000000E+00 -0.59070618037E+03  0.59070618037E+03  0.00000000000E+00 0. -1.
         24    2    1    2    0    0  0.28256442218E+03  0.94221121028E+02 -0.27599590983E+03  0.41382522782E+03  0.79732707273E+02 0.  0.
        254    2    1    2    0    0 -0.28256442218E+03 -0.94221121028E+02  0.67293445710E+03  0.11645256802E+04  0.90252922609E+03 0.  0.
         23    2    4    4    0    0 -0.15277714887E+03 -0.30282856103E+03 -0.86339349712E+02  0.36171846984E+03  0.91322360473E+02 0.  0.
         23    2    4    4    0    0 -0.12978727330E+03  0.20860744000E+03  0.75927380681E+03  0.80280721035E+03  0.87412258538E+02 0.  0.
          4    1    3    3  502    0  0.23330612928E+03  0.48471093916E+02 -0.19057487544E+03  0.30512289337E+03  0.00000000000E+00 0. -1.
         -3    1    3    3    0  502  0.49258292894E+02  0.45750027112E+02 -0.85421034391E+02  0.10870233446E+03  0.00000000000E+00 0.  1.
         13    1    5    5    0    0 -0.15673242655E+03 -0.24473480324E+03 -0.87408144718E+02  0.30348041323E+03  0.00000000000E+00 0. -1.
        -13    1    5    5    0    0  0.39552776747E+01 -0.58093757789E+02  0.10687950059E+01  0.58238056615E+02  0.00000000000E+00 0.  1.
          3    1    6    6  503    0 -0.12782238454E+03  0.17594236991E+03  0.71754908137E+03  0.74978061037E+03  0.00000000000E+00 0. -1.
         -3    1    6    6    0  503 -0.19648887667E+01  0.32665070088E+02  0.41724725447E+02  0.53026599979E+02  0.00000000000E+00 0.  1.
<mgrwt>
<rscale>  0 0.15276228E+04</rscale>
<asrwt>0</asrwt>
<pdfrwt beam="1">  1        2 0.90877874E-01 0.15276228E+04</pdfrwt>
<pdfrwt beam="2">  1       -1 0.15194534E+00 0.15276228E+04</pdfrwt>
<totfact> 0.18763550E+01</totfact>
</mgrwt>
</event>
<event>
12    7  0.1611233E-007  0.1172772E+04  0.7818608E-02  0.9137029E-01
          2   -1    0    0  501    0  0.00000000000E+00  0.00000000000E+00  0.97853496447E+03  0.97853496447E+03  0.00000000000E+00 0. -1.
         -1   -1    0    0    0  501 -0.00000000000E+00 -0.00000000000E+00 -0.35139111775E+03  0.35139111775E+03  0.00000000000E+00 0.  1.
         24    2    1    2    0    0 -0.12559561059E+03  0.16921532242E+03  0.21473878158E+03  0.31100325963E+03  0.78754050323E+02 0.  0.
        254    2    1    2    0    0  0.12559561059E+03 -0.16921532242E+03  0.41240506513E+03  0.10189228226E+04  0.90758894766E+03 0.  0.
         23    2    4    4    0    0 -0.72776785338E+02 -0.50542295407E+03  0.31225523191E+03  0.60546234305E+03  0.91282506626E+02 0.  0.
         23    2    4    4    0    0  0.19837239593E+03  0.33620763165E+03  0.10014983322E+03  0.41346047954E+03  0.92370991102E+02 0.  0.
          4    1    3    3  502    0 -0.86283756618E+02  0.97252613063E+02  0.17977421752E+03  0.22185970046E+03  0.00000000000E+00 0. -1.
         -3    1    3    3    0  502 -0.39311853972E+02  0.71962709358E+02  0.34964564061E+02  0.89143559166E+02  0.00000000000E+00 0.  1.
         13    1    5    5    0    0 -0.86218035900E+01 -0.13704518452E+02  0.31994783525E+02  0.35858269562E+02  0.00000000000E+00 0. -1.
        -13    1    5    5    0    0 -0.64154981748E+02 -0.49171843562E+03  0.28026044838E+03  0.56960407349E+03  0.00000000000E+00 0.  1.
          1    1    6    6  503    0  0.15414291682E+02  0.62779885652E+01 -0.11255730607E+02  0.20092411503E+02  0.00000000000E+00 0. -1.
         -1    1    6    6    0  503  0.18295810425E+03  0.32992964309E+03  0.11140556383E+03  0.39336806803E+03  0.00000000000E+00 0.  1.
<mgrwt>
<rscale>  0 0.11727719E+04</rscale>
<asrwt>0</asrwt>
<pdfrwt beam="1">  1        2 0.15054384E+00 0.11727719E+04</pdfrwt>
<pdfrwt beam="2">  1       -1 0.54060172E-01 0.11727719E+04</pdfrwt>
<totfact> 0.10129052E+02</totfact>
</mgrwt>
</event>
<event>
12    7  0.1611233E-007  0.1961319E+04  0.7818608E-02  0.8624922E-01
          2   -1    0    0  501    0  0.00000000000E+00  0.00000000000E+00  0.13140164596E+04  0.13140164596E+04  0.00000000000E+00 0. -1.
         -1   -1    0    0    0  501 -0.00000000000E+00 -0.00000000000E+00 -0.73187256631E+03  0.73187256631E+03  0.00000000000E+00 0.  1.
         24    2    1    2    0    0 -0.52889818043E+03  0.45961590727E+02 -0.37220134132E+03  0.65453655189E+03  0.89657716827E+02 0.  0.
        254    2    1    2    0    0  0.52889818043E+03 -0.45961590727E+02  0.95434523463E+03  0.13913524740E+04  0.86211433526E+03 0.  0.
         23    2    4    4    0    0  0.22821961910E+02 -0.26343050185E+03  0.74361693791E+03  0.79455998060E+03  0.91885478542E+02 0.  0.
         23    2    4    4    0    0  0.50607621852E+03  0.21746891112E+03  0.21072829672E+03  0.59679249344E+03  0.91372856650E+02 0.  0.
          2    1    3    3  502    0 -0.30571705803E+02  0.12436532665E+02 -0.24191909664E+01  0.33093035904E+02  0.00000000000E+00 0. -1.
         -1    1    3    3    0  502 -0.49832647463E+03  0.33525058062E+02 -0.36978215036E+03  0.62144351598E+03  0.00000000000E+00 0.  1.
         13    1    5    5    0    0 -0.32527849097E+02 -0.13851426013E+03  0.34548688929E+03  0.37363812960E+03  0.00000000000E+00 0. -1.
        -13    1    5    5    0    0  0.55349811007E+02 -0.12491624172E+03  0.39813004862E+03  0.42092185099E+03  0.00000000000E+00 0.  1.
          4    1    6    6  503    0  0.10144629807E+03  0.81524496066E+02  0.67071162900E+02  0.14641084572E+03  0.00000000000E+00 0. -1.
         -4    1    6    6    0  503  0.40462992045E+03  0.13594441506E+03  0.14365713382E+03  0.45038164773E+03  0.00000000000E+00 0.  1.
<mgrwt>
<rscale>  0 0.19613185E+04</rscale>
<asrwt>0</asrwt>
<pdfrwt beam="1">  1        2 0.20215638E+00 0.19613185E+04</pdfrwt>
<pdfrwt beam="2">  1       -1 0.11259578E+00 0.19613185E+04</pdfrwt>
<totfact> 0.12444349E+01</totfact>
</mgrwt>
</event>
<event>
12    7  0.1611233E-007  0.1814387E+04  0.7818608E-02  0.8698686E-01
         -1   -1    0    0    0  501 -0.00000000000E+00  0.00000000000E+00  0.34679698192E+03  0.34679698192E+03  0.00000000000E+00 0.  1.
          2   -1    0    0  501    0  0.00000000000E+00 -0.00000000000E+00 -0.23731461598E+04  0.23731461598E+04  0.00000000000E+00 0. -1.
         24    2    1    2    0    0 -0.23566426176E+02  0.11469385925E+03 -0.17731218213E+04  0.17788105476E+04  0.80597228161E+02 0.  0.
        254    2    1    2    0    0  0.23566426176E+02 -0.11469385925E+03 -0.25322735661E+03  0.94113259417E+03  0.89883057796E+03 0.  0.
         23    2    4    4    0    0  0.44239561722E+03 -0.12856567221E+03 -0.19047074960E+03  0.50761997675E+03  0.95686572372E+02 0.  0.
         23    2    4    4    0    0 -0.41882919105E+03  0.13871812963E+02 -0.62756607011E+02  0.43351261742E+03  0.91566802249E+02 0.  0.
          4    1    3    3  502    0 -0.47259148216E+02  0.46302293318E+02 -0.64986481413E+03  0.65322400913E+03  0.00000000000E+00 0. -1.
         -3    1    3    3    0  502  0.23692722040E+02  0.68391565932E+02 -0.11232570072E+04  0.11255865385E+04  0.00000000000E+00 0.  1.
         13    1    5    5    0    0  0.39303209896E+03 -0.11505002745E+03 -0.19968823701E+03  0.45561621090E+03  0.00000000000E+00 0. -1.
        -13    1    5    5    0    0  0.49363518262E+02 -0.13515644763E+02  0.92174874160E+01  0.52003765852E+02  0.00000000000E+00 0.  1.
          4    1    6    6  503    0 -0.35221754719E+02  0.14369177464E+02  0.17058026686E+02  0.41689585521E+02  0.00000000000E+00 0. -1.
         -4    1    6    6    0  503 -0.38360743633E+03 -0.49736450159E+00 -0.79814633697E+02  0.39182303190E+03  0.00000000000E+00 0.  1.
<mgrwt>
<rscale>  0 0.18143869E+04</rscale>
<asrwt>0</asrwt>
<pdfrwt beam="1">  1        2 0.36509941E+00 0.18143869E+04</pdfrwt>
<pdfrwt beam="2">  1       -1 0.53353382E-01 0.18143869E+04</pdfrwt>
<totfact> 0.15682703E+01</totfact>
</mgrwt>
</event>
<event>
12    7  0.1611233E-007  0.2874977E+04  0.7818608E-02  0.8280362E-01
         -1   -1    0    0    0  501 -0.00000000000E+00  0.00000000000E+00  0.19738515942E+04  0.19738515942E+04  0.00000000000E+00 0.  1.
          2   -1    0    0  501    0  0.00000000000E+00 -0.00000000000E+00 -0.10468738279E+04  0.10468738279E+04  0.00000000000E+00 0. -1.
         24    2    1    2    0    0 -0.12621174129E+04  0.11446384382E+02  0.10376477658E+03  0.12687044946E+04  0.75977511393E+02 0.  0.
        254    2    1    2    0    0  0.12621174129E+04 -0.11446384382E+02  0.82321298966E+03  0.17520209275E+04  0.89377084338E+03 0.  0.
         23    2    4    4    0    0 -0.19971661665E+02  0.20322014022E+03  0.22793690126E+03  0.31928788095E+03  0.91061667577E+02 0.  0.
         23    2    4    4    0    0  0.12820890745E+04 -0.21466652460E+03  0.59527608840E+03  0.14327330465E+04  0.92391825639E+02 0.  0.
          2    1    3    3  502    0 -0.58690193844E+03  0.35187267485E+01  0.10283620572E+02  0.58700257208E+03  0.00000000000E+00 0. -1.
         -1    1    3    3    0  502 -0.67521547442E+03  0.79276576339E+01  0.93481156011E+02  0.68170192253E+03  0.00000000000E+00 0.  1.
         13    1    5    5    0    0  0.22764844289E+02  0.16316991607E+03  0.16121372991E+03  0.23050493781E+03  0.00000000000E+00 0.  1.
        -13    1    5    5    0    0 -0.42736505954E+02  0.40050224147E+02  0.66723171359E+02  0.88782943134E+02  0.00000000000E+00 0. -1.
          4    1    6    6  503    0  0.11284782917E+04 -0.15829050170E+03  0.52507794171E+03  0.12546816260E+04  0.00000000000E+00 0. -1.
         -4    1    6    6    0  503  0.15361078286E+03 -0.56376022901E+02  0.70198146690E+02  0.17805142057E+03  0.00000000000E+00 0.  1.
<mgrwt>
<rscale>  0 0.28749773E+04</rscale>
<asrwt>0</asrwt>
<pdfrwt beam="1">  1        2 0.16105751E+00 0.28749773E+04</pdfrwt>
<pdfrwt beam="2">  1       -1 0.30366948E+00 0.28749773E+04</pdfrwt>
<totfact> 0.72450086E-01</totfact>
</mgrwt>
</event>
<event>
12    7  0.1611233E-007  0.1298911E+04  0.7818608E-02  0.9030429E-01
          2   -1    0    0  501    0  0.00000000000E+00  0.00000000000E+00  0.17425245447E+04  0.17425245447E+04  0.00000000000E+00 0. -1.
         -1   -1    0    0    0  501 -0.00000000000E+00 -0.00000000000E+00 -0.24205841644E+03  0.24205841644E+03  0.00000000000E+00 0.  1.
         24    2    1    2    0    0 -0.65262773518E+02 -0.26626800314E+03  0.12335327044E+03  0.31339925752E+03  0.88573055635E+02 0.  0.
        254    2    1    2    0    0  0.65262773518E+02  0.26626800314E+03  0.13771128578E+04  0.16711837036E+04  0.90623245856E+03 0.  0.
         23    2    4    4    0    0 -0.34509228389E+03  0.99509639356E+02  0.10486544132E+04  0.11124299573E+04  0.93986588219E+02 0.  0.
         23    2    4    4    0    0  0.41035505740E+03  0.16675836378E+03  0.32845844456E+03  0.55875374630E+03  0.90117557508E+02 0.  0.
          4    1    3    3  502    0 -0.49705746543E+02 -0.74716331083E+02  0.70390062451E+02  0.11405241015E+03  0.00000000000E+00 0. -1.
         -3    1    3    3    0  502 -0.15557026976E+02 -0.19155167206E+03  0.52963207991E+02  0.19934684737E+03  0.00000000000E+00 0.  1.
         13    1    5    5    0    0 -0.24967145302E+03  0.50951840556E+02  0.84162299027E+03  0.87935270641E+03  0.00000000000E+00 0. -1.
        -13    1    5    5    0    0 -0.95420830862E+02  0.48557798800E+02  0.20703142296E+03  0.23307725088E+03  0.00000000000E+00 0.  1.
          2    1    6    6  503    0  0.33056814424E+03  0.95836996091E+02  0.23380625949E+03  0.41608339883E+03  0.00000000000E+00 0. -1.
         -2    1    6    6    0  503  0.79786913160E+02  0.70921367693E+02  0.94652185076E+02  0.14267034747E+03  0.00000000000E+00 0.  1.
<mgrwt>
<rscale>  0 0.12989114E+04</rscale>
<asrwt>0</asrwt>
<pdfrwt beam="1">  1        2 0.26808069E+00 0.12989114E+04</pdfrwt>
<pdfrwt beam="2">  1       -1 0.37239758E-01 0.12989114E+04</pdfrwt>
<totfact> 0.71960289E+01</totfact>
</mgrwt>
</event>
<event>
12    7  0.1611233E-007  0.1752019E+04  0.7818608E-02  0.8732240E-01
         -1   -1    0    0    0  501 -0.00000000000E+00  0.00000000000E+00  0.32524866694E+03  0.32524866694E+03  0.00000000000E+00 0.  1.
          2   -1    0    0  501    0  0.00000000000E+00 -0.00000000000E+00 -0.23594027087E+04  0.23594027087E+04  0.00000000000E+00 0. -1.
         24    2    1    2    0    0  0.25139105075E+03  0.18693398593E+03 -0.16162446401E+04  0.16481805218E+04  0.78169815977E+02 0.  0.
        254    2    1    2    0    0 -0.25139105075E+03 -0.18693398593E+03 -0.41790940164E+03  0.10364708539E+04  0.89525515215E+03 0.  0.
         23    2    4    4    0    0 -0.48464033611E+03  0.42804035837E+02  0.35271411525E+01  0.49499979559E+03  0.91125825349E+02 0.  0.
         23    2    4    4    0    0  0.23324928536E+03 -0.22973802176E+03 -0.42143654279E+03  0.54147105828E+03  0.91637108152E+02 0.  0.
          2    1    3    3  502    0  0.23910695118E+03  0.14614242854E+03 -0.13931065650E+04  0.14210121903E+04  0.00000000000E+00 0. -1.
         -1    1    3    3    0  502  0.12284099576E+02  0.40791557391E+02 -0.22313807510E+03  0.22716833146E+03  0.00000000000E+00 0.  1.
         13    1    5    5    0    0 -0.19797073070E+03  0.58605589292E+02  0.19956164291E+02  0.20742534514E+03  0.00000000000E+00 0.  1.
        -13    1    5    5    0    0 -0.28666960540E+03 -0.15801553455E+02 -0.16429023139E+02  0.28757445046E+03  0.00000000000E+00 0. -1.
          1    1    6    6  503    0  0.74735447544E+01  0.78512179911E+01 -0.23907755805E+02  0.26250262528E+02  0.00000000000E+00 0. -1.
         -1    1    6    6    0  503  0.22577574060E+03 -0.23758923976E+03 -0.39752878699E+03  0.51522079575E+03  0.00000000000E+00 0.  1.
<mgrwt>
<rscale>  0 0.17520189E+04</rscale>
<asrwt>0</asrwt>
<pdfrwt beam="1">  1        2 0.36298503E+00 0.17520189E+04</pdfrwt>
<pdfrwt beam="2">  1       -1 0.50038256E-01 0.17520189E+04</pdfrwt>
<totfact> 0.18154871E+01</totfact>
</mgrwt>
</event>
<event>
12    7  0.1611233E-007  0.1693487E+04  0.7818608E-02  0.8765088E-01
         -1   -1    0    0    0  501 -0.00000000000E+00  0.00000000000E+00  0.15648714218E+04  0.15648714218E+04  0.00000000000E+00 0.  1.
          2   -1    0    0  501    0  0.00000000000E+00 -0.00000000000E+00 -0.45816828677E+03  0.45816828677E+03  0.00000000000E+00 0. -1.
         24    2    1    2    0    0 -0.23742491264E+03  0.53518067738E+03  0.60202614341E+03  0.84370014220E+03  0.81274264141E+02 0.  0.
        254    2    1    2    0    0  0.23742491264E+03 -0.53518067738E+03  0.50467699159E+03  0.11793395663E+04  0.89070421595E+03 0.  0.
         23    2    4    4    0    0 -0.42889353437E+02 -0.59261337712E+02  0.59978466405E+03  0.61103567790E+03  0.90948082155E+02 0.  0.
         23    2    4    4    0    0  0.28031426607E+03 -0.47591933967E+03 -0.95107672461E+02  0.56830388844E+03  0.94066649908E+02 0.  0.
          2    1    3    3  502    0 -0.76497556364E+02  0.14724198587E+03  0.22305634589E+03  0.27800397834E+03  0.00000000000E+00 0. -1.
         -1    1    3    3    0  502 -0.16092735627E+03  0.38793869150E+03  0.37896979752E+03  0.56569616385E+03  0.00000000000E+00 0.  1.
         13    1    5    5    0    0 -0.61412606799E+02 -0.71217038784E+02  0.50885313456E+03  0.51746969712E+03  0.00000000000E+00 0.  1.
        -13    1    5    5    0    0  0.18523253361E+02  0.11955701071E+02  0.90931529491E+02  0.93565980777E+02  0.00000000000E+00 0. -1.
          4    1    6    6  503    0  0.12162831394E+03 -0.29789040145E+03 -0.51304185278E+02  0.32582857066E+03  0.00000000000E+00 0. -1.
         -4    1    6    6    0  503  0.15868595213E+03 -0.17802893821E+03 -0.43803487183E+02  0.24247531778E+03  0.00000000000E+00 0.  1.
<mgrwt>
<rscale>  0 0.16934869E+04</rscale>
<asrwt>0</asrwt>
<pdfrwt beam="1">  1        2 0.70487430E-01 0.16934869E+04</pdfrwt>
<pdfrwt beam="2">  1       -1 0.24074945E+00 0.16934869E+04</pdfrwt>
<totfact> 0.59443371E+00</totfact>
</mgrwt>
</event>
<event>
12    7  0.1611233E-007  0.1114950E+04  0.7818608E-02  0.9190742E-01
          2   -1    0    0  501    0  0.00000000000E+00  0.00000000000E+00  0.22997555381E+03  0.22997555381E+03  0.00000000000E+00 0. -1.
         -1   -1    0    0    0  501 -0.00000000000E+00 -0.00000000000E+00 -0.13513532106E+04  0.13513532106E+04  0.00000000000E+00 0.  1.
         24    2    1    2    0    0 -0.85790391211E+02 -0.17537944193E+02 -0.41260589066E+03  0.42909052347E+03  0.78787598062E+02 0.  0.
        254    2    1    2    0    0  0.85790391211E+02  0.17537944193E+02 -0.70877176608E+03  0.11522382409E+04  0.90422783449E+03 0.  0.
         23    2    4    4    0    0  0.29762637083E+03  0.34808334087E+03 -0.54411000382E+03  0.71702729787E+03  0.91263250173E+02 0.  0.
         23    2    4    4    0    0 -0.21183597962E+03 -0.33054539668E+03 -0.16466176226E+03  0.43521094302E+03  0.90334530737E+02 0.  0.
          4    1    3    3  502    0  0.66729075366E+00  0.22081812325E+02 -0.62146940831E+02  0.65956758313E+02  0.00000000000E+00 0. -1.
         -3    1    3    3    0  502 -0.86457681965E+02 -0.39619756518E+02 -0.35045894983E+03  0.36313376515E+03  0.00000000000E+00 0.  1.
         13    1    5    5    0    0 -0.17877856531E+01  0.11476171360E+01  0.27894271799E+01  0.35062952848E+01  0.00000000000E+00 0.  1.
        -13    1    5    5    0    0  0.29941415649E+03  0.34693572373E+03 -0.54689943100E+03  0.71352100259E+03  0.00000000000E+00 0. -1.
          2    1    6    6  503    0 -0.21650501139E+03 -0.33089492683E+03 -0.16781406241E+03  0.42956656306E+03  0.00000000000E+00 0. -1.
         -2    1    6    6    0  503  0.46690317644E+01  0.34953014826E+00  0.31523001446E+01  0.56443799609E+01  0.00000000000E+00 0.  1.
<mgrwt>
<rscale>  0 0.11149497E+04</rscale>
<asrwt>0</asrwt>
<pdfrwt beam="1">  1        2 0.35380854E-01 0.11149497E+04</pdfrwt>
<pdfrwt beam="2">  1       -1 0.20790049E+00 0.11149497E+04</pdfrwt>
<totfact> 0.22369651E+01</totfact>
</mgrwt>
</event>
<event>
12    7  0.1611233E-007  0.1643913E+04  0.7818608E-02  0.8794016E-01
         -1   -1    0    0    0  501 -0.00000000000E+00  0.00000000000E+00  0.25262147108E+03  0.25262147108E+03  0.00000000000E+00 0.  1.
          2   -1    0    0  501    0  0.00000000000E+00 -0.00000000000E+00 -0.26744066723E+04  0.26744066723E+04  0.00000000000E+00 0. -1.
         24    2    1    2    0    0 -0.19053675050E+03  0.52257380475E+03 -0.11461681269E+04  0.12763218062E+04  0.76865747006E+02 0.  0.
        254    2    1    2    0    0  0.19053675050E+03 -0.52257380475E+03 -0.12756170743E+04  0.16507063372E+04  0.88783154746E+03 0.  0.
         23    2    4    4    0    0  0.46841642173E+03 -0.35909017881E+02 -0.58532858246E+03  0.75695796490E+03  0.98348408572E+02 0.  0.
         23    2    4    4    0    0 -0.27787967124E+03 -0.48666478687E+03 -0.69028849181E+03  0.89374837226E+03  0.90709561357E+02 0.  0.
          4    1    3    3  502    0 -0.13067498357E+03  0.37205988810E+03 -0.72923010503E+03  0.82902415993E+03  0.00000000000E+00 0. -1.
         -3    1    3    3    0  502 -0.59861766934E+02  0.15051391666E+03 -0.41693802189E+03  0.44729764626E+03  0.00000000000E+00 0.  1.
         13    1    5    5    0    0  0.44639483170E+03 -0.33409963800E+02 -0.51074070313E+03  0.67914699240E+03  0.00000000000E+00 0. -1.
        -13    1    5    5    0    0  0.22021590030E+02 -0.24990540812E+01 -0.74587879327E+02  0.77810972499E+02  0.00000000000E+00 0.  1.
          1    1    6    6  503    0 -0.15132524805E+03 -0.17797614543E+03 -0.26653470642E+03  0.35442289538E+03  0.00000000000E+00 0. -1.
         -1    1    6    6    0  503 -0.12655442318E+03 -0.30868864144E+03 -0.42375378539E+03  0.53932547688E+03  0.00000000000E+00 0.  1.
<mgrwt>
<rscale>  0 0.16439131E+04</rscale>
<asrwt>0</asrwt>
<pdfrwt beam="1">  1        2 0.41144715E+00 0.16439131E+04</pdfrwt>
<pdfrwt beam="2">  1       -1 0.38864844E-01 0.16439131E+04</pdfrwt>
<totfact> 0.19272507E+01</totfact>
</mgrwt>
</event>
<event>
12    7  0.1611233E-007  0.1710028E+04  0.7818608E-02  0.8755665E-01
          2   -1    0    0  501    0  0.00000000000E+00  0.00000000000E+00  0.13884976122E+04  0.13884976122E+04  0.00000000000E+00 0. -1.
         -1   -1    0    0    0  501 -0.00000000000E+00 -0.00000000000E+00 -0.52650371841E+03  0.52650371841E+03  0.00000000000E+00 0.  1.
         24    2    1    2    0    0  0.59838016682E+03  0.13312377667E+03  0.33081869754E+03  0.70089147297E+03  0.77634285469E+02 0.  0.
        254    2    1    2    0    0 -0.59838016682E+03 -0.13312377667E+03  0.53117519623E+03  0.12141098576E+04  0.90340184488E+03 0.  0.
         23    2    4    4    0    0  0.14964426182E+03  0.86057294548E+02  0.35959332519E+03  0.41078628674E+03  0.98177139948E+02 0.  0.
         23    2    4    4    0    0 -0.74802442865E+03 -0.21918107122E+03  0.17158187104E+03  0.80332357089E+03  0.91145670466E+02 0.  0.
          2    1    3    3  502    0  0.12383909603E+03  0.54393204068E+02  0.52073040427E+02  0.14493565432E+03  0.00000000000E+00 0. -1.
         -1    1    3    3    0  502  0.47454107079E+03  0.78730572604E+02  0.27874565711E+03  0.55595581865E+03  0.00000000000E+00 0.  1.
         13    1    5    5    0    0  0.99361760228E+01  0.95960805526E+01 -0.35429451855E+01  0.14260603652E+02  0.00000000000E+00 0.  1.
        -13    1    5    5    0    0  0.13970808580E+03  0.76461213996E+02  0.36313627038E+03  0.39652568309E+03  0.00000000000E+00 0. -1.
          4    1    6    6  503    0 -0.53033389676E+03 -0.11464519420E+03  0.10287412283E+03  0.55225052988E+03  0.00000000000E+00 0. -1.
         -4    1    6    6    0  503 -0.21769053189E+03 -0.10453587702E+03  0.68707748212E+02  0.25107304101E+03  0.00000000000E+00 0.  1.
<mgrwt>
<rscale>  0 0.17100283E+04</rscale>
<asrwt>0</asrwt>
<pdfrwt beam="1">  1        2 0.21361502E+00 0.17100283E+04</pdfrwt>
<pdfrwt beam="2">  1       -1 0.81000572E-01 0.17100283E+04</pdfrwt>
<totfact> 0.24185990E+01</totfact>
</mgrwt>
</event>
<event>
12    7  0.1611233E-007  0.2234219E+04  0.7818608E-02  0.8504319E-01
          2   -1    0    0  501    0  0.00000000000E+00  0.00000000000E+00  0.14104623287E+04  0.14104623287E+04  0.00000000000E+00 0. -1.
         -1   -1    0    0    0  501 -0.00000000000E+00 -0.00000000000E+00 -0.88476956988E+03  0.88476956988E+03  0.00000000000E+00 0.  1.
         24    2    1    2    0    0 -0.11255993794E+02  0.82588200649E+03 -0.23565245248E+03  0.86263245545E+03  0.79968048588E+02 0.  0.
        254    2    1    2    0    0  0.11255993794E+02 -0.82588200649E+03  0.76134521130E+03  0.14325994431E+04  0.88909327275E+03 0.  0.
         23    2    4    4    0    0  0.36738385192E+03 -0.14863889228E+03  0.10881338749E+03  0.42281889092E+03  0.99353139225E+02 0.  0.
         23    2    4    4    0    0 -0.35612785813E+03 -0.67724311421E+03  0.65253182381E+03  0.10097805522E+04  0.91507898252E+02 0.  0.
          4    1    3    3  502    0  0.44770129362E+01  0.37891799846E+03 -0.14836470818E+03  0.40695328950E+03  0.00000000000E+00 0. -1.
         -3    1    3    3    0  502 -0.15733006730E+02  0.44696400803E+03 -0.87287744297E+02  0.45567916595E+03  0.00000000000E+00 0.  1.
         13    1    5    5    0    0  0.10560905550E+03 -0.21551456679E+02  0.71730456468E+02  0.12947199030E+03  0.00000000000E+00 0.  1.
        -13    1    5    5    0    0  0.26177479642E+03 -0.12708743560E+03  0.37082931023E+02  0.29334690062E+03  0.00000000000E+00 0. -1.
          4    1    6    6  503    0 -0.49238283455E+02 -0.13341750023E+03  0.16306140965E+03  0.21636464878E+03  0.00000000000E+00 0. -1.
         -4    1    6    6    0  503 -0.30688957467E+03 -0.54382561398E+03  0.48947041416E+03  0.79341590342E+03  0.00000000000E+00 0.  1.
<mgrwt>
<rscale>  0 0.22342195E+04</rscale>
<asrwt>0</asrwt>
<pdfrwt beam="1">  1        2 0.21699421E+00 0.22342195E+04</pdfrwt>
<pdfrwt beam="2">  1       -1 0.13611839E+00 0.22342195E+04</pdfrwt>
<totfact> 0.66849920E+00</totfact>
</mgrwt>
</event>
<event>
12    7  0.1611233E-007  0.2183132E+04  0.7818608E-02  0.8525482E-01
         -1   -1    0    0    0  501 -0.00000000000E+00  0.00000000000E+00  0.15325128238E+04  0.15325128238E+04  0.00000000000E+00 0.  1.
          2   -1    0    0  501    0  0.00000000000E+00 -0.00000000000E+00 -0.77749197567E+03  0.77749197567E+03  0.00000000000E+00 0. -1.
         24    2    1    2    0    0  0.33019802417E+02 -0.52656036214E+03 -0.46034978325E+03  0.70452836310E+03  0.77988262872E+02 0.  0.
        254    2    1    2    0    0 -0.33019802417E+02  0.52656036214E+03  0.12153706313E+04  0.16054764363E+04  0.90668224520E+03 0.  0.
         23    2    4    4    0    0 -0.19460809152E+03  0.59229203079E+03  0.12558503415E+04  0.14049855056E+04  0.90233207570E+02 0.  0.
         23    2    4    4    0    0  0.16158828911E+03 -0.65731668645E+02 -0.40479710162E+02  0.20049093071E+03  0.90147539740E+02 0.  0.
          2    1    3    3  502    0  0.53503051154E+02 -0.23597186894E+03 -0.20376550063E+03  0.31633159605E+03  0.00000000000E+00 0. -1.
         -1    1    3    3    0  502 -0.20483248737E+02 -0.29058849320E+03 -0.25658428262E+03  0.38819676705E+03  0.00000000000E+00 0.  1.
         13    1    5    5    0    0 -0.14482609369E+03  0.51374651267E+03  0.10147316691E+04  0.11465559023E+04  0.00000000000E+00 0.  1.
        -13    1    5    5    0    0 -0.49781997837E+02  0.78545518121E+02  0.24111867237E+03  0.25842960336E+03  0.00000000000E+00 0. -1.
          4    1    6    6  503    0  0.89126832262E+02 -0.43757402078E+02 -0.67537417934E+02  0.12008166091E+03  0.00000000000E+00 0. -1.
         -4    1    6    6    0  503  0.72461456845E+02 -0.21974266567E+02  0.27057707772E+02  0.80409269796E+02  0.00000000000E+00 0.  1.
<mgrwt>
<rscale>  0 0.21831321E+04</rscale>
<asrwt>0</asrwt>
<pdfrwt beam="1">  1        2 0.11961415E+00 0.21831321E+04</pdfrwt>
<pdfrwt beam="2">  1       -1 0.23577120E+00 0.21831321E+04</pdfrwt>
<totfact> 0.32295924E+00</totfact>
</mgrwt>
</event>
<event>
12    7  0.1611233E-007  0.1971698E+04  0.7818608E-02  0.8619968E-01
          2   -1    0    0  501    0  0.00000000000E+00  0.00000000000E+00  0.19807336481E+04  0.19807336481E+04  0.00000000000E+00 0. -1.
         -1   -1    0    0    0  501 -0.00000000000E+00 -0.00000000000E+00 -0.49067595575E+03  0.49067595575E+03  0.00000000000E+00 0.  1.
         24    2    1    2    0    0 -0.46382005507E+03 -0.57056785599E+03  0.26226725914E+03  0.78467482958E+03  0.79080662544E+02 0.  0.
        254    2    1    2    0    0  0.46382005507E+03  0.57056785599E+03  0.12277904332E+04  0.16867347743E+04  0.89270831131E+03 0.  0.
         23    2    4    4    0    0  0.47436116827E+03  0.11253640161E+03  0.10930737729E+04  0.12007751957E+04  0.96787592299E+02 0.  0.
         23    2    4    4    0    0 -0.10541113207E+02  0.45803145438E+03  0.13471666032E+03  0.48595957855E+03  0.90023358899E+02 0.  0.
          2    1    3    3  502    0 -0.94383589050E+01 -0.29477471652E+02 -0.13825301297E+00  0.30951947721E+02  0.00000000000E+00 0. -1.
         -1    1    3    3    0  502 -0.45438169616E+03 -0.54109038434E+03  0.26240551215E+03  0.75372288186E+03  0.00000000000E+00 0.  1.
         13    1    5    5    0    0  0.11926676601E+03  0.43653044300E+02  0.19632892839E+03  0.23382728214E+03  0.00000000000E+00 0.  1.
        -13    1    5    5    0    0  0.35509440226E+03  0.68883357312E+02  0.89674484452E+03  0.96694791360E+03  0.00000000000E+00 0. -1.
          3    1    6    6  503    0 -0.38116450290E+02  0.29607431247E+03  0.11735438451E+03  0.32075678301E+03  0.00000000000E+00 0. -1.
         -3    1    6    6    0  503  0.27575337084E+02  0.16195714191E+03  0.17362275812E+02  0.16520279554E+03  0.00000000000E+00 0.  1.
<mgrwt>
<rscale>  0 0.19716981E+04</rscale>
<asrwt>0</asrwt>
<pdfrwt beam="1">  1        2 0.30472825E+00 0.19716981E+04</pdfrwt>
<pdfrwt beam="2">  1       -1 0.75488610E-01 0.19716981E+04</pdfrwt>
<totfact> 0.12805592E+01</totfact>
</mgrwt>
</event>
<event>
12    7  0.1611233E-007  0.2669096E+04  0.7818608E-02  0.8345103E-01
          2   -1    0    0  501    0  0.00000000000E+00  0.00000000000E+00  0.16030505603E+04  0.16030505603E+04  0.00000000000E+00 0. -1.
         -1   -1    0    0    0  501 -0.00000000000E+00 -0.00000000000E+00 -0.11110179141E+04  0.11110179141E+04  0.00000000000E+00 0.  1.
         24    2    1    2    0    0  0.17375460856E+03  0.95961946161E+03  0.87917038494E+03  0.13154508426E+04  0.80063589312E+02 0.  0.
        254    2    1    2    0    0 -0.17375460856E+03 -0.95961946161E+03 -0.38713773870E+03  0.13986176318E+04  0.92476779586E+03 0.  0.
         23    2    4    4    0    0  0.21900963908E+03 -0.46033817596E+03  0.17371681325E+03  0.54609797956E+03  0.90382596875E+02 0.  0.
         23    2    4    4    0    0 -0.39276424764E+03 -0.49928128565E+03 -0.56085455195E+03  0.85251965228E+03  0.93200711637E+02 0.  0.
          4    1    3    3  502    0  0.82214089790E+02  0.35660422114E+03  0.28368414130E+03  0.46303608836E+03  0.00000000000E+00 0. -1.
         -3    1    3    3    0  502  0.91540518766E+02  0.60301524047E+03  0.59548624364E+03  0.85241475420E+03  0.00000000000E+00 0.  1.
         13    1    5    5    0    0  0.12745491067E+03 -0.26261019204E+03  0.14620152233E+03  0.32647167159E+03  0.00000000000E+00 0. -1.
        -13    1    5    5    0    0  0.91554728409E+02 -0.19772798392E+03  0.27515290919E+02  0.21962630797E+03  0.00000000000E+00 0.  1.
          4    1    6    6  503    0 -0.95466417713E+02 -0.17913271698E+03 -0.21121400155E+03  0.29293979186E+03  0.00000000000E+00 0. -1.
         -4    1    6    6    0  503 -0.29729782992E+03 -0.32014856868E+03 -0.34964055040E+03  0.55957986042E+03  0.00000000000E+00 0.  1.
<mgrwt>
<rscale>  0 0.26690956E+04</rscale>
<asrwt>0</asrwt>
<pdfrwt beam="1">  1        2 0.24662316E+00 0.26690956E+04</pdfrwt>
<pdfrwt beam="2">  1       -1 0.17092583E+00 0.26690956E+04</pdfrwt>
<totfact> 0.26948203E+00</totfact>
</mgrwt>
</event>
<event>
12    7  0.1611233E-007  0.1433575E+04  0.7818608E-02  0.8929867E-01
          2   -1    0    0  501    0  0.00000000000E+00  0.00000000000E+00  0.24475848066E+03  0.24475848066E+03  0.00000000000E+00 0. -1.
         -1   -1    0    0    0  501 -0.00000000000E+00 -0.00000000000E+00 -0.20991495987E+04  0.20991495987E+04  0.00000000000E+00 0.  1.
         24    2    1    2    0    0 -0.36744904677E+03 -0.12311204942E+03 -0.84657049219E+03  0.93415382378E+03  0.76068321659E+02 0.  0.
        254    2    1    2    0    0  0.36744904677E+03  0.12311204942E+03 -0.10078206258E+04  0.14097542555E+04  0.90638251776E+03 0.  0.
         23    2    4    4    0    0  0.12011651850E+03  0.47985200471E+03 -0.33676234788E+03  0.60533732036E+03  0.91315212463E+02 0.  0.
         23    2    4    4    0    0  0.24733252827E+03 -0.35673995529E+03 -0.67105827794E+03  0.80441693518E+03  0.91272219035E+02 0.  0.
          2    1    3    3  502    0 -0.12331533170E+03 -0.44795889112E+02 -0.20662887204E+03  0.24476281064E+03  0.00000000000E+00 0. -1.
         -1    1    3    3    0  502 -0.24413371507E+03 -0.78316160310E+02 -0.63994162015E+03  0.68939101314E+03  0.00000000000E+00 0.  1.
         13    1    5    5    0    0  0.43362252224E+02  0.23402676344E+03 -0.10999499092E+03  0.26219784315E+03  0.00000000000E+00 0. -1.
        -13    1    5    5    0    0  0.76754266272E+02  0.24582524127E+03 -0.22676735696E+03  0.34313947721E+03  0.00000000000E+00 0.  1.
          4    1    6    6  503    0  0.13286026031E+03 -0.25482741864E+03 -0.48035117494E+03  0.55975540491E+03  0.00000000000E+00 0. -1.
         -4    1    6    6    0  503  0.11447226796E+03 -0.10191253666E+03 -0.19070710300E+03  0.24466153027E+03  0.00000000000E+00 0.  1.
<mgrwt>
<rscale>  0 0.14335755E+04</rscale>
<asrwt>0</asrwt>
<pdfrwt beam="1">  1        2 0.37655151E-01 0.14335755E+04</pdfrwt>
<pdfrwt beam="2">  1       -1 0.32294609E+00 0.14335755E+04</pdfrwt>
<totfact> 0.36067975E+00</totfact>
</mgrwt>
</event>
<event>
12    7  0.1611233E-007  0.1487414E+04  0.7818608E-02  0.8892866E-01
         -1   -1    0    0    0  501 -0.00000000000E+00  0.00000000000E+00  0.99044092824E+03  0.99044092824E+03  0.00000000000E+00 0.  1.
          2   -1    0    0  501    0  0.00000000000E+00 -0.00000000000E+00 -0.55843850762E+03  0.55843850762E+03  0.00000000000E+00 0. -1.
         24    2    1    2    0    0  0.13932208008E+03  0.14576124122E+03  0.57670771724E+03  0.61630182175E+03  0.81112039389E+02 0.  0.
        254    2    1    2    0    0 -0.13932208008E+03 -0.14576124122E+03 -0.14470529662E+03  0.93257761411E+03  0.89894627316E+03 0.  0.
         23    2    4    4    0    0 -0.23506487399E+02  0.19680836429E+03  0.28776029614E+03  0.36125093797E+03  0.91706951431E+02 0.  0.
         23    2    4    4    0    0 -0.11581559268E+03 -0.34256960551E+03 -0.43246559276E+03  0.57132667614E+03  0.92846625261E+02 0.  0.
          2    1    3    3  502    0  0.37565495233E+02  0.21661344421E+02  0.52577881606E+02  0.68152871608E+02  0.00000000000E+00 0. -1.
         -1    1    3    3    0  502  0.10175658485E+03  0.12409989680E+03  0.52412983563E+03  0.54814895014E+03  0.00000000000E+00 0.  1.
         13    1    5    5    0    0 -0.48464613751E+02  0.74655516286E+02  0.84074115824E+02  0.12243660339E+03  0.00000000000E+00 0. -1.
        -13    1    5    5    0    0  0.24958126352E+02  0.12215284801E+03  0.20368618032E+03  0.23881433458E+03  0.00000000000E+00 0.  1.
          1    1    6    6  503    0 -0.38755043236E+02 -0.24577151421E+03 -0.27077812840E+03  0.36773140387E+03  0.00000000000E+00 0. -1.
         -1    1    6    6    0  503 -0.77060549445E+02 -0.96798091305E+02 -0.16168746436E+03  0.20359527227E+03  0.00000000000E+00 0.  1.
<mgrwt>
<rscale>  0 0.14874143E+04</rscale>
<asrwt>0</asrwt>
<pdfrwt beam="1">  1        2 0.85913616E-01 0.14874143E+04</pdfrwt>
<pdfrwt beam="2">  1       -1 0.15237553E+00 0.14874143E+04</pdfrwt>
<totfact> 0.19981615E+01</totfact>
</mgrwt>
</event>
<event>
12    7  0.1611233E-007  0.2041976E+04  0.7818608E-02  0.8587243E-01
         -1   -1    0    0    0  501 -0.00000000000E+00  0.00000000000E+00  0.10831089727E+04  0.10831089727E+04  0.00000000000E+00 0.  1.
          2   -1    0    0  501    0  0.00000000000E+00 -0.00000000000E+00 -0.96243023289E+03  0.96243023289E+03  0.00000000000E+00 0. -1.
         24    2    1    2    0    0  0.57103450178E+03 -0.37393740715E+03  0.48038145271E+03  0.83820741854E+03  0.76913911016E+02 0.  0.
        254    2    1    2    0    0 -0.57103450178E+03  0.37393740715E+03 -0.35970271285E+03  0.12073317871E+04  0.92863039785E+03 0.  0.
         23    2    4    4    0    0 -0.66743343027E+03  0.93633480290E+02  0.62820255525E+02  0.68298651748E+03  0.91047164040E+02 0.  0.
         23    2    4    4    0    0  0.96398928492E+02  0.28030392686E+03 -0.42252296837E+03  0.52434526962E+03  0.92462198455E+02 0.  0.
          2    1    3    3  502    0  0.13636500764E+03 -0.55789265568E+02  0.12114385843E+03  0.19074509665E+03  0.00000000000E+00 0. -1.
         -1    1    3    3    0  502  0.43466949413E+03 -0.31814814158E+03  0.35923759427E+03  0.64746232188E+03  0.00000000000E+00 0.  1.
         13    1    5    5    0    0 -0.41047961688E+02  0.27787860336E+02  0.12631329786E+02  0.51153209410E+02  0.00000000000E+00 0. -1.
        -13    1    5    5    0    0 -0.62638546858E+03  0.65845619954E+02  0.50188925739E+02  0.63183330807E+03  0.00000000000E+00 0.  1.
          1    1    6    6  503    0 -0.18411031310E+02  0.37786949736E+02 -0.62942010411E+02  0.75686962674E+02  0.00000000000E+00 0. -1.
         -1    1    6    6    0  503  0.11480995980E+03  0.24251697712E+03 -0.35958095796E+03  0.44865830694E+03  0.00000000000E+00 0.  1.
<mgrwt>
<rscale>  0 0.20419763E+04</rscale>
<asrwt>0</asrwt>
<pdfrwt beam="1">  1        2 0.14806619E+00 0.20419763E+04</pdfrwt>
<pdfrwt beam="2">  1       -1 0.16663215E+00 0.20419763E+04</pdfrwt>
<totfact> 0.73335997E+00</totfact>
</mgrwt>
</event>
<event>
12    7  0.1611233E-007  0.1538998E+04  0.7818608E-02  0.8858926E-01
         -1   -1    0    0    0  501 -0.00000000000E+00  0.00000000000E+00  0.23963746221E+04  0.23963746221E+04  0.00000000000E+00 0.  1.
          2   -1    0    0  501    0  0.00000000000E+00 -0.00000000000E+00 -0.24709368292E+03  0.24709368292E+03  0.00000000000E+00 0. -1.
         24    2    1    2    0    0  0.31436676423E+03 -0.12221737856E+03  0.13130518249E+04  0.13576948562E+04  0.73936984208E+02 0.  0.
        254    2    1    2    0    0 -0.31436676423E+03  0.12221737856E+03  0.83622911429E+03  0.12857734488E+04  0.91660824786E+03 0.  0.
         23    2    4    4    0    0 -0.87912301483E+02 -0.24536473660E+03  0.79540417703E+03  0.84198673124E+03  0.91331396691E+02 0.  0.
         23    2    4    4    0    0 -0.22645446274E+03  0.36758211516E+03  0.40824937265E+02  0.44378671759E+03  0.94242984473E+02 0.  0.
          2    1    3    3  502    0  0.16591900938E+03 -0.25130130329E+02  0.65537576200E+03  0.67651905409E+03  0.00000000000E+00 0. -1.
         -1    1    3    3    0  502  0.14844775484E+03 -0.97087248230E+02  0.65767606288E+03  0.68117580210E+03  0.00000000000E+00 0.  1.
         13    1    5    5    0    0 -0.71484846452E+02 -0.71508485555E+02  0.26923177560E+03  0.28759223872E+03  0.00000000000E+00 0.  1.
        -13    1    5    5    0    0 -0.16427455030E+02 -0.17385625105E+03  0.52617240143E+03  0.55439449252E+03  0.00000000000E+00 0. -1.
          1    1    6    6  503    0 -0.31556750908E+02  0.29786101020E+02  0.31614663400E+02  0.53689172873E+02  0.00000000000E+00 0.  1.
         -1    1    6    6    0  503 -0.19489771183E+03  0.33779601414E+03  0.92102738650E+01  0.39009754472E+03  0.00000000000E+00 0. -1.
<mgrwt>
<rscale>  0 0.15389984E+04</rscale>
<asrwt>0</asrwt>
<pdfrwt beam="1">  1        2 0.38014414E-01 0.15389984E+04</pdfrwt>
<pdfrwt beam="2">  1       -1 0.36867300E+00 0.15389984E+04</pdfrwt>
<totfact> 0.17646640E+00</totfact>
</mgrwt>
</event>
<event>
12    7  0.1611233E-007  0.1234141E+04  0.7818608E-02  0.9083487E-01
         -1   -1    0    0    0  501 -0.00000000000E+00  0.00000000000E+00  0.27841750449E+03  0.27841750449E+03  0.00000000000E+00 0.  1.
          2   -1    0    0  501    0  0.00000000000E+00 -0.00000000000E+00 -0.13676433960E+04  0.13676433960E+04  0.00000000000E+00 0. -1.
         24    2    1    2    0    0 -0.17054049821E+03  0.57225506431E+01 -0.58713020828E+03  0.61649001099E+03  0.78874856977E+02 0.  0.
        254    2    1    2    0    0  0.17054049821E+03 -0.57225506431E+01 -0.50209568322E+03  0.10295708895E+04  0.88249608059E+03 0.  0.
         23    2    4    4    0    0 -0.79591835754E+02  0.39342550487E+03 -0.16965176676E+03  0.44577260067E+03  0.93877587016E+02 0.  0.
         23    2    4    4    0    0  0.25013233396E+03 -0.39914805551E+03 -0.33244391647E+03  0.58379828883E+03  0.91739466582E+02 0.  0.
          4    1    3    3  502    0 -0.92991606599E+02 -0.30977077304E+02 -0.37668724170E+03  0.38923038971E+03  0.00000000000E+00 0. -1.
         -3    1    3    3    0  502 -0.77548891608E+02  0.36699627947E+02 -0.21044296658E+03  0.22725962128E+03  0.00000000000E+00 0.  1.
         13    1    5    5    0    0  0.13399610539E+02  0.41724385250E+02  0.12513232423E+01  0.43841073173E+02  0.00000000000E+00 0.  1.
        -13    1    5    5    0    0 -0.92991446293E+02  0.35170111962E+03 -0.17090309000E+03  0.40193152749E+03  0.00000000000E+00 0. -1.
          2    1    6    6  503    0  0.18070724165E+03 -0.35290545340E+03 -0.27485104853E+03  0.48243182430E+03  0.00000000000E+00 0. -1.
         -2    1    6    6    0  503  0.69425092307E+02 -0.46242602110E+02 -0.57592867943E+02  0.10136646452E+03  0.00000000000E+00 0.  1.
<mgrwt>
<rscale>  0 0.12341408E+04</rscale>
<asrwt>0</asrwt>
<pdfrwt beam="1">  1        2 0.21040668E+00 0.12341408E+04</pdfrwt>
<pdfrwt beam="2">  1       -1 0.42833462E-01 0.12341408E+04</pdfrwt>
<totfact> 0.90942675E+01</totfact>
</mgrwt>
</event>
<event>
12    7  0.1611233E-007  0.3483603E+04  0.7818608E-02  0.8117687E-01
         -1   -1    0    0    0  501 -0.00000000000E+00  0.00000000000E+00  0.11170816209E+04  0.11170816209E+04  0.00000000000E+00 0.  1.
          2   -1    0    0  501    0  0.00000000000E+00 -0.00000000000E+00 -0.27158907242E+04  0.27158907242E+04  0.00000000000E+00 0. -1.
         24    2    1    2    0    0  0.52904998163E+03  0.36308114290E+03  0.89563102315E+03  0.11043477232E+04  0.75545778545E+02 0.  0.
        254    2    1    2    0    0 -0.52904998163E+03 -0.36308114290E+03 -0.24944401265E+04  0.27286246220E+04  0.90079908084E+03 0.  0.
         23    2    4    4    0    0 -0.38156132517E+03  0.18005341514E+03 -0.16787444286E+04  0.17334054499E+04  0.92213448866E+02 0.  0.
         23    2    4    4    0    0 -0.14748865647E+03 -0.54313455804E+03 -0.81569569789E+03  0.99521917211E+03  0.91398452225E+02 0.  0.
          2    1    3    3  502    0  0.61240654681E+02  0.71130568518E+02  0.11176874258E+03  0.14595282587E+03  0.00000000000E+00 0. -1.
         -1    1    3    3    0  502  0.46780932695E+03  0.29195057438E+03  0.78386228057E+03  0.95839489730E+03  0.00000000000E+00 0.  1.
         13    1    5    5    0    0  0.49324033898E+01  0.16935658791E+01 -0.10666716828E+02  0.11873315311E+02  0.00000000000E+00 0. -1.
        -13    1    5    5    0    0 -0.38649372856E+03  0.17835984927E+03 -0.16680777117E+04  0.17215321346E+04  0.00000000000E+00 0.  1.
          4    1    6    6  503    0 -0.95386886395E+02 -0.18897413001E+03 -0.32386132421E+03  0.38690572137E+03  0.00000000000E+00 0. -1.
         -4    1    6    6    0  503 -0.52101770071E+02 -0.35416042803E+03 -0.49183437367E+03  0.60831345074E+03  0.00000000000E+00 0.  1.
<mgrwt>
<rscale>  0 0.34836025E+04</rscale>
<asrwt>0</asrwt>
<pdfrwt beam="1">  1        2 0.41782934E+00 0.34836025E+04</pdfrwt>
<pdfrwt beam="2">  1       -1 0.17185871E+00 0.34836025E+04</pdfrwt>
<totfact> 0.57891523E-01</totfact>
</mgrwt>
</event>
<event>
12    7  0.1611233E-007  0.1348190E+04  0.7818608E-02  0.8992199E-01
          2   -1    0    0  501    0  0.00000000000E+00  0.00000000000E+00  0.11380580246E+04  0.11380580246E+04  0.00000000000E+00 0. -1.
         -1   -1    0    0    0  501 -0.00000000000E+00 -0.00000000000E+00 -0.39928022442E+03  0.39928022442E+03  0.00000000000E+00 0.  1.
         24    2    1    2    0    0  0.24559629165E+03 -0.10316523119E+03 -0.88528912818E+02  0.29132540928E+03  0.77926390202E+02 0.  0.
        254    2    1    2    0    0 -0.24559629165E+03  0.10316523119E+03  0.82730671298E+03  0.12460128397E+04  0.89283312887E+03 0.  0.
         23    2    4    4    0    0 -0.38466715428E+03 -0.17017976641E+03  0.81929203877E+03  0.92557683402E+03  0.92320411642E+02 0.  0.
         23    2    4    4    0    0  0.13907086263E+03  0.27334499761E+03  0.80146742093E+01  0.32043600570E+03  0.92503006435E+02 0.  0.
          2    1    3    3  502    0  0.21939507864E+03 -0.81372233962E+02 -0.48893031962E+02  0.23905265019E+03  0.00000000000E+00 0. -1.
         -1    1    3    3    0  502  0.26201213014E+02 -0.21792997229E+02 -0.39635880855E+02  0.52272759089E+02  0.00000000000E+00 0.  1.
         13    1    5    5    0    0 -0.10664832589E+03 -0.14531842799E+02  0.15355778804E+03  0.18752342290E+03  0.00000000000E+00 0.  1.
        -13    1    5    5    0    0 -0.27801882839E+03 -0.15564792362E+03  0.66573425073E+03  0.73805341112E+03  0.00000000000E+00 0. -1.
          1    1    6    6  503    0  0.12087046600E+03  0.13679404867E+03  0.22800841783E+01  0.18255815536E+03  0.00000000000E+00 0. -1.
         -1    1    6    6    0  503  0.18200396621E+02  0.13655094894E+03  0.57345900310E+01  0.13787785034E+03  0.00000000000E+00 0.  1.
<mgrwt>
<rscale>  0 0.13481900E+04</rscale>
<asrwt>0</asrwt>
<pdfrwt beam="1">  1        2 0.17508585E+00 0.13481900E+04</pdfrwt>
<pdfrwt beam="2">  1       -1 0.61427727E-01 0.13481900E+04</pdfrwt>
<totfact> 0.61819151E+01</totfact>
</mgrwt>
</event>
<event>
12    7  0.1611233E-007  0.2303191E+04  0.7818608E-02  0.8476664E-01
          2   -1    0    0  501    0  0.00000000000E+00  0.00000000000E+00  0.70669776360E+03  0.70669776360E+03  0.00000000000E+00 0. -1.
         -1   -1    0    0    0  501 -0.00000000000E+00 -0.00000000000E+00 -0.18765767526E+04  0.18765767526E+04  0.00000000000E+00 0.  1.
         24    2    1    2    0    0 -0.29011376823E+03  0.28158292805E+03 -0.14899393447E+04  0.15458742853E+04  0.79706406589E+02 0.  0.
        254    2    1    2    0    0  0.29011376823E+03 -0.28158292805E+03  0.32006035574E+03  0.10374002308E+04  0.90016979718E+03 0.  0.
         23    2    4    4    0    0  0.36574327150E+03  0.21339205074E+03 -0.48866870057E+01  0.43349167064E+03  0.92665208360E+02 0.  0.
         23    2    4    4    0    0 -0.75629503274E+02 -0.49497497879E+03  0.32494704274E+03  0.60390856020E+03  0.91623780192E+02 0.  0.
          2    1    3    3  502    0 -0.11624531141E+03  0.12542732814E+03 -0.77748553205E+03  0.79607081319E+03  0.00000000000E+00 0. -1.
         -1    1    3    3    0  502 -0.17386845682E+03  0.15615559991E+03 -0.71245381267E+03  0.74980347215E+03  0.00000000000E+00 0.  1.
         13    1    5    5    0    0  0.16793325116E+03  0.14723568287E+03 -0.20807346134E+02  0.22430530268E+03  0.00000000000E+00 0. -1.
        -13    1    5    5    0    0  0.19781002034E+03  0.66156367872E+02  0.15920659129E+02  0.20918636797E+03  0.00000000000E+00 0.  1.
          1    1    6    6  503    0 -0.89059312703E+02 -0.32537913320E+03  0.19337696156E+03  0.38884160112E+03  0.00000000000E+00 0. -1.
         -1    1    6    6    0  503  0.13429809429E+02 -0.16959584559E+03  0.13157008118E+03  0.21506695908E+03  0.00000000000E+00 0.  1.
<mgrwt>
<rscale>  0 0.23031913E+04</rscale>
<asrwt>0</asrwt>
<pdfrwt beam="1">  1        2 0.10872273E+00 0.23031913E+04</pdfrwt>
<pdfrwt beam="2">  1       -1 0.28870412E+00 0.23031913E+04</pdfrwt>
<totfact> 0.16367768E+00</totfact>
</mgrwt>
</event>
<event>
12    7  0.1611233E-007  0.1583468E+04  0.7818608E-02  0.8830769E-01
         -1   -1    0    0    0  501 -0.00000000000E+00  0.00000000000E+00  0.12437358760E+04  0.12437358760E+04  0.00000000000E+00 0.  1.
          2   -1    0    0  501    0  0.00000000000E+00 -0.00000000000E+00 -0.50400007707E+03  0.50400007707E+03  0.00000000000E+00 0. -1.
         24    2    1    2    0    0  0.13096112489E+03  0.40526952924E+02  0.81191783819E+03  0.82711638726E+03  0.78215675933E+02 0.  0.
        254    2    1    2    0    0 -0.13096112489E+03 -0.40526952924E+02 -0.72182039215E+02  0.92061956586E+03  0.90748933223E+03 0.  0.
         23    2    4    4    0    0  0.77523598698E+02 -0.41824550172E+02 -0.45579341199E+03  0.47416605434E+03  0.96574382307E+02 0.  0.
         23    2    4    4    0    0 -0.20848472358E+03  0.12975972485E+01  0.38361137278E+03  0.44645351152E+03  0.93249605369E+02 0.  0.
          4    1    3    3  502    0  0.82764715650E+01 -0.72893726104E+01  0.11475373466E+02  0.15916002350E+02  0.00000000000E+00 0. -1.
         -3    1    3    3    0  502  0.12268465332E+03  0.47816325534E+02  0.80044246472E+03  0.81120038491E+03  0.00000000000E+00 0.  1.
         13    1    5    5    0    0  0.81728472776E+02 -0.64348763515E+02 -0.40959963742E+03  0.42260166777E+03  0.00000000000E+00 0.  1.
        -13    1    5    5    0    0 -0.42048740777E+01  0.22524213342E+02 -0.46193774569E+02  0.51564386563E+02  0.00000000000E+00 0. -1.
          4    1    6    6  503    0 -0.11028002959E+02 -0.25173838655E+02  0.30796047411E+02  0.41276331450E+02  0.00000000000E+00 0. -1.
         -4    1    6    6    0  503 -0.19745672063E+03  0.26471435903E+02  0.35281532537E+03  0.40517718007E+03  0.00000000000E+00 0.  1.
<mgrwt>
<rscale>  0 0.15834683E+04</rscale>
<asrwt>0</asrwt>
<pdfrwt beam="1">  1        2 0.77538474E-01 0.15834683E+04</pdfrwt>
<pdfrwt beam="2">  1       -1 0.19134398E+00 0.15834683E+04</pdfrwt>
<totfact> 0.11576032E+01</totfact>
</mgrwt>
</event>
<event>
12    7  0.1611233E-007  0.1794820E+04  0.7818608E-02  0.8709059E-01
          2   -1    0    0  501    0  0.00000000000E+00  0.00000000000E+00  0.10352133162E+04  0.10352133162E+04  0.00000000000E+00 0. -1.
         -1   -1    0    0    0  501 -0.00000000000E+00 -0.00000000000E+00 -0.77795049881E+03  0.77795049881E+03  0.00000000000E+00 0.  1.
         24    2    1    2    0    0 -0.39587605698E+03 -0.22759900287E+03  0.59147494514E+03  0.75151904559E+03  0.80119327016E+02 0.  0.
        254    2    1    2    0    0  0.39587605698E+03  0.22759900287E+03 -0.33421212770E+03  0.10616447695E+04  0.89826093739E+03 0.  0.
         23    2    4    4    0    0  0.43820685457E+03  0.90014086000E+01 -0.57171312155E+03  0.72623842739E+03  0.91978732908E+02 0.  0.
         23    2    4    4    0    0 -0.42330797595E+02  0.21859759427E+03  0.23750099386E+03  0.33540634208E+03  0.80708658637E+02 0.  0.
          2    1    3    3  502    0 -0.34541787835E+03 -0.21326380313E+03  0.55504175847E+03  0.68765275689E+03  0.00000000000E+00 0. -1.
         -1    1    3    3    0  502 -0.50458178622E+02 -0.14335199742E+02  0.36433186669E+02  0.63866288701E+02  0.00000000000E+00 0.  1.
         13    1    5    5    0    0  0.34890970040E+03 -0.62981217030E+01 -0.50449606362E+03  0.61342801011E+03  0.00000000000E+00 0.  1.
        -13    1    5    5    0    0  0.89297154171E+02  0.15299530303E+02 -0.67217057930E+02  0.11281041728E+03  0.00000000000E+00 0. -1.
          2    1    6    6  503    0 -0.24281623804E+02  0.10771334783E+03  0.60892034732E+02  0.12609362573E+03  0.00000000000E+00 0. -1.
         -2    1    6    6    0  503 -0.18049173791E+02  0.11088424644E+03  0.17660895913E+03  0.20931271635E+03  0.00000000000E+00 0.  1.
<mgrwt>
<rscale>  0 0.17948200E+04</rscale>
<asrwt>0</asrwt>
<pdfrwt beam="1">  1        2 0.15926359E+00 0.17948200E+04</pdfrwt>
<pdfrwt beam="2">  1       -1 0.11968469E+00 0.17948200E+04</pdfrwt>
<totfact> 0.16058281E+01</totfact>
</mgrwt>
</event>
<event>
12    7  0.1611233E-007  0.2014270E+04  0.7818608E-02  0.8599978E-01
         -1   -1    0    0    0  501 -0.00000000000E+00  0.00000000000E+00  0.11053907847E+04  0.11053907847E+04  0.00000000000E+00 0.  1.
          2   -1    0    0  501    0  0.00000000000E+00 -0.00000000000E+00 -0.91761326565E+03  0.91761326565E+03  0.00000000000E+00 0. -1.
         24    2    1    2    0    0  0.77650994072E+03 -0.20471866990E+03  0.13475961672E+03  0.81813863299E+03  0.79455941586E+02 0.  0.
        254    2    1    2    0    0 -0.77650994072E+03  0.20471866990E+03  0.53017902311E+02  0.12048654173E+04  0.89666735979E+03 0.  0.
         23    2    4    4    0    0 -0.33364995378E+03  0.52529595536E+03  0.13775839936E+03  0.64397596720E+03  0.92030089391E+02 0.  0.
         23    2    4    4    0    0 -0.44285998694E+03 -0.32057728547E+03 -0.84740497052E+02  0.56088945015E+03  0.92310668165E+02 0.  0.
          4    1    3    3  502    0  0.78113120360E+02 -0.46255953476E+02  0.12792352437E+02  0.91678334874E+02  0.00000000000E+00 0. -1.
         -3    1    3    3    0  502  0.69839682036E+03 -0.15846271642E+03  0.12196726428E+03  0.72646029812E+03  0.00000000000E+00 0.  1.
         13    1    5    5    0    0 -0.29631195518E+03  0.41398054264E+03  0.13430131605E+03  0.52651448979E+03  0.00000000000E+00 0. -1.
        -13    1    5    5    0    0 -0.37337998594E+02  0.11131541272E+03  0.34570833162E+01  0.11746147740E+03  0.00000000000E+00 0.  1.
          4    1    6    6  503    0 -0.36328721405E+03 -0.30027673405E+03 -0.84099031338E+02  0.47876545822E+03  0.00000000000E+00 0.  1.
         -4    1    6    6    0  503 -0.79572772891E+02 -0.20300551414E+02 -0.64146571433E+00  0.82123991936E+02  0.00000000000E+00 0. -1.
<mgrwt>
<rscale>  0 0.20142703E+04</rscale>
<asrwt>0</asrwt>
<pdfrwt beam="1">  1        2 0.14117127E+00 0.20142703E+04</pdfrwt>
<pdfrwt beam="2">  1       -1 0.17006012E+00 0.20142703E+04</pdfrwt>
<totfact> 0.74251724E+00</totfact>
</mgrwt>
</event>
<event>
12    7  0.1611233E-007  0.1277307E+04  0.7818608E-02  0.9047757E-01
          2   -1    0    0  501    0  0.00000000000E+00  0.00000000000E+00  0.28512710075E+04  0.28512710075E+04  0.00000000000E+00 0. -1.
         -1   -1    0    0    0  501 -0.00000000000E+00 -0.00000000000E+00 -0.14305139754E+03  0.14305139754E+03  0.00000000000E+00 0.  1.
         24    2    1    2    0    0 -0.16418113071E+03 -0.94415881655E+02  0.10095089804E+03  0.22916100222E+03  0.80336036335E+02 0.  0.
        254    2    1    2    0    0  0.16418113071E+03  0.94415881655E+02  0.26072687119E+04  0.27651614028E+04  0.90133104081E+03 0.  0.
         23    2    4    4    0    0  0.30429147005E+03 -0.10241952266E+02  0.25341556808E+04  0.25540277038E+04  0.91729499672E+02 0.  0.
         23    2    4    4    0    0 -0.14011033934E+03  0.10465783392E+03  0.73113031194E+02  0.21113369906E+03  0.92993301669E+02 0.  0.
          4    1    3    3  502    0 -0.43892045424E+01  0.85988211093E+01  0.20617477625E+02  0.22765878516E+02  0.00000000000E+00 0. -1.
         -3    1    3    3    0  502 -0.15979192616E+03 -0.10301470276E+03  0.80333420418E+02  0.20639512370E+03  0.00000000000E+00 0.  1.
         13    1    5    5    0    0  0.29615786453E+03 -0.27305398343E+02  0.24340429755E+04  0.24521460544E+04  0.00000000000E+00 0.  1.
        -13    1    5    5    0    0  0.81336055213E+01  0.17063446077E+02  0.10011270525E+03  0.10188164939E+03  0.00000000000E+00 0. -1.
          3    1    6    6  503    0 -0.75562110563E+02  0.50425645354E+02  0.86892139203E+02  0.12570848069E+03  0.00000000000E+00 0. -1.
         -3    1    6    6    0  503 -0.64548228781E+02  0.54232188568E+02 -0.13779108010E+02  0.85425218368E+02  0.00000000000E+00 0.  1.
<mgrwt>
<rscale>  0 0.12773070E+04</rscale>
<asrwt>0</asrwt>
<pdfrwt beam="1">  1        2 0.43865703E+00 0.12773070E+04</pdfrwt>
<pdfrwt beam="2">  1       -1 0.22007910E-01 0.12773070E+04</pdfrwt>
<totfact> 0.42299410E+01</totfact>
</mgrwt>
</event>
<event>
12    7  0.1611233E-007  0.2274978E+04  0.7818608E-02  0.8487853E-01
          2   -1    0    0  501    0  0.00000000000E+00  0.00000000000E+00  0.14306048619E+04  0.14306048619E+04  0.00000000000E+00 0. -1.
         -1   -1    0    0    0  501 -0.00000000000E+00 -0.00000000000E+00 -0.90442984148E+03  0.90442984148E+03  0.00000000000E+00 0.  1.
         24    2    1    2    0    0  0.70050990737E+02 -0.94664015296E+03  0.25301845459E+03  0.98563472316E+03  0.80142052836E+02 0.  0.
        254    2    1    2    0    0 -0.70050990737E+02  0.94664015296E+03  0.27315656582E+03  0.13493999802E+04  0.91936449606E+03 0.  0.
         23    2    4    4    0    0  0.32181051802E+03  0.74609004823E+02 -0.21522924075E+02  0.34416257250E+03  0.94106997287E+02 0.  0.
         23    2    4    4    0    0 -0.39186150876E+03  0.87203114814E+03  0.29467948990E+03  0.10052374077E+04  0.98348760573E+02 0.  0.
          2    1    3    3  502    0  0.76627692388E+02 -0.83826398238E+03  0.24535960793E+03  0.87678939581E+03  0.00000000000E+00 0. -1.
         -1    1    3    3    0  502 -0.65767016509E+01 -0.10837617058E+03  0.76588466643E+01  0.10884532735E+03  0.00000000000E+00 0.  1.
         13    1    5    5    0    0  0.28244901070E+02 -0.15640839634E+02 -0.18109724171E+02  0.37018541442E+02  0.00000000000E+00 0. -1.
        -13    1    5    5    0    0  0.29356561695E+03  0.90249844457E+02 -0.34131999040E+01  0.30714403106E+03  0.00000000000E+00 0.  1.
          2    1    6    6  503    0 -0.67106465560E+02  0.13488036864E+03  0.10329586447E+02  0.15100560228E+03  0.00000000000E+00 0. -1.
         -2    1    6    6    0  503 -0.32475504320E+03  0.73715077950E+03  0.28434990345E+03  0.85423180542E+03  0.00000000000E+00 0.  1.
<mgrwt>
<rscale>  0 0.22749784E+04</rscale>
<asrwt>0</asrwt>
<pdfrwt beam="1">  1        2 0.22009306E+00 0.22749784E+04</pdfrwt>
<pdfrwt beam="2">  1       -1 0.13914305E+00 0.22749784E+04</pdfrwt>
<totfact> 0.61281388E+00</totfact>
</mgrwt>
</event>
<event>
12    7  0.1611233E-007  0.3113414E+04  0.7818608E-02  0.8212066E-01
         -1   -1    0    0    0  501 -0.00000000000E+00  0.00000000000E+00  0.81979242236E+03  0.81979242236E+03  0.00000000000E+00 0.  1.
          2   -1    0    0  501    0  0.00000000000E+00 -0.00000000000E+00 -0.29560360559E+04  0.29560360559E+04  0.00000000000E+00 0. -1.
         24    2    1    2    0    0  0.78323437967E+03  0.11901663761E+04 -0.11705875977E+04  0.18457112724E+04  0.80141630090E+02 0.  0.
        254    2    1    2    0    0 -0.78323437967E+03 -0.11901663761E+04 -0.96565603588E+03  0.19301172059E+04  0.87344647956E+03 0.  0.
         23    2    4    4    0    0 -0.77777537328E+03 -0.12389510375E+04 -0.10468770360E+04  0.18008565436E+04  0.84844315093E+02 0.  0.
         23    2    4    4    0    0 -0.54590063896E+01  0.48784661361E+02  0.81221000110E+02  0.12926066227E+03  0.87759466827E+02 0.  0.
          2    1    3    3  502    0  0.65802238011E+01  0.29710664475E+02 -0.29776307221E+02  0.42575243987E+02  0.00000000000E+00 0. -1.
         -1    1    3    3    0  502  0.77665415587E+03  0.11604557116E+04 -0.11408112905E+04  0.18031360284E+04  0.00000000000E+00 0.  1.
         13    1    5    5    0    0 -0.32573181651E+03 -0.56703989781E+03 -0.42662175316E+03  0.78079548043E+03  0.00000000000E+00 0. -1.
        -13    1    5    5    0    0 -0.45204355678E+03 -0.67191113964E+03 -0.62025528283E+03  0.10200610632E+04  0.00000000000E+00 0.  1.
          1    1    6    6  503    0 -0.28921406991E+02  0.56689105302E+02  0.82824178155E+02  0.10445069138E+03  0.00000000000E+00 0. -1.
         -1    1    6    6    0  503  0.23462400601E+02 -0.79044439412E+01 -0.16031780456E+01  0.24809970895E+02  0.00000000000E+00 0.  1.
<mgrwt>
<rscale>  0 0.31134135E+04</rscale>
<asrwt>0</asrwt>
<pdfrwt beam="1">  1        2 0.45477477E+00 0.31134135E+04</pdfrwt>
<pdfrwt beam="2">  1       -1 0.12612191E+00 0.31134135E+04</pdfrwt>
<totfact> 0.97738971E-01</totfact>
</mgrwt>
</event>
<event>
12    7  0.1611233E-007  0.3167424E+04  0.7818608E-02  0.8197474E-01
         -1   -1    0    0    0  501 -0.00000000000E+00  0.00000000000E+00  0.19744176929E+04  0.19744176929E+04  0.00000000000E+00 0.  1.
          2   -1    0    0  501    0  0.00000000000E+00 -0.00000000000E+00 -0.12703203670E+04  0.12703203670E+04  0.00000000000E+00 0. -1.
         24    2    1    2    0    0  0.56619798333E+03 -0.90039670433E+03  0.13366713086E+04  0.17100032261E+04  0.78271735008E+02 0.  0.
        254    2    1    2    0    0 -0.56619798333E+03  0.90039670433E+03 -0.63257398272E+03  0.15347348339E+04  0.90772616198E+03 0.  0.
         23    2    4    4    0    0 -0.30441803621E+03  0.12291932815E+03  0.17230951578E+03  0.38178192672E+03  0.91034984111E+02 0.  0.
         23    2    4    4    0    0 -0.26177994712E+03  0.77747737618E+03 -0.80488349850E+03  0.11529529071E+04  0.91995373456E+02 0.  0.
          4    1    3    3  502    0  0.75293735217E+02 -0.10902346688E+03  0.20961309838E+03  0.24797764800E+03  0.00000000000E+00 0. -1.
         -3    1    3    3    0  502  0.49090424812E+03 -0.79137323745E+03  0.11270582102E+04  0.14620255781E+04  0.00000000000E+00 0.  1.
         13    1    5    5    0    0 -0.24788525548E+03  0.13588269959E+03  0.14284457506E+03  0.31672666537E+03  0.00000000000E+00 0.  1.
        -13    1    5    5    0    0 -0.56532780732E+02 -0.12963371444E+02  0.29464940726E+02  0.65055261344E+02  0.00000000000E+00 0. -1.
          2    1    6    6  503    0 -0.21181867147E+03  0.63377664985E+03 -0.60238319034E+03  0.89966966131E+03  0.00000000000E+00 0. -1.
         -2    1    6    6    0  503 -0.49961275653E+02  0.14370072633E+03 -0.20250030816E+03  0.25328324583E+03  0.00000000000E+00 0.  1.
<mgrwt>
<rscale>  0 0.31674236E+04</rscale>
<asrwt>0</asrwt>
<pdfrwt beam="1">  1        2 0.19543390E+00 0.31674236E+04</pdfrwt>
<pdfrwt beam="2">  1       -1 0.30375657E+00 0.31674236E+04</pdfrwt>
<totfact> 0.51658782E-01</totfact>
</mgrwt>
</event>
<event>
12    7  0.1611233E-007  0.2476466E+04  0.7818608E-02  0.8411418E-01
         -1   -1    0    0    0  501 -0.00000000000E+00  0.00000000000E+00  0.60129972871E+03  0.60129972871E+03  0.00000000000E+00 0.  1.
          2   -1    0    0  501    0  0.00000000000E+00 -0.00000000000E+00 -0.25498442080E+04  0.25498442080E+04  0.00000000000E+00 0. -1.
         24    2    1    2    0    0 -0.86238881502E+03  0.39616320697E+02 -0.16657075928E+04  0.18778262617E+04  0.79785732584E+02 0.  0.
        254    2    1    2    0    0  0.86238881502E+03 -0.39616320697E+02 -0.28283688643E+03  0.12733176750E+04  0.89222041895E+03 0.  0.
         23    2    4    4    0    0  0.41868402035E+03  0.41705567673E+03 -0.14666538418E+03  0.61571052555E+03  0.91416464375E+02 0.  0.
         23    2    4    4    0    0  0.44370479466E+03 -0.45667199743E+03 -0.13617150225E+03  0.65760714945E+03  0.92093577073E+02 0.  0.
          2    1    3    3  502    0 -0.73788154869E+03  0.36601084276E+02 -0.13597474014E+04  0.15474888739E+04  0.00000000000E+00 0. -1.
         -1    1    3    3    0  502 -0.12450726633E+03  0.30152364213E+01 -0.30596019145E+03  0.33033738779E+03  0.00000000000E+00 0.  1.
         13    1    5    5    0    0  0.51203539220E+02  0.77447416865E+02 -0.52148535172E+02  0.10648649928E+03  0.00000000000E+00 0.  1.
        -13    1    5    5    0    0  0.36748048114E+03  0.33960825987E+03 -0.94516849012E+02  0.50922402627E+03  0.00000000000E+00 0. -1.
          1    1    6    6  503    0  0.28527490168E+03 -0.35316577513E+03 -0.10184633150E+03  0.46527466027E+03  0.00000000000E+00 0. -1.
         -1    1    6    6    0  503  0.15842989299E+03 -0.10350622230E+03 -0.34325170744E+02  0.19233248918E+03  0.00000000000E+00 0.  1.
<mgrwt>
<rscale>  0 0.24764657E+04</rscale>
<asrwt>0</asrwt>
<pdfrwt beam="1">  1        2 0.39228373E+00 0.24764657E+04</pdfrwt>
<pdfrwt beam="2">  1       -1 0.92507650E-01 0.24764657E+04</pdfrwt>
<totfact> 0.37605657E+00</totfact>
</mgrwt>
</event>
<event>
12    7  0.1611233E-007  0.2063547E+04  0.7818608E-02  0.8577473E-01
         -1   -1    0    0    0  501 -0.00000000000E+00  0.00000000000E+00  0.16516524348E+04  0.16516524348E+04  0.00000000000E+00 0.  1.
          2   -1    0    0  501    0  0.00000000000E+00 -0.00000000000E+00 -0.64454022864E+03  0.64454022864E+03  0.00000000000E+00 0. -1.
         24    2    1    2    0    0 -0.44571345101E+02 -0.54305100727E+03  0.11840048106E+04  0.13056895467E+04  0.77889662590E+02 0.  0.
        254    2    1    2    0    0  0.44571345101E+02  0.54305100727E+03 -0.17689260436E+03  0.99050311680E+03  0.80803120584E+03 0.  0.
         23    2    4    4    0    0  0.18256008108E+03 -0.88688482558E+02 -0.24821478771E+03  0.33365883578E+03  0.92324469749E+02 0.  0.
         23    2    4    4    0    0 -0.13798873598E+03  0.63173948983E+03  0.71322183347E+02  0.65684428102E+03  0.90674590704E+02 0.  0.
          2    1    3    3  502    0  0.22165393468E+00 -0.37091284956E+02  0.43354197563E+02  0.57056103937E+02  0.00000000000E+00 0. -1.
         -1    1    3    3    0  502 -0.44792999036E+02 -0.50595972232E+03  0.11406506130E+04  0.12486334427E+04  0.00000000000E+00 0.  1.
         13    1    5    5    0    0  0.12096595523E+03 -0.96292272265E+02 -0.13833931272E+03  0.20746741784E+03  0.00000000000E+00 0.  1.
        -13    1    5    5    0    0  0.61594125859E+02  0.76037897068E+01 -0.10987547499E+03  0.12619141794E+03  0.00000000000E+00 0. -1.
          1    1    6    6  503    0  0.21681954560E+01  0.38038842765E+02  0.23916520254E+02  0.44985048311E+02  0.00000000000E+00 0. -1.
         -1    1    6    6    0  503 -0.14015693144E+03  0.59370064707E+03  0.47405663094E+02  0.61185923271E+03  0.00000000000E+00 0.  1.
<mgrwt>
<rscale>  0 0.20635469E+04</rscale>
<asrwt>0</asrwt>
<pdfrwt beam="1">  1        2 0.99160036E-01 0.20635469E+04</pdfrwt>
<pdfrwt beam="2">  1       -1 0.25410037E+00 0.20635469E+04</pdfrwt>
<totfact> 0.31428049E+00</totfact>
</mgrwt>
</event>
<event>
12    7  0.1611233E-007  0.1634776E+04  0.7818608E-02  0.8799464E-01
         -1   -1    0    0    0  501 -0.00000000000E+00  0.00000000000E+00  0.12569223617E+04  0.12569223617E+04  0.00000000000E+00 0.  1.
          2   -1    0    0  501    0  0.00000000000E+00 -0.00000000000E+00 -0.53155456234E+03  0.53155456234E+03  0.00000000000E+00 0. -1.
         24    2    1    2    0    0 -0.10305086681E+03  0.18411288654E+03 -0.32219273447E+03  0.39317097738E+03  0.79108932282E+02 0.  0.
        254    2    1    2    0    0  0.10305086681E+03 -0.18411288654E+03  0.10475605339E+04  0.13953059467E+04  0.89720598340E+03 0.  0.
         23    2    4    4    0    0 -0.96612068179E+02 -0.47830549544E+03  0.83304354309E+03  0.96954599066E+03  0.89150684957E+02 0.  0.
         23    2    4    4    0    0  0.19966293499E+03  0.29419260890E+03  0.21451699078E+03  0.42575995605E+03  0.94018200898E+02 0.  0.
          2    1    3    3  502    0 -0.11194759758E+03  0.14630195734E+03 -0.24270772235E+03  0.30470242173E+03  0.00000000000E+00 0. -1.
         -1    1    3    3    0  502  0.88967307663E+01  0.37810929202E+02 -0.79485012123E+02  0.88468555643E+02  0.00000000000E+00 0.  1.
         13    1    5    5    0    0 -0.40040797948E+02 -0.10548062951E+03  0.13308812960E+03  0.17447601251E+03  0.00000000000E+00 0.  1.
        -13    1    5    5    0    0 -0.56571270231E+02 -0.37282486594E+03  0.69995541349E+03  0.79506997815E+03  0.00000000000E+00 0. -1.
          3    1    6    6  503    0  0.14621327929E+03  0.25470036793E+03  0.13824025818E+03  0.32459354499E+03  0.00000000000E+00 0. -1.
         -3    1    6    6    0  503  0.53449655695E+02  0.39492240970E+02  0.76276732598E+02  0.10116641106E+03  0.00000000000E+00 0.  1.
<mgrwt>
<rscale>  0 0.16347756E+04</rscale>
<asrwt>0</asrwt>
<pdfrwt beam="1">  1        2 0.81777625E-01 0.16347756E+04</pdfrwt>
<pdfrwt beam="2">  1       -1 0.19337267E+00 0.16347756E+04</pdfrwt>
<totfact> 0.10482024E+01</totfact>
</mgrwt>
</event>
<event>
12    7  0.1611233E-007  0.1763640E+04  0.7818608E-02  0.8725878E-01
         -1   -1    0    0    0  501 -0.00000000000E+00  0.00000000000E+00  0.14002195459E+04  0.14002195459E+04  0.00000000000E+00 0.  1.
          2   -1    0    0  501    0  0.00000000000E+00 -0.00000000000E+00 -0.55534641513E+03  0.55534641513E+03  0.00000000000E+00 0. -1.
         24    2    1    2    0    0  0.28602812655E+03 -0.54029057273E+03  0.67686812771E+02  0.62002188699E+03  0.78228150711E+02 0.  0.
        254    2    1    2    0    0 -0.28602812655E+03  0.54029057273E+03  0.77718631802E+03  0.13355440741E+04  0.89773793986E+03 0.  0.
         23    2    4    4    0    0  0.12964546624E+03  0.61560328104E+03  0.34016299295E+03  0.72088014590E+03  0.90454278194E+02 0.  0.
         23    2    4    4    0    0 -0.41567359279E+03 -0.75312708304E+02  0.43702332507E+03  0.61466392815E+03  0.91464846497E+02 0.  0.
          4    1    3    3  502    0  0.14052688688E+03 -0.30458017896E+03  0.24614992854E+01  0.33544440721E+03  0.00000000000E+00 0. -1.
         -3    1    3    3    0  502  0.14550123967E+03 -0.23571039377E+03  0.65225313486E+02  0.28457747978E+03  0.00000000000E+00 0.  1.
         13    1    5    5    0    0  0.12715346381E+03  0.40983493430E+03  0.24545441993E+03  0.49434861080E+03  0.00000000000E+00 0.  1.
        -13    1    5    5    0    0  0.24920024308E+01  0.20576834673E+03  0.94708573018E+02  0.22653153510E+03  0.00000000000E+00 0. -1.
          1    1    6    6  503    0 -0.12315089264E+02 -0.22190253682E+02  0.26623142231E+02  0.36781251804E+02  0.00000000000E+00 0. -1.
         -1    1    6    6    0  503 -0.40335850352E+03 -0.53122454622E+02  0.41040018284E+03  0.57788267635E+03  0.00000000000E+00 0.  1.
<mgrwt>
<rscale>  0 0.17636404E+04</rscale>
<asrwt>0</asrwt>
<pdfrwt beam="1">  1        2 0.85437910E-01 0.17636404E+04</pdfrwt>
<pdfrwt beam="2">  1       -1 0.21541839E+00 0.17636404E+04</pdfrwt>
<totfact> 0.69541408E+00</totfact>
</mgrwt>
</event>
<event>
12    7  0.1611233E-007  0.1443313E+04  0.7818608E-02  0.8923050E-01
         -1   -1    0    0    0  501 -0.00000000000E+00  0.00000000000E+00  0.33693093457E+03  0.33693093457E+03  0.00000000000E+00 0.  1.
          2   -1    0    0  501    0  0.00000000000E+00 -0.00000000000E+00 -0.15456810207E+04  0.15456810207E+04  0.00000000000E+00 0. -1.
         24    2    1    2    0    0  0.10000993407E+03 -0.36638145292E+03 -0.91458096495E+02  0.39874664337E+03  0.79980911627E+02 0.  0.
        254    2    1    2    0    0 -0.10000993407E+03  0.36638145292E+03 -0.11172919896E+04  0.14838653119E+04  0.89959853146E+03 0.  0.
         23    2    4    4    0    0  0.16349488557E+03  0.55480305572E+03 -0.45933228264E+03  0.74494909252E+03  0.97087570378E+02 0.  0.
         23    2    4    4    0    0 -0.26350481963E+03 -0.18842160280E+03 -0.65795970699E+03  0.73891621938E+03  0.90270221416E+02 0.  0.
          2    1    3    3  502    0  0.15559565393E+02 -0.40902246465E+01 -0.46881036250E+01  0.16757336557E+02  0.00000000000E+00 0. -1.
         -1    1    3    3    0  502  0.84450368673E+02 -0.36229122827E+03 -0.86769992870E+02  0.38198930681E+03  0.00000000000E+00 0.  1.
         13    1    5    5    0    0  0.55812139696E+02  0.12185539654E+03 -0.62602633991E+02  0.14792843670E+03  0.00000000000E+00 0. -1.
        -13    1    5    5    0    0  0.10768274587E+03  0.43294765918E+03 -0.39672964865E+03  0.59702065582E+03  0.00000000000E+00 0.  1.
          1    1    6    6  503    0 -0.15614502343E+03 -0.87548432996E+02 -0.44790382897E+03  0.48235239864E+03  0.00000000000E+00 0. -1.
         -1    1    6    6    0  503 -0.10735979620E+03 -0.10087316980E+03 -0.21005587802E+03  0.25656382074E+03  0.00000000000E+00 0.  1.
<mgrwt>
<rscale>  0 0.14433125E+04</rscale>
<asrwt>0</asrwt>
<pdfrwt beam="1">  1        2 0.23779708E+00 0.14433125E+04</pdfrwt>
<pdfrwt beam="2">  1       -1 0.51835528E-01 0.14433125E+04</pdfrwt>
<totfact> 0.49541213E+01</totfact>
</mgrwt>
</event>
<event>
12    7  0.1611233E-007  0.1567994E+04  0.7818608E-02  0.8840456E-01
         -1   -1    0    0    0  501 -0.00000000000E+00  0.00000000000E+00  0.26391038769E+03  0.26391038769E+03  0.00000000000E+00 0.  1.
          2   -1    0    0  501    0  0.00000000000E+00 -0.00000000000E+00 -0.23290139518E+04  0.23290139518E+04  0.00000000000E+00 0. -1.
         24    2    1    2    0    0 -0.38808741524E+01  0.19727942883E+03  0.10330716474E+03  0.23642119438E+03  0.79299285260E+02 0.  0.
        254    2    1    2    0    0  0.38808741524E+01 -0.19727942883E+03 -0.21684107288E+04  0.23565031451E+04  0.90120350074E+03 0.  0.
         23    2    4    4    0    0  0.11111725862E+03 -0.42655952331E+03 -0.19730500723E+04  0.20237896570E+04  0.92184141197E+02 0.  0.
         23    2    4    4    0    0 -0.10723638446E+03  0.22928009448E+03 -0.19536065655E+03  0.33271348812E+03  0.91997147640E+02 0.  0.
          4    1    3    3  502    0  0.24510688041E+02  0.11070570539E+03  0.24605140399E+02  0.11602560049E+03  0.00000000000E+00 0. -1.
         -3    1    3    3    0  502 -0.28391562194E+02  0.86573723435E+02  0.78702024338E+02  0.12039559389E+03  0.00000000000E+00 0.  1.
         13    1    5    5    0    0  0.24260126728E+02 -0.12763799710E+03 -0.41178256892E+03  0.43179265408E+03  0.00000000000E+00 0. -1.
        -13    1    5    5    0    0  0.86857131889E+02 -0.29892152621E+03 -0.15612675034E+04  0.15919970029E+04  0.00000000000E+00 0.  1.
          3    1    6    6  503    0  0.31862830514E+01 -0.42779398365E+01  0.37685435164E+01  0.65310863693E+01  0.00000000000E+00 0. -1.
         -3    1    6    6    0  503 -0.11042266752E+03  0.23355803431E+03 -0.19912920006E+03  0.32618240175E+03  0.00000000000E+00 0.  1.
<mgrwt>
<rscale>  0 0.15679936E+04</rscale>
<asrwt>0</asrwt>
<pdfrwt beam="1">  1        2 0.35830982E+00 0.15679936E+04</pdfrwt>
<pdfrwt beam="2">  1       -1 0.40601600E-01 0.15679936E+04</pdfrwt>
<totfact> 0.28357168E+01</totfact>
</mgrwt>
</event>
<event>
12    7  0.1611233E-007  0.1973306E+04  0.7818608E-02  0.8619204E-01
          2   -1    0    0  501    0  0.00000000000E+00  0.00000000000E+00  0.26303640105E+04  0.26303640105E+04  0.00000000000E+00 0. -1.
         -1   -1    0    0    0  501 -0.00000000000E+00 -0.00000000000E+00 -0.37009492148E+03  0.37009492148E+03  0.00000000000E+00 0.  1.
         24    2    1    2    0    0  0.27811753721E+03  0.29097603252E+03 -0.85442411708E+02  0.41891680418E+03  0.78577777373E+02 0.  0.
        254    2    1    2    0    0 -0.27811753721E+03 -0.29097603252E+03  0.23457115007E+04  0.25815421278E+04  0.99999044846E+03 0.  0.
         23    2    4    4    0    0  0.34671241099E+03 -0.14158139807E+02  0.53667288257E+03  0.64551618363E+03  0.90903308980E+02 0.  0.
         23    2    4    4    0    0 -0.62482994819E+03 -0.27681789272E+03  0.18090386182E+04  0.19360259442E+04  0.92385738518E+02 0.  0.
          4    1    3    3  502    0  0.18564466283E+02  0.52657405983E+02 -0.25916748728E+02  0.61555825702E+02  0.00000000000E+00 0. -1.
         -3    1    3    3    0  502  0.25955307092E+03  0.23831862654E+03 -0.59525662979E+02  0.35736097847E+03  0.00000000000E+00 0.  1.
         13    1    5    5    0    0  0.20989212817E+03  0.35800911124E+02  0.32720903599E+03  0.39038719745E+03  0.00000000000E+00 0. -1.
        -13    1    5    5    0    0  0.13682028282E+03 -0.49959050931E+02  0.20946384659E+03  0.25512898618E+03  0.00000000000E+00 0.  1.
          4    1    6    6  503    0 -0.61455688127E+03 -0.28039561625E+03  0.17471480030E+04  0.18731865914E+04  0.00000000000E+00 0. -1.
         -4    1    6    6    0  503 -0.10273066921E+02  0.35777235293E+01  0.61890615199E+02  0.62839352792E+02  0.00000000000E+00 0.  1.
<mgrwt>
<rscale>  0 0.19733062E+04</rscale>
<asrwt>0</asrwt>
<pdfrwt beam="1">  1        2 0.40467137E+00 0.19733062E+04</pdfrwt>
<pdfrwt beam="2">  1       -1 0.56937682E-01 0.19733062E+04</pdfrwt>
<totfact> 0.96759081E+00</totfact>
</mgrwt>
</event>
<event>
12    7  0.1611233E-007  0.4102074E+04  0.7818608E-02  0.7984266E-01
         -1   -1    0    0    0  501 -0.00000000000E+00  0.00000000000E+00  0.13128942553E+04  0.13128942553E+04  0.00000000000E+00 0.  1.
          2   -1    0    0  501    0  0.00000000000E+00 -0.00000000000E+00 -0.32041823363E+04  0.32041823363E+04  0.00000000000E+00 0. -1.
         24    2    1    2    0    0 -0.93303726561E+03  0.45621786491E+03  0.92260187494E+03  0.13914328355E+04  0.78726341003E+02 0.  0.
        254    2    1    2    0    0  0.93303726561E+03 -0.45621786491E+03 -0.28138899559E+04  0.31256437561E+04  0.87919220121E+03 0.  0.
         23    2    4    4    0    0  0.86376271666E+02  0.21278494412E+03 -0.29867641650E+03  0.38723977677E+03  0.89491620775E+02 0.  0.
         23    2    4    4    0    0  0.84666099394E+03 -0.66900280903E+03 -0.25152135394E+04  0.27384039793E+04  0.90319476879E+02 0.  0.
          4    1    3    3  502    0 -0.28181540020E+03  0.98248419994E+02  0.26198428491E+03  0.39712521622E+03  0.00000000000E+00 0. -1.
         -3    1    3    3    0  502 -0.65122186541E+03  0.35796944491E+03  0.66061759002E+03  0.99430761927E+03  0.00000000000E+00 0.  1.
         13    1    5    5    0    0  0.76806087823E+02  0.12030424630E+03 -0.23359710392E+03  0.27375151829E+03  0.00000000000E+00 0.  1.
        -13    1    5    5    0    0  0.95701838428E+01  0.92480697818E+02 -0.65079312582E+02  0.11348825848E+03  0.00000000000E+00 0. -1.
          4    1    6    6  503    0  0.76486136146E+03 -0.62888529145E+03 -0.22597532212E+04  0.24671834615E+04  0.00000000000E+00 0.  1.
         -4    1    6    6    0  503  0.81799632482E+02 -0.40117517576E+02 -0.25546031819E+03  0.27122051777E+03  0.00000000000E+00 0. -1.
<mgrwt>
<rscale>  0 0.41020739E+04</rscale>
<asrwt>0</asrwt>
<pdfrwt beam="1">  1        2 0.49295113E+00 0.41020739E+04</pdfrwt>
<pdfrwt beam="2">  1       -1 0.20198373E+00 0.41020739E+04</pdfrwt>
<totfact> 0.16677720E-01</totfact>
</mgrwt>
</event>
<event>
12    7  0.1611233E-007  0.2053962E+04  0.7818608E-02  0.8581799E-01
         -1   -1    0    0    0  501 -0.00000000000E+00  0.00000000000E+00  0.19877018646E+04  0.19877018646E+04  0.00000000000E+00 0.  1.
          2   -1    0    0  501    0  0.00000000000E+00 -0.00000000000E+00 -0.53060791058E+03  0.53060791058E+03  0.00000000000E+00 0. -1.
         24    2    1    2    0    0 -0.78296964309E+03 -0.26637750822E+03  0.54248949754E+03  0.99297134836E+03  0.87742833542E+02 0.  0.
        254    2    1    2    0    0  0.78296964309E+03  0.26637750822E+03  0.91460445653E+03  0.15253384269E+04  0.89786277664E+03 0.  0.
         23    2    4    4    0    0  0.31644416962E+03  0.41626691259E+03  0.87887625473E+03  0.10267509066E+04  0.91536320818E+02 0.  0.
         23    2    4    4    0    0  0.46652547347E+03 -0.14988940437E+03  0.35728201804E+02  0.49858752029E+03  0.84853756796E+02 0.  0.
          2    1    3    3  502    0 -0.11056133053E+03 -0.32570938731E+02  0.41678493225E+02  0.12256333325E+03  0.00000000000E+00 0. -1.
         -1    1    3    3    0  502 -0.67240831256E+03 -0.23380656948E+03  0.50081100431E+03  0.87040801511E+03  0.00000000000E+00 0.  1.
         13    1    5    5    0    0  0.25301686009E+03  0.37408962654E+03  0.70958997114E+03  0.84111741590E+03  0.00000000000E+00 0.  1.
        -13    1    5    5    0    0  0.63427309530E+02  0.42177286047E+02  0.16928628358E+03  0.18563349068E+03  0.00000000000E+00 0. -1.
          4    1    6    6  503    0  0.44703095032E+03 -0.16021840098E+03  0.30150614769E+02  0.47583155226E+03  0.00000000000E+00 0.  1.
         -4    1    6    6    0  503  0.19494523154E+02  0.10328996605E+02  0.55775870354E+01  0.22755968030E+02  0.00000000000E+00 0. -1.
<mgrwt>
<rscale>  0 0.20539623E+04</rscale>
<asrwt>0</asrwt>
<pdfrwt beam="1">  1        2 0.81631988E-01 0.20539623E+04</pdfrwt>
<pdfrwt beam="2">  1       -1 0.30580028E+00 0.20539623E+04</pdfrwt>
<totfact> 0.18388825E+00</totfact>
</mgrwt>
</event>
<event>
12    7  0.1611233E-007  0.1763044E+04  0.7818608E-02  0.8726203E-01
         -1   -1    0    0    0  501 -0.00000000000E+00  0.00000000000E+00  0.41917563447E+03  0.41917563447E+03  0.00000000000E+00 0.  1.
          2   -1    0    0  501    0  0.00000000000E+00 -0.00000000000E+00 -0.18538308576E+04  0.18538308576E+04  0.00000000000E+00 0. -1.
         24    2    1    2    0    0 -0.60780808266E+03  0.37177510681E+02 -0.82204323525E+03  0.10261690452E+04  0.80342990521E+02 0.  0.
        254    2    1    2    0    0  0.60780808266E+03 -0.37177510681E+02 -0.61261198792E+03  0.12468374469E+04  0.89916480053E+03 0.  0.
         23    2    4    4    0    0  0.65262115164E+03 -0.25765482350E+03 -0.14835832406E+03  0.72283790404E+03  0.90465836379E+02 0.  0.
         23    2    4    4    0    0 -0.44813068977E+02  0.22047731282E+03 -0.46425366386E+03  0.52399954283E+03  0.91791066353E+02 0.  0.
          2    1    3    3  502    0 -0.41159624807E+03  0.10937033991E+02 -0.61128019362E+03  0.73701734392E+03  0.00000000000E+00 0. -1.
         -1    1    3    3    0  502 -0.19621183460E+03  0.26240476690E+02 -0.21076304163E+03  0.28915170131E+03  0.00000000000E+00 0.  1.
         13    1    5    5    0    0  0.59965245815E+03 -0.25557124508E+03 -0.12026795789E+03  0.66284546734E+03  0.00000000000E+00 0.  1.
        -13    1    5    5    0    0  0.52968693487E+02 -0.20835784224E+01 -0.28090366177E+02  0.59992436696E+02  0.00000000000E+00 0. -1.
          1    1    6    6  503    0 -0.19617223082E+02  0.65522735459E+02 -0.24479303849E+03  0.25416863692E+03  0.00000000000E+00 0. -1.
         -1    1    6    6    0  503 -0.25195845895E+02  0.15495457736E+03 -0.21946062537E+03  0.26983090591E+03  0.00000000000E+00 0.  1.
<mgrwt>
<rscale>  0 0.17630436E+04</rscale>
<asrwt>0</asrwt>
<pdfrwt beam="1">  1        2 0.28520475E+00 0.17630436E+04</pdfrwt>
<pdfrwt beam="2">  1       -1 0.64488558E-01 0.17630436E+04</pdfrwt>
<totfact> 0.21179771E+01</totfact>
</mgrwt>
</event>
<event>
12    7  0.1611233E-007  0.1952547E+04  0.7818608E-02  0.8629134E-01
         -1   -1    0    0    0  501 -0.00000000000E+00  0.00000000000E+00  0.16113185766E+04  0.16113185766E+04  0.00000000000E+00 0.  1.
          2   -1    0    0  501    0  0.00000000000E+00 -0.00000000000E+00 -0.59150933840E+03  0.59150933840E+03  0.00000000000E+00 0. -1.
         24    2    1    2    0    0  0.55393031624E+03  0.47982716124E+03  0.65989440571E+03  0.98952654141E+03  0.81420203660E+02 0.  0.
        254    2    1    2    0    0 -0.55393031624E+03 -0.47982716124E+03  0.35991483253E+03  0.12133013736E+04  0.89749018750E+03 0.  0.
         23    2    4    4    0    0 -0.29010694686E+03  0.20602730274E+03  0.29322074875E+03  0.46966309464E+03  0.89418817260E+02 0.  0.
         23    2    4    4    0    0 -0.26382336937E+03 -0.68585446397E+03  0.66694083780E+02  0.74363827898E+03  0.92469850108E+02 0.  0.
          4    1    3    3  502    0  0.11564021914E+03  0.60246238927E+02  0.10766738075E+03  0.16909918529E+03  0.00000000000E+00 0. -1.
         -3    1    3    3    0  502  0.43829009710E+03  0.41958092231E+03  0.55222702496E+03  0.82042735612E+03  0.00000000000E+00 0.  1.
         13    1    5    5    0    0 -0.25282995554E+03  0.15032450236E+03  0.20352420345E+03  0.35769056993E+03  0.00000000000E+00 0.  1.
        -13    1    5    5    0    0 -0.37276991329E+02  0.55702800375E+02  0.89696545297E+02  0.11197252471E+03  0.00000000000E+00 0. -1.
          2    1    6    6  503    0 -0.84566220150E+02 -0.19340566531E+03 -0.21616096040E+02  0.21218966180E+03  0.00000000000E+00 0. -1.
         -2    1    6    6    0  503 -0.17925714922E+03 -0.49244879866E+03  0.88310179820E+02  0.53144861719E+03  0.00000000000E+00 0.  1.
<mgrwt>
<rscale>  0 0.19525470E+04</rscale>
<asrwt>0</asrwt>
<pdfrwt beam="1">  1        2 0.91001437E-01 0.19525470E+04</pdfrwt>
<pdfrwt beam="2">  1       -1 0.24789516E+00 0.19525470E+04</pdfrwt>
<totfact> 0.38677231E+00</totfact>
</mgrwt>
</event>
<event>
12    7  0.1611233E-007  0.2309567E+04  0.7818608E-02  0.8474158E-01
         -1   -1    0    0    0  501 -0.00000000000E+00  0.00000000000E+00  0.53852917182E+03  0.53852917182E+03  0.00000000000E+00 0.  1.
          2   -1    0    0  501    0  0.00000000000E+00 -0.00000000000E+00 -0.24762361280E+04  0.24762361280E+04  0.00000000000E+00 0. -1.
         24    2    1    2    0    0  0.57810570855E+03 -0.68433489274E+03 -0.30444059781E+03  0.94942318719E+03  0.78739158539E+02 0.  0.
        254    2    1    2    0    0 -0.57810570855E+03  0.68433489274E+03 -0.16332663584E+04  0.20653421126E+04  0.89194091122E+03 0.  0.
         23    2    4    4    0    0 -0.62680931204E+03  0.21518552041E+03 -0.13520284372E+04  0.15084708643E+04  0.91152243527E+02 0.  0.
         23    2    4    4    0    0  0.48703603486E+02  0.46914937234E+03 -0.28123792116E+03  0.55687124835E+03  0.92399374354E+02 0.  0.
          4    1    3    3  502    0  0.67216925164E+02 -0.12341276622E+03 -0.51157312761E+02  0.14955232042E+03  0.00000000000E+00 0. -1.
         -3    1    3    3    0  502  0.51088878339E+03 -0.56092212652E+03 -0.25328328505E+03  0.79987086677E+03  0.00000000000E+00 0.  1.
         13    1    5    5    0    0 -0.34769351049E+02  0.27677937694E+02 -0.13541945470E+03  0.14252510207E+03  0.00000000000E+00 0.  1.
        -13    1    5    5    0    0 -0.59203996099E+03  0.18750758271E+03 -0.12166089825E+04  0.13659457622E+04  0.00000000000E+00 0. -1.
          1    1    6    6  503    0  0.38090284704E+02  0.46646958324E+03 -0.28104692194E+03  0.54592317611E+03  0.00000000000E+00 0. -1.
         -1    1    6    6    0  503  0.10613318782E+02  0.26797890944E+01 -0.19099922733E+00  0.10948072244E+02  0.00000000000E+00 0.  1.
<mgrwt>
<rscale>  0 0.23095674E+04</rscale>
<asrwt>0</asrwt>
<pdfrwt beam="1">  1        2 0.38095940E+00 0.23095674E+04</pdfrwt>
<pdfrwt beam="2">  1       -1 0.82850644E-01 0.23095674E+04</pdfrwt>
<totfact> 0.53591222E+00</totfact>
</mgrwt>
</event>
<event>
12    7  0.1611233E-007  0.2133390E+04  0.7818608E-02  0.8546676E-01
         -1   -1    0    0    0  501 -0.00000000000E+00  0.00000000000E+00  0.25980430406E+03  0.25980430406E+03  0.00000000000E+00 0.  1.
          2   -1    0    0  501    0  0.00000000000E+00 -0.00000000000E+00 -0.43795975897E+04  0.43795975897E+04  0.00000000000E+00 0. -1.
         24    2    1    2    0    0  0.63440203082E+03  0.60641186627E+03 -0.17798436708E+04  0.19860135083E+04  0.78771024775E+02 0.  0.
        254    2    1    2    0    0 -0.63440203082E+03 -0.60641186627E+03 -0.23399496148E+04  0.26533883854E+04  0.89157413370E+03 0.  0.
         23    2    4    4    0    0 -0.27287021684E+03 -0.66348595643E+03 -0.84815712009E+03  0.11146230338E+04  0.91335849749E+02 0.  0.
         23    2    4    4    0    0 -0.36153181398E+03  0.57074090160E+02 -0.14917924947E+04  0.15387653516E+04  0.91603798459E+02 0.  0.
          2    1    3    3  502    0  0.37030348550E+03  0.36618302194E+03 -0.11396191555E+04  0.12529750582E+04  0.00000000000E+00 0. -1.
         -1    1    3    3    0  502  0.26409854532E+03  0.24022884433E+03 -0.64022451532E+03  0.73303845008E+03  0.00000000000E+00 0.  1.
         13    1    5    5    0    0 -0.46180289299E+02 -0.15196963150E+03 -0.13696769505E+03  0.20973206123E+03  0.00000000000E+00 0. -1.
        -13    1    5    5    0    0 -0.22668992754E+03 -0.51151632493E+03 -0.71118942504E+03  0.90489097255E+03  0.00000000000E+00 0.  1.
          1    1    6    6  503    0 -0.26238783144E+03  0.57289993182E+01 -0.11331122014E+04  0.11631093914E+04  0.00000000000E+00 0. -1.
         -1    1    6    6    0  503 -0.99143982544E+02  0.51345090842E+02 -0.35868029333E+03  0.37565596023E+03  0.00000000000E+00 0.  1.
<mgrwt>
<rscale>  0 0.21333901E+04</rscale>
<asrwt>0</asrwt>
<pdfrwt beam="1">  1        2 0.67378423E+00 0.21333901E+04</pdfrwt>
<pdfrwt beam="2">  1       -1 0.39969894E-01 0.21333901E+04</pdfrwt>
<totfact> 0.10352517E+00</totfact>
</mgrwt>
</event>
<event>
12    7  0.1611233E-007  0.3176387E+04  0.7818608E-02  0.8195081E-01
          2   -1    0    0  501    0  0.00000000000E+00  0.00000000000E+00  0.23914383652E+04  0.23914383652E+04  0.00000000000E+00 0. -1.
         -1   -1    0    0    0  501 -0.00000000000E+00 -0.00000000000E+00 -0.10547455269E+04  0.10547455269E+04  0.00000000000E+00 0.  1.
         24    2    1    2    0    0  0.46511936195E+03  0.53237025397E+03  0.19958428589E+04  0.21191165460E+04  0.86672428417E+02 0.  0.
        254    2    1    2    0    0 -0.46511936195E+03 -0.53237025397E+03 -0.65915002054E+03  0.13270673461E+04  0.90932660980E+03 0.  0.
         23    2    4    4    0    0 -0.12816777301E+03 -0.72755753784E+03 -0.50169218474E+03  0.89742605905E+03  0.88946806185E+02 0.  0.
         23    2    4    4    0    0 -0.33695158894E+03  0.19518728387E+03 -0.15745783580E+03  0.42964128703E+03  0.90356053427E+02 0.  0.
          4    1    3    3  502    0  0.26860455388E+03  0.24158798176E+03  0.10140781759E+04  0.10765071789E+04  0.00000000000E+00 0. -1.
         -3    1    3    3    0  502  0.19651480807E+03  0.29078227221E+03  0.98176468299E+03  0.10426093671E+04  0.00000000000E+00 0.  1.
         13    1    5    5    0    0 -0.72571392530E+02 -0.60647658893E+03 -0.40754531662E+03  0.73428444423E+03  0.00000000000E+00 0. -1.
        -13    1    5    5    0    0 -0.55596380478E+02 -0.12108094891E+03 -0.94146868114E+02  0.16314161483E+03  0.00000000000E+00 0.  1.
          1    1    6    6  503    0 -0.15484697873E+03  0.13924794248E+03 -0.67070081357E+02  0.21878293379E+03  0.00000000000E+00 0. -1.
         -1    1    6    6    0  503 -0.18210461021E+03  0.55939341390E+02 -0.90387754444E+02  0.21085835324E+03  0.00000000000E+00 0.  1.
<mgrwt>
<rscale>  0 0.31763872E+04</rscale>
<asrwt>0</asrwt>
<pdfrwt beam="1">  1        2 0.36791359E+00 0.31763872E+04</pdfrwt>
<pdfrwt beam="2">  1       -1 0.16226854E+00 0.31763872E+04</pdfrwt>
<totfact> 0.10830648E+00</totfact>
</mgrwt>
</event>
<event>
12    7  0.1611233E-007  0.2203168E+04  0.7818608E-02  0.8517111E-01
          2   -1    0    0  501    0  0.00000000000E+00  0.00000000000E+00  0.13790251690E+04  0.13790251690E+04  0.00000000000E+00 0. -1.
         -1   -1    0    0    0  501 -0.00000000000E+00 -0.00000000000E+00 -0.87996024955E+03  0.87996024955E+03  0.00000000000E+00 0.  1.
         24    2    1    2    0    0  0.66855164989E+03 -0.60602752223E+03  0.48290755749E+02  0.90736598051E+03  0.82160569795E+02 0.  0.
        254    2    1    2    0    0 -0.66855164989E+03  0.60602752223E+03  0.45077416370E+03  0.13516194380E+04  0.89969277664E+03 0.  0.
         23    2    4    4    0    0 -0.88281301281E+01 -0.12139585389E+03 -0.13562518285E+03  0.20425993516E+03  0.92266145824E+02 0.  0.
         23    2    4    4    0    0 -0.65972351976E+03  0.72742337612E+03  0.58639934655E+03  0.11473595029E+04  0.90497207381E+02 0.  0.
          2    1    3    3  502    0  0.22624229819E+03 -0.24970884471E+03  0.40030245434E+02  0.33932654651E+03  0.00000000000E+00 0. -1.
         -1    1    3    3    0  502  0.44230935170E+03 -0.35631867752E+03  0.82605103155E+01  0.56803943400E+03  0.00000000000E+00 0.  1.
         13    1    5    5    0    0  0.25090613935E+02 -0.10295324995E+03 -0.12568051754E+03  0.16439131082E+03  0.00000000000E+00 0.  1.
        -13    1    5    5    0    0 -0.33918744063E+02 -0.18442603947E+02 -0.99446653079E+01  0.39868624346E+02  0.00000000000E+00 0. -1.
          3    1    6    6  503    0 -0.26098309620E+02  0.19621760130E+02  0.39326522962E+02  0.51114681295E+02  0.00000000000E+00 0. -1.
         -3    1    6    6    0  503 -0.63362521014E+03  0.70780161600E+03  0.54707282359E+03  0.10962448216E+04  0.00000000000E+00 0.  1.
<mgrwt>
<rscale>  0 0.22031680E+04</rscale>
<asrwt>0</asrwt>
<pdfrwt beam="1">  1        2 0.21215772E+00 0.22031680E+04</pdfrwt>
<pdfrwt beam="2">  1       -1 0.13537850E+00 0.22031680E+04</pdfrwt>
<totfact> 0.70854809E+00</totfact>
</mgrwt>
</event>
<event>
12    7  0.1611233E-007  0.2011784E+04  0.7818608E-02  0.8601131E-01
         -1   -1    0    0    0  501 -0.00000000000E+00  0.00000000000E+00  0.76061886400E+03  0.76061886400E+03  0.00000000000E+00 0.  1.
          2   -1    0    0  501    0  0.00000000000E+00 -0.00000000000E+00 -0.13302572252E+04  0.13302572252E+04  0.00000000000E+00 0. -1.
         24    2    1    2    0    0  0.75516921160E+02  0.75740148918E+03 -0.48746752666E+03  0.90761286842E+03  0.82320763945E+02 0.  0.
        254    2    1    2    0    0 -0.75516921160E+02 -0.75740148918E+03 -0.82170834549E+02  0.11832632208E+04  0.90221947575E+03 0.  0.
         23    2    4    4    0    0  0.88080500721E+02 -0.17184432780E+03 -0.42769560693E+03  0.47810167767E+03  0.91482426728E+02 0.  0.
         23    2    4    4    0    0 -0.16359742188E+03 -0.58555716138E+03  0.34552477238E+03  0.70516154311E+03  0.90686977374E+02 0.  0.
          2    1    3    3  502    0  0.46440563145E+02  0.59342319845E+03 -0.41705421485E+03  0.72680261178E+03  0.00000000000E+00 0. -1.
         -1    1    3    3    0  502  0.29076358015E+02  0.16397829073E+03 -0.70413311814E+02  0.18081025664E+03  0.00000000000E+00 0.  1.
         13    1    5    5    0    0  0.21316156358E+02 -0.13146321479E+02 -0.14467450384E+03  0.14682614329E+03  0.00000000000E+00 0. -1.
        -13    1    5    5    0    0  0.66764344362E+02 -0.15869800632E+03 -0.28302110309E+03  0.33127553438E+03  0.00000000000E+00 0.  1.
          1    1    6    6  503    0 -0.20249203361E+02 -0.18807620094E+03  0.13970464610E+03  0.23515968137E+03  0.00000000000E+00 0. -1.
         -1    1    6    6    0  503 -0.14334821852E+03 -0.39748096044E+03  0.20582012628E+03  0.47000186175E+03  0.00000000000E+00 0.  1.
<mgrwt>
<rscale>  0 0.20117840E+04</rscale>
<asrwt>0</asrwt>
<pdfrwt beam="1">  1        2 0.20465496E+00 0.20117840E+04</pdfrwt>
<pdfrwt beam="2">  1       -1 0.11701829E+00 0.20117840E+04</pdfrwt>
<totfact> 0.11054888E+01</totfact>
</mgrwt>
</event>
<event>
12    7  0.1611233E-007  0.1126751E+04  0.7818608E-02  0.9179504E-01
          2   -1    0    0  501    0  0.00000000000E+00  0.00000000000E+00  0.38293454971E+04  0.38293454971E+04  0.00000000000E+00 0. -1.
         -1   -1    0    0    0  501 -0.00000000000E+00 -0.00000000000E+00 -0.82884138375E+02  0.82884138375E+02  0.00000000000E+00 0.  1.
         24    2    1    2    0    0 -0.14985061673E+03 -0.11652779676E+03  0.10426767166E+04  0.10628005253E+04  0.79600795051E+02 0.  0.
        254    2    1    2    0    0  0.14985061673E+03  0.11652779676E+03  0.27037846421E+04  0.28494291101E+04  0.87906821574E+03 0.  0.
         23    2    4    4    0    0 -0.10678123682E+03  0.36257379603E+03  0.60816597239E+03  0.72191527489E+03  0.91835853816E+02 0.  0.
         23    2    4    4    0    0  0.25663185355E+03 -0.24604599927E+03  0.20956186697E+04  0.21275138352E+04  0.91098672741E+02 0.  0.
          4    1    3    3  502    0 -0.14614394840E+03 -0.12698983681E+03  0.95530957027E+03  0.97473116671E+03  0.00000000000E+00 0. -1.
         -3    1    3    3    0  502 -0.37066683349E+01  0.10462040044E+02  0.87367146313E+02  0.88069358615E+02  0.00000000000E+00 0.  1.
         13    1    5    5    0    0  0.15292549878E+01  0.16478998337E+02  0.77003168264E+02  0.78761563784E+02  0.00000000000E+00 0. -1.
        -13    1    5    5    0    0 -0.10831049181E+03  0.34609479769E+03  0.53116280412E+03  0.64315371111E+03  0.00000000000E+00 0.  1.
          3    1    6    6  503    0  0.16007862515E+03 -0.92298483716E+02  0.11216894989E+04  0.11368075951E+04  0.00000000000E+00 0. -1.
         -3    1    6    6    0  503  0.96553228404E+02 -0.15374751555E+03  0.97392917085E+03  0.99070624015E+03  0.00000000000E+00 0.  1.
<mgrwt>
<rscale>  0 0.11267511E+04</rscale>
<asrwt>0</asrwt>
<pdfrwt beam="1">  1        2 0.58912994E+00 0.11267511E+04</pdfrwt>
<pdfrwt beam="2">  1       -1 0.12751409E-01 0.11267511E+04</pdfrwt>
<totfact> 0.23461683E+01</totfact>
</mgrwt>
</event>
<event>
12    7  0.1611233E-007  0.1497155E+04  0.7818608E-02  0.8886347E-01
         -1   -1    0    0    0  501 -0.00000000000E+00  0.00000000000E+00  0.21330334947E+03  0.21330334947E+03  0.00000000000E+00 0.  1.
          2   -1    0    0  501    0  0.00000000000E+00 -0.00000000000E+00 -0.26270946916E+04  0.26270946916E+04  0.00000000000E+00 0. -1.
         24    2    1    2    0    0  0.19172268509E+03 -0.29132995688E+03 -0.20563711751E+03  0.41296627656E+03  0.81386667966E+02 0.  0.
        254    2    1    2    0    0 -0.19172268509E+03  0.29132995688E+03 -0.22081542246E+04  0.24274317645E+04  0.94596467162E+03 0.  0.
         23    2    4    4    0    0 -0.68208039228E+02 -0.75367657618E+01 -0.20537608684E+04  0.20569467007E+04  0.91579939194E+02 0.  0.
         23    2    4    4    0    0 -0.12351464586E+03  0.29886672264E+03 -0.15439335621E+03  0.37048506387E+03  0.94046203883E+02 0.  0.
          2    1    3    3  502    0  0.25877037479E+02 -0.38170910843E+01 -0.16898178071E+02  0.31140643461E+02  0.00000000000E+00 0. -1.
         -1    1    3    3    0  502  0.16584564761E+03 -0.28751286579E+03 -0.18873893944E+03  0.38182563310E+03  0.00000000000E+00 0.  1.
         13    1    5    5    0    0 -0.51190395328E+02  0.22578201947E+02 -0.17964732265E+04  0.17973442312E+04  0.00000000000E+00 0. -1.
        -13    1    5    5    0    0 -0.17017643900E+02 -0.30114967709E+02 -0.25728764193E+03  0.25960246951E+03  0.00000000000E+00 0.  1.
          4    1    6    6  503    0 -0.34682072121E+02  0.20346753139E+03 -0.96832431149E+02  0.22798772374E+03  0.00000000000E+00 0. -1.
         -4    1    6    6    0  503 -0.88832573741E+02  0.95399191251E+02 -0.57560925063E+02  0.14249734013E+03  0.00000000000E+00 0.  1.
<mgrwt>
<rscale>  0 0.14971548E+04</rscale>
<asrwt>0</asrwt>
<pdfrwt beam="1">  1        2 0.40416842E+00 0.14971548E+04</pdfrwt>
<pdfrwt beam="2">  1       -1 0.32815899E-01 0.14971548E+04</pdfrwt>
<totfact> 0.28216025E+01</totfact>
</mgrwt>
</event>
<event>
12    7  0.1611233E-007  0.1340876E+04  0.7818608E-02  0.8997764E-01
         -1   -1    0    0    0  501 -0.00000000000E+00  0.00000000000E+00  0.73976868910E+03  0.73976868910E+03  0.00000000000E+00 0.  1.
          2   -1    0    0  501    0  0.00000000000E+00 -0.00000000000E+00 -0.60760452197E+03  0.60760452197E+03  0.00000000000E+00 0. -1.
         24    2    1    2    0    0  0.11031375588E+02 -0.25902424578E+03 -0.21926281000E+03  0.34866089298E+03  0.79202192501E+02 0.  0.
        254    2    1    2    0    0 -0.11031375588E+02  0.25902424578E+03  0.35142697712E+03  0.99871231809E+03  0.89817043088E+03 0.  0.
         23    2    4    4    0    0  0.14658971516E+03  0.32964411702E+03  0.58576284020E+03  0.69342331520E+03  0.86971263203E+02 0.  0.
         23    2    4    4    0    0 -0.15762109075E+03 -0.70619871240E+02 -0.23433586308E+03  0.30528900289E+03  0.91959252400E+02 0.  0.
          4    1    3    3  502    0  0.29588483131E+02 -0.22035579168E+03 -0.15360153992E+03  0.27023246719E+03  0.00000000000E+00 0. -1.
         -1    1    3    3    0  502 -0.18557107543E+02 -0.38668454101E+02 -0.65661270081E+02  0.78428425787E+02  0.00000000000E+00 0.  1.
         13    1    5    5    0    0  0.15436639709E+03  0.32486142401E+03  0.58047538312E+03  0.68287304806E+03  0.00000000000E+00 0.  1.
        -13    1    5    5    0    0 -0.77766819287E+01  0.47826930073E+01  0.52874570773E+01  0.10550267132E+02  0.00000000000E+00 0. -1.
          3    1    6    6  503    0  0.46069424257E+00  0.14301176075E+02 -0.30686815458E+02  0.33858773151E+02  0.00000000000E+00 0. -1.
         -3    1    6    6    0  503 -0.15808178499E+03 -0.84921047315E+02 -0.20364904762E+03  0.27143022974E+03  0.00000000000E+00 0.  1.
<mgrwt>
<rscale>  0 0.13408755E+04</rscale>
<asrwt>0</asrwt>
<pdfrwt beam="1">  1        2 0.93477619E-01 0.13408755E+04</pdfrwt>
<pdfrwt beam="2">  1       -1 0.11381057E+00 0.13408755E+04</pdfrwt>
<totfact> 0.38408976E+01</totfact>
</mgrwt>
</event>
<event>
12    7  0.1611233E-007  0.1333078E+04  0.7818608E-02  0.9003737E-01
         -1   -1    0    0    0  501 -0.00000000000E+00  0.00000000000E+00  0.40710195984E+03  0.40710195984E+03  0.00000000000E+00 0.  1.
          2   -1    0    0  501    0  0.00000000000E+00 -0.00000000000E+00 -0.10913097806E+04  0.10913097806E+04  0.00000000000E+00 0. -1.
         24    2    1    2    0    0 -0.77862957668E+02 -0.65676750572E+02  0.19087514759E+03  0.23151335564E+03  0.82395607486E+02 0.  0.
        254    2    1    2    0    0  0.77862957668E+02  0.65676750572E+02 -0.87508296836E+03  0.12668983848E+04  0.91043134843E+03 0.  0.
         23    2    4    4    0    0  0.39575536163E+02  0.47518340314E+03 -0.37018946627E+03  0.60988811918E+03  0.86935535240E+02 0.  0.
         23    2    4    4    0    0  0.38287421505E+02 -0.40950665257E+03 -0.50489350209E+03  0.65701026564E+03  0.87082808640E+02 0.  0.
          4    1    3    3  502    0 -0.31214807941E+02 -0.10776425510E+02  0.13866131964E+03  0.14253931789E+03  0.00000000000E+00 0. -1.
         -3    1    3    3    0  502 -0.46648149727E+02 -0.54900325062E+02  0.52213827949E+02  0.88974037752E+02  0.00000000000E+00 0.  1.
         13    1    5    5    0    0  0.11372447308E+02  0.29848312575E+03 -0.17994168328E+03  0.34871265864E+03  0.00000000000E+00 0.  1.
        -13    1    5    5    0    0  0.28203088855E+02  0.17670027740E+03 -0.19024778299E+03  0.26117546054E+03  0.00000000000E+00 0. -1.
          2    1    6    6  503    0  0.25218093900E+02 -0.17846212102E+03 -0.15613454568E+03  0.23845896346E+03  0.00000000000E+00 0. -1.
         -2    1    6    6    0  503  0.13069327605E+02 -0.23104453155E+03 -0.34875895640E+03  0.41855130218E+03  0.00000000000E+00 0.  1.
<mgrwt>
<rscale>  0 0.13330782E+04</rscale>
<asrwt>0</asrwt>
<pdfrwt beam="1">  1        2 0.16789381E+00 0.13330782E+04</pdfrwt>
<pdfrwt beam="2">  1       -1 0.62631071E-01 0.13330782E+04</pdfrwt>
<totfact> 0.63615454E+01</totfact>
</mgrwt>
</event>
<event>
12    7  0.1611233E-007  0.2301317E+04  0.7818608E-02  0.8477402E-01
         -1   -1    0    0    0  501 -0.00000000000E+00  0.00000000000E+00  0.84834599217E+03  0.84834599217E+03  0.00000000000E+00 0.  1.
          2   -1    0    0  501    0  0.00000000000E+00 -0.00000000000E+00 -0.15607019621E+04  0.15607019621E+04  0.00000000000E+00 0. -1.
         24    2    1    2    0    0  0.24022575264E+03  0.84246556165E+03  0.14045583053E+03  0.89103344318E+03  0.82195630783E+02 0.  0.
        254    2    1    2    0    0 -0.24022575264E+03 -0.84246556165E+03 -0.85281180044E+03  0.15180145111E+04  0.89979078349E+03 0.  0.
         23    2    4    4    0    0 -0.79847325424E+02 -0.76227341114E+03 -0.10039477104E+04  0.12663763552E+04  0.91442435281E+02 0.  0.
         23    2    4    4    0    0 -0.16037842722E+03 -0.80192150511E+02  0.15113590995E+03  0.25163815593E+03  0.91256108410E+02 0.  0.
          4    1    3    3  502    0  0.36485814503E+02  0.17152300449E+03 -0.26686417935E+01  0.17538094931E+03  0.00000000000E+00 0. -1.
         -3    1    3    3    0  502  0.20373993814E+03  0.67094255716E+03  0.14312447233E+03  0.71565249387E+03  0.00000000000E+00 0.  1.
         13    1    5    5    0    0 -0.69137746698E+02 -0.71699498826E+03 -0.97251510016E+03  0.12102262025E+04  0.00000000000E+00 0.  1.
        -13    1    5    5    0    0 -0.10709578727E+02 -0.45278422881E+02 -0.31432610230E+02  0.56150152635E+02  0.00000000000E+00 0. -1.
          4    1    6    6  503    0 -0.57332880365E+02 -0.69886759358E+02  0.37421358397E+02  0.97834433451E+02  0.00000000000E+00 0. -1.
         -4    1    6    6    0  503 -0.10304554685E+03 -0.10305391153E+02  0.11371455155E+03  0.15380372248E+03  0.00000000000E+00 0.  1.
<mgrwt>
<rscale>  0 0.23013172E+04</rscale>
<asrwt>0</asrwt>
<pdfrwt beam="1">  1        2 0.24010799E+00 0.23013172E+04</pdfrwt>
<pdfrwt beam="2">  1       -1 0.13051477E+00 0.23013172E+04</pdfrwt>
<totfact> 0.60825573E+00</totfact>
</mgrwt>
</event>
<event>
12    7  0.1611233E-007  0.1891720E+04  0.7818608E-02  0.8658989E-01
         -1   -1    0    0    0  501 -0.00000000000E+00  0.00000000000E+00  0.21417753891E+04  0.21417753891E+04  0.00000000000E+00 0.  1.
          2   -1    0    0  501    0  0.00000000000E+00 -0.00000000000E+00 -0.41771468338E+03  0.41771468338E+03  0.00000000000E+00 0. -1.
         24    2    1    2    0    0 -0.55015900812E+02 -0.64970203845E+03  0.23398568356E+03  0.69729408015E+03  0.79562843031E+02 0.  0.
        254    2    1    2    0    0  0.55015900812E+02  0.64970203845E+03  0.14900750221E+04  0.18621959923E+04  0.90681357181E+03 0.  0.
         23    2    4    4    0    0  0.24689000449E+03  0.80780674085E+03  0.11864908896E+04  0.14593513077E+04  0.91865136716E+02 0.  0.
         23    2    4    4    0    0 -0.19187410368E+03 -0.15810470240E+03  0.30358413248E+03  0.40284468454E+03  0.91146836394E+02 0.  0.
          4    1    3    3  502    0 -0.17812587579E+02 -0.54824704598E+03  0.18805178941E+03  0.57987549284E+03  0.00000000000E+00 0. -1.
         -3    1    3    3    0  502 -0.37203313233E+02 -0.10145499247E+03  0.45933894154E+02  0.11741858731E+03  0.00000000000E+00 0.  1.
         13    1    5    5    0    0 -0.69403148274E+00  0.89595217689E+02  0.11204208920E+03  0.14346154350E+03  0.00000000000E+00 0.  1.
        -13    1    5    5    0    0  0.24758403597E+03  0.71821152316E+03  0.10744488004E+04  0.13158897642E+04  0.00000000000E+00 0. -1.
          2    1    6    6  503    0  0.73190037203E+01 -0.44787377134E+01 -0.32966412121E-02  0.85806129053E+01  0.00000000000E+00 0.  1.
         -2    1    6    6    0  503 -0.19919310740E+03 -0.15362596468E+03  0.30358742912E+03  0.39426407163E+03  0.00000000000E+00 0. -1.
<mgrwt>
<rscale>  0 0.18917199E+04</rscale>
<asrwt>0</asrwt>
<pdfrwt beam="1">  1        2 0.64263799E-01 0.18917199E+04</pdfrwt>
<pdfrwt beam="2">  1       -1 0.32950390E+00 0.18917199E+04</pdfrwt>
<totfact> 0.17229258E+00</totfact>
</mgrwt>
</event>
<event>
12    7  0.1611233E-007  0.3491936E+04  0.7818608E-02  0.8115704E-01
          2   -1    0    0  501    0  0.00000000000E+00  0.00000000000E+00  0.26769176093E+04  0.26769176093E+04  0.00000000000E+00 0. -1.
         -3   -1    0    0    0  501 -0.00000000000E+00 -0.00000000000E+00 -0.11387743559E+04  0.11387743559E+04  0.00000000000E+00 0.  1.
         24    2    1    2    0    0  0.44147094049E+02  0.99292416218E+03  0.21319879634E+04  0.23537092284E+04  0.82018889588E+02 0.  0.
        254    2    1    2    0    0 -0.44147094049E+02 -0.99292416218E+03 -0.59384470998E+03  0.14619827367E+04  0.89268954574E+03 0.  0.
         23    2    4    4    0    0  0.11294132974E+03  0.12556812044E+03 -0.15378169108E+03  0.24643474342E+03  0.92510417889E+02 0.  0.
         23    2    4    4    0    0 -0.15708842379E+03 -0.11184922826E+04 -0.44006301890E+03  0.12155479933E+04  0.90552218048E+02 0.  0.
          2    1    3    3  502    0  0.40319867917E+02  0.94080426693E+03  0.19698462615E+04  0.21833535340E+04  0.00000000000E+00 0. -1.
         -1    1    3    3    0  502  0.38272261324E+01  0.52119895244E+02  0.16214170190E+03  0.17035569446E+03  0.00000000000E+00 0.  1.
         13    1    5    5    0    0  0.11232733926E+02  0.45584161600E+02 -0.91484618564E+02  0.10282764966E+03  0.00000000000E+00 0. -1.
        -13    1    5    5    0    0  0.10170859582E+03  0.79983958837E+02 -0.62297072515E+02  0.14360709376E+03  0.00000000000E+00 0.  1.
          1    1    6    6  503    0  0.56440761399E+01 -0.15725762131E+03 -0.45356718667E+02  0.16376521909E+03  0.00000000000E+00 0. -1.
         -1    1    6    6    0  503 -0.16273249993E+03 -0.96123466131E+03 -0.39470630023E+03  0.10517827742E+04  0.00000000000E+00 0.  1.
<mgrwt>
<rscale>  0 0.34919365E+04</rscale>
<asrwt>0</asrwt>
<pdfrwt beam="1">  1        2 0.41183348E+00 0.34919365E+04</pdfrwt>
<pdfrwt beam="2">  1       -3 0.17519606E+00 0.34919365E+04</pdfrwt>
<totfact> 0.30474573E-01</totfact>
</mgrwt>
</event>
<event>
12    7  0.1611233E-007  0.1748301E+04  0.7818608E-02  0.8734286E-01
          2   -1    0    0  501    0  0.00000000000E+00  0.00000000000E+00  0.30387297005E+04  0.30387297005E+04  0.00000000000E+00 0. -1.
         -1   -1    0    0    0  501 -0.00000000000E+00 -0.00000000000E+00 -0.25146648773E+03  0.25146648773E+03  0.00000000000E+00 0.  1.
         24    2    1    2    0    0 -0.13692294130E+03 -0.62774605616E+03  0.10741197353E+04  0.12542297568E+04  0.80907811736E+02 0.  0.
        254    2    1    2    0    0  0.13692294130E+03  0.62774605616E+03  0.17131434775E+04  0.20359664315E+04  0.89302056697E+03 0.  0.
         23    2    4    4    0    0 -0.20389502965E+03  0.27363250735E+03  0.14052941361E+04  0.14490534360E+04  0.91958247673E+02 0.  0.
         23    2    4    4    0    0  0.34081797095E+03  0.35411354881E+03  0.30784934138E+03  0.58691299551E+03  0.90234985113E+02 0.  0.
          4    1    3    3  502    0 -0.30525306820E+02 -0.15791011788E+03  0.34063507403E+03  0.37669570391E+03  0.00000000000E+00 0. -1.
         -3    1    3    3    0  502 -0.10639763448E+03 -0.46983593827E+03  0.73348466132E+03  0.87753405285E+03  0.00000000000E+00 0.  1.
         13    1    5    5    0    0 -0.60606709325E+02  0.13804759613E+03  0.73648864185E+03  0.75176181839E+03  0.00000000000E+00 0.  1.
        -13    1    5    5    0    0 -0.14328832033E+03  0.13558491122E+03  0.66880549422E+03  0.69729161761E+03  0.00000000000E+00 0. -1.
          2    1    6    6  503    0  0.25360138905E+03  0.21600168263E+03  0.23720665375E+03  0.40894668113E+03  0.00000000000E+00 0. -1.
         -2    1    6    6    0  503  0.87216581899E+02  0.13811186617E+03  0.70642687631E+02  0.17796631437E+03  0.00000000000E+00 0.  1.
<mgrwt>
<rscale>  0 0.17483005E+04</rscale>
<asrwt>0</asrwt>
<pdfrwt beam="1">  1        2 0.46749685E+00 0.17483005E+04</pdfrwt>
<pdfrwt beam="2">  1       -1 0.38687154E-01 0.17483005E+04</pdfrwt>
<totfact> 0.11555257E+01</totfact>
</mgrwt>
</event>
<event>
12    7  0.1611233E-007  0.3693562E+04  0.7818608E-02  0.8069390E-01
         -1   -1    0    0    0  501 -0.00000000000E+00  0.00000000000E+00  0.92606311462E+03  0.92606311462E+03  0.00000000000E+00 0.  1.
          2   -1    0    0  501    0  0.00000000000E+00 -0.00000000000E+00 -0.36829024821E+04  0.36829024821E+04  0.00000000000E+00 0. -1.
         24    2    1    2    0    0  0.99826049798E+03 -0.11730137381E+04 -0.29405543331E+03  0.15701716350E+04  0.80530204038E+02 0.  0.
        254    2    1    2    0    0 -0.99826049798E+03  0.11730137381E+04 -0.24627839342E+04  0.30387939618E+04  0.89245660063E+03 0.  0.
         23    2    4    4    0    0 -0.10661658428E+03  0.14911109369E+03  0.21196153156E+02  0.20654500673E+03  0.92791964060E+02 0.  0.
         23    2    4    4    0    0 -0.89164391370E+03  0.10239026444E+04 -0.24839800874E+04  0.28322489551E+04  0.89841944057E+02 0.  0.
          2    1    3    3  502    0  0.17402465377E+03 -0.25405669482E+03 -0.57044360516E+02  0.31318276353E+03  0.00000000000E+00 0. -1.
         -1    1    3    3    0  502  0.82423584421E+03 -0.91895704330E+03 -0.23701107280E+03  0.12569888714E+04  0.00000000000E+00 0.  1.
         13    1    5    5    0    0 -0.11895745180E+03  0.11816553513E+03  0.11749161472E+01  0.16767632349E+03  0.00000000000E+00 0.  1.
        -13    1    5    5    0    0  0.12340867522E+02  0.30945558560E+02  0.20021237009E+02  0.38868683245E+02  0.00000000000E+00 0. -1.
          3    1    6    6  503    0 -0.22654118363E+02  0.11920655009E+02 -0.32511139894E+02  0.41379769355E+02  0.00000000000E+00 0. -1.
         -3    1    6    6    0  503 -0.86898979534E+03  0.10119819894E+04 -0.24514689475E+04  0.27908691857E+04  0.00000000000E+00 0.  1.
<mgrwt>
<rscale>  0 0.36935620E+04</rscale>
<asrwt>0</asrwt>
<pdfrwt beam="1">  1        2 0.56660037E+00 0.36935620E+04</pdfrwt>
<pdfrwt beam="2">  1       -1 0.14247125E+00 0.36935620E+04</pdfrwt>
<totfact> 0.22030737E-01</totfact>
</mgrwt>
</event>
<event>
12    7  0.1611233E-007  0.1999686E+04  0.7818608E-02  0.8606768E-01
         -1   -1    0    0    0  501 -0.00000000000E+00  0.00000000000E+00  0.56558852800E+03  0.56558852800E+03  0.00000000000E+00 0.  1.
          2   -1    0    0  501    0  0.00000000000E+00 -0.00000000000E+00 -0.17675140974E+04  0.17675140974E+04  0.00000000000E+00 0. -1.
         24    2    1    2    0    0  0.27426940946E+03  0.33784951672E+03 -0.12542332777E+04  0.13298702894E+04  0.78024783837E+02 0.  0.
        254    2    1    2    0    0 -0.27426940946E+03 -0.33784951672E+03  0.52307708270E+02  0.10032323360E+04  0.90242618466E+03 0.  0.
         23    2    4    4    0    0 -0.49548893954E+03 -0.16634317861E+03  0.30763773440E+03  0.61325325869E+03  0.90880368545E+02 0.  0.
         23    2    4    4    0    0  0.22121953009E+03 -0.17150633811E+03 -0.25533002613E+03  0.38997907732E+03  0.92399967524E+02 0.  0.
          2    1    3    3  502    0  0.19832132931E+03  0.21461717024E+03 -0.92905243619E+03  0.97392520689E+03  0.00000000000E+00 0. -1.
         -1    1    3    3    0  502  0.75948080149E+02  0.12323234648E+03 -0.32518084150E+03  0.35594508252E+03  0.00000000000E+00 0.  1.
         13    1    5    5    0    0 -0.66270095445E+02 -0.27142210500E+02  0.90562896160E+01  0.72183388135E+02  0.00000000000E+00 0. -1.
        -13    1    5    5    0    0 -0.42921884410E+03 -0.13920096811E+03  0.29858144479E+03  0.54106987056E+03  0.00000000000E+00 0.  1.
          3    1    6    6  503    0  0.49657771152E+01 -0.28200943221E+02 -0.42505327051E+01  0.28948560744E+02  0.00000000000E+00 0. -1.
         -3    1    6    6    0  503  0.21625375297E+03 -0.14330539489E+03 -0.25107949343E+03  0.36103051658E+03  0.00000000000E+00 0.  1.
<mgrwt>
<rscale>  0 0.19996857E+04</rscale>
<asrwt>0</asrwt>
<pdfrwt beam="1">  1        2 0.27192524E+00 0.19996857E+04</pdfrwt>
<pdfrwt beam="2">  1       -1 0.87013622E-01 0.19996857E+04</pdfrwt>
<totfact> 0.12381071E+01</totfact>
</mgrwt>
</event>
<event>
12    7  0.1611233E-007  0.1663127E+04  0.7818608E-02  0.8782678E-01
         -3   -1    0    0    0  501 -0.00000000000E+00  0.00000000000E+00  0.32152811551E+03  0.32152811551E+03  0.00000000000E+00 0.  1.
          2   -1    0    0  501    0  0.00000000000E+00 -0.00000000000E+00 -0.21506600025E+04  0.21506600025E+04  0.00000000000E+00 0. -1.
         24    2    1    2    0    0 -0.38130444030E+03 -0.46712717238E+02 -0.13101552637E+04  0.13683911857E+04  0.91719506418E+02 0.  0.
        254    2    1    2    0    0  0.38130444030E+03  0.46712717238E+02 -0.51897662324E+03  0.11037969323E+04  0.89524062582E+03 0.  0.
         23    2    4    4    0    0  0.13496450559E+03  0.44627081548E+03 -0.37129289713E+03  0.60328031105E+03  0.93357697722E+02 0.  0.
         23    2    4    4    0    0  0.24633993470E+03 -0.39955809825E+03 -0.14768372611E+03  0.50051662124E+03  0.91522499281E+02 0.  0.
          4    1    3    3  502    0 -0.23805927175E+03 -0.39405033550E+02 -0.96303702946E+03  0.99280677559E+03  0.00000000000E+00 0. -1.
         -3    1    3    3    0  502 -0.14324516854E+03 -0.73076836874E+01 -0.34711823426E+03  0.37558441009E+03  0.00000000000E+00 0.  1.
         13    1    5    5    0    0  0.10701129735E+03  0.19701285650E+03 -0.18861821844E+03  0.29298859315E+03  0.00000000000E+00 0.  1.
        -13    1    5    5    0    0  0.27953208246E+02  0.24925795898E+03 -0.18267467869E+03  0.31029171790E+03  0.00000000000E+00 0. -1.
          2    1    6    6  503    0  0.15811772551E+03 -0.16932615438E+03 -0.70643393230E+02  0.24220456372E+03  0.00000000000E+00 0. -1.
         -2    1    6    6    0  503  0.88222209189E+02 -0.23023194386E+03 -0.77040332880E+02  0.25831205752E+03  0.00000000000E+00 0.  1.
<mgrwt>
<rscale>  0 0.16631268E+04</rscale>
<asrwt>0</asrwt>
<pdfrwt beam="1">  1        2 0.33087075E+00 0.16631268E+04</pdfrwt>
<pdfrwt beam="2">  1       -3 0.49465866E-01 0.16631268E+04</pdfrwt>
<totfact> 0.13707141E+01</totfact>
</mgrwt>
</event>
<event>
12    7  0.1611233E-007  0.4360150E+04  0.7818608E-02  0.7935588E-01
         -1   -1    0    0    0  501 -0.00000000000E+00  0.00000000000E+00  0.15025449738E+04  0.15025449738E+04  0.00000000000E+00 0.  1.
          2   -1    0    0  501    0  0.00000000000E+00 -0.00000000000E+00 -0.31631183511E+04  0.31631183511E+04  0.00000000000E+00 0. -1.
         24    2    1    2    0    0 -0.13786132098E+04  0.11182718009E+04 -0.19607504137E+04  0.26460513564E+04  0.77067454937E+02 0.  0.
        254    2    1    2    0    0  0.13786132098E+04 -0.11182718009E+04  0.30017703645E+03  0.20196119685E+04  0.91521584724E+03 0.  0.
         23    2    4    4    0    0  0.96401766381E+03 -0.11559539672E+04  0.43975146869E+03  0.15707862484E+04  0.91806609503E+02 0.  0.
         23    2    4    4    0    0  0.41459554601E+03  0.37682166379E+02 -0.13957443224E+03  0.44882572002E+03  0.93027374374E+02 0.  0.
          2    1    3    3  502    0 -0.52998110904E+03  0.46662756148E+03 -0.74296258279E+03  0.10249949544E+04  0.00000000000E+00 0. -1.
         -1    1    3    3    0  502 -0.84863210078E+03  0.65164423937E+03 -0.12177878309E+04  0.16210564020E+04  0.00000000000E+00 0.  1.
         13    1    5    5    0    0  0.15514386700E+03 -0.16411450128E+03  0.97323234246E+02  0.24591665442E+03  0.00000000000E+00 0. -1.
        -13    1    5    5    0    0  0.80887379682E+03 -0.99183946595E+03  0.34242823444E+03  0.13248695940E+04  0.00000000000E+00 0.  1.
          3    1    6    6  503    0  0.84681423227E+01 -0.64435699340E+01 -0.20845939406E+02  0.23404747757E+02  0.00000000000E+00 0. -1.
         -3    1    6    6    0  503  0.40612740369E+03  0.44125736313E+02 -0.11872849284E+03  0.42542097226E+03  0.00000000000E+00 0.  1.
<mgrwt>
<rscale>  0 0.43601503E+04</rscale>
<asrwt>0</asrwt>
<pdfrwt beam="1">  1        2 0.48663358E+00 0.43601503E+04</pdfrwt>
<pdfrwt beam="2">  1       -1 0.23116077E+00 0.43601503E+04</pdfrwt>
<totfact> 0.11049376E-01</totfact>
</mgrwt>
</event>
<event>
12    7  0.1611233E-007  0.1226005E+04  0.7818608E-02  0.9090394E-01
         -1   -1    0    0    0  501 -0.00000000000E+00  0.00000000000E+00  0.36239683859E+03  0.36239683859E+03  0.00000000000E+00 0.  1.
          2   -1    0    0  501    0  0.00000000000E+00 -0.00000000000E+00 -0.10369073459E+04  0.10369073459E+04  0.00000000000E+00 0. -1.
         24    2    1    2    0    0 -0.28383081665E+02  0.22908289000E+03  0.11572663642E+02  0.24343729347E+03  0.76440954273E+02 0.  0.
        254    2    1    2    0    0  0.28383081665E+02 -0.22908289000E+03 -0.68608317094E+03  0.11558668910E+04  0.90112905983E+03 0.  0.
         23    2    4    4    0    0  0.76519384444E+02  0.20234589790E+03  0.99942238702E+02  0.25376536685E+03  0.87231483658E+02 0.  0.
         23    2    4    4    0    0 -0.48136302779E+02 -0.43142878790E+03 -0.78602540964E+03  0.90210152416E+03  0.86621663639E+02 0.  0.
          2    1    3    3  502    0  0.24345579641E+01  0.14917673424E+03 -0.23227691168E+02  0.15099387653E+03  0.00000000000E+00 0. -1.
         -1    1    3    3    0  502 -0.30817639629E+02  0.79906155761E+02  0.34800354809E+02  0.92443416941E+02  0.00000000000E+00 0.  1.
         13    1    5    5    0    0  0.31565514664E+02  0.16291991493E+03  0.43537080836E+02  0.17156560787E+03  0.00000000000E+00 0. -1.
        -13    1    5    5    0    0  0.44953869780E+02  0.39425982968E+02  0.56405157867E+02  0.82199758972E+02  0.00000000000E+00 0.  1.
          1    1    6    6  503    0 -0.56503029501E+02 -0.41277845135E+03 -0.77220255084E+03  0.87742545083E+03  0.00000000000E+00 0. -1.
         -1    1    6    6    0  503  0.83667267217E+01 -0.18650336550E+02 -0.13822858805E+02  0.24676073330E+02  0.00000000000E+00 0.  1.
<mgrwt>
<rscale>  0 0.12260048E+04</rscale>
<asrwt>0</asrwt>
<pdfrwt beam="1">  1        2 0.15952421E+00 0.12260048E+04</pdfrwt>
<pdfrwt beam="2">  1       -1 0.55753360E-01 0.12260048E+04</pdfrwt>
<totfact> 0.87211398E+01</totfact>
</mgrwt>
</event>
<event>
12    7  0.1611233E-007  0.2527798E+04  0.7818608E-02  0.8393149E-01
         -1   -1    0    0    0  501 -0.00000000000E+00  0.00000000000E+00  0.53400764603E+03  0.53400764603E+03  0.00000000000E+00 0.  1.
          2   -1    0    0  501    0  0.00000000000E+00 -0.00000000000E+00 -0.29914191601E+04  0.29914191601E+04  0.00000000000E+00 0. -1.
         24    2    1    2    0    0 -0.95291911107E+03 -0.27796053660E+03 -0.17374847832E+04  0.20028223595E+04  0.84422388804E+02 0.  0.
        254    2    1    2    0    0  0.95291911107E+03  0.27796053660E+03 -0.71992673089E+03  0.15226044466E+04  0.90261448634E+03 0.  0.
         23    2    4    4    0    0  0.32981576274E+03  0.47860963989E+03 -0.65075125184E+02  0.59190187920E+03  0.90925452658E+02 0.  0.
         23    2    4    4    0    0  0.62310334832E+03 -0.20064910329E+03 -0.65485160570E+03  0.93070256744E+03  0.94121188966E+02 0.  0.
          2    1    3    3  502    0 -0.56729413552E+03 -0.12981218507E+03 -0.10633165997E+04  0.12121534683E+04  0.00000000000E+00 0. -1.
         -1    1    3    3    0  502 -0.38562497555E+03 -0.14814835153E+03 -0.67416818354E+03  0.79066889121E+03  0.00000000000E+00 0.  1.
         13    1    5    5    0    0  0.14812384086E+03  0.15025129288E+03 -0.47188900900E+02  0.21620109993E+03  0.00000000000E+00 0.  1.
        -13    1    5    5    0    0  0.18169192188E+03  0.32835834701E+03 -0.17886224284E+02  0.37570077927E+03  0.00000000000E+00 0. -1.
          2    1    6    6  503    0  0.59181426023E+03 -0.16612338872E+03 -0.61193088361E+03  0.86735258413E+03  0.00000000000E+00 0. -1.
         -2    1    6    6    0  503  0.31289088097E+02 -0.34525714569E+02 -0.42920722091E+02  0.63349983309E+02  0.00000000000E+00 0.  1.
<mgrwt>
<rscale>  0 0.25277980E+04</rscale>
<asrwt>0</asrwt>
<pdfrwt beam="1">  1        2 0.46021832E+00 0.25277980E+04</pdfrwt>
<pdfrwt beam="2">  1       -1 0.82155024E-01 0.25277980E+04</pdfrwt>
<totfact> 0.26288569E+00</totfact>
</mgrwt>
</event>
<event>
12    7  0.1611233E-007  0.2498709E+04  0.7818608E-02  0.8403446E-01
         -1   -1    0    0    0  501 -0.00000000000E+00  0.00000000000E+00  0.72268547328E+03  0.72268547328E+03  0.00000000000E+00 0.  1.
          2   -1    0    0  501    0  0.00000000000E+00 -0.00000000000E+00 -0.21598414725E+04  0.21598414725E+04  0.00000000000E+00 0. -1.
         24    2    1    2    0    0  0.39020008536E+03 -0.40134405686E+03 -0.16943247182E+04  0.17869923163E+04  0.96291894728E+02 0.  0.
        254    2    1    2    0    0 -0.39020008536E+03  0.40134405686E+03  0.25716871902E+03  0.10955346295E+04  0.90593996259E+03 0.  0.
         23    2    4    4    0    0  0.88464625009E+02  0.41247859474E+03  0.39916914993E+03  0.58787593297E+03  0.91090731214E+02 0.  0.
         23    2    4    4    0    0 -0.47866471037E+03 -0.11134537875E+02 -0.14200043091E+03  0.50765869654E+03  0.91155619178E+02 0.  0.
          2    1    3    3  502    0  0.37076845086E+03 -0.34706189942E+03 -0.15664710238E+04  0.16467400143E+04  0.00000000000E+00 0. -1.
         -1    1    3    3    0  502  0.19431634507E+02 -0.54282157441E+02 -0.12785369437E+03  0.14025230195E+03  0.00000000000E+00 0.  1.
         13    1    5    5    0    0  0.91273514024E+02  0.22215492701E+03  0.20209867356E+03  0.31389096803E+03  0.00000000000E+00 0.  1.
        -13    1    5    5    0    0 -0.28088890151E+01  0.19032366773E+03  0.19707047637E+03  0.27398496494E+03  0.00000000000E+00 0. -1.
          1    1    6    6  503    0 -0.17776898534E+03 -0.34647360897E+02 -0.86799105037E+02  0.20083908086E+03  0.00000000000E+00 0. -1.
         -1    1    6    6    0  503 -0.30089572503E+03  0.23512823023E+02 -0.55201325876E+02  0.30681961568E+03  0.00000000000E+00 0.  1.
<mgrwt>
<rscale>  0 0.24987085E+04</rscale>
<asrwt>0</asrwt>
<pdfrwt beam="1">  1        2 0.33228330E+00 0.24987085E+04</pdfrwt>
<pdfrwt beam="2">  1       -1 0.11118238E+00 0.24987085E+04</pdfrwt>
<totfact> 0.41064518E+00</totfact>
</mgrwt>
</event>
<event>
12    7  0.1611233E-007  0.2924107E+04  0.7818608E-02  0.8265741E-01
          2   -1    0    0  501    0  0.00000000000E+00  0.00000000000E+00  0.21015733678E+04  0.21015733678E+04  0.00000000000E+00 0. -1.
         -1   -1    0    0    0  501 -0.00000000000E+00 -0.00000000000E+00 -0.10171430436E+04  0.10171430436E+04  0.00000000000E+00 0.  1.
         24    2    1    2    0    0  0.11890832615E+04 -0.50770520354E+02 -0.91284462095E+02  0.11972564325E+04  0.92700937525E+02 0.  0.
        254    2    1    2    0    0 -0.11890832615E+04  0.50770520354E+02  0.11757147863E+04  0.19214599788E+04  0.94509604971E+03 0.  0.
         23    2    4    4    0    0 -0.99348084569E+03  0.42724628268E+03  0.82303788412E+03  0.13621337805E+04  0.92051618888E+02 0.  0.
         23    2    4    4    0    0 -0.19560241577E+03 -0.37647576233E+03  0.35267690218E+03  0.55932619832E+03  0.92035287407E+02 0.  0.
          2    1    3    3  502    0  0.80626970012E+03 -0.53199033790E+02 -0.22710899841E+02  0.80834197682E+03  0.00000000000E+00 0. -1.
         -1    1    3    3    0  502  0.38281356134E+03  0.24285134358E+01 -0.68573562253E+02  0.38891445572E+03  0.00000000000E+00 0.  1.
         13    1    5    5    0    0 -0.30875395993E+03  0.12572847458E+03  0.20204496732E+03  0.38981896556E+03  0.00000000000E+00 0. -1.
        -13    1    5    5    0    0 -0.68472688576E+03  0.30151780810E+03  0.62099291680E+03  0.97231481496E+03  0.00000000000E+00 0.  1.
          4    1    6    6  503    0 -0.14726237659E+03 -0.23418655750E+03  0.17825687263E+03  0.32909734717E+03  0.00000000000E+00 0. -1.
         -4    1    6    6    0  503 -0.48340039179E+02 -0.14228920482E+03  0.17442002954E+03  0.23022885115E+03  0.00000000000E+00 0.  1.
<mgrwt>
<rscale>  0 0.29241072E+04</rscale>
<asrwt>0</asrwt>
<pdfrwt beam="1">  1        2 0.32331898E+00 0.29241072E+04</pdfrwt>
<pdfrwt beam="2">  1       -1 0.15648355E+00 0.29241072E+04</pdfrwt>
<totfact> 0.17857265E+00</totfact>
</mgrwt>
</event>
<event>
12    7  0.1611233E-007  0.1420173E+04  0.7818608E-02  0.8939345E-01
         -1   -1    0    0    0  501 -0.00000000000E+00  0.00000000000E+00  0.29030369088E+03  0.29030369088E+03  0.00000000000E+00 0.  1.
          2   -1    0    0  501    0  0.00000000000E+00 -0.00000000000E+00 -0.17368794579E+04  0.17368794579E+04  0.00000000000E+00 0. -1.
         24    2    1    2    0    0  0.41614583507E+03 -0.17884522583E+02 -0.51302183837E+03  0.66480952945E+03  0.72684878816E+02 0.  0.
        254    2    1    2    0    0 -0.41614583507E+03  0.17884522583E+02 -0.93355392867E+03  0.13623736194E+04  0.90057855227E+03 0.  0.
         23    2    4    4    0    0 -0.41220982004E+03 -0.47449277818E+02 -0.25660022440E+01  0.42504781793E+03  0.92144958927E+02 0.  0.
         23    2    4    4    0    0 -0.39360150211E+01  0.65333800401E+02 -0.93098792643E+03  0.93732580143E+03  0.86931819151E+02 0.  0.
          2    1    3    3  502    0  0.14000889445E+03 -0.49553496648E+01 -0.22909051232E+03  0.26853213746E+03  0.00000000000E+00 0. -1.
         -1    1    3    3    0  502  0.27613694062E+03 -0.12929172918E+02 -0.28393132605E+03  0.39627739199E+03  0.00000000000E+00 0.  1.
         13    1    5    5    0    0 -0.40670934276E+03 -0.41972912540E+02  0.11446027574E+02  0.40902961558E+03  0.00000000000E+00 0. -1.
        -13    1    5    5    0    0 -0.55004772873E+01 -0.54763652780E+01 -0.14012029818E+02  0.16018202355E+02  0.00000000000E+00 0.  1.
          3    1    6    6  503    0  0.24834648718E+02  0.18622564448E+02 -0.66577297342E+03  0.66649622041E+03  0.00000000000E+00 0. -1.
         -3    1    6    6    0  503 -0.28770663739E+02  0.46711235954E+02 -0.26521495301E+03  0.27082958102E+03  0.00000000000E+00 0.  1.
<mgrwt>
<rscale>  0 0.14201725E+04</rscale>
<asrwt>0</asrwt>
<pdfrwt beam="1">  1        2 0.26721223E+00 0.14201725E+04</pdfrwt>
<pdfrwt beam="2">  1       -1 0.44662106E-01 0.14201725E+04</pdfrwt>
<totfact> 0.51443452E+01</totfact>
</mgrwt>
</event>
<event>
12    7  0.1611233E-007  0.1209432E+04  0.7818608E-02  0.9104641E-01
         -1   -1    0    0    0  501 -0.00000000000E+00  0.00000000000E+00  0.36527148841E+03  0.36527148841E+03  0.00000000000E+00 0.  1.
          2   -1    0    0  501    0  0.00000000000E+00 -0.00000000000E+00 -0.10011217713E+04  0.10011217713E+04  0.00000000000E+00 0. -1.
         24    2    1    2    0    0 -0.24475479641E+03 -0.98044444352E+02 -0.93581097604E+02  0.29071063185E+03  0.78978644008E+02 0.  0.
        254    2    1    2    0    0  0.24475479641E+03  0.98044444352E+02 -0.54226918527E+03  0.10756826278E+04  0.89079718405E+03 0.  0.
         23    2    4    4    0    0  0.24987597892E+03 -0.46458760010E+01  0.19230564443E+03  0.32820820931E+03  0.90992190731E+02 0.  0.
         23    2    4    4    0    0 -0.51211825077E+01  0.10269032035E+03 -0.73457482970E+03  0.74747441853E+03  0.92446187188E+02 0.  0.
          2    1    3    3  502    0 -0.23381783983E+03 -0.72332907905E+02 -0.95456776947E+02  0.26270673393E+03  0.00000000000E+00 0. -1.
         -1    1    3    3    0  502 -0.10936956580E+02 -0.25711536447E+02  0.18756793425E+01  0.28003897920E+02  0.00000000000E+00 0.  1.
         13    1    5    5    0    0  0.25383889260E+03 -0.12187598739E+02  0.17392481445E+03  0.30794896012E+03  0.00000000000E+00 0. -1.
        -13    1    5    5    0    0 -0.39629136833E+01  0.75417227383E+01  0.18380829984E+02  0.20259249187E+02  0.00000000000E+00 0.  1.
          4    1    6    6  503    0  0.26024516253E+02  0.51240983695E+02 -0.55771724712E+03  0.56067052856E+03  0.00000000000E+00 0. -1.
         -4    1    6    6    0  503 -0.31145698761E+02  0.51449336658E+02 -0.17685758258E+03  0.18680388997E+03  0.00000000000E+00 0.  1.
<mgrwt>
<rscale>  0 0.12094317E+04</rscale>
<asrwt>0</asrwt>
<pdfrwt beam="1">  1        2 0.15401873E+00 0.12094317E+04</pdfrwt>
<pdfrwt beam="2">  1       -1 0.56195615E-01 0.12094317E+04</pdfrwt>
<totfact> 0.90623746E+01</totfact>
</mgrwt>
</event>
<event>
12    7  0.1611233E-007  0.1145179E+04  0.7818608E-02  0.9162243E-01
          2   -1    0    0  501    0  0.00000000000E+00  0.00000000000E+00  0.21294551763E+04  0.21294551763E+04  0.00000000000E+00 0. -1.
         -1   -1    0    0    0  501 -0.00000000000E+00 -0.00000000000E+00 -0.15396371120E+03  0.15396371120E+03  0.00000000000E+00 0.  1.
         24    2    1    2    0    0 -0.28711840175E+02  0.23309559715E+03  0.58818505123E+03  0.63838794458E+03  0.80122319679E+02 0.  0.
        254    2    1    2    0    0  0.28711840175E+02 -0.23309559715E+03  0.13873064139E+04  0.16450309429E+04  0.85226157372E+03 0.  0.
         23    2    4    4    0    0  0.11397130444E+03 -0.23500486511E+03  0.27151920445E+02  0.27909202076E+03  0.94543029385E+02 0.  0.
         23    2    4    4    0    0 -0.85259464266E+02  0.19092679648E+01  0.13601544934E+04  0.13659389222E+04  0.92174137113E+02 0.  0.
          2    1    3    3  502    0  0.12391138672E+02  0.15708612565E+03  0.32124032962E+03  0.35780573020E+03  0.00000000000E+00 0. -1.
         -1    1    3    3    0  502 -0.41102978847E+02  0.76009471496E+02  0.26694472162E+03  0.28058221438E+03  0.00000000000E+00 0.  1.
         13    1    5    5    0    0  0.20641337335E+02 -0.14667428993E+03  0.27164888380E+02  0.15058998404E+03  0.00000000000E+00 0.  1.
        -13    1    5    5    0    0  0.93329967106E+02 -0.88330575182E+02 -0.12967934309E-01  0.12850203672E+03  0.00000000000E+00 0. -1.
          3    1    6    6  503    0 -0.67311065359E+02 -0.63178784938E+01  0.40677013885E+03  0.41235014365E+03  0.00000000000E+00 0. -1.
         -3    1    6    6    0  503 -0.17948398907E+02  0.82271464586E+01  0.95338435458E+03  0.95358877852E+03  0.00000000000E+00 0.  1.
<mgrwt>
<rscale>  0 0.11451792E+04</rscale>
<asrwt>0</asrwt>
<pdfrwt beam="1">  1        2 0.32760847E+00 0.11451792E+04</pdfrwt>
<pdfrwt beam="2">  1       -1 0.23686726E-01 0.11451792E+04</pdfrwt>
<totfact> 0.98316767E+01</totfact>
</mgrwt>
</event>
<event>
12    7  0.1611233E-007  0.1652127E+04  0.7818608E-02  0.8789149E-01
         -1   -1    0    0    0  501 -0.00000000000E+00  0.00000000000E+00  0.38569267543E+03  0.38569267543E+03  0.00000000000E+00 0.  1.
          2   -1    0    0  501    0  0.00000000000E+00 -0.00000000000E+00 -0.17692343362E+04  0.17692343362E+04  0.00000000000E+00 0. -1.
         24    2    1    2    0    0  0.31002377115E+03  0.46155569516E+02  0.14675732884E+03  0.35556507983E+03  0.81509123096E+02 0.  0.
        254    2    1    2    0    0 -0.31002377115E+03 -0.46155569516E+02 -0.15302989896E+04  0.17993619318E+04  0.89310877769E+03 0.  0.
         23    2    4    4    0    0 -0.53921293900E+02  0.21556195163E+03 -0.13681479501E+04  0.13897354990E+04  0.10080418087E+03 0.  0.
         23    2    4    4    0    0 -0.25610247725E+03 -0.26171752115E+03 -0.16215103955E+03  0.40962643285E+03  0.86118030274E+02 0.  0.
          4    1    3    3  502    0  0.68996171424E+02 -0.19932466370E+02  0.50266903733E+02  0.87661488110E+02  0.00000000000E+00 0. -1.
         -3    1    3    3    0  502  0.24102759972E+03  0.66088035886E+02  0.96490425108E+02  0.26790359172E+03  0.00000000000E+00 0.  1.
         13    1    5    5    0    0 -0.25092964787E+01  0.34147454805E+02 -0.69570093015E+02  0.77539300232E+02  0.00000000000E+00 0. -1.
        -13    1    5    5    0    0 -0.51411997422E+02  0.18141449683E+03 -0.12985778571E+04  0.13121961987E+04  0.00000000000E+00 0.  1.
          2    1    6    6  503    0 -0.15637106375E+03 -0.21240173970E+03 -0.12849222786E+03  0.29338824317E+03  0.00000000000E+00 0. -1.
         -2    1    6    6    0  503 -0.99731413498E+02 -0.49315781443E+02 -0.33658811685E+02  0.11623818969E+03  0.00000000000E+00 0.  1.
<mgrwt>
<rscale>  0 0.16521268E+04</rscale>
<asrwt>0</asrwt>
<pdfrwt beam="1">  1        2 0.27218990E+00 0.16521268E+04</pdfrwt>
<pdfrwt beam="2">  1       -1 0.59337335E-01 0.16521268E+04</pdfrwt>
<totfact> 0.28113129E+01</totfact>
</mgrwt>
</event>
<event>
12    7  0.1611233E-007  0.3840670E+04  0.7818608E-02  0.8037483E-01
          2   -1    0    0  501    0  0.00000000000E+00  0.00000000000E+00  0.29199302253E+04  0.29199302253E+04  0.00000000000E+00 0. -1.
         -1   -1    0    0    0  501 -0.00000000000E+00 -0.00000000000E+00 -0.12629363864E+04  0.12629363864E+04  0.00000000000E+00 0.  1.
         24    2    1    2    0    0  0.16606400409E+03  0.17752503280E+04  0.42388778039E+03  0.18342088514E+04  0.74500198115E+02 0.  0.
        254    2    1    2    0    0 -0.16606400409E+03 -0.17752503280E+04  0.12331060585E+04  0.23486577603E+04  0.90363252632E+03 0.  0.
         23    2    4    4    0    0 -0.40067847057E+03 -0.87443288873E+03  0.98628043177E+03  0.13807738504E+04  0.92796671280E+02 0.  0.
         23    2    4    4    0    0  0.23461446647E+03 -0.90081743932E+03  0.24682562677E+03  0.96788390987E+03  0.96748985040E+02 0.  0.
          2    1    3    3  502    0  0.91056505329E+02  0.59538203397E+03  0.14416376113E+03  0.61931756277E+03  0.00000000000E+00 0. -1.
         -1    1    3    3    0  502  0.75007498766E+02  0.11798682941E+04  0.27972401926E+03  0.12148912886E+04  0.00000000000E+00 0.  1.
         13    1    5    5    0    0 -0.11140062998E+02 -0.81572691317E+02  0.98350702239E+02  0.12826170747E+03  0.00000000000E+00 0. -1.
        -13    1    5    5    0    0 -0.38953840757E+03 -0.79286019742E+03  0.88792972953E+03  0.12525121429E+04  0.00000000000E+00 0.  1.
          2    1    6    6  503    0  0.15962504213E+03 -0.55379087737E+03  0.19855732920E+03  0.60958141615E+03  0.00000000000E+00 0. -1.
         -2    1    6    6    0  503  0.74989424342E+02 -0.34702656194E+03  0.48268297567E+02  0.35830249372E+03  0.00000000000E+00 0.  1.
<mgrwt>
<rscale>  0 0.38406698E+04</rscale>
<asrwt>0</asrwt>
<pdfrwt beam="1">  1        2 0.44922003E+00 0.38406698E+04</pdfrwt>
<pdfrwt beam="2">  1       -1 0.19429791E+00 0.38406698E+04</pdfrwt>
<totfact> 0.29208558E-01</totfact>
</mgrwt>
</event>
<event>
12    7  0.1611233E-007  0.1700447E+04  0.7818608E-02  0.8761109E-01
         -1   -1    0    0    0  501 -0.00000000000E+00  0.00000000000E+00  0.32741616208E+03  0.32741616208E+03  0.00000000000E+00 0.  1.
          2   -1    0    0  501    0  0.00000000000E+00 -0.00000000000E+00 -0.22078330023E+04  0.22078330023E+04  0.00000000000E+00 0. -1.
         24    2    1    2    0    0 -0.25515148707E+03 -0.50569971275E+03 -0.10296593082E+04  0.11777441854E+04  0.77772709536E+02 0.  0.
        254    2    1    2    0    0  0.25515148707E+03  0.50569971275E+03 -0.85075753198E+03  0.13575049790E+04  0.89341866385E+03 0.  0.
         23    2    4    4    0    0 -0.12240174496E+02  0.44294583978E+03  0.67903871241E+01  0.45242072371E+03  0.91036053503E+02 0.  0.
         23    2    4    4    0    0  0.26739166157E+03  0.62753872974E+02 -0.85754791911E+03  0.90508425527E+03  0.91393250996E+02 0.  0.
          4    1    3    3  502    0 -0.26522537670E+02 -0.11574184270E+03 -0.18753696914E+03  0.22196786693E+03  0.00000000000E+00 0. -1.
         -3    1    3    3    0  502 -0.22862894940E+03 -0.38995787006E+03 -0.84212233907E+03  0.95577631843E+03  0.00000000000E+00 0.  1.
         13    1    5    5    0    0 -0.95013752747E+01  0.26284776604E+03 -0.40691471569E+02  0.26614849258E+03  0.00000000000E+00 0. -1.
        -13    1    5    5    0    0 -0.27387992214E+01  0.18009807374E+03  0.47481858694E+02  0.18627223113E+03  0.00000000000E+00 0.  1.
          4    1    6    6  503    0  0.15236214119E+03  0.71695929193E+02 -0.41790795259E+03  0.45055697216E+03  0.00000000000E+00 0.  1.
         -4    1    6    6    0  503  0.11502952039E+03 -0.89420562188E+01 -0.43963996652E+03  0.45452728311E+03  0.00000000000E+00 0. -1.
<mgrwt>
<rscale>  0 0.17004472E+04</rscale>
<asrwt>0</asrwt>
<pdfrwt beam="1">  1        2 0.33966660E+00 0.17004472E+04</pdfrwt>
<pdfrwt beam="2">  1       -1 0.50371720E-01 0.17004472E+04</pdfrwt>
<totfact> 0.21932811E+01</totfact>
</mgrwt>
</event>
<event>
12    7  0.1611233E-007  0.1535532E+04  0.7818608E-02  0.8861162E-01
         -1   -1    0    0    0  501 -0.00000000000E+00  0.00000000000E+00  0.77512561257E+03  0.77512561257E+03  0.00000000000E+00 0.  1.
          2   -1    0    0  501    0  0.00000000000E+00 -0.00000000000E+00 -0.76047667145E+03  0.76047667145E+03  0.00000000000E+00 0. -1.
         24    2    1    2    0    0 -0.26852064966E+03 -0.28289558413E+03 -0.27931199658E+03  0.48635106802E+03  0.79930714428E+02 0.  0.
        254    2    1    2    0    0  0.26852064966E+03  0.28289558413E+03  0.29396093770E+03  0.10492512160E+04  0.92864515860E+03 0.  0.
         23    2    4    4    0    0  0.50381129014E+02  0.49045857564E+03 -0.13206788407E+03  0.51922722095E+03  0.95221365183E+02 0.  0.
         23    2    4    4    0    0  0.21813952065E+03 -0.20756299151E+03  0.42602882177E+03  0.53002399506E+03  0.93582222945E+02 0.  0.
          2    1    3    3  502    0 -0.23744296843E+03 -0.20757773489E+03 -0.23723987620E+03  0.39465230031E+03  0.00000000000E+00 0. -1.
         -1    1    3    3    0  502 -0.31077681231E+02 -0.75317849248E+02 -0.42072120378E+02  0.91698767708E+02  0.00000000000E+00 0.  1.
         13    1    5    5    0    0  0.68580861948E+02  0.20616198785E+03 -0.57900128327E+02  0.22485222863E+03  0.00000000000E+00 0.  1.
        -13    1    5    5    0    0 -0.18199732934E+02  0.28429658780E+03 -0.74167755742E+02  0.29437499232E+03  0.00000000000E+00 0. -1.
          4    1    6    6  503    0  0.19010958140E+03 -0.15125361209E+03  0.27804228313E+03  0.36922461906E+03  0.00000000000E+00 0. -1.
         -4    1    6    6    0  503  0.28029939243E+02 -0.56309379417E+02  0.14798653863E+03  0.16079937600E+03  0.00000000000E+00 0.  1.
<mgrwt>
<rscale>  0 0.15355324E+04</rscale>
<asrwt>0</asrwt>
<pdfrwt beam="1">  1        2 0.11699641E+00 0.15355324E+04</pdfrwt>
<pdfrwt beam="2">  1       -1 0.11925009E+00 0.15355324E+04</pdfrwt>
<totfact> 0.25482796E+01</totfact>
</mgrwt>
</event>
<event>
12    7  0.1611233E-007  0.1368151E+04  0.7818608E-02  0.8977200E-01
         -1   -1    0    0    0  501 -0.00000000000E+00  0.00000000000E+00  0.44553375948E+03  0.44553375948E+03  0.00000000000E+00 0.  1.
          2   -1    0    0  501    0  0.00000000000E+00 -0.00000000000E+00 -0.10503347757E+04  0.10503347757E+04  0.00000000000E+00 0. -1.
         24    2    1    2    0    0  0.13426793272E+03 -0.25188617695E+03 -0.44365130421E+03  0.53388551799E+03  0.82053291832E+02 0.  0.
        254    2    1    2    0    0 -0.13426793272E+03  0.25188617695E+03 -0.16114971205E+03  0.96198301723E+03  0.90441559687E+03 0.  0.
         23    2    4    4    0    0  0.72490551846E+02  0.35837678989E+03 -0.44423032942E+03  0.58242239018E+03  0.90479010648E+02 0.  0.
         23    2    4    4    0    0 -0.20675848456E+03 -0.10649061295E+03  0.28308061737E+03  0.37956062705E+03  0.99208427519E+02 0.  0.
          4    1    3    3  502    0  0.13318236867E+03 -0.25337920628E+03 -0.44656711671E+03  0.53043449664E+03  0.00000000000E+00 0. -1.
         -1    1    3    3    0  502  0.10855640476E+01  0.14930293346E+01  0.29158124938E+01  0.34510213553E+01  0.00000000000E+00 0.  1.
         13    1    5    5    0    0  0.20173197192E+02  0.34848006729E+02 -0.16367248967E+02  0.43465253901E+02  0.00000000000E+00 0. -1.
        -13    1    5    5    0    0  0.52317354654E+02  0.32352878316E+03 -0.42786308045E+03  0.53895713628E+03  0.00000000000E+00 0.  1.
          1    1    6    6  503    0 -0.15654043060E+03 -0.33579850522E+02  0.14784396891E+03  0.21792281183E+03  0.00000000000E+00 0. -1.
         -1    1    6    6    0  503 -0.50218053960E+02 -0.72910762425E+02  0.13523664846E+03  0.16163781522E+03  0.00000000000E+00 0.  1.
<mgrwt>
<rscale>  0 0.13681515E+04</rscale>
<asrwt>0</asrwt>
<pdfrwt beam="1">  1        2 0.16158997E+00 0.13681515E+04</pdfrwt>
<pdfrwt beam="2">  1       -1 0.68543655E-01 0.13681515E+04</pdfrwt>
<totfact> 0.56092464E+01</totfact>
</mgrwt>
</event>
<event>
12    7  0.1611233E-007  0.1993721E+04  0.7818608E-02  0.8609562E-01
          2   -1    0    0  501    0  0.00000000000E+00  0.00000000000E+00  0.25958898617E+04  0.25958898617E+04  0.00000000000E+00 0. -1.
         -1   -1    0    0    0  501 -0.00000000000E+00 -0.00000000000E+00 -0.38280913776E+03  0.38280913776E+03  0.00000000000E+00 0.  1.
         24    2    1    2    0    0 -0.33305744451E+03  0.43739989419E+03  0.17728953369E+04  0.18578271866E+04  0.78217971871E+02 0.  0.
        254    2    1    2    0    0  0.33305744451E+03 -0.43739989419E+03  0.44018538704E+03  0.11208718128E+04  0.87197736035E+03 0.  0.
         23    2    4    4    0    0  0.56811596249E+03 -0.96008657454E+02  0.36939847316E+03  0.69046937257E+03  0.91210269956E+02 0.  0.
         23    2    4    4    0    0 -0.23505851798E+03 -0.34139123674E+03  0.70786913881E+02  0.43040244022E+03  0.91842201493E+02 0.  0.
          4    1    3    3  502    0 -0.22761924888E+03  0.30358840494E+03  0.10960582800E+04  0.11598793883E+04  0.00000000000E+00 0. -1.
         -3    1    3    3    0  502 -0.10543819563E+03  0.13381148925E+03  0.67683705683E+03  0.69794779837E+03  0.00000000000E+00 0.  1.
         13    1    5    5    0    0  0.10032930759E+03 -0.90877632650E+01  0.10762946864E+03  0.14742001194E+03  0.00000000000E+00 0.  1.
        -13    1    5    5    0    0  0.46778665490E+03 -0.86920894189E+02  0.26176900452E+03  0.54304936063E+03  0.00000000000E+00 0. -1.
          3    1    6    6  503    0 -0.70445637725E+02 -0.16007415374E+03  0.61310066618E+02  0.18532470650E+03  0.00000000000E+00 0. -1.
         -3    1    6    6    0  503 -0.16461288025E+03 -0.18131708300E+03  0.94768472633E+01  0.24507773372E+03  0.00000000000E+00 0.  1.
<mgrwt>
<rscale>  0 0.19937205E+04</rscale>
<asrwt>0</asrwt>
<pdfrwt beam="1">  1        2 0.39936766E+00 0.19937205E+04</pdfrwt>
<pdfrwt beam="2">  1       -1 0.58893715E-01 0.19937205E+04</pdfrwt>
<totfact> 0.94697393E+00</totfact>
</mgrwt>
</event>
<event>
12    7  0.1611233E-007  0.1404984E+04  0.7818608E-02  0.8950219E-01
         -1   -1    0    0    0  501 -0.00000000000E+00  0.00000000000E+00  0.78456035368E+03  0.78456035368E+03  0.00000000000E+00 0.  1.
          2   -1    0    0  501    0  0.00000000000E+00 -0.00000000000E+00 -0.62900851392E+03  0.62900851392E+03  0.00000000000E+00 0. -1.
         24    2    1    2    0    0 -0.15872262582E+03 -0.37106263798E+03  0.83262010052E+02  0.41975140003E+03  0.79864399185E+02 0.  0.
        254    2    1    2    0    0  0.15872262582E+03  0.37106263798E+03  0.72289829708E+02  0.99381746756E+03  0.90529939031E+03 0.  0.
         23    2    4    4    0    0  0.40825070360E+03 -0.95030790994E+02 -0.79379572067E+02  0.43711939230E+03  0.95251028542E+02 0.  0.
         23    2    4    4    0    0 -0.24952807778E+03  0.46609342898E+03  0.15166940177E+03  0.55669807526E+03  0.86033676139E+02 0.  0.
          4    1    3    3  502    0 -0.30356018310E+02 -0.14937877680E+03  0.54907490285E+02  0.16201956455E+03  0.00000000000E+00 0. -1.
         -1    1    3    3    0  502 -0.12836660751E+03 -0.22168386118E+03  0.28354519767E+02  0.25773183548E+03  0.00000000000E+00 0.  1.
         13    1    5    5    0    0  0.11633363679E+03  0.41989874486E+01 -0.52277365199E+02  0.12760904928E+03  0.00000000000E+00 0.  1.
        -13    1    5    5    0    0  0.29191706680E+03 -0.99229778443E+02 -0.27102206868E+02  0.30951034302E+03  0.00000000000E+00 0. -1.
          2    1    6    6  503    0 -0.16311377896E+03  0.37739272113E+03  0.12819836147E+03  0.43065785808E+03  0.00000000000E+00 0. -1.
         -2    1    6    6    0  503 -0.86414298817E+02  0.88700707852E+02  0.23471040307E+02  0.12604021718E+03  0.00000000000E+00 0.  1.
<mgrwt>
<rscale>  0 0.14049842E+04</rscale>
<asrwt>0</asrwt>
<pdfrwt beam="1">  1        2 0.96770541E-01 0.14049842E+04</pdfrwt>
<pdfrwt beam="2">  1       -1 0.12070159E+00 0.14049842E+04</pdfrwt>
<totfact> 0.31776227E+01</totfact>
</mgrwt>
</event>
<event>
12    7  0.1611233E-007  0.2779029E+04  0.7818608E-02  0.8309809E-01
          2   -1    0    0  501    0  0.00000000000E+00  0.00000000000E+00  0.41937633606E+04  0.41937633606E+04  0.00000000000E+00 0. -1.
         -1   -1    0    0    0  501 -0.00000000000E+00 -0.00000000000E+00 -0.46038600760E+03  0.46038600760E+03  0.00000000000E+00 0.  1.
         24    2    1    2    0    0 -0.81980361428E+03 -0.42278935157E+03  0.28222781826E+03  0.96809681272E+03  0.82037159939E+02 0.  0.
        254    2    1    2    0    0  0.81980361428E+03  0.42278935157E+03  0.34511495348E+04  0.36860525555E+04  0.90869220805E+03 0.  0.
         23    2    4    4    0    0  0.37930986612E+03  0.25295648396E+03  0.29687759774E+04  0.30048887804E+04  0.88672549445E+02 0.  0.
         23    2    4    4    0    0  0.44049374815E+03  0.16983286760E+03  0.48237355733E+03  0.68116377513E+03  0.91770881284E+02 0.  0.
          4    1    3    3  502    0 -0.38847277259E+02 -0.24142716876E+02  0.33460745852E+02  0.56671008828E+02  0.00000000000E+00 0. -1.
         -3    1    3    3    0  502 -0.78095633702E+03 -0.39864663469E+03  0.24876707241E+03  0.91142580389E+03  0.00000000000E+00 0.  1.
         13    1    5    5    0    0  0.19214761537E+03  0.75249465035E+02  0.13321370259E+04  0.13480253127E+04  0.00000000000E+00 0. -1.
        -13    1    5    5    0    0  0.18716225075E+03  0.17770701893E+03  0.16366389516E+04  0.16568634677E+04  0.00000000000E+00 0.  1.
          4    1    6    6  503    0  0.35673486009E+02  0.43793402314E+02  0.47408022536E+02  0.73742662625E+02  0.00000000000E+00 0. -1.
         -4    1    6    6    0  503  0.40482026214E+03  0.12603946529E+03  0.43496553480E+03  0.60742111250E+03  0.00000000000E+00 0.  1.
<mgrwt>
<rscale>  0 0.27790286E+04</rscale>
<asrwt>0</asrwt>
<pdfrwt beam="1">  1        2 0.64519434E+00 0.27790286E+04</pdfrwt>
<pdfrwt beam="2">  1       -1 0.70828619E-01 0.27790286E+04</pdfrwt>
<totfact> 0.47034357E-01</totfact>
</mgrwt>
</event>
<event>
12    7  0.1611233E-007  0.1650489E+04  0.7818608E-02  0.8790117E-01
         -1   -1    0    0    0  501 -0.00000000000E+00  0.00000000000E+00  0.21347911074E+04  0.21347911074E+04  0.00000000000E+00 0.  1.
          2   -1    0    0  501    0  0.00000000000E+00 -0.00000000000E+00 -0.31901403233E+03  0.31901403233E+03  0.00000000000E+00 0. -1.
         24    2    1    2    0    0  0.18586056705E+03  0.53545529877E+03  0.50828243536E+03  0.76581857151E+03  0.82888618132E+02 0.  0.
        254    2    1    2    0    0 -0.18586056705E+03 -0.53545529877E+03  0.13074946397E+04  0.16879865682E+04  0.90470983978E+03 0.  0.
         23    2    4    4    0    0  0.63250133775E+02 -0.69182812489E+03  0.11376015806E+04  0.13360420624E+04  0.90798141223E+02 0.  0.
         23    2    4    4    0    0 -0.24911070082E+03  0.15637282612E+03  0.16989305904E+03  0.35194450576E+03  0.92155746505E+02 0.  0.
          2    1    3    3  502    0  0.39285674555E+02  0.21008500026E+03  0.15815964684E+03  0.26588257831E+03  0.00000000000E+00 0. -1.
         -1    1    3    3    0  502  0.14657489249E+03  0.32537029851E+03  0.35012278852E+03  0.49993599321E+03  0.00000000000E+00 0.  1.
         13    1    5    5    0    0  0.20328177574E+02 -0.10758079239E+03  0.12479043000E+03  0.16601058134E+03  0.00000000000E+00 0. -1.
        -13    1    5    5    0    0  0.42921956201E+02 -0.58424733250E+03  0.10128111506E+04  0.11700314811E+04  0.00000000000E+00 0.  1.
          3    1    6    6  503    0 -0.16417443510E+03  0.58577178172E+02  0.12636211896E+03  0.21529495129E+03  0.00000000000E+00 0. -1.
         -3    1    6    6    0  503 -0.84936265717E+02  0.97795647952E+02  0.43530940073E+02  0.13664955447E+03  0.00000000000E+00 0.  1.
<mgrwt>
<rscale>  0 0.16504888E+04</rscale>
<asrwt>0</asrwt>
<pdfrwt beam="1">  1        2 0.49079083E-01 0.16504888E+04</pdfrwt>
<pdfrwt beam="2">  1       -1 0.32842939E+00 0.16504888E+04</pdfrwt>
<totfact> 0.24224485E+00</totfact>
</mgrwt>
</event>
<event>
12    7  0.1611233E-007  0.3626712E+04  0.7818608E-02  0.8084400E-01
         -1   -1    0    0    0  501 -0.00000000000E+00  0.00000000000E+00  0.20200166345E+04  0.20200166345E+04  0.00000000000E+00 0.  1.
          2   -1    0    0  501    0  0.00000000000E+00 -0.00000000000E+00 -0.16278383720E+04  0.16278383720E+04  0.00000000000E+00 0. -1.
         24    2    1    2    0    0 -0.31149423794E+03 -0.10018017493E+04 -0.11629653150E+04  0.15683970383E+04  0.82131240568E+02 0.  0.
        254    2    1    2    0    0  0.31149423794E+03  0.10018017493E+04  0.15551435776E+04  0.20794579682E+04  0.89723937138E+03 0.  0.
         23    2    4    4    0    0  0.10321743188E+03  0.97971198034E+03  0.74722097026E+03  0.12397778689E+04  0.90667431168E+02 0.  0.
         23    2    4    4    0    0  0.20827680606E+03  0.22089768987E+02  0.80792260730E+03  0.83968009935E+03  0.91959469492E+02 0.  0.
          2    1    3    3  502    0 -0.26290186682E+03 -0.72360154774E+03 -0.84570011577E+03  0.11436456083E+04  0.00000000000E+00 0. -1.
         -1    1    3    3    0  502 -0.48592371113E+02 -0.27820020159E+03 -0.31726519925E+03  0.42475143007E+03  0.00000000000E+00 0.  1.
         13    1    5    5    0    0  0.79590875923E+01  0.47068332645E+03  0.33284328378E+03  0.57653342699E+03  0.00000000000E+00 0.  1.
        -13    1    5    5    0    0  0.95258344284E+02  0.50902865389E+03  0.41437768648E+03  0.66324444188E+03  0.00000000000E+00 0. -1.
          3    1    6    6  503    0  0.90349069419E+01  0.64907132433E+01  0.48892246806E+01  0.12151683827E+02  0.00000000000E+00 0. -1.
         -3    1    6    6    0  503  0.19924189912E+03  0.15599055743E+02  0.80303338262E+03  0.82752841552E+03  0.00000000000E+00 0.  1.
<mgrwt>
<rscale>  0 0.36267123E+04</rscale>
<asrwt>0</asrwt>
<pdfrwt beam="1">  1        2 0.25043667E+00 0.36267123E+04</pdfrwt>
<pdfrwt beam="2">  1       -1 0.31077179E+00 0.36267123E+04</pdfrwt>
<totfact> 0.27993577E-01</totfact>
</mgrwt>
</event>
<event>
12    7  0.1611233E-007  0.1485967E+04  0.7818608E-02  0.8893839E-01
         -1   -1    0    0    0  501 -0.00000000000E+00  0.00000000000E+00  0.36008629831E+03  0.36008629831E+03  0.00000000000E+00 0.  1.
          2   -1    0    0  501    0  0.00000000000E+00 -0.00000000000E+00 -0.15330336475E+04  0.15330336475E+04  0.00000000000E+00 0. -1.
         24    2    1    2    0    0  0.17881920463E+02 -0.45102271121E+03 -0.26139504267E+03  0.52849579652E+03  0.85083426700E+02 0.  0.
        254    2    1    2    0    0 -0.17881920463E+02  0.45102271121E+03 -0.91155230654E+03  0.13646241493E+04  0.90968687592E+03 0.  0.
         23    2    4    4    0    0  0.29271591525E+03  0.31070274128E+03 -0.57044256317E+02  0.44052048735E+03  0.92657714844E+02 0.  0.
         23    2    4    4    0    0 -0.31059783572E+03  0.14031996993E+03 -0.85450805022E+03  0.92410366196E+03  0.87308995145E+02 0.  0.
          2    1    3    3  502    0  0.12188825363E+02 -0.30001504188E+02 -0.43984792339E+02  0.54619773657E+02  0.00000000000E+00 0. -1.
         -1    1    3    3    0  502  0.56930951001E+01 -0.42102120702E+03 -0.21741025033E+03  0.47387602286E+03  0.00000000000E+00 0.  1.
         13    1    5    5    0    0  0.91345544616E+02  0.41626025557E+02 -0.57777506573E+01  0.10054907721E+03  0.00000000000E+00 0. -1.
        -13    1    5    5    0    0  0.20137037064E+03  0.26907671572E+03 -0.51266505660E+02  0.33997141015E+03  0.00000000000E+00 0.  1.
          1    1    6    6  503    0 -0.27029180155E+03  0.15151569676E+03 -0.74434449414E+03  0.80626508687E+03  0.00000000000E+00 0. -1.
         -1    1    6    6    0  503 -0.40306034165E+02 -0.11195726830E+02 -0.11016355609E+03  0.11783857509E+03  0.00000000000E+00 0.  1.
<mgrwt>
<rscale>  0 0.14859669E+04</rscale>
<asrwt>0</asrwt>
<pdfrwt beam="1">  1        2 0.23585133E+00 0.14859669E+04</pdfrwt>
<pdfrwt beam="2">  1       -1 0.55397892E-01 0.14859669E+04</pdfrwt>
<totfact> 0.44150140E+01</totfact>
</mgrwt>
</event>
<event>
12    7  0.1611233E-007  0.1772843E+04  0.7818608E-02  0.8720876E-01
         -1   -1    0    0    0  501 -0.00000000000E+00  0.00000000000E+00  0.50258738491E+03  0.50258738491E+03  0.00000000000E+00 0.  1.
          2   -1    0    0  501    0  0.00000000000E+00 -0.00000000000E+00 -0.15633958123E+04  0.15633958123E+04  0.00000000000E+00 0. -1.
         24    2    1    2    0    0  0.19876213442E+03  0.60114450062E+03 -0.22088687989E+03  0.67527977583E+03  0.79565477694E+02 0.  0.
        254    2    1    2    0    0 -0.19876213442E+03 -0.60114450062E+03 -0.83992154755E+03  0.13907034214E+04  0.90978387741E+03 0.  0.
         23    2    4    4    0    0 -0.14904462972E+02 -0.80557331845E+03 -0.69211465161E+03  0.10659486082E+04  0.89739790287E+02 0.  0.
         23    2    4    4    0    0 -0.18385767145E+03  0.20442881783E+03 -0.14780689594E+03  0.32475481320E+03  0.89576923941E+02 0.  0.
          4    1    3    3  502    0  0.66949575555E+02  0.12006190536E+03 -0.69267150898E+02  0.15393194918E+03  0.00000000000E+00 0. -1.
         -3    1    3    3    0  502  0.13181255887E+03  0.48108259526E+03 -0.15161972899E+03  0.52134782665E+03  0.00000000000E+00 0.  1.
         13    1    5    5    0    0 -0.15058875521E+02 -0.78381260890E+03 -0.64933140568E+03  0.10179490410E+04  0.00000000000E+00 0. -1.
        -13    1    5    5    0    0  0.15441254866E+00 -0.21760709553E+02 -0.42783245937E+02  0.47999567252E+02  0.00000000000E+00 0.  1.
          4    1    6    6  503    0 -0.18928518688E+03  0.19624821608E+03 -0.15400463674E+03  0.31314481063E+03  0.00000000000E+00 0. -1.
         -4    1    6    6    0  503  0.54275154264E+01  0.81806017525E+01  0.61977408066E+01  0.11610002577E+02  0.00000000000E+00 0.  1.
<mgrwt>
<rscale>  0 0.17728429E+04</rscale>
<asrwt>0</asrwt>
<pdfrwt beam="1">  1        2 0.24052243E+00 0.17728429E+04</pdfrwt>
<pdfrwt beam="2">  1       -1 0.77321136E-01 0.17728429E+04</pdfrwt>
<totfact> 0.21132976E+01</totfact>
</mgrwt>
</event>
<event>
12    7  0.1611233E-007  0.3160612E+04  0.7818608E-02  0.8199298E-01
          2   -1    0    0  501    0  0.00000000000E+00  0.00000000000E+00  0.21422380370E+04  0.21422380370E+04  0.00000000000E+00 0. -1.
         -1   -1    0    0    0  501 -0.00000000000E+00 -0.00000000000E+00 -0.11657746288E+04  0.11657746288E+04  0.00000000000E+00 0.  1.
         24    2    1    2    0    0  0.22504198728E+03  0.13776256442E+04  0.57551014980E+02  0.13993298523E+04  0.79470778489E+02 0.  0.
        254    2    1    2    0    0 -0.22504198728E+03 -0.13776256442E+04  0.91891239323E+03  0.19086828135E+04  0.92204868869E+03 0.  0.
         23    2    4    4    0    0 -0.23023229114E+03 -0.81301096730E+03  0.27802914109E+02  0.85013996695E+03  0.89281692042E+02 0.  0.
         23    2    4    4    0    0  0.51903038630E+01 -0.56461467691E+03  0.89110947912E+03  0.10585428465E+04  0.87293650812E+02 0.  0.
          2    1    3    3  502    0  0.14595528001E+02  0.40972118574E+02  0.13321099735E+02  0.45488412109E+02  0.00000000000E+00 0. -1.
         -1    1    3    3    0  502  0.21044645928E+03  0.13366535256E+04  0.44229915244E+02  0.13538414402E+04  0.00000000000E+00 0.  1.
         13    1    5    5    0    0 -0.13755817880E+02 -0.12009952640E+02  0.85885253485E+01  0.20179798205E+02  0.00000000000E+00 0.  1.
        -13    1    5    5    0    0 -0.21647647326E+03 -0.80100101466E+03  0.19214388761E+02  0.82996016874E+03  0.00000000000E+00 0. -1.
          4    1    6    6  503    0 -0.19287680406E+02 -0.51935981426E+03  0.81817991116E+03  0.96929097711E+03  0.00000000000E+00 0. -1.
         -4    1    6    6    0  503  0.24477984269E+02 -0.45254862654E+02  0.72929567955E+02  0.89251869391E+02  0.00000000000E+00 0.  1.
<mgrwt>
<rscale>  0 0.31606118E+04</rscale>
<asrwt>0</asrwt>
<pdfrwt beam="1">  1        2 0.32957508E+00 0.31606118E+04</pdfrwt>
<pdfrwt beam="2">  1       -1 0.17934994E+00 0.31606118E+04</pdfrwt>
<totfact> 0.11244895E+00</totfact>
</mgrwt>
</event>
<event>
12    7  0.1611233E-007  0.1390835E+04  0.7818608E-02  0.8960480E-01
          2   -1    0    0  501    0  0.00000000000E+00  0.00000000000E+00  0.15651719906E+04  0.15651719906E+04  0.00000000000E+00 0. -1.
         -1   -1    0    0    0  501 -0.00000000000E+00 -0.00000000000E+00 -0.30897901588E+03  0.30897901588E+03  0.00000000000E+00 0.  1.
         24    2    1    2    0    0  0.45365622870E+03  0.68678756014E+01  0.72266390546E+03  0.85712303482E+03  0.81028606104E+02 0.  0.
        254    2    1    2    0    0 -0.45365622870E+03 -0.68678756014E+01  0.53352906929E+03  0.10170279717E+04  0.73745609081E+03 0.  0.
         23    2    4    4    0    0  0.97572327095E+02  0.21247329018E+03  0.78567838376E+02  0.26287316378E+03  0.90907298691E+02 0.  0.
         23    2    4    4    0    0 -0.55122855580E+03 -0.21934116578E+03  0.45496123092E+03  0.75415480791E+03  0.98976183620E+02 0.  0.
          2    1    3    3  502    0  0.45416075871E+03  0.97599655501E+01  0.72329965327E+03  0.85411921890E+03  0.00000000000E+00 0. -1.
         -1    1    3    3    0  502 -0.50453000833E+00 -0.28920899487E+01 -0.63574780611E+00  0.30038159187E+01  0.00000000000E+00 0.  1.
         13    1    5    5    0    0  0.79193213588E+02  0.10829889571E+03  0.81627957015E+02  0.15704565978E+03  0.00000000000E+00 0. -1.
        -13    1    5    5    0    0  0.18379113507E+02  0.10417439447E+03 -0.30601186391E+01  0.10582750400E+03  0.00000000000E+00 0.  1.
          3    1    6    6  503    0 -0.25291957074E+02 -0.19819275218E+02  0.55867761721E+02  0.64449154863E+02  0.00000000000E+00 0. -1.
         -3    1    6    6    0  503 -0.52593659873E+03 -0.19952189056E+03  0.39909346920E+03  0.68970565305E+03  0.00000000000E+00 0.  1.
<mgrwt>
<rscale>  0 0.13908347E+04</rscale>
<asrwt>0</asrwt>
<pdfrwt beam="1">  1        2 0.24079569E+00 0.13908347E+04</pdfrwt>
<pdfrwt beam="2">  1       -1 0.47535234E-01 0.13908347E+04</pdfrwt>
<totfact> 0.57182178E+01</totfact>
</mgrwt>
</event>
<event>
12    7  0.1611233E-007  0.1454529E+04  0.7818608E-02  0.8915267E-01
         -1   -1    0    0    0  501 -0.00000000000E+00  0.00000000000E+00  0.27550783357E+03  0.27550783357E+03  0.00000000000E+00 0.  1.
          2   -1    0    0  501    0  0.00000000000E+00 -0.00000000000E+00 -0.19197777506E+04  0.19197777506E+04  0.00000000000E+00 0. -1.
         24    2    1    2    0    0 -0.23269550942E+03 -0.34954639929E+03 -0.70555145674E+03  0.82503401504E+03  0.80922076786E+02 0.  0.
        254    2    1    2    0    0  0.23269550942E+03  0.34954639929E+03 -0.93871846026E+03  0.13702515691E+04  0.90557557917E+03 0.  0.
         23    2    4    4    0    0 -0.18228684048E+03  0.20479393319E+03  0.41943100065E+02  0.29130749277E+03  0.89060566019E+02 0.  0.
         23    2    4    4    0    0  0.41498234989E+03  0.14475246610E+03 -0.98066156032E+03  0.10789440763E+04  0.96226798529E+02 0.  0.
          4    1    3    3  502    0 -0.10639114685E+03 -0.12783752953E+03 -0.21228086847E+03  0.26967513271E+03  0.00000000000E+00 0. -1.
         -3    1    3    3    0  502 -0.12630436257E+03 -0.22170886976E+03 -0.49327058827E+03  0.55535888233E+03  0.00000000000E+00 0.  1.
         13    1    5    5    0    0 -0.16860367903E+02  0.76812945874E+02  0.18963646521E+02  0.80895738757E+02  0.00000000000E+00 0.  1.
        -13    1    5    5    0    0 -0.16542647257E+03  0.12798098732E+03  0.22979453545E+02  0.21041175402E+03  0.00000000000E+00 0. -1.
          2    1    6    6  503    0  0.34823069088E+03  0.15682130880E+03 -0.82194854085E+03  0.90634261776E+03  0.00000000000E+00 0. -1.
         -2    1    6    6    0  503  0.66751659017E+02 -0.12068842695E+02 -0.15871301948E+03  0.17260145856E+03  0.00000000000E+00 0.  1.
<mgrwt>
<rscale>  0 0.14545292E+04</rscale>
<asrwt>0</asrwt>
<pdfrwt beam="1">  1        2 0.29535042E+00 0.14545292E+04</pdfrwt>
<pdfrwt beam="2">  1       -1 0.42385821E-01 0.14545292E+04</pdfrwt>
<totfact> 0.44772080E+01</totfact>
</mgrwt>
</event>
<event>
12    7  0.1611233E-007  0.1775887E+04  0.7818608E-02  0.8719229E-01
         -1   -1    0    0    0  501 -0.00000000000E+00  0.00000000000E+00  0.18717418948E+04  0.18717418948E+04  0.00000000000E+00 0.  1.
          2   -1    0    0  501    0  0.00000000000E+00 -0.00000000000E+00 -0.42123533461E+03  0.42123533461E+03  0.00000000000E+00 0. -1.
         24    2    1    2    0    0  0.31544863188E+03  0.57516449311E+03  0.50322472140E+03  0.83056073164E+03  0.79208428970E+02 0.  0.
        254    2    1    2    0    0 -0.31544863188E+03 -0.57516449311E+03  0.94728183880E+03  0.14624164978E+04  0.90055377263E+03 0.  0.
         23    2    4    4    0    0 -0.17266110987E+03 -0.67315156005E+03  0.10339025957E+04  0.12485302326E+04  0.83236306371E+02 0.  0.
         23    2    4    4    0    0 -0.14278752201E+03  0.97987066938E+02 -0.86620756874E+02  0.21388626520E+03  0.90853933269E+02 0.  0.
          4    1    3    3  502    0  0.33714539918E+02  0.81958397534E+02  0.10211277926E+03  0.13520676321E+03  0.00000000000E+00 0. -1.
         -3    1    3    3    0  502  0.28173409196E+03  0.49320609557E+03  0.40111194215E+03  0.69535396844E+03  0.00000000000E+00 0.  1.
         13    1    5    5    0    0 -0.59172543714E+02 -0.27386753306E+03  0.48825260098E+03  0.56293464803E+03  0.00000000000E+00 0.  1.
        -13    1    5    5    0    0 -0.11348856616E+03 -0.39928402698E+03  0.54564999469E+03  0.68559558456E+03  0.00000000000E+00 0. -1.
          2    1    6    6  503    0 -0.71569922036E+02  0.44127819962E+02  0.71745553114E+01  0.84385973235E+02  0.00000000000E+00 0. -1.
         -2    1    6    6    0  503 -0.71217599976E+02  0.53859246976E+02 -0.93795312186E+02  0.12950029197E+03  0.00000000000E+00 0.  1.
<mgrwt>
<rscale>  0 0.17758872E+04</rscale>
<asrwt>0</asrwt>
<pdfrwt beam="1">  1        2 0.64805437E-01 0.17758872E+04</pdfrwt>
<pdfrwt beam="2">  1       -1 0.28796029E+00 0.17758872E+04</pdfrwt>
<totfact> 0.32083400E+00</totfact>
</mgrwt>
</event>
<event>
12    7  0.1611233E-007  0.2116603E+04  0.7818608E-02  0.8553965E-01
         -3   -1    0    0    0  501 -0.00000000000E+00  0.00000000000E+00  0.10157621308E+04  0.10157621308E+04  0.00000000000E+00 0.  1.
          4   -1    0    0  501    0  0.00000000000E+00 -0.00000000000E+00 -0.11026219107E+04  0.11026219107E+04  0.00000000000E+00 0. -1.
         24    2    1    2    0    0 -0.23668628732E+03  0.48435296512E+03 -0.71393539979E+03  0.89829862569E+03  0.81353994510E+02 0.  0.
        254    2    1    2    0    0  0.23668628732E+03 -0.48435296512E+03  0.62707561990E+03  0.12200854159E+04  0.89708773010E+03 0.  0.
         23    2    4    4    0    0  0.16357135169E+03 -0.48547078960E+03  0.83427363102E+03  0.98328364232E+03  0.91633810369E+02 0.  0.
         23    2    4    4    0    0  0.73114935631E+02  0.11178244825E+01 -0.20719801112E+03  0.23680177354E+03  0.88300740621E+02 0.  0.
          2    1    3    3  502    0 -0.64173183535E+02  0.20801576149E+03 -0.32156744054E+03  0.38832251200E+03  0.00000000000E+00 0. -1.
         -1    1    3    3    0  502 -0.17251310379E+03  0.27633720363E+03 -0.39236795925E+03  0.50997611369E+03  0.00000000000E+00 0.  1.
         13    1    5    5    0    0  0.35482047158E+02 -0.99620609575E+02  0.10923024323E+03  0.15203449463E+03  0.00000000000E+00 0.  1.
        -13    1    5    5    0    0  0.12808930454E+03 -0.38585018002E+03  0.72504338779E+03  0.83124914769E+03  0.00000000000E+00 0. -1.
          2    1    6    6  503    0  0.28281036198E+01  0.23599817025E+02 -0.91793817236E+01  0.25479611114E+02  0.00000000000E+00 0.  1.
         -2    1    6    6    0  503  0.70286832011E+02 -0.22481992543E+02 -0.19801862940E+03  0.21132216242E+03  0.00000000000E+00 0. -1.
<mgrwt>
<rscale>  0 0.21166025E+04</rscale>
<asrwt>0</asrwt>
<pdfrwt beam="1">  1        4 0.16963414E+00 0.21166025E+04</pdfrwt>
<pdfrwt beam="2">  1       -3 0.15627110E+00 0.21166025E+04</pdfrwt>
<totfact> 0.12957308E-01</totfact>
</mgrwt>
</event>
<event>
12    7  0.1611233E-007  0.2455694E+04  0.7818608E-02  0.8418942E-01
         -1   -1    0    0    0  501 -0.00000000000E+00  0.00000000000E+00  0.96007314384E+03  0.96007314384E+03  0.00000000000E+00 0.  1.
          2   -1    0    0  501    0  0.00000000000E+00 -0.00000000000E+00 -0.15703056427E+04  0.15703056427E+04  0.00000000000E+00 0. -1.
         24    2    1    2    0    0 -0.86537189366E+03  0.10402349799E+03  0.35996990331E+03  0.94641221154E+03  0.80176931811E+02 0.  0.
        254    2    1    2    0    0  0.86537189366E+03 -0.10402349799E+03 -0.97020240214E+03  0.15839665750E+04  0.89887040614E+03 0.  0.
         23    2    4    4    0    0  0.76365834337E+03  0.29870725565E+03 -0.67794623476E+03  0.10679165569E+04  0.91839998634E+02 0.  0.
         23    2    4    4    0    0  0.10171355030E+03 -0.40273075364E+03 -0.29225616738E+03  0.51605001805E+03  0.91412512902E+02 0.  0.
          2    1    3    3  502    0 -0.20509969738E+03  0.53884386062E+02  0.10739662573E+03  0.23770453960E+03  0.00000000000E+00 0. -1.
         -1    1    3    3    0  502 -0.66027219628E+03  0.50139111925E+02  0.25257327758E+03  0.70870767194E+03  0.00000000000E+00 0.  1.
         13    1    5    5    0    0  0.24884261992E+03  0.13677678186E+03 -0.20361318365E+03  0.34941217223E+03  0.00000000000E+00 0. -1.
        -13    1    5    5    0    0  0.51481572345E+03  0.16193047380E+03 -0.47433305110E+03  0.71850438469E+03  0.00000000000E+00 0.  1.
          4    1    6    6  503    0  0.10214786982E+03 -0.32991675075E+03 -0.27432479110E+03  0.44105933925E+03  0.00000000000E+00 0. -1.
         -4    1    6    6    0  503 -0.43431952718E+00 -0.72814002894E+02 -0.17931376285E+02  0.74990678796E+02  0.00000000000E+00 0.  1.
<mgrwt>
<rscale>  0 0.24556940E+04</rscale>
<asrwt>0</asrwt>
<pdfrwt beam="1">  1        2 0.24158548E+00 0.24556940E+04</pdfrwt>
<pdfrwt beam="2">  1       -1 0.14770356E+00 0.24556940E+04</pdfrwt>
<totfact> 0.42963425E+00</totfact>
</mgrwt>
</event>
<event>
12    7  0.1611233E-007  0.2643497E+04  0.7818608E-02  0.8353575E-01
          2   -1    0    0  501    0  0.00000000000E+00  0.00000000000E+00  0.29140442084E+04  0.29140442084E+04  0.00000000000E+00 0. -1.
         -1   -1    0    0    0  501 -0.00000000000E+00 -0.00000000000E+00 -0.59951681013E+03  0.59951681013E+03  0.00000000000E+00 0.  1.
         24    2    1    2    0    0  0.24858622602E+02 -0.75168176527E+03 -0.14613381764E+03  0.77014117369E+03  0.78223445326E+02 0.  0.
        254    2    1    2    0    0 -0.24858622602E+02  0.75168176527E+03  0.24606612159E+04  0.27434198448E+04  0.95176436062E+03 0.  0.
         23    2    4    4    0    0  0.10585014725E+03  0.73669050617E+03  0.24724916086E+04  0.25837055795E+04  0.91665759803E+02 0.  0.
         23    2    4    4    0    0 -0.13070876986E+03  0.14991259104E+02 -0.11830392669E+02  0.15971426532E+03  0.89772868898E+02 0.  0.
          4    1    3    3  502    0 -0.78862528273E+01 -0.40294019674E+02  0.71863005306E+01  0.41682657311E+02  0.00000000000E+00 0. -1.
         -3    1    3    3    0  502  0.32744875429E+02 -0.71138774560E+03 -0.15332011817E+03  0.72845851638E+03  0.00000000000E+00 0.  1.
         13    1    5    5    0    0  0.46240368050E+02  0.23850473464E+03  0.67008792564E+03  0.71276960385E+03  0.00000000000E+00 0.  1.
        -13    1    5    5    0    0  0.59609779205E+02  0.49818577152E+03  0.18024036829E+04  0.18709359756E+04  0.00000000000E+00 0. -1.
          2    1    6    6  503    0 -0.12974211804E+03  0.68906082773E+01  0.15820839679E+02  0.13088466925E+03  0.00000000000E+00 0. -1.
         -2    1    6    6    0  503 -0.96665181665E+00  0.81006508264E+01 -0.27651232348E+02  0.28829596076E+02  0.00000000000E+00 0.  1.
<mgrwt>
<rscale>  0 0.26434965E+04</rscale>
<asrwt>0</asrwt>
<pdfrwt beam="1">  1        2 0.44831448E+00 0.26434965E+04</pdfrwt>
<pdfrwt beam="2">  1       -1 0.92233358E-01 0.26434965E+04</pdfrwt>
<totfact> 0.22571199E+00</totfact>
</mgrwt>
</event>
<event>
12    7  0.1611233E-007  0.1084206E+04  0.7818608E-02  0.9220724E-01
          2   -1    0    0  501    0  0.00000000000E+00  0.00000000000E+00  0.14951755666E+04  0.14951755666E+04  0.00000000000E+00 0. -1.
         -1   -1    0    0    0  501 -0.00000000000E+00 -0.00000000000E+00 -0.19654918408E+03  0.19654918408E+03  0.00000000000E+00 0.  1.
         24    2    1    2    0    0 -0.97517336056E+02 -0.95856142203E+02  0.11791256443E+03  0.19820521113E+03  0.81755134634E+02 0.  0.
        254    2    1    2    0    0  0.97517336056E+02  0.95856142203E+02  0.11807138181E+04  0.14935195396E+04  0.90433260694E+03 0.  0.
         23    2    4    4    0    0  0.21651752582E+03 -0.35019240425E+02 -0.52734876816E+02  0.24396547314E+03  0.92908550007E+02 0.  0.
         23    2    4    4    0    0 -0.11900018976E+03  0.13087538263E+03  0.12334486949E+04  0.12495540664E+04  0.93275243111E+02 0.  0.
          4    1    3    3  502    0 -0.13115994735E+02  0.10524310206E+01 -0.10273251175E+02  0.16693610114E+02  0.00000000000E+00 0. -1.
         -3    1    3    3    0  502 -0.84401341321E+02 -0.96908573223E+02  0.12818581561E+03  0.18151160102E+03  0.00000000000E+00 0.  1.
         13    1    5    5    0    0  0.21154687256E+03 -0.28199898211E+02 -0.70118605666E+02  0.22464178688E+03  0.00000000000E+00 0. -1.
        -13    1    5    5    0    0  0.49706532543E+01 -0.68193422134E+01  0.17383728850E+02  0.19323686262E+02  0.00000000000E+00 0.  1.
          2    1    6    6  503    0 -0.66499172716E+02  0.38782562423E+02  0.78412674719E+03  0.78789655589E+03  0.00000000000E+00 0.  1.
         -2    1    6    6    0  503 -0.52501017045E+02  0.92092820205E+02  0.44932194775E+03  0.46165751055E+03  0.00000000000E+00 0. -1.
<mgrwt>
<rscale>  0 0.10842058E+04</rscale>
<asrwt>0</asrwt>
<pdfrwt beam="1">  1        2 0.23002700E+00 0.10842058E+04</pdfrwt>
<pdfrwt beam="2">  1       -1 0.30238337E-01 0.10842058E+04</pdfrwt>
<totfact> 0.14543658E+02</totfact>
</mgrwt>
</event>
<event>
12    7  0.1611233E-007  0.2434925E+04  0.7818608E-02  0.8426543E-01
         -1   -1    0    0    0  501 -0.00000000000E+00  0.00000000000E+00  0.56317032599E+03  0.56317032599E+03  0.00000000000E+00 0.  1.
          2   -1    0    0  501    0  0.00000000000E+00 -0.00000000000E+00 -0.26319131776E+04  0.26319131776E+04  0.00000000000E+00 0. -1.
         24    2    1    2    0    0 -0.31784853988E+02 -0.94210951577E+03 -0.15056945403E+04  0.17782289906E+04  0.80010484531E+02 0.  0.
        254    2    1    2    0    0  0.31784853988E+02  0.94210951577E+03 -0.56304831130E+03  0.14168545130E+04  0.89547344656E+03 0.  0.
         23    2    4    4    0    0 -0.18753286880E+03  0.94881055628E+03 -0.21612516472E+03  0.99589068707E+03  0.98377462718E+02 0.  0.
         23    2    4    4    0    0  0.21931772279E+03 -0.67010405170E+01 -0.34692314658E+03  0.42096382593E+03  0.93325803688E+02 0.  0.
          4    1    3    3  502    0  0.51540628260E+01 -0.76808478455E+03 -0.12281381887E+04  0.14485524538E+04  0.00000000000E+00 0. -1.
         -3    1    3    3    0  502 -0.36938916814E+02 -0.17402473122E+03 -0.27755635158E+03  0.32967653686E+03  0.00000000000E+00 0.  1.
         13    1    5    5    0    0 -0.14077278119E+03  0.85690996983E+03 -0.18186492777E+03  0.88723532632E+03  0.00000000000E+00 0.  1.
        -13    1    5    5    0    0 -0.46760087609E+02  0.91900586457E+02 -0.34260236947E+02  0.10865536075E+03  0.00000000000E+00 0. -1.
          2    1    6    6  503    0  0.30329525890E+02  0.28369596696E+02 -0.98224098930E+02  0.10664280458E+03  0.00000000000E+00 0. -1.
         -2    1    6    6    0  503  0.18898819690E+03 -0.35070637213E+02 -0.24869904765E+03  0.31432102135E+03  0.00000000000E+00 0.  1.
<mgrwt>
<rscale>  0 0.24349254E+04</rscale>
<asrwt>0</asrwt>
<pdfrwt beam="1">  1        2 0.40490972E+00 0.24349254E+04</pdfrwt>
<pdfrwt beam="2">  1       -1 0.86641588E-01 0.24349254E+04</pdfrwt>
<totfact> 0.39030401E+00</totfact>
</mgrwt>
</event>
<event>
12    7  0.1611233E-007  0.2644327E+04  0.7818608E-02  0.8353298E-01
          2   -1    0    0  501    0  0.00000000000E+00  0.00000000000E+00  0.25644384878E+04  0.25644384878E+04  0.00000000000E+00 0. -1.
         -1   -1    0    0    0  501 -0.00000000000E+00 -0.00000000000E+00 -0.68167594402E+03  0.68167594402E+03  0.00000000000E+00 0.  1.
         24    2    1    2    0    0  0.44888336499E+03  0.33069182480E+03 -0.42081018231E+03  0.70292535514E+03  0.78546082111E+02 0.  0.
        254    2    1    2    0    0 -0.44888336499E+03 -0.33069182480E+03  0.23035727261E+04  0.25431890767E+04  0.92223099983E+03 0.  0.
         23    2    4    4    0    0  0.15320703393E+03  0.20080379279E+03  0.55527014271E+03  0.61710708371E+03  0.93282704417E+02 0.  0.
         23    2    4    4    0    0 -0.60209039891E+03 -0.53149561759E+03  0.17483025834E+04  0.19260819930E+04  0.90716484774E+02 0.  0.
          2    1    3    3  502    0  0.70697989781E+02  0.84610993627E+02 -0.10436280427E+03  0.15181838135E+03  0.00000000000E+00 0. -1.
         -1    1    3    3    0  502  0.37818537521E+03  0.24608083117E+03 -0.31644737803E+03  0.55110697379E+03  0.00000000000E+00 0.  1.
         13    1    5    5    0    0  0.60600160869E+02  0.30948542485E+02  0.21705411593E+03  0.22747017612E+03  0.00000000000E+00 0. -1.
        -13    1    5    5    0    0  0.92606873057E+02  0.16985525031E+03  0.33821602677E+03  0.38963690760E+03  0.00000000000E+00 0.  1.
          2    1    6    6  503    0 -0.84534844900E+02 -0.36844807407E+02  0.19051654184E+03  0.21166065423E+03  0.00000000000E+00 0. -1.
         -2    1    6    6    0  503 -0.51755555401E+03 -0.49465081019E+03  0.15577860415E+04  0.17144213387E+04  0.00000000000E+00 0.  1.
<mgrwt>
<rscale>  0 0.26443268E+04</rscale>
<asrwt>0</asrwt>
<pdfrwt beam="1">  1        2 0.39452899E+00 0.26443268E+04</pdfrwt>
<pdfrwt beam="2">  1       -1 0.10487322E+00 0.26443268E+04</pdfrwt>
<totfact> 0.27310464E+00</totfact>
</mgrwt>
</event>
<event>
12    7  0.1611233E-007  0.2567450E+04  0.7818608E-02  0.8379342E-01
          2   -1    0    0  501    0  0.00000000000E+00  0.00000000000E+00  0.16722429055E+04  0.16722429055E+04  0.00000000000E+00 0. -1.
         -1   -1    0    0    0  501 -0.00000000000E+00 -0.00000000000E+00 -0.98547298939E+03  0.98547298939E+03  0.00000000000E+00 0.  1.
         24    2    1    2    0    0 -0.10412533577E+04 -0.24837077063E+03 -0.53207290490E+02  0.10746506168E+04  0.78398582833E+02 0.  0.
        254    2    1    2    0    0  0.10412533577E+04  0.24837077063E+03  0.73997720661E+03  0.15830652781E+04  0.90146148768E+03 0.  0.
         23    2    4    4    0    0  0.36225702901E+03 -0.89054446626E+02 -0.14777965522E+03  0.41203177956E+03  0.93651008233E+02 0.  0.
         23    2    4    4    0    0  0.67899632871E+03  0.33742521725E+03  0.88775686183E+03  0.11710334985E+04  0.91188910165E+02 0.  0.
          2    1    3    3  502    0 -0.78782236535E+03 -0.18774618907E+03 -0.64644739146E+01  0.80991018038E+03  0.00000000000E+00 0. -1.
         -1    1    3    3    0  502 -0.25343099236E+03 -0.60624581557E+02 -0.46742816575E+02  0.26474043643E+03  0.00000000000E+00 0.  1.
         13    1    5    5    0    0  0.34406362520E+02  0.15408344746E+02 -0.30536729076E+02  0.48515015122E+02  0.00000000000E+00 0. -1.
        -13    1    5    5    0    0  0.32785066649E+03 -0.10446279137E+03 -0.11724292614E+03  0.36351676444E+03  0.00000000000E+00 0.  1.
          1    1    6    6  503    0  0.23598983464E+03  0.16537945257E+03  0.32011222053E+03  0.43071266422E+03  0.00000000000E+00 0. -1.
         -1    1    6    6    0  503  0.44300649406E+03  0.17204576468E+03  0.56764464130E+03  0.74032083432E+03  0.00000000000E+00 0.  1.
<mgrwt>
<rscale>  0 0.25674503E+04</rscale>
<asrwt>0</asrwt>
<pdfrwt beam="1">  1        2 0.25726814E+00 0.25674503E+04</pdfrwt>
<pdfrwt beam="2">  1       -1 0.15161123E+00 0.25674503E+04</pdfrwt>
<totfact> 0.34784807E+00</totfact>
</mgrwt>
</event>
<event>
12    7  0.1611233E-007  0.1958218E+04  0.7818608E-02  0.8626408E-01
         -1   -1    0    0    0  501 -0.00000000000E+00  0.00000000000E+00  0.59420199176E+03  0.59420199176E+03  0.00000000000E+00 0.  1.
          2   -1    0    0  501    0  0.00000000000E+00 -0.00000000000E+00 -0.16133475228E+04  0.16133475228E+04  0.00000000000E+00 0. -1.
         24    2    1    2    0    0 -0.22547755241E+03  0.21674822628E+03 -0.11913309824E+04  0.12344334894E+04  0.82076853965E+02 0.  0.
        254    2    1    2    0    0  0.22547755241E+03 -0.21674822628E+03  0.17218545136E+03  0.97311602514E+03  0.90525523942E+03 0.  0.
         23    2    4    4    0    0  0.36205325224E+03 -0.46187555538E+03  0.28313076022E+03  0.65791637318E+03  0.90990881934E+02 0.  0.
         23    2    4    4    0    0 -0.13657569983E+03  0.24512732910E+03 -0.11094530887E+03  0.31519965197E+03  0.91113279978E+02 0.  0.
          4    1    3    3  502    0 -0.20750344733E+03  0.21787865181E+03 -0.10600594632E+04  0.11019323269E+04  0.00000000000E+00 0. -1.
         -3    1    3    3    0  502 -0.17974105074E+02 -0.11304255273E+01 -0.13127151922E+03  0.13250116254E+03  0.00000000000E+00 0.  1.
         13    1    5    5    0    0  0.23138750426E+03 -0.33593712132E+03  0.15782468086E+03  0.43738147709E+03  0.00000000000E+00 0. -1.
        -13    1    5    5    0    0  0.13066574798E+03 -0.12593843406E+03  0.12530607936E+03  0.22053489609E+03  0.00000000000E+00 0.  1.
          1    1    6    6  503    0 -0.27141627995E+02  0.13855886425E+03 -0.39806128648E+02  0.14669613052E+03  0.00000000000E+00 0. -1.
         -1    1    6    6    0  503 -0.10943407183E+03  0.10656846485E+03 -0.71139180219E+02  0.16850352145E+03  0.00000000000E+00 0.  1.
<mgrwt>
<rscale>  0 0.19582179E+04</rscale>
<asrwt>0</asrwt>
<pdfrwt beam="1">  1        2 0.24820731E+00 0.19582179E+04</pdfrwt>
<pdfrwt beam="2">  1       -1 0.91415691E-01 0.19582179E+04</pdfrwt>
<totfact> 0.13582714E+01</totfact>
</mgrwt>
</event>
<event>
12    7  0.1611233E-007  0.1691090E+04  0.7818608E-02  0.8766463E-01
          2   -1    0    0  501    0  0.00000000000E+00  0.00000000000E+00  0.36338406061E+04  0.36338406061E+04  0.00000000000E+00 0. -1.
         -1   -1    0    0    0  501 -0.00000000000E+00 -0.00000000000E+00 -0.19674670673E+03  0.19674670673E+03  0.00000000000E+00 0.  1.
         24    2    1    2    0    0 -0.20883681181E+03 -0.12961064154E+03  0.25698278186E+04  0.25828204123E+04  0.80836453770E+02 0.  0.
        254    2    1    2    0    0  0.20883681181E+03  0.12961064154E+03  0.86726608074E+03  0.12477669006E+04  0.86276303291E+03 0.  0.
         23    2    4    4    0    0  0.31860018241E+03 -0.17486673209E+03  0.82953641318E+03  0.90976993092E+03  0.86407269304E+02 0.  0.
         23    2    4    4    0    0 -0.10976337060E+03  0.30447737362E+03  0.37729667560E+02  0.33799696964E+03  0.89799527276E+02 0.  0.
          4    1    3    3  502    0 -0.18434699109E+03 -0.10088446053E+03  0.18292867600E+04  0.18413178807E+04  0.00000000000E+00 0. -1.
         -3    1    3    3    0  502 -0.24489820718E+02 -0.28726181010E+02  0.74054105869E+03  0.74150253162E+03  0.00000000000E+00 0.  1.
         13    1    5    5    0    0  0.98934147864E+02 -0.89142027795E+02  0.37060379084E+03  0.39380380460E+03  0.00000000000E+00 0. -1.
        -13    1    5    5    0    0  0.21966603454E+03 -0.85724704291E+02  0.45893262234E+03  0.51596612632E+03  0.00000000000E+00 0.  1.
          1    1    6    6  503    0 -0.65987038007E+02  0.69990700260E+02  0.23575961975E+02  0.99039453203E+02  0.00000000000E+00 0. -1.
         -1    1    6    6    0  503 -0.43776332589E+02  0.23448667336E+03  0.14153705585E+02  0.23895751644E+03  0.00000000000E+00 0.  1.
<mgrwt>
<rscale>  0 0.16910898E+04</rscale>
<asrwt>0</asrwt>
<pdfrwt beam="1">  1        2 0.55905235E+00 0.16910898E+04</pdfrwt>
<pdfrwt beam="2">  1       -1 0.30268727E-01 0.16910898E+04</pdfrwt>
<totfact> 0.71918000E+00</totfact>
</mgrwt>
</event>
<event>
12    7  0.1611233E-007  0.2041379E+04  0.7818608E-02  0.8587515E-01
         -1   -1    0    0    0  501 -0.00000000000E+00  0.00000000000E+00  0.19516316969E+04  0.19516316969E+04  0.00000000000E+00 0.  1.
          2   -1    0    0  501    0  0.00000000000E+00 -0.00000000000E+00 -0.53381325043E+03  0.53381325043E+03  0.00000000000E+00 0. -1.
         24    2    1    2    0    0 -0.63256254706E+03  0.47347293202E+03  0.31006107115E+03  0.85285568514E+03  0.83144203324E+02 0.  0.
        254    2    1    2    0    0  0.63256254706E+03 -0.47347293202E+03  0.11077573754E+04  0.16325892622E+04  0.90216922092E+03 0.  0.
         23    2    4    4    0    0  0.55784449215E+02  0.50531999565E+02 -0.12329864610E+03  0.17274780620E+03  0.94730463236E+02 0.  0.
         23    2    4    4    0    0  0.57677809784E+03 -0.52400493158E+03  0.12310560215E+04  0.14598414560E+04  0.91564219390E+02 0.  0.
          4    1    3    3  502    0 -0.50390879198E+03  0.40394179996E+03  0.22631222839E+03  0.68433199042E+03  0.00000000000E+00 0. -1.
         -3    1    3    3    0  502 -0.12865375507E+03  0.69531132059E+02  0.83748842761E+02  0.16852369473E+03  0.00000000000E+00 0.  1.
         13    1    5    5    0    0  0.59448428146E+02  0.53336092030E+02 -0.13683970207E+03  0.15844228723E+03  0.00000000000E+00 0. -1.
        -13    1    5    5    0    0 -0.36639789301E+01 -0.28040924647E+01  0.13541055972E+02  0.14305518970E+02  0.00000000000E+00 0.  1.
          1    1    6    6  503    0  0.52936157700E+03 -0.48929080295E+03  0.11757926417E+04  0.13791727613E+04  0.00000000000E+00 0. -1.
         -1    1    6    6    0  503  0.47416520841E+02 -0.34714128632E+02  0.55263379735E+02  0.80668694765E+02  0.00000000000E+00 0.  1.
<mgrwt>
<rscale>  0 0.20413788E+04</rscale>
<asrwt>0</asrwt>
<pdfrwt beam="1">  1        2 0.82125117E-01 0.20413788E+04</pdfrwt>
<pdfrwt beam="2">  1       -1 0.30025103E+00 0.20413788E+04</pdfrwt>
<totfact> 0.19857238E+00</totfact>
</mgrwt>
</event>
<event>
12    7  0.1611233E-007  0.3468593E+04  0.7818608E-02  0.8121273E-01
          2   -1    0    0  501    0  0.00000000000E+00  0.00000000000E+00  0.36299347622E+04  0.36299347622E+04  0.00000000000E+00 0. -1.
         -1   -1    0    0    0  501 -0.00000000000E+00 -0.00000000000E+00 -0.82860580248E+03  0.82860580248E+03  0.00000000000E+00 0.  1.
         24    2    1    2    0    0  0.66384210988E+03  0.73724985459E+03 -0.33138441501E+03  0.10493779014E+04  0.84585190730E+02 0.  0.
        254    2    1    2    0    0 -0.66384210988E+03 -0.73724985459E+03  0.31327133747E+04  0.34091626633E+04  0.90789497276E+03 0.  0.
         23    2    4    4    0    0 -0.68763695999E+03 -0.90389494501E+03  0.24778764461E+04  0.27272757265E+04  0.91052435503E+02 0.  0.
         23    2    4    4    0    0  0.23794850111E+02  0.16664509042E+03  0.65483692865E+03  0.68188693677E+03  0.88439868620E+02 0.  0.
          4    1    3    3  502    0  0.90218437636E+01  0.30535458938E+02 -0.15905580781E+02  0.35592069586E+02  0.00000000000E+00 0. -1.
         -3    1    3    3    0  502  0.65482026611E+03  0.70671439565E+03 -0.31547883423E+03  0.10137858318E+04  0.00000000000E+00 0.  1.
         13    1    5    5    0    0 -0.41227242908E+03 -0.48867392718E+03  0.13164172446E+04  0.14634634006E+04  0.00000000000E+00 0. -1.
        -13    1    5    5    0    0 -0.27536453091E+03 -0.41522101783E+03  0.11614592015E+04  0.12638123260E+04  0.00000000000E+00 0.  1.
          4    1    6    6  503    0  0.43260721257E+02  0.13453207588E+03  0.59244284638E+03  0.60906395039E+03  0.00000000000E+00 0. -1.
         -4    1    6    6    0  503 -0.19465871147E+02  0.32113014541E+02  0.62394082276E+02  0.72822986381E+02  0.00000000000E+00 0.  1.
<mgrwt>
<rscale>  0 0.34685934E+04</rscale>
<asrwt>0</asrwt>
<pdfrwt beam="1">  1        2 0.55845149E+00 0.34685934E+04</pdfrwt>
<pdfrwt beam="2">  1       -1 0.12747782E+00 0.34685934E+04</pdfrwt>
<totfact> 0.32668980E-01</totfact>
</mgrwt>
</event>
<event>
12    7  0.1611233E-007  0.1295342E+04  0.7818608E-02  0.9033267E-01
         -1   -1    0    0    0  501 -0.00000000000E+00  0.00000000000E+00  0.27883284360E+03  0.27883284360E+03  0.00000000000E+00 0.  1.
          2   -1    0    0  501    0  0.00000000000E+00 -0.00000000000E+00 -0.15044055660E+04  0.15044055660E+04  0.00000000000E+00 0. -1.
         24    2    1    2    0    0 -0.19152840925E+03 -0.13700299658E+03 -0.60904828140E+01  0.24968503007E+03  0.82780237012E+02 0.  0.
        254    2    1    2    0    0  0.19152840925E+03  0.13700299658E+03 -0.12194822396E+04  0.15335533795E+04  0.89955326834E+03 0.  0.
         23    2    4    4    0    0 -0.29054022510E+03 -0.15841466122E+02 -0.84444015258E+03  0.89738857875E+03  0.86962724921E+02 0.  0.
         23    2    4    4    0    0  0.48206863436E+03  0.15284446270E+03 -0.37504208700E+03  0.63616480078E+03  0.91090552301E+02 0.  0.
          2    1    3    3  502    0 -0.16764470602E+02 -0.44824017093E+02 -0.19432102679E+02  0.51651201317E+02  0.00000000000E+00 0. -1.
         -1    1    3    3    0  502 -0.17476393865E+03 -0.92178979485E+02  0.13341619865E+02  0.19803382876E+03  0.00000000000E+00 0.  1.
         13    1    5    5    0    0 -0.17546677569E+03 -0.32173010960E+02 -0.61260579021E+03  0.63805136643E+03  0.00000000000E+00 0.  1.
        -13    1    5    5    0    0 -0.11507344942E+03  0.16331544837E+02 -0.23183436238E+03  0.25933721232E+03  0.00000000000E+00 0. -1.
          1    1    6    6  503    0  0.45386988049E+03  0.14660081462E+03 -0.37588324981E+03  0.60727084958E+03  0.00000000000E+00 0. -1.
         -1    1    6    6    0  503  0.28198753867E+02  0.62436480801E+01  0.84116280710E+00  0.28893951198E+02  0.00000000000E+00 0.  1.
<mgrwt>
<rscale>  0 0.12953419E+04</rscale>
<asrwt>0</asrwt>
<pdfrwt beam="1">  1        2 0.23144701E+00 0.12953419E+04</pdfrwt>
<pdfrwt beam="2">  1       -1 0.42897360E-01 0.12953419E+04</pdfrwt>
<totfact> 0.75472805E+01</totfact>
</mgrwt>
</event>
<event>
12    7  0.1611233E-007  0.1472478E+04  0.7818608E-02  0.8902964E-01
         -1   -1    0    0    0  501 -0.00000000000E+00  0.00000000000E+00  0.49718216405E+03  0.49718216405E+03  0.00000000000E+00 0.  1.
          2   -1    0    0  501    0  0.00000000000E+00 -0.00000000000E+00 -0.10902405055E+04  0.10902405055E+04  0.00000000000E+00 0. -1.
         24    2    1    2    0    0 -0.66443699300E+02 -0.23007957407E+03  0.23577899833E+03  0.34547048185E+03  0.80042127667E+02 0.  0.
        254    2    1    2    0    0  0.66443699300E+02  0.23007957407E+03 -0.82883733976E+03  0.12419521877E+04  0.89337703413E+03 0.  0.
         23    2    4    4    0    0  0.35180053426E+03 -0.16631146445E+03 -0.52173044102E+03  0.65721844805E+03  0.91160936026E+02 0.  0.
         23    2    4    4    0    0 -0.28535683496E+03  0.39639103852E+03 -0.30710689874E+03  0.58473373962E+03  0.95102683050E+02 0.  0.
          4    1    3    3  502    0 -0.36857559217E+01  0.18628658256E+01 -0.41885445842E+01  0.58820890449E+01  0.00000000000E+00 0. -1.
         -3    1    3    3    0  502 -0.62757943378E+02 -0.23194243989E+03  0.23996754291E+03  0.33958839281E+03  0.00000000000E+00 0.  1.
         13    1    5    5    0    0  0.29173220150E+03 -0.10869461754E+03 -0.36482818267E+03  0.47960588001E+03  0.00000000000E+00 0.  1.
        -13    1    5    5    0    0  0.60068332757E+02 -0.57616846910E+02 -0.15690225835E+03  0.17761256804E+03  0.00000000000E+00 0. -1.
          3    1    6    6  503    0 -0.23020582089E+02  0.86251297012E+02 -0.76907640818E+02  0.11783046572E+03  0.00000000000E+00 0. -1.
         -3    1    6    6    0  503 -0.26233625287E+03  0.31013974151E+03 -0.23019925793E+03  0.46690327390E+03  0.00000000000E+00 0.  1.
<mgrwt>
<rscale>  0 0.14724784E+04</rscale>
<asrwt>0</asrwt>
<pdfrwt beam="1">  1        2 0.16772931E+00 0.14724784E+04</pdfrwt>
<pdfrwt beam="2">  1       -1 0.76489565E-01 0.14724784E+04</pdfrwt>
<totfact> 0.41858233E+01</totfact>
</mgrwt>
</event>
<event>
12    7  0.1611233E-007  0.2514608E+04  0.7818608E-02  0.8397800E-01
          2   -1    0    0  501    0  0.00000000000E+00  0.00000000000E+00  0.10401584249E+04  0.10401584249E+04  0.00000000000E+00 0. -1.
         -1   -1    0    0    0  501 -0.00000000000E+00 -0.00000000000E+00 -0.15197817682E+04  0.15197817682E+04  0.00000000000E+00 0.  1.
         24    2    1    2    0    0 -0.58158064971E+03 -0.24182434668E+03 -0.11128312378E+04  0.12810210327E+04  0.76853467251E+02 0.  0.
        254    2    1    2    0    0  0.58158064971E+03  0.24182434668E+03  0.63320789452E+03  0.12789191605E+04  0.91540532807E+03 0.  0.
         23    2    4    4    0    0  0.47453024977E+03 -0.89459053773E+02 -0.62815086376E+02  0.49542115152E+03  0.91183891352E+02 0.  0.
         23    2    4    4    0    0  0.10705039994E+03  0.33128340045E+03  0.69602298090E+03  0.78349800899E+03  0.90623730949E+02 0.  0.
          2    1    3    3  502    0 -0.18204192586E+03 -0.97524850017E+02 -0.30558579688E+03  0.36882656954E+03  0.00000000000E+00 0. -1.
         -1    1    3    3    0  502 -0.39953872385E+03 -0.14429949666E+03 -0.80724544096E+03  0.91219446312E+03  0.00000000000E+00 0.  1.
         13    1    5    5    0    0  0.88106581386E+02 -0.52247646208E+02 -0.18349738787E+01  0.10244976011E+03  0.00000000000E+00 0.  1.
        -13    1    5    5    0    0  0.38642366839E+03 -0.37211407564E+02 -0.60980112497E+02  0.39297139140E+03  0.00000000000E+00 0. -1.
          4    1    6    6  503    0  0.11659618089E+03  0.28058799528E+03  0.63224826191E+03  0.70147142293E+03  0.00000000000E+00 0. -1.
         -4    1    6    6    0  503 -0.95457809519E+01  0.50695405166E+02  0.63774718988E+02  0.82026586061E+02  0.00000000000E+00 0.  1.
<mgrwt>
<rscale>  0 0.25146084E+04</rscale>
<asrwt>0</asrwt>
<pdfrwt beam="1">  1        2 0.16002437E+00 0.25146084E+04</pdfrwt>
<pdfrwt beam="2">  1       -1 0.23381258E+00 0.25146084E+04</pdfrwt>
<totfact> 0.21475089E+00</totfact>
</mgrwt>
</event>
<event>
12    7  0.1611233E-007  0.1444789E+04  0.7818608E-02  0.8922021E-01
          2   -1    0    0  501    0  0.00000000000E+00  0.00000000000E+00  0.30266623141E+04  0.30266623141E+04  0.00000000000E+00 0. -1.
         -1   -1    0    0    0  501 -0.00000000000E+00 -0.00000000000E+00 -0.17241892578E+03  0.17241892578E+03  0.00000000000E+00 0.  1.
         24    2    1    2    0    0  0.39027954905E+03 -0.19893664357E+03  0.79370834244E+03  0.91010064391E+03  0.80102026356E+02 0.  0.
        254    2    1    2    0    0 -0.39027954905E+03  0.19893664357E+03  0.20605350459E+04  0.22889805960E+04  0.89539576659E+03 0.  0.
         23    2    4    4    0    0 -0.41281908860E+02 -0.41035732506E+02 -0.63099238472E+02  0.12164342193E+03  0.86182833921E+02 0.  0.
         23    2    4    4    0    0 -0.34899764019E+03  0.23997237607E+03  0.21236342844E+04  0.21673371741E+04  0.90231691212E+02 0.  0.
          4    1    3    3  502    0  0.35813682900E+03 -0.19861683087E+03  0.76127797712E+03  0.86443900435E+03  0.00000000000E+00 0. -1.
         -3    1    3    3    0  502  0.32142720056E+02 -0.31981269378E+00  0.32430365315E+02  0.45661639558E+02  0.00000000000E+00 0.  1.
         13    1    5    5    0    0  0.10913672829E+01  0.16929218451E+02 -0.44277573598E+02  0.47416168589E+02  0.00000000000E+00 0.  1.
        -13    1    5    5    0    0 -0.42373276142E+02 -0.57964950958E+02 -0.18821664874E+02  0.74227253345E+02  0.00000000000E+00 0. -1.
          2    1    6    6  503    0 -0.16108686200E+03  0.61679359018E+02  0.93921331576E+03  0.95492144857E+03  0.00000000000E+00 0. -1.
         -2    1    6    6    0  503 -0.18791077819E+03  0.17829301706E+03  0.11844209686E+04  0.12124157255E+04  0.00000000000E+00 0.  1.
<mgrwt>
<rscale>  0 0.14447891E+04</rscale>
<asrwt>0</asrwt>
<pdfrwt beam="1">  1        2 0.46564032E+00 0.14447891E+04</pdfrwt>
<pdfrwt beam="2">  1       -1 0.26525991E-01 0.14447891E+04</pdfrwt>
<totfact> 0.23609671E+01</totfact>
</mgrwt>
</event>
<event>
12    7  0.1611233E-007  0.1092846E+04  0.7818608E-02  0.9212193E-01
          2   -1    0    0  501    0  0.00000000000E+00  0.00000000000E+00  0.59511904051E+03  0.59511904051E+03  0.00000000000E+00 0. -1.
         -1   -1    0    0    0  501 -0.00000000000E+00 -0.00000000000E+00 -0.50171167531E+03  0.50171167531E+03  0.00000000000E+00 0.  1.
         24    2    1    2    0    0 -0.19279070513E+02 -0.15742423739E+03  0.70341465106E+01  0.17695097311E+03  0.78154299884E+02 0.  0.
        254    2    1    2    0    0  0.19279070513E+02  0.15742423739E+03  0.86373218690E+02  0.91987974271E+03  0.90197801252E+03 0.  0.
         23    2    4    4    0    0  0.41292071165E+03  0.25693657875E+03  0.95452514685E+02  0.50389334730E+03  0.90980235657E+02 0.  0.
         23    2    4    4    0    0 -0.39364164114E+03 -0.99512341363E+02 -0.90792959949E+01  0.41598639541E+03  0.90032215494E+02 0.  0.
          2    1    3    3  502    0 -0.23869487577E+02 -0.85743563039E+01  0.11757332203E+02  0.27955444617E+02  0.00000000000E+00 0. -1.
         -1    1    3    3    0  502  0.45904170639E+01 -0.14884988109E+03 -0.47231856928E+01  0.14899552849E+03  0.00000000000E+00 0.  1.
         13    1    5    5    0    0  0.38215357964E+02  0.26261994022E+02  0.38376354664E+02  0.60190119718E+02  0.00000000000E+00 0. -1.
        -13    1    5    5    0    0  0.37470535369E+03  0.23067458473E+03  0.57076160020E+02  0.44370322758E+03  0.00000000000E+00 0.  1.
          4    1    6    6  503    0 -0.12977889730E+03  0.98869900861E+01  0.11618568240E+01  0.13016015008E+03  0.00000000000E+00 0. -1.
         -4    1    6    6    0  503 -0.26386274384E+03 -0.10939933145E+03 -0.10241152819E+02  0.28582624533E+03  0.00000000000E+00 0.  1.
<mgrwt>
<rscale>  0 0.10928461E+04</rscale>
<asrwt>0</asrwt>
<pdfrwt beam="1">  1        2 0.91556775E-01 0.10928461E+04</pdfrwt>
<pdfrwt beam="2">  1       -1 0.77186412E-01 0.10928461E+04</pdfrwt>
<totfact> 0.95745936E+01</totfact>
</mgrwt>
</event>
<event>
12    7  0.1611233E-007  0.3030910E+04  0.7818608E-02  0.8234959E-01
         -1   -1    0    0    0  501 -0.00000000000E+00  0.00000000000E+00  0.51471509640E+03  0.51471509640E+03  0.00000000000E+00 0.  1.
          2   -1    0    0  501    0  0.00000000000E+00 -0.00000000000E+00 -0.44618945802E+04  0.44618945802E+04  0.00000000000E+00 0. -1.
         24    2    1    2    0    0  0.38962977267E+03  0.13244270581E+04 -0.18437748814E+04  0.23047800494E+04  0.81159538230E+02 0.  0.
        254    2    1    2    0    0 -0.38962977267E+03 -0.13244270581E+04 -0.21034046024E+04  0.26718296272E+04  0.89913527545E+03 0.  0.
         23    2    4    4    0    0  0.16547380327E+03 -0.94501869990E+03 -0.13355467665E+04  0.16471061658E+04  0.93976769753E+02 0.  0.
         23    2    4    4    0    0 -0.55510357594E+03 -0.37940835822E+03 -0.76785783588E+03  0.10247234614E+04  0.91443063805E+02 0.  0.
          2    1    3    3  502    0  0.38314244718E+03  0.13146708886E+04 -0.18370591657E+04  0.22912756400E+04  0.00000000000E+00 0. -1.
         -1    1    3    3    0  502  0.64873254898E+01  0.97561695179E+01 -0.67157157803E+01  0.13504409432E+02  0.00000000000E+00 0.  1.
         13    1    5    5    0    0  0.17688559029E+03 -0.89753127063E+03 -0.12772155632E+04  0.15710284812E+04  0.00000000000E+00 0.  1.
        -13    1    5    5    0    0 -0.11411787016E+02 -0.47487429269E+02 -0.58331203291E+02  0.76077684631E+02  0.00000000000E+00 0. -1.
          4    1    6    6  503    0 -0.23911919927E+02 -0.98027346441E+01 -0.89020899186E+01  0.27333509215E+02  0.00000000000E+00 0. -1.
         -4    1    6    6    0  503 -0.53119165601E+03 -0.36960562358E+03 -0.75895574596E+03  0.99738995219E+03  0.00000000000E+00 0.  1.
<mgrwt>
<rscale>  0 0.30309104E+04</rscale>
<asrwt>0</asrwt>
<pdfrwt beam="1">  1        2 0.68644529E+00 0.30309104E+04</pdfrwt>
<pdfrwt beam="2">  1       -1 0.79186942E-01 0.30309104E+04</pdfrwt>
<totfact> 0.20703949E-01</totfact>
</mgrwt>
</event>
<event>
12    7  0.1611233E-007  0.1393962E+04  0.7818608E-02  0.8958201E-01
         -1   -1    0    0    0  501 -0.00000000000E+00  0.00000000000E+00  0.64109540347E+03  0.64109540347E+03  0.00000000000E+00 0.  1.
          2   -1    0    0  501    0  0.00000000000E+00 -0.00000000000E+00 -0.75773859586E+03  0.75773859586E+03  0.00000000000E+00 0. -1.
         24    2    1    2    0    0 -0.31350348584E+03 -0.82251911575E+02 -0.57165538770E+02  0.33876967514E+03  0.80294342139E+02 0.  0.
        254    2    1    2    0    0  0.31350348584E+03  0.82251911575E+02 -0.59477653625E+02  0.10600643242E+04  0.10075460126E+04 0.  0.
         23    2    4    4    0    0  0.32792559333E+03  0.19849964925E+03  0.40941523560E+03  0.56828782658E+03  0.91612843999E+02 0.  0.
         23    2    4    4    0    0 -0.14422107488E+02 -0.11624773767E+03 -0.46889288923E+03  0.49177649760E+03  0.90895810300E+02 0.  0.
          4    1    3    3  502    0 -0.27658171616E+03 -0.46205931527E+02 -0.61189784917E+02  0.28701328122E+03  0.00000000000E+00 0. -1.
         -3    1    3    3    0  502 -0.36921769684E+02 -0.36045980048E+02  0.40242461468E+01  0.51756393917E+02  0.00000000000E+00 0.  1.
         13    1    5    5    0    0  0.33042330091E+03  0.20379250802E+03  0.40216478244E+03  0.55896999592E+03  0.00000000000E+00 0.  1.
        -13    1    5    5    0    0 -0.24977075789E+01 -0.52928587708E+01  0.72504531609E+01  0.93178306571E+01  0.00000000000E+00 0. -1.
          2    1    6    6  503    0  0.25116788578E+02 -0.87986049954E+02 -0.37558295306E+03  0.38656817340E+03  0.00000000000E+00 0.  1.
         -2    1    6    6    0  503 -0.39538896066E+02 -0.28261687717E+02 -0.93309936165E+02  0.10520832420E+03  0.00000000000E+00 0. -1.
<mgrwt>
<rscale>  0 0.13939623E+04</rscale>
<asrwt>0</asrwt>
<pdfrwt beam="1">  1        2 0.11657517E+00 0.13939623E+04</pdfrwt>
<pdfrwt beam="2">  1       -1 0.98630063E-01 0.13939623E+04</pdfrwt>
<totfact> 0.40487295E+01</totfact>
</mgrwt>
</event>
<event>
12    7  0.1611233E-007  0.1928274E+04  0.7818608E-02  0.8640909E-01
         -1   -1    0    0    0  501 -0.00000000000E+00  0.00000000000E+00  0.92377819806E+03  0.92377819806E+03  0.00000000000E+00 0.  1.
          2   -1    0    0  501    0  0.00000000000E+00 -0.00000000000E+00 -0.10062592781E+04  0.10062592781E+04  0.00000000000E+00 0. -1.
         24    2    1    2    0    0 -0.16519121207E+03  0.71751328406E+03  0.86497025237E+02  0.74547427170E+03  0.78337124264E+02 0.  0.
        254    2    1    2    0    0  0.16519121207E+03 -0.71751328406E+03 -0.16897810529E+03  0.11845632045E+04  0.91242694830E+03 0.  0.
         23    2    4    4    0    0  0.28048897440E+03 -0.80680402881E+02  0.26144545752E+03  0.40219856135E+03  0.90700404247E+02 0.  0.
         23    2    4    4    0    0 -0.11529776233E+03 -0.63683288118E+03 -0.43042356280E+03  0.78236464313E+03  0.89332518433E+02 0.  0.
          4    1    3    3  502    0 -0.82035383915E+02  0.24868251115E+03  0.59636279115E+02  0.26856895084E+03  0.00000000000E+00 0. -1.
         -3    1    3    3    0  502 -0.83155828158E+02  0.46883077291E+03  0.26860746122E+02  0.47690532086E+03  0.00000000000E+00 0.  1.
         13    1    5    5    0    0  0.13060716113E+03  0.41359992383E+01  0.86487005355E+02  0.15670143306E+03  0.00000000000E+00 0. -1.
        -13    1    5    5    0    0  0.14988181327E+03 -0.84816402119E+02  0.17495845216E+03  0.24549712829E+03  0.00000000000E+00 0.  1.
          2    1    6    6  503    0 -0.69245483725E+02 -0.49320832704E+03 -0.29020288594E+03  0.57642614955E+03  0.00000000000E+00 0. -1.
         -2    1    6    6    0  503 -0.46052278601E+02 -0.14362455414E+03 -0.14022067687E+03  0.20593849358E+03  0.00000000000E+00 0.  1.
<mgrwt>
<rscale>  0 0.19282742E+04</rscale>
<asrwt>0</asrwt>
<pdfrwt beam="1">  1        2 0.15480912E+00 0.19282742E+04</pdfrwt>
<pdfrwt beam="2">  1       -1 0.14211972E+00 0.19282742E+04</pdfrwt>
<totfact> 0.10719780E+01</totfact>
</mgrwt>
</event>
<event>
12    7  0.1611233E-007  0.2202515E+04  0.7818608E-02  0.8517382E-01
          2   -1    0    0  501    0  0.00000000000E+00  0.00000000000E+00  0.20568103009E+04  0.20568103009E+04  0.00000000000E+00 0. -1.
         -1   -1    0    0    0  501 -0.00000000000E+00 -0.00000000000E+00 -0.58963515335E+03  0.58963515335E+03  0.00000000000E+00 0.  1.
         24    2    1    2    0    0  0.59467452332E+03  0.26454521989E+03 -0.16142426339E+03  0.67538812471E+03  0.80432357491E+02 0.  0.
        254    2    1    2    0    0 -0.59467452332E+03 -0.26454521989E+03  0.16285994110E+04  0.19710573296E+04  0.89950485991E+03 0.  0.
         23    2    4    4    0    0 -0.49090447846E+03  0.23444094922E+03  0.11032412737E+04  0.12334850311E+04  0.91620130944E+02 0.  0.
         23    2    4    4    0    0 -0.10377004487E+03 -0.49898616910E+03  0.52535813725E+03  0.73757229842E+03  0.90864205596E+02 0.  0.
          2    1    3    3  502    0  0.12106809068E+03  0.21834494584E+02 -0.41839924633E+02  0.12994155235E+03  0.00000000000E+00 0. -1.
         -1    1    3    3    0  502  0.47360643264E+03  0.24271072531E+03 -0.11958433876E+03  0.54544657236E+03  0.00000000000E+00 0.  1.
         13    1    5    5    0    0 -0.66325167105E+02  0.16873023466E+02  0.20931549371E+03  0.22021966901E+03  0.00000000000E+00 0. -1.
        -13    1    5    5    0    0 -0.42457931135E+03  0.21756792575E+03  0.89392577999E+03  0.10132653621E+04  0.00000000000E+00 0.  1.
          3    1    6    6  503    0 -0.31103734192E+01 -0.60802205697E+02  0.10873251606E+03  0.12461678334E+03  0.00000000000E+00 0. -1.
         -3    1    6    6    0  503 -0.10065967145E+03 -0.43818396341E+03  0.41662562118E+03  0.61295551508E+03  0.00000000000E+00 0.  1.
<mgrwt>
<rscale>  0 0.22025146E+04</rscale>
<asrwt>0</asrwt>
<pdfrwt beam="1">  1        2 0.31643235E+00 0.22025146E+04</pdfrwt>
<pdfrwt beam="2">  1       -1 0.90713102E-01 0.22025146E+04</pdfrwt>
<totfact> 0.76684933E+00</totfact>
</mgrwt>
</event>
<event>
12    7  0.1611233E-007  0.2073386E+04  0.7818608E-02  0.8573058E-01
         -1   -1    0    0    0  501 -0.00000000000E+00  0.00000000000E+00  0.43665357374E+03  0.43665357374E+03  0.00000000000E+00 0.  1.
          2   -1    0    0  501    0  0.00000000000E+00 -0.00000000000E+00 -0.24612937285E+04  0.24612937285E+04  0.00000000000E+00 0. -1.
         24    2    1    2    0    0 -0.76542803252E+03 -0.20689131015E+03 -0.44693379260E+03  0.91379131224E+03  0.81121268346E+02 0.  0.
        254    2    1    2    0    0  0.76542803252E+03  0.20689131015E+03 -0.15777063621E+04  0.19841559900E+04  0.90500471836E+03 0.  0.
         23    2    4    4    0    0  0.38339962855E+03 -0.24041591289E+03 -0.11845709343E+04  0.12713360083E+04  0.91059656973E+02 0.  0.
         23    2    4    4    0    0  0.38202840397E+03  0.44730722304E+03 -0.39313542779E+03  0.71281998169E+03  0.86760639064E+02 0.  0.
          4    1    3    3  502    0 -0.20434356443E+02 -0.20706718537E+02 -0.14686294271E+02  0.32588623095E+02  0.00000000000E+00 0. -1.
         -3    1    3    3    0  502 -0.74499367608E+03 -0.18618459162E+03 -0.43224749833E+03  0.88120268915E+03  0.00000000000E+00 0.  1.
         13    1    5    5    0    0  0.31288056066E+03 -0.19906897265E+03 -0.85844003486E+03  0.93511603268E+03  0.00000000000E+00 0. -1.
        -13    1    5    5    0    0  0.70519067895E+02 -0.41346940234E+02 -0.32613089948E+03  0.33621997561E+03  0.00000000000E+00 0.  1.
          4    1    6    6  503    0  0.29468495760E+03  0.29698740654E+03 -0.30608677974E+03  0.51839160932E+03  0.00000000000E+00 0. -1.
         -4    1    6    6    0  503  0.87343446370E+02  0.15031981650E+03 -0.87048648043E+02  0.19442837237E+03  0.00000000000E+00 0.  1.
<mgrwt>
<rscale>  0 0.20733863E+04</rscale>
<asrwt>0</asrwt>
<pdfrwt beam="1">  1        2 0.37866058E+00 0.20733863E+04</pdfrwt>
<pdfrwt beam="2">  1       -1 0.67177472E-01 0.20733863E+04</pdfrwt>
<totfact> 0.86509952E+00</totfact>
</mgrwt>
</event>
<event>
12    7  0.1611233E-007  0.2310569E+04  0.7818608E-02  0.8473766E-01
         -1   -1    0    0    0  501 -0.00000000000E+00  0.00000000000E+00  0.70719059768E+03  0.70719059768E+03  0.00000000000E+00 0.  1.
          2   -1    0    0  501    0  0.00000000000E+00 -0.00000000000E+00 -0.18873014434E+04  0.18873014434E+04  0.00000000000E+00 0. -1.
         24    2    1    2    0    0  0.45310244548E+01  0.32898301559E+03  0.53935911483E+03  0.63705922426E+03  0.81767021106E+02 0.  0.
        254    2    1    2    0    0 -0.45310244548E+01 -0.32898301559E+03 -0.17194699606E+04  0.19574328168E+04  0.87562316802E+03 0.  0.
         23    2    4    4    0    0  0.20989188531E+03  0.16976599690E+03 -0.10621648712E+04  0.10997636457E+04  0.91710227136E+02 0.  0.
         23    2    4    4    0    0 -0.21442290977E+03 -0.49874901249E+03 -0.65730508942E+03  0.85766917109E+03  0.93907746086E+02 0.  0.
          4    1    3    3  502    0  0.24043227088E+02  0.21496159186E+03  0.40973144799E+03  0.46332107897E+03  0.00000000000E+00 0. -1.
         -3    1    3    3    0  502 -0.19512202633E+02  0.11402142373E+03  0.12962766684E+03  0.17373814530E+03  0.00000000000E+00 0.  1.
         13    1    5    5    0    0  0.15355473500E+03  0.66217517457E+02 -0.62161584804E+03  0.64371583699E+03  0.00000000000E+00 0. -1.
        -13    1    5    5    0    0  0.56337150310E+02  0.10354847944E+03 -0.44054902312E+03  0.45604780875E+03  0.00000000000E+00 0.  1.
          3    1    6    6  503    0 -0.20165234129E+03 -0.36859443814E+03 -0.49803828903E+03  0.65158856952E+03  0.00000000000E+00 0. -1.
         -3    1    6    6    0  503 -0.12770568480E+02 -0.13015457434E+03 -0.15926680038E+03  0.20608060158E+03  0.00000000000E+00 0.  1.
<mgrwt>
<rscale>  0 0.23105686E+04</rscale>
<asrwt>0</asrwt>
<pdfrwt beam="1">  1        2 0.29035406E+00 0.23105686E+04</pdfrwt>
<pdfrwt beam="2">  1       -1 0.10879856E+00 0.23105686E+04</pdfrwt>
<totfact> 0.62325820E+00</totfact>
</mgrwt>
</event>
<event>
12    7  0.1611233E-007  0.1944135E+04  0.7818608E-02  0.8633194E-01
          2   -1    0    0  501    0  0.00000000000E+00  0.00000000000E+00  0.21288740834E+04  0.21288740834E+04  0.00000000000E+00 0. -1.
         -1   -1    0    0    0  501 -0.00000000000E+00 -0.00000000000E+00 -0.44385700221E+03  0.44385700221E+03  0.00000000000E+00 0.  1.
         24    2    1    2    0    0 -0.62944148688E+02 -0.76191757831E+03  0.69072794986E+03  0.10333085358E+04  0.78364962921E+02 0.  0.
        254    2    1    2    0    0  0.62944148688E+02  0.76191757831E+03  0.99428913137E+03  0.15394225499E+04  0.89259764077E+03 0.  0.
         23    2    4    4    0    0  0.32307172553E+03 -0.26380597316E+02  0.33981579333E+03  0.47845074785E+03  0.91482615692E+02 0.  0.
         23    2    4    4    0    0 -0.26012757684E+03  0.78829817563E+03  0.65447333803E+03  0.10609718020E+04  0.90804430249E+02 0.  0.
          4    1    3    3  502    0 -0.83156933994E+01 -0.20615478582E+03  0.23324257654E+03  0.31140174370E+03  0.00000000000E+00 0. -1.
         -3    1    3    3    0  502 -0.54628455288E+02 -0.55576279250E+03  0.45748537333E+03  0.72190679208E+03  0.00000000000E+00 0.  1.
         13    1    5    5    0    0  0.12286007817E+03 -0.18857376282E+02  0.70877988766E+02  0.14308699711E+03  0.00000000000E+00 0. -1.
        -13    1    5    5    0    0  0.20021164735E+03 -0.75232210336E+01  0.26893780457E+03  0.33536375075E+03  0.00000000000E+00 0.  1.
          1    1    6    6  503    0 -0.11086079423E+03  0.30520291384E+03  0.31170811042E+03  0.45011207539E+03  0.00000000000E+00 0. -1.
         -1    1    6    6    0  503 -0.14926678261E+03  0.48309526179E+03  0.34276522762E+03  0.61085972663E+03  0.00000000000E+00 0.  1.
<mgrwt>
<rscale>  0 0.19441355E+04</rscale>
<asrwt>0</asrwt>
<pdfrwt beam="1">  1        2 0.32751909E+00 0.19441355E+04</pdfrwt>
<pdfrwt beam="2">  1       -1 0.68285693E-01 0.19441355E+04</pdfrwt>
<totfact> 0.13059136E+01</totfact>
</mgrwt>
</event>
<event>
12    7  0.1611233E-007  0.1557922E+04  0.7818608E-02  0.8846823E-01
         -1   -1    0    0    0  501 -0.00000000000E+00  0.00000000000E+00  0.23886783425E+03  0.23886783425E+03  0.00000000000E+00 0.  1.
          2   -1    0    0  501    0  0.00000000000E+00 -0.00000000000E+00 -0.25402355185E+04  0.25402355185E+04  0.00000000000E+00 0. -1.
         24    2    1    2    0    0  0.37485559484E+03  0.30849983547E+03 -0.11570723212E+04  0.12573448201E+04  0.80067314081E+02 0.  0.
        254    2    1    2    0    0 -0.37485559484E+03 -0.30849983547E+03 -0.11442953630E+04  0.15217585326E+04  0.87786575751E+03 0.  0.
         23    2    4    4    0    0 -0.59894633177E+03 -0.85905410653E+02 -0.46938560728E+03  0.77081247652E+03  0.87821282779E+02 0.  0.
         23    2    4    4    0    0  0.22409073693E+03 -0.22259442481E+03 -0.67490975574E+03  0.75094605607E+03  0.93015398712E+02 0.  0.
          4    1    3    3  502    0  0.23903925570E+03  0.19494190999E+03 -0.82952042236E+03  0.88501200283E+03  0.00000000000E+00 0. -1.
         -3    1    3    3    0  502  0.13581633914E+03  0.11355792548E+03 -0.32755189885E+03  0.37233281732E+03  0.00000000000E+00 0.  1.
         13    1    5    5    0    0 -0.26650712584E+02 -0.23385914791E+02 -0.32656413865E+02  0.48203763944E+02  0.00000000000E+00 0. -1.
        -13    1    5    5    0    0 -0.57229561919E+03 -0.62519495862E+02 -0.43672919342E+03  0.72260871258E+03  0.00000000000E+00 0.  1.
          2    1    6    6  503    0  0.18668001597E+03 -0.12971012647E+03 -0.43079642252E+03  0.48709311526E+03  0.00000000000E+00 0. -1.
         -2    1    6    6    0  503  0.37410720961E+02 -0.92884298341E+02 -0.24411333322E+03  0.26385294082E+03  0.00000000000E+00 0.  1.
<mgrwt>
<rscale>  0 0.15579224E+04</rscale>
<asrwt>0</asrwt>
<pdfrwt beam="1">  1        2 0.39080546E+00 0.15579224E+04</pdfrwt>
<pdfrwt beam="2">  1       -1 0.36748898E-01 0.15579224E+04</pdfrwt>
<totfact> 0.25750916E+01</totfact>
</mgrwt>
</event>
<event>
12    7  0.1611233E-007  0.1958079E+04  0.7818608E-02  0.8626475E-01
          2   -1    0    0  501    0  0.00000000000E+00  0.00000000000E+00  0.14713374614E+04  0.14713374614E+04  0.00000000000E+00 0. -1.
         -1   -1    0    0    0  501 -0.00000000000E+00 -0.00000000000E+00 -0.65146031558E+03  0.65146031558E+03  0.00000000000E+00 0.  1.
         24    2    1    2    0    0 -0.27037360573E+03 -0.11600050162E+03  0.10985206339E+04  0.11400254427E+04  0.79702094076E+02 0.  0.
        254    2    1    2    0    0  0.27037360573E+03  0.11600050162E+03 -0.27864348803E+03  0.98277233435E+03  0.89534421576E+03 0.  0.
         23    2    4    4    0    0  0.37043358952E+03 -0.30882079370E+03 -0.19696786109E+03  0.52909600243E+03  0.92492781430E+02 0.  0.
         23    2    4    4    0    0 -0.10005998379E+03  0.42482129532E+03 -0.81675626942E+02  0.45367633193E+03  0.93092281089E+02 0.  0.
          2    1    3    3  502    0 -0.19441560716E+03 -0.10489798961E+03  0.91097310597E+03  0.93737560046E+03  0.00000000000E+00 0. -1.
         -1    1    3    3    0  502 -0.75957998573E+02 -0.11102512013E+02  0.18754752792E+03  0.20264984222E+03  0.00000000000E+00 0.  1.
         13    1    5    5    0    0  0.38514012041E+02 -0.23487276334E+01 -0.23431563019E+02  0.45142926251E+02  0.00000000000E+00 0. -1.
        -13    1    5    5    0    0  0.33191957748E+03 -0.30647206607E+03 -0.17353629807E+03  0.48395307618E+03  0.00000000000E+00 0.  1.
          3    1    6    6  503    0 -0.11276498040E+02 -0.96600968374E+00 -0.21985673920E+01  0.11529366042E+02  0.00000000000E+00 0. -1.
         -3    1    6    6    0  503 -0.88783485754E+02  0.42578730500E+03 -0.79477059550E+02  0.44214696588E+03  0.00000000000E+00 0.  1.
<mgrwt>
<rscale>  0 0.19580786E+04</rscale>
<asrwt>0</asrwt>
<pdfrwt beam="1">  1        2 0.22635961E+00 0.19580786E+04</pdfrwt>
<pdfrwt beam="2">  1       -1 0.10022466E+00 0.19580786E+04</pdfrwt>
<totfact> 0.13272738E+01</totfact>
</mgrwt>
</event>
<event>
12    7  0.1611233E-007  0.1279908E+04  0.7818608E-02  0.9045652E-01
          2   -1    0    0  501    0  0.00000000000E+00  0.00000000000E+00  0.30538813165E+04  0.30538813165E+04  0.00000000000E+00 0. -1.
         -1   -1    0    0    0  501 -0.00000000000E+00 -0.00000000000E+00 -0.13410501579E+03  0.13410501579E+03  0.00000000000E+00 0.  1.
         24    2    1    2    0    0  0.23471840310E+03  0.17979282462E+03  0.45975829506E+03  0.55240418542E+03  0.79715153275E+02 0.  0.
        254    2    1    2    0    0 -0.23471840310E+03 -0.17979282462E+03  0.24600180056E+04  0.26355821469E+04  0.89843557153E+03 0.  0.
         23    2    4    4    0    0  0.97282809563E+02 -0.22235626604E+03  0.14906574552E+03  0.29870996009E+03  0.90004387032E+02 0.  0.
         23    2    4    4    0    0 -0.33200121266E+03  0.42563441429E+02  0.23109522601E+04  0.23368721868E+04  0.91841259448E+02 0.  0.
          2    1    3    3  502    0  0.92057681307E+02  0.60513707552E+02  0.10669349553E+03  0.15336240568E+03  0.00000000000E+00 0. -1.
         -1    1    3    3    0  502  0.14266072179E+03  0.11927911706E+03  0.35306479953E+03  0.39904177974E+03  0.00000000000E+00 0.  1.
         13    1    5    5    0    0  0.76172707886E+02 -0.11859089810E+03  0.12872578679E+03  0.19088323845E+03  0.00000000000E+00 0. -1.
        -13    1    5    5    0    0  0.21110101676E+02 -0.10376536795E+03  0.20339958730E+02  0.10782672164E+03  0.00000000000E+00 0.  1.
          1    1    6    6  503    0 -0.30050070424E+03  0.28357759575E+02  0.18341889311E+04  0.18588582169E+04  0.00000000000E+00 0. -1.
         -1    1    6    6    0  503 -0.31500508426E+02  0.14205681854E+02  0.47676332905E+03  0.47801396984E+03  0.00000000000E+00 0.  1.
<mgrwt>
<rscale>  0 0.12799075E+04</rscale>
<asrwt>0</asrwt>
<pdfrwt beam="1">  1        2 0.46982784E+00 0.12799075E+04</pdfrwt>
<pdfrwt beam="2">  1       -1 0.20631543E-01 0.12799075E+04</pdfrwt>
<totfact> 0.35396341E+01</totfact>
</mgrwt>
</event>
<event>
12    7  0.1611233E-007  0.2063305E+04  0.7818608E-02  0.8577582E-01
         -3   -1    0    0    0  501 -0.00000000000E+00  0.00000000000E+00  0.58546351744E+03  0.58546351744E+03  0.00000000000E+00 0.  1.
          4   -1    0    0  501    0  0.00000000000E+00 -0.00000000000E+00 -0.18178871372E+04  0.18178871372E+04  0.00000000000E+00 0. -1.
         24    2    1    2    0    0 -0.12144434183E+03  0.67581149668E+03 -0.10531843690E+04  0.12597880704E+04  0.79992249447E+02 0.  0.
        254    2    1    2    0    0  0.12144434183E+03 -0.67581149668E+03 -0.17923925074E+03  0.11435625842E+04  0.89673784789E+03 0.  0.
         23    2    4    4    0    0  0.33458985451E+03  0.66597753362E+02 -0.81916539837E+02  0.35970807994E+03  0.79334430025E+02 0.  0.
         23    2    4    4    0    0 -0.21314551268E+03 -0.74240925004E+03 -0.97322710904E+02  0.78385450429E+03  0.91398411961E+02 0.  0.
          2    1    3    3  502    0 -0.79801388829E+02  0.53442011029E+03 -0.87676424219E+03  0.10298973989E+04  0.00000000000E+00 0. -1.
         -1    1    3    3    0  502 -0.41642952996E+02  0.14139138639E+03 -0.17642012686E+03  0.22989067150E+03  0.00000000000E+00 0.  1.
         13    1    5    5    0    0  0.32820478906E+03  0.52520616538E+02 -0.68779447077E+02  0.33942217232E+03  0.00000000000E+00 0. -1.
        -13    1    5    5    0    0  0.63850654464E+01  0.14077136824E+02 -0.13137092760E+02  0.20285907623E+02  0.00000000000E+00 0.  1.
          3    1    6    6  503    0 -0.11081483549E+03 -0.23708612318E+03 -0.19460261022E+02  0.26242800789E+03  0.00000000000E+00 0. -1.
         -3    1    6    6    0  503 -0.10233067719E+03 -0.50532312687E+03 -0.77862449882E+02  0.52142649640E+03  0.00000000000E+00 0.  1.
<mgrwt>
<rscale>  0 0.20633047E+04</rscale>
<asrwt>0</asrwt>
<pdfrwt beam="1">  1        4 0.27967494E+00 0.20633047E+04</pdfrwt>
<pdfrwt beam="2">  1       -3 0.90071312E-01 0.20633047E+04</pdfrwt>
<totfact> 0.97010623E-02</totfact>
</mgrwt>
</event>
<event>
12    7  0.1611233E-007  0.2091408E+04  0.7818608E-02  0.8565038E-01
          2   -1    0    0  501    0  0.00000000000E+00  0.00000000000E+00  0.74776507537E+03  0.74776507537E+03  0.00000000000E+00 0. -1.
         -1   -1    0    0    0  501 -0.00000000000E+00 -0.00000000000E+00 -0.14623533009E+04  0.14623533009E+04  0.00000000000E+00 0.  1.
         24    2    1    2    0    0 -0.42840648785E+03 -0.44920496162E+03 -0.85727765893E+03  0.10616492802E+04  0.82806963544E+02 0.  0.
        254    2    1    2    0    0  0.42840648785E+03  0.44920496162E+03  0.14268943338E+03  0.11484690961E+04  0.95566928065E+03 0.  0.
         23    2    4    4    0    0 -0.15549712989E+03  0.19062242248E+03  0.37910952091E+03  0.46125642747E+03  0.92288664971E+02 0.  0.
         23    2    4    4    0    0  0.58390361774E+03  0.25858253914E+03 -0.23642008753E+03  0.68721266866E+03  0.92511782066E+02 0.  0.
          4    1    3    3  502    0 -0.24056570043E+03 -0.28797795558E+03 -0.46103633429E+03  0.59443894611E+03  0.00000000000E+00 0. -1.
         -3    1    3    3    0  502 -0.18784078743E+03 -0.16122700604E+03 -0.39624132465E+03  0.46721033406E+03  0.00000000000E+00 0.  1.
         13    1    5    5    0    0  0.60569743446E+01  0.41108877399E+02  0.76478090715E+02  0.87037492488E+02  0.00000000000E+00 0.  1.
        -13    1    5    5    0    0 -0.16155410423E+03  0.14951354508E+03  0.30263143019E+03  0.37421893498E+03  0.00000000000E+00 0. -1.
          3    1    6    6  503    0  0.31777533754E+03  0.90222579395E+02 -0.12361310199E+03  0.35270593696E+03  0.00000000000E+00 0. -1.
         -3    1    6    6    0  503  0.26612828020E+03  0.16835995975E+03 -0.11280698554E+03  0.33450673170E+03  0.00000000000E+00 0.  1.
<mgrwt>
<rscale>  0 0.20914079E+04</rscale>
<asrwt>0</asrwt>
<pdfrwt beam="1">  1        2 0.11504078E+00 0.20914079E+04</pdfrwt>
<pdfrwt beam="2">  1       -1 0.22497743E+00 0.20914079E+04</pdfrwt>
<totfact> 0.40383925E+00</totfact>
</mgrwt>
</event>
<event>
12    7  0.1611233E-007  0.1359867E+04  0.7818608E-02  0.8983392E-01
          2   -1    0    0  501    0  0.00000000000E+00  0.00000000000E+00  0.22551760574E+04  0.22551760574E+04  0.00000000000E+00 0. -1.
         -1   -1    0    0    0  501 -0.00000000000E+00 -0.00000000000E+00 -0.20499945097E+03  0.20499945097E+03  0.00000000000E+00 0.  1.
         24    2    1    2    0    0  0.11471583001E+03 -0.23387825555E+02  0.12367437992E+04  0.12447328192E+04  0.78216714715E+02 0.  0.
        254    2    1    2    0    0 -0.11471583001E+03  0.23387825555E+02  0.81343280726E+03  0.12154426891E+04  0.89550057878E+03 0.  0.
         23    2    4    4    0    0  0.29416809593E+02 -0.36766046950E+03  0.11505519656E+03  0.39714822468E+03  0.91920860464E+02 0.  0.
         23    2    4    4    0    0 -0.14413263960E+03  0.39104829506E+03  0.69837761070E+03  0.81829446445E+03  0.90451957183E+02 0.  0.
          2    1    3    3  502    0  0.29971018749E+02 -0.25458754294E+02  0.72076399777E+03  0.72183595825E+03  0.00000000000E+00 0. -1.
         -1    1    3    3    0  502  0.84744811262E+02  0.20709287386E+01  0.51597980139E+03  0.52289686098E+03  0.00000000000E+00 0.  1.
         13    1    5    5    0    0  0.83966241913E+01 -0.29696536466E+03  0.12578932116E+03  0.32261724136E+03  0.00000000000E+00 0.  1.
        -13    1    5    5    0    0  0.21020185402E+02 -0.70695104839E+02 -0.10734124605E+02  0.74530983313E+02  0.00000000000E+00 0. -1.
          3    1    6    6  503    0 -0.65086966270E+02  0.82107392732E+02  0.13454880723E+03  0.17053245629E+03  0.00000000000E+00 0. -1.
         -3    1    6    6    0  503 -0.79045673335E+02  0.30894090232E+03  0.56382880346E+03  0.64776200816E+03  0.00000000000E+00 0.  1.
<mgrwt>
<rscale>  0 0.13598674E+04</rscale>
<asrwt>0</asrwt>
<pdfrwt beam="1">  1        2 0.34695014E+00 0.13598674E+04</pdfrwt>
<pdfrwt beam="2">  1       -1 0.31538379E-01 0.13598674E+04</pdfrwt>
<totfact> 0.50030791E+01</totfact>
</mgrwt>
</event>
<event>
12    7  0.1611233E-007  0.1579557E+04  0.7818608E-02  0.8833207E-01
          2   -1    0    0  501    0  0.00000000000E+00  0.00000000000E+00  0.18886272730E+04  0.18886272730E+04  0.00000000000E+00 0. -1.
         -1   -1    0    0    0  501 -0.00000000000E+00 -0.00000000000E+00 -0.33026616502E+03  0.33026616502E+03  0.00000000000E+00 0.  1.
         24    2    1    2    0    0  0.20838208909E+03 -0.29434551723E+03 -0.18146946394E+02  0.36926633571E+03  0.77239474754E+02 0.  0.
        254    2    1    2    0    0 -0.20838208909E+03  0.29434551723E+03  0.15765080544E+04  0.18496271023E+04  0.89759701064E+03 0.  0.
         23    2    4    4    0    0 -0.30560906581E+03  0.57013067082E+03  0.96736627489E+03  0.11671955743E+04  0.90011755184E+02 0.  0.
         23    2    4    4    0    0  0.97226976718E+02 -0.27578515359E+03  0.60914177946E+03  0.68243152794E+03  0.95648036540E+02 0.  0.
          4    1    3    3  502    0  0.43704563772E+02 -0.36611283521E+02  0.21339467328E+02  0.60875675285E+02  0.00000000000E+00 0. -1.
         -3    1    3    3    0  502  0.16467752532E+03 -0.25773423370E+03 -0.39486413722E+02  0.30839066042E+03  0.00000000000E+00 0.  1.
         13    1    5    5    0    0 -0.14676270085E+03  0.26057438785E+03  0.52725490582E+03  0.60616502512E+03  0.00000000000E+00 0. -1.
        -13    1    5    5    0    0 -0.15884636496E+03  0.30955628297E+03  0.44011136907E+03  0.56103054923E+03  0.00000000000E+00 0.  1.
          4    1    6    6  503    0  0.59809062937E+02 -0.16790517036E+03  0.26109393803E+03  0.31613179960E+03  0.00000000000E+00 0. -1.
         -4    1    6    6    0  503  0.37417913780E+02 -0.10787998323E+03  0.34804784143E+03  0.36629972833E+03  0.00000000000E+00 0.  1.
<mgrwt>
<rscale>  0 0.15795565E+04</rscale>
<asrwt>0</asrwt>
<pdfrwt beam="1">  1        2 0.29055804E+00 0.15795565E+04</pdfrwt>
<pdfrwt beam="2">  1       -1 0.50810180E-01 0.15795565E+04</pdfrwt>
<totfact> 0.32812932E+01</totfact>
</mgrwt>
</event>
<event>
12    7  0.1611233E-007  0.1329264E+04  0.7818608E-02  0.9006675E-01
         -1   -1    0    0    0  501 -0.00000000000E+00  0.00000000000E+00  0.23662656350E+03  0.23662656350E+03  0.00000000000E+00 0.  1.
          2   -1    0    0  501    0  0.00000000000E+00 -0.00000000000E+00 -0.18668048722E+04  0.18668048722E+04  0.00000000000E+00 0. -1.
         24    2    1    2    0    0 -0.11158727491E+03  0.24975604193E+03 -0.77852025957E+03  0.82915335634E+03  0.81065981560E+02 0.  0.
        254    2    1    2    0    0  0.11158727491E+03 -0.24975604193E+03 -0.85165804918E+03  0.12742780794E+04  0.90754250068E+03 0.  0.
         23    2    4    4    0    0  0.11593607004E+03  0.31768749438E+03 -0.19083138056E+03  0.39865109908E+03  0.90219546513E+02 0.  0.
         23    2    4    4    0    0 -0.43487951332E+01 -0.56744353631E+03 -0.66082666862E+03  0.87562698033E+03  0.89552463936E+02 0.  0.
          4    1    3    3  502    0 -0.83158901156E+02  0.19870229150E+03 -0.69198967582E+03  0.72473975670E+03  0.00000000000E+00 0. -1.
         -3    1    3    3    0  502 -0.28428373751E+02  0.51053750428E+02 -0.86530583743E+02  0.10441359964E+03  0.00000000000E+00 0.  1.
         13    1    5    5    0    0 -0.65275207928E+01  0.86872575250E+02 -0.31636434140E+02  0.92683962061E+02  0.00000000000E+00 0.  1.
        -13    1    5    5    0    0  0.12246359083E+03  0.23081491913E+03 -0.15919494642E+03  0.30596713702E+03  0.00000000000E+00 0. -1.
          2    1    6    6  503    0 -0.39138978750E+02 -0.29798842049E+03 -0.38555086463E+03  0.48885419873E+03  0.00000000000E+00 0. -1.
         -2    1    6    6    0  503  0.34790183617E+02 -0.26945511583E+03 -0.27527580399E+03  0.38677278160E+03  0.00000000000E+00 0.  1.
<mgrwt>
<rscale>  0 0.13292639E+04</rscale>
<asrwt>0</asrwt>
<pdfrwt beam="1">  1        2 0.28720076E+00 0.13292639E+04</pdfrwt>
<pdfrwt beam="2">  1       -1 0.36404085E-01 0.13292639E+04</pdfrwt>
<totfact> 0.63842739E+01</totfact>
</mgrwt>
</event>
<event>
12    7  0.1611233E-007  0.1258675E+04  0.7818608E-02  0.9062994E-01
         -1   -1    0    0    0  501 -0.00000000000E+00  0.00000000000E+00  0.16526966352E+04  0.16526966352E+04  0.00000000000E+00 0.  1.
          2   -1    0    0  501    0  0.00000000000E+00 -0.00000000000E+00 -0.23964806336E+03  0.23964806336E+03  0.00000000000E+00 0. -1.
         24    2    1    2    0    0 -0.73175065672E+02 -0.29019175355E+03  0.34715172078E+03  0.46525350554E+03  0.79879053054E+02 0.  0.
        254    2    1    2    0    0  0.73175065672E+02  0.29019175355E+03  0.10658968511E+04  0.14270911930E+04  0.90049282731E+03 0.  0.
         23    2    4    4    0    0 -0.10015347602E+03  0.58266470616E+03  0.64772976144E+03  0.88162303896E+03  0.90423782366E+02 0.  0.
         23    2    4    4    0    0  0.17332854169E+03 -0.29247295261E+03  0.41816708962E+03  0.54546815405E+03  0.84193710400E+02 0.  0.
          2    1    3    3  502    0  0.17508386649E+01  0.49021235605E+00  0.24458224852E+02  0.24525711143E+02  0.00000000000E+00 0. -1.
         -1    1    3    3    0  502 -0.74925904337E+02 -0.29068196591E+03  0.32269349593E+03  0.44072779440E+03  0.00000000000E+00 0.  1.
         13    1    5    5    0    0 -0.38864439085E+02  0.44352084220E+03  0.50252075034E+03  0.67137790149E+03  0.00000000000E+00 0.  1.
        -13    1    5    5    0    0 -0.61289036936E+02  0.13914386396E+03  0.14520901109E+03  0.21024513747E+03  0.00000000000E+00 0. -1.
          1    1    6    6  503    0  0.11463275627E+02 -0.31332954549E+02  0.10472498450E+02  0.34969042776E+02  0.00000000000E+00 0. -1.
         -1    1    6    6    0  503  0.16186526607E+03 -0.26113999806E+03  0.40769459117E+03  0.51049911128E+03  0.00000000000E+00 0.  1.
<mgrwt>
<rscale>  0 0.12586748E+04</rscale>
<asrwt>0</asrwt>
<pdfrwt beam="1">  1        2 0.36868934E-01 0.12586748E+04</pdfrwt>
<pdfrwt beam="2">  1       -1 0.25426101E+00 0.12586748E+04</pdfrwt>
<totfact> 0.10422712E+01</totfact>
</mgrwt>
</event>
<event>
12    7  0.1611233E-007  0.2052382E+04  0.7818608E-02  0.8582514E-01
         -1   -1    0    0    0  501 -0.00000000000E+00  0.00000000000E+00  0.42528472026E+03  0.42528472026E+03  0.00000000000E+00 0.  1.
          2   -1    0    0  501    0  0.00000000000E+00 -0.00000000000E+00 -0.24761490596E+04  0.24761490596E+04  0.00000000000E+00 0. -1.
         24    2    1    2    0    0 -0.64023509470E+03 -0.17366458234E+03 -0.16477077776E+03  0.68763808721E+03  0.75075736027E+02 0.  0.
        254    2    1    2    0    0  0.64023509470E+03  0.17366458234E+03 -0.18860935616E+04  0.22137956927E+04  0.95051674478E+03 0.  0.
         23    2    4    4    0    0 -0.43821266423E+02  0.25515982880E+03 -0.90834597906E+02  0.28867561303E+03  0.89754352293E+02 0.  0.
         23    2    4    4    0    0  0.68405636112E+03 -0.81495246463E+02 -0.17952589637E+04  0.19251200796E+04  0.92509426059E+02 0.  0.
          4    1    3    3  502    0 -0.10790390182E+03 -0.44000672181E+02 -0.38262291560E+01  0.11659310104E+03  0.00000000000E+00 0. -1.
         -3    1    3    3    0  502 -0.53233119288E+03 -0.12966391016E+03 -0.16094454861E+03  0.57104498618E+03  0.00000000000E+00 0.  1.
         13    1    5    5    0    0 -0.40137814102E+02  0.34155334441E+02 -0.12454422396E+02  0.54154811687E+02  0.00000000000E+00 0. -1.
        -13    1    5    5    0    0 -0.36834523209E+01  0.22100449436E+03 -0.78380175510E+02  0.23452080134E+03  0.00000000000E+00 0.  1.
          2    1    6    6  503    0  0.24316242290E+03 -0.33689356129E+02 -0.76630137337E+03  0.80466187399E+03  0.00000000000E+00 0.  1.
         -2    1    6    6    0  503  0.44089393822E+03 -0.47805890334E+02 -0.10289575903E+04  0.11204582056E+04  0.00000000000E+00 0. -1.
<mgrwt>
<rscale>  0 0.20523824E+04</rscale>
<asrwt>0</asrwt>
<pdfrwt beam="1">  1        2 0.38094600E+00 0.20523824E+04</pdfrwt>
<pdfrwt beam="2">  1       -1 0.65428420E-01 0.20523824E+04</pdfrwt>
<totfact> 0.89643897E+00</totfact>
</mgrwt>
</event>
<event>
12    7  0.1611233E-007  0.1367470E+04  0.7818608E-02  0.8977708E-01
         -1   -1    0    0    0  501 -0.00000000000E+00  0.00000000000E+00  0.12066107999E+03  0.12066107999E+03  0.00000000000E+00 0.  1.
          2   -1    0    0  501    0  0.00000000000E+00 -0.00000000000E+00 -0.38744363048E+04  0.38744363048E+04  0.00000000000E+00 0. -1.
         24    2    1    2    0    0  0.10552255444E+03 -0.16644514195E+03 -0.11268983530E+03  0.24036997021E+03  0.78991954189E+02 0.  0.
        254    2    1    2    0    0 -0.10552255444E+03  0.16644514195E+03 -0.36410853895E+04  0.37547274146E+04  0.89534135911E+03 0.  0.
         23    2    4    4    0    0  0.36602433429E+03 -0.66126928798E+02 -0.15890967103E+04  0.16345004166E+04  0.89535875696E+02 0.  0.
         23    2    4    4    0    0 -0.47154688873E+03  0.23257207075E+03 -0.20519886792E+04  0.21202269980E+04  0.90877649528E+02 0.  0.
          2    1    3    3  502    0 -0.11304521767E+02 -0.18417622762E+02 -0.19862869507E+01  0.21701298957E+02  0.00000000000E+00 0. -1.
         -1    1    3    3    0  502  0.11682707621E+03 -0.14802751919E+03 -0.11070354835E+03  0.21866867126E+03  0.00000000000E+00 0.  1.
         13    1    5    5    0    0  0.78264269539E+02  0.10295152794E+02 -0.22985698613E+03  0.24303398966E+03  0.00000000000E+00 0.  1.
        -13    1    5    5    0    0  0.28776006475E+03 -0.76422081592E+02 -0.13592397242E+04  0.13914664269E+04  0.00000000000E+00 0. -1.
          1    1    6    6  503    0 -0.39512129794E+03  0.16795118683E+03 -0.15502086285E+04  0.16085630958E+04  0.00000000000E+00 0. -1.
         -1    1    6    6    0  503 -0.76425590792E+02  0.64620883914E+02 -0.50178005069E+03  0.51166390222E+03  0.00000000000E+00 0.  1.
<mgrwt>
<rscale>  0 0.13674702E+04</rscale>
<asrwt>0</asrwt>
<pdfrwt beam="1">  1        2 0.59606709E+00 0.13674702E+04</pdfrwt>
<pdfrwt beam="2">  1       -1 0.18563244E-01 0.13674702E+04</pdfrwt>
<totfact> 0.11377833E+01</totfact>
</mgrwt>
</event>
<event>
12    7  0.1611233E-007  0.1518325E+04  0.7818608E-02  0.8872358E-01
          2   -1    0    0  501    0  0.00000000000E+00  0.00000000000E+00  0.17605825919E+04  0.17605825919E+04  0.00000000000E+00 0. -1.
         -1   -1    0    0    0  501 -0.00000000000E+00 -0.00000000000E+00 -0.32735053040E+03  0.32735053040E+03  0.00000000000E+00 0.  1.
         24    2    1    2    0    0  0.23856372818E+03  0.14815238161E+03  0.10007261711E+04  0.10428084625E+04  0.84467978237E+02 0.  0.
        254    2    1    2    0    0 -0.23856372818E+03 -0.14815238161E+03  0.43250589036E+03  0.10451246598E+04  0.90904478914E+03 0.  0.
         23    2    4    4    0    0  0.11777898067E+03  0.23445372864E+03  0.43288894357E+03  0.51422369952E+03  0.90513736660E+02 0.  0.
         23    2    4    4    0    0 -0.35634270885E+03 -0.38260611025E+03 -0.38305320718E+00  0.53090096024E+03  0.92130999695E+02 0.  0.
          4    1    3    3  502    0  0.14529023401E+03  0.46803768337E+02  0.45284837347E+03  0.47788230160E+03  0.00000000000E+00 0. -1.
         -3    1    3    3    0  502  0.93273494174E+02  0.10134861327E+03  0.54787779767E+03  0.56492616093E+03  0.00000000000E+00 0.  1.
         13    1    5    5    0    0  0.94114141110E+02  0.91848922531E+02  0.17976392627E+03  0.22273025236E+03  0.00000000000E+00 0. -1.
        -13    1    5    5    0    0  0.23664839557E+02  0.14260480611E+03  0.25312501730E+03  0.29149344716E+03  0.00000000000E+00 0.  1.
          1    1    6    6  503    0 -0.51056126156E+02 -0.10170826397E+03  0.19996009731E+02  0.11554713057E+03  0.00000000000E+00 0. -1.
         -1    1    6    6    0  503 -0.30528658269E+03 -0.28089784628E+03 -0.20379062938E+02  0.41535382967E+03  0.00000000000E+00 0.  1.
<mgrwt>
<rscale>  0 0.15183249E+04</rscale>
<asrwt>0</asrwt>
<pdfrwt beam="1">  1        2 0.27085885E+00 0.15183249E+04</pdfrwt>
<pdfrwt beam="2">  1       -1 0.50361621E-01 0.15183249E+04</pdfrwt>
<totfact> 0.39490615E+01</totfact>
</mgrwt>
</event>
<event>
12    7  0.1611233E-007  0.4102048E+04  0.7818608E-02  0.7984271E-01
          2   -1    0    0  501    0  0.00000000000E+00  0.00000000000E+00  0.25884651336E+04  0.25884651336E+04  0.00000000000E+00 0. -1.
         -1   -1    0    0    0  501 -0.00000000000E+00 -0.00000000000E+00 -0.16251712790E+04  0.16251712790E+04  0.00000000000E+00 0.  1.
         24    2    1    2    0    0 -0.62637902185E+03  0.54854885113E+03 -0.13748888208E+04  0.16094896228E+04  0.82952126441E+02 0.  0.
        254    2    1    2    0    0  0.62637902185E+03 -0.54854885113E+03  0.23381826754E+04  0.26041467899E+04  0.78817876039E+03 0.  0.
         23    2    4    4    0    0  0.19645037855E+03  0.40464235338E+01  0.69553391953E+02  0.22838523302E+03  0.93343535157E+02 0.  0.
         23    2    4    4    0    0  0.42992864330E+03 -0.55259527466E+03  0.22686292835E+04  0.23757615568E+04  0.85813595345E+02 0.  0.
          4    1    3    3  502    0 -0.20421138507E+03  0.16939328340E+03 -0.51354795298E+03  0.57803795227E+03  0.00000000000E+00 0. -1.
         -3    1    3    3    0  502 -0.42216763678E+03  0.37915556773E+03 -0.86134086785E+03  0.10314516706E+04  0.00000000000E+00 0.  1.
         13    1    5    5    0    0  0.65223764736E+02 -0.20516417565E+02  0.65700285647E+02  0.94823997016E+02  0.00000000000E+00 0.  1.
        -13    1    5    5    0    0  0.13122661381E+03  0.24562841099E+02  0.38531063066E+01  0.13356123601E+03  0.00000000000E+00 0. -1.
          2    1    6    6  503    0  0.22809874829E+03 -0.36036855934E+03  0.13972668559E+04  0.14609069800E+04  0.00000000000E+00 0. -1.
         -2    1    6    6    0  503  0.20182989501E+03 -0.19222671533E+03  0.87136242758E+03  0.91485457686E+03  0.00000000000E+00 0.  1.
<mgrwt>
<rscale>  0 0.41020479E+04</rscale>
<asrwt>0</asrwt>
<pdfrwt beam="1">  1        2 0.39822541E+00 0.41020479E+04</pdfrwt>
<pdfrwt beam="2">  1       -1 0.25002635E+00 0.41020479E+04</pdfrwt>
<totfact> 0.19154879E-01</totfact>
</mgrwt>
</event>
<event>
12    7  0.1611233E-007  0.2966942E+04  0.7818608E-02  0.8253234E-01
          2   -1    0    0  501    0  0.00000000000E+00  0.00000000000E+00  0.29361016081E+04  0.29361016081E+04  0.00000000000E+00 0. -1.
         -1   -1    0    0    0  501 -0.00000000000E+00 -0.00000000000E+00 -0.74952671362E+03  0.74952671362E+03  0.00000000000E+00 0.  1.
         24    2    1    2    0    0  0.12388423656E+04 -0.37109229739E+03  0.54436925265E+03  0.14053543519E+04  0.79013107655E+02 0.  0.
        254    2    1    2    0    0 -0.12388423656E+04  0.37109229739E+03  0.16422056419E+04  0.22802739699E+04  0.91124645821E+03 0.  0.
         23    2    4    4    0    0 -0.11009005903E+04  0.10019797032E+03  0.76475545019E+03  0.13471515124E+04  0.89132237270E+02 0.  0.
         23    2    4    4    0    0 -0.13794177528E+03  0.27089432707E+03  0.87745019166E+03  0.93312245750E+03  0.91580631338E+02 0.  0.
          2    1    3    3  502    0  0.41862980687E+03 -0.86735251039E+02  0.17660286438E+03  0.46256079674E+03  0.00000000000E+00 0. -1.
         -1    1    3    3    0  502  0.82021255870E+03 -0.28435704635E+03  0.36776638826E+03  0.94279355513E+03  0.00000000000E+00 0.  1.
         13    1    5    5    0    0 -0.39955332547E+02  0.17329384855E+02  0.43705936189E+02  0.61700446000E+02  0.00000000000E+00 0. -1.
        -13    1    5    5    0    0 -0.10609452577E+04  0.82868585464E+02  0.72104951400E+03  0.12854510664E+04  0.00000000000E+00 0.  1.
          4    1    6    6  503    0 -0.20011232486E+02  0.92077085633E+02  0.17521759210E+03  0.19894683638E+03  0.00000000000E+00 0. -1.
         -4    1    6    6    0  503 -0.11793054280E+03  0.17881724144E+03  0.70223259956E+03  0.73417562112E+03  0.00000000000E+00 0.  1.
<mgrwt>
<rscale>  0 0.29669423E+04</rscale>
<asrwt>0</asrwt>
<pdfrwt beam="1">  1        2 0.45170793E+00 0.29669423E+04</pdfrwt>
<pdfrwt beam="2">  1       -1 0.11531180E+00 0.29669423E+04</pdfrwt>
<totfact> 0.12686607E+00</totfact>
</mgrwt>
</event>
<event>
12    7  0.1611233E-007  0.1401608E+04  0.7818608E-02  0.8952656E-01
         -1   -1    0    0    0  501 -0.00000000000E+00  0.00000000000E+00  0.74413339942E+03  0.74413339942E+03  0.00000000000E+00 0.  1.
          2   -1    0    0  501    0  0.00000000000E+00 -0.00000000000E+00 -0.65999731540E+03  0.65999731540E+03  0.00000000000E+00 0. -1.
         24    2    1    2    0    0  0.31224907694E+02  0.21338198282E+02 -0.38011109622E+03  0.39095818174E+03  0.83267885992E+02 0.  0.
        254    2    1    2    0    0 -0.31224907694E+02 -0.21338198282E+02  0.46424718024E+03  0.10131725331E+04  0.89975709158E+03 0.  0.
         23    2    4    4    0    0 -0.97102075825E+02  0.42212226424E+03  0.24268282348E+03  0.50458829782E+03  0.89990990591E+02 0.  0.
         23    2    4    4    0    0  0.65877168131E+02 -0.44346046253E+03  0.22156435676E+03  0.50858423525E+03  0.92575250758E+02 0.  0.
          4    1    3    3  502    0  0.47173081346E+02 -0.16269829123E+02 -0.18462346043E+03  0.19124808256E+03  0.00000000000E+00 0. -1.
         -3    1    3    3    0  502 -0.15948173651E+02  0.37608027405E+02 -0.19548763579E+03  0.19971009918E+03  0.00000000000E+00 0.  1.
         13    1    5    5    0    0 -0.36714150941E+02  0.30797364277E+03  0.14342044542E+03  0.34170911267E+03  0.00000000000E+00 0.  1.
        -13    1    5    5    0    0 -0.60387924884E+02  0.11414862147E+03  0.99262378064E+02  0.16287918515E+03  0.00000000000E+00 0. -1.
          1    1    6    6  503    0  0.81191717604E+02 -0.23543839157E+03  0.11397516884E+03  0.27388623613E+03  0.00000000000E+00 0. -1.
         -1    1    6    6    0  503 -0.15314549473E+02 -0.20802207096E+03  0.10758918792E+03  0.23469799912E+03  0.00000000000E+00 0.  1.
<mgrwt>
<rscale>  0 0.14016077E+04</rscale>
<asrwt>0</asrwt>
<pdfrwt beam="1">  1        2 0.10153805E+00 0.14016077E+04</pdfrwt>
<pdfrwt beam="2">  1       -1 0.11448206E+00 0.14016077E+04</pdfrwt>
<totfact> 0.34048664E+01</totfact>
</mgrwt>
</event>
<event>
12    7  0.1611233E-007  0.4630828E+04  0.7818608E-02  0.7888125E-01
         -1   -1    0    0    0  501 -0.00000000000E+00  0.00000000000E+00  0.16694563173E+04  0.16694563173E+04  0.00000000000E+00 0.  1.
          2   -1    0    0  501    0  0.00000000000E+00 -0.00000000000E+00 -0.32113102711E+04  0.32113102711E+04  0.00000000000E+00 0. -1.
         24    2    1    2    0    0 -0.18174227607E+04 -0.56479642331E+03 -0.19598086703E+04  0.27330130117E+04  0.80558096339E+02 0.  0.
        254    2    1    2    0    0  0.18174227607E+04  0.56479642331E+03  0.41795471656E+03  0.21477535767E+04  0.90340400165E+03 0.  0.
         23    2    4    4    0    0  0.69813242181E+03 -0.89892175910E+02 -0.15558176930E+03  0.72683931221E+03  0.92845124584E+02 0.  0.
         23    2    4    4    0    0  0.11192903389E+04  0.65468859922E+03  0.57353648586E+03  0.14209142645E+04  0.92872071823E+02 0.  0.
          2    1    3    3  502    0 -0.12277680649E+04 -0.35438694365E+03 -0.12755182920E+04  0.18055335611E+04  0.00000000000E+00 0. -1.
         -1    1    3    3    0  502 -0.58965469586E+03 -0.21040947965E+03 -0.68429037829E+03  0.92747945061E+03  0.00000000000E+00 0.  1.
         13    1    5    5    0    0  0.83604680926E+02  0.61803382840E+01 -0.44820564891E+02  0.95062202221E+02  0.00000000000E+00 0. -1.
        -13    1    5    5    0    0  0.61452774089E+03 -0.96072514194E+02 -0.11076120441E+03  0.63177710999E+03  0.00000000000E+00 0.  1.
          3    1    6    6  503    0 -0.16801744295E+01  0.68445206077E+00  0.23671269966E+01  0.29824069063E+01  0.00000000000E+00 0. -1.
         -3    1    6    6    0  503  0.11209705134E+04  0.65400414716E+03  0.57116935886E+03  0.14179318576E+04  0.00000000000E+00 0.  1.
<mgrwt>
<rscale>  0 0.46308281E+04</rscale>
<asrwt>0</asrwt>
<pdfrwt beam="1">  1        2 0.49404772E+00 0.46308281E+04</pdfrwt>
<pdfrwt beam="2">  1       -1 0.25683944E+00 0.46308281E+04</pdfrwt>
<totfact> 0.68229639E-02</totfact>
</mgrwt>
</event>
<event>
12    7  0.1816239E-007  0.1573340E+04  0.7818608E-02  0.8837096E-01
         -1   -1    0    0    0  501 -0.00000000000E+00  0.00000000000E+00  0.82242338172E+03  0.82242338172E+03  0.00000000000E+00 0.  1.
          2   -1    0    0  501    0  0.00000000000E+00 -0.00000000000E+00 -0.75247098876E+03  0.75247098876E+03  0.00000000000E+00 0. -1.
         24    2    1    2    0    0 -0.29657481743E+03 -0.24594608455E+03 -0.33459645225E+03  0.51628931865E+03  0.78446005986E+02 0.  0.
        254    2    1    2    0    0  0.29657481743E+03  0.24594608455E+03  0.40454884521E+03  0.10586050518E+04  0.89918784953E+03 0.  0.
         23    2    4    4    0    0  0.12163779670E+03  0.49083101571E+03  0.51406032154E+03  0.72695526498E+03  0.92168885909E+02 0.  0.
         23    2    4    4    0    0  0.17493702073E+03 -0.24488493116E+03 -0.10951147634E+03  0.33164978684E+03  0.86181360700E+02 0.  0.
          4    1    3    3  502    0 -0.22211705299E+03 -0.20932566002E+03 -0.22677922544E+03  0.38023944333E+03  0.00000000000E+00 0. -1.
         -3    1    3    3    0  502 -0.74457764434E+02 -0.36620424535E+02 -0.10781722681E+03  0.13604987532E+03  0.00000000000E+00 0.  1.
         13    1    5    5    0    0  0.75476265515E+02  0.16574409820E+03  0.22524710355E+03  0.28966192432E+03  0.00000000000E+00 0. -1.
        -13    1    5    5    0    0  0.46161531186E+02  0.32508691751E+03  0.28881321799E+03  0.43729334066E+03  0.00000000000E+00 0.  1.
          4    1    6    6  503    0  0.33260938230E+02 -0.31867284190E+02  0.13193700005E+02  0.47915420622E+02  0.00000000000E+00 0. -1.
         -4    1    6    6    0  503  0.14167608250E+03 -0.21301764697E+03 -0.12270517634E+03  0.28373436622E+03  0.00000000000E+00 0.  1.
<mgrwt>
<rscale>  0 0.15733401E+04</rscale>
<asrwt>0</asrwt>
<pdfrwt beam="1">  1        2 0.11576477E+00 0.15733401E+04</pdfrwt>
<pdfrwt beam="2">  1       -1 0.12652667E+00 0.15733401E+04</pdfrwt>
<totfact> 0.22248127E+01</totfact>
</mgrwt>
</event>
<event>
12    7  0.1611233E-007  0.2002602E+04  0.7818608E-02  0.8605405E-01
          2   -1    0    0  501    0  0.00000000000E+00  0.00000000000E+00  0.67517385972E+03  0.67517385972E+03  0.00000000000E+00 0. -1.
         -1   -1    0    0    0  501 -0.00000000000E+00 -0.00000000000E+00 -0.14849560171E+04  0.14849560171E+04  0.00000000000E+00 0.  1.
         24    2    1    2    0    0  0.29373957656E+03  0.31612361999E+03  0.40221561540E+03  0.59543111553E+03  0.80893325542E+02 0.  0.
        254    2    1    2    0    0 -0.29373957656E+03 -0.31612361999E+03 -0.12119977728E+04  0.15646987613E+04  0.89057651576E+03 0.  0.
         23    2    4    4    0    0 -0.27017151601E+03 -0.47664480579E+03 -0.12559847534E+04  0.13734799502E+04  0.93629877019E+02 0.  0.
         23    2    4    4    0    0 -0.23568060544E+02  0.16052118579E+03  0.43986980616E+02  0.19121881111E+03  0.91144252104E+02 0.  0.
          4    1    3    3  502    0  0.24068043760E+03  0.23632257928E+03  0.26957380400E+03  0.43179331899E+03  0.00000000000E+00 0. -1.
         -3    1    3    3    0  502  0.53059138958E+02  0.79801040713E+02  0.13264181140E+03  0.16363779654E+03  0.00000000000E+00 0.  1.
         13    1    5    5    0    0 -0.19854360765E+03 -0.26010613012E+03 -0.71035871901E+03  0.78210246946E+03  0.00000000000E+00 0.  1.
        -13    1    5    5    0    0 -0.71627908362E+02 -0.21653867567E+03 -0.54562603439E+03  0.59137748073E+03  0.00000000000E+00 0. -1.
          4    1    6    6  503    0 -0.56169582494E+02  0.10275853148E+03  0.43390611103E+02  0.12488828176E+03  0.00000000000E+00 0. -1.
         -4    1    6    6    0  503  0.32601521950E+02  0.57762654315E+02  0.59636951273E+00  0.66330529348E+02  0.00000000000E+00 0.  1.
<mgrwt>
<rscale>  0 0.20026018E+04</rscale>
<asrwt>0</asrwt>
<pdfrwt beam="1">  1        2 0.10387290E+00 0.20026018E+04</pdfrwt>
<pdfrwt beam="2">  1       -1 0.22845477E+00 0.20026018E+04</pdfrwt>
<totfact> 0.43945756E+00</totfact>
</mgrwt>
</event>
<event>
12    7  0.1611233E-007  0.1633902E+04  0.7818608E-02  0.8799987E-01
         -1   -1    0    0    0  501 -0.00000000000E+00  0.00000000000E+00  0.17685656811E+04  0.17685656811E+04  0.00000000000E+00 0.  1.
          2   -1    0    0  501    0  0.00000000000E+00 -0.00000000000E+00 -0.37737285449E+03  0.37737285449E+03  0.00000000000E+00 0. -1.
         24    2    1    2    0    0 -0.53189523820E+02  0.91171872306E+02 -0.23649712574E+03  0.27094561560E+03  0.79619095616E+02 0.  0.
        254    2    1    2    0    0  0.53189523820E+02 -0.91171872306E+02  0.16276899523E+04  0.18749929200E+04  0.92470667416E+03 0.  0.
         23    2    4    4    0    0  0.18206693700E+03 -0.47304040658E+03  0.83810589478E+03  0.98384631020E+03  0.92824971985E+02 0.  0.
         23    2    4    4    0    0 -0.12887741318E+03  0.38186853427E+03  0.78958405756E+03  0.89114660977E+03  0.90919365674E+02 0.  0.
          2    1    3    3  502    0 -0.43728728684E+01  0.51203415194E+02 -0.17669186582E+03  0.18401338862E+03  0.00000000000E+00 0. -1.
         -1    1    3    3    0  502 -0.48816650951E+02  0.39968457112E+02 -0.59805259923E+02  0.86932226985E+02  0.00000000000E+00 0.  1.
         13    1    5    5    0    0  0.14143717299E+03 -0.31179651436E+03  0.48644622350E+03  0.59485415744E+03  0.00000000000E+00 0. -1.
        -13    1    5    5    0    0  0.40629764014E+02 -0.16124389222E+03  0.35165967128E+03  0.38899215276E+03  0.00000000000E+00 0.  1.
          1    1    6    6  503    0 -0.10686784647E+03  0.18623082246E+03  0.37299964289E+03  0.43038516405E+03  0.00000000000E+00 0. -1.
         -1    1    6    6    0  503 -0.22009566711E+02  0.19563771182E+03  0.41658441468E+03  0.46076144572E+03  0.00000000000E+00 0.  1.
<mgrwt>
<rscale>  0 0.16339017E+04</rscale>
<asrwt>0</asrwt>
<pdfrwt beam="1">  1        2 0.58057363E-01 0.16339017E+04</pdfrwt>
<pdfrwt beam="2">  1       -1 0.27208702E+00 0.16339017E+04</pdfrwt>
<totfact> 0.46572569E+00</totfact>
</mgrwt>
</event>
<event>
12    7  0.1611233E-007  0.1619152E+04  0.7818608E-02  0.8808868E-01
         -3   -1    0    0    0  501 -0.00000000000E+00  0.00000000000E+00  0.58463312418E+03  0.58463312418E+03  0.00000000000E+00 0.  1.
          2   -1    0    0  501    0  0.00000000000E+00 -0.00000000000E+00 -0.11210679075E+04  0.11210679075E+04  0.00000000000E+00 0. -1.
         24    2    1    2    0    0 -0.51977730144E+03  0.12403794230E+03 -0.49344953428E+02  0.54297436966E+03  0.82658257029E+02 0.  0.
        254    2    1    2    0    0  0.51977730144E+03 -0.12403794230E+03 -0.48708982986E+03  0.11627266620E+04  0.91056187813E+03 0.  0.
         23    2    4    4    0    0  0.13618231444E+03 -0.47106206598E+03 -0.37940989574E+03  0.62674111349E+03  0.91692211139E+02 0.  0.
         23    2    4    4    0    0  0.38359498700E+03  0.34702412368E+03 -0.10767993411E+03  0.53598554848E+03  0.90081538095E+02 0.  0.
          4    1    3    3  502    0 -0.23768258974E+02  0.92954810388E+01 -0.21047493083E+02  0.33080705366E+02  0.00000000000E+00 0. -1.
         -3    1    3    3    0  502 -0.49600904247E+03  0.11474246126E+03 -0.28297460345E+02  0.50989366430E+03  0.00000000000E+00 0.  1.
         13    1    5    5    0    0  0.11918909043E+02 -0.20208427180E+03 -0.14723511319E+03  0.25031638352E+03  0.00000000000E+00 0. -1.
        -13    1    5    5    0    0  0.12426340540E+03 -0.26897779418E+03 -0.23217478255E+03  0.37642472997E+03  0.00000000000E+00 0.  1.
          2    1    6    6  503    0  0.33867695040E+03  0.32257186339E+03 -0.12105286382E+03  0.48312366907E+03  0.00000000000E+00 0. -1.
         -2    1    6    6    0  503  0.44918036606E+02  0.24452260287E+02  0.13372929708E+02  0.52861879409E+02  0.00000000000E+00 0.  1.
<mgrwt>
<rscale>  0 0.16191522E+04</rscale>
<asrwt>0</asrwt>
<pdfrwt beam="1">  1        2 0.17247198E+00 0.16191522E+04</pdfrwt>
<pdfrwt beam="2">  1       -3 0.89943558E-01 0.16191522E+04</pdfrwt>
<totfact> 0.14356656E+01</totfact>
</mgrwt>
</event>
<event>
12    7  0.1611233E-007  0.1593518E+04  0.7818608E-02  0.8824540E-01
         -1   -1    0    0    0  501 -0.00000000000E+00  0.00000000000E+00  0.37023390322E+03  0.37023390322E+03  0.00000000000E+00 0.  1.
          2   -1    0    0  501    0  0.00000000000E+00 -0.00000000000E+00 -0.17146587147E+04  0.17146587147E+04  0.00000000000E+00 0. -1.
         24    2    1    2    0    0 -0.51225285611E+03 -0.15845457194E+03 -0.42582141318E+03  0.68953706912E+03  0.81404261564E+02 0.  0.
        254    2    1    2    0    0  0.51225285611E+03  0.15845457194E+03 -0.91860339827E+03  0.13953555488E+04  0.90314675675E+03 0.  0.
         23    2    4    4    0    0  0.32439056989E+03  0.48416526391E+03 -0.29279141249E+03  0.65924574330E+03  0.96087950457E+02 0.  0.
         23    2    4    4    0    0  0.18786228622E+03 -0.32571069197E+03 -0.62581198578E+03  0.73610980548E+03  0.94006971685E+02 0.  0.
          4    1    3    3  502    0 -0.93088818476E+02 -0.23638017575E+02 -0.11873691859E+03  0.15271784387E+03  0.00000000000E+00 0. -1.
         -3    1    3    3    0  502 -0.41916403764E+03 -0.13481655436E+03 -0.30708449460E+03  0.53681922525E+03  0.00000000000E+00 0.  1.
         13    1    5    5    0    0  0.20561895478E+03  0.22064692903E+03 -0.15128094254E+03  0.33741687188E+03  0.00000000000E+00 0.  1.
        -13    1    5    5    0    0  0.11877161511E+03  0.26351833488E+03 -0.14151046995E+03  0.32182887142E+03  0.00000000000E+00 0. -1.
          2    1    6    6  503    0  0.12926397278E+03 -0.16255676019E+03 -0.27312335093E+03  0.34311840488E+03  0.00000000000E+00 0. -1.
         -2    1    6    6    0  503  0.58598313445E+02 -0.16315393178E+03 -0.35268863485E+03  0.39299140060E+03  0.00000000000E+00 0.  1.
<mgrwt>
<rscale>  0 0.15935179E+04</rscale>
<asrwt>0</asrwt>
<pdfrwt beam="1">  1        2 0.26379365E+00 0.15935179E+04</pdfrwt>
<pdfrwt beam="2">  1       -1 0.56959062E-01 0.15935179E+04</pdfrwt>
<totfact> 0.32824471E+01</totfact>
</mgrwt>
</event>
<event>
12    7  0.1611233E-007  0.1812142E+04  0.7818608E-02  0.8699869E-01
          2   -1    0    0  501    0  0.00000000000E+00  0.00000000000E+00  0.18785691224E+04  0.18785691224E+04  0.00000000000E+00 0. -1.
         -1   -1    0    0    0  501 -0.00000000000E+00 -0.00000000000E+00 -0.43701605151E+03  0.43701605151E+03  0.00000000000E+00 0.  1.
         24    2    1    2    0    0 -0.59992192795E+03  0.26740978379E+03  0.33064034914E+03  0.73973658911E+03  0.80454140241E+02 0.  0.
        254    2    1    2    0    0  0.59992192795E+03 -0.26740978379E+03  0.11109127217E+04  0.15758485848E+04  0.90429938336E+03 0.  0.
         23    2    4    4    0    0  0.74676952809E+03 -0.22700577378E+03  0.11528726654E+04  0.13950648543E+04  0.88849398013E+02 0.  0.
         23    2    4    4    0    0 -0.14684760014E+03 -0.40404010008E+02 -0.41959943669E+02  0.18078373053E+03  0.87894360797E+02 0.  0.
          4    1    3    3  502    0 -0.15282369154E+03  0.57433136376E+02  0.12065169336E+03  0.20300363780E+03  0.00000000000E+00 0. -1.
         -3    1    3    3    0  502 -0.44709823641E+03  0.20997664741E+03  0.20998865578E+03  0.53673295131E+03  0.00000000000E+00 0.  1.
         13    1    5    5    0    0  0.44978213333E+03 -0.11443543560E+03  0.61579642458E+03  0.77110613596E+03  0.00000000000E+00 0. -1.
        -13    1    5    5    0    0  0.29698739477E+03 -0.11257033818E+03  0.53707624081E+03  0.62395871829E+03  0.00000000000E+00 0.  1.
          4    1    6    6  503    0 -0.77044678092E+02  0.88961718795E+01  0.13757197532E+02  0.78767282423E+02  0.00000000000E+00 0. -1.
         -4    1    6    6    0  503 -0.69802922048E+02 -0.49300181887E+02 -0.55717141201E+02  0.10201644811E+03  0.00000000000E+00 0.  1.
<mgrwt>
<rscale>  0 0.18121422E+04</rscale>
<asrwt>0</asrwt>
<pdfrwt beam="1">  1        2 0.28901063E+00 0.18121422E+04</pdfrwt>
<pdfrwt beam="2">  1       -1 0.67233240E-01 0.18121422E+04</pdfrwt>
<totfact> 0.18783789E+01</totfact>
</mgrwt>
</event>
<event>
12    7  0.1611233E-007  0.1367330E+04  0.7818608E-02  0.8977812E-01
         -1   -1    0    0    0  501 -0.00000000000E+00  0.00000000000E+00  0.72662078691E+03  0.72662078691E+03  0.00000000000E+00 0.  1.
          2   -1    0    0  501    0  0.00000000000E+00 -0.00000000000E+00 -0.64324831440E+03  0.64324831440E+03  0.00000000000E+00 0. -1.
         24    2    1    2    0    0 -0.25703332829E+03  0.25461185059E+03 -0.96306869568E+02  0.38254617875E+03  0.78569965215E+02 0.  0.
        254    2    1    2    0    0  0.25703332829E+03 -0.25461185059E+03  0.17967934208E+03  0.98732292257E+03  0.90090430188E+03 0.  0.
         23    2    4    4    0    0  0.38388722911E+02  0.29092880756E+03 -0.10902138613E+03  0.32641474342E+03  0.92453539551E+02 0.  0.
         23    2    4    4    0    0  0.21864460538E+03 -0.54554065816E+03  0.28870072821E+03  0.66090817914E+03  0.89618288474E+02 0.  0.
          2    1    3    3  502    0 -0.24351899349E+03  0.24411684179E+03 -0.10856436747E+03  0.36149793156E+03  0.00000000000E+00 0. -1.
         -1    1    3    3    0  502 -0.13514334803E+02  0.10495008804E+02  0.12257497905E+02  0.21048247192E+02  0.00000000000E+00 0.  1.
         13    1    5    5    0    0 -0.26162097756E+02  0.64240434172E+02 -0.43125283306E+02  0.81676672323E+02  0.00000000000E+00 0.  1.
        -13    1    5    5    0    0  0.64550820667E+02  0.22668837339E+03 -0.65896102820E+02  0.24473807110E+03  0.00000000000E+00 0. -1.
          1    1    6    6  503    0  0.20807595276E+03 -0.42199474768E+03  0.23042157903E+03  0.52389815162E+03  0.00000000000E+00 0. -1.
         -1    1    6    6    0  503  0.10568652616E+02 -0.12354591047E+03  0.58279149178E+02  0.13701002752E+03  0.00000000000E+00 0.  1.
<mgrwt>
<rscale>  0 0.13673297E+04</rscale>
<asrwt>0</asrwt>
<pdfrwt beam="1">  1        2 0.98961278E-01 0.13673297E+04</pdfrwt>
<pdfrwt beam="2">  1       -1 0.11178781E+00 0.13673297E+04</pdfrwt>
<totfact> 0.37306610E+01</totfact>
</mgrwt>
</event>
<event>
12    7  0.1611233E-007  0.1635049E+04  0.7818608E-02  0.8799301E-01
          2   -1    0    0  501    0  0.00000000000E+00  0.00000000000E+00  0.12137620421E+04  0.12137620421E+04  0.00000000000E+00 0. -1.
         -1   -1    0    0    0  501 -0.00000000000E+00 -0.00000000000E+00 -0.55064022797E+03  0.55064022797E+03  0.00000000000E+00 0.  1.
         24    2    1    2    0    0 -0.52445502103E+03  0.30096943579E+02  0.15400197013E+02  0.53140228145E+03  0.78691318214E+02 0.  0.
        254    2    1    2    0    0  0.52445502103E+03 -0.30096943579E+02  0.64772161713E+03  0.12329999886E+04  0.90817772686E+03 0.  0.
         23    2    4    4    0    0  0.23540534391E+03  0.37787595777E+03  0.55260241535E+03  0.71610499853E+03  0.96078218451E+02 0.  0.
         23    2    4    4    0    0  0.28904967712E+03 -0.40797290135E+03  0.95119201772E+02  0.51689499010E+03  0.90228399988E+02 0.  0.
          4    1    3    3  502    0 -0.49645247930E+03  0.21588208593E+02  0.31647113553E+02  0.49792836307E+03  0.00000000000E+00 0. -1.
         -3    1    3    3    0  502 -0.28002541727E+02  0.85087349869E+01 -0.16246916540E+02  0.33473918374E+02  0.00000000000E+00 0.  1.
         13    1    5    5    0    0  0.20151526689E+02 -0.37642099532E-01  0.18823420064E+02  0.27575470762E+02  0.00000000000E+00 0. -1.
        -13    1    5    5    0    0  0.21525381722E+03  0.37791359987E+03  0.53377899529E+03  0.68852952777E+03  0.00000000000E+00 0.  1.
          3    1    6    6  503    0  0.13747698614E+02 -0.63477044392E+02 -0.34018769004E+01  0.65037736341E+02  0.00000000000E+00 0. -1.
         -3    1    6    6    0  503  0.27530197851E+03 -0.34449585696E+03  0.98521078673E+02  0.45185725376E+03  0.00000000000E+00 0.  1.
<mgrwt>
<rscale>  0 0.16350489E+04</rscale>
<asrwt>0</asrwt>
<pdfrwt beam="1">  1        2 0.18673262E+00 0.16350489E+04</pdfrwt>
<pdfrwt beam="2">  1       -1 0.84713882E-01 0.16350489E+04</pdfrwt>
<totfact> 0.27954557E+01</totfact>
</mgrwt>
</event>
<event>
12    7  0.1611233E-007  0.1843560E+04  0.7818608E-02  0.8683472E-01
         -1   -1    0    0    0  501 -0.00000000000E+00  0.00000000000E+00  0.51002760553E+03  0.51002760553E+03  0.00000000000E+00 0.  1.
          2   -1    0    0  501    0  0.00000000000E+00 -0.00000000000E+00 -0.16659461473E+04  0.16659461473E+04  0.00000000000E+00 0. -1.
         24    2    1    2    0    0  0.39869452655E+03  0.56703227128E+03 -0.54354111762E+03  0.88463965222E+03  0.81654427714E+02 0.  0.
        254    2    1    2    0    0 -0.39869452655E+03 -0.56703227128E+03 -0.61237742418E+03  0.12913341006E+04  0.90114079237E+03 0.  0.
         23    2    4    4    0    0 -0.42076954411E+03 -0.44688937688E+03  0.39869407291E+02  0.62238071810E+03  0.94926625355E+02 0.  0.
         23    2    4    4    0    0  0.22075017557E+02 -0.12014289440E+03 -0.65224683147E+03  0.66895338255E+03  0.84564043134E+02 0.  0.
          4    1    3    3  502    0  0.30260819064E+03  0.43887317657E+03 -0.45929422420E+03  0.70365656860E+03  0.00000000000E+00 0. -1.
         -3    1    3    3    0  502  0.96086335912E+02  0.12815909471E+03 -0.84246893426E+02  0.18098308362E+03  0.00000000000E+00 0.  1.
         13    1    5    5    0    0 -0.19799714817E+02 -0.62783995803E+02  0.53285120962E+01  0.66047345723E+02  0.00000000000E+00 0.  1.
        -13    1    5    5    0    0 -0.40096982929E+03 -0.38410538108E+03  0.34540895194E+02  0.55633337237E+03  0.00000000000E+00 0. -1.
          1    1    6    6  503    0  0.41441190074E+02 -0.58656588933E+02 -0.47395297557E+03  0.47936352668E+03  0.00000000000E+00 0. -1.
         -1    1    6    6    0  503 -0.19366172517E+02 -0.61486305465E+02 -0.17829385589E+03  0.18958985587E+03  0.00000000000E+00 0.  1.
<mgrwt>
<rscale>  0 0.18435602E+04</rscale>
<asrwt>0</asrwt>
<pdfrwt beam="1">  1        2 0.25629941E+00 0.18435602E+04</pdfrwt>
<pdfrwt beam="2">  1       -1 0.78465786E-01 0.18435602E+04</pdfrwt>
<totfact> 0.17845675E+01</totfact>
</mgrwt>
</event>
<event>
12    7  0.1611233E-007  0.1231892E+04  0.7818608E-02  0.9085391E-01
         -1   -1    0    0    0  501 -0.00000000000E+00  0.00000000000E+00  0.11103616359E+04  0.11103616359E+04  0.00000000000E+00 0.  1.
          2   -1    0    0  501    0  0.00000000000E+00 -0.00000000000E+00 -0.34168095332E+03  0.34168095332E+03  0.00000000000E+00 0. -1.
         24    2    1    2    0    0  0.91543243369E+00  0.15645201019E+02  0.52124576251E+03  0.52730291356E+03  0.78138386082E+02 0.  0.
        254    2    1    2    0    0 -0.91543243369E+00 -0.15645201019E+02  0.24743492003E+03  0.92473967563E+03  0.89088372850E+03 0.  0.
         23    2    4    4    0    0  0.33458346308E+03 -0.25452856408E+02  0.41290157116E+03  0.54030075878E+03  0.94038613396E+02 0.  0.
         23    2    4    4    0    0 -0.33549889551E+03  0.98076553892E+01 -0.16546665113E+03  0.38443891685E+03  0.88081605092E+02 0.  0.
          2    1    3    3  502    0 -0.24723054136E+01 -0.22524364368E+02  0.54997872200E+02  0.59482982699E+02  0.00000000000E+00 0. -1.
         -1    1    3    3    0  502  0.33877378473E+01  0.38169565387E+02  0.46624789031E+03  0.46781993086E+03  0.00000000000E+00 0.  1.
         13    1    5    5    0    0  0.17487441231E+03 -0.37100124500E+02  0.15437212822E+03  0.23619532868E+03  0.00000000000E+00 0. -1.
        -13    1    5    5    0    0  0.15970905077E+03  0.11647268092E+02  0.25852944294E+03  0.30410543010E+03  0.00000000000E+00 0.  1.
          3    1    6    6  503    0 -0.15366441978E+03 -0.30014074391E+01 -0.28221306912E+02  0.15626325389E+03  0.00000000000E+00 0. -1.
         -3    1    6    6    0  503 -0.18183447573E+03  0.12809062828E+02 -0.13724534422E+03  0.22817566295E+03  0.00000000000E+00 0.  1.
<mgrwt>
<rscale>  0 0.12318919E+04</rscale>
<asrwt>0</asrwt>
<pdfrwt beam="1">  1        2 0.52566301E-01 0.12318919E+04</pdfrwt>
<pdfrwt beam="2">  1       -1 0.17082487E+00 0.12318919E+04</pdfrwt>
<totfact> 0.25975469E+01</totfact>
</mgrwt>
</event>
<event>
12    7  0.1611233E-007  0.1840103E+04  0.7818608E-02  0.8685259E-01
         -1   -1    0    0    0  501 -0.00000000000E+00  0.00000000000E+00  0.39818465578E+03  0.39818465578E+03  0.00000000000E+00 0.  1.
          2   -1    0    0  501    0  0.00000000000E+00 -0.00000000000E+00 -0.21258850492E+04  0.21258850492E+04  0.00000000000E+00 0. -1.
         24    2    1    2    0    0 -0.50749081232E+03  0.41793516152E+03 -0.34306507369E+03  0.74567327501E+03  0.78219335555E+02 0.  0.
        254    2    1    2    0    0  0.50749081232E+03 -0.41793516152E+03 -0.13846353197E+04  0.17783964299E+04  0.90181049541E+03 0.  0.
         23    2    4    4    0    0  0.18114103613E+03 -0.88211193315E+01 -0.11979840760E+04  0.12151367861E+04  0.92204530159E+02 0.  0.
         23    2    4    4    0    0  0.32634977619E+03 -0.40911404219E+03 -0.18665124364E+03  0.56325964382E+03  0.92435186281E+02 0.  0.
          4    1    3    3  502    0 -0.21984497057E+03  0.18112727634E+03 -0.10530124446E+03  0.30368940285E+03  0.00000000000E+00 0. -1.
         -3    1    3    3    0  502 -0.28764584175E+03  0.23680788518E+03 -0.23776382923E+03  0.44198387216E+03  0.00000000000E+00 0.  1.
         13    1    5    5    0    0  0.14557647963E+03  0.55657677575E+01 -0.11048086275E+04  0.11143722864E+04  0.00000000000E+00 0. -1.
        -13    1    5    5    0    0  0.35564556498E+02 -0.14386887089E+02 -0.93175448504E+02  0.10076449972E+03  0.00000000000E+00 0.  1.
          4    1    6    6  503    0  0.27571208200E+03 -0.33588073819E+03 -0.18974872388E+03  0.47417043419E+03  0.00000000000E+00 0. -1.
         -4    1    6    6    0  503  0.50637694196E+02 -0.73233304004E+02  0.30974802381E+01  0.89089209631E+02  0.00000000000E+00 0.  1.
<mgrwt>
<rscale>  0 0.18401030E+04</rscale>
<asrwt>0</asrwt>
<pdfrwt beam="1">  1        2 0.32705924E+00 0.18401030E+04</pdfrwt>
<pdfrwt beam="2">  1       -1 0.61259178E-01 0.18401030E+04</pdfrwt>
<totfact> 0.16460582E+01</totfact>
</mgrwt>
</event>
<event>
12    7  0.1611233E-007  0.2480505E+04  0.7818608E-02  0.8409964E-01
         -1   -1    0    0    0  501 -0.00000000000E+00  0.00000000000E+00  0.82324160544E+03  0.82324160544E+03  0.00000000000E+00 0.  1.
          2   -1    0    0  501    0  0.00000000000E+00 -0.00000000000E+00 -0.18684996794E+04  0.18684996794E+04  0.00000000000E+00 0. -1.
         24    2    1    2    0    0  0.27715351430E+03 -0.20383175879E+01 -0.15802796387E+04  0.16063516351E+04  0.79142996389E+02 0.  0.
        254    2    1    2    0    0 -0.27715351430E+03  0.20383175879E+01  0.53502156480E+03  0.10853896497E+04  0.90277593654E+03 0.  0.
         23    2    4    4    0    0 -0.13772761731E+03  0.19303223905E+03 -0.18995193922E+03  0.31710892137E+03  0.90807416633E+02 0.  0.
         23    2    4    4    0    0 -0.13942589699E+03 -0.19099392146E+03  0.72497350402E+03  0.76828072831E+03  0.93543771453E+02 0.  0.
          2    1    3    3  502    0  0.10829760330E+03 -0.85677628658E+01 -0.84204441837E+03  0.84902330943E+03  0.00000000000E+00 0. -1.
         -1    1    3    3    0  502  0.16885591100E+03  0.65294452778E+01 -0.73823522034E+03  0.75732832568E+03  0.00000000000E+00 0.  1.
         13    1    5    5    0    0 -0.19205827037E+02  0.94847342223E+02 -0.98484176170E+02  0.13807249934E+03  0.00000000000E+00 0. -1.
        -13    1    5    5    0    0 -0.11852179027E+03  0.98184896828E+02 -0.91467763049E+02  0.17903642203E+03  0.00000000000E+00 0.  1.
          3    1    6    6  503    0  0.11474043712E+02 -0.23580794385E+02  0.46939218582E+02  0.53767999628E+02  0.00000000000E+00 0. -1.
         -3    1    6    6    0  503 -0.15089994071E+03 -0.16741312708E+03  0.67803428543E+03  0.71451272868E+03  0.00000000000E+00 0.  1.
<mgrwt>
<rscale>  0 0.24805053E+04</rscale>
<asrwt>0</asrwt>
<pdfrwt beam="1">  1        2 0.28746149E+00 0.24805053E+04</pdfrwt>
<pdfrwt beam="2">  1       -1 0.12665256E+00 0.24805053E+04</pdfrwt>
<totfact> 0.43528147E+00</totfact>
</mgrwt>
</event>
<event>
12    7  0.1611233E-007  0.2716541E+04  0.7818608E-02  0.8329658E-01
          2   -1    0    0  501    0  0.00000000000E+00  0.00000000000E+00  0.27648828294E+04  0.27648828294E+04  0.00000000000E+00 0. -1.
         -1   -1    0    0    0  501 -0.00000000000E+00 -0.00000000000E+00 -0.66726091015E+03  0.66726091015E+03  0.00000000000E+00 0.  1.
         24    2    1    2    0    0  0.50353389219E+03  0.64094069504E+03  0.20652174694E+04  0.22216923535E+04  0.80264329663E+02 0.  0.
        254    2    1    2    0    0 -0.50353389219E+03 -0.64094069504E+03  0.32404449833E+02  0.12104513860E+04  0.89431043514E+03 0.  0.
         23    2    4    4    0    0 -0.65461963958E+03 -0.60785828405E+03 -0.19719658205E+03  0.91928175647E+03  0.90409566865E+02 0.  0.
         23    2    4    4    0    0  0.15108574740E+03 -0.33082410990E+02  0.22960103188E+03  0.29116962955E+03  0.90231759081E+02 0.  0.
          2    1    3    3  502    0  0.42055795654E+03  0.51574260905E+03  0.16016569735E+04  0.17344060927E+04  0.00000000000E+00 0. -1.
         -1    1    3    3    0  502  0.82975935648E+02  0.12519808599E+03  0.46356049584E+03  0.48728626077E+03  0.00000000000E+00 0.  1.
         13    1    5    5    0    0 -0.42820761392E+03 -0.45387829539E+03 -0.14264954590E+03  0.64009074403E+03  0.00000000000E+00 0.  1.
        -13    1    5    5    0    0 -0.22641202567E+03 -0.15397998866E+03 -0.54547036147E+02  0.27919101244E+03  0.00000000000E+00 0. -1.
          2    1    6    6  503    0  0.36377603058E+00  0.19438779476E+02  0.25840606353E+02  0.32337832599E+02  0.00000000000E+00 0. -1.
         -2    1    6    6    0  503  0.15072197137E+03 -0.52521190466E+02  0.20376042553E+03  0.25883179695E+03  0.00000000000E+00 0.  1.
<mgrwt>
<rscale>  0 0.27165406E+04</rscale>
<asrwt>0</asrwt>
<pdfrwt beam="1">  1        2 0.42536658E+00 0.27165406E+04</pdfrwt>
<pdfrwt beam="2">  1       -1 0.10265553E+00 0.27165406E+04</pdfrwt>
<totfact> 0.21691379E+00</totfact>
</mgrwt>
</event>
<event>
12    7  0.1611233E-007  0.1320757E+04  0.7818608E-02  0.9013265E-01
          2   -1    0    0  501    0  0.00000000000E+00  0.00000000000E+00  0.76950275462E+03  0.76950275462E+03  0.00000000000E+00 0. -1.
         -1   -1    0    0    0  501 -0.00000000000E+00 -0.00000000000E+00 -0.56672949010E+03  0.56672949010E+03  0.00000000000E+00 0.  1.
         24    2    1    2    0    0  0.15800171757E+03 -0.35689783546E+02 -0.25543460992E+03  0.31286543185E+03  0.79997719319E+02 0.  0.
        254    2    1    2    0    0 -0.15800171757E+03  0.35689783546E+02  0.45820787445E+03  0.10233668129E+04  0.90060361651E+03 0.  0.
         23    2    4    4    0    0  0.20359786875E+02 -0.33288899008E+03  0.49268039536E+03  0.60257205403E+03  0.95548457265E+02 0.  0.
         23    2    4    4    0    0 -0.17836150445E+03  0.36857877362E+03 -0.34472520911E+02  0.42079475884E+03  0.90646211920E+02 0.  0.
          2    1    3    3  502    0  0.14836876726E+03 -0.20056822564E+02 -0.17473972842E+03  0.23010767028E+03  0.00000000000E+00 0. -1.
         -1    1    3    3    0  502  0.96329503084E+01 -0.15632960982E+02 -0.80694881500E+02  0.82757761576E+02  0.00000000000E+00 0.  1.
         13    1    5    5    0    0 -0.30928149495E+02 -0.20404334614E+03  0.26346137443E+03  0.33466719791E+03  0.00000000000E+00 0. -1.
        -13    1    5    5    0    0  0.51287936370E+02 -0.12884564393E+03  0.22921902093E+03  0.26790485612E+03  0.00000000000E+00 0.  1.
          3    1    6    6  503    0 -0.98039300474E+02  0.28587190838E+03 -0.71032830614E+01  0.30229936994E+03  0.00000000000E+00 0. -1.
         -3    1    6    6    0  503 -0.80322203973E+02  0.82706865246E+02 -0.27369237850E+02  0.11849538890E+03  0.00000000000E+00 0.  1.
<mgrwt>
<rscale>  0 0.13207572E+04</rscale>
<asrwt>0</asrwt>
<pdfrwt beam="1">  1        2 0.11838504E+00 0.13207572E+04</pdfrwt>
<pdfrwt beam="2">  1       -1 0.87189152E-01 0.13207572E+04</pdfrwt>
<totfact> 0.52518979E+01</totfact>
</mgrwt>
</event>
<event>
12    7  0.1611233E-007  0.1865069E+04  0.7818608E-02  0.8672442E-01
          2   -1    0    0  501    0  0.00000000000E+00  0.00000000000E+00  0.84329754544E+03  0.84329754544E+03  0.00000000000E+00 0. -1.
         -1   -1    0    0    0  501 -0.00000000000E+00 -0.00000000000E+00 -0.10312148929E+04  0.10312148929E+04  0.00000000000E+00 0.  1.
         24    2    1    2    0    0 -0.34945409274E+02 -0.60455751887E+03 -0.45165678944E+03  0.75969010364E+03  0.80151249959E+02 0.  0.
        254    2    1    2    0    0  0.34945409274E+02  0.60455751887E+03  0.26373944196E+03  0.11148223347E+04  0.89808650447E+03 0.  0.
         23    2    4    4    0    0 -0.19084668418E+03  0.33858424320E+03  0.53269655564E+03  0.66483220490E+03  0.84702382965E+02 0.  0.
         23    2    4    4    0    0  0.22579209345E+03  0.26597327567E+03 -0.26895711369E+03  0.44999012982E+03  0.91811410511E+02 0.  0.
          4    1    3    3  502    0 -0.12676045069E+02 -0.13371832897E+03 -0.61169398350E+02  0.14759054480E+03  0.00000000000E+00 0. -1.
         -3    1    3    3    0  502 -0.22269364204E+02 -0.47083918990E+03 -0.39048739109E+03  0.61209955883E+03  0.00000000000E+00 0.  1.
         13    1    5    5    0    0 -0.17302818982E+03  0.33774717781E+03  0.50154760150E+03  0.62893712497E+03  0.00000000000E+00 0.  1.
        -13    1    5    5    0    0 -0.17818494350E+02  0.83706538866E+00  0.31148954143E+02  0.35895079935E+02  0.00000000000E+00 0. -1.
          3    1    6    6  503    0  0.39479978733E+02  0.11139684089E+03 -0.77295827393E+02  0.14121816390E+03  0.00000000000E+00 0. -1.
         -3    1    6    6    0  503  0.18631211472E+03  0.15457643478E+03 -0.19166128629E+03  0.30877196593E+03  0.00000000000E+00 0.  1.
<mgrwt>
<rscale>  0 0.18650694E+04</rscale>
<asrwt>0</asrwt>
<pdfrwt beam="1">  1        2 0.12973808E+00 0.18650694E+04</pdfrwt>
<pdfrwt beam="2">  1       -1 0.15864844E+00 0.18650694E+04</pdfrwt>
<totfact> 0.10290816E+01</totfact>
</mgrwt>
</event>
<event>
12    7  0.1611233E-007  0.1285664E+04  0.7818608E-02  0.9041012E-01
          2   -1    0    0  501    0  0.00000000000E+00  0.00000000000E+00  0.87994487063E+03  0.87994487063E+03  0.00000000000E+00 0. -1.
         -1   -1    0    0    0  501 -0.00000000000E+00 -0.00000000000E+00 -0.46961202328E+03  0.46961202328E+03  0.00000000000E+00 0.  1.
         24    2    1    2    0    0 -0.10185982366E+03  0.23901929580E+03  0.28460222937E+03  0.39328405506E+03  0.78538344566E+02 0.  0.
        254    2    1    2    0    0  0.10185982366E+03 -0.23901929580E+03  0.12573061798E+03  0.95627283884E+03  0.91167094205E+03 0.  0.
         23    2    4    4    0    0 -0.36847587497E+03 -0.25254284562E+03  0.13864492968E+03  0.47732030575E+03  0.95183498850E+02 0.  0.
         23    2    4    4    0    0  0.47033569863E+03  0.13523549822E+02 -0.12914311695E+02  0.47895253309E+03  0.88488381753E+02 0.  0.
          4    1    3    3  502    0 -0.53232039477E+02  0.17564799238E+03  0.15120643877E+03  0.23780087127E+03  0.00000000000E+00 0. -1.
         -3    1    3    3    0  502 -0.48627784184E+02  0.63371303416E+02  0.13339579060E+03  0.15548318379E+03  0.00000000000E+00 0.  1.
         13    1    5    5    0    0 -0.92299490822E+02 -0.87588811577E+02  0.80077285462E+02  0.15034416373E+03  0.00000000000E+00 0. -1.
        -13    1    5    5    0    0 -0.27617638414E+03 -0.16495403404E+03  0.58567644214E+02  0.32697614203E+03  0.00000000000E+00 0.  1.
          3    1    6    6  503    0  0.40056102003E+03  0.13418381430E+02 -0.42764615779E+02  0.40306078461E+03  0.00000000000E+00 0. -1.
         -3    1    6    6    0  503  0.69774678601E+02  0.10516839169E+00  0.29850304084E+02  0.75891748486E+02  0.00000000000E+00 0.  1.
<mgrwt>
<rscale>  0 0.12856636E+04</rscale>
<asrwt>0</asrwt>
<pdfrwt beam="1">  1        2 0.13537613E+00 0.12856636E+04</pdfrwt>
<pdfrwt beam="2">  1       -1 0.72248004E-01 0.12856636E+04</pdfrwt>
<totfact> 0.65509424E+01</totfact>
</mgrwt>
</event>
<event>
12    7  0.1611233E-007  0.1210651E+04  0.7818608E-02  0.9103584E-01
         -1   -1    0    0    0  501 -0.00000000000E+00  0.00000000000E+00  0.40420723431E+03  0.40420723431E+03  0.00000000000E+00 0.  1.
          2   -1    0    0  501    0  0.00000000000E+00 -0.00000000000E+00 -0.90651269840E+03  0.90651269840E+03  0.00000000000E+00 0. -1.
         24    2    1    2    0    0  0.16313493946E+03  0.15204910877E+03 -0.26088849895E+03  0.35274850133E+03  0.81466289701E+02 0.  0.
        254    2    1    2    0    0 -0.16313493946E+03 -0.15204910877E+03 -0.24141696514E+03  0.95797143138E+03  0.89983063536E+03 0.  0.
         23    2    4    4    0    0 -0.16987359140E+03  0.10693621664E+03  0.28817549280E+03  0.36197211693E+03  0.87671587755E+02 0.  0.
         23    2    4    4    0    0  0.67386519356E+01 -0.25898532542E+03 -0.52959245794E+03  0.59599931444E+03  0.87339584963E+02 0.  0.
          4    1    3    3  502    0  0.16361579382E+03  0.14625715867E+03 -0.21751994098E+03  0.30899224775E+03  0.00000000000E+00 0. -1.
         -3    1    3    3    0  502 -0.48085435795E+00  0.57919501068E+01 -0.43368557971E+02  0.43756253581E+02  0.00000000000E+00 0.  1.
         13    1    5    5    0    0 -0.12274241496E+01  0.67268412461E+01  0.62830998185E+02  0.63201988071E+02  0.00000000000E+00 0. -1.
        -13    1    5    5    0    0 -0.16864616725E+03  0.10020937540E+03  0.22534449462E+03  0.29877012886E+03  0.00000000000E+00 0.  1.
          3    1    6    6  503    0 -0.26149589780E+02 -0.46105700647E+02 -0.64788860738E+02  0.83708620545E+02  0.00000000000E+00 0. -1.
         -3    1    6    6    0  503  0.32888241715E+02 -0.21287962477E+03 -0.46480359720E+03  0.51229069390E+03  0.00000000000E+00 0.  1.
<mgrwt>
<rscale>  0 0.12106510E+04</rscale>
<asrwt>0</asrwt>
<pdfrwt beam="1">  1        2 0.13946349E+00 0.12106510E+04</pdfrwt>
<pdfrwt beam="2">  1       -1 0.62185728E-01 0.12106510E+04</pdfrwt>
<totfact> 0.85671184E+01</totfact>
</mgrwt>
</event>
<event>
12    7  0.1611233E-007  0.1755570E+04  0.7818608E-02  0.8730290E-01
         -1   -1    0    0    0  501 -0.00000000000E+00  0.00000000000E+00  0.15905620029E+04  0.15905620029E+04  0.00000000000E+00 0.  1.
          2   -1    0    0  501    0  0.00000000000E+00 -0.00000000000E+00 -0.48442416719E+03  0.48442416719E+03  0.00000000000E+00 0. -1.
         24    2    1    2    0    0  0.24436085814E+03  0.17665082077E+03  0.10909506319E+04  0.11345934104E+04  0.78811066749E+02 0.  0.
        254    2    1    2    0    0 -0.24436085814E+03 -0.17665082077E+03  0.15187203815E+02  0.94039275969E+03  0.89061223316E+03 0.  0.
         23    2    4    4    0    0  0.32374165109E+03  0.13332378885E+01 -0.12821701745E+02  0.33726459491E+03  0.93662034834E+02 0.  0.
         23    2    4    4    0    0 -0.56810250923E+03 -0.17798405865E+03  0.28008905560E+02  0.60312816478E+03  0.92521879708E+02 0.  0.
          2    1    3    3  502    0  0.54412631573E+01 -0.51674293775E+01  0.70332046994E+02  0.70731227230E+02  0.00000000000E+00 0. -1.
         -1    1    3    3    0  502  0.23891959498E+03  0.18181825014E+03  0.10206185849E+04  0.10638621832E+04  0.00000000000E+00 0.  1.
         13    1    5    5    0    0  0.15453342212E+02  0.21908601213E+02  0.68284066945E+01  0.27666220027E+02  0.00000000000E+00 0.  1.
        -13    1    5    5    0    0  0.30828830888E+03 -0.20575363324E+02 -0.19650108440E+02  0.30959837488E+03  0.00000000000E+00 0. -1.
          3    1    6    6  503    0 -0.45918642983E+03 -0.11354195108E+03  0.46235123715E+02  0.47527006918E+03  0.00000000000E+00 0. -1.
         -3    1    6    6    0  503 -0.10891607940E+03 -0.64442107571E+02 -0.18226218155E+02  0.12785809559E+03  0.00000000000E+00 0.  1.
<mgrwt>
<rscale>  0 0.17555702E+04</rscale>
<asrwt>0</asrwt>
<pdfrwt beam="1">  1        2 0.74526796E-01 0.17555702E+04</pdfrwt>
<pdfrwt beam="2">  1       -1 0.24470184E+00 0.17555702E+04</pdfrwt>
<totfact> 0.52242817E+00</totfact>
</mgrwt>
</event>
<event>
12    7  0.1611233E-007  0.1439137E+04  0.7818608E-02  0.8925966E-01
         -1   -1    0    0    0  501 -0.00000000000E+00  0.00000000000E+00  0.55068610851E+03  0.55068610851E+03  0.00000000000E+00 0.  1.
          2   -1    0    0  501    0  0.00000000000E+00 -0.00000000000E+00 -0.94024314100E+03  0.94024314100E+03  0.00000000000E+00 0. -1.
         24    2    1    2    0    0 -0.19871448737E+03  0.11394180953E+03  0.25458972444E+03  0.35054080241E+03  0.74784643585E+02 0.  0.
        254    2    1    2    0    0  0.19871448737E+03 -0.11394180953E+03 -0.64414675692E+03  0.11403884471E+04  0.91273795932E+03 0.  0.
         23    2    4    4    0    0  0.41457590061E+03 -0.13731179041E+03 -0.75659040097E+03  0.87815549314E+03  0.89444564647E+02 0.  0.
         23    2    4    4    0    0 -0.21586141324E+03  0.23369980879E+02  0.11244364405E+03  0.26223295396E+03  0.94764145773E+02 0.  0.
          2    1    3    3  502    0 -0.34909748357E+02 -0.86599447523E+01  0.45469380004E+02  0.57975423167E+02  0.00000000000E+00 0. -1.
         -1    1    3    3    0  502 -0.16380473901E+03  0.12260175428E+03  0.20912034443E+03  0.29256537924E+03  0.00000000000E+00 0.  1.
         13    1    5    5    0    0  0.15381819010E+03 -0.76681317164E+02 -0.22680922507E+03  0.28457421630E+03  0.00000000000E+00 0.  1.
        -13    1    5    5    0    0  0.26075771051E+03 -0.60630473243E+02 -0.52978117590E+03  0.59358127684E+03  0.00000000000E+00 0. -1.
          2    1    6    6  503    0 -0.21543925633E+03  0.37374232880E+02  0.11635299510E+03  0.24768715332E+03  0.00000000000E+00 0. -1.
         -2    1    6    6    0  503 -0.42215690796E+00 -0.14004252002E+02 -0.39093510508E+01  0.14545800639E+02  0.00000000000E+00 0.  1.
<mgrwt>
<rscale>  0 0.14391370E+04</rscale>
<asrwt>0</asrwt>
<pdfrwt beam="1">  1        2 0.14465279E+00 0.14391370E+04</pdfrwt>
<pdfrwt beam="2">  1       -1 0.84720940E-01 0.14391370E+04</pdfrwt>
<totfact> 0.42095338E+01</totfact>
</mgrwt>
</event>
<event>
12    7  0.1611233E-007  0.1616019E+04  0.7818608E-02  0.8810767E-01
         -1   -1    0    0    0  501 -0.00000000000E+00  0.00000000000E+00  0.13122344232E+04  0.13122344232E+04  0.00000000000E+00 0.  1.
          2   -1    0    0  501    0  0.00000000000E+00 -0.00000000000E+00 -0.49753259028E+03  0.49753259028E+03  0.00000000000E+00 0. -1.
         24    2    1    2    0    0  0.11463330280E+03 -0.51362511297E+03  0.48721760615E+03  0.72167129521E+03  0.80479263209E+02 0.  0.
        254    2    1    2    0    0 -0.11463330280E+03  0.51362511297E+03  0.32748422679E+03  0.10880957183E+04  0.89429012215E+03 0.  0.
         23    2    4    4    0    0  0.24579032301E+03 -0.97868205395E+02 -0.42178171869E+02  0.28282789691E+03  0.90672777456E+02 0.  0.
         23    2    4    4    0    0 -0.36042362581E+03  0.61149331836E+03  0.36966239866E+03  0.80526782138E+03  0.89312410808E+02 0.  0.
          2    1    3    3  502    0  0.77158507197E+02 -0.36900436231E+03  0.29774887960E+03  0.48038739570E+03  0.00000000000E+00 0. -1.
         -1    1    3    3    0  502  0.37474795601E+02 -0.14462075065E+03  0.18946872655E+03  0.24128389951E+03  0.00000000000E+00 0.  1.
         13    1    5    5    0    0  0.35006732097E+02 -0.52886852022E+02 -0.11833677031E+01  0.63434145127E+02  0.00000000000E+00 0.  1.
        -13    1    5    5    0    0  0.21078359092E+03 -0.44981353374E+02 -0.40994804166E+02  0.21939375178E+03  0.00000000000E+00 0. -1.
          4    1    6    6  503    0 -0.31255055919E+02  0.94215948610E+02  0.78306280812E+02  0.12643337023E+03  0.00000000000E+00 0. -1.
         -4    1    6    6    0  503 -0.32916856989E+03  0.51727736975E+03  0.29135611784E+03  0.67883445115E+03  0.00000000000E+00 0.  1.
<mgrwt>
<rscale>  0 0.16160190E+04</rscale>
<asrwt>0</asrwt>
<pdfrwt beam="1">  1        2 0.76543476E-01 0.16160190E+04</pdfrwt>
<pdfrwt beam="2">  1       -1 0.20188222E+00 0.16160190E+04</pdfrwt>
<totfact> 0.99033654E+00</totfact>
</mgrwt>
</event>
<event>
12    7  0.1611233E-007  0.1614531E+04  0.7818608E-02  0.8811671E-01
          2   -1    0    0  501    0  0.00000000000E+00  0.00000000000E+00  0.11549341765E+04  0.11549341765E+04  0.00000000000E+00 0. -1.
         -1   -1    0    0    0  501 -0.00000000000E+00 -0.00000000000E+00 -0.56425512560E+03  0.56425512560E+03  0.00000000000E+00 0.  1.
         24    2    1    2    0    0 -0.42385057610E+03 -0.16148062382E+03 -0.13964558127E+03  0.48141689076E+03  0.80845727227E+02 0.  0.
        254    2    1    2    0    0  0.42385057610E+03  0.16148062382E+03  0.73032463216E+03  0.12377724113E+04  0.89049490238E+03 0.  0.
         23    2    4    4    0    0  0.68598301586E+03  0.18048125186E+03  0.58876864606E+03  0.92610115662E+03  0.88705430496E+02 0.  0.
         23    2    4    4    0    0 -0.26213243975E+03 -0.19000628039E+02  0.14155598610E+03  0.31167125470E+03  0.89590367624E+02 0.  0.
          4    1    3    3  502    0 -0.18745541050E+03 -0.10570117657E+03 -0.40021491374E+02  0.21889264361E+03  0.00000000000E+00 0. -1.
         -3    1    3    3    0  502 -0.23639516560E+03 -0.55779447252E+02 -0.99624089898E+02  0.26252424716E+03  0.00000000000E+00 0.  1.
         13    1    5    5    0    0  0.44372618966E+03  0.16011006759E+03  0.38595719313E+03  0.60950071375E+03  0.00000000000E+00 0. -1.
        -13    1    5    5    0    0  0.24225682620E+03  0.20371184269E+02  0.20281145293E+03  0.31660044287E+03  0.00000000000E+00 0.  1.
          3    1    6    6  503    0 -0.10367955974E+02 -0.14818772152E+02  0.32660769526E+02  0.37333850393E+02  0.00000000000E+00 0. -1.
         -3    1    6    6    0  503 -0.25176448378E+03 -0.41818558870E+01  0.10889521657E+03  0.27433740431E+03  0.00000000000E+00 0.  1.
<mgrwt>
<rscale>  0 0.16145309E+04</rscale>
<asrwt>0</asrwt>
<pdfrwt beam="1">  1        2 0.17768218E+00 0.16145309E+04</pdfrwt>
<pdfrwt beam="2">  1       -1 0.86808481E-01 0.16145309E+04</pdfrwt>
<totfact> 0.28806717E+01</totfact>
</mgrwt>
</event>
<event>
12    7  0.1611233E-007  0.1624514E+04  0.7818608E-02  0.8805628E-01
          2   -1    0    0  501    0  0.00000000000E+00  0.00000000000E+00  0.15212294043E+04  0.15212294043E+04  0.00000000000E+00 0. -1.
         -1   -1    0    0    0  501 -0.00000000000E+00 -0.00000000000E+00 -0.43370294312E+03  0.43370294312E+03  0.00000000000E+00 0.  1.
         24    2    1    2    0    0  0.19161568757E+01 -0.48195004978E+03  0.72863629420E+03  0.87733272116E+03  0.80760957420E+02 0.  0.
        254    2    1    2    0    0 -0.19161568757E+01  0.48195004978E+03  0.35889016703E+03  0.10775996263E+04  0.89450504777E+03 0.  0.
         23    2    4    4    0    0  0.14247824783E+03  0.37611269411E+03 -0.21788935842E+03  0.46691596794E+03  0.93669305668E+02 0.  0.
         23    2    4    4    0    0 -0.14439440470E+03  0.10583735567E+03  0.57677952545E+03  0.61068365836E+03  0.90601432933E+02 0.  0.
          4    1    3    3  502    0 -0.29516185073E+02 -0.23516208762E+03  0.40317206566E+03  0.46767523685E+03  0.00000000000E+00 0. -1.
         -3    1    3    3    0  502  0.31432341949E+02 -0.24678796216E+03  0.32546422854E+03  0.40965748430E+03  0.00000000000E+00 0.  1.
         13    1    5    5    0    0  0.85932707046E+02  0.17980121686E+03 -0.58168381857E+02  0.20759688912E+03  0.00000000000E+00 0.  1.
        -13    1    5    5    0    0  0.56545540782E+02  0.19631147726E+03 -0.15972097657E+03  0.25931907882E+03  0.00000000000E+00 0. -1.
          3    1    6    6  503    0 -0.58560940394E+02  0.35522366052E+02  0.36730984220E+03  0.37364119474E+03  0.00000000000E+00 0. -1.
         -3    1    6    6    0  503 -0.85833464310E+02  0.70314989614E+02  0.20946968325E+03  0.23704246363E+03  0.00000000000E+00 0.  1.
<mgrwt>
<rscale>  0 0.16245143E+04</rscale>
<asrwt>0</asrwt>
<pdfrwt beam="1">  1        2 0.23403529E+00 0.16245143E+04</pdfrwt>
<pdfrwt beam="2">  1       -1 0.66723531E-01 0.16245143E+04</pdfrwt>
<totfact> 0.30647392E+01</totfact>
</mgrwt>
</event>
<event>
12    7  0.1611233E-007  0.2501597E+04  0.7818608E-02  0.8402417E-01
         -1   -1    0    0    0  501 -0.00000000000E+00  0.00000000000E+00  0.65408030074E+03  0.65408030074E+03  0.00000000000E+00 0.  1.
          2   -1    0    0  501    0  0.00000000000E+00 -0.00000000000E+00 -0.23919038362E+04  0.23919038362E+04  0.00000000000E+00 0. -1.
         24    2    1    2    0    0  0.80648996071E+03 -0.29833839525E+03  0.55914172650E+02  0.86535957273E+03  0.79302841083E+02 0.  0.
        254    2    1    2    0    0 -0.80648996071E+03  0.29833839525E+03 -0.17937377081E+04  0.21806245642E+04  0.89341852996E+03 0.  0.
         23    2    4    4    0    0 -0.23563451151E+02 -0.76050140873E+02  0.58179259721E+02  0.13333388739E+03  0.89745412745E+02 0.  0.
         23    2    4    4    0    0 -0.78292650956E+03  0.37438853612E+03 -0.18519169678E+04  0.20472906768E+04  0.93069674068E+02 0.  0.
          2    1    3    3  502    0  0.45600248828E+03 -0.19215340947E+03  0.64623885980E+02  0.49903652043E+03  0.00000000000E+00 0. -1.
         -1    1    3    3    0  502  0.35048747244E+03 -0.10618498578E+03 -0.87097133294E+01  0.36632305230E+03  0.00000000000E+00 0.  1.
         13    1    5    5    0    0 -0.44326473246E+01 -0.17594164307E+01 -0.21914856882E+02  0.22427769854E+02  0.00000000000E+00 0. -1.
        -13    1    5    5    0    0 -0.19130803826E+02 -0.74290724442E+02  0.80094116603E+02  0.11090611754E+03  0.00000000000E+00 0.  1.
          3    1    6    6  503    0 -0.28698873697E+03  0.13976866679E+03 -0.57877385338E+03  0.66096670772E+03  0.00000000000E+00 0. -1.
         -3    1    6    6    0  503 -0.49593777260E+03  0.23461986933E+03 -0.12731431144E+04  0.13863239691E+04  0.00000000000E+00 0.  1.
<mgrwt>
<rscale>  0 0.25015972E+04</rscale>
<asrwt>0</asrwt>
<pdfrwt beam="1">  1        2 0.36798521E+00 0.25015972E+04</pdfrwt>
<pdfrwt beam="2">  1       -1 0.10062774E+00 0.25015972E+04</pdfrwt>
<totfact> 0.38285691E+00</totfact>
</mgrwt>
</event>
<event>
12    7  0.1611233E-007  0.2702387E+04  0.7818608E-02  0.8334231E-01
          2   -1    0    0  501    0  0.00000000000E+00  0.00000000000E+00  0.25668544317E+04  0.25668544317E+04  0.00000000000E+00 0. -1.
         -1   -1    0    0    0  501 -0.00000000000E+00 -0.00000000000E+00 -0.71126894754E+03  0.71126894754E+03  0.00000000000E+00 0.  1.
         24    2    1    2    0    0  0.52519439578E+02 -0.16912888106E+03  0.21531950487E+04  0.21619409862E+04  0.79856373480E+02 0.  0.
        254    2    1    2    0    0 -0.52519439578E+02  0.16912888106E+03 -0.29760956454E+03  0.11161823930E+04  0.10610979274E+04 0.  0.
         23    2    4    4    0    0  0.41139443680E+03  0.34014663749E+03 -0.16313290988E+02  0.53985775605E+03  0.78963001948E+02 0.  0.
         23    2    4    4    0    0 -0.46391387638E+03 -0.17101775643E+03 -0.28129627355E+03  0.57632463692E+03  0.92516679025E+02 0.  0.
          2    1    3    3  502    0  0.59823016279E+02 -0.15188399395E+03  0.20797232282E+04  0.20861199023E+04  0.00000000000E+00 0. -1.
         -1    1    3    3    0  502 -0.73035767010E+01 -0.17244887108E+02  0.73471820495E+02  0.75821083947E+02  0.00000000000E+00 0.  1.
         13    1    5    5    0    0 -0.13770476392E+01  0.19998333888E+00 -0.47987834377E+01  0.49964563461E+01  0.00000000000E+00 0.  1.
        -13    1    5    5    0    0  0.41277148444E+03  0.33994665415E+03 -0.11514507550E+02  0.53486129970E+03  0.00000000000E+00 0. -1.
          3    1    6    6  503    0 -0.40271404708E+03 -0.17411349204E+03 -0.22481302067E+03  0.49298580719E+03  0.00000000000E+00 0. -1.
         -3    1    6    6    0  503 -0.61199829296E+02  0.30957356102E+01 -0.56483252884E+02  0.83338829733E+02  0.00000000000E+00 0.  1.
<mgrwt>
<rscale>  0 0.27023870E+04</rscale>
<asrwt>0</asrwt>
<pdfrwt beam="1">  1        2 0.39490068E+00 0.27023870E+04</pdfrwt>
<pdfrwt beam="2">  1       -1 0.10942599E+00 0.27023870E+04</pdfrwt>
<totfact> 0.24516357E+00</totfact>
</mgrwt>
</event>
<event>
12    7  0.1611233E-007  0.1411541E+04  0.7818608E-02  0.8945507E-01
          2   -1    0    0  501    0  0.00000000000E+00  0.00000000000E+00  0.15396083113E+04  0.15396083113E+04  0.00000000000E+00 0. -1.
         -1   -1    0    0    0  501 -0.00000000000E+00 -0.00000000000E+00 -0.32353157050E+03  0.32353157050E+03  0.00000000000E+00 0.  1.
         24    2    1    2    0    0 -0.56094931755E+02  0.39271768335E+03  0.49563287398E+03  0.63988238593E+03  0.80147999797E+02 0.  0.
        254    2    1    2    0    0  0.56094931755E+02 -0.39271768335E+03  0.72044386684E+03  0.12232574959E+04  0.90550853990E+03 0.  0.
         23    2    4    4    0    0 -0.34364768777E+03 -0.12841693465E+03  0.61855005670E+03  0.72509694528E+03  0.92610825490E+02 0.  0.
         23    2    4    4    0    0  0.39974261953E+03 -0.26430074869E+03  0.10189381014E+03  0.49816055062E+03  0.90180585618E+02 0.  0.
          2    1    3    3  502    0 -0.58961450576E+02  0.35707102912E+03  0.47924902699E+03  0.60054625331E+03  0.00000000000E+00 0. -1.
         -1    1    3    3    0  502  0.28665188215E+01  0.35646654223E+02  0.16383846995E+02  0.39336132624E+02  0.00000000000E+00 0.  1.
         13    1    5    5    0    0 -0.14636706021E+03 -0.96924878831E+01  0.21052741119E+03  0.25659121478E+03  0.00000000000E+00 0.  1.
        -13    1    5    5    0    0 -0.19728062756E+03 -0.11872444677E+03  0.40802264550E+03  0.46850573050E+03  0.00000000000E+00 0. -1.
          1    1    6    6  503    0  0.11047995629E+03 -0.40485817242E+02 -0.29102454000E+01  0.11770043189E+03  0.00000000000E+00 0. -1.
         -1    1    6    6    0  503  0.28926266324E+03 -0.22381493145E+03  0.10480405554E+03  0.38046011873E+03  0.00000000000E+00 0.  1.
<mgrwt>
<rscale>  0 0.14115409E+04</rscale>
<asrwt>0</asrwt>
<pdfrwt beam="1">  1        2 0.23686281E+00 0.14115409E+04</pdfrwt>
<pdfrwt beam="2">  1       -1 0.49774089E-01 0.14115409E+04</pdfrwt>
<totfact> 0.54086582E+01</totfact>
</mgrwt>
</event>
<event>
12    7  0.1611233E-007  0.2682367E+04  0.7818608E-02  0.8340749E-01
         -1   -1    0    0    0  501 -0.00000000000E+00  0.00000000000E+00  0.66727842735E+03  0.66727842735E+03  0.00000000000E+00 0.  1.
          2   -1    0    0  501    0  0.00000000000E+00 -0.00000000000E+00 -0.26956860062E+04  0.26956860062E+04  0.00000000000E+00 0. -1.
         24    2    1    2    0    0 -0.28313815356E+03  0.69717017757E+03  0.25374342379E+03  0.79786601525E+03  0.77401438447E+02 0.  0.
        254    2    1    2    0    0  0.28313815356E+03 -0.69717017757E+03 -0.22821510026E+04  0.25650984183E+04  0.89738688769E+03 0.  0.
         23    2    4    4    0    0  0.22330858999E+01 -0.79670688623E+03 -0.12300855381E+04  0.14677860462E+04  0.80861592586E+02 0.  0.
         23    2    4    4    0    0  0.28090506766E+03  0.99536708651E+02 -0.10520654645E+04  0.10973123721E+04  0.91855793883E+02 0.  0.
          4    1    3    3  502    0 -0.64520931384E+02  0.10128205693E+03  0.59920755800E+02  0.13420693953E+03  0.00000000000E+00 0. -1.
         -3    1    3    3    0  502 -0.21861722218E+03  0.59588812065E+03  0.19382266799E+03  0.66365907572E+03  0.00000000000E+00 0.  1.
         13    1    5    5    0    0  0.15779603344E+02 -0.73097900744E+03 -0.10907540605E+04  0.13131350752E+04  0.00000000000E+00 0. -1.
        -13    1    5    5    0    0 -0.13546517445E+02 -0.65727878788E+02 -0.13933147763E+03  0.15465097104E+03  0.00000000000E+00 0.  1.
          4    1    6    6  503    0  0.20153575043E+03  0.44587056335E+02 -0.82793576672E+03  0.85327738638E+03  0.00000000000E+00 0. -1.
         -4    1    6    6    0  503  0.79369317239E+02  0.54949652317E+02 -0.22412969780E+03  0.24403498569E+03  0.00000000000E+00 0.  1.
<mgrwt>
<rscale>  0 0.26823670E+04</rscale>
<asrwt>0</asrwt>
<pdfrwt beam="1">  1        2 0.41472092E+00 0.26823670E+04</pdfrwt>
<pdfrwt beam="2">  1       -1 0.10265822E+00 0.26823670E+04</pdfrwt>
<totfact> 0.23931365E+00</totfact>
</mgrwt>
</event>
<event>
12    7  0.1611233E-007  0.1432070E+04  0.7818608E-02  0.8930926E-01
         -1   -1    0    0    0  501 -0.00000000000E+00  0.00000000000E+00  0.47445612076E+03  0.47445612076E+03  0.00000000000E+00 0.  1.
          2   -1    0    0  501    0  0.00000000000E+00 -0.00000000000E+00 -0.10806183529E+04  0.10806183529E+04  0.00000000000E+00 0. -1.
         24    2    1    2    0    0  0.13904225119E+03 -0.54918034071E+02 -0.60008602091E+03  0.62356511490E+03  0.79884178320E+02 0.  0.
        254    2    1    2    0    0 -0.13904225119E+03  0.54918034071E+02 -0.60762112219E+01  0.93150935875E+03  0.91941504611E+03 0.  0.
         23    2    4    4    0    0 -0.40227191562E+03  0.32203402638E+03  0.95399939959E+02  0.53216303673E+03  0.92562091960E+02 0.  0.
         23    2    4    4    0    0  0.26322966443E+03 -0.26711599231E+03 -0.10147615118E+03  0.39934632202E+03  0.92408149364E+02 0.  0.
          4    1    3    3  502    0  0.93651352055E+02 -0.32655181885E+02 -0.51604231539E+03  0.52548701974E+03  0.00000000000E+00 0. -1.
         -3    1    3    3    0  502  0.45390899139E+02 -0.22262852187E+02 -0.84043705521E+02  0.98078095159E+02  0.00000000000E+00 0.  1.
         13    1    5    5    0    0  0.12213718016E+01 -0.15035775971E+01 -0.49624839606E+01  0.53271701425E+01  0.00000000000E+00 0. -1.
        -13    1    5    5    0    0 -0.40349328743E+03  0.32353760398E+03  0.10036242392E+03  0.52683586659E+03  0.00000000000E+00 0.  1.
          2    1    6    6  503    0  0.10658463266E+03 -0.55915193217E+02 -0.54946474839E+02  0.13230989324E+03  0.00000000000E+00 0. -1.
         -2    1    6    6    0  503  0.15664503177E+03 -0.21120079910E+03 -0.46529676342E+02  0.26703642878E+03  0.00000000000E+00 0.  1.
<mgrwt>
<rscale>  0 0.14320698E+04</rscale>
<asrwt>0</asrwt>
<pdfrwt beam="1">  1        2 0.16624898E+00 0.14320698E+04</pdfrwt>
<pdfrwt beam="2">  1       -1 0.72993249E-01 0.14320698E+04</pdfrwt>
<totfact> 0.46943842E+01</totfact>
</mgrwt>
</event>
<event>
12    7  0.1611233E-007  0.1772383E+04  0.7818608E-02  0.8721125E-01
         -1   -1    0    0    0  501 -0.00000000000E+00  0.00000000000E+00  0.75924555180E+03  0.75924555180E+03  0.00000000000E+00 0.  1.
          2   -1    0    0  501    0  0.00000000000E+00 -0.00000000000E+00 -0.10343631782E+04  0.10343631782E+04  0.00000000000E+00 0. -1.
         24    2    1    2    0    0 -0.20128708719E+03  0.25364523146E+02  0.52575483881E+03  0.56891375207E+03  0.78005488654E+02 0.  0.
        254    2    1    2    0    0  0.20128708719E+03 -0.25364523146E+02 -0.80087246525E+03  0.12246949780E+04  0.90405820220E+03 0.  0.
         23    2    4    4    0    0  0.12330149739E+03  0.24605359386E+03 -0.87358317862E+03  0.92057475680E+03  0.92545570316E+02 0.  0.
         23    2    4    4    0    0  0.77985589802E+02 -0.27141811701E+03  0.72710713367E+02  0.30412022117E+03  0.86329106494E+02 0.  0.
          2    1    3    3  502    0 -0.10986560182E+02 -0.18134434993E+02  0.69242246755E+02  0.72415819908E+02  0.00000000000E+00 0. -1.
         -1    1    3    3    0  502 -0.19030052701E+03  0.43498958139E+02  0.45651259206E+03  0.49649793217E+03  0.00000000000E+00 0.  1.
         13    1    5    5    0    0  0.59055483665E+02  0.13785086719E+03 -0.32786194872E+03  0.36053275739E+03  0.00000000000E+00 0. -1.
        -13    1    5    5    0    0  0.64246013724E+02  0.10820272667E+03 -0.54572122990E+03  0.56004199941E+03  0.00000000000E+00 0.  1.
          3    1    6    6  503    0  0.28794800111E+01  0.58036807947E+01 -0.29310405670E+01  0.71109151807E+01  0.00000000000E+00 0. -1.
         -3    1    6    6    0  503  0.75106109791E+02 -0.27722179780E+03  0.75641753934E+02  0.29700930599E+03  0.00000000000E+00 0.  1.
<mgrwt>
<rscale>  0 0.17723833E+04</rscale>
<asrwt>0</asrwt>
<pdfrwt beam="1">  1        2 0.15913280E+00 0.17723833E+04</pdfrwt>
<pdfrwt beam="2">  1       -1 0.11680701E+00 0.17723833E+04</pdfrwt>
<totfact> 0.17089770E+01</totfact>
</mgrwt>
</event>
<event>
12    7  0.1611233E-007  0.1939918E+04  0.7818608E-02  0.8635238E-01
         -1   -1    0    0    0  501 -0.00000000000E+00  0.00000000000E+00  0.12659379781E+04  0.12659379781E+04  0.00000000000E+00 0.  1.
          2   -1    0    0  501    0  0.00000000000E+00 -0.00000000000E+00 -0.74318041307E+03  0.74318041307E+03  0.00000000000E+00 0. -1.
         24    2    1    2    0    0 -0.89759134164E+02  0.75391848581E+03  0.21855700987E+03  0.79381903565E+03  0.77017591424E+02 0.  0.
        254    2    1    2    0    0  0.89759134164E+02 -0.75391848581E+03  0.30420055519E+03  0.12152993555E+04  0.89886860019E+03 0.  0.
         23    2    4    4    0    0  0.22192080629E+03 -0.65926115319E+03 -0.15803124570E+03  0.71873294172E+03  0.87915041553E+02 0.  0.
         23    2    4    4    0    0 -0.13216167213E+03 -0.94657332620E+02  0.46223180089E+03  0.49656641382E+03  0.80580688685E+02 0.  0.
          4    1    3    3  502    0 -0.60794880094E+02  0.49625567557E+03  0.18153875993E+03  0.53190415898E+03  0.00000000000E+00 0. -1.
         -3    1    3    3    0  502 -0.28964254070E+02  0.25766281024E+03  0.37018249938E+02  0.26191487667E+03  0.00000000000E+00 0.  1.
         13    1    5    5    0    0  0.13789098626E+03 -0.51830439690E+03 -0.10724082593E+03  0.54694969301E+03  0.00000000000E+00 0.  1.
        -13    1    5    5    0    0  0.84029820034E+02 -0.14095675629E+03 -0.50790419764E+02  0.17178324871E+03  0.00000000000E+00 0. -1.
          2    1    6    6  503    0 -0.45427200533E+02 -0.40919222302E+02  0.78493360550E+02  0.99494828773E+02  0.00000000000E+00 0. -1.
         -2    1    6    6    0  503 -0.86734471594E+02 -0.53738110319E+02  0.38373844034E+03  0.39707158505E+03  0.00000000000E+00 0.  1.
<mgrwt>
<rscale>  0 0.19399178E+04</rscale>
<asrwt>0</asrwt>
<pdfrwt beam="1">  1        2 0.11433545E+00 0.19399178E+04</pdfrwt>
<pdfrwt beam="2">  1       -1 0.19475969E+00 0.19399178E+04</pdfrwt>
<totfact> 0.66170924E+00</totfact>
</mgrwt>
</event>
<event>
12    7  0.1611233E-007  0.1844552E+04  0.7818608E-02  0.8682959E-01
         -1   -1    0    0    0  501 -0.00000000000E+00  0.00000000000E+00  0.39337251789E+03  0.39337251789E+03  0.00000000000E+00 0.  1.
          2   -1    0    0  501    0  0.00000000000E+00 -0.00000000000E+00 -0.21623098392E+04  0.21623098392E+04  0.00000000000E+00 0. -1.
         24    2    1    2    0    0  0.20513020418E+03  0.63424618744E+03 -0.38849661287E+03  0.77574063607E+03  0.80605764650E+02 0.  0.
        254    2    1    2    0    0 -0.20513020418E+03 -0.63424618744E+03 -0.13804407084E+04  0.17799417210E+04  0.90456030961E+03 0.  0.
         23    2    4    4    0    0  0.47957616890E+02 -0.76945541054E+03 -0.11988756790E+04  0.14283431935E+04  0.92194483885E+02 0.  0.
         23    2    4    4    0    0 -0.25308782107E+03  0.13520922310E+03 -0.18156502940E+03  0.35159852748E+03  0.91217791267E+02 0.  0.
          4    1    3    3  502    0  0.68752285134E+02  0.18888897242E+03 -0.16013792665E+03  0.25700209370E+03  0.00000000000E+00 0. -1.
         -3    1    3    3    0  502  0.13637791905E+03  0.44535721502E+03 -0.22835868621E+03  0.51873854237E+03  0.00000000000E+00 0.  1.
         13    1    5    5    0    0  0.47896755276E+01 -0.75222223972E+01 -0.24555911898E+01  0.92495810470E+01  0.00000000000E+00 0.  1.
        -13    1    5    5    0    0  0.43167941362E+02 -0.76193318814E+03 -0.11964200878E+04  0.14190936125E+04  0.00000000000E+00 0. -1.
          2    1    6    6  503    0 -0.11215457682E+03  0.10302193812E+02 -0.62685773295E+02  0.12889643313E+03  0.00000000000E+00 0.  1.
         -2    1    6    6    0  503 -0.14093324425E+03  0.12490702929E+03 -0.11887925610E+03  0.22270209436E+03  0.00000000000E+00 0. -1.
<mgrwt>
<rscale>  0 0.18445523E+04</rscale>
<asrwt>0</asrwt>
<pdfrwt beam="1">  1        2 0.33266305E+00 0.18445523E+04</pdfrwt>
<pdfrwt beam="2">  1       -1 0.60518850E-01 0.18445523E+04</pdfrwt>
<totfact> 0.16083483E+01</totfact>
</mgrwt>
</event>
<event>
12    7  0.1611233E-007  0.1646860E+04  0.7818608E-02  0.8792266E-01
         -1   -1    0    0    0  501 -0.00000000000E+00  0.00000000000E+00  0.67569148699E+03  0.67569148699E+03  0.00000000000E+00 0.  1.
          2   -1    0    0  501    0  0.00000000000E+00 -0.00000000000E+00 -0.10034709941E+04  0.10034709941E+04  0.00000000000E+00 0. -1.
         24    2    1    2    0    0  0.44893629430E+03 -0.17804460254E+03 -0.42166000864E+03  0.64609556563E+03  0.79991500861E+02 0.  0.
        254    2    1    2    0    0 -0.44893629430E+03  0.17804460254E+03  0.93880501558E+02  0.10330669154E+04  0.90838869783E+03 0.  0.
         23    2    4    4    0    0  0.16287508538E+03 -0.11932747694E+03 -0.18922100166E+03  0.29053441626E+03  0.88534283587E+02 0.  0.
         23    2    4    4    0    0 -0.61181137968E+03  0.29737207948E+03  0.28310150322E+03  0.74253249918E+03  0.92003984983E+02 0.  0.
          2    1    3    3  502    0  0.29605617719E+03 -0.10806884509E+03 -0.32236948309E+03  0.45083280599E+03  0.00000000000E+00 0. -1.
         -1    1    3    3    0  502  0.15288011712E+03 -0.69975757449E+02 -0.99290525555E+02  0.19526275965E+03  0.00000000000E+00 0.  1.
         13    1    5    5    0    0 -0.96172474270E+01 -0.17904880618E+02 -0.15829775165E+02  0.25761560120E+02  0.00000000000E+00 0.  1.
        -13    1    5    5    0    0  0.17249233280E+03 -0.10142259632E+03 -0.17339122650E+03  0.26477285614E+03  0.00000000000E+00 0. -1.
          2    1    6    6  503    0 -0.44197673930E+03  0.16827089403E+03  0.18703225721E+03  0.50856621702E+03  0.00000000000E+00 0. -1.
         -2    1    6    6    0  503 -0.16983464038E+03  0.12910118545E+03  0.96069246006E+02  0.23396628215E+03  0.00000000000E+00 0.  1.
<mgrwt>
<rscale>  0 0.16468598E+04</rscale>
<asrwt>0</asrwt>
<pdfrwt beam="1">  1        2 0.15438015E+00 0.16468598E+04</pdfrwt>
<pdfrwt beam="2">  1       -1 0.10395254E+00 0.16468598E+04</pdfrwt>
<totfact> 0.23811653E+01</totfact>
</mgrwt>
</event>
<event>
12    7  0.1611233E-007  0.3763171E+04  0.7818608E-02  0.8054105E-01
          2   -1    0    0  501    0  0.00000000000E+00  0.00000000000E+00  0.30929382592E+04  0.30929382592E+04  0.00000000000E+00 0. -1.
         -1   -1    0    0    0  501 -0.00000000000E+00 -0.00000000000E+00 -0.11446605545E+04  0.11446605545E+04  0.00000000000E+00 0.  1.
         24    2    1    2    0    0  0.95518239048E+03 -0.12704103987E+04  0.17979830910E+04  0.24011002741E+04  0.78888216443E+02 0.  0.
        254    2    1    2    0    0 -0.95518239048E+03  0.12704103987E+04  0.15029461367E+03  0.18364985396E+04  0.90764664655E+03 0.  0.
         23    2    4    4    0    0  0.99530671505E+02  0.43494041509E+03 -0.96313733077E+02  0.46551946190E+03  0.91392094737E+02 0.  0.
         23    2    4    4    0    0 -0.10547130620E+04  0.83546998357E+03  0.24660834675E+03  0.13709790777E+04  0.91313844938E+02 0.  0.
          4    1    3    3  502    0  0.43858686331E+03 -0.62685940928E+03  0.82052963654E+03  0.11218645373E+04  0.00000000000E+00 0. -1.
         -3    1    3    3    0  502  0.51659552716E+03 -0.64355098937E+03  0.97745345441E+03  0.12792357367E+04  0.00000000000E+00 0.  1.
         13    1    5    5    0    0 -0.12138951496E+02  0.30032581052E+02  0.66282788109E+01  0.33064242742E+02  0.00000000000E+00 0. -1.
        -13    1    5    5    0    0  0.11166962300E+03  0.40490783403E+03 -0.10294201189E+03  0.43245521915E+03  0.00000000000E+00 0.  1.
          3    1    6    6  503    0 -0.29807390424E+03  0.28247743324E+03  0.96634329626E+02  0.42187645862E+03  0.00000000000E+00 0. -1.
         -3    1    6    6    0  503 -0.75663915775E+03  0.55299255033E+03  0.14997401712E+03  0.94910261909E+03  0.00000000000E+00 0.  1.
<mgrwt>
<rscale>  0 0.37631712E+04</rscale>
<asrwt>0</asrwt>
<pdfrwt beam="1">  1        2 0.47583665E+00 0.37631712E+04</pdfrwt>
<pdfrwt beam="2">  1       -1 0.17610162E+00 0.37631712E+04</pdfrwt>
<totfact> 0.30807473E-01</totfact>
</mgrwt>
</event>
<event>
12    7  0.1611233E-007  0.2210663E+04  0.7818608E-02  0.8514003E-01
         -1   -1    0    0    0  501 -0.00000000000E+00  0.00000000000E+00  0.37480215490E+03  0.37480215490E+03  0.00000000000E+00 0.  1.
          2   -1    0    0  501    0  0.00000000000E+00 -0.00000000000E+00 -0.32597391955E+04  0.32597391955E+04  0.00000000000E+00 0. -1.
         24    2    1    2    0    0  0.62942863946E+03 -0.56227120857E+03 -0.60209704915E+03  0.10398302582E+04  0.79979904471E+02 0.  0.
        254    2    1    2    0    0 -0.62942863946E+03  0.56227120857E+03 -0.22828399915E+04  0.25947110922E+04  0.89935415786E+03 0.  0.
         23    2    4    4    0    0 -0.41773344878E+03  0.18016914781E+03 -0.27854519446E+03  0.54127983765E+03  0.91838342971E+02 0.  0.
         23    2    4    4    0    0 -0.21169519068E+03  0.38210206076E+03 -0.20042947970E+04  0.20534312546E+04  0.92549690981E+02 0.  0.
          2    1    3    3  502    0  0.34638384405E+03 -0.34740908560E+03 -0.31524191273E+03  0.58314003783E+03  0.00000000000E+00 0. -1.
         -1    1    3    3    0  502  0.28304479541E+03 -0.21486212298E+03 -0.28685513642E+03  0.45669022038E+03  0.00000000000E+00 0.  1.
         13    1    5    5    0    0 -0.27933539250E+03  0.12790153192E+03 -0.13648499070E+03  0.33617735803E+03  0.00000000000E+00 0.  1.
        -13    1    5    5    0    0 -0.13839805629E+03  0.52267615895E+02 -0.14206020375E+03  0.20510247962E+03  0.00000000000E+00 0. -1.
          2    1    6    6  503    0 -0.13087047221E+03  0.31541254478E+03 -0.15038881484E+04  0.15421711049E+04  0.00000000000E+00 0. -1.
         -2    1    6    6    0  503 -0.80824718471E+02  0.66689515987E+02 -0.50040664856E+03  0.51126014961E+03  0.00000000000E+00 0.  1.
<mgrwt>
<rscale>  0 0.22106626E+04</rscale>
<asrwt>0</asrwt>
<pdfrwt beam="1">  1        2 0.50149836E+00 0.22106626E+04</pdfrwt>
<pdfrwt beam="2">  1       -1 0.57661867E-01 0.22106626E+04</pdfrwt>
<totfact> 0.37582735E+00</totfact>
</mgrwt>
</event>
<event>
12    7  0.1611233E-007  0.1741177E+04  0.7818608E-02  0.8738222E-01
         -1   -1    0    0    0  501 -0.00000000000E+00  0.00000000000E+00  0.10468135651E+04  0.10468135651E+04  0.00000000000E+00 0.  1.
          2   -1    0    0  501    0  0.00000000000E+00 -0.00000000000E+00 -0.72403004733E+03  0.72403004733E+03  0.00000000000E+00 0. -1.
         24    2    1    2    0    0 -0.22248551945E+03 -0.50502344504E+03  0.46681026393E+03  0.72727203670E+03  0.80400910763E+02 0.  0.
        254    2    1    2    0    0  0.22248551945E+03  0.50502344504E+03 -0.14402674616E+03  0.10435715757E+04  0.87392759636E+03 0.  0.
         23    2    4    4    0    0  0.13110976738E+03  0.70104834446E+03  0.78158891722E+02  0.72324619836E+03  0.91201418365E+02 0.  0.
         23    2    4    4    0    0  0.91375752070E+02 -0.19602489942E+03 -0.22218563788E+03  0.32032537738E+03  0.80415175547E+02 0.  0.
          2    1    3    3  502    0 -0.42739915857E+02 -0.19167325366E+03  0.16955877878E+03  0.25945233866E+03  0.00000000000E+00 0. -1.
         -3    1    3    3    0  502 -0.17974560359E+03 -0.31335019138E+03  0.29725148514E+03  0.46781969804E+03  0.00000000000E+00 0.  1.
         13    1    5    5    0    0  0.83474151265E+02  0.29923031380E+03 -0.24416726856E+01  0.31066489404E+03  0.00000000000E+00 0. -1.
        -13    1    5    5    0    0  0.47635616113E+02  0.40181803066E+03  0.80600564407E+02  0.41258130431E+03  0.00000000000E+00 0.  1.
          2    1    6    6  503    0  0.12824702604E+02 -0.82928055732E+02 -0.42846023884E+02  0.94219515956E+02  0.00000000000E+00 0. -1.
         -2    1    6    6    0  503  0.78551049467E+02 -0.11309684369E+03 -0.17933961399E+03  0.22610586143E+03  0.00000000000E+00 0.  1.
<mgrwt>
<rscale>  0 0.17411772E+04</rscale>
<asrwt>0</asrwt>
<pdfrwt beam="1">  1        2 0.11138924E+00 0.17411772E+04</pdfrwt>
<pdfrwt beam="2">  1       -1 0.16104824E+00 0.17411772E+04</pdfrwt>
<totfact> 0.12196327E+01</totfact>
</mgrwt>
</event>
<event>
12    7  0.1611233E-007  0.1346447E+04  0.7818608E-02  0.8993522E-01
          2   -1    0    0  501    0  0.00000000000E+00  0.00000000000E+00  0.10319950976E+04  0.10319950976E+04  0.00000000000E+00 0. -1.
         -1   -1    0    0    0  501 -0.00000000000E+00 -0.00000000000E+00 -0.43917802586E+03  0.43917802586E+03  0.00000000000E+00 0.  1.
         24    2    1    2    0    0 -0.93118050702E+02  0.34690151041E+03  0.98765477422E+02  0.38455311919E+03  0.95471737491E+02 0.  0.
        254    2    1    2    0    0  0.93118050702E+02 -0.34690151041E+03  0.49405159434E+03  0.10866200043E+04  0.89869039528E+03 0.  0.
         23    2    4    4    0    0 -0.21195747961E+03  0.18637608349E+03  0.33024133105E+03  0.44383095534E+03  0.90909639354E+02 0.  0.
         23    2    4    4    0    0  0.30507553032E+03 -0.53327759390E+03  0.16381026330E+03  0.64278904895E+03  0.94275594568E+02 0.  0.
          4    1    3    3  502    0 -0.51794893732E+02  0.80342162384E+02  0.57827144346E+02  0.11172086957E+03  0.00000000000E+00 0. -1.
         -3    1    3    3    0  502 -0.41323156970E+02  0.26655934803E+03  0.40938333076E+02  0.27283224963E+03  0.00000000000E+00 0.  1.
         13    1    5    5    0    0 -0.21624745416E+03  0.15851856879E+03  0.30357838527E+03  0.40503201612E+03  0.00000000000E+00 0.  1.
        -13    1    5    5    0    0  0.42899745471E+01  0.27857514705E+02  0.26662945775E+02  0.38798939219E+02  0.00000000000E+00 0. -1.
          4    1    6    6  503    0  0.33135875863E+02 -0.13646806484E+03  0.41408255856E+02  0.14641093759E+03  0.00000000000E+00 0. -1.
         -4    1    6    6    0  503  0.27193965445E+03 -0.39680952906E+03  0.12240200744E+03  0.49637811136E+03  0.00000000000E+00 0.  1.
<mgrwt>
<rscale>  0 0.13464465E+04</rscale>
<asrwt>0</asrwt>
<pdfrwt beam="1">  1        2 0.15876848E+00 0.13464465E+04</pdfrwt>
<pdfrwt beam="2">  1       -1 0.67565851E-01 0.13464465E+04</pdfrwt>
<totfact> 0.59419637E+01</totfact>
</mgrwt>
</event>
<event>
12    7  0.1611233E-007  0.2180347E+04  0.7818608E-02  0.8526653E-01
          2   -1    0    0  501    0  0.00000000000E+00  0.00000000000E+00  0.61089186258E+03  0.61089186258E+03  0.00000000000E+00 0. -1.
         -1   -1    0    0    0  501 -0.00000000000E+00 -0.00000000000E+00 -0.19454813953E+04  0.19454813953E+04  0.00000000000E+00 0.  1.
         24    2    1    2    0    0 -0.13473735615E+03  0.34823279338E+03  0.40558364271E+03  0.55702584793E+03  0.79746288348E+02 0.  0.
        254    2    1    2    0    0  0.13473735615E+03 -0.34823279338E+03 -0.17401731754E+04  0.19993474099E+04  0.91091555681E+03 0.  0.
         23    2    4    4    0    0  0.25041793343E+03  0.24553643431E+03 -0.78859638913E+03  0.86790571277E+03  0.91535672496E+02 0.  0.
         23    2    4    4    0    0 -0.11568057728E+03 -0.59376922770E+03 -0.95157678630E+03  0.11314416972E+04  0.93370456647E+02 0.  0.
          2    1    3    3  502    0 -0.12650870890E+03  0.33415743023E+03  0.40584722498E+03  0.54071953139E+03  0.00000000000E+00 0. -1.
         -1    1    3    3    0  502 -0.82286472563E+01  0.14075363152E+02 -0.26358227394E+00  0.16306316541E+02  0.00000000000E+00 0.  1.
         13    1    5    5    0    0  0.21625637594E+02  0.57872260102E+02 -0.19649237395E+03  0.20597601732E+03  0.00000000000E+00 0.  1.
        -13    1    5    5    0    0  0.22879229584E+03  0.18766417421E+03 -0.59210401518E+03  0.66192969544E+03  0.00000000000E+00 0. -1.
          3    1    6    6  503    0 -0.65686050903E+02 -0.33369467989E+03 -0.61923843710E+03  0.70648640372E+03  0.00000000000E+00 0. -1.
         -3    1    6    6    0  503 -0.49994526378E+02 -0.26007454781E+03 -0.33233834920E+03  0.42495529346E+03  0.00000000000E+00 0.  1.
<mgrwt>
<rscale>  0 0.21803475E+04</rscale>
<asrwt>0</asrwt>
<pdfrwt beam="1">  1        2 0.93983364E-01 0.21803475E+04</pdfrwt>
<pdfrwt beam="2">  1       -1 0.29930483E+00 0.21803475E+04</pdfrwt>
<totfact> 0.16929478E+00</totfact>
</mgrwt>
</event>
<event>
12    7  0.1611233E-007  0.1340254E+04  0.7818608E-02  0.8998238E-01
          2   -1    0    0  501    0  0.00000000000E+00  0.00000000000E+00  0.21555912773E+04  0.21555912773E+04  0.00000000000E+00 0. -1.
         -1   -1    0    0    0  501 -0.00000000000E+00 -0.00000000000E+00 -0.20832817741E+03  0.20832817741E+03  0.00000000000E+00 0.  1.
         24    2    1    2    0    0  0.26586498981E+03  0.23064483992E+03  0.38076713450E+03  0.52476415885E+03  0.80700537224E+02 0.  0.
        254    2    1    2    0    0 -0.26586498981E+03 -0.23064483992E+03  0.15664959654E+04  0.18391552958E+04  0.89705147997E+03 0.  0.
         23    2    4    4    0    0 -0.55907993799E+03 -0.29282466857E+03  0.11826564838E+04  0.13439419376E+04  0.95848367134E+02 0.  0.
         23    2    4    4    0    0  0.29321494817E+03  0.62179828646E+02  0.38383948161E+03  0.49521335825E+03  0.89789674337E+02 0.  0.
          2    1    3    3  502    0  0.40698704811E+02  0.63868870491E+02  0.12056368126E+03  0.14237702916E+03  0.00000000000E+00 0. -1.
         -1    1    3    3    0  502  0.22516628500E+03  0.16677596943E+03  0.26020345324E+03  0.38238712970E+03  0.00000000000E+00 0.  1.
         13    1    5    5    0    0 -0.44801482184E+03 -0.19594886616E+03  0.95157015873E+03  0.10698593392E+04  0.00000000000E+00 0. -1.
        -13    1    5    5    0    0 -0.11106511614E+03 -0.96875802415E+02  0.23108632502E+03  0.27408259837E+03  0.00000000000E+00 0.  1.
          4    1    6    6  503    0  0.12867923081E+03 -0.49838369857E+00  0.10812741013E+03  0.16807774882E+03  0.00000000000E+00 0. -1.
         -4    1    6    6    0  503  0.16453571737E+03  0.62678212345E+02  0.27571207149E+03  0.32713560943E+03  0.00000000000E+00 0.  1.
<mgrwt>
<rscale>  0 0.13402543E+04</rscale>
<asrwt>0</asrwt>
<pdfrwt beam="1">  1        2 0.33162941E+00 0.13402543E+04</pdfrwt>
<pdfrwt beam="2">  1       -1 0.32050490E-01 0.13402543E+04</pdfrwt>
<totfact> 0.55376208E+01</totfact>
</mgrwt>
</event>
<event>
12    7  0.1611233E-007  0.1750423E+04  0.7818608E-02  0.8733117E-01
          2   -1    0    0  501    0  0.00000000000E+00  0.00000000000E+00  0.93561756063E+03  0.93561756063E+03  0.00000000000E+00 0. -1.
         -1   -1    0    0    0  501 -0.00000000000E+00 -0.00000000000E+00 -0.81870576670E+03  0.81870576670E+03  0.00000000000E+00 0.  1.
         24    2    1    2    0    0 -0.62296928178E+02 -0.39370226358E+03 -0.46143825076E+03  0.61517309999E+03  0.81426679218E+02 0.  0.
        254    2    1    2    0    0  0.62296928178E+02  0.39370226358E+03  0.57835004469E+03  0.11391502273E+04  0.89682333078E+03 0.  0.
         23    2    4    4    0    0  0.29557872986E+03 -0.71022663038E+02 -0.45234431196E+02  0.32082670919E+03  0.92046832385E+02 0.  0.
         23    2    4    4    0    0 -0.23328180169E+03  0.46472492661E+03  0.62358447589E+03  0.81832351814E+03  0.10201041789E+03 0.  0.
          2    1    3    3  502    0 -0.18418424219E+02 -0.17723669396E+03 -0.14746878069E+03  0.23129877932E+03  0.00000000000E+00 0. -1.
         -1    1    3    3    0  502 -0.43878503959E+02 -0.21646556962E+03 -0.31396947007E+03  0.38387432068E+03  0.00000000000E+00 0.  1.
         13    1    5    5    0    0  0.29747944141E+02  0.20820552805E+02 -0.31575167534E+01  0.36447297730E+02  0.00000000000E+00 0. -1.
        -13    1    5    5    0    0  0.26583078572E+03 -0.91843215843E+02 -0.42076914443E+02  0.28437941146E+03  0.00000000000E+00 0.  1.
          1    1    6    6  503    0 -0.16378838566E+03  0.22428435929E+03  0.29333895428E+03  0.40395278337E+03  0.00000000000E+00 0. -1.
         -1    1    6    6    0  503 -0.69493416022E+02  0.24044056733E+03  0.33024552161E+03  0.41437073477E+03  0.00000000000E+00 0.  1.
<mgrwt>
<rscale>  0 0.17504234E+04</rscale>
<asrwt>0</asrwt>
<pdfrwt beam="1">  1        2 0.14394116E+00 0.17504234E+04</pdfrwt>
<pdfrwt beam="2">  1       -1 0.12595473E+00 0.17504234E+04</pdfrwt>
<totfact> 0.16483130E+01</totfact>
</mgrwt>
</event>
<event>
12    7  0.1611233E-007  0.2275871E+04  0.7818608E-02  0.8487496E-01
          2   -1    0    0  501    0  0.00000000000E+00  0.00000000000E+00  0.16296582348E+04  0.16296582348E+04  0.00000000000E+00 0. -1.
         -1   -1    0    0    0  501 -0.00000000000E+00 -0.00000000000E+00 -0.79458202342E+03  0.79458202342E+03  0.00000000000E+00 0.  1.
         24    2    1    2    0    0 -0.63889081123E+02 -0.89775964840E+03  0.69950753874E+03  0.11427042799E+04  0.80050443481E+02 0.  0.
        254    2    1    2    0    0  0.63889081123E+02  0.89775964840E+03  0.13556867260E+03  0.12815359783E+04  0.90216483954E+03 0.  0.
         23    2    4    4    0    0  0.15576550885E+03  0.62866233858E+03  0.49128906453E+03  0.81717517110E+03  0.83253141925E+02 0.  0.
         23    2    4    4    0    0 -0.91876427725E+02  0.26909730982E+03 -0.35572039193E+03  0.46436080720E+03  0.90770710600E+02 0.  0.
          2    1    3    3  502    0 -0.12791796370E+01 -0.54324187322E+02  0.68799931943E+02  0.87670886069E+02  0.00000000000E+00 0. -1.
         -1    1    3    3    0  502 -0.62609901486E+02 -0.84343546108E+03  0.63070760680E+03  0.10550333938E+04  0.00000000000E+00 0.  1.
         13    1    5    5    0    0  0.80885402204E+01  0.19555903899E+01  0.21933628446E+01  0.86057920750E+01  0.00000000000E+00 0.  1.
        -13    1    5    5    0    0  0.14767696863E+03  0.62670674819E+03  0.48909570168E+03  0.80856937902E+03  0.00000000000E+00 0. -1.
          1    1    6    6  503    0 -0.73410918749E+02  0.24924936486E+03 -0.35121041339E+03  0.43687888865E+03  0.00000000000E+00 0. -1.
         -1    1    6    6    0  503 -0.18465508975E+02  0.19847944956E+02 -0.45099785457E+01  0.27481918550E+02  0.00000000000E+00 0.  1.
<mgrwt>
<rscale>  0 0.22758709E+04</rscale>
<asrwt>0</asrwt>
<pdfrwt beam="1">  1        2 0.25071665E+00 0.22758709E+04</pdfrwt>
<pdfrwt beam="2">  1       -1 0.12224339E+00 0.22758709E+04</pdfrwt>
<totfact> 0.65681870E+00</totfact>
</mgrwt>
</event>
<event>
12    7  0.1611233E-007  0.2408089E+04  0.7818608E-02  0.8436481E-01
          2   -1    0    0  501    0  0.00000000000E+00  0.00000000000E+00  0.13448715272E+04  0.13448715272E+04  0.00000000000E+00 0. -1.
         -1   -1    0    0    0  501 -0.00000000000E+00 -0.00000000000E+00 -0.10779642067E+04  0.10779642067E+04  0.00000000000E+00 0.  1.
         24    2    1    2    0    0 -0.56557509020E+03  0.83350139172E+03  0.34391600654E+03  0.10676432825E+04  0.83571565056E+02 0.  0.
        254    2    1    2    0    0  0.56557509020E+03 -0.83350139172E+03 -0.77008686058E+02  0.13551924514E+04  0.90333631057E+03 0.  0.
         23    2    4    4    0    0  0.21420216232E+03 -0.55736179892E+02  0.32881142068E+03  0.40594837303E+03  0.87681486674E+02 0.  0.
         23    2    4    4    0    0  0.35137292788E+03 -0.77776521182E+03 -0.40582010674E+03  0.94924407838E+03  0.89401913519E+02 0.  0.
          2    1    3    3  502    0 -0.41326941262E+03  0.59627725157E+03  0.28610642732E+03  0.77986861452E+03  0.00000000000E+00 0. -1.
         -1    1    3    3    0  502 -0.15230567758E+03  0.23722414014E+03  0.57809579216E+02  0.28777466799E+03  0.00000000000E+00 0.  1.
         13    1    5    5    0    0  0.12227198435E+03 -0.66084537387E+02  0.14916807511E+03  0.20388408195E+03  0.00000000000E+00 0.  1.
        -13    1    5    5    0    0  0.91930177969E+02  0.10348357496E+02  0.17964334557E+03  0.20206429108E+03  0.00000000000E+00 0. -1.
          1    1    6    6  503    0  0.33731614834E+03 -0.77133843761E+03 -0.40364646327E+03  0.93363570871E+03  0.00000000000E+00 0. -1.
         -1    1    6    6    0  503  0.14056779545E+02 -0.64267742146E+01 -0.21736434643E+01  0.15608369675E+02  0.00000000000E+00 0.  1.
<mgrwt>
<rscale>  0 0.24080892E+04</rscale>
<asrwt>0</asrwt>
<pdfrwt beam="1">  1        2 0.20690331E+00 0.24080892E+04</pdfrwt>
<pdfrwt beam="2">  1       -1 0.16584065E+00 0.24080892E+04</pdfrwt>
<totfact> 0.42108366E+00</totfact>
</mgrwt>
</event>
<event>
12    7  0.1611233E-007  0.2723069E+04  0.7818608E-02  0.8327558E-01
         -1   -1    0    0    0  501 -0.00000000000E+00  0.00000000000E+00  0.63928574093E+03  0.63928574093E+03  0.00000000000E+00 0.  1.
          2   -1    0    0  501    0  0.00000000000E+00 -0.00000000000E+00 -0.28997618921E+04  0.28997618921E+04  0.00000000000E+00 0. -1.
         24    2    1    2    0    0  0.91541779879E+03 -0.79933076271E+03 -0.10230480920E+04  0.15905761158E+04  0.79909742076E+02 0.  0.
        254    2    1    2    0    0 -0.91541779879E+03  0.79933076271E+03 -0.12374280592E+04  0.19484715173E+04  0.88791533244E+03 0.  0.
         23    2    4    4    0    0 -0.19946586080E+03  0.98421698116E+02 -0.82829012046E+03  0.86230299827E+03  0.89601768331E+02 0.  0.
         23    2    4    4    0    0 -0.71595193798E+03  0.70090906459E+03 -0.40913793870E+03  0.10861685190E+04  0.92236134570E+02 0.  0.
          2    1    3    3  502    0  0.78248488774E+03 -0.70333114826E+03 -0.85427734107E+03  0.13552664237E+04  0.00000000000E+00 0. -1.
         -1    1    3    3    0  502  0.13293291105E+03 -0.95999614444E+02 -0.16877075097E+03  0.23530969210E+03  0.00000000000E+00 0.  1.
         13    1    5    5    0    0 -0.24369203947E+02  0.53857290144E+02 -0.20239457055E+03  0.21085072443E+03  0.00000000000E+00 0.  1.
        -13    1    5    5    0    0 -0.17509665686E+03  0.44564407972E+02 -0.62589554991E+03  0.65145227384E+03  0.00000000000E+00 0. -1.
          1    1    6    6  503    0 -0.43428083060E+03  0.48567628747E+03 -0.27396853362E+03  0.70678147504E+03  0.00000000000E+00 0. -1.
         -1    1    6    6    0  503 -0.28167110739E+03  0.21523277712E+03 -0.13516940508E+03  0.37938704400E+03  0.00000000000E+00 0.  1.
<mgrwt>
<rscale>  0 0.27230692E+04</rscale>
<asrwt>0</asrwt>
<pdfrwt beam="1">  1        2 0.44611721E+00 0.27230692E+04</pdfrwt>
<pdfrwt beam="2">  1       -1 0.98351653E-01 0.27230692E+04</pdfrwt>
<totfact> 0.19797661E+00</totfact>
</mgrwt>
</event>
<event>
12    7  0.1611233E-007  0.1662879E+04  0.7818608E-02  0.8782824E-01
          2   -1    0    0  501    0  0.00000000000E+00  0.00000000000E+00  0.57243100863E+03  0.57243100863E+03  0.00000000000E+00 0. -1.
         -1   -1    0    0    0  501 -0.00000000000E+00 -0.00000000000E+00 -0.12076414629E+04  0.12076414629E+04  0.00000000000E+00 0.  1.
         24    2    1    2    0    0  0.22380536377E+03 -0.11001711025E+03 -0.79402935661E+03  0.83610909601E+03  0.80019971713E+02 0.  0.
        254    2    1    2    0    0 -0.22380536377E+03  0.11001711025E+03  0.15881890232E+03  0.94396337554E+03  0.89646573009E+03 0.  0.
         23    2    4    4    0    0  0.27379836075E+03  0.27348510048E+03  0.43921914864E+02  0.39995363846E+03  0.90962276657E+02 0.  0.
         23    2    4    4    0    0 -0.49760372452E+03 -0.16346799024E+03  0.11489698746E+03  0.54400973708E+03  0.91727999159E+02 0.  0.
          4    1    3    3  502    0  0.21440753293E+02 -0.14428580041E+02 -0.19374544682E+03  0.19546147443E+03  0.00000000000E+00 0. -1.
         -1    1    3    3    0  502  0.20236461047E+03 -0.95588530207E+02 -0.60028390979E+03  0.64064762158E+03  0.00000000000E+00 0.  1.
         13    1    5    5    0    0  0.21942980424E+03  0.17768213050E+03  0.27666565285E+01  0.28236152867E+03  0.00000000000E+00 0. -1.
        -13    1    5    5    0    0  0.54368556513E+02  0.95802969982E+02  0.41155258335E+02  0.11759210978E+03  0.00000000000E+00 0.  1.
          1    1    6    6  503    0 -0.28816715820E+03 -0.51942774268E+02  0.84706950955E+02  0.30481737221E+03  0.00000000000E+00 0. -1.
         -1    1    6    6    0  503 -0.20943656632E+03 -0.11152521597E+03  0.30190036502E+02  0.23919236487E+03  0.00000000000E+00 0.  1.
<mgrwt>
<rscale>  0 0.16628787E+04</rscale>
<asrwt>0</asrwt>
<pdfrwt beam="1">  1        2 0.88066310E-01 0.16628787E+04</pdfrwt>
<pdfrwt beam="2">  1       -1 0.18579099E+00 0.16628787E+04</pdfrwt>
<totfact> 0.10827522E+01</totfact>
</mgrwt>
</event>
<event>
12    7  0.1611233E-007  0.1511940E+04  0.7818608E-02  0.8876551E-01
         -1   -1    0    0    0  501 -0.00000000000E+00  0.00000000000E+00  0.23761006786E+03  0.23761006786E+03  0.00000000000E+00 0.  1.
          2   -1    0    0  501    0  0.00000000000E+00 -0.00000000000E+00 -0.24051623908E+04  0.24051623908E+04  0.00000000000E+00 0. -1.
         24    2    1    2    0    0  0.35533383210E+02  0.22623139809E+03  0.41005516819E+02  0.24613843536E+03  0.80370455683E+02 0.  0.
        254    2    1    2    0    0 -0.35533383210E+02 -0.22623139809E+03 -0.22085578398E+04  0.23966340233E+04  0.90204414709E+03 0.  0.
         23    2    4    4    0    0  0.18004461865E+02  0.14298333546E+03 -0.17468110017E+02  0.17215322377E+03  0.92537574643E+02 0.  0.
         23    2    4    4    0    0 -0.53537845074E+02 -0.36921473354E+03 -0.21910897298E+04  0.22244807996E+04  0.90855948580E+02 0.  0.
          2    1    3    3  502    0  0.48118937707E+01 -0.63823065461E+01  0.28935388520E+00  0.79982425682E+01  0.00000000000E+00 0. -1.
         -1    1    3    3    0  502  0.30721489439E+02  0.23261370463E+03  0.40716162934E+02  0.23814019279E+03  0.00000000000E+00 0.  1.
         13    1    5    5    0    0  0.44006049104E+02  0.62764141662E+02 -0.37713062061E+02  0.85429180531E+02  0.00000000000E+00 0. -1.
        -13    1    5    5    0    0 -0.26001587239E+02  0.80219193795E+02  0.20244952044E+02  0.86724043237E+02  0.00000000000E+00 0.  1.
          3    1    6    6  503    0  0.16955144272E+02 -0.36379333159E+02 -0.34258050091E+03  0.34492366170E+03  0.00000000000E+00 0. -1.
         -3    1    6    6    0  503 -0.70492989347E+02 -0.33283540039E+03 -0.18485092289E+04  0.18795571379E+04  0.00000000000E+00 0.  1.
<mgrwt>
<rscale>  0 0.15119402E+04</rscale>
<asrwt>0</asrwt>
<pdfrwt beam="1">  1        2 0.37002497E+00 0.15119402E+04</pdfrwt>
<pdfrwt beam="2">  1       -1 0.36555396E-01 0.15119402E+04</pdfrwt>
<totfact> 0.31212926E+01</totfact>
</mgrwt>
</event>
<event>
12    7  0.1611233E-007  0.3022288E+04  0.7818608E-02  0.8237395E-01
         -3   -1    0    0    0  501 -0.00000000000E+00  0.00000000000E+00  0.95125590471E+03  0.95125590471E+03  0.00000000000E+00 0.  1.
          2   -1    0    0  501    0  0.00000000000E+00 -0.00000000000E+00 -0.24005693024E+04  0.24005693024E+04  0.00000000000E+00 0. -1.
         24    2    1    2    0    0  0.30756860752E+03  0.64162650849E+03 -0.19601250358E+04  0.20866084292E+04  0.74575841039E+02 0.  0.
        254    2    1    2    0    0 -0.30756860752E+03 -0.64162650849E+03  0.51081163813E+03  0.12652167779E+04  0.91299613400E+03 0.  0.
         23    2    4    4    0    0 -0.59584485222E+03 -0.23900856579E+03  0.34783513639E+03  0.73578360238E+03  0.90730617689E+02 0.  0.
         23    2    4    4    0    0  0.28827624470E+03 -0.40261794270E+03  0.16297650174E+03  0.52943317552E+03  0.92378277635E+02 0.  0.
          2    1    3    3  502    0  0.19422365072E+03  0.36554585665E+03 -0.12325922115E+04  0.13002423465E+04  0.00000000000E+00 0. -1.
         -1    1    3    3    0  502  0.11334495680E+03  0.27608065184E+03 -0.72753282430E+03  0.78636608268E+03  0.00000000000E+00 0.  1.
         13    1    5    5    0    0 -0.24147360843E+02 -0.12241198431E+02 -0.37844791135E+01  0.27336134637E+02  0.00000000000E+00 0.  1.
        -13    1    5    5    0    0 -0.57169749138E+03 -0.22676736736E+03  0.35161961550E+03  0.70844746774E+03  0.00000000000E+00 0. -1.
          4    1    6    6  503    0  0.97324840270E+02 -0.10687857975E+03  0.88881793862E+02  0.16969127444E+03  0.00000000000E+00 0.  1.
         -4    1    6    6    0  503  0.19095140443E+03 -0.29573936296E+03  0.74094707879E+02  0.35974190108E+03  0.00000000000E+00 0. -1.
<mgrwt>
<rscale>  0 0.30222877E+04</rscale>
<asrwt>0</asrwt>
<pdfrwt beam="1">  1        2 0.36931835E+00 0.30222877E+04</pdfrwt>
<pdfrwt beam="2">  1       -3 0.14634706E+00 0.30222877E+04</pdfrwt>
<totfact> 0.74197929E-01</totfact>
</mgrwt>
</event>
<event>
12    7  0.1611233E-007  0.2006283E+04  0.7818608E-02  0.8603689E-01
         -1   -1    0    0    0  501 -0.00000000000E+00  0.00000000000E+00  0.47323716364E+03  0.47323716364E+03  0.00000000000E+00 0.  1.
          2   -1    0    0  501    0  0.00000000000E+00 -0.00000000000E+00 -0.21264021560E+04  0.21264021560E+04  0.00000000000E+00 0. -1.
         24    2    1    2    0    0  0.22757684701E+03  0.70832819493E+03 -0.10351959251E+04  0.12772528063E+04  0.78892805693E+02 0.  0.
        254    2    1    2    0    0 -0.22757684701E+03 -0.70832819493E+03 -0.61796906722E+03  0.13223865133E+04  0.90183161929E+03 0.  0.
         23    2    4    4    0    0 -0.47980012030E+03 -0.91640117945E+02 -0.27877924968E+03  0.56999837029E+03  0.92597005445E+02 0.  0.
         23    2    4    4    0    0  0.25222327330E+03 -0.61668807698E+03 -0.33918981755E+03  0.75238814304E+03  0.84364812413E+02 0.  0.
          4    1    3    3  502    0  0.80320073459E+02  0.30563739656E+03 -0.38004676769E+03  0.49426822476E+03  0.00000000000E+00 0. -1.
         -3    1    3    3    0  502  0.14725677355E+03  0.40269079837E+03 -0.65514915743E+03  0.78298458154E+03  0.00000000000E+00 0.  1.
         13    1    5    5    0    0 -0.26299529732E+03 -0.91211459129E+02 -0.13121311826E+03  0.30773842642E+03  0.00000000000E+00 0. -1.
        -13    1    5    5    0    0 -0.21680482298E+03 -0.42865881630E+00 -0.14756613142E+03  0.26225994387E+03  0.00000000000E+00 0.  1.
          3    1    6    6  503    0  0.64151729206E+02 -0.98074356396E+02 -0.86211301798E+02  0.14548681143E+03  0.00000000000E+00 0. -1.
         -3    1    6    6    0  503  0.18807154409E+03 -0.51861372059E+03 -0.25297851575E+03  0.60690133161E+03  0.00000000000E+00 0.  1.
<mgrwt>
<rscale>  0 0.20062827E+04</rscale>
<asrwt>0</asrwt>
<pdfrwt beam="1">  1        2 0.32713880E+00 0.20062827E+04</pdfrwt>
<pdfrwt beam="2">  1       -1 0.72805716E-01 0.20062827E+04</pdfrwt>
<totfact> 0.11420619E+01</totfact>
</mgrwt>
</event>
<event>
12    7  0.1611233E-007  0.1161257E+04  0.7818608E-02  0.9147461E-01
          2   -1    0    0  501    0  0.00000000000E+00  0.00000000000E+00  0.12765052953E+04  0.12765052953E+04  0.00000000000E+00 0. -1.
         -1   -1    0    0    0  501 -0.00000000000E+00 -0.00000000000E+00 -0.26410329678E+03  0.26410329678E+03  0.00000000000E+00 0.  1.
         24    2    1    2    0    0 -0.12366504880E+03  0.74258767044E+02 -0.22434586163E+02  0.16582703156E+03  0.78663110549E+02 0.  0.
        254    2    1    2    0    0  0.12366504880E+03 -0.74258767044E+02  0.10348365847E+04  0.13747815606E+04  0.89349324193E+03 0.  0.
         23    2    4    4    0    0  0.35035560493E+03  0.28910638091E+03  0.46209067913E+03  0.65397813370E+03  0.88476291918E+02 0.  0.
         23    2    4    4    0    0 -0.22669055613E+03 -0.36336514795E+03  0.57274590560E+03  0.72080342686E+03  0.89982602832E+02 0.  0.
          2    1    3    3  502    0 -0.30177019004E+02  0.48598336160E+02 -0.36512254661E+02  0.67864537823E+02  0.00000000000E+00 0. -1.
         -1    1    3    3    0  502 -0.93488029796E+02  0.25660430884E+02  0.14077668498E+02  0.97962493734E+02  0.00000000000E+00 0.  1.
         13    1    5    5    0    0  0.11312513481E+03  0.84357740947E+02  0.20377110229E+03  0.24786324196E+03  0.00000000000E+00 0. -1.
        -13    1    5    5    0    0  0.23723047012E+03  0.20474863996E+03  0.25831957684E+03  0.40611489174E+03  0.00000000000E+00 0.  1.
          1    1    6    6  503    0 -0.23132436484E+03 -0.32532389006E+03  0.52731161086E+03  0.66136535301E+03  0.00000000000E+00 0. -1.
         -1    1    6    6    0  503  0.46338087104E+01 -0.38041257887E+02  0.45434294738E+02  0.59438073851E+02  0.00000000000E+00 0.  1.
<mgrwt>
<rscale>  0 0.11612567E+04</rscale>
<asrwt>0</asrwt>
<pdfrwt beam="1">  1        2 0.19638543E+00 0.11612567E+04</pdfrwt>
<pdfrwt beam="2">  1       -1 0.40631277E-01 0.11612567E+04</pdfrwt>
<totfact> 0.11378173E+02</totfact>
</mgrwt>
</event>
<event>
12    7  0.1611233E-007  0.1628958E+04  0.7818608E-02  0.8802953E-01
          2   -1    0    0  501    0  0.00000000000E+00  0.00000000000E+00  0.99574546277E+03  0.99574546277E+03  0.00000000000E+00 0. -1.
         -1   -1    0    0    0  501 -0.00000000000E+00 -0.00000000000E+00 -0.66621071378E+03  0.66621071378E+03  0.00000000000E+00 0.  1.
         24    2    1    2    0    0  0.12116164333E+03 -0.20451426670E+03 -0.40579270148E+03  0.47566129405E+03  0.71272161303E+02 0.  0.
        254    2    1    2    0    0 -0.12116164333E+03  0.20451426670E+03  0.73532745048E+03  0.11862948825E+04  0.90004603201E+03 0.  0.
         23    2    4    4    0    0  0.27182622036E+03 -0.24818371822E+02 -0.30036453711E+02  0.29121612803E+03  0.96949466317E+02 0.  0.
         23    2    4    4    0    0 -0.39298786369E+03  0.22933263853E+03  0.76536390419E+03  0.89507875447E+03  0.91384630970E+02 0.  0.
          2    1    3    3  502    0  0.40007781866E+01 -0.64599903725E+02 -0.88669184322E+02  0.10977876860E+03  0.00000000000E+00 0. -1.
         -1    1    3    3    0  502  0.11716086514E+03 -0.13991436298E+03 -0.31712351716E+03  0.36588252545E+03  0.00000000000E+00 0.  1.
         13    1    5    5    0    0  0.19305599214E+03  0.23761917940E+02 -0.20240275327E+01  0.19452337014E+03  0.00000000000E+00 0. -1.
        -13    1    5    5    0    0  0.78770228218E+02 -0.48580289762E+02 -0.28012426178E+02  0.96692757884E+02  0.00000000000E+00 0.  1.
          2    1    6    6  503    0 -0.37889496516E+03  0.19659648904E+03  0.68424600957E+03  0.80647639503E+03  0.00000000000E+00 0. -1.
         -2    1    6    6    0  503 -0.14092898530E+02  0.32736149483E+02  0.81117894620E+02  0.88602359447E+02  0.00000000000E+00 0.  1.
<mgrwt>
<rscale>  0 0.16289583E+04</rscale>
<asrwt>0</asrwt>
<pdfrwt beam="1">  1        2 0.15319161E+00 0.16289583E+04</pdfrwt>
<pdfrwt beam="2">  1       -1 0.10249396E+00 0.16289583E+04</pdfrwt>
<totfact> 0.24923788E+01</totfact>
</mgrwt>
</event>
<event>
12    7  0.1611233E-007  0.1195879E+04  0.7818608E-02  0.9116471E-01
         -3   -1    0    0    0  501 -0.00000000000E+00  0.00000000000E+00  0.23114321720E+04  0.23114321720E+04  0.00000000000E+00 0.  1.
          4   -1    0    0  501    0  0.00000000000E+00 -0.00000000000E+00 -0.15467970395E+03  0.15467970395E+03  0.00000000000E+00 0. -1.
         24    2    1    2    0    0  0.33432519050E+02 -0.24467783333E+03  0.34198314449E+03  0.43067738158E+03  0.86865185394E+02 0.  0.
        254    2    1    2    0    0 -0.33432519050E+02  0.24467783333E+03  0.18147693235E+04  0.20354344943E+04  0.88804330283E+03 0.  0.
         23    2    4    4    0    0  0.24738652348E+03  0.21697711710E+03  0.16734340202E+04  0.17078259784E+04  0.89492967948E+02 0.  0.
         23    2    4    4    0    0 -0.28081904253E+03  0.27700716236E+02  0.14133530332E+03  0.32760851590E+03  0.87892021260E+02 0.  0.
          2    1    3    3  502    0  0.35339815835E+02 -0.16285983848E+03  0.15948064421E+03  0.23066492029E+03  0.00000000000E+00 0. -1.
         -1    1    3    3    0  502 -0.19072967845E+01 -0.81817994850E+02  0.18250250029E+03  0.20001246130E+03  0.00000000000E+00 0.  1.
         13    1    5    5    0    0  0.10204529770E+03  0.85549228996E+02  0.46826485241E+03  0.48683044827E+03  0.00000000000E+00 0. -1.
        -13    1    5    5    0    0  0.14534122578E+03  0.13142788810E+03  0.12051691678E+04  0.12209955302E+04  0.00000000000E+00 0.  1.
          3    1    6    6  503    0 -0.37465553572E+01 -0.59692666548E+00  0.25807282386E+02  0.26084647259E+02  0.00000000000E+00 0. -1.
         -3    1    6    6    0  503 -0.27707248717E+03  0.28297642901E+02  0.11552802093E+03  0.30152386864E+03  0.00000000000E+00 0.  1.
<mgrwt>
<rscale>  0 0.11958790E+04</rscale>
<asrwt>0</asrwt>
<pdfrwt beam="1">  1        4 0.23796879E-01 0.11958790E+04</pdfrwt>
<pdfrwt beam="2">  1       -3 0.35560492E+00 0.11958790E+04</pdfrwt>
<totfact> 0.71611694E-01</totfact>
</mgrwt>
</event>
<event>
12    7  0.1611233E-007  0.2119732E+04  0.7818608E-02  0.8552601E-01
          2   -1    0    0  501    0  0.00000000000E+00  0.00000000000E+00  0.25734606585E+04  0.25734606585E+04  0.00000000000E+00 0. -1.
         -1   -1    0    0    0  501 -0.00000000000E+00 -0.00000000000E+00 -0.43650024955E+03  0.43650024955E+03  0.00000000000E+00 0.  1.
         24    2    1    2    0    0 -0.39111689411E+03 -0.23478095858E+03 -0.16877971708E+03  0.49192064026E+03  0.73517345192E+02 0.  0.
        254    2    1    2    0    0  0.39111689411E+03  0.23478095858E+03  0.23057401261E+04  0.25180402678E+04  0.90332427072E+03 0.  0.
         23    2    4    4    0    0  0.62121695149E+03  0.26457753762E+03  0.11662681363E+04  0.13506238945E+04  0.89954235037E+02 0.  0.
         23    2    4    4    0    0 -0.23010005738E+03 -0.29796579035E+02  0.11394719898E+04  0.11674163734E+04  0.10310528949E+03 0.  0.
          4    1    3    3  502    0 -0.50213238761E+02 -0.56653703362E+02 -0.12406955769E+02  0.76713388681E+02  0.00000000000E+00 0. -1.
         -3    1    3    3    0  502 -0.34090365535E+03 -0.17812725522E+03 -0.15637276131E+03  0.41520725158E+03  0.00000000000E+00 0.  1.
         13    1    5    5    0    0  0.31785268087E+03  0.15347849237E+03  0.69128274156E+03  0.77618155295E+03  0.00000000000E+00 0.  1.
        -13    1    5    5    0    0  0.30336427063E+03  0.11109904525E+03  0.47498539469E+03  0.57444234151E+03  0.00000000000E+00 0. -1.
          3    1    6    6  503    0 -0.17427681127E+03  0.24010406511E+02  0.82188225343E+03  0.84049946167E+03  0.00000000000E+00 0. -1.
         -3    1    6    6    0  503 -0.55823246111E+02 -0.53806985547E+02  0.31758973637E+03  0.32691691169E+03  0.00000000000E+00 0.  1.
<mgrwt>
<rscale>  0 0.21197323E+04</rscale>
<asrwt>0</asrwt>
<pdfrwt beam="1">  1        2 0.39591701E+00 0.21197323E+04</pdfrwt>
<pdfrwt beam="2">  1       -1 0.67153886E-01 0.21197323E+04</pdfrwt>
<totfact> 0.74219960E+00</totfact>
</mgrwt>
</event>
<event>
12    7  0.1611233E-007  0.1874401E+04  0.7818608E-02  0.8667704E-01
          2   -1    0    0  501    0  0.00000000000E+00  0.00000000000E+00  0.23708589203E+04  0.23708589203E+04  0.00000000000E+00 0. -1.
         -1   -1    0    0    0  501 -0.00000000000E+00 -0.00000000000E+00 -0.37047542155E+03  0.37047542155E+03  0.00000000000E+00 0.  1.
         24    2    1    2    0    0  0.42583576884E+03  0.31190855109E+03  0.60705565115E+02  0.53701085253E+03  0.77925886784E+02 0.  0.
        254    2    1    2    0    0 -0.42583576884E+03 -0.31190855109E+03  0.19396779336E+04  0.22043234893E+04  0.90447139982E+03 0.  0.
         23    2    4    4    0    0  0.67026472829E+02  0.18755074888E+03  0.10232085895E+04  0.10466556014E+04  0.94150405362E+02 0.  0.
         23    2    4    4    0    0 -0.49286224167E+03 -0.49945929997E+03  0.91646934414E+03  0.11576678879E+04  0.88916243911E+02 0.  0.
          4    1    3    3  502    0  0.19570569453E+03  0.10361193177E+03  0.46603980907E+02  0.22629202884E+03  0.00000000000E+00 0. -1.
         -3    1    3    3    0  502  0.23013007431E+03  0.20829661932E+03  0.14101584208E+02  0.31071882369E+03  0.00000000000E+00 0.  1.
         13    1    5    5    0    0  0.10965564943E+02 -0.75846388227E+01  0.28857782467E+02  0.31789022783E+02  0.00000000000E+00 0. -1.
        -13    1    5    5    0    0  0.56060907886E+02  0.19513538770E+03  0.99435080700E+03  0.10148665786E+04  0.00000000000E+00 0.  1.
          1    1    6    6  503    0 -0.30846059913E+02 -0.86149365664E+01  0.28864985546E+02  0.43114776293E+02  0.00000000000E+00 0. -1.
         -1    1    6    6    0  503 -0.46201618176E+03 -0.49084436340E+03  0.88760435859E+03  0.11145531116E+04  0.00000000000E+00 0.  1.
<mgrwt>
<rscale>  0 0.18744012E+04</rscale>
<asrwt>0</asrwt>
<pdfrwt beam="1">  1        2 0.36474752E+00 0.18744012E+04</pdfrwt>
<pdfrwt beam="2">  1       -1 0.56996220E-01 0.18744012E+04</pdfrwt>
<totfact> 0.13764674E+01</totfact>
</mgrwt>
</event>
<event>
12    7  0.1611233E-007  0.1257738E+04  0.7818608E-02  0.9063768E-01
         -1   -1    0    0    0  501 -0.00000000000E+00  0.00000000000E+00  0.80833458071E+03  0.80833458071E+03  0.00000000000E+00 0.  1.
          2   -1    0    0  501    0  0.00000000000E+00 -0.00000000000E+00 -0.48924799181E+03  0.48924799181E+03  0.00000000000E+00 0. -1.
         24    2    1    2    0    0  0.20130732534E+03 -0.94696508882E+02 -0.19433658755E+03  0.30769861300E+03  0.86137443390E+02 0.  0.
        254    2    1    2    0    0 -0.20130732534E+03  0.94696508882E+02  0.51342317646E+03  0.98988395952E+03  0.81656281275E+03 0.  0.
         23    2    4    4    0    0 -0.88892769255E+02 -0.15004692647E+03 -0.16493188105E+03  0.25436055403E+03  0.84147260754E+02 0.  0.
         23    2    4    4    0    0 -0.11241455609E+03  0.24474343535E+03  0.67835505750E+03  0.73552340549E+03  0.91064342193E+02 0.  0.
          2    1    3    3  502    0  0.20868816409E+03 -0.83110265623E+02 -0.18008396097E+03  0.28790328077E+03  0.00000000000E+00 0. -1.
         -1    1    3    3    0  502 -0.73808387511E+01 -0.11586243259E+02 -0.14252626582E+02  0.19795332227E+02  0.00000000000E+00 0.  1.
         13    1    5    5    0    0 -0.45693810158E+02 -0.14078313443E+03 -0.11325596707E+03  0.18637255512E+03  0.00000000000E+00 0. -1.
        -13    1    5    5    0    0 -0.43198959096E+02 -0.92637920388E+01 -0.51675913974E+02  0.67987998904E+02  0.00000000000E+00 0.  1.
          2    1    6    6  503    0 -0.96724740447E+02  0.14250062373E+03  0.33145598839E+03  0.37353068873E+03  0.00000000000E+00 0. -1.
         -2    1    6    6    0  503 -0.15689815638E+02  0.10224281162E+03  0.34689906911E+03  0.36199271676E+03  0.00000000000E+00 0.  1.
<mgrwt>
<rscale>  0 0.12577378E+04</rscale>
<asrwt>0</asrwt>
<pdfrwt beam="1">  1        2 0.75268922E-01 0.12577378E+04</pdfrwt>
<pdfrwt beam="2">  1       -1 0.12435917E+00 0.12577378E+04</pdfrwt>
<totfact> 0.40259510E+01</totfact>
</mgrwt>
</event>
<event>
12    7  0.1611233E-007  0.1616009E+04  0.7818608E-02  0.8810773E-01
         -1   -1    0    0    0  501 -0.00000000000E+00  0.00000000000E+00  0.56754191529E+03  0.56754191529E+03  0.00000000000E+00 0.  1.
          2   -1    0    0  501    0  0.00000000000E+00 -0.00000000000E+00 -0.11503489606E+04  0.11503489606E+04  0.00000000000E+00 0. -1.
         24    2    1    2    0    0 -0.57616551248E+03  0.11776079485E+02 -0.53313370998E+03  0.78935831290E+03  0.82156068605E+02 0.  0.
        254    2    1    2    0    0  0.57616551248E+03 -0.11776079485E+02 -0.49673335293E+02  0.92853256295E+03  0.72636072746E+03 0.  0.
         23    2    4    4    0    0  0.38306365737E+03 -0.31959391012E+03  0.11422289652E+03  0.51990244984E+03  0.91507673325E+02 0.  0.
         23    2    4    4    0    0  0.19310185511E+03  0.30781783064E+03 -0.16389623181E+03  0.40863011311E+03  0.89869078296E+02 0.  0.
          2    1    3    3  502    0 -0.41530252171E+03  0.96525850495E+01 -0.33189144676E+03  0.53171542142E+03  0.00000000000E+00 0. -1.
         -1    1    3    3    0  502 -0.16086299077E+03  0.21234944352E+01 -0.20124226322E+03  0.25764289148E+03  0.00000000000E+00 0.  1.
         13    1    5    5    0    0  0.24575558665E+03 -0.17317041150E+03  0.29704967573E+02  0.30210293757E+03  0.00000000000E+00 0.  1.
        -13    1    5    5    0    0  0.13730807072E+03 -0.14642349862E+03  0.84517928945E+02  0.21779951227E+03  0.00000000000E+00 0. -1.
          4    1    6    6  503    0  0.48519701365E+02  0.21242974286E+02 -0.29703479777E+02  0.60726617623E+02  0.00000000000E+00 0.  1.
         -4    1    6    6    0  503  0.14458215375E+03  0.28657485635E+03 -0.13419275203E+03  0.34790349549E+03  0.00000000000E+00 0. -1.
<mgrwt>
<rscale>  0 0.16160090E+04</rscale>
<asrwt>0</asrwt>
<pdfrwt beam="1">  1        2 0.17697676E+00 0.16160090E+04</pdfrwt>
<pdfrwt beam="2">  1       -1 0.87314141E-01 0.16160090E+04</pdfrwt>
<totfact> 0.28623087E+01</totfact>
</mgrwt>
</event>
<event>
12    7  0.1611233E-007  0.2726979E+04  0.7818608E-02  0.8326304E-01
          2   -1    0    0  501    0  0.00000000000E+00  0.00000000000E+00  0.84398127590E+03  0.84398127590E+03  0.00000000000E+00 0. -1.
         -1   -1    0    0    0  501 -0.00000000000E+00 -0.00000000000E+00 -0.22027782241E+04  0.22027782241E+04  0.00000000000E+00 0.  1.
         24    2    1    2    0    0  0.28453191539E+03 -0.97108420705E+03  0.14884823692E+03  0.10252458859E+04  0.70784043317E+02 0.  0.
        254    2    1    2    0    0 -0.28453191539E+03  0.97108420705E+03 -0.15076451851E+04  0.20215136141E+04  0.88857207916E+03 0.  0.
         23    2    4    4    0    0  0.26502024624E+03  0.10086607280E+03 -0.21664241135E+03  0.36789081896E+03  0.89442857301E+02 0.  0.
         23    2    4    4    0    0 -0.54955216163E+03  0.87021813424E+03 -0.12910027737E+04  0.16536227952E+04  0.92157513647E+02 0.  0.
          4    1    3    3  502    0  0.25145843982E+03 -0.86630853372E+03  0.15462827538E+03  0.91522222772E+03  0.00000000000E+00 0. -1.
         -3    1    3    3    0  502  0.33073475567E+02 -0.10477567332E+03 -0.57800384649E+01  0.11002365814E+03  0.00000000000E+00 0.  1.
         13    1    5    5    0    0  0.18463595904E+03  0.11183611720E+03 -0.14947285200E+03  0.26256406450E+03  0.00000000000E+00 0.  1.
        -13    1    5    5    0    0  0.80384287193E+02 -0.10970044398E+02 -0.67169559350E+02  0.10532675446E+03  0.00000000000E+00 0. -1.
          2    1    6    6  503    0 -0.18236159452E+03  0.36228356112E+03 -0.47224596103E+03  0.62251215050E+03  0.00000000000E+00 0. -1.
         -2    1    6    6    0  503 -0.36719056711E+03  0.50793457312E+03 -0.81875681271E+03  0.10311106446E+04  0.00000000000E+00 0.  1.
<mgrwt>
<rscale>  0 0.27269790E+04</rscale>
<asrwt>0</asrwt>
<pdfrwt beam="1">  1        2 0.12984328E+00 0.27269790E+04</pdfrwt>
<pdfrwt beam="2">  1       -1 0.33888895E+00 0.27269790E+04</pdfrwt>
<totfact> 0.58859046E-01</totfact>
</mgrwt>
</event>
<event>
12    7  0.1611233E-007  0.2629371E+04  0.7818608E-02  0.8358292E-01
         -1   -1    0    0    0  501 -0.00000000000E+00  0.00000000000E+00  0.11167829647E+04  0.11167829647E+04  0.00000000000E+00 0.  1.
          2   -1    0    0  501    0  0.00000000000E+00 -0.00000000000E+00 -0.15476582907E+04  0.15476582907E+04  0.00000000000E+00 0. -1.
         24    2    1    2    0    0  0.28050516700E+03 -0.79342266912E+02 -0.13311702215E+04  0.13650797029E+04  0.80312469556E+02 0.  0.
        254    2    1    2    0    0 -0.28050516700E+03  0.79342266912E+02  0.90029489549E+03  0.12993615525E+04  0.89041069248E+03 0.  0.
         23    2    4    4    0    0 -0.90167236751E+02  0.30276939795E+03 -0.19332200102E+02  0.32973324811E+03  0.92470763087E+02 0.  0.
         23    2    4    4    0    0 -0.19033793025E+03 -0.22342713104E+03  0.91962709560E+03  0.96962830441E+03  0.91196727905E+02 0.  0.
          4    1    3    3  502    0  0.20921030844E+03 -0.40358779370E+02 -0.80723600187E+03  0.83488187604E+03  0.00000000000E+00 0. -1.
         -3    1    3    3    0  502  0.71294858555E+02 -0.38983487542E+02 -0.52393421959E+03  0.53019782687E+03  0.00000000000E+00 0.  1.
         13    1    5    5    0    0 -0.59995914378E+01  0.85257222196E+02  0.31394373050E+02  0.91051610053E+02  0.00000000000E+00 0.  1.
        -13    1    5    5    0    0 -0.84167645313E+02  0.21751217576E+03 -0.50726573153E+02  0.23868163806E+03  0.00000000000E+00 0. -1.
          1    1    6    6  503    0 -0.16646684833E+03 -0.16793500123E+03  0.81711574101E+03  0.85064182265E+03  0.00000000000E+00 0. -1.
         -1    1    6    6    0  503 -0.23871081914E+02 -0.55492129812E+02  0.10251135459E+03  0.11898648176E+03  0.00000000000E+00 0.  1.
<mgrwt>
<rscale>  0 0.26293713E+04</rscale>
<asrwt>0</asrwt>
<pdfrwt beam="1">  1        2 0.23810128E+00 0.26293713E+04</pdfrwt>
<pdfrwt beam="2">  1       -1 0.17181276E+00 0.26293713E+04</pdfrwt>
<totfact> 0.28615116E+00</totfact>
</mgrwt>
</event>
<event>
12    7  0.1611233E-007  0.1599983E+04  0.7818608E-02  0.8820559E-01
          2   -1    0    0  501    0  0.00000000000E+00  0.00000000000E+00  0.51817899642E+03  0.51817899642E+03  0.00000000000E+00 0. -1.
         -1   -1    0    0    0  501 -0.00000000000E+00 -0.00000000000E+00 -0.12350677551E+04  0.12350677551E+04  0.00000000000E+00 0.  1.
         24    2    1    2    0    0 -0.12339699293E+03 -0.52931540834E+03 -0.30241090041E+03  0.62647486405E+03  0.74945201547E+02 0.  0.
        254    2    1    2    0    0  0.12339699293E+03  0.52931540834E+03 -0.41447785825E+03  0.11267718875E+04  0.89577975642E+03 0.  0.
         23    2    4    4    0    0 -0.33507007565E+03  0.55674785241E+02 -0.17905061556E+02  0.35212712940E+03  0.91111397317E+02 0.  0.
         23    2    4    4    0    0  0.45846706858E+03  0.47364062310E+03 -0.39657279669E+03  0.77464475805E+03  0.90978158281E+02 0.  0.
          4    1    3    3  502    0 -0.73930566354E+02 -0.38440746581E+03 -0.18205281595E+03  0.43171524899E+03  0.00000000000E+00 0. -1.
         -3    1    3    3    0  502 -0.49466426572E+02 -0.14490794253E+03 -0.12035808446E+03  0.19475961507E+03  0.00000000000E+00 0.  1.
         13    1    5    5    0    0 -0.31532716984E+03  0.32583900387E+02 -0.32036476906E+02  0.31862088830E+03  0.00000000000E+00 0. -1.
        -13    1    5    5    0    0 -0.19742905808E+02  0.23090884854E+02  0.14131415351E+02  0.33506241104E+02  0.00000000000E+00 0.  1.
          1    1    6    6  503    0  0.27649778698E+03  0.34336356988E+03 -0.24507443139E+03  0.50439175672E+03  0.00000000000E+00 0. -1.
         -1    1    6    6    0  503  0.18196928159E+03  0.13027705321E+03 -0.15149836530E+03  0.27025300133E+03  0.00000000000E+00 0.  1.
<mgrwt>
<rscale>  0 0.15999827E+04</rscale>
<asrwt>0</asrwt>
<pdfrwt beam="1">  1        2 0.79719847E-01 0.15999827E+04</pdfrwt>
<pdfrwt beam="2">  1       -1 0.19001042E+00 0.15999827E+04</pdfrwt>
<totfact> 0.11434947E+01</totfact>
</mgrwt>
</event>
<event>
12    7  0.1611233E-007  0.2069521E+04  0.7818608E-02  0.8574790E-01
         -1   -1    0    0    0  501 -0.00000000000E+00  0.00000000000E+00  0.10885558313E+04  0.10885558313E+04  0.00000000000E+00 0.  1.
          2   -1    0    0  501    0  0.00000000000E+00 -0.00000000000E+00 -0.98362322940E+03  0.98362322940E+03  0.00000000000E+00 0. -1.
         24    2    1    2    0    0 -0.28300673942E+03  0.40097878896E+03 -0.63376428379E+03  0.80555962464E+03  0.79952096306E+02 0.  0.
        254    2    1    2    0    0  0.28300673942E+03 -0.40097878896E+03  0.73869688572E+03  0.12666194361E+04  0.90430907501E+03 0.  0.
         23    2    4    4    0    0  0.13723580463E+03 -0.33541400502E+03  0.92881650160E+03  0.10012798611E+04  0.92331174282E+02 0.  0.
         23    2    4    4    0    0  0.14577093479E+03 -0.65564783932E+02 -0.19011961588E+03  0.26533957500E+03  0.93336570518E+02 0.  0.
          4    1    3    3  502    0 -0.18777455055E+03  0.29469556529E+03 -0.39483297927E+03  0.52725500430E+03  0.00000000000E+00 0. -1.
         -3    1    3    3    0  502 -0.95232188874E+02  0.10628322367E+03 -0.23893130451E+03  0.27830462035E+03  0.00000000000E+00 0.  1.
         13    1    5    5    0    0  0.70274985177E+02 -0.25540487897E+03  0.73310960807E+03  0.77949979037E+03  0.00000000000E+00 0.  1.
        -13    1    5    5    0    0  0.66960819453E+02 -0.80009126053E+02  0.19570689353E+03  0.22178007072E+03  0.00000000000E+00 0. -1.
          2    1    6    6  503    0  0.29359688137E+02 -0.22944469489E+02  0.12990034428E+01  0.37284411992E+02  0.00000000000E+00 0. -1.
         -2    1    6    6    0  503  0.11641124666E+03 -0.42620314443E+02 -0.19141861932E+03  0.22805516300E+03  0.00000000000E+00 0.  1.
<mgrwt>
<rscale>  0 0.20695205E+04</rscale>
<asrwt>0</asrwt>
<pdfrwt beam="1">  1        2 0.15132665E+00 0.20695205E+04</pdfrwt>
<pdfrwt beam="2">  1       -1 0.16747013E+00 0.20695205E+04</pdfrwt>
<totfact> 0.69867892E+00</totfact>
</mgrwt>
</event>
<event>
12    7  0.1611233E-007  0.2491509E+04  0.7818608E-02  0.8406017E-01
         -1   -1    0    0    0  501 -0.00000000000E+00  0.00000000000E+00  0.81649719503E+03  0.81649719503E+03  0.00000000000E+00 0.  1.
          2   -1    0    0  501    0  0.00000000000E+00 -0.00000000000E+00 -0.19006855295E+04  0.19006855295E+04  0.00000000000E+00 0. -1.
         24    2    1    2    0    0 -0.53864242726E+03 -0.15634708042E+03 -0.14820631046E+04  0.15867415719E+04  0.81594704109E+02 0.  0.
        254    2    1    2    0    0  0.53864242726E+03  0.15634708042E+03  0.39787477013E+03  0.11304411527E+04  0.89722505148E+03 0.  0.
         23    2    4    4    0    0  0.22397925467E+03 -0.25670511046E+03 -0.13852950010E+03  0.37831255745E+03  0.88689054949E+02 0.  0.
         23    2    4    4    0    0  0.31466317259E+03  0.41305219088E+03  0.53640427023E+03  0.75212859525E+03  0.91339247258E+02 0.  0.
          4    1    3    3  502    0 -0.44111051977E+03 -0.11371884054E+03 -0.12747905943E+04  0.13537361355E+04  0.00000000000E+00 0. -1.
         -3    1    3    3    0  502 -0.97531907490E+02 -0.42628239878E+02 -0.20727251034E+03  0.23300543633E+03  0.00000000000E+00 0.  1.
         13    1    5    5    0    0  0.51393119737E+02 -0.12374047455E+03 -0.46858780165E+02  0.14194612737E+03  0.00000000000E+00 0.  1.
        -13    1    5    5    0    0  0.17258613493E+03 -0.13296463591E+03 -0.91670719936E+02  0.23636643008E+03  0.00000000000E+00 0. -1.
          2    1    6    6  503    0  0.95104291696E+01  0.30941258425E+01  0.34129835797E+02  0.35564976722E+02  0.00000000000E+00 0. -1.
         -2    1    6    6    0  503  0.30515274342E+03  0.40995806504E+03  0.50227443444E+03  0.71656361853E+03  0.00000000000E+00 0.  1.
<mgrwt>
<rscale>  0 0.24915091E+04</rscale>
<asrwt>0</asrwt>
<pdfrwt beam="1">  1        2 0.29241316E+00 0.24915091E+04</pdfrwt>
<pdfrwt beam="2">  1       -1 0.12561495E+00 0.24915091E+04</pdfrwt>
<totfact> 0.42600259E+00</totfact>
</mgrwt>
</event>
<event>
12    7  0.1611233E-007  0.1700174E+04  0.7818608E-02  0.8761265E-01
         -1   -1    0    0    0  501 -0.00000000000E+00  0.00000000000E+00  0.32640261516E+03  0.32640261516E+03  0.00000000000E+00 0.  1.
          2   -1    0    0  501    0  0.00000000000E+00 -0.00000000000E+00 -0.22139764422E+04  0.22139764422E+04  0.00000000000E+00 0. -1.
         24    2    1    2    0    0 -0.99372267411E+01 -0.19088972492E+03 -0.15424087748E+04  0.15562546438E+04  0.79787544192E+02 0.  0.
        254    2    1    2    0    0  0.99372267411E+01  0.19088972492E+03 -0.34516505225E+03  0.98412441358E+03  0.90156769715E+03 0.  0.
         23    2    4    4    0    0 -0.78227247275E+01 -0.23396046889E+03  0.17528634747E+03  0.30606409672E+03  0.90284171724E+02 0.  0.
         23    2    4    4    0    0  0.17759951469E+02  0.42485019381E+03 -0.52045139972E+03  0.67806031686E+03  0.89905677118E+02 0.  0.
          4    1    3    3  502    0  0.48792063700E+01 -0.11165955544E+03 -0.59374851841E+03  0.60417627071E+03  0.00000000000E+00 0. -1.
         -3    1    3    3    0  502 -0.14816433111E+02 -0.79230169475E+02 -0.94866025641E+03  0.95207837310E+03  0.00000000000E+00 0.  1.
         13    1    5    5    0    0  0.35187493064E+02 -0.11794699750E+03  0.11492272860E+03  0.16839503389E+03  0.00000000000E+00 0. -1.
        -13    1    5    5    0    0 -0.43010217792E+02 -0.11601347139E+03  0.60363618867E+02  0.13766906283E+03  0.00000000000E+00 0.  1.
          4    1    6    6  503    0 -0.25794458386E+01  0.97683011358E+01 -0.47071365918E+02  0.48143397650E+02  0.00000000000E+00 0.  1.
         -4    1    6    6    0  503  0.20339397307E+02  0.41508189268E+03 -0.47338003380E+03  0.62991691921E+03  0.00000000000E+00 0. -1.
<mgrwt>
<rscale>  0 0.17001738E+04</rscale>
<asrwt>0</asrwt>
<pdfrwt beam="1">  1        2 0.34061176E+00 0.17001738E+04</pdfrwt>
<pdfrwt beam="2">  1       -1 0.50215787E-01 0.17001738E+04</pdfrwt>
<totfact> 0.21888667E+01</totfact>
</mgrwt>
</event>
<event>
12    7  0.1611233E-007  0.1847400E+04  0.7818608E-02  0.8681491E-01
         -1   -1    0    0    0  501 -0.00000000000E+00  0.00000000000E+00  0.14290536242E+04  0.14290536242E+04  0.00000000000E+00 0.  1.
          2   -1    0    0  501    0  0.00000000000E+00 -0.00000000000E+00 -0.59705363586E+03  0.59705363586E+03  0.00000000000E+00 0. -1.
         24    2    1    2    0    0 -0.40216391304E+03 -0.52568858836E+03  0.56891403270E+03  0.87620770537E+03  0.77410990602E+02 0.  0.
        254    2    1    2    0    0  0.40216391304E+03  0.52568858836E+03  0.26308595562E+03  0.11498995547E+04  0.90275714391E+03 0.  0.
         23    2    4    4    0    0  0.22541963370E+03  0.50923133595E+03  0.55962749894E+03  0.79483352687E+03  0.91906654216E+02 0.  0.
         23    2    4    4    0    0  0.17674427934E+03  0.16457252409E+02 -0.29654154332E+03  0.35506602780E+03  0.81397885369E+02 0.  0.
          2    1    3    3  502    0 -0.40522615142E+03 -0.51523469706E+03  0.55986127933E+03  0.86204389618E+03  0.00000000000E+00 0. -1.
         -1    1    3    3    0  502  0.30622383802E+01 -0.10453891302E+02  0.90527533707E+01  0.14163809193E+02  0.00000000000E+00 0.  1.
         13    1    5    5    0    0  0.12703396226E+03  0.20794058836E+03  0.19805417829E+03  0.31401014855E+03  0.00000000000E+00 0. -1.
        -13    1    5    5    0    0  0.98385671437E+02  0.30129074760E+03  0.36157332065E+03  0.48082337832E+03  0.00000000000E+00 0.  1.
          4    1    6    6  503    0  0.47852929598E+02 -0.61983736649E+00 -0.24979910136E+02  0.53984099324E+02  0.00000000000E+00 0. -1.
         -4    1    6    6    0  503  0.12889134975E+03  0.17077089775E+02 -0.27156163319E+03  0.30108192847E+03  0.00000000000E+00 0.  1.
<mgrwt>
<rscale>  0 0.18474000E+04</rscale>
<asrwt>0</asrwt>
<pdfrwt beam="1">  1        2 0.91854406E-01 0.18474000E+04</pdfrwt>
<pdfrwt beam="2">  1       -1 0.21985440E+00 0.18474000E+04</pdfrwt>
<totfact> 0.59107433E+00</totfact>
</mgrwt>
</event>
<event>
12    7  0.1611233E-007  0.1581935E+04  0.7818608E-02  0.8831724E-01
          2   -1    0    0  501    0  0.00000000000E+00  0.00000000000E+00  0.13338342117E+04  0.13338342117E+04  0.00000000000E+00 0. -1.
         -1   -1    0    0    0  501 -0.00000000000E+00 -0.00000000000E+00 -0.46904594796E+03  0.46904594796E+03  0.00000000000E+00 0.  1.
         24    2    1    2    0    0 -0.73136954822E+02 -0.34398403700E+03 -0.15454017081E+03  0.39221556631E+03  0.79223444704E+02 0.  0.
        254    2    1    2    0    0  0.73136954822E+02  0.34398403700E+03  0.10193284345E+04  0.14106645933E+04  0.90954389975E+03 0.  0.
         23    2    4    4    0    0  0.35257414889E+03 -0.10299267149E+03  0.19010572831E+03  0.42405330349E+03  0.93621554236E+02 0.  0.
         23    2    4    4    0    0 -0.27943719407E+03  0.44697670849E+03  0.82922270622E+03  0.98661128985E+03  0.88984365941E+02 0.  0.
          2    1    3    3  502    0 -0.28965368875E+02 -0.12605681696E+03 -0.16243025084E+02  0.13035777522E+03  0.00000000000E+00 0. -1.
         -1    1    3    3    0  502 -0.44171585948E+02 -0.21792722004E+03 -0.13829714572E+03  0.26185779109E+03  0.00000000000E+00 0.  1.
         13    1    5    5    0    0  0.31025782319E+03 -0.55588720066E+02  0.16452528803E+03  0.35555392425E+03  0.00000000000E+00 0.  1.
        -13    1    5    5    0    0  0.42316325702E+02 -0.47403951422E+02  0.25580440289E+02  0.68499379243E+02  0.00000000000E+00 0. -1.
          3    1    6    6  503    0 -0.13822625527E+03  0.30150379395E+03  0.50225663984E+03  0.60189099318E+03  0.00000000000E+00 0. -1.
         -3    1    6    6    0  503 -0.14121093880E+03  0.14547291454E+03  0.32696606639E+03  0.38472029667E+03  0.00000000000E+00 0.  1.
<mgrwt>
<rscale>  0 0.15819349E+04</rscale>
<asrwt>0</asrwt>
<pdfrwt beam="1">  1        2 0.20520526E+00 0.15819349E+04</pdfrwt>
<pdfrwt beam="2">  1       -1 0.72160916E-01 0.15819349E+04</pdfrwt>
<totfact> 0.33509033E+01</totfact>
</mgrwt>
</event>
<event>
12    7  0.1611233E-007  0.1728292E+04  0.7818608E-02  0.8745391E-01
         -1   -1    0    0    0  501 -0.00000000000E+00  0.00000000000E+00  0.19685006907E+04  0.19685006907E+04  0.00000000000E+00 0.  1.
          2   -1    0    0  501    0  0.00000000000E+00 -0.00000000000E+00 -0.37934892477E+03  0.37934892477E+03  0.00000000000E+00 0. -1.
         24    2    1    2    0    0  0.72124244179E+02  0.62689748824E+03  0.81862726007E+03  0.10369654356E+04  0.83332804636E+02 0.  0.
        254    2    1    2    0    0 -0.72124244179E+02 -0.62689748824E+03  0.77052450586E+03  0.13108841799E+04  0.85235377136E+03 0.  0.
         23    2    4    4    0    0 -0.74036852657E+02 -0.26439321333E+02  0.68705238292E+03  0.69753546882E+03  0.91292169024E+02 0.  0.
         23    2    4    4    0    0  0.19126084773E+01 -0.60045816691E+03  0.83472122938E+02  0.61334871105E+03  0.93141707970E+02 0.  0.
          4    1    3    3  502    0  0.83186017873E+01  0.77540384320E+02  0.15161443440E+03  0.17049529922E+03  0.00000000000E+00 0. -1.
         -3    1    3    3    0  502  0.63805642392E+02  0.54935710392E+03  0.66701282567E+03  0.86647013638E+03  0.00000000000E+00 0.  1.
         13    1    5    5    0    0 -0.21160734897E+02 -0.45518360966E+02  0.49171906381E+03  0.49427455487E+03  0.00000000000E+00 0. -1.
        -13    1    5    5    0    0 -0.52876117759E+02  0.19079039633E+02  0.19533331911E+03  0.20326091395E+03  0.00000000000E+00 0.  1.
          4    1    6    6  503    0  0.34533804050E+02 -0.99663296764E+02  0.21938743138E+02  0.10773423223E+03  0.00000000000E+00 0.  1.
         -4    1    6    6    0  503 -0.32621195573E+02 -0.50079487015E+03  0.61533379800E+02  0.50561447882E+03  0.00000000000E+00 0. -1.
<mgrwt>
<rscale>  0 0.17282924E+04</rscale>
<asrwt>0</asrwt>
<pdfrwt beam="1">  1        2 0.58361374E-01 0.17282924E+04</pdfrwt>
<pdfrwt beam="2">  1       -1 0.30284625E+00 0.17282924E+04</pdfrwt>
<totfact> 0.29056718E+00</totfact>
</mgrwt>
</event>
<event>
12    7  0.1611233E-007  0.1918374E+04  0.7818608E-02  0.8645764E-01
          2   -1    0    0  501    0  0.00000000000E+00  0.00000000000E+00  0.58142856110E+03  0.58142856110E+03  0.00000000000E+00 0. -1.
         -1   -1    0    0    0  501 -0.00000000000E+00 -0.00000000000E+00 -0.15823773791E+04  0.15823773791E+04  0.00000000000E+00 0.  1.
         24    2    1    2    0    0 -0.18709708004E+03 -0.33617867296E+03  0.32996243881E+03  0.51324891238E+03  0.80794910255E+02 0.  0.
        254    2    1    2    0    0  0.18709708004E+03  0.33617867296E+03 -0.13309112568E+04  0.16505570278E+04  0.89721363737E+03 0.  0.
         23    2    4    4    0    0 -0.86323345913E+02  0.50256492330E+03 -0.37888336142E+03  0.64190791110E+03  0.92032290999E+02 0.  0.
         23    2    4    4    0    0  0.27342042596E+03 -0.16638625034E+03 -0.95202789540E+03  0.10086491167E+04  0.92589488879E+02 0.  0.
          2    1    3    3  502    0 -0.78273122636E+02 -0.12473204709E+03  0.17807667011E+03  0.23107588739E+03  0.00000000000E+00 0. -1.
         -1    1    3    3    0  502 -0.10882395741E+03 -0.21144662587E+03  0.15188576871E+03  0.28217302499E+03  0.00000000000E+00 0.  1.
         13    1    5    5    0    0 -0.76973768592E+02  0.18399969804E+03 -0.14773458224E+03  0.24820627857E+03  0.00000000000E+00 0. -1.
        -13    1    5    5    0    0 -0.93495773211E+01  0.31856522525E+03 -0.23114877919E+03  0.39370163253E+03  0.00000000000E+00 0.  1.
          3    1    6    6  503    0  0.18492110528E+03 -0.59363005735E+02 -0.54285244997E+03  0.57654883927E+03  0.00000000000E+00 0. -1.
         -3    1    6    6    0  503  0.88499320675E+02 -0.10702324460E+03 -0.40917544543E+03  0.43210027747E+03  0.00000000000E+00 0.  1.
<mgrwt>
<rscale>  0 0.19183737E+04</rscale>
<asrwt>0</asrwt>
<pdfrwt beam="1">  1        2 0.89450549E-01 0.19183737E+04</pdfrwt>
<pdfrwt beam="2">  1       -1 0.24344267E+00 0.19183737E+04</pdfrwt>
<totfact> 0.42347447E+00</totfact>
</mgrwt>
</event>
<event>
12    7  0.1611233E-007  0.2933928E+04  0.7818608E-02  0.8262854E-01
         -1   -1    0    0    0  501 -0.00000000000E+00  0.00000000000E+00  0.10742992918E+04  0.10742992918E+04  0.00000000000E+00 0.  1.
          2   -1    0    0  501    0  0.00000000000E+00 -0.00000000000E+00 -0.20031502149E+04  0.20031502149E+04  0.00000000000E+00 0. -1.
         24    2    1    2    0    0  0.86254874055E+03  0.66252803127E+03 -0.12012615398E+04  0.16226896712E+04  0.84609454765E+02 0.  0.
        254    2    1    2    0    0 -0.86254874055E+03 -0.66252803127E+03  0.27241061679E+03  0.14547598356E+04  0.92692227990E+03 0.  0.
         23    2    4    4    0    0 -0.73890644482E+03 -0.72836471921E+03  0.51393516384E+03  0.11612695990E+04  0.88993429396E+02 0.  0.
         23    2    4    4    0    0 -0.12364229573E+03  0.65836687942E+02 -0.24152454704E+03  0.29349023659E+03  0.90446256839E+02 0.  0.
          4    1    3    3  502    0  0.44077855760E+03  0.32072198566E+03 -0.66115773135E+03  0.85690015443E+03  0.00000000000E+00 0. -1.
         -3    1    3    3    0  502  0.42177018295E+03  0.34180604561E+03 -0.54010380849E+03  0.76578951676E+03  0.00000000000E+00 0.  1.
         13    1    5    5    0    0 -0.30453817065E+03 -0.28535163172E+03  0.25424182896E+03  0.48867981204E+03  0.00000000000E+00 0. -1.
        -13    1    5    5    0    0 -0.43436827417E+03 -0.44301308749E+03  0.25969333487E+03  0.67258978692E+03  0.00000000000E+00 0.  1.
          2    1    6    6  503    0 -0.98814101711E+02  0.88749934935E+02 -0.19720498577E+03  0.23776161183E+03  0.00000000000E+00 0. -1.
         -2    1    6    6    0  503 -0.24828194018E+02 -0.22913246993E+02 -0.44319561274E+02  0.55728624758E+02  0.00000000000E+00 0.  1.
<mgrwt>
<rscale>  0 0.29339276E+04</rscale>
<asrwt>0</asrwt>
<pdfrwt beam="1">  1        2 0.30817695E+00 0.29339276E+04</pdfrwt>
<pdfrwt beam="2">  1       -1 0.16527682E+00 0.29339276E+04</pdfrwt>
<totfact> 0.17376150E+00</totfact>
</mgrwt>
</event>
<event>
12    7  0.1611233E-007  0.1517899E+04  0.7818608E-02  0.8872637E-01
         -1   -1    0    0    0  501 -0.00000000000E+00  0.00000000000E+00  0.46315756771E+03  0.46315756771E+03  0.00000000000E+00 0.  1.
          2   -1    0    0  501    0  0.00000000000E+00 -0.00000000000E+00 -0.12436471651E+04  0.12436471651E+04  0.00000000000E+00 0. -1.
         24    2    1    2    0    0 -0.43661447015E+03  0.84739741507E+02 -0.47403951802E+03  0.65486617500E+03  0.79518697046E+02 0.  0.
        254    2    1    2    0    0  0.43661447015E+03 -0.84739741507E+02 -0.30645007942E+03  0.10519385579E+04  0.90269045580E+03 0.  0.
         23    2    4    4    0    0  0.38129547023E+01  0.82205191944E+02 -0.51789327276E+03  0.53218789444E+03  0.90764975705E+02 0.  0.
         23    2    4    4    0    0  0.43280151545E+03 -0.16694493345E+03  0.21144319334E+03  0.51975066341E+03  0.10121642913E+03 0.  0.
          2    1    3    3  502    0 -0.27014805745E+03  0.54698935088E+02 -0.34791848428E+03  0.44386846942E+03  0.00000000000E+00 0. -1.
         -3    1    3    3    0  502 -0.16646641270E+03  0.30040806419E+02 -0.12612103374E+03  0.21099770558E+03  0.00000000000E+00 0.  1.
         13    1    5    5    0    0  0.33559303133E+02  0.44107019418E+02 -0.13036594852E+03  0.14165781490E+03  0.00000000000E+00 0. -1.
        -13    1    5    5    0    0 -0.29746348430E+02  0.38098172526E+02 -0.38752732424E+03  0.39053007954E+03  0.00000000000E+00 0.  1.
          4    1    6    6  503    0  0.31040294172E+02  0.14025321795E+02  0.12496458095E+02  0.36281827113E+02  0.00000000000E+00 0. -1.
         -4    1    6    6    0  503  0.40176122128E+03 -0.18097025525E+03  0.19894673525E+03  0.48346883630E+03  0.00000000000E+00 0.  1.
<mgrwt>
<rscale>  0 0.15178993E+04</rscale>
<asrwt>0</asrwt>
<pdfrwt beam="1">  1        2 0.19133033E+00 0.15178993E+04</pdfrwt>
<pdfrwt beam="2">  1       -1 0.71255010E-01 0.15178993E+04</pdfrwt>
<totfact> 0.39041050E+01</totfact>
</mgrwt>
</event>
<event>
12    7  0.1611233E-007  0.1414867E+04  0.7818608E-02  0.8943127E-01
         -1   -1    0    0    0  501 -0.00000000000E+00  0.00000000000E+00  0.42639162294E+03  0.42639162294E+03  0.00000000000E+00 0.  1.
          2   -1    0    0  501    0  0.00000000000E+00 -0.00000000000E+00 -0.11737143914E+04  0.11737143914E+04  0.00000000000E+00 0. -1.
         24    2    1    2    0    0 -0.97863225844E+02 -0.26202825591E+03 -0.58221811820E+03  0.65085464475E+03  0.79986333556E+02 0.  0.
        254    2    1    2    0    0  0.97863225844E+02  0.26202825591E+03 -0.16510465029E+03  0.94925136962E+03  0.89195437065E+03 0.  0.
         23    2    4    4    0    0  0.18769561684E+03 -0.26488948412E+03  0.89286543541E+02  0.35027898519E+03  0.96577415724E+02 0.  0.
         23    2    4    4    0    0 -0.89832390999E+02  0.52691774003E+03 -0.25439119383E+03  0.59897238444E+03  0.91328388745E+02 0.  0.
          2    1    3    3  502    0 -0.10330244855E+03 -0.17137099974E+03 -0.40076373918E+03  0.44794083322E+03  0.00000000000E+00 0. -1.
         -1    1    3    3    0  502  0.54392227013E+01 -0.90657256173E+02 -0.18145437903E+03  0.20291381153E+03  0.00000000000E+00 0.  1.
         13    1    5    5    0    0  0.43354785346E+02 -0.17359769679E+02  0.35671305780E+02  0.58765985670E+02  0.00000000000E+00 0. -1.
        -13    1    5    5    0    0  0.14434083150E+03 -0.24752971444E+03  0.53615237762E+02  0.29151299952E+03  0.00000000000E+00 0.  1.
          1    1    6    6  503    0 -0.24279703124E+02  0.70420387137E+02 -0.49426610496E+01  0.74652292708E+02  0.00000000000E+00 0. -1.
         -1    1    6    6    0  503 -0.65552687876E+02  0.45649735289E+03 -0.24944853278E+03  0.52432009173E+03  0.00000000000E+00 0.  1.
<mgrwt>
<rscale>  0 0.14148668E+04</rscale>
<asrwt>0</asrwt>
<pdfrwt beam="1">  1        2 0.18057144E+00 0.14148668E+04</pdfrwt>
<pdfrwt beam="2">  1       -1 0.65598712E-01 0.14148668E+04</pdfrwt>
<totfact> 0.51299992E+01</totfact>
</mgrwt>
</event>
<event>
12    7  0.1611233E-007  0.1631830E+04  0.7818608E-02  0.8801229E-01
         -1   -1    0    0    0  501 -0.00000000000E+00  0.00000000000E+00  0.31103573393E+03  0.31103573393E+03  0.00000000000E+00 0.  1.
          2   -1    0    0  501    0  0.00000000000E+00 -0.00000000000E+00 -0.21403232934E+04  0.21403232934E+04  0.00000000000E+00 0. -1.
         24    2    1    2    0    0  0.12788170304E+03 -0.25681349447E+03  0.88414070858E+02  0.31026937412E+03  0.78378158181E+02 0.  0.
        254    2    1    2    0    0 -0.12788170304E+03  0.25681349447E+03 -0.19177016304E+04  0.21410896533E+04  0.90795289484E+03 0.  0.
         23    2    4    4    0    0 -0.20057001678E+03  0.45241065657E+03 -0.18278369635E+04  0.18958062806E+04  0.90497262711E+02 0.  0.
         23    2    4    4    0    0  0.72688313739E+02 -0.19559716210E+03 -0.89864666853E+02  0.24528337266E+03  0.92446924100E+02 0.  0.
          4    1    3    3  502    0  0.41052047258E+02 -0.13210751993E+03  0.75913328274E+02  0.15779892527E+03  0.00000000000E+00 0. -1.
         -3    1    3    3    0  502  0.86829655787E+02 -0.12470597454E+03  0.12500742583E+02  0.15247044886E+03  0.00000000000E+00 0.  1.
         13    1    5    5    0    0 -0.11541679883E+03  0.35416272396E+03 -0.13936092812E+04  0.14425321837E+04  0.00000000000E+00 0.  1.
        -13    1    5    5    0    0 -0.85153217955E+02  0.98247932609E+02 -0.43422768232E+03  0.45327409685E+03  0.00000000000E+00 0. -1.
          2    1    6    6  503    0  0.59716983794E+02 -0.75200897072E+02 -0.77804293929E+02  0.12359126679E+03  0.00000000000E+00 0. -1.
         -2    1    6    6    0  503  0.12971329945E+02 -0.12039626503E+03 -0.12060372924E+02  0.12169210586E+03  0.00000000000E+00 0.  1.
<mgrwt>
<rscale>  0 0.16318297E+04</rscale>
<asrwt>0</asrwt>
<pdfrwt beam="1">  1        2 0.32928051E+00 0.16318297E+04</pdfrwt>
<pdfrwt beam="2">  1       -1 0.47851650E-01 0.16318297E+04</pdfrwt>
<totfact> 0.26529122E+01</totfact>
</mgrwt>
</event>
<event>
12    7  0.1611233E-007  0.1645579E+04  0.7818608E-02  0.8793026E-01
          2   -1    0    0  501    0  0.00000000000E+00  0.00000000000E+00  0.49485605820E+03  0.49485605820E+03  0.00000000000E+00 0. -1.
         -1   -1    0    0    0  501 -0.00000000000E+00 -0.00000000000E+00 -0.13680387832E+04  0.13680387832E+04  0.00000000000E+00 0.  1.
         24    2    1    2    0    0  0.34104587446E+03  0.27295398203E+02 -0.82638978925E+03  0.89782924487E+03  0.78230057665E+02 0.  0.
        254    2    1    2    0    0 -0.34104587446E+03 -0.27295398203E+02 -0.46792935734E+02  0.96506559651E+03  0.90116851892E+03 0.  0.
         23    2    4    4    0    0 -0.27529601812E+03  0.24708780500E+03  0.31722185010E+03  0.49548232278E+03  0.89625604777E+02 0.  0.
         23    2    4    4    0    0 -0.65749856339E+02 -0.27438320320E+03 -0.36401478583E+03  0.46958327373E+03  0.91610593588E+02 0.  0.
          4    1    3    3  502    0  0.11691975411E+03 -0.26790934896E+02 -0.30486283943E+03  0.32761155957E+03  0.00000000000E+00 0. -1.
         -3    1    3    3    0  502  0.22412612035E+03  0.54086333100E+02 -0.52152694981E+03  0.57021768530E+03  0.00000000000E+00 0.  1.
         13    1    5    5    0    0 -0.23845592625E+02  0.61520188395E+02  0.76402295131E+02  0.10094878191E+03  0.00000000000E+00 0.  1.
        -13    1    5    5    0    0 -0.25145042549E+03  0.18556761661E+03  0.24081955497E+03  0.39453354087E+03  0.00000000000E+00 0. -1.
          2    1    6    6  503    0  0.13302016548E+01 -0.15093743001E+03 -0.23210317343E+03  0.27686776687E+03  0.00000000000E+00 0. -1.
         -2    1    6    6    0  503 -0.67080057994E+02 -0.12344577319E+03 -0.13191161240E+03  0.19271550686E+03  0.00000000000E+00 0.  1.
<mgrwt>
<rscale>  0 0.16455787E+04</rscale>
<asrwt>0</asrwt>
<pdfrwt beam="1">  1        2 0.76131702E-01 0.16455787E+04</pdfrwt>
<pdfrwt beam="2">  1       -1 0.21046750E+00 0.16455787E+04</pdfrwt>
<totfact> 0.86870239E+00</totfact>
</mgrwt>
</event>
<event>
12    7  0.1611233E-007  0.1476468E+04  0.7818608E-02  0.8900254E-01
         -1   -1    0    0    0  501 -0.00000000000E+00  0.00000000000E+00  0.33898981820E+03  0.33898981820E+03  0.00000000000E+00 0.  1.
          2   -1    0    0  501    0  0.00000000000E+00 -0.00000000000E+00 -0.16076856856E+04  0.16076856856E+04  0.00000000000E+00 0. -1.
         24    2    1    2    0    0  0.22357139079E+03  0.14912495338E+03  0.90325638066E+02  0.29412722528E+03  0.78292306496E+02 0.  0.
        254    2    1    2    0    0 -0.22357139079E+03 -0.14912495338E+03 -0.13590215055E+04  0.16525482785E+04  0.90097388532E+03 0.  0.
         23    2    4    4    0    0  0.34218062118E+03 -0.41813419982E+02 -0.49423840105E+03  0.60961087679E+03  0.92292385547E+02 0.  0.
         23    2    4    4    0    0 -0.56575201197E+03 -0.10731153340E+03 -0.86478310443E+03  0.10429374017E+04  0.90980778152E+02 0.  0.
          4    1    3    3  502    0  0.14534062463E+03  0.61432268840E+02  0.25256191295E+02  0.15979892372E+03  0.00000000000E+00 0. -1.
         -3    1    3    3    0  502  0.78230766152E+02  0.87692684543E+02  0.65069446771E+02  0.13432830155E+03  0.00000000000E+00 0.  1.
         13    1    5    5    0    0  0.30669151913E+03 -0.64567941273E+01 -0.42313673805E+03  0.52263378879E+03  0.00000000000E+00 0. -1.
        -13    1    5    5    0    0  0.35489102049E+02 -0.35356625855E+02 -0.71101662998E+02  0.86977088001E+02  0.00000000000E+00 0.  1.
          1    1    6    6  503    0 -0.54412696718E+03 -0.86235413985E+02 -0.83612152651E+03  0.10013041047E+04  0.00000000000E+00 0. -1.
         -1    1    6    6    0  503 -0.21625044785E+02 -0.21076119416E+02 -0.28661577916E+02  0.41633297014E+02  0.00000000000E+00 0.  1.
<mgrwt>
<rscale>  0 0.14764675E+04</rscale>
<asrwt>0</asrwt>
<pdfrwt beam="1">  1        2 0.24733625E+00 0.14764675E+04</pdfrwt>
<pdfrwt beam="2">  1       -1 0.52152281E-01 0.14764675E+04</pdfrwt>
<totfact> 0.45083016E+01</totfact>
</mgrwt>
</event>
<event>
12    7  0.1611233E-007  0.1062162E+04  0.7818608E-02  0.9242877E-01
          2   -1    0    0  501    0  0.00000000000E+00  0.00000000000E+00  0.16422888137E+04  0.16422888137E+04  0.00000000000E+00 0. -1.
         -1   -1    0    0    0  501 -0.00000000000E+00 -0.00000000000E+00 -0.17174008056E+03  0.17174008056E+03  0.00000000000E+00 0.  1.
         24    2    1    2    0    0  0.13183035522E+03 -0.39938391077E+02  0.25633521725E+03  0.30269786655E+03  0.83330289628E+02 0.  0.
        254    2    1    2    0    0 -0.13183035522E+03  0.39938391077E+02  0.12142135159E+04  0.15113310277E+04  0.88928774622E+03 0.  0.
         23    2    4    4    0    0  0.15002994577E+03  0.39083769769E+03  0.70879015129E+03  0.82832340527E+03  0.92049413779E+02 0.  0.
         23    2    4    4    0    0 -0.28186030099E+03 -0.35089930662E+03  0.50542336462E+03  0.68300762248E+03  0.92038482190E+02 0.  0.
          2    1    3    3  502    0  0.48329033879E+02  0.97059401271E+01  0.15355717122E+03  0.16127524801E+03  0.00000000000E+00 0. -1.
         -1    1    3    3    0  502  0.83501321339E+02 -0.49644331204E+02  0.10277804603E+03  0.14142261853E+03  0.00000000000E+00 0.  1.
         13    1    5    5    0    0 -0.54522139519E+01  0.84796172865E+02  0.12674884741E+03  0.15259550416E+03  0.00000000000E+00 0. -1.
        -13    1    5    5    0    0  0.15548215972E+03  0.30604152483E+03  0.58204130388E+03  0.67572790111E+03  0.00000000000E+00 0.  1.
          4    1    6    6  503    0 -0.16365953043E+03 -0.26365588077E+03  0.37313909465E+03  0.48531603035E+03  0.00000000000E+00 0. -1.
         -4    1    6    6    0  503 -0.11820077056E+03 -0.87243425847E+02  0.13228426997E+03  0.19769159213E+03  0.00000000000E+00 0.  1.
<mgrwt>
<rscale>  0 0.10621616E+04</rscale>
<asrwt>0</asrwt>
<pdfrwt beam="1">  1        2 0.25265981E+00 0.10621616E+04</pdfrwt>
<pdfrwt beam="2">  1       -1 0.26421552E-01 0.10621616E+04</pdfrwt>
<totfact> 0.15241703E+02</totfact>
</mgrwt>
</event>
<event>
12    7  0.1611233E-007  0.3008962E+04  0.7818608E-02  0.8241176E-01
         -1   -1    0    0    0  501 -0.00000000000E+00  0.00000000000E+00  0.76159402507E+03  0.76159402507E+03  0.00000000000E+00 0.  1.
          2   -1    0    0  501    0  0.00000000000E+00 -0.00000000000E+00 -0.29720083365E+04  0.29720083365E+04  0.00000000000E+00 0. -1.
         24    2    1    2    0    0  0.11647302215E+04 -0.71997550409E+03 -0.99879749393E+03  0.16966635320E+04  0.78163236844E+02 0.  0.
        254    2    1    2    0    0 -0.11647302215E+04  0.71997550409E+03 -0.12116168175E+04  0.20369388295E+04  0.89785481431E+03 0.  0.
         23    2    4    4    0    0 -0.29292487248E+03  0.59489650987E+03 -0.84808317910E+03  0.10805062526E+04  0.92422101244E+02 0.  0.
         23    2    4    4    0    0 -0.87180534900E+03  0.12507899422E+03 -0.36353363837E+03  0.95643257697E+03  0.83169986898E+02 0.  0.
          4    1    3    3  502    0  0.10921031831E+02 -0.16758630072E+02 -0.19055692130E+02  0.27626798959E+02  0.00000000000E+00 0. -1.
         -3    1    3    3    0  502  0.11538091897E+04 -0.70321687402E+03 -0.97974180180E+03  0.16690367330E+04  0.00000000000E+00 0.  1.
         13    1    5    5    0    0 -0.67898778615E+02  0.19109642301E+03 -0.31809532749E+03  0.37724358761E+03  0.00000000000E+00 0. -1.
        -13    1    5    5    0    0 -0.22502609387E+03  0.40380008686E+03 -0.52998785161E+03  0.70326266496E+03  0.00000000000E+00 0.  1.
          4    1    6    6  503    0 -0.59631365603E+03  0.94582134367E+02 -0.28923906482E+03  0.66947366874E+03  0.00000000000E+00 0. -1.
         -4    1    6    6    0  503 -0.27549169297E+03  0.30496859855E+02 -0.74294573544E+02  0.28695890823E+03  0.00000000000E+00 0.  1.
<mgrwt>
<rscale>  0 0.30089625E+04</rscale>
<asrwt>0</asrwt>
<pdfrwt beam="1">  1        2 0.45723204E+00 0.30089625E+04</pdfrwt>
<pdfrwt beam="2">  1       -1 0.11716831E+00 0.30089625E+04</pdfrwt>
<totfact> 0.11553987E+00</totfact>
</mgrwt>
</event>
<event>
12    7  0.1611233E-007  0.1537074E+04  0.7818608E-02  0.8860167E-01
          2   -1    0    0  501    0  0.00000000000E+00  0.00000000000E+00  0.21435709037E+03  0.21435709037E+03  0.00000000000E+00 0. -1.
         -1   -1    0    0    0  501 -0.00000000000E+00 -0.00000000000E+00 -0.27554450411E+04  0.27554450411E+04  0.00000000000E+00 0.  1.
         24    2    1    2    0    0 -0.44059221178E+03 -0.21897182033E+03 -0.66994596040E+03  0.83493565692E+03  0.78865747679E+02 0.  0.
        254    2    1    2    0    0  0.44059221178E+03  0.21897182033E+03 -0.18711419904E+04  0.21348664746E+04  0.90244798244E+03 0.  0.
         23    2    4    4    0    0  0.25181890762E+03 -0.21953092966E+03 -0.14531451934E+04  0.14938481690E+04  0.91349919179E+02 0.  0.
         23    2    4    4    0    0  0.18877330416E+03  0.43850274998E+03 -0.41799679700E+03  0.64101830557E+03  0.90901725365E+02 0.  0.
          2    1    3    3  502    0 -0.42373361703E+03 -0.22222355385E+03 -0.62718443596E+03  0.78885600891E+03  0.00000000000E+00 0. -1.
         -1    1    3    3    0  502 -0.16858594757E+02  0.32517335265E+01 -0.42761524434E+02  0.46079648003E+02  0.00000000000E+00 0.  1.
         13    1    5    5    0    0  0.16351852910E+03 -0.19490444921E+03 -0.10423522344E+04  0.10729511798E+04  0.00000000000E+00 0.  1.
        -13    1    5    5    0    0  0.88300378519E+02 -0.24626480445E+02 -0.41079295894E+03  0.42089698918E+03  0.00000000000E+00 0. -1.
          3    1    6    6  503    0  0.73940433543E+02  0.28162914334E+03 -0.23781509227E+03  0.37594970435E+03  0.00000000000E+00 0. -1.
         -3    1    6    6    0  503  0.11483287062E+03  0.15687360664E+03 -0.18018170473E+03  0.26506860122E+03  0.00000000000E+00 0.  1.
<mgrwt>
<rscale>  0 0.15370741E+04</rscale>
<asrwt>0</asrwt>
<pdfrwt beam="1">  1        2 0.32978017E-01 0.15370741E+04</pdfrwt>
<pdfrwt beam="2">  1       -1 0.42391459E+00 0.15370741E+04</pdfrwt>
<totfact> 0.87104686E-01</totfact>
</mgrwt>
</event>
<event>
12    7  0.1611233E-007  0.3826430E+04  0.7818608E-02  0.8040507E-01
         -3   -1    0    0    0  501 -0.00000000000E+00  0.00000000000E+00  0.17426186146E+04  0.17426186146E+04  0.00000000000E+00 0.  1.
          2   -1    0    0  501    0  0.00000000000E+00 -0.00000000000E+00 -0.21005122430E+04  0.21005122430E+04  0.00000000000E+00 0. -1.
         24    2    1    2    0    0  0.15729015783E+04  0.88161261843E+03 -0.27547008498E+03  0.18257523735E+04  0.78916270178E+02 0.  0.
        254    2    1    2    0    0 -0.15729015783E+04 -0.88161261843E+03 -0.82423543404E+02  0.20173784840E+04  0.90097842551E+03 0.  0.
         23    2    4    4    0    0 -0.44643819729E+03  0.14223363489E+03  0.83125121934E+02  0.48344875859E+03  0.85296221442E+02 0.  0.
         23    2    4    4    0    0 -0.11264633810E+04 -0.10238462533E+04 -0.16554866534E+03  0.15339297254E+04  0.91395529110E+02 0.  0.
          2    1    3    3  502    0  0.51428751807E+02  0.43766961581E+02 -0.29932454004E+01  0.67597507029E+02  0.00000000000E+00 0. -1.
         -1    1    3    3    0  502  0.15214728265E+04  0.83784565685E+03 -0.27247683958E+03  0.17581548665E+04  0.00000000000E+00 0.  1.
         13    1    5    5    0    0 -0.42686718913E+03  0.15268732016E+03  0.84729576729E+02  0.46120290119E+03  0.00000000000E+00 0.  1.
        -13    1    5    5    0    0 -0.19571008157E+02 -0.10453685274E+02 -0.16044547942E+01  0.22245857396E+02  0.00000000000E+00 0. -1.
          1    1    6    6  503    0 -0.70849374734E+03 -0.69908237119E+03 -0.92866470139E+02  0.99965180589E+03  0.00000000000E+00 0. -1.
         -1    1    6    6    0  503 -0.41796963368E+03 -0.32476388212E+03 -0.72682195199E+02  0.53427791954E+03  0.00000000000E+00 0.  1.
<mgrwt>
<rscale>  0 0.38264301E+04</rscale>
<asrwt>0</asrwt>
<pdfrwt beam="1">  1        2 0.32315573E+00 0.38264301E+04</pdfrwt>
<pdfrwt beam="2">  1       -3 0.26809517E+00 0.38264301E+04</pdfrwt>
<totfact> 0.17030112E-01</totfact>
</mgrwt>
</event>
<event>
12    7  0.1611233E-007  0.1992327E+04  0.7818608E-02  0.8610216E-01
          2   -1    0    0  501    0  0.00000000000E+00  0.00000000000E+00  0.17920739650E+04  0.17920739650E+04  0.00000000000E+00 0. -1.
         -1   -1    0    0    0  501 -0.00000000000E+00 -0.00000000000E+00 -0.55373929002E+03  0.55373929002E+03  0.00000000000E+00 0.  1.
         24    2    1    2    0    0  0.78629812430E+03 -0.10500911675E+02  0.41181287394E+03  0.89135415600E+03  0.80915875222E+02 0.  0.
        254    2    1    2    0    0 -0.78629812430E+03  0.10500911675E+02  0.82652180101E+03  0.14544590990E+04  0.90218511051E+03 0.  0.
         23    2    4    4    0    0 -0.89020871615E+03  0.14380617239E+03  0.40765720135E+03  0.99364233778E+03  0.89380803833E+02 0.  0.
         23    2    4    4    0    0  0.10391059185E+03 -0.13330526072E+03  0.41886459966E+03  0.46081676119E+03  0.91306247942E+02 0.  0.
          2    1    3    3  502    0  0.12738292279E-01 -0.22170457680E+01 -0.18207220516E+01  0.28688818363E+01  0.00000000000E+00 0. -1.
         -1    1    3    3    0  502  0.78628538600E+03 -0.82838659070E+01  0.41363359599E+03  0.88848527417E+03  0.00000000000E+00 0.  1.
         13    1    5    5    0    0 -0.53696729644E+03  0.94766637943E+02  0.29319635475E+03  0.61909506181E+03  0.00000000000E+00 0. -1.
        -13    1    5    5    0    0 -0.35324141971E+03  0.49039534452E+02  0.11446084660E+03  0.37454727597E+03  0.00000000000E+00 0.  1.
          4    1    6    6  503    0  0.10401241393E+03 -0.12209102395E+03  0.41996304577E+03  0.44954839583E+03  0.00000000000E+00 0.  1.
         -4    1    6    6    0  503 -0.10182207839E+00 -0.11214236774E+02 -0.10984461082E+01  0.11268365366E+02  0.00000000000E+00 0. -1.
<mgrwt>
<rscale>  0 0.19923270E+04</rscale>
<asrwt>0</asrwt>
<pdfrwt beam="1">  1        2 0.27570369E+00 0.19923270E+04</pdfrwt>
<pdfrwt beam="2">  1       -1 0.85190660E-01 0.19923270E+04</pdfrwt>
<totfact> 0.12572196E+01</totfact>
</mgrwt>
</event>
<event>
12    7  0.1611233E-007  0.1446159E+04  0.7818608E-02  0.8921068E-01
         -1   -1    0    0    0  501 -0.00000000000E+00  0.00000000000E+00  0.15770517197E+03  0.15770517197E+03  0.00000000000E+00 0.  1.
          2   -1    0    0  501    0  0.00000000000E+00 -0.00000000000E+00 -0.33153265464E+04  0.33153265464E+04  0.00000000000E+00 0. -1.
         24    2    1    2    0    0 -0.10958068390E+03 -0.54996509551E+02  0.32230396470E+02  0.15143562961E+03  0.82833623076E+02 0.  0.
        254    2    1    2    0    0  0.10958068390E+03  0.54996509551E+02 -0.31898517709E+04  0.33215960887E+04  0.91804886266E+03 0.  0.
         23    2    4    4    0    0 -0.37944989603E+02  0.36755465830E+03 -0.62136360862E+03  0.72865565865E+03  0.91159671405E+02 0.  0.
         23    2    4    4    0    0  0.14752567351E+03 -0.31255814874E+03 -0.25684881622E+04  0.25929404301E+04  0.82171854552E+02 0.  0.
          4    1    3    3  502    0 -0.72026415730E+02 -0.50922182960E+02 -0.16540554097E+02  0.89746661276E+02  0.00000000000E+00 0. -1.
         -3    1    3    3    0  502 -0.37554268173E+02 -0.40743265912E+01  0.48770950567E+02  0.61688968336E+02  0.00000000000E+00 0.  1.
         13    1    5    5    0    0 -0.15019024283E+02  0.11218893784E+02 -0.64286858476E+02  0.66964429668E+02  0.00000000000E+00 0.  1.
        -13    1    5    5    0    0 -0.22925965319E+02  0.35633576451E+03 -0.55707675015E+03  0.66169122898E+03  0.00000000000E+00 0. -1.
          4    1    6    6  503    0 -0.19964612901E+01 -0.64364727151E+02 -0.55128950392E+03  0.55503776546E+03  0.00000000000E+00 0. -1.
         -4    1    6    6    0  503  0.14952213480E+03 -0.24819342159E+03 -0.20171986583E+04  0.20379026646E+04  0.00000000000E+00 0.  1.
<mgrwt>
<rscale>  0 0.14461592E+04</rscale>
<asrwt>0</asrwt>
<pdfrwt beam="1">  1        2 0.51005025E+00 0.14461592E+04</pdfrwt>
<pdfrwt beam="2">  1       -1 0.24262334E-01 0.14461592E+04</pdfrwt>
<totfact> 0.17946601E+01</totfact>
</mgrwt>
</event>
<event>
12    7  0.1611233E-007  0.1662366E+04  0.7818608E-02  0.8783124E-01
         -1   -1    0    0    0  501 -0.00000000000E+00  0.00000000000E+00  0.90186873271E+03  0.90186873271E+03  0.00000000000E+00 0.  1.
          2   -1    0    0  501    0  0.00000000000E+00 -0.00000000000E+00 -0.76603724478E+03  0.76603724478E+03  0.00000000000E+00 0. -1.
         24    2    1    2    0    0 -0.49617960503E+03 -0.26661983199E+03  0.10644927210E+03  0.57887727437E+03  0.80542634603E+02 0.  0.
        254    2    1    2    0    0  0.49617960503E+03  0.26661983199E+03  0.29382215825E+02  0.10890287031E+04  0.93157923247E+03 0.  0.
         23    2    4    4    0    0  0.69991360844E+03  0.32640448838E+02  0.18411490301E+03  0.73060629004E+03  0.94566354267E+02 0.  0.
         23    2    4    4    0    0 -0.20373400341E+03  0.23397938315E+03 -0.15473268719E+03  0.35842241308E+03  0.90942431406E+02 0.  0.
          4    1    3    3  502    0 -0.14092884843E+03 -0.61407739893E+02 -0.47917260916E+01  0.15380120766E+03  0.00000000000E+00 0. -1.
         -3    1    3    3    0  502 -0.35525075660E+03 -0.20521209210E+03  0.11124099819E+03  0.42507606670E+03  0.00000000000E+00 0.  1.
         13    1    5    5    0    0  0.63345517406E+03  0.35740266727E+02  0.19373818512E+03  0.66338322904E+03  0.00000000000E+00 0. -1.
        -13    1    5    5    0    0  0.66458434385E+02 -0.30998178889E+01 -0.96232821034E+01  0.67223061000E+02  0.00000000000E+00 0.  1.
          2    1    6    6  503    0 -0.10522813000E+03  0.14566030996E+03 -0.41837461088E+02  0.18450002274E+03  0.00000000000E+00 0. -1.
         -2    1    6    6    0  503 -0.98505873411E+02  0.88319073188E+02 -0.11289522610E+03  0.17392239034E+03  0.00000000000E+00 0.  1.
<mgrwt>
<rscale>  0 0.16623658E+04</rscale>
<asrwt>0</asrwt>
<pdfrwt beam="1">  1        2 0.11785188E+00 0.16623658E+04</pdfrwt>
<pdfrwt beam="2">  1       -1 0.13874904E+00 0.16623658E+04</pdfrwt>
<totfact> 0.17058778E+01</totfact>
</mgrwt>
</event>
<event>
12    7  0.1611233E-007  0.3118285E+04  0.7818608E-02  0.8210738E-01
          2   -1    0    0  501    0  0.00000000000E+00  0.00000000000E+00  0.13887005260E+04  0.13887005260E+04  0.00000000000E+00 0. -1.
         -1   -1    0    0    0  501 -0.00000000000E+00 -0.00000000000E+00 -0.17505036564E+04  0.17505036564E+04  0.00000000000E+00 0.  1.
         24    2    1    2    0    0  0.52723709138E+03 -0.62514272131E+03  0.10140393039E+04  0.13050091997E+04  0.77401091639E+02 0.  0.
        254    2    1    2    0    0 -0.52723709138E+03  0.62514272131E+03 -0.13758424344E+04  0.18341949827E+04  0.89584957315E+03 0.  0.
         23    2    4    4    0    0 -0.11322910282E+03  0.75538569241E+03 -0.89170580708E+03  0.11776660823E+04  0.91267633865E+02 0.  0.
         23    2    4    4    0    0 -0.41400798857E+03 -0.13024297110E+03 -0.48413662730E+03  0.65652890038E+03  0.90972946648E+02 0.  0.
          4    1    3    3  502    0  0.42005887347E+03 -0.45900065450E+03  0.80266421584E+03  0.10155790966E+04  0.00000000000E+00 0. -1.
         -3    1    3    3    0  502  0.10717821792E+03 -0.16614206681E+03  0.21137508806E+03  0.28943010316E+03  0.00000000000E+00 0.  1.
         13    1    5    5    0    0 -0.96340367986E+02  0.60668776887E+03 -0.76835905375E+03  0.98373123915E+03  0.00000000000E+00 0.  1.
        -13    1    5    5    0    0 -0.16888734831E+02  0.14869792354E+03 -0.12334675333E+03  0.19393484315E+03  0.00000000000E+00 0. -1.
          3    1    6    6  503    0 -0.40858559576E+01  0.90212842204E+01 -0.63095720196E+01  0.11742592855E+02  0.00000000000E+00 0. -1.
         -3    1    6    6    0  503 -0.40992213261E+03 -0.13926425532E+03 -0.47782705528E+03  0.64478630753E+03  0.00000000000E+00 0.  1.
<mgrwt>
<rscale>  0 0.31182850E+04</rscale>
<asrwt>0</asrwt>
<pdfrwt beam="1">  1        2 0.21364624E+00 0.31182850E+04</pdfrwt>
<pdfrwt beam="2">  1       -1 0.26930825E+00 0.31182850E+04</pdfrwt>
<totfact> 0.74025291E-01</totfact>
</mgrwt>
</event>
<event>
12    7  0.1611233E-007  0.1691037E+04  0.7818608E-02  0.8766493E-01
         -1   -1    0    0    0  501 -0.00000000000E+00  0.00000000000E+00  0.75050623006E+03  0.75050623006E+03  0.00000000000E+00 0.  1.
          2   -1    0    0  501    0  0.00000000000E+00 -0.00000000000E+00 -0.95255937442E+03  0.95255937442E+03  0.00000000000E+00 0. -1.
         24    2    1    2    0    0 -0.59808165490E+03  0.66023872100E+02 -0.79748268889E+02  0.61237636591E+03  0.81143142153E+02 0.  0.
        254    2    1    2    0    0  0.59808165490E+03 -0.66023872100E+02 -0.12230487548E+03  0.10906892386E+04  0.90143425437E+03 0.  0.
         23    2    4    4    0    0  0.79021935599E+03 -0.34881590289E+02  0.73232922476E+02  0.79977502494E+03  0.92809879124E+02 0.  0.
         23    2    4    4    0    0 -0.19213770108E+03 -0.31142281811E+02 -0.19553779795E+03  0.29091421363E+03  0.92245928763E+02 0.  0.
          2    1    3    3  502    0 -0.21511585805E+03  0.30430428783E+02  0.97802626285E+01  0.21747757796E+03  0.00000000000E+00 0. -1.
         -1    1    3    3    0  502 -0.38296579686E+03  0.35593443317E+02 -0.89528531517E+02  0.39489878795E+03  0.00000000000E+00 0.  1.
         13    1    5    5    0    0  0.58587650435E+02 -0.11666546366E+02  0.29092559338E+02  0.66445452038E+02  0.00000000000E+00 0. -1.
        -13    1    5    5    0    0  0.73163170555E+03 -0.23215043923E+02  0.44140363139E+02  0.73332957290E+03  0.00000000000E+00 0.  1.
          4    1    6    6  503    0  0.55520105391E+01 -0.15164937032E+02 -0.22566283551E+02  0.27749545753E+02  0.00000000000E+00 0. -1.
         -4    1    6    6    0  503 -0.19768971162E+03 -0.15977344779E+02 -0.17297151440E+03  0.26316466788E+03  0.00000000000E+00 0.  1.
<mgrwt>
<rscale>  0 0.16910372E+04</rscale>
<asrwt>0</asrwt>
<pdfrwt beam="1">  1        2 0.14654760E+00 0.16910372E+04</pdfrwt>
<pdfrwt beam="2">  1       -1 0.11546250E+00 0.16910372E+04</pdfrwt>
<totfact> 0.19980223E+01</totfact>
</mgrwt>
</event>
<event>
12    7  0.1611233E-007  0.1640497E+04  0.7818608E-02  0.8796048E-01
         -1   -1    0    0    0  501 -0.00000000000E+00  0.00000000000E+00  0.21719235915E+03  0.21719235915E+03  0.00000000000E+00 0.  1.
          2   -1    0    0  501    0  0.00000000000E+00 -0.00000000000E+00 -0.30977496629E+04  0.30977496629E+04  0.00000000000E+00 0. -1.
         24    2    1    2    0    0 -0.37005774329E+03  0.32866047865E+03 -0.15767383123E+04  0.16545198800E+04  0.79824083656E+02 0.  0.
        254    2    1    2    0    0  0.37005774329E+03 -0.32866047865E+03 -0.13038189914E+04  0.16604221420E+04  0.90116440431E+03 0.  0.
         23    2    4    4    0    0  0.52408555598E+03  0.11236953900E+03 -0.58646226810E+03  0.79945457281E+03  0.88865284613E+02 0.  0.
         23    2    4    4    0    0 -0.15402781268E+03 -0.44103001765E+03 -0.71735672330E+03  0.86096756915E+03  0.91828335082E+02 0.  0.
          2    1    3    3  502    0 -0.87379950076E+02  0.76087825057E+02 -0.49176928836E+03  0.50523424841E+03  0.00000000000E+00 0. -1.
         -1    1    3    3    0  502 -0.28267779322E+03  0.25257265359E+03 -0.10849690240E+04  0.11492856316E+04  0.00000000000E+00 0.  1.
         13    1    5    5    0    0  0.41893034706E+03  0.52224671213E+02 -0.45582255782E+03  0.62129240796E+03  0.00000000000E+00 0.  1.
        -13    1    5    5    0    0  0.10515520891E+03  0.60144867785E+02 -0.13063971028E+03  0.17816216485E+03  0.00000000000E+00 0. -1.
          2    1    6    6  503    0 -0.12280448824E+02 -0.16779495578E+03 -0.25851134084E+03  0.30843811365E+03  0.00000000000E+00 0. -1.
         -2    1    6    6    0  503 -0.14174736386E+03 -0.27323506187E+03 -0.45884538246E+03  0.55252945551E+03  0.00000000000E+00 0.  1.
<mgrwt>
<rscale>  0 0.16404969E+04</rscale>
<asrwt>0</asrwt>
<pdfrwt beam="1">  1        2 0.47657685E+00 0.16404969E+04</pdfrwt>
<pdfrwt beam="2">  1       -1 0.33414210E-01 0.16404969E+04</pdfrwt>
<totfact> 0.13945274E+01</totfact>
</mgrwt>
</event>
<event>
12    7  0.1611233E-007  0.1572622E+04  0.7818608E-02  0.8837546E-01
          2   -1    0    0  501    0  0.00000000000E+00  0.00000000000E+00  0.86773239896E+03  0.86773239896E+03  0.00000000000E+00 0. -1.
         -1   -1    0    0    0  501 -0.00000000000E+00 -0.00000000000E+00 -0.71252997577E+03  0.71252997577E+03  0.00000000000E+00 0.  1.
         24    2    1    2    0    0  0.14195838974E+03 -0.25190815144E+03 -0.39629512241E+03  0.49678707864E+03  0.78343323082E+02 0.  0.
        254    2    1    2    0    0 -0.14195838974E+03  0.25190815144E+03  0.55149754561E+03  0.10834752961E+04  0.88665623173E+03 0.  0.
         23    2    4    4    0    0  0.29951377323E+03 -0.11668797315E+03  0.30253139185E+03  0.45091138032E+03  0.92039374284E+02 0.  0.
         23    2    4    4    0    0 -0.44147216297E+03  0.36859612459E+03  0.24896615376E+03  0.63256391578E+03  0.85977834837E+02 0.  0.
          4    1    3    3  502    0  0.49793849880E+02 -0.99306634081E+02 -0.92556297164E+02  0.14459565416E+03  0.00000000000E+00 0. -1.
         -3    1    3    3    0  502  0.92164539865E+02 -0.15260151736E+03 -0.30373882525E+03  0.35219142447E+03  0.00000000000E+00 0.  1.
         13    1    5    5    0    0  0.23998738016E+03 -0.12241064978E+03  0.21390515734E+03  0.34399669497E+03  0.00000000000E+00 0. -1.
        -13    1    5    5    0    0  0.59526393069E+02  0.57226766354E+01  0.88626234511E+02  0.10691468535E+03  0.00000000000E+00 0.  1.
          4    1    6    6  503    0 -0.42239601566E+03  0.37068881348E+03  0.23677663379E+03  0.60982929151E+03  0.00000000000E+00 0. -1.
         -4    1    6    6    0  503 -0.19076147316E+02 -0.20926888898E+01  0.12189519973E+02  0.22734624263E+02  0.00000000000E+00 0.  1.
<mgrwt>
<rscale>  0 0.15726225E+04</rscale>
<asrwt>0</asrwt>
<pdfrwt beam="1">  1        2 0.13349729E+00 0.15726225E+04</pdfrwt>
<pdfrwt beam="2">  1       -1 0.10962000E+00 0.15726225E+04</pdfrwt>
<totfact> 0.26043988E+01</totfact>
</mgrwt>
</event>
<event>
12    7  0.1611233E-007  0.1419824E+04  0.7818608E-02  0.8939593E-01
         -1   -1    0    0    0  501 -0.00000000000E+00  0.00000000000E+00  0.36490069044E+03  0.36490069044E+03  0.00000000000E+00 0.  1.
          2   -1    0    0  501    0  0.00000000000E+00 -0.00000000000E+00 -0.13811286284E+04  0.13811286284E+04  0.00000000000E+00 0. -1.
         24    2    1    2    0    0  0.19315135469E+03 -0.16590675436E+02 -0.75599936224E+03  0.78450029773E+03  0.79517199998E+02 0.  0.
        254    2    1    2    0    0 -0.19315135469E+03  0.16590675436E+02 -0.26022857574E+03  0.96152902113E+03  0.90511681595E+03 0.  0.
         23    2    4    4    0    0 -0.89518966851E+02  0.13260088607E+03 -0.57132036913E+03  0.60038252338E+03  0.91954172190E+02 0.  0.
         23    2    4    4    0    0 -0.10363238784E+03 -0.11601021063E+03  0.31109179339E+03  0.36114649775E+03  0.97214444085E+02 0.  0.
          4    1    3    3  502    0  0.10888804739E+03 -0.30445477764E+02 -0.55002513928E+03  0.56152576773E+03  0.00000000000E+00 0. -1.
         -3    1    3    3    0  502  0.84263307302E+02  0.13854802328E+02 -0.20597422296E+03  0.22297453000E+03  0.00000000000E+00 0.  1.
         13    1    5    5    0    0 -0.26645411224E+02  0.75167408819E+02 -0.14352286714E+03  0.16419174973E+03  0.00000000000E+00 0. -1.
        -13    1    5    5    0    0 -0.62873555627E+02  0.57433477252E+02 -0.42779750199E+03  0.43619077364E+03  0.00000000000E+00 0.  1.
          2    1    6    6  503    0 -0.66942401987E+02 -0.14976972802E+02  0.17333967615E+03  0.18641952212E+03  0.00000000000E+00 0.  1.
         -2    1    6    6    0  503 -0.36689985853E+02 -0.10103323783E+03  0.13775211724E+03  0.17472697563E+03  0.00000000000E+00 0. -1.
<mgrwt>
<rscale>  0 0.14198236E+04</rscale>
<asrwt>0</asrwt>
<pdfrwt beam="1">  1        2 0.21248133E+00 0.14198236E+04</pdfrwt>
<pdfrwt beam="2">  1       -1 0.56138568E-01 0.14198236E+04</pdfrwt>
<totfact> 0.52755277E+01</totfact>
</mgrwt>
</event>
<event>
12    7  0.1611233E-007  0.1417705E+04  0.7818608E-02  0.8941101E-01
          2   -1    0    0  501    0  0.00000000000E+00  0.00000000000E+00  0.15660060550E+04  0.15660060550E+04  0.00000000000E+00 0. -1.
         -1   -1    0    0    0  501 -0.00000000000E+00 -0.00000000000E+00 -0.32086224613E+03  0.32086224613E+03  0.00000000000E+00 0.  1.
         24    2    1    2    0    0  0.15448318196E+03  0.21648039001E+03  0.81742934433E+03  0.86327645162E+03  0.79540468848E+02 0.  0.
        254    2    1    2    0    0 -0.15448318196E+03 -0.21648039001E+03  0.42771446453E+03  0.10235918495E+04  0.89110706340E+03 0.  0.
         23    2    4    4    0    0  0.11122267917E+03  0.30463565492E+03  0.12396062237E+03  0.35830235195E+03  0.88549268233E+02 0.  0.
         23    2    4    4    0    0 -0.26570586113E+03 -0.52111604493E+03  0.30375384216E+03  0.66528949756E+03  0.90455414507E+02 0.  0.
          2    1    3    3  502    0  0.12185758180E+03  0.15721821796E+03  0.70043289148E+03  0.72812984678E+03  0.00000000000E+00 0. -1.
         -1    1    3    3    0  502  0.32625600159E+02  0.59262172042E+02  0.11699645285E+03  0.13514660484E+03  0.00000000000E+00 0.  1.
         13    1    5    5    0    0  0.79503026707E+02  0.19879592476E+03  0.36076331559E+02  0.21712220673E+03  0.00000000000E+00 0. -1.
        -13    1    5    5    0    0  0.31719652465E+02  0.10583973015E+03  0.87884290812E+02  0.14118014522E+03  0.00000000000E+00 0.  1.
          2    1    6    6  503    0 -0.21181890698E+03 -0.34814432910E+03  0.24159941702E+03  0.47375310188E+03  0.00000000000E+00 0. -1.
         -2    1    6    6    0  503 -0.53886954155E+02 -0.17297171583E+03  0.62154425142E+02  0.19153639568E+03  0.00000000000E+00 0.  1.
<mgrwt>
<rscale>  0 0.14177055E+04</rscale>
<asrwt>0</asrwt>
<pdfrwt beam="1">  1        2 0.24092400E+00 0.14177055E+04</pdfrwt>
<pdfrwt beam="2">  1       -1 0.49363424E-01 0.14177055E+04</pdfrwt>
<totfact> 0.53075636E+01</totfact>
</mgrwt>
</event>
<event>
12    7  0.1611233E-007  0.1409385E+04  0.7818608E-02  0.8947053E-01
          2   -1    0    0  501    0  0.00000000000E+00  0.00000000000E+00  0.25820162958E+04  0.25820162958E+04  0.00000000000E+00 0. -1.
         -1   -1    0    0    0  501 -0.00000000000E+00 -0.00000000000E+00 -0.19232693983E+03  0.19232693983E+03  0.00000000000E+00 0.  1.
         24    2    1    2    0    0  0.25629633244E+03 -0.83584704297E+00  0.78841729262E+02  0.28075864482E+03  0.83191884853E+02 0.  0.
        254    2    1    2    0    0 -0.25629633244E+03  0.83584704297E+00  0.23108476267E+04  0.24935845908E+04  0.90125404243E+03 0.  0.
         23    2    4    4    0    0  0.30073201463E+03 -0.42501394865E+02  0.12661899456E+04  0.13054037016E+04  0.92713174085E+02 0.  0.
         23    2    4    4    0    0 -0.55702834707E+03  0.43337241908E+02  0.10446576811E+04  0.11881808892E+04  0.91134289855E+02 0.  0.
          4    1    3    3  502    0  0.10286770632E+02 -0.56666081588E+01 -0.13546484923E+02  0.17928618235E+02  0.00000000000E+00 0. -1.
         -3    1    3    3    0  502  0.24600956181E+03  0.48307611158E+01  0.92388214185E+02  0.26283002658E+03  0.00000000000E+00 0.  1.
         13    1    5    5    0    0  0.51970240920E+02 -0.45025891706E+02  0.28016237125E+03  0.28847736675E+03  0.00000000000E+00 0.  1.
        -13    1    5    5    0    0  0.24876177371E+03  0.25244968404E+01  0.98602757436E+03  0.10169263349E+04  0.00000000000E+00 0. -1.
          3    1    6    6  503    0 -0.19312882445E+03 -0.17776151046E+02  0.30214898825E+03  0.35903864066E+03  0.00000000000E+00 0. -1.
         -3    1    6    6    0  503 -0.36389952261E+03  0.61113392954E+02  0.74250869284E+03  0.82914224853E+03  0.00000000000E+00 0.  1.
<mgrwt>
<rscale>  0 0.14093847E+04</rscale>
<asrwt>0</asrwt>
<pdfrwt beam="1">  1        2 0.39723325E+00 0.14093847E+04</pdfrwt>
<pdfrwt beam="2">  1       -1 0.29588762E-01 0.14093847E+04</pdfrwt>
<totfact> 0.36265235E+01</totfact>
</mgrwt>
</event>
<event>
12    7  0.1611233E-007  0.1931313E+04  0.7818608E-02  0.8639425E-01
          2   -1    0    0  501    0  0.00000000000E+00  0.00000000000E+00  0.65561472158E+03  0.65561472158E+03  0.00000000000E+00 0. -1.
         -1   -1    0    0    0  501 -0.00000000000E+00 -0.00000000000E+00 -0.14223173409E+04  0.14223173409E+04  0.00000000000E+00 0.  1.
         24    2    1    2    0    0  0.38298610889E+02  0.38373264874E+03  0.40265654353E+03  0.56342441281E+03  0.81223442446E+02 0.  0.
        254    2    1    2    0    0 -0.38298610889E+02 -0.38373264874E+03 -0.11693591629E+04  0.15145076497E+04  0.88182483516E+03 0.  0.
         23    2    4    4    0    0 -0.10222306626E+03 -0.47881215064E+03 -0.12471378003E+04  0.13431249725E+04  0.94452992018E+02 0.  0.
         23    2    4    4    0    0  0.63924455373E+02  0.95079501904E+02  0.77778637463E+02  0.17138267725E+03  0.10097553139E+03 0.  0.
          4    1    3    3  502    0  0.96456677666E+01  0.28650494416E+03  0.33800629211E+03  0.44320015280E+03  0.00000000000E+00 0. -1.
         -1    1    3    3    0  502  0.28652943123E+02  0.97227704579E+02  0.64650251415E+02  0.12022426001E+03  0.00000000000E+00 0.  1.
         13    1    5    5    0    0  0.16148363817E+02 -0.26216819420E+02 -0.79980610218E+02  0.85702912934E+02  0.00000000000E+00 0.  1.
        -13    1    5    5    0    0 -0.11837143008E+03 -0.45259533122E+03 -0.11671571901E+04  0.12574220595E+04  0.00000000000E+00 0. -1.
          3    1    6    6  503    0  0.41986511851E+02  0.34238894843E+02  0.90491763169E+02  0.10547003508E+03  0.00000000000E+00 0. -1.
         -3    1    6    6    0  503  0.21937943522E+02  0.60840607061E+02 -0.12713125706E+02  0.65912642177E+02  0.00000000000E+00 0.  1.
<mgrwt>
<rscale>  0 0.19313127E+04</rscale>
<asrwt>0</asrwt>
<pdfrwt beam="1">  1        2 0.10086380E+00 0.19313127E+04</pdfrwt>
<pdfrwt beam="2">  1       -1 0.21881805E+00 0.19313127E+04</pdfrwt>
<totfact> 0.53177361E+00</totfact>
</mgrwt>
</event>
<event>
12    7  0.1611233E-007  0.1731336E+04  0.7818608E-02  0.8743691E-01
         -1   -1    0    0    0  501 -0.00000000000E+00  0.00000000000E+00  0.52932860829E+03  0.52932860829E+03  0.00000000000E+00 0.  1.
          2   -1    0    0  501    0  0.00000000000E+00 -0.00000000000E+00 -0.14157207079E+04  0.14157207079E+04  0.00000000000E+00 0. -1.
         24    2    1    2    0    0 -0.24039235679E+03 -0.36544746958E+03 -0.75475290593E+03  0.87610722136E+03  0.81065258198E+02 0.  0.
        254    2    1    2    0    0  0.24039235679E+03  0.36544746958E+03 -0.13163919363E+03  0.10689420948E+04  0.96642019147E+03 0.  0.
         23    2    4    4    0    0 -0.67526067769E+02  0.56922327662E+03  0.14517602693E+03  0.59829806460E+03  0.91156935228E+02 0.  0.
         23    2    4    4    0    0  0.30791842456E+03 -0.20377580704E+03 -0.27681522056E+03  0.47064403019E+03  0.92416454690E+02 0.  0.
          2    1    3    3  502    0 -0.12332236563E+03 -0.25801703173E+03 -0.48286169864E+03  0.56119213692E+03  0.00000000000E+00 0. -1.
         -1    1    3    3    0  502 -0.11706999117E+03 -0.10743043785E+03 -0.27189120729E+03  0.31491508444E+03  0.00000000000E+00 0.  1.
         13    1    5    5    0    0 -0.51583234104E+02  0.40240604380E+03  0.59337039328E+02  0.41001504650E+03  0.00000000000E+00 0. -1.
        -13    1    5    5    0    0 -0.15942833665E+02  0.16681723282E+03  0.85838987600E+02  0.18828301810E+03  0.00000000000E+00 0.  1.
          4    1    6    6  503    0  0.24666877784E+03 -0.18295867456E+03 -0.26335499739E+03  0.40456793893E+03  0.00000000000E+00 0. -1.
         -4    1    6    6    0  503  0.61249646726E+02 -0.20817132476E+02 -0.13460223172E+02  0.66076091261E+02  0.00000000000E+00 0.  1.
<mgrwt>
<rscale>  0 0.17313364E+04</rscale>
<asrwt>0</asrwt>
<pdfrwt beam="1">  1        2 0.21780318E+00 0.17313364E+04</pdfrwt>
<pdfrwt beam="2">  1       -1 0.81435171E-01 0.17313364E+04</pdfrwt>
<totfact> 0.23026729E+01</totfact>
</mgrwt>
</event>
<event>
12    7  0.1611233E-007  0.3137851E+04  0.7818608E-02  0.8205426E-01
         -1   -1    0    0    0  501 -0.00000000000E+00  0.00000000000E+00  0.11008125150E+04  0.11008125150E+04  0.00000000000E+00 0.  1.
          2   -1    0    0  501    0  0.00000000000E+00 -0.00000000000E+00 -0.22361008258E+04  0.22361008258E+04  0.00000000000E+00 0. -1.
         24    2    1    2    0    0  0.68447664151E+02 -0.11201336676E+04 -0.14806179949E+04  0.18597074826E+04  0.83052741993E+02 0.  0.
        254    2    1    2    0    0 -0.68447664151E+02  0.11201336676E+04  0.34532968415E+03  0.14772058583E+04  0.89638163801E+03 0.  0.
         23    2    4    4    0    0 -0.13945866773E+02  0.99347767403E+03  0.60833270019E+03  0.11686135437E+04  0.91632769646E+02 0.  0.
         23    2    4    4    0    0 -0.54501797378E+02  0.12665599356E+03 -0.26300301604E+03  0.30859231454E+03  0.83943096958E+02 0.  0.
          4    1    3    3  502    0  0.83182921353E+02 -0.10463923253E+04 -0.13687943350E+04  0.17249505003E+04  0.00000000000E+00 0. -1.
         -1    1    3    3    0  502 -0.14735257202E+02 -0.73741342258E+02 -0.11182365995E+03  0.13475698233E+03  0.00000000000E+00 0.  1.
         13    1    5    5    0    0  0.11816643968E+02  0.22706677862E+03  0.98736029670E+02  0.24788658411E+03  0.00000000000E+00 0.  1.
        -13    1    5    5    0    0 -0.25762510740E+02  0.76641089540E+03  0.50959667052E+03  0.92072695961E+03  0.00000000000E+00 0. -1.
          1    1    6    6  503    0 -0.18785173113E+02  0.75017130997E+02 -0.21808961794E+03  0.23139475820E+03  0.00000000000E+00 0. -1.
         -1    1    6    6    0  503 -0.35716624265E+02  0.51638862561E+02 -0.44913398100E+02  0.77197556336E+02  0.00000000000E+00 0.  1.
<mgrwt>
<rscale>  0 0.31378514E+04</rscale>
<asrwt>0</asrwt>
<pdfrwt beam="1">  1        2 0.34401551E+00 0.31378514E+04</pdfrwt>
<pdfrwt beam="2">  1       -1 0.16935577E+00 0.31378514E+04</pdfrwt>
<totfact> 0.11795012E+00</totfact>
</mgrwt>
</event>
<event>
12    7  0.1611233E-007  0.1182523E+04  0.7818608E-02  0.9128293E-01
         -1   -1    0    0    0  501 -0.00000000000E+00  0.00000000000E+00  0.10954146174E+04  0.10954146174E+04  0.00000000000E+00 0.  1.
          2   -1    0    0  501    0  0.00000000000E+00 -0.00000000000E+00 -0.31913939587E+03  0.31913939587E+03  0.00000000000E+00 0. -1.
         24    2    1    2    0    0 -0.19304383548E+03  0.31385769761E+02  0.31820341223E+03  0.38215216707E+03  0.80844778968E+02 0.  0.
        254    2    1    2    0    0  0.19304383548E+03 -0.31385769761E+02  0.45807180935E+03  0.10324018462E+04  0.90430791253E+03 0.  0.
         23    2    4    4    0    0  0.34997948447E+03 -0.38284111063E+03  0.30259412182E+03  0.60743325817E+03  0.91427594478E+02 0.  0.
         23    2    4    4    0    0 -0.15693564900E+03  0.35145534087E+03  0.15547768753E+03  0.42496858808E+03  0.90968868177E+02 0.  0.
          4    1    3    3  502    0 -0.85896963292E+02  0.41118108201E+01  0.21228184926E+03  0.22903881508E+03  0.00000000000E+00 0. -1.
         -3    1    3    3    0  502 -0.10714687218E+03  0.27273958941E+02  0.10592156297E+03  0.15311335199E+03  0.00000000000E+00 0.  1.
         13    1    5    5    0    0  0.61630262000E+02 -0.12357177217E+03  0.94793616406E+02  0.16749358729E+03  0.00000000000E+00 0. -1.
        -13    1    5    5    0    0  0.28834922247E+03 -0.25926933847E+03  0.20780050541E+03  0.43993967088E+03  0.00000000000E+00 0.  1.
          4    1    6    6  503    0 -0.33258250544E+02  0.28872318294E+02 -0.44532707904E+01  0.44266845535E+02  0.00000000000E+00 0. -1.
         -4    1    6    6    0  503 -0.12367739845E+03  0.32258302258E+03  0.15993095832E+03  0.38070174254E+03  0.00000000000E+00 0.  1.
<mgrwt>
<rscale>  0 0.11825227E+04</rscale>
<asrwt>0</asrwt>
<pdfrwt beam="1">  1        2 0.49098369E-01 0.11825227E+04</pdfrwt>
<pdfrwt beam="2">  1       -1 0.16852532E+00 0.11825227E+04</pdfrwt>
<totfact> 0.29256015E+01</totfact>
</mgrwt>
</event>
<event>
12    7  0.1611233E-007  0.1971143E+04  0.7818608E-02  0.8620232E-01
         -1   -1    0    0    0  501 -0.00000000000E+00  0.00000000000E+00  0.15075499058E+04  0.15075499058E+04  0.00000000000E+00 0.  1.
          2   -1    0    0  501    0  0.00000000000E+00 -0.00000000000E+00 -0.64432422191E+03  0.64432422191E+03  0.00000000000E+00 0. -1.
         24    2    1    2    0    0  0.69249037229E+03  0.28177754920E+03  0.11109956776E+03  0.75992550843E+03  0.78753802841E+02 0.  0.
        254    2    1    2    0    0 -0.69249037229E+03 -0.28177754920E+03  0.75212611615E+03  0.13919486193E+04  0.90160177531E+03 0.  0.
         23    2    4    4    0    0 -0.85488406912E+03 -0.40041140392E+03  0.63516982991E+03  0.11414553936E+04  0.91233977642E+02 0.  0.
         23    2    4    4    0    0  0.16239369683E+03  0.11863385472E+03  0.11695628624E+03  0.25049322573E+03  0.92856765987E+02 0.  0.
          2    1    3    3  502    0  0.15492538549E+02  0.18171525855E+02 -0.44360959982E+01  0.24287899257E+02  0.00000000000E+00 0. -1.
         -1    1    3    3    0  502  0.67699783374E+03  0.26360602335E+03  0.11553566376E+03  0.73563760918E+03  0.00000000000E+00 0.  1.
         13    1    5    5    0    0 -0.82202968963E+03 -0.37837895116E+03  0.62737398411E+03  0.11011364844E+04  0.00000000000E+00 0. -1.
        -13    1    5    5    0    0 -0.32854379486E+02 -0.22032452762E+02  0.77958457941E+01  0.40318909184E+02  0.00000000000E+00 0.  1.
          4    1    6    6  503    0  0.16720505076E+03  0.11786056166E+03  0.90676091624E+02  0.22376504326E+03  0.00000000000E+00 0. -1.
         -4    1    6    6    0  503 -0.48113539316E+01  0.77329306030E+00  0.26280194617E+02  0.26728182465E+02  0.00000000000E+00 0.  1.
<mgrwt>
<rscale>  0 0.19711427E+04</rscale>
<asrwt>0</asrwt>
<pdfrwt beam="1">  1        2 0.99126804E-01 0.19711427E+04</pdfrwt>
<pdfrwt beam="2">  1       -1 0.23193075E+00 0.19711427E+04</pdfrwt>
<totfact> 0.44290226E+00</totfact>
</mgrwt>
</event>
<event>
12    7  0.1611233E-007  0.2274272E+04  0.7818608E-02  0.8488135E-01
         -1   -1    0    0    0  501 -0.00000000000E+00  0.00000000000E+00  0.31320731585E+03  0.31320731585E+03  0.00000000000E+00 0.  1.
          2   -1    0    0  501    0  0.00000000000E+00 -0.00000000000E+00 -0.41285074931E+04  0.41285074931E+04  0.00000000000E+00 0. -1.
         24    2    1    2    0    0  0.28899467436E+03  0.69216378282E+03 -0.44939662361E+03  0.87804160193E+03  0.79944389104E+02 0.  0.
        254    2    1    2    0    0 -0.28899467436E+03 -0.69216378282E+03 -0.33659035536E+04  0.35636732070E+04  0.89880552402E+03 0.  0.
         23    2    4    4    0    0 -0.15102846911E+03  0.52750404752E+02 -0.98588782419E+02  0.20847040530E+03  0.90266041140E+02 0.  0.
         23    2    4    4    0    0 -0.13796620525E+03 -0.74491418757E+03 -0.32673147712E+04  0.33552028017E+04  0.90045576524E+02 0.  0.
          2    1    3    3  502    0  0.21354160454E+03  0.54999348334E+03 -0.38604842987E+03  0.70507179691E+03  0.00000000000E+00 0. -1.
         -1    1    3    3    0  502  0.75453069825E+02  0.14217029947E+03 -0.63348193738E+02  0.17296980502E+03  0.00000000000E+00 0.  1.
         13    1    5    5    0    0 -0.15146617548E+03  0.23886892426E+02 -0.92139907708E+02  0.17889200244E+03  0.00000000000E+00 0. -1.
        -13    1    5    5    0    0  0.43770637013E+00  0.28863512326E+02 -0.64488747116E+01  0.29578402859E+02  0.00000000000E+00 0.  1.
          4    1    6    6  503    0 -0.89078548185E+02 -0.61768502370E+03 -0.25694602399E+04  0.26441625708E+04  0.00000000000E+00 0. -1.
         -4    1    6    6    0  503 -0.48887657069E+02 -0.12722916387E+03 -0.69785453125E+03  0.71104023089E+03  0.00000000000E+00 0.  1.
<mgrwt>
<rscale>  0 0.22742724E+04</rscale>
<asrwt>0</asrwt>
<pdfrwt beam="1">  1        2 0.63515501E+00 0.22742724E+04</pdfrwt>
<pdfrwt beam="2">  1       -1 0.48185740E-01 0.22742724E+04</pdfrwt>
<totfact> 0.12003320E+00</totfact>
</mgrwt>
</event>
<event>
12    7  0.1611233E-007  0.1944259E+04  0.7818608E-02  0.8633134E-01
          2   -1    0    0  501    0  0.00000000000E+00  0.00000000000E+00  0.91911658589E+03  0.91911658589E+03  0.00000000000E+00 0. -1.
         -1   -1    0    0    0  501 -0.00000000000E+00 -0.00000000000E+00 -0.10282000293E+04  0.10282000293E+04  0.00000000000E+00 0.  1.
         24    2    1    2    0    0 -0.34394720394E+03  0.60505966570E+03  0.26533138154E+03  0.74914948695E+03  0.80170652980E+02 0.  0.
        254    2    1    2    0    0  0.34394720394E+03 -0.60505966570E+03 -0.37441482498E+03  0.11981671283E+04  0.90056711462E+03 0.  0.
         23    2    4    4    0    0 -0.27890890759E+03 -0.32516002665E+03 -0.23019970129E+03  0.49446545107E+03  0.89358593106E+02 0.  0.
         23    2    4    4    0    0  0.62285611153E+03 -0.27989963906E+03 -0.14421512369E+03  0.70370167720E+03  0.90025024135E+02 0.  0.
          4    1    3    3  502    0 -0.13595288209E+03  0.24871941253E+03  0.15019301643E+03  0.32078415562E+03  0.00000000000E+00 0. -1.
         -3    1    3    3    0  502 -0.20799432185E+03  0.35634025318E+03  0.11513836512E+03  0.42836533132E+03  0.00000000000E+00 0.  1.
         13    1    5    5    0    0 -0.18533870377E+03 -0.22624105636E+03 -0.20191905393E+03  0.35539661652E+03  0.00000000000E+00 0. -1.
        -13    1    5    5    0    0 -0.93570203824E+02 -0.98918970287E+02 -0.28280647365E+02  0.13906883455E+03  0.00000000000E+00 0.  1.
          2    1    6    6  503    0  0.59244890656E+03 -0.24594659532E+03 -0.12189002069E+03  0.65294916477E+03  0.00000000000E+00 0. -1.
         -2    1    6    6    0  503  0.30407204973E+02 -0.33953043737E+02 -0.22325103004E+02  0.50752512425E+02  0.00000000000E+00 0.  1.
<mgrwt>
<rscale>  0 0.19442589E+04</rscale>
<asrwt>0</asrwt>
<pdfrwt beam="1">  1        2 0.14140255E+00 0.19442589E+04</pdfrwt>
<pdfrwt beam="2">  1       -1 0.15818462E+00 0.19442589E+04</pdfrwt>
<totfact> 0.91440157E+00</totfact>
</mgrwt>
</event>
<event>
12    7  0.1611233E-007  0.1236711E+04  0.7818608E-02  0.9081317E-01
          2   -1    0    0  501    0  0.00000000000E+00  0.00000000000E+00  0.40879609597E+04  0.40879609597E+04  0.00000000000E+00 0. -1.
         -1   -1    0    0    0  501 -0.00000000000E+00 -0.00000000000E+00 -0.93534058965E+02  0.93534058965E+02  0.00000000000E+00 0.  1.
         24    2    1    2    0    0  0.89241475032E+02  0.26749993464E+03  0.13028217702E+04  0.13353769717E+04  0.79792453456E+02 0.  0.
        254    2    1    2    0    0 -0.89241475032E+02 -0.26749993464E+03  0.26916051305E+04  0.28461180470E+04  0.88098212403E+03 0.  0.
         23    2    4    4    0    0  0.34472408671E+02 -0.55958814013E+03  0.20080759514E+04  0.20867871128E+04  0.89354316444E+02 0.  0.
         23    2    4    4    0    0 -0.12371388370E+03  0.29208820549E+03  0.68352917907E+03  0.75933093418E+03  0.93545091588E+02 0.  0.
          4    1    3    3  502    0  0.97812451357E+02  0.20581198955E+03  0.10932895545E+04  0.11167846259E+04  0.00000000000E+00 0. -1.
         -3    1    3    3    0  502 -0.85709763248E+01  0.61687945095E+02  0.20953221571E+03  0.21859234576E+03  0.00000000000E+00 0.  1.
         13    1    5    5    0    0 -0.29416029648E+01 -0.18995149006E+03  0.54048077030E+03  0.57289587594E+03  0.00000000000E+00 0.  1.
        -13    1    5    5    0    0  0.37414011636E+02 -0.36963665007E+03  0.14675951811E+04  0.15138912368E+04  0.00000000000E+00 0. -1.
          2    1    6    6  503    0 -0.11351546779E+03  0.16180277650E+03  0.36596116861E+03  0.41592484518E+03  0.00000000000E+00 0. -1.
         -2    1    6    6    0  503 -0.10198415913E+02  0.13028542899E+03  0.31756801047E+03  0.34340608900E+03  0.00000000000E+00 0.  1.
<mgrwt>
<rscale>  0 0.12367111E+04</rscale>
<asrwt>0</asrwt>
<pdfrwt beam="1">  1        2 0.62891693E+00 0.12367111E+04</pdfrwt>
<pdfrwt beam="2">  1       -1 0.14389858E-01 0.12367111E+04</pdfrwt>
<totfact> 0.11901189E+01</totfact>
</mgrwt>
</event>
<event>
12    7  0.1611233E-007  0.2987221E+04  0.7818608E-02  0.8247389E-01
         -1   -1    0    0    0  501 -0.00000000000E+00  0.00000000000E+00  0.99102322220E+03  0.99102322220E+03  0.00000000000E+00 0.  1.
          2   -1    0    0  501    0  0.00000000000E+00 -0.00000000000E+00 -0.22510801692E+04  0.22510801692E+04  0.00000000000E+00 0. -1.
         24    2    1    2    0    0 -0.30591099052E+03  0.13178696208E+04 -0.74157034721E+03  0.15448092310E+04  0.78403499715E+02 0.  0.
        254    2    1    2    0    0  0.30591099052E+03 -0.13178696208E+04 -0.51848659977E+03  0.16972941604E+04  0.88409119517E+03 0.  0.
         23    2    4    4    0    0 -0.45664596714E+02 -0.40455458760E+03  0.21665356627E+03  0.46994482353E+03  0.90331055846E+02 0.  0.
         23    2    4    4    0    0  0.35157558724E+03 -0.91331503317E+03 -0.73514016605E+03  0.12273493369E+04  0.90584698817E+02 0.  0.
          4    1    3    3  502    0 -0.25171646422E+03  0.10028196678E+04 -0.59759696647E+03  0.11942071004E+04  0.00000000000E+00 0. -1.
         -3    1    3    3    0  502 -0.54194526303E+02  0.31504995301E+03 -0.14397338073E+03  0.35060213053E+03  0.00000000000E+00 0.  1.
         13    1    5    5    0    0  0.24616007686E+02 -0.88687357668E+02  0.32421543593E+02  0.97583562824E+02  0.00000000000E+00 0. -1.
        -13    1    5    5    0    0 -0.70280604400E+02 -0.31586722993E+03  0.18423202268E+03  0.37236126071E+03  0.00000000000E+00 0.  1.
          4    1    6    6  503    0  0.10310243507E+03 -0.35812369048E+03 -0.24256826257E+03  0.44465947849E+03  0.00000000000E+00 0. -1.
         -4    1    6    6    0  503  0.24847315217E+03 -0.55519134269E+03 -0.49257190347E+03  0.78268985840E+03  0.00000000000E+00 0.  1.
<mgrwt>
<rscale>  0 0.29872213E+04</rscale>
<asrwt>0</asrwt>
<pdfrwt beam="1">  1        2 0.34632002E+00 0.29872213E+04</pdfrwt>
<pdfrwt beam="2">  1       -1 0.15246511E+00 0.29872213E+04</pdfrwt>
<totfact> 0.15715971E+00</totfact>
</mgrwt>
</event>
<event>
12    7  0.1611233E-007  0.1520400E+04  0.7818608E-02  0.8870999E-01
         -1   -1    0    0    0  501 -0.00000000000E+00  0.00000000000E+00  0.65392356115E+03  0.65392356115E+03  0.00000000000E+00 0.  1.
          2   -1    0    0  501    0  0.00000000000E+00 -0.00000000000E+00 -0.88374897688E+03  0.88374897688E+03  0.00000000000E+00 0. -1.
         24    2    1    2    0    0  0.95743960525E+02 -0.43027316371E+03  0.21588728864E+03  0.49763835218E+03  0.82065259217E+02 0.  0.
        254    2    1    2    0    0 -0.95743960525E+02  0.43027316371E+03 -0.44571270437E+03  0.10400341858E+04  0.82988516766E+03 0.  0.
         23    2    4    4    0    0 -0.20887649341E+03  0.33749396740E+03 -0.65416391762E+03  0.77015405513E+03  0.87608618268E+02 0.  0.
         23    2    4    4    0    0  0.11313253289E+03  0.92779196315E+02  0.20845121325E+03  0.26988013071E+03  0.89310846952E+02 0.  0.
          2    1    3    3  502    0  0.15796926204E+02 -0.10918084121E+02 -0.99109102526E-01  0.19203053429E+02  0.00000000000E+00 0. -1.
         -3    1    3    3    0  502  0.79947034320E+02 -0.41935507959E+03  0.21598639775E+03  0.47843529875E+03  0.00000000000E+00 0.  1.
         13    1    5    5    0    0 -0.24267410356E+02  0.10012236948E+03 -0.20797138317E+03  0.23208940582E+03  0.00000000000E+00 0.  1.
        -13    1    5    5    0    0 -0.18460908306E+03  0.23737159791E+03 -0.44619253445E+03  0.53806464931E+03  0.00000000000E+00 0. -1.
          1    1    6    6  503    0  0.48588329250E+02  0.13381035098E+02  0.17695452994E+02  0.53413546000E+02  0.00000000000E+00 0. -1.
         -1    1    6    6    0  503  0.64544203636E+02  0.79398161217E+02  0.19075576025E+03  0.21646658471E+03  0.00000000000E+00 0.  1.
<mgrwt>
<rscale>  0 0.15204003E+04</rscale>
<asrwt>0</asrwt>
<pdfrwt beam="1">  1        2 0.13596138E+00 0.15204003E+04</pdfrwt>
<pdfrwt beam="2">  1       -1 0.10060363E+00 0.15204003E+04</pdfrwt>
<totfact> 0.31142704E+01</totfact>
</mgrwt>
</event>
<event>
12    7  0.1611233E-007  0.1371597E+04  0.7818608E-02  0.8974639E-01
         -1   -1    0    0    0  501 -0.00000000000E+00  0.00000000000E+00  0.55351368810E+03  0.55351368810E+03  0.00000000000E+00 0.  1.
          2   -1    0    0  501    0  0.00000000000E+00 -0.00000000000E+00 -0.84969775860E+03  0.84969775860E+03  0.00000000000E+00 0. -1.
         24    2    1    2    0    0 -0.15263009967E+03 -0.11424145671E+03  0.26384413576E+03  0.33786380637E+03  0.90505060202E+02 0.  0.
        254    2    1    2    0    0  0.15263009967E+03  0.11424145671E+03 -0.56002820626E+03  0.10653476403E+04  0.88599489005E+03 0.  0.
         23    2    4    4    0    0 -0.32242920474E+03  0.21967567420E+03 -0.16782977316E+03  0.43373340445E+03  0.87976357459E+02 0.  0.
         23    2    4    4    0    0  0.47505930441E+03 -0.10543421749E+03 -0.39219843310E+03  0.63161423588E+03  0.91209731490E+02 0.  0.
          2    1    3    3  502    0 -0.13376156765E+02  0.30819510085E+01 -0.37159768775E+01  0.14220705889E+02  0.00000000000E+00 0. -1.
         -1    1    3    3    0  502 -0.13925394291E+03 -0.11732340772E+03  0.26756011264E+03  0.32364310048E+03  0.00000000000E+00 0.  1.
         13    1    5    5    0    0  0.41181985485E+01 -0.70390279156E+00 -0.71288443046E+01  0.82628965590E+01  0.00000000000E+00 0. -1.
        -13    1    5    5    0    0 -0.32654740329E+03  0.22037957699E+03 -0.16070092885E+03  0.42547050789E+03  0.00000000000E+00 0.  1.
          2    1    6    6  503    0  0.10388313210E+02  0.58497323504E+01 -0.29246430406E+02  0.31583066846E+02  0.00000000000E+00 0. -1.
         -2    1    6    6    0  503  0.46467099120E+03 -0.11128394984E+03 -0.36295200270E+03  0.60003116904E+03  0.00000000000E+00 0.  1.
<mgrwt>
<rscale>  0 0.13715966E+04</rscale>
<asrwt>0</asrwt>
<pdfrwt beam="1">  1        2 0.13072273E+00 0.13715966E+04</pdfrwt>
<pdfrwt beam="2">  1       -1 0.85155953E-01 0.13715966E+04</pdfrwt>
<totfact> 0.48225131E+01</totfact>
</mgrwt>
</event>
<event>
12    7  0.1611233E-007  0.1151529E+04  0.7818608E-02  0.9156375E-01
          2   -1    0    0  501    0  0.00000000000E+00  0.00000000000E+00  0.41814574123E+03  0.41814574123E+03  0.00000000000E+00 0. -1.
         -1   -1    0    0    0  501 -0.00000000000E+00 -0.00000000000E+00 -0.79279653203E+03  0.79279653203E+03  0.00000000000E+00 0.  1.
         24    2    1    2    0    0 -0.32283842384E+02  0.33978871682E+02 -0.28826646666E+03  0.30256271090E+03  0.79055853848E+02 0.  0.
        254    2    1    2    0    0  0.32283842384E+02 -0.33978871682E+02 -0.86384324146E+02  0.90837956236E+03  0.90304726767E+03 0.  0.
         23    2    4    4    0    0  0.49311109534E+02 -0.17379814763E+03  0.36996075058E+03  0.42196542182E+03  0.92447166551E+02 0.  0.
         23    2    4    4    0    0 -0.17027267151E+02  0.13981927595E+03 -0.45634507472E+03  0.48641414053E+03  0.92241699543E+02 0.  0.
          4    1    3    3  502    0 -0.12014081672E+02  0.20779294321E+02 -0.15164274377E+02  0.28391415046E+02  0.00000000000E+00 0. -1.
         -3    1    3    3    0  502 -0.20269760712E+02  0.13199577361E+02 -0.27310219228E+03  0.27417129585E+03  0.00000000000E+00 0.  1.
         13    1    5    5    0    0  0.40667926875E+02 -0.31684733039E+02  0.16145906502E+03  0.16948991788E+03  0.00000000000E+00 0. -1.
        -13    1    5    5    0    0  0.86431826591E+01 -0.14211341459E+03  0.20850168555E+03  0.25247550394E+03  0.00000000000E+00 0.  1.
          1    1    6    6  503    0 -0.33572730105E+02  0.64291108775E+02 -0.33324158199E+03  0.34104314513E+03  0.00000000000E+00 0. -1.
         -1    1    6    6    0  503  0.16545462955E+02  0.75528167176E+02 -0.12310349273E+03  0.14537099540E+03  0.00000000000E+00 0.  1.
<mgrwt>
<rscale>  0 0.11515285E+04</rscale>
<asrwt>0</asrwt>
<pdfrwt beam="1">  1        2 0.64330114E-01 0.11515285E+04</pdfrwt>
<pdfrwt beam="2">  1       -1 0.12196870E+00 0.11515285E+04</pdfrwt>
<totfact> 0.50965039E+01</totfact>
</mgrwt>
</event>
<event>
12    7  0.1611233E-007  0.2025515E+04  0.7818608E-02  0.8594783E-01
          2   -1    0    0  501    0  0.00000000000E+00  0.00000000000E+00  0.20163204296E+04  0.20163204296E+04  0.00000000000E+00 0. -1.
         -1   -1    0    0    0  501 -0.00000000000E+00 -0.00000000000E+00 -0.50868807116E+03  0.50868807116E+03  0.00000000000E+00 0.  1.
         24    2    1    2    0    0 -0.15538471113E+03  0.52267961129E+03 -0.13853603376E+03  0.56809825940E+03  0.78771918685E+02 0.  0.
        254    2    1    2    0    0  0.15538471113E+03 -0.52267961129E+03  0.16461683922E+04  0.19569102414E+04  0.90680148474E+03 0.  0.
         23    2    4    4    0    0 -0.25821179412E+02 -0.49209311763E+03  0.27680929717E+03  0.57233799347E+03  0.90138904183E+02 0.  0.
         23    2    4    4    0    0  0.18120589055E+03 -0.30586493657E+02  0.13693590950E+04  0.13845722479E+04  0.90138061338E+02 0.  0.
          4    1    3    3  502    0  0.13608584107E+01  0.70373600903E+02 -0.24289653690E+01  0.70428655478E+02  0.00000000000E+00 0. -1.
         -3    1    3    3    0  502 -0.15674556954E+03  0.45230601038E+03 -0.13610706839E+03  0.49766960392E+03  0.00000000000E+00 0.  1.
         13    1    5    5    0    0 -0.23195109590E+02 -0.47976849922E+02  0.99619042864E+01  0.54212828503E+02  0.00000000000E+00 0. -1.
        -13    1    5    5    0    0 -0.26260698222E+01 -0.44411626771E+03  0.26684739288E+03  0.51812516497E+03  0.00000000000E+00 0.  1.
          3    1    6    6  503    0  0.18249747354E+02  0.15790268579E+02  0.66509013062E+02  0.70751923499E+02  0.00000000000E+00 0. -1.
         -3    1    6    6    0  503  0.16295614319E+03 -0.46376762236E+02  0.13028500820E+04  0.13138203244E+04  0.00000000000E+00 0.  1.
<mgrwt>
<rscale>  0 0.20255154E+04</rscale>
<asrwt>0</asrwt>
<pdfrwt beam="1">  1        2 0.31020314E+00 0.20255154E+04</pdfrwt>
<pdfrwt beam="2">  1       -1 0.78259704E-01 0.20255154E+04</pdfrwt>
<totfact> 0.11288516E+01</totfact>
</mgrwt>
</event>
<event>
12    7  0.1611233E-007  0.3028356E+04  0.7818608E-02  0.8235680E-01
         -3   -1    0    0    0  501 -0.00000000000E+00  0.00000000000E+00  0.21289462771E+04  0.21289462771E+04  0.00000000000E+00 0.  1.
          2   -1    0    0  501    0  0.00000000000E+00 -0.00000000000E+00 -0.10769339773E+04  0.10769339773E+04  0.00000000000E+00 0. -1.
         24    2    1    2    0    0 -0.22592698379E+03  0.80637549391E+03 -0.68110671281E+03  0.10823976321E+04  0.79961494470E+02 0.  0.
        254    2    1    2    0    0  0.22592698379E+03 -0.80637549391E+03  0.17331190127E+04  0.21234826223E+04  0.89676780481E+03 0.  0.
         23    2    4    4    0    0  0.32378141624E+03 -0.21617371345E+03  0.13470778507E+04  0.14050934661E+04  0.90019069172E+02 0.  0.
         23    2    4    4    0    0 -0.97854432451E+02 -0.59020178046E+03  0.38604116196E+03  0.71838915611E+03  0.95611554143E+02 0.  0.
          2    1    3    3  502    0 -0.22740384280E+03  0.73556005001E+03 -0.63372246333E+03  0.99717864770E+03  0.00000000000E+00 0. -1.
         -1    1    3    3    0  502  0.14768590103E+01  0.70815443901E+02 -0.47384249482E+02  0.85218984425E+02  0.00000000000E+00 0.  1.
         13    1    5    5    0    0  0.16484778861E+03 -0.11822086944E+03  0.85642883666E+03  0.88012574082E+03  0.00000000000E+00 0.  1.
        -13    1    5    5    0    0  0.15893362763E+03 -0.97952844010E+02  0.49064901406E+03  0.52496772533E+03  0.00000000000E+00 0. -1.
          4    1    6    6  503    0 -0.11167580876E+03 -0.48229655228E+03  0.33818183120E+03  0.59954015842E+03  0.00000000000E+00 0. -1.
         -4    1    6    6    0  503  0.13821376314E+02 -0.10790522817E+03  0.47859330752E+02  0.11884899768E+03  0.00000000000E+00 0.  1.
<mgrwt>
<rscale>  0 0.30283557E+04</rscale>
<asrwt>0</asrwt>
<pdfrwt beam="1">  1        2 0.16568215E+00 0.30283557E+04</pdfrwt>
<pdfrwt beam="2">  1       -3 0.32753020E+00 0.30283557E+04</pdfrwt>
<totfact> 0.32079845E-01</totfact>
</mgrwt>
</event>
<event>
12    7  0.1611233E-007  0.1889089E+04  0.7818608E-02  0.8660307E-01
          4   -1    0    0  501    0  0.00000000000E+00  0.00000000000E+00  0.17360322878E+04  0.17360322878E+04  0.00000000000E+00 0. -1.
         -3   -1    0    0    0  501 -0.00000000000E+00 -0.00000000000E+00 -0.51390997907E+03  0.51390997907E+03  0.00000000000E+00 0.  1.
         24    2    1    2    0    0 -0.22772429730E+03  0.59524057534E+03  0.58821491322E+02  0.64632787809E+03  0.90055871841E+02 0.  0.
        254    2    1    2    0    0  0.22772429730E+03 -0.59524057534E+03  0.11633008174E+04  0.16036143887E+04  0.90118844754E+03 0.  0.
         23    2    4    4    0    0  0.83217493375E+02 -0.64634188472E+03  0.30202288223E+03  0.72394501287E+03  0.90529426770E+02 0.  0.
         23    2    4    4    0    0  0.14450680393E+03  0.51101309386E+02  0.86127793513E+03  0.87966937587E+03  0.92330759242E+02 0.  0.
          2    1    3    3  502    0 -0.52447237723E+02  0.16444365719E+03  0.55226503292E+02  0.18122471079E+03  0.00000000000E+00 0. -1.
         -1    1    3    3    0  502 -0.17527705958E+03  0.43079691814E+03  0.35949880305E+01  0.46510316730E+03  0.00000000000E+00 0.  1.
         13    1    5    5    0    0  0.31129832850E+02 -0.15911829967E+03  0.11800171443E+03  0.20052955990E+03  0.00000000000E+00 0.  1.
        -13    1    5    5    0    0  0.52087660525E+02 -0.48722358505E+03  0.18402116780E+03  0.52341545297E+03  0.00000000000E+00 0. -1.
          2    1    6    6  503    0  0.11895428786E+03  0.34035350779E+02  0.43411404388E+03  0.45140173991E+03  0.00000000000E+00 0. -1.
         -2    1    6    6    0  503  0.25552516062E+02  0.17065958607E+02  0.42716389125E+03  0.42826763596E+03  0.00000000000E+00 0.  1.
<mgrwt>
<rscale>  0 0.18890890E+04</rscale>
<asrwt>0</asrwt>
<pdfrwt beam="1">  1        4 0.26708189E+00 0.18890890E+04</pdfrwt>
<pdfrwt beam="2">  1       -3 0.79063074E-01 0.18890890E+04</pdfrwt>
<totfact> 0.15817679E-01</totfact>
</mgrwt>
</event>
<event>
12    7  0.1611233E-007  0.2107740E+04  0.7818608E-02  0.8557842E-01
          2   -1    0    0  501    0  0.00000000000E+00  0.00000000000E+00  0.10530910631E+04  0.10530910631E+04  0.00000000000E+00 0. -1.
         -1   -1    0    0    0  501 -0.00000000000E+00 -0.00000000000E+00 -0.10546490574E+04  0.10546490574E+04  0.00000000000E+00 0.  1.
         24    2    1    2    0    0  0.22872288985E+03  0.48676549384E+03  0.67547779151E+03  0.86714475349E+03  0.80093510040E+02 0.  0.
        254    2    1    2    0    0 -0.22872288985E+03 -0.48676549384E+03 -0.67703578584E+03  0.12405953670E+04  0.88963172330E+03 0.  0.
         23    2    4    4    0    0 -0.38904086090E+03  0.55747066499E+02 -0.49696827897E+03  0.64002557852E+03  0.90524825296E+02 0.  0.
         23    2    4    4    0    0  0.16031797105E+03 -0.54251256034E+03 -0.18006750687E+03  0.60056978852E+03  0.90763615467E+02 0.  0.
          2    1    3    3  502    0  0.19234369915E+03  0.32352230897E+03  0.47623596386E+03  0.60701192433E+03  0.00000000000E+00 0. -1.
         -1    1    3    3    0  502  0.36379190696E+02  0.16324318487E+03  0.19924182764E+03  0.26013282916E+03  0.00000000000E+00 0.  1.
         13    1    5    5    0    0 -0.34675058464E+03  0.34785406314E+02 -0.38946850946E+03  0.52262004583E+03  0.00000000000E+00 0. -1.
        -13    1    5    5    0    0 -0.42290276257E+02  0.20961660184E+02 -0.10749976950E+03  0.11740553269E+03  0.00000000000E+00 0.  1.
          1    1    6    6  503    0  0.14077758429E+03 -0.50991361332E+03 -0.18862156647E+03  0.56161224757E+03  0.00000000000E+00 0. -1.
         -1    1    6    6    0  503  0.19540386761E+02 -0.32598947021E+02  0.85540595973E+01  0.38957540955E+02  0.00000000000E+00 0.  1.
<mgrwt>
<rscale>  0 0.21077395E+04</rscale>
<asrwt>0</asrwt>
<pdfrwt beam="1">  1        2 0.16201401E+00 0.21077395E+04</pdfrwt>
<pdfrwt beam="2">  1       -1 0.16225370E+00 0.21077395E+04</pdfrwt>
<totfact> 0.68781033E+00</totfact>
</mgrwt>
</event>
<event>
12    7  0.1611233E-007  0.1827920E+04  0.7818608E-02  0.8691591E-01
         -1   -1    0    0    0  501 -0.00000000000E+00  0.00000000000E+00  0.15215580165E+04  0.15215580165E+04  0.00000000000E+00 0.  1.
          2   -1    0    0  501    0  0.00000000000E+00 -0.00000000000E+00 -0.54899186224E+03  0.54899186224E+03  0.00000000000E+00 0. -1.
         24    2    1    2    0    0  0.41007716137E+03 -0.48620938998E+03  0.67873241222E+03  0.93375871388E+03  0.81638221269E+02 0.  0.
        254    2    1    2    0    0 -0.41007716137E+03  0.48620938998E+03  0.29383374202E+03  0.11367911648E+04  0.89520558272E+03 0.  0.
         23    2    4    4    0    0 -0.99785769825E+01  0.60854485208E+03  0.34086823752E+03  0.70473453970E+03  0.10016589791E+03 0.  0.
         23    2    4    4    0    0 -0.40009858438E+03 -0.12233546210E+03 -0.47034495492E+02  0.43205662515E+03  0.97035256770E+02 0.  0.
          4    1    3    3  502    0  0.21773299867E+03 -0.25740301937E+03  0.41875958230E+03  0.53760911530E+03  0.00000000000E+00 0. -1.
         -3    1    3    3    0  502  0.19234416270E+03 -0.22880637062E+03  0.25997282992E+03  0.39614959858E+03  0.00000000000E+00 0.  1.
         13    1    5    5    0    0  0.14604607264E+01  0.59121030666E+03  0.31007308105E+03  0.66759049966E+03  0.00000000000E+00 0. -1.
        -13    1    5    5    0    0 -0.11439037709E+02  0.17334545426E+02  0.30795156465E+02  0.37144040041E+02  0.00000000000E+00 0.  1.
          4    1    6    6  503    0 -0.26095123025E+03 -0.75662714777E+02  0.16344695059E+02  0.27219026440E+03  0.00000000000E+00 0. -1.
         -4    1    6    6    0  503 -0.13914735413E+03 -0.46672747322E+02 -0.63379190550E+02  0.15986636075E+03  0.00000000000E+00 0.  1.
<mgrwt>
<rscale>  0 0.18279201E+04</rscale>
<asrwt>0</asrwt>
<pdfrwt beam="1">  1        2 0.84460287E-01 0.18279201E+04</pdfrwt>
<pdfrwt beam="2">  1       -1 0.23408585E+00 0.18279201E+04</pdfrwt>
<totfact> 0.52654050E+00</totfact>
</mgrwt>
</event>
<event>
12    7  0.1611233E-007  0.1461727E+04  0.7818608E-02  0.8910310E-01
          2   -1    0    0  501    0  0.00000000000E+00  0.00000000000E+00  0.13690292130E+04  0.13690292130E+04  0.00000000000E+00 0. -1.
         -1   -1    0    0    0  501 -0.00000000000E+00 -0.00000000000E+00 -0.39017559147E+03  0.39017559147E+03  0.00000000000E+00 0.  1.
         24    2    1    2    0    0 -0.23043283124E+03  0.37308827402E+03  0.41366512208E+03  0.60752225391E+03  0.75301433252E+02 0.  0.
        254    2    1    2    0    0  0.23043283124E+03 -0.37308827402E+03  0.56518849940E+03  0.11516825505E+04  0.90257437775E+03 0.  0.
         23    2    4    4    0    0  0.36545943715E+03 -0.57742361515E+03  0.23037026071E+03  0.72700140452E+03  0.92097522367E+02 0.  0.
         23    2    4    4    0    0 -0.13502660591E+03  0.20433534113E+03  0.33481823869E+03  0.42468114598E+03  0.90915932896E+02 0.  0.
          2    1    3    3  502    0 -0.15870474738E+03  0.30422004556E+03  0.34569071814E+03  0.48707197165E+03  0.00000000000E+00 0. -1.
         -1    1    3    3    0  502 -0.71728083862E+02  0.68868228461E+02  0.67974403938E+02  0.12045028226E+03  0.00000000000E+00 0.  1.
         13    1    5    5    0    0  0.95055249308E+02 -0.10666530705E+03  0.79649070312E+02  0.16357555609E+03  0.00000000000E+00 0.  1.
        -13    1    5    5    0    0  0.27040418784E+03 -0.47075830810E+03  0.15072119040E+03  0.56342584843E+03  0.00000000000E+00 0. -1.
          3    1    6    6  503    0 -0.99386951529E+02  0.13499981514E+03  0.28942615742E+03  0.33447005370E+03  0.00000000000E+00 0. -1.
         -3    1    6    6    0  503 -0.35639654379E+02  0.69335525993E+02  0.45392081270E+02  0.90211092284E+02  0.00000000000E+00 0.  1.
<mgrwt>
<rscale>  0 0.14617274E+04</rscale>
<asrwt>0</asrwt>
<pdfrwt beam="1">  1        2 0.21061988E+00 0.14617274E+04</pdfrwt>
<pdfrwt beam="2">  1       -1 0.60027015E-01 0.14617274E+04</pdfrwt>
<totfact> 0.46849434E+01</totfact>
</mgrwt>
</event>
<event>
12    7  0.1611233E-007  0.1381287E+04  0.7818608E-02  0.8967476E-01
         -1   -1    0    0    0  501 -0.00000000000E+00  0.00000000000E+00  0.45117395568E+03  0.45117395568E+03  0.00000000000E+00 0.  1.
          2   -1    0    0  501    0  0.00000000000E+00 -0.00000000000E+00 -0.10572167364E+04  0.10572167364E+04  0.00000000000E+00 0. -1.
         24    2    1    2    0    0 -0.80042859525E+02 -0.28068284729E+03  0.77571334688E+02  0.31196972040E+03  0.78218120410E+02 0.  0.
        254    2    1    2    0    0  0.80042859525E+02  0.28068284729E+03 -0.68361411545E+03  0.11964209717E+04  0.93749942007E+03 0.  0.
         23    2    4    4    0    0 -0.12363162661E+03  0.43330741136E+03 -0.78449270644E+03  0.90837619973E+03  0.81721612376E+02 0.  0.
         23    2    4    4    0    0  0.20367448613E+03 -0.15262456407E+03  0.10087859099E+03  0.28804477200E+03  0.89530702546E+02 0.  0.
          2    1    3    3  502    0 -0.45982580047E+01 -0.12926083626E+02 -0.13511073914E+02  0.19255563687E+02  0.00000000000E+00 0. -1.
         -1    1    3    3    0  502 -0.75444601520E+02 -0.26775676366E+03  0.91082408602E+02  0.29271415672E+03  0.00000000000E+00 0.  1.
         13    1    5    5    0    0 -0.10840022279E+03  0.25781127675E+03 -0.52303340771E+03  0.59311146364E+03  0.00000000000E+00 0.  1.
        -13    1    5    5    0    0 -0.15231403814E+02  0.17549613461E+03 -0.26145929873E+03  0.31526473608E+03  0.00000000000E+00 0. -1.
          2    1    6    6  503    0  0.70646822809E+02 -0.35421954362E+02 -0.88796406598E+01  0.79526954186E+02  0.00000000000E+00 0. -1.
         -2    1    6    6    0  503  0.13302766332E+03 -0.11720260971E+03  0.10975823165E+03  0.20851781782E+03  0.00000000000E+00 0.  1.
<mgrwt>
<rscale>  0 0.13812873E+04</rscale>
<asrwt>0</asrwt>
<pdfrwt beam="1">  1        2 0.16264873E+00 0.13812873E+04</pdfrwt>
<pdfrwt beam="2">  1       -1 0.69411378E-01 0.13812873E+04</pdfrwt>
<totfact> 0.54071450E+01</totfact>
</mgrwt>
</event>
<event>
12    7  0.1611233E-007  0.1689028E+04  0.7818608E-02  0.8767647E-01
         -1   -1    0    0    0  501 -0.00000000000E+00  0.00000000000E+00  0.44054818644E+03  0.44054818644E+03  0.00000000000E+00 0.  1.
          2   -1    0    0  501    0  0.00000000000E+00 -0.00000000000E+00 -0.16189002764E+04  0.16189002764E+04  0.00000000000E+00 0. -1.
         24    2    1    2    0    0 -0.47277011937E+03 -0.46549604610E+02 -0.87326933952E+03  0.99738105634E+03  0.80567864182E+02 0.  0.
        254    2    1    2    0    0  0.47277011937E+03  0.46549604610E+02 -0.30508275048E+03  0.10620674065E+04  0.89957392133E+03 0.  0.
         23    2    4    4    0    0  0.20523571376E+03  0.40543693330E+03  0.71256977690E+02  0.46989844106E+03  0.96053021620E+02 0.  0.
         23    2    4    4    0    0  0.26753440561E+03 -0.35888732869E+03 -0.37633972817E+03  0.59216896548E+03  0.93046868837E+02 0.  0.
          2    1    3    3  502    0 -0.29101688174E+03 -0.63132838268E+02 -0.57951340687E+03  0.65154613763E+03  0.00000000000E+00 0. -1.
         -1    1    3    3    0  502 -0.18175323763E+03  0.16583233657E+02 -0.29375593265E+03  0.34583491871E+03  0.00000000000E+00 0.  1.
         13    1    5    5    0    0  0.13089433653E+03  0.20097466189E+03  0.78086536128E+02  0.25223332290E+03  0.00000000000E+00 0.  1.
        -13    1    5    5    0    0  0.74341377232E+02  0.20446227140E+03 -0.68295584375E+01  0.21766511816E+03  0.00000000000E+00 0. -1.
          1    1    6    6  503    0  0.22760986661E+03 -0.27556281409E+03 -0.25225450551E+03  0.43746251432E+03  0.00000000000E+00 0. -1.
         -1    1    6    6    0  503  0.39924538999E+02 -0.83324514599E+02 -0.12408522265E+03  0.15470645115E+03  0.00000000000E+00 0.  1.
<mgrwt>
<rscale>  0 0.16890276E+04</rscale>
<asrwt>0</asrwt>
<pdfrwt beam="1">  1        2 0.24906158E+00 0.16890276E+04</pdfrwt>
<pdfrwt beam="2">  1       -1 0.67776643E-01 0.16890276E+04</pdfrwt>
<totfact> 0.26029472E+01</totfact>
</mgrwt>
</event>
<event>
12    7  0.1611233E-007  0.1744834E+04  0.7818608E-02  0.8736199E-01
         -1   -1    0    0    0  501 -0.00000000000E+00  0.00000000000E+00  0.46565328597E+03  0.46565328597E+03  0.00000000000E+00 0.  1.
          2   -1    0    0  501    0  0.00000000000E+00 -0.00000000000E+00 -0.16345016030E+04  0.16345016030E+04  0.00000000000E+00 0. -1.
         24    2    1    2    0    0 -0.39368598865E+03  0.27270048885E+03  0.71055871066E+02  0.49055757800E+03  0.79016366906E+02 0.  0.
        254    2    1    2    0    0  0.39368598865E+03 -0.27270048885E+03 -0.12399041881E+04  0.16095973110E+04  0.90779231853E+03 0.  0.
         23    2    4    4    0    0  0.31772297838E+03 -0.23063177319E+03 -0.13702863292E+04  0.14283601603E+04  0.91592672714E+02 0.  0.
         23    2    4    4    0    0  0.75963010268E+02 -0.42068715669E+02  0.13038214109E+03  0.18123715070E+03  0.91144096417E+02 0.  0.
          2    1    3    3  502    0 -0.94444674320E+02  0.94296493380E+02  0.46412907953E+02  0.14130032978E+03  0.00000000000E+00 0. -1.
         -1    1    3    3    0  502 -0.29924131433E+03  0.17840399547E+03  0.24642963113E+02  0.34925724822E+03  0.00000000000E+00 0.  1.
         13    1    5    5    0    0  0.26869275800E+03 -0.15069160059E+03 -0.10967714762E+04  0.11392152684E+04  0.00000000000E+00 0. -1.
        -13    1    5    5    0    0  0.49030220381E+02 -0.79940172596E+02 -0.27351485302E+03  0.28914489193E+03  0.00000000000E+00 0.  1.
          2    1    6    6  503    0  0.80926480252E+02 -0.18110880046E+02  0.13288993464E+03  0.15664237584E+03  0.00000000000E+00 0. -1.
         -2    1    6    6    0  503 -0.49634699840E+01 -0.23957835623E+02 -0.25077935416E+01  0.24594774861E+02  0.00000000000E+00 0.  1.
<mgrwt>
<rscale>  0 0.17448336E+04</rscale>
<asrwt>0</asrwt>
<pdfrwt beam="1">  1        2 0.25146179E+00 0.17448336E+04</pdfrwt>
<pdfrwt beam="2">  1       -1 0.71638967E-01 0.17448336E+04</pdfrwt>
<totfact> 0.22665283E+01</totfact>
</mgrwt>
</event>
<event>
12    7  0.1611233E-007  0.1766154E+04  0.7818608E-02  0.8724508E-01
         -1   -1    0    0    0  501 -0.00000000000E+00  0.00000000000E+00  0.40958033374E+03  0.40958033374E+03  0.00000000000E+00 0.  1.
          2   -1    0    0  501    0  0.00000000000E+00 -0.00000000000E+00 -0.19039610888E+04  0.19039610888E+04  0.00000000000E+00 0. -1.
         24    2    1    2    0    0 -0.23995714071E+03  0.42566099926E+03 -0.11123836616E+04  0.12176446131E+04  0.80587079892E+02 0.  0.
        254    2    1    2    0    0  0.23995714071E+03 -0.42566099926E+03 -0.38199709338E+03  0.10958968094E+04  0.90349395230E+03 0.  0.
         23    2    4    4    0    0 -0.68922156366E+02 -0.47587437715E+03  0.11381522875E+03  0.50253060962E+03  0.91522788651E+02 0.  0.
         23    2    4    4    0    0  0.30887929708E+03  0.50213377897E+02 -0.49581232213E+03  0.59336619978E+03  0.91245738450E+02 0.  0.
          4    1    3    3  502    0 -0.12195089758E+03  0.26285365700E+03 -0.73454750998E+03  0.78963542906E+03  0.00000000000E+00 0. -1.
         -3    1    3    3    0  502 -0.11800624313E+03  0.16280734226E+03 -0.37783615165E+03  0.42800918402E+03  0.00000000000E+00 0.  1.
         13    1    5    5    0    0 -0.21764304291E+01 -0.17603784076E+02 -0.13445152312E+02  0.22257632037E+02  0.00000000000E+00 0. -1.
        -13    1    5    5    0    0 -0.66745725936E+02 -0.45827059308E+03  0.12726038106E+03  0.48027297759E+03  0.00000000000E+00 0.  1.
          3    1    6    6  503    0  0.36369775140E+02  0.28680928344E+02 -0.36951864016E+02  0.59251974217E+02  0.00000000000E+00 0. -1.
         -3    1    6    6    0  503  0.27250952194E+03  0.21532449553E+02 -0.45886045812E+03  0.53411422557E+03  0.00000000000E+00 0.  1.
<mgrwt>
<rscale>  0 0.17661540E+04</rscale>
<asrwt>0</asrwt>
<pdfrwt beam="1">  1        2 0.29291709E+00 0.17661540E+04</pdfrwt>
<pdfrwt beam="2">  1       -1 0.63012359E-01 0.17661540E+04</pdfrwt>
<totfact> 0.20806489E+01</totfact>
</mgrwt>
</event>
<event>
12    7  0.1611233E-007  0.2346348E+04  0.7818608E-02  0.8459868E-01
         -1   -1    0    0    0  501 -0.00000000000E+00  0.00000000000E+00  0.42021935132E+03  0.42021935132E+03  0.00000000000E+00 0.  1.
          2   -1    0    0  501    0  0.00000000000E+00 -0.00000000000E+00 -0.32752834761E+04  0.32752834761E+04  0.00000000000E+00 0. -1.
         24    2    1    2    0    0 -0.72351697960E+03 -0.10213207651E+03 -0.22917562285E+04  0.24067399178E+04  0.79640695634E+02 0.  0.
        254    2    1    2    0    0  0.72351697960E+03  0.10213207651E+03 -0.56330789625E+03  0.12887629096E+04  0.89982568880E+03 0.  0.
         23    2    4    4    0    0 -0.18195227695E+03 -0.71822926434E+02 -0.24454262544E+02  0.21696158692E+03  0.90604389487E+02 0.  0.
         23    2    4    4    0    0  0.90546925656E+03  0.17395500295E+03 -0.53885363371E+03  0.10718013226E+04  0.90884096547E+02 0.  0.
          4    1    3    3  502    0 -0.60351785137E+03 -0.11464205524E+03 -0.19042259151E+04  0.20008630471E+04  0.00000000000E+00 0. -1.
         -3    1    3    3    0  502 -0.11999912824E+03  0.12509978725E+02 -0.38753031342E+03  0.40587687069E+03  0.00000000000E+00 0.  1.
         13    1    5    5    0    0 -0.77942612360E+02 -0.30550176752E+02  0.34424306949E+02  0.90517385236E+02  0.00000000000E+00 0. -1.
        -13    1    5    5    0    0 -0.10400966459E+03 -0.41272749681E+02 -0.58878569492E+02  0.12644420169E+03  0.00000000000E+00 0.  1.
          4    1    6    6  503    0  0.73874136126E+03  0.16924283252E+03 -0.46684279728E+03  0.89012590827E+03  0.00000000000E+00 0. -1.
         -4    1    6    6    0  503  0.16672789530E+03  0.47121704329E+01 -0.72010836427E+02  0.18167541436E+03  0.00000000000E+00 0.  1.
<mgrwt>
<rscale>  0 0.23463482E+04</rscale>
<asrwt>0</asrwt>
<pdfrwt beam="1">  1        2 0.50388978E+00 0.23463482E+04</pdfrwt>
<pdfrwt beam="2">  1       -1 0.64649128E-01 0.23463482E+04</pdfrwt>
<totfact> 0.28877926E+00</totfact>
</mgrwt>
</event>
<event>
12    7  0.1611233E-007  0.1653927E+04  0.7818608E-02  0.8788087E-01
         -1   -1    0    0    0  501 -0.00000000000E+00  0.00000000000E+00  0.54882907627E+03  0.54882907627E+03  0.00000000000E+00 0.  1.
          2   -1    0    0  501    0  0.00000000000E+00 -0.00000000000E+00 -0.12460502502E+04  0.12460502502E+04  0.00000000000E+00 0. -1.
         24    2    1    2    0    0 -0.20130028099E+02  0.37239975619E+02  0.37797366617E+03  0.38840636517E+03  0.78761528490E+02 0.  0.
        254    2    1    2    0    0  0.20130028099E+02 -0.37239975619E+02 -0.10751948401E+04  0.14064729613E+04  0.90572082501E+03 0.  0.
         23    2    4    4    0    0  0.14070933093E+03  0.12808467989E+03  0.83119610334E+02  0.22682725442E+03  0.91306805279E+02 0.  0.
         23    2    4    4    0    0 -0.12057930283E+03 -0.16532465551E+03 -0.11583144504E+04  0.11796457069E+04  0.89442817924E+02 0.  0.
          4    1    3    3  502    0 -0.23737244184E+02 -0.16407793117E+02  0.69028914064E+02  0.74817534130E+02  0.00000000000E+00 0. -1.
         -3    1    3    3    0  502  0.36072160850E+01  0.53647768736E+02  0.30894475211E+03  0.31358883104E+03  0.00000000000E+00 0.  1.
         13    1    5    5    0    0  0.88399915487E+02  0.49194266429E+02  0.47322984072E+00  0.10116741004E+03  0.00000000000E+00 0. -1.
        -13    1    5    5    0    0  0.52309415446E+02  0.78890413462E+02  0.82646380493E+02  0.12565984438E+03  0.00000000000E+00 0.  1.
          4    1    6    6  503    0 -0.10385021111E+03 -0.10676431395E+03 -0.60825459329E+03  0.62622450873E+03  0.00000000000E+00 0. -1.
         -4    1    6    6    0  503 -0.16729091726E+02 -0.58560341563E+02 -0.55005985714E+03  0.55342119814E+03  0.00000000000E+00 0.  1.
<mgrwt>
<rscale>  0 0.16539270E+04</rscale>
<asrwt>0</asrwt>
<pdfrwt beam="1">  1        2 0.19170003E+00 0.16539270E+04</pdfrwt>
<pdfrwt beam="2">  1       -1 0.84435244E-01 0.16539270E+04</pdfrwt>
<totfact> 0.26897258E+01</totfact>
</mgrwt>
</event>
<event>
12    7  0.1611233E-007  0.1022979E+04  0.7818608E-02  0.9283695E-01
          2   -1    0    0  501    0  0.00000000000E+00  0.00000000000E+00  0.79341644470E+03  0.79341644470E+03  0.00000000000E+00 0. -1.
         -1   -1    0    0    0  501 -0.00000000000E+00 -0.00000000000E+00 -0.32974026206E+03  0.32974026206E+03  0.00000000000E+00 0.  1.
         24    2    1    2    0    0  0.83717721130E+01 -0.14115493582E+02 -0.41688521073E+02  0.92855670607E+02  0.81332091128E+02 0.  0.
        254    2    1    2    0    0 -0.83717721130E+01  0.14115493582E+02  0.50536470372E+03  0.10303010362E+04  0.89769560966E+03 0.  0.
         23    2    4    4    0    0  0.23007624121E+03  0.37250481499E+03  0.17767668389E+03  0.48152636196E+03  0.92756235940E+02 0.  0.
         23    2    4    4    0    0 -0.23844801332E+03 -0.35838932141E+03  0.32768801983E+03  0.54877467419E+03  0.92053484107E+02 0.  0.
          4    1    3    3  502    0  0.14255134360E+02  0.28363993666E+02  0.17781589862E+01  0.31794446711E+02  0.00000000000E+00 0. -1.
         -3    1    3    3    0  502 -0.58833622466E+01 -0.42479487248E+02 -0.43466680060E+02  0.61061223895E+02  0.00000000000E+00 0.  1.
         13    1    5    5    0    0  0.70079964049E+02  0.84593554738E+02  0.58148950172E+01  0.11000492656E+03  0.00000000000E+00 0. -1.
        -13    1    5    5    0    0  0.15999627716E+03  0.28791126025E+03  0.17186178887E+03  0.37152143540E+03  0.00000000000E+00 0.  1.
          1    1    6    6  503    0 -0.11735574378E+03 -0.14871642771E+03  0.19828338954E+03  0.27423575448E+03  0.00000000000E+00 0. -1.
         -1    1    6    6    0  503 -0.12109226955E+03 -0.20967289370E+03  0.12940463029E+03  0.27453891971E+03  0.00000000000E+00 0.  1.
<mgrwt>
<rscale>  0 0.10229787E+04</rscale>
<asrwt>0</asrwt>
<pdfrwt beam="1">  1        2 0.12206407E+00 0.10229787E+04</pdfrwt>
<pdfrwt beam="2">  1       -1 0.50729271E-01 0.10229787E+04</pdfrwt>
<totfact> 0.15471356E+02</totfact>
</mgrwt>
</event>
<event>
12    7  0.1611233E-007  0.2748440E+04  0.7818608E-02  0.8319457E-01
         -1   -1    0    0    0  501 -0.00000000000E+00  0.00000000000E+00  0.75680404763E+03  0.75680404763E+03  0.00000000000E+00 0.  1.
          2   -1    0    0  501    0  0.00000000000E+00 -0.00000000000E+00 -0.24953354065E+04  0.24953354065E+04  0.00000000000E+00 0. -1.
         24    2    1    2    0    0 -0.15388485966E+03 -0.10673750286E+04 -0.14859801083E+04  0.18377876490E+04  0.79728031118E+02 0.  0.
        254    2    1    2    0    0  0.15388485966E+03  0.10673750286E+04 -0.25255125061E+03  0.14143518051E+04  0.87956744637E+03 0.  0.
         23    2    4    4    0    0  0.27863639667E+03  0.87728462984E+03  0.15599471783E+03  0.93829828129E+03  0.93822968330E+02 0.  0.
         23    2    4    4    0    0 -0.12475153700E+03  0.19009039878E+03 -0.40854596843E+03  0.47605352383E+03  0.89553579105E+02 0.  0.
          2    1    3    3  502    0 -0.12834386067E+03 -0.96111695259E+03 -0.13700439048E+04  0.16784630601E+04  0.00000000000E+00 0. -1.
         -1    1    3    3    0  502 -0.25540998989E+02 -0.10625807603E+03 -0.11593620351E+03  0.15932458892E+03  0.00000000000E+00 0.  1.
         13    1    5    5    0    0  0.24111872833E+03  0.77183959336E+03  0.16748944752E+03  0.82578890405E+03  0.00000000000E+00 0. -1.
        -13    1    5    5    0    0  0.37517668337E+02  0.10544503648E+03 -0.11494729694E+02  0.11250937724E+03  0.00000000000E+00 0.  1.
          4    1    6    6  503    0  0.35048850020E+01  0.49963629876E+02 -0.52866938897E+02  0.72825557036E+02  0.00000000000E+00 0.  1.
         -4    1    6    6    0  503 -0.12825642201E+03  0.14012676890E+03 -0.35567902954E+03  0.40322796679E+03  0.00000000000E+00 0. -1.
<mgrwt>
<rscale>  0 0.27484395E+04</rscale>
<asrwt>0</asrwt>
<pdfrwt beam="1">  1        2 0.38389775E+00 0.27484395E+04</pdfrwt>
<pdfrwt beam="2">  1       -1 0.11643139E+00 0.27484395E+04</pdfrwt>
<totfact> 0.23180676E+00</totfact>
</mgrwt>
</event>
<event>
12    7  0.1611233E-007  0.1809551E+04  0.7818608E-02  0.8701237E-01
         -1   -1    0    0    0  501 -0.00000000000E+00  0.00000000000E+00  0.10833377443E+04  0.10833377443E+04  0.00000000000E+00 0.  1.
          2   -1    0    0  501    0  0.00000000000E+00 -0.00000000000E+00 -0.75564503496E+03  0.75564503496E+03  0.00000000000E+00 0. -1.
         24    2    1    2    0    0 -0.50720653858E+03  0.43640913338E+03  0.14406931232E+01  0.67372243347E+03  0.78666621208E+02 0.  0.
        254    2    1    2    0    0  0.50720653858E+03 -0.43640913338E+03  0.32625201624E+03  0.11652603458E+04  0.89648195238E+03 0.  0.
         23    2    4    4    0    0 -0.50123503262E+01 -0.55634020081E+03  0.28152712304E+03  0.62930248128E+03  0.84997348483E+02 0.  0.
         23    2    4    4    0    0  0.51221888891E+03  0.11993106743E+03  0.44724893199E+02  0.53595786453E+03  0.92189291073E+02 0.  0.
          2    1    3    3  502    0 -0.23720277709E+03  0.21388566324E+03  0.39273535167E+02  0.32179907546E+03  0.00000000000E+00 0. -1.
         -1    1    3    3    0  502 -0.27000376149E+03  0.22252347014E+03 -0.37832842044E+02  0.35192335802E+03  0.00000000000E+00 0.  1.
         13    1    5    5    0    0 -0.38042188901E+02 -0.14937087701E+03  0.67039615589E+02  0.16808681416E+03  0.00000000000E+00 0. -1.
        -13    1    5    5    0    0  0.33029838574E+02 -0.40696932380E+03  0.21448750745E+03  0.46121566712E+03  0.00000000000E+00 0.  1.
          4    1    6    6  503    0  0.43376120886E+01 -0.24399711490E+01 -0.95110842020E+01  0.10734479984E+02  0.00000000000E+00 0. -1.
         -4    1    6    6    0  503  0.50788127682E+03  0.12237103858E+03  0.54235977401E+02  0.52522338454E+03  0.00000000000E+00 0.  1.
<mgrwt>
<rscale>  0 0.18095511E+04</rscale>
<asrwt>0</asrwt>
<pdfrwt beam="1">  1        2 0.11625308E+00 0.18095511E+04</pdfrwt>
<pdfrwt beam="2">  1       -1 0.16666735E+00 0.18095511E+04</pdfrwt>
<totfact> 0.10415365E+01</totfact>
</mgrwt>
</event>
<event>
12    7  0.1611233E-007  0.1967068E+04  0.7818608E-02  0.8622174E-01
          2   -1    0    0  501    0  0.00000000000E+00  0.00000000000E+00  0.42094040511E+03  0.42094040511E+03  0.00000000000E+00 0. -1.
         -1   -1    0    0    0  501 -0.00000000000E+00 -0.00000000000E+00 -0.22980429501E+04  0.22980429501E+04  0.00000000000E+00 0.  1.
         24    2    1    2    0    0 -0.48283648627E+03  0.76163586998E+02 -0.15789333395E+04  0.16546768217E+04  0.77414011433E+02 0.  0.
        254    2    1    2    0    0  0.48283648627E+03 -0.76163586998E+02 -0.29816920547E+03  0.10643065335E+04  0.89716863394E+03 0.  0.
         23    2    4    4    0    0  0.16644243274E+03 -0.30367454014E+03  0.21173472833E+03  0.41625597180E+03  0.92282875658E+02 0.  0.
         23    2    4    4    0    0  0.31639405352E+03  0.22751095314E+03 -0.50990393380E+03  0.64805056170E+03  0.90005988207E+02 0.  0.
          4    1    3    3  502    0 -0.13200486263E+03  0.39401197137E+01 -0.33152750263E+03  0.35686312965E+03  0.00000000000E+00 0. -1.
         -3    1    3    3    0  502 -0.35083162363E+03  0.72223467284E+02 -0.12474058369E+04  0.12978136920E+04  0.00000000000E+00 0.  1.
         13    1    5    5    0    0  0.44381601993E+02 -0.29104463605E+02  0.58403960796E+02  0.78916532069E+02  0.00000000000E+00 0. -1.
        -13    1    5    5    0    0  0.12206083075E+03 -0.27457007653E+03  0.15333076753E+03  0.33733943974E+03  0.00000000000E+00 0.  1.
          1    1    6    6  503    0  0.92209774917E+02  0.63425677277E+02 -0.21814290132E+03  0.24517704731E+03  0.00000000000E+00 0. -1.
         -1    1    6    6    0  503  0.22418427861E+03  0.16408527586E+03 -0.29176103248E+03  0.40287351440E+03  0.00000000000E+00 0.  1.
<mgrwt>
<rscale>  0 0.19670680E+04</rscale>
<asrwt>0</asrwt>
<pdfrwt beam="1">  1        2 0.64760062E-01 0.19670680E+04</pdfrwt>
<pdfrwt beam="2">  1       -1 0.35354507E+00 0.19670680E+04</pdfrwt>
<totfact> 0.11780560E+00</totfact>
</mgrwt>
</event>
<event>
12    7  0.1611233E-007  0.1256711E+04  0.7818608E-02  0.9064616E-01
          2   -1    0    0  501    0  0.00000000000E+00  0.00000000000E+00  0.99306941218E+03  0.99306941218E+03  0.00000000000E+00 0. -1.
         -3   -1    0    0    0  501 -0.00000000000E+00 -0.00000000000E+00 -0.39758639119E+03  0.39758639119E+03  0.00000000000E+00 0.  1.
         24    2    1    2    0    0  0.52287686461E+02 -0.25485064078E+03 -0.40907998580E+01  0.27309073564E+03  0.82939520043E+02 0.  0.
        254    2    1    2    0    0 -0.52287686461E+02  0.25485064078E+03  0.59957382084E+03  0.11175650677E+04  0.90652085619E+03 0.  0.
         23    2    4    4    0    0  0.40350164210E+03  0.18149582004E+01  0.25732345128E+03  0.48723584081E+03  0.91468774664E+02 0.  0.
         23    2    4    4    0    0 -0.45578932856E+03  0.25303568258E+03  0.34225036956E+03  0.63032922692E+03  0.91698692243E+02 0.  0.
          4    1    3    3  502    0  0.10831025520E+02 -0.12808331785E+02 -0.21076938506E+02  0.26936997118E+02  0.00000000000E+00 0. -1.
         -3    1    3    3    0  502  0.41456660941E+02 -0.24204230900E+03  0.16986138648E+02  0.24615373852E+03  0.00000000000E+00 0.  1.
         13    1    5    5    0    0  0.39746119170E+03 -0.12161288916E+02  0.24130561597E+03  0.46513621248E+03  0.00000000000E+00 0. -1.
        -13    1    5    5    0    0  0.60404503989E+01  0.13976247116E+02  0.16017835308E+02  0.22099628332E+02  0.00000000000E+00 0.  1.
          4    1    6    6  503    0 -0.37642001635E+03  0.17729886913E+03  0.23989124003E+03  0.48028608636E+03  0.00000000000E+00 0. -1.
         -4    1    6    6    0  503 -0.79369312206E+02  0.75736813456E+02  0.10235912953E+03  0.15004314056E+03  0.00000000000E+00 0.  1.
<mgrwt>
<rscale>  0 0.12567114E+04</rscale>
<asrwt>0</asrwt>
<pdfrwt beam="1">  1        2 0.15277991E+00 0.12567114E+04</pdfrwt>
<pdfrwt beam="2">  1       -3 0.61167138E-01 0.12567114E+04</pdfrwt>
<totfact> 0.41503127E+01</totfact>
</mgrwt>
</event>
<event>
12    7  0.1611233E-007  0.1419379E+04  0.7818608E-02  0.8939909E-01
          2   -1    0    0  501    0  0.00000000000E+00  0.00000000000E+00  0.17094444534E+04  0.17094444534E+04  0.00000000000E+00 0. -1.
         -1   -1    0    0    0  501 -0.00000000000E+00 -0.00000000000E+00 -0.29463314915E+03  0.29463314915E+03  0.00000000000E+00 0.  1.
         24    2    1    2    0    0 -0.23581711184E+03 -0.18164181273E+03  0.48718689160E+03  0.57640267225E+03  0.79281239026E+02 0.  0.
        254    2    1    2    0    0  0.23581711184E+03  0.18164181273E+03  0.92762441260E+03  0.14276749303E+04  0.10436307763E+04 0.  0.
         23    2    4    4    0    0  0.28929340062E+03 -0.33953388028E+03  0.13804937978E+03  0.47619477492E+03  0.93433960145E+02 0.  0.
         23    2    4    4    0    0 -0.53476288781E+02  0.52117569300E+03  0.78957503282E+03  0.95148015534E+03  0.86034511125E+02 0.  0.
          2    1    3    3  502    0 -0.83021366412E+02 -0.73315600457E+02  0.25551619674E+03  0.27848923022E+03  0.00000000000E+00 0. -1.
         -1    1    3    3    0  502 -0.15279574543E+03 -0.10832621227E+03  0.23167069486E+03  0.29791344203E+03  0.00000000000E+00 0.  1.
         13    1    5    5    0    0  0.12437422785E+03 -0.21748738574E+03  0.78998003868E+02  0.26269829867E+03  0.00000000000E+00 0. -1.
        -13    1    5    5    0    0  0.16491917276E+03 -0.12204649454E+03  0.59051375912E+02  0.21349647625E+03  0.00000000000E+00 0.  1.
          3    1    6    6  503    0  0.44436941918E+01  0.21029871608E+03  0.25710200517E+03  0.33218479415E+03  0.00000000000E+00 0. -1.
         -3    1    6    6    0  503 -0.57919982973E+02  0.31087697692E+03  0.53247302766E+03  0.61929536119E+03  0.00000000000E+00 0.  1.
<mgrwt>
<rscale>  0 0.14193787E+04</rscale>
<asrwt>0</asrwt>
<pdfrwt beam="1">  1        2 0.26299145E+00 0.14193787E+04</pdfrwt>
<pdfrwt beam="2">  1       -1 0.45328178E-01 0.14193787E+04</pdfrwt>
<totfact> 0.51830561E+01</totfact>
</mgrwt>
</event>
<event>
12    7  0.1611233E-007  0.1447169E+04  0.7818608E-02  0.8920366E-01
          2   -1    0    0  501    0  0.00000000000E+00  0.00000000000E+00  0.20532490123E+04  0.20532490123E+04  0.00000000000E+00 0. -1.
         -1   -1    0    0    0  501 -0.00000000000E+00 -0.00000000000E+00 -0.25499802229E+03  0.25499802229E+03  0.00000000000E+00 0.  1.
         24    2    1    2    0    0  0.17972304795E+02  0.38543153520E+03  0.81152655180E+03  0.90285082796E+03  0.87657294003E+02 0.  0.
        254    2    1    2    0    0 -0.17972304795E+02 -0.38543153520E+03  0.98672443819E+03  0.14053962066E+04  0.92338123686E+03 0.  0.
         23    2    4    4    0    0 -0.20102741059E+03 -0.40792754023E+03  0.10837691963E+04  0.11787938501E+04  0.90456466307E+02 0.  0.
         23    2    4    4    0    0  0.18305510579E+03  0.22496005027E+02 -0.97044758091E+02  0.22660235654E+03  0.88970224879E+02 0.  0.
          4    1    3    3  502    0  0.32380249173E+02  0.13720560798E+03  0.37279946128E+03  0.39856404470E+03  0.00000000000E+00 0. -1.
         -3    1    3    3    0  502 -0.14407944378E+02  0.24822592723E+03  0.43872709053E+03  0.50428678326E+03  0.00000000000E+00 0.  1.
         13    1    5    5    0    0 -0.46386379642E+02 -0.94526584671E+02  0.35974665338E+03  0.37483946703E+03  0.00000000000E+00 0. -1.
        -13    1    5    5    0    0 -0.15464103095E+03 -0.31340095556E+03  0.72402254290E+03  0.80395438305E+03  0.00000000000E+00 0.  1.
          4    1    6    6  503    0  0.14288267059E+03 -0.20359785429E+02 -0.55382596320E+02  0.15458722584E+03  0.00000000000E+00 0. -1.
         -4    1    6    6    0  503  0.40172435208E+02  0.42855790457E+02 -0.41662161771E+02  0.72015130699E+02  0.00000000000E+00 0.  1.
<mgrwt>
<rscale>  0 0.14471689E+04</rscale>
<asrwt>0</asrwt>
<pdfrwt beam="1">  1        2 0.31588445E+00 0.14471689E+04</pdfrwt>
<pdfrwt beam="2">  1       -1 0.39230466E-01 0.14471689E+04</pdfrwt>
<totfact> 0.43543088E+01</totfact>
</mgrwt>
</event>
<event>
12    7  0.1611233E-007  0.2101775E+04  0.7818608E-02  0.8560462E-01
          2   -1    0    0  501    0  0.00000000000E+00  0.00000000000E+00  0.16390383938E+04  0.16390383938E+04  0.00000000000E+00 0. -1.
         -1   -1    0    0    0  501 -0.00000000000E+00 -0.00000000000E+00 -0.67378782088E+03  0.67378782088E+03  0.00000000000E+00 0.  1.
         24    2    1    2    0    0 -0.58998541001E+03 -0.31634955415E+03  0.10050860514E+04  0.12102838846E+04  0.80182829173E+02 0.  0.
        254    2    1    2    0    0  0.58998541001E+03  0.31634955415E+03 -0.39835478482E+02  0.11025423301E+04  0.87513021883E+03 0.  0.
         23    2    4    4    0    0 -0.11092463583E+03  0.14985343660E+03 -0.27009184040E+03  0.34042326121E+03  0.90432666827E+02 0.  0.
         23    2    4    4    0    0  0.70091004584E+03  0.16649611756E+03  0.23025636191E+03  0.76211906890E+03  0.93870301257E+02 0.  0.
          4    1    3    3  502    0 -0.11477018544E+03 -0.61863631035E+02  0.25732496296E+03  0.28847086659E+03  0.00000000000E+00 0. -1.
         -3    1    3    3    0  502 -0.47521522457E+03 -0.25448592312E+03  0.74776108848E+03  0.92181301801E+03  0.00000000000E+00 0.  1.
         13    1    5    5    0    0 -0.37800067354E+02  0.12314309085E+03 -0.15614154529E+03  0.20241849738E+03  0.00000000000E+00 0. -1.
        -13    1    5    5    0    0 -0.73124568480E+02  0.26710345750E+02 -0.11395029510E+03  0.13800476383E+03  0.00000000000E+00 0.  1.
          2    1    6    6  503    0  0.21380936337E+03  0.16896862015E+02  0.97226703827E+02  0.23548456371E+03  0.00000000000E+00 0. -1.
         -2    1    6    6    0  503  0.48710068248E+03  0.14959925554E+03  0.13302965809E+03  0.52663450519E+03  0.00000000000E+00 0.  1.
<mgrwt>
<rscale>  0 0.21017746E+04</rscale>
<asrwt>0</asrwt>
<pdfrwt beam="1">  1        2 0.25215975E+00 0.21017746E+04</pdfrwt>
<pdfrwt beam="2">  1       -1 0.10365967E+00 0.21017746E+04</pdfrwt>
<totfact> 0.97631590E+00</totfact>
</mgrwt>
</event>
<event>
12    7  0.1611233E-007  0.1415219E+04  0.7818608E-02  0.8942876E-01
         -1   -1    0    0    0  501 -0.00000000000E+00  0.00000000000E+00  0.25799481233E+03  0.25799481233E+03  0.00000000000E+00 0.  1.
          2   -1    0    0  501    0  0.00000000000E+00 -0.00000000000E+00 -0.19407787595E+04  0.19407787595E+04  0.00000000000E+00 0. -1.
         24    2    1    2    0    0  0.36509324398E+03  0.15208789078E+03 -0.72996425024E+03  0.83387963119E+03  0.77997624128E+02 0.  0.
        254    2    1    2    0    0 -0.36509324398E+03 -0.15208789078E+03 -0.95281969691E+03  0.13648939406E+04  0.89367012424E+03 0.  0.
         23    2    4    4    0    0 -0.67293985191E+01 -0.47649993478E+03 -0.45994648454E+03  0.66856464722E+03  0.91271278204E+02 0.  0.
         23    2    4    4    0    0 -0.35836384547E+03  0.32441204401E+03 -0.49287321237E+03  0.69632929338E+03  0.91009127655E+02 0.  0.
          2    1    3    3  502    0  0.28398635518E+03  0.95469130715E+02 -0.49011619416E+03  0.57443580026E+03  0.00000000000E+00 0. -1.
         -1    1    3    3    0  502  0.81106888806E+02  0.56618760062E+02 -0.23984805608E+03  0.25944383093E+03  0.00000000000E+00 0.  1.
         13    1    5    5    0    0 -0.15391817435E+02 -0.44515205982E+03 -0.39246485290E+03  0.59365471881E+03  0.00000000000E+00 0.  1.
        -13    1    5    5    0    0  0.86624189162E+01 -0.31347874964E+02 -0.67481631635E+02  0.74909928410E+02  0.00000000000E+00 0. -1.
          2    1    6    6  503    0 -0.17574188383E+00  0.81972680730E+01  0.20017430820E+01  0.84399682723E+01  0.00000000000E+00 0. -1.
         -2    1    6    6    0  503 -0.35818810358E+03  0.31621477593E+03 -0.49487495546E+03  0.68788932511E+03  0.00000000000E+00 0.  1.
<mgrwt>
<rscale>  0 0.14152185E+04</rscale>
<asrwt>0</asrwt>
<pdfrwt beam="1">  1        2 0.29858135E+00 0.14152185E+04</pdfrwt>
<pdfrwt beam="2">  1       -1 0.39691510E-01 0.14152185E+04</pdfrwt>
<totfact> 0.49334690E+01</totfact>
</mgrwt>
</event>
<event>
12    7  0.1611233E-007  0.1336837E+04  0.7818608E-02  0.9000852E-01
         -1   -1    0    0    0  501 -0.00000000000E+00  0.00000000000E+00  0.71609676780E+03  0.71609676780E+03  0.00000000000E+00 0.  1.
          2   -1    0    0  501    0  0.00000000000E+00 -0.00000000000E+00 -0.62391488259E+03  0.62391488259E+03  0.00000000000E+00 0. -1.
         24    2    1    2    0    0 -0.17429811302E+03  0.15287656582E+03  0.33973928844E+03  0.41899622377E+03  0.79899779990E+02 0.  0.
        254    2    1    2    0    0  0.17429811302E+03 -0.15287656582E+03 -0.24755740323E+03  0.92101542663E+03  0.85629064670E+03 0.  0.
         23    2    4    4    0    0  0.46200564282E+03 -0.18188750824E+03 -0.33364776979E+03  0.60600548105E+03  0.96899582655E+02 0.  0.
         23    2    4    4    0    0 -0.28770752980E+03  0.29010942419E+02  0.86090366566E+02  0.31500994558E+03  0.90567417542E+02 0.  0.
          2    1    3    3  502    0 -0.12237788732E+03  0.64496265424E+02  0.15521257196E+03  0.20791117827E+03  0.00000000000E+00 0. -1.
         -1    1    3    3    0  502 -0.51920225706E+02  0.88380300394E+02  0.18452671648E+03  0.21108504549E+03  0.00000000000E+00 0.  1.
         13    1    5    5    0    0  0.39396320961E+03 -0.17000296308E+03 -0.24663880418E+03  0.49491283850E+03  0.00000000000E+00 0. -1.
        -13    1    5    5    0    0  0.68042433206E+02 -0.11884545156E+02 -0.87008965617E+02  0.11109264255E+03  0.00000000000E+00 0.  1.
          2    1    6    6  503    0 -0.28001658210E+03  0.36125531254E+02  0.62463576449E+02  0.28916437997E+03  0.00000000000E+00 0. -1.
         -2    1    6    6    0  503 -0.76909476934E+01 -0.71145888344E+01  0.23626790117E+02  0.25845565614E+02  0.00000000000E+00 0.  1.
<mgrwt>
<rscale>  0 0.13368372E+04</rscale>
<asrwt>0</asrwt>
<pdfrwt beam="1">  1        2 0.95986905E-01 0.13368372E+04</pdfrwt>
<pdfrwt beam="2">  1       -1 0.11016873E+00 0.13368372E+04</pdfrwt>
<totfact> 0.40191017E+01</totfact>
</mgrwt>
</event>
<event>
12    7  0.1611233E-007  0.1611987E+04  0.7818608E-02  0.8813217E-01
          2   -1    0    0  501    0  0.00000000000E+00  0.00000000000E+00  0.16786671614E+04  0.16786671614E+04  0.00000000000E+00 0. -1.
         -1   -1    0    0    0  501 -0.00000000000E+00 -0.00000000000E+00 -0.38698903114E+03  0.38698903114E+03  0.00000000000E+00 0.  1.
         24    2    1    2    0    0 -0.38641672447E+03  0.75950102042E+02 -0.58289117301E+02  0.40585631454E+03  0.78964700386E+02 0.  0.
        254    2    1    2    0    0  0.38641672447E+03 -0.75950102042E+02  0.13499672476E+04  0.16597998780E+04  0.88172431209E+03 0.  0.
         23    2    4    4    0    0  0.21350421493E+03 -0.36796374340E+03  0.12010925223E+04  0.12777926412E+04  0.95652603112E+02 0.  0.
         23    2    4    4    0    0  0.17291250954E+03  0.29201364136E+03  0.14887472526E+03  0.38200723681E+03  0.92709991159E+02 0.  0.
          2    1    3    3  502    0 -0.11017313970E+02  0.94260966535E+01 -0.17054082385E+02  0.22384687428E+02  0.00000000000E+00 0. -1.
         -1    1    3    3    0  502 -0.37539941050E+03  0.66524005388E+02 -0.41235034916E+02  0.38347162712E+03  0.00000000000E+00 0.  1.
         13    1    5    5    0    0  0.21492324876E+03 -0.32476042282E+03  0.10254417727E+04  0.10969011643E+04  0.00000000000E+00 0.  1.
        -13    1    5    5    0    0 -0.14190338252E+01 -0.43203320580E+02  0.17565074962E+03  0.18089147688E+03  0.00000000000E+00 0. -1.
          2    1    6    6  503    0  0.28245355787E+02  0.66777665067E+02 -0.59776147269E+01  0.72751553614E+02  0.00000000000E+00 0. -1.
         -2    1    6    6    0  503  0.14466715375E+03  0.22523597629E+03  0.15485233999E+03  0.30925568320E+03  0.00000000000E+00 0.  1.
<mgrwt>
<rscale>  0 0.16119873E+04</rscale>
<asrwt>0</asrwt>
<pdfrwt beam="1">  1        2 0.25825648E+00 0.16119873E+04</pdfrwt>
<pdfrwt beam="2">  1       -1 0.59536775E-01 0.16119873E+04</pdfrwt>
<totfact> 0.31461601E+01</totfact>
</mgrwt>
</event>
<event>
12    7  0.1611233E-007  0.1413741E+04  0.7818608E-02  0.8943932E-01
         -1   -1    0    0    0  501 -0.00000000000E+00  0.00000000000E+00  0.28640067189E+03  0.28640067189E+03  0.00000000000E+00 0.  1.
          2   -1    0    0  501    0  0.00000000000E+00 -0.00000000000E+00 -0.17446382582E+04  0.17446382582E+04  0.00000000000E+00 0. -1.
         24    2    1    2    0    0 -0.38087955257E+02 -0.24089907282E+03  0.42872191508E+02  0.25937712463E+03  0.77171318217E+02 0.  0.
        254    2    1    2    0    0  0.38087955257E+02  0.24089907282E+03 -0.15011097779E+04  0.17716618055E+04  0.90882997985E+03 0.  0.
         23    2    4    4    0    0  0.12697520161E+03  0.15550050811E+03  0.39042954601E+02  0.22388284498E+03  0.91082743303E+02 0.  0.
         23    2    4    4    0    0 -0.88887246355E+02  0.85398564713E+02 -0.15401527325E+04  0.15477789605E+04  0.91407953168E+02 0.  0.
          4    1    3    3  502    0 -0.18120495100E+01  0.29601255636E+01 -0.70252964065E+01  0.78358570927E+01  0.00000000000E+00 0. -1.
         -3    1    3    3    0  502 -0.36275905747E+02 -0.24385919838E+03  0.49897487914E+02  0.25154126754E+03  0.00000000000E+00 0.  1.
         13    1    5    5    0    0  0.55126756272E+02  0.68763383135E+02 -0.28410644388E+02  0.92598740984E+02  0.00000000000E+00 0.  1.
        -13    1    5    5    0    0  0.71848445341E+02  0.86737124971E+02  0.67453598989E+02  0.13128410400E+03  0.00000000000E+00 0. -1.
          3    1    6    6  503    0 -0.71433546008E+02  0.10213276190E+03 -0.14017450992E+04  0.14072750888E+04  0.00000000000E+00 0. -1.
         -3    1    6    6    0  503 -0.17453700347E+02 -0.16734197188E+02 -0.13840763330E+03  0.14050387172E+03  0.00000000000E+00 0.  1.
<mgrwt>
<rscale>  0 0.14137405E+04</rscale>
<asrwt>0</asrwt>
<pdfrwt beam="1">  1        2 0.26840589E+00 0.14137405E+04</pdfrwt>
<pdfrwt beam="2">  1       -1 0.44061642E-01 0.14137405E+04</pdfrwt>
<totfact> 0.52262414E+01</totfact>
</mgrwt>
</event>
<event>
12    7  0.1611233E-007  0.1471598E+04  0.7818608E-02  0.8903563E-01
         -3   -1    0    0    0  501 -0.00000000000E+00  0.00000000000E+00  0.53769118752E+03  0.53769118752E+03  0.00000000000E+00 0.  1.
          2   -1    0    0  501    0  0.00000000000E+00 -0.00000000000E+00 -0.10068980519E+04  0.10068980519E+04  0.00000000000E+00 0. -1.
         24    2    1    2    0    0  0.31493296308E+03 -0.33241237628E+03 -0.20022255548E+03  0.50619271865E+03  0.80381823549E+02 0.  0.
        254    2    1    2    0    0 -0.31493296308E+03  0.33241237628E+03 -0.26898430891E+03  0.10383965208E+04  0.89231945894E+03 0.  0.
         23    2    4    4    0    0 -0.20503796252E+03 -0.98624284274E+02  0.24901689021E+03  0.34939094509E+03  0.91089545946E+02 0.  0.
         23    2    4    4    0    0 -0.10989500056E+03  0.43103666055E+03 -0.51800119911E+03  0.68900557569E+03  0.92379257224E+02 0.  0.
          2    1    3    3  502    0  0.72085838261E+02 -0.56080222888E+02 -0.95259639330E+01  0.91826485645E+02  0.00000000000E+00 0. -1.
         -1    1    3    3    0  502  0.24284712482E+03 -0.27633215339E+03 -0.19069659154E+03  0.41436623300E+03  0.00000000000E+00 0.  1.
         13    1    5    5    0    0 -0.73798623828E+02  0.52983708857E+01  0.49846806012E+02  0.89213304403E+02  0.00000000000E+00 0.  1.
        -13    1    5    5    0    0 -0.13123933869E+03 -0.10392265516E+03  0.19917008419E+03  0.26017764069E+03  0.00000000000E+00 0. -1.
          1    1    6    6  503    0 -0.66363576427E+02  0.27860309727E+03 -0.39725727823E+03  0.48973171757E+03  0.00000000000E+00 0. -1.
         -1    1    6    6    0  503 -0.43531424133E+02  0.15243356328E+03 -0.12074392088E+03  0.19927385813E+03  0.00000000000E+00 0.  1.
<mgrwt>
<rscale>  0 0.14715981E+04</rscale>
<asrwt>0</asrwt>
<pdfrwt beam="1">  1        2 0.15490739E+00 0.14715981E+04</pdfrwt>
<pdfrwt beam="2">  1       -3 0.82721722E-01 0.14715981E+04</pdfrwt>
<totfact> 0.20683060E+01</totfact>
</mgrwt>
</event>
<event>
12    7  0.1611233E-007  0.2149551E+04  0.7818608E-02  0.8539724E-01
         -1   -1    0    0    0  501 -0.00000000000E+00  0.00000000000E+00  0.11340089042E+04  0.11340089042E+04  0.00000000000E+00 0.  1.
          2   -1    0    0  501    0  0.00000000000E+00 -0.00000000000E+00 -0.10186361089E+04  0.10186361089E+04  0.00000000000E+00 0. -1.
         24    2    1    2    0    0  0.85445367694E+02  0.55961160898E+03 -0.62944151033E+03  0.85019083759E+03  0.78497016659E+02 0.  0.
        254    2    1    2    0    0 -0.85445367694E+02 -0.55961160898E+03  0.74481430560E+03  0.13024541756E+04  0.90618566854E+03 0.  0.
         23    2    4    4    0    0  0.26267612083E+03  0.45292574516E+01 -0.29331130798E+02  0.27909744996E+03  0.89531071229E+02 0.  0.
         23    2    4    4    0    0 -0.34812148852E+03 -0.56414086643E+03  0.77414543640E+03  0.10233567256E+04  0.92273198742E+02 0.  0.
          2    1    3    3  502    0  0.61344050308E+02  0.31862716493E+03 -0.41433100701E+03  0.52626661124E+03  0.00000000000E+00 0. -1.
         -1    1    3    3    0  502  0.24101317387E+02  0.24098444405E+03 -0.21511050333E+03  0.32392422635E+03  0.00000000000E+00 0.  1.
         13    1    5    5    0    0  0.14629273142E+03 -0.42012474422E+02 -0.16567666578E+02  0.15310486226E+03  0.00000000000E+00 0. -1.
        -13    1    5    5    0    0  0.11638338941E+03  0.46541731873E+02 -0.12763464220E+02  0.12599258770E+03  0.00000000000E+00 0.  1.
          1    1    6    6  503    0 -0.34674452846E+03 -0.53984084084E+03  0.76203487777E+03  0.99617119834E+03  0.00000000000E+00 0. -1.
         -1    1    6    6    0  503 -0.13769600634E+01 -0.24300025598E+02  0.12110558627E+02  0.27185527277E+02  0.00000000000E+00 0.  1.
<mgrwt>
<rscale>  0 0.21495510E+04</rscale>
<asrwt>0</asrwt>
<pdfrwt beam="1">  1        2 0.15671325E+00 0.21495510E+04</pdfrwt>
<pdfrwt beam="2">  1       -1 0.17446291E+00 0.21495510E+04</pdfrwt>
<totfact> 0.58545498E+00</totfact>
</mgrwt>
</event>
<event>
12    7  0.1611233E-007  0.1506484E+04  0.7818608E-02  0.8880153E-01
         -1   -1    0    0    0  501 -0.00000000000E+00  0.00000000000E+00  0.30882270236E+03  0.30882270236E+03  0.00000000000E+00 0.  1.
          2   -1    0    0  501    0  0.00000000000E+00 -0.00000000000E+00 -0.18372143954E+04  0.18372143954E+04  0.00000000000E+00 0. -1.
         24    2    1    2    0    0  0.77991267123E+02  0.27622057035E+02  0.18163684295E+03  0.21585439969E+03  0.82192234211E+02 0.  0.
        254    2    1    2    0    0 -0.77991267123E+02 -0.27622057035E+02 -0.17100285360E+04  0.19301826981E+04  0.89138209442E+03 0.  0.
         23    2    4    4    0    0 -0.21730390125E+03  0.35652142505E+03 -0.11766919802E+04  0.12517729240E+04  0.89459067754E+02 0.  0.
         23    2    4    4    0    0  0.13931263413E+03 -0.38414348209E+03 -0.53333655577E+03  0.67840977412E+03  0.93902689227E+02 0.  0.
          2    1    3    3  502    0 -0.22123538389E+01  0.32847854685E+02  0.31536465209E+02  0.45589743417E+02  0.00000000000E+00 0. -1.
         -1    1    3    3    0  502  0.80203620962E+02 -0.52257976504E+01  0.15010037774E+03  0.17026465627E+03  0.00000000000E+00 0.  1.
         13    1    5    5    0    0 -0.10940951917E+03  0.13343325478E+03 -0.37804602694E+03  0.41556428486E+03  0.00000000000E+00 0.  1.
        -13    1    5    5    0    0 -0.10789438208E+03  0.22308817027E+03 -0.79864595329E+03  0.83620863910E+03  0.00000000000E+00 0. -1.
          1    1    6    6  503    0  0.84750595707E+02 -0.29983173658E+03 -0.45297118707E+03  0.54978598568E+03  0.00000000000E+00 0. -1.
         -1    1    6    6    0  503  0.54562038420E+02 -0.84311745504E+02 -0.80365368703E+02  0.12862378844E+03  0.00000000000E+00 0.  1.
<mgrwt>
<rscale>  0 0.15064840E+04</rscale>
<asrwt>0</asrwt>
<pdfrwt beam="1">  1        2 0.28264836E+00 0.15064840E+04</pdfrwt>
<pdfrwt beam="2">  1       -1 0.47511187E-01 0.15064840E+04</pdfrwt>
<totfact> 0.40031413E+01</totfact>
</mgrwt>
</event>
<event>
12    7  0.1611233E-007  0.1494588E+04  0.7818608E-02  0.8888060E-01
         -1   -1    0    0    0  501 -0.00000000000E+00  0.00000000000E+00  0.84902584962E+03  0.84902584962E+03  0.00000000000E+00 0.  1.
          2   -1    0    0  501    0  0.00000000000E+00 -0.00000000000E+00 -0.65775163496E+03  0.65775163496E+03  0.00000000000E+00 0. -1.
         24    2    1    2    0    0  0.51561897020E+02 -0.21596455282E+02  0.52670868299E+03  0.53555776079E+03  0.79215164580E+02 0.  0.
        254    2    1    2    0    0 -0.51561897020E+02  0.21596455282E+02 -0.33543446833E+03  0.97121972379E+03  0.90973976127E+03 0.  0.
         23    2    4    4    0    0 -0.39245911813E+01 -0.43317171684E+03 -0.19615254723E+03  0.48470754020E+03  0.93874592174E+02 0.  0.
         23    2    4    4    0    0 -0.47637305839E+02  0.45476817212E+03 -0.13928192110E+03  0.48651218360E+03  0.90615936581E+02 0.  0.
          4    1    3    3  502    0 -0.14004931416E+02 -0.26426661904E+02  0.20794688754E+03  0.21008668354E+03  0.00000000000E+00 0. -1.
         -3    1    3    3    0  502  0.65566828436E+02  0.48302066212E+01  0.31876179545E+03  0.32547107724E+03  0.00000000000E+00 0.  1.
         13    1    5    5    0    0 -0.18269611821E+02 -0.42300125574E+03 -0.19725106630E+03  0.46708866849E+03  0.00000000000E+00 0. -1.
        -13    1    5    5    0    0  0.14345020640E+02 -0.10170461099E+02  0.10985190761E+01  0.17618871709E+02  0.00000000000E+00 0.  1.
          1    1    6    6  503    0  0.12927565643E+01  0.34142253355E+03 -0.86268588169E+02  0.35215520292E+03  0.00000000000E+00 0. -1.
         -1    1    6    6    0  503 -0.48930062403E+02  0.11334563857E+03 -0.53013332930E+02  0.13435698068E+03  0.00000000000E+00 0.  1.
<mgrwt>
<rscale>  0 0.14945878E+04</rscale>
<asrwt>0</asrwt>
<pdfrwt beam="1">  1        2 0.10119256E+00 0.14945878E+04</pdfrwt>
<pdfrwt beam="2">  1       -1 0.13061936E+00 0.14945878E+04</pdfrwt>
<totfact> 0.24519624E+01</totfact>
</mgrwt>
</event>
<event>
12    7  0.1611233E-007  0.1305270E+04  0.7818608E-02  0.9025396E-01
          2   -1    0    0  501    0  0.00000000000E+00  0.00000000000E+00  0.12374408631E+04  0.12374408631E+04  0.00000000000E+00 0. -1.
         -1   -1    0    0    0  501 -0.00000000000E+00 -0.00000000000E+00 -0.34420438638E+03  0.34420438638E+03  0.00000000000E+00 0.  1.
         24    2    1    2    0    0  0.23441728274E+03  0.29681829253E+02  0.52422814371E+03  0.58044311129E+03  0.79161766993E+02 0.  0.
        254    2    1    2    0    0 -0.23441728274E+03 -0.29681829253E+02  0.36900833301E+03  0.10012021382E+04  0.90022558187E+03 0.  0.
         23    2    4    4    0    0  0.10629546171E+03 -0.24692378175E+03 -0.16193634745E+03  0.32795912159E+03  0.95203600957E+02 0.  0.
         23    2    4    4    0    0 -0.34071274446E+03  0.21724195249E+03  0.53094468045E+03  0.67324301660E+03  0.89859142754E+02 0.  0.
          2    1    3    3  502    0  0.20500901402E+03  0.52672764597E+02  0.43702112068E+03  0.48558271785E+03  0.00000000000E+00 0. -1.
         -1    1    3    3    0  502  0.29408268721E+02 -0.22990935344E+02  0.87207023033E+02  0.94860393439E+02  0.00000000000E+00 0.  1.
         13    1    5    5    0    0  0.98071139262E+02 -0.11163103427E+03 -0.98748175612E+02  0.17841143000E+03  0.00000000000E+00 0. -1.
        -13    1    5    5    0    0  0.82243224526E+01 -0.13529274747E+03 -0.63188171837E+02  0.14954769159E+03  0.00000000000E+00 0.  1.
          4    1    6    6  503    0 -0.85691059866E+01  0.29806423961E+02  0.57140627355E+02  0.65014642822E+02  0.00000000000E+00 0. -1.
         -4    1    6    6    0  503 -0.33214363847E+03  0.18743552853E+03  0.47380405310E+03  0.60822837378E+03  0.00000000000E+00 0.  1.
<mgrwt>
<rscale>  0 0.13052702E+04</rscale>
<asrwt>0</asrwt>
<pdfrwt beam="1">  1        2 0.19037552E+00 0.13052702E+04</pdfrwt>
<pdfrwt beam="2">  1       -1 0.52954521E-01 0.13052702E+04</pdfrwt>
<totfact> 0.72249805E+01</totfact>
</mgrwt>
</event>
<event>
12    7  0.1611233E-007  0.1619153E+04  0.7818608E-02  0.8808867E-01
         -1   -1    0    0    0  501 -0.00000000000E+00  0.00000000000E+00  0.21547325682E+04  0.21547325682E+04  0.00000000000E+00 0.  1.
          2   -1    0    0  501    0  0.00000000000E+00 -0.00000000000E+00 -0.30417417006E+03  0.30417417006E+03  0.00000000000E+00 0. -1.
         24    2    1    2    0    0  0.21804695857E+03  0.38604449693E+03  0.11402757162E+04  0.12259827459E+04  0.78931327722E+02 0.  0.
        254    2    1    2    0    0 -0.21804695857E+03 -0.38604449693E+03  0.71028268191E+03  0.12329239923E+04  0.90500013974E+03 0.  0.
         23    2    4    4    0    0  0.35790119607E+02 -0.58266131850E+03  0.20120282144E+03  0.62428571850E+03  0.92059427681E+02 0.  0.
         23    2    4    4    0    0 -0.25383707818E+03  0.19661682158E+03  0.50907986046E+03  0.60863827384E+03  0.90480977391E+02 0.  0.
          2    1    3    3  502    0  0.59967493306E+02  0.91241252888E+02  0.19824904233E+03  0.22632664286E+03  0.00000000000E+00 0. -1.
         -1    1    3    3    0  502  0.15807946527E+03  0.29480324404E+03  0.94202667387E+03  0.99965610302E+03  0.00000000000E+00 0.  1.
         13    1    5    5    0    0 -0.30699099694E+02 -0.18219678650E+03  0.54344443542E+02  0.19259133489E+03  0.00000000000E+00 0.  1.
        -13    1    5    5    0    0  0.66489219302E+02 -0.40046453201E+03  0.14685837790E+03  0.43169438361E+03  0.00000000000E+00 0. -1.
          3    1    6    6  503    0 -0.86025281354E+02  0.55635777141E+02  0.93006627035E+02  0.13836878767E+03  0.00000000000E+00 0. -1.
         -3    1    6    6    0  503 -0.16781179682E+03  0.14098104444E+03  0.41607323343E+03  0.47026948617E+03  0.00000000000E+00 0.  1.
<mgrwt>
<rscale>  0 0.16191529E+04</rscale>
<asrwt>0</asrwt>
<pdfrwt beam="1">  1        2 0.46796027E-01 0.16191529E+04</pdfrwt>
<pdfrwt beam="2">  1       -1 0.33149731E+00 0.16191529E+04</pdfrwt>
<totfact> 0.24463540E+00</totfact>
</mgrwt>
</event>
<event>
12    7  0.1611233E-007  0.1503983E+04  0.7818608E-02  0.8881808E-01
          2   -1    0    0  501    0  0.00000000000E+00  0.00000000000E+00  0.21805804003E+04  0.21805804003E+04  0.00000000000E+00 0. -1.
         -1   -1    0    0    0  501 -0.00000000000E+00 -0.00000000000E+00 -0.25933072491E+03  0.25933072491E+03  0.00000000000E+00 0.  1.
         24    2    1    2    0    0 -0.37538260453E+03 -0.54895295606E+02  0.15089054257E+03  0.41523432481E+03  0.75670307256E+02 0.  0.
        254    2    1    2    0    0  0.37538260453E+03  0.54895295606E+02  0.17703591328E+04  0.20246768004E+04  0.90621139566E+03 0.  0.
         23    2    4    4    0    0  0.16591860288E+03 -0.35086415870E+03  0.13119178820E+04  0.13712305707E+04  0.92250248031E+02 0.  0.
         23    2    4    4    0    0  0.20946400165E+03  0.40575945431E+03  0.45844125085E+03  0.65344622972E+03  0.91146540857E+02 0.  0.
          4    1    3    3  502    0 -0.48245584452E+02  0.34062369213E+01  0.46085994501E+02  0.66806869094E+02  0.00000000000E+00 0. -1.
         -3    1    3    3    0  502 -0.32713702008E+03 -0.58301532527E+02  0.10480454807E+03  0.34842745571E+03  0.00000000000E+00 0.  1.
         13    1    5    5    0    0  0.17120295634E+03 -0.35008710953E+03  0.12562772381E+04  0.13153341536E+04  0.00000000000E+00 0. -1.
        -13    1    5    5    0    0 -0.52843534609E+01 -0.77704917317E+00  0.55640643860E+02  0.55896417113E+02  0.00000000000E+00 0.  1.
          2    1    6    6  503    0  0.17106938744E+03  0.31595788328E+03  0.40755809289E+03  0.54332100862E+03  0.00000000000E+00 0. -1.
         -2    1    6    6    0  503  0.38394614207E+02  0.89801571026E+02  0.50883157960E+02  0.11012522110E+03  0.00000000000E+00 0.  1.
<mgrwt>
<rscale>  0 0.15039834E+04</rscale>
<asrwt>0</asrwt>
<pdfrwt beam="1">  1        2 0.33547389E+00 0.15039834E+04</pdfrwt>
<pdfrwt beam="2">  1       -1 0.39897036E-01 0.15039834E+04</pdfrwt>
<totfact> 0.35687132E+01</totfact>
</mgrwt>
</event>
<event>
12    7  0.1611233E-007  0.1770063E+04  0.7818608E-02  0.8722384E-01
         -1   -1    0    0    0  501 -0.00000000000E+00  0.00000000000E+00  0.15328740882E+04  0.15328740882E+04  0.00000000000E+00 0.  1.
          2   -1    0    0  501    0  0.00000000000E+00 -0.00000000000E+00 -0.51098825975E+03  0.51098825975E+03  0.00000000000E+00 0. -1.
         24    2    1    2    0    0  0.49086787641E+03 -0.18057153512E+03  0.83726811404E+03  0.99048803497E+03  0.80568612141E+02 0.  0.
        254    2    1    2    0    0 -0.49086787641E+03  0.18057153512E+03  0.18461771442E+03  0.10533743130E+04  0.89552017923E+03 0.  0.
         23    2    4    4    0    0 -0.73370439729E+03  0.73376252575E+02  0.20912459686E+03  0.77254649806E+03  0.96895704818E+02 0.  0.
         23    2    4    4    0    0  0.24283652089E+03  0.10719528254E+03 -0.24506882434E+02  0.28082781492E+03  0.88336118734E+02 0.  0.
          4    1    3    3  502    0  0.50682762266E+02  0.13271302723E+01  0.11022893736E+03  0.12132980795E+03  0.00000000000E+00 0. -1.
         -3    1    3    3    0  502  0.44018511414E+03 -0.18189866539E+03  0.72703917668E+03  0.86915822703E+03  0.00000000000E+00 0.  1.
         13    1    5    5    0    0 -0.14386906380E+03  0.27348008543E+02  0.44443927821E+01  0.14651270838E+03  0.00000000000E+00 0.  1.
        -13    1    5    5    0    0 -0.58983533349E+03  0.46028244033E+02  0.20468020408E+03  0.62603378969E+03  0.00000000000E+00 0. -1.
          3    1    6    6  503    0  0.13980410517E+03  0.10802675817E+03 -0.13100698586E+02  0.17716262756E+03  0.00000000000E+00 0. -1.
         -3    1    6    6    0  503  0.10303241572E+03 -0.83147562310E+00 -0.11406183848E+02  0.10366518736E+03  0.00000000000E+00 0.  1.
<mgrwt>
<rscale>  0 0.17700629E+04</rscale>
<asrwt>0</asrwt>
<pdfrwt beam="1">  1        2 0.78613579E-01 0.17700629E+04</pdfrwt>
<pdfrwt beam="2">  1       -1 0.23582678E+00 0.17700629E+04</pdfrwt>
<totfact> 0.56075121E+00</totfact>
</mgrwt>
</event>
<event>
12    7  0.1611233E-007  0.1374968E+04  0.7818608E-02  0.8972140E-01
         -1   -1    0    0    0  501 -0.00000000000E+00  0.00000000000E+00  0.63070048753E+03  0.63070048753E+03  0.00000000000E+00 0.  1.
          2   -1    0    0  501    0  0.00000000000E+00 -0.00000000000E+00 -0.74938028188E+03  0.74938028188E+03  0.00000000000E+00 0. -1.
         24    2    1    2    0    0  0.33059634945E+03  0.21459250275E+03 -0.31541078697E+02  0.40414248822E+03  0.83620706965E+02 0.  0.
        254    2    1    2    0    0 -0.33059634945E+03 -0.21459250275E+03 -0.87138715651E+02  0.97593828119E+03  0.88854852676E+03 0.  0.
         23    2    4    4    0    0  0.12705427221E+03 -0.14621193772E+03  0.29784798346E+03  0.36684841223E+03  0.91343404165E+02 0.  0.
         23    2    4    4    0    0 -0.45765062166E+03 -0.68380565033E+02 -0.38498669912E+03  0.60908986896E+03  0.93036104779E+02 0.  0.
          2    1    3    3  502    0  0.13881426134E+03  0.78934186228E+02 -0.52999536699E+02  0.16825265465E+03  0.00000000000E+00 0. -1.
         -1    1    3    3    0  502  0.19178208811E+03  0.13565831653E+03  0.21458458002E+02  0.23588983357E+03  0.00000000000E+00 0.  1.
         13    1    5    5    0    0  0.75678145265E+02 -0.11875806220E+03  0.26469506449E+03  0.29982350837E+03  0.00000000000E+00 0. -1.
        -13    1    5    5    0    0  0.51376126941E+02 -0.27453875520E+02  0.33152918975E+02  0.67024903857E+02  0.00000000000E+00 0.  1.
          1    1    6    6  503    0 -0.20403601871E+03 -0.67979668952E+02 -0.21278438468E+03  0.30253781034E+03  0.00000000000E+00 0. -1.
         -1    1    6    6    0  503 -0.25361460294E+03 -0.40089608129E+00 -0.17220231444E+03  0.30655205862E+03  0.00000000000E+00 0.  1.
<mgrwt>
<rscale>  0 0.13749684E+04</rscale>
<asrwt>0</asrwt>
<pdfrwt beam="1">  1        2 0.11528927E+00 0.13749684E+04</pdfrwt>
<pdfrwt beam="2">  1       -1 0.97030844E-01 0.13749684E+04</pdfrwt>
<totfact> 0.42690254E+01</totfact>
</mgrwt>
</event>
<event>
12    7  0.1611233E-007  0.4802610E+04  0.7818608E-02  0.7859699E-01
         -1   -1    0    0    0  501 -0.00000000000E+00  0.00000000000E+00  0.29176991992E+04  0.29176991992E+04  0.00000000000E+00 0.  1.
          2   -1    0    0  501    0  0.00000000000E+00 -0.00000000000E+00 -0.19763055023E+04  0.19763055023E+04  0.00000000000E+00 0. -1.
         24    2    1    2    0    0  0.84131857462E+03 -0.16127737177E+04 -0.10101645098E+04  0.20821934530E+04  0.79001458462E+02 0.  0.
        254    2    1    2    0    0 -0.84131857462E+03  0.16127737177E+04  0.19515582067E+04  0.28118112484E+04  0.88817062221E+03 0.  0.
         23    2    4    4    0    0 -0.50771325952E+03  0.17416473199E+03  0.50879618034E+03  0.74522218149E+03  0.91522887252E+02 0.  0.
         23    2    4    4    0    0 -0.33360531510E+03  0.14386089857E+04  0.14427620264E+04  0.20665890670E+04  0.91322433499E+02 0.  0.
          2    1    3    3  502    0  0.51666381384E+03 -0.96370930328E+03 -0.56508394698E+03  0.12308521377E+04  0.00000000000E+00 0. -1.
         -1    1    3    3    0  502  0.32465476078E+03 -0.64906441446E+03 -0.44508056282E+03  0.85134131535E+03  0.00000000000E+00 0.  1.
         13    1    5    5    0    0 -0.67739469799E+02  0.24279926484E+02  0.30118897065E+02  0.78008323653E+02  0.00000000000E+00 0.  1.
        -13    1    5    5    0    0 -0.43997378972E+03  0.14988480551E+03  0.47867728327E+03  0.66721385784E+03  0.00000000000E+00 0. -1.
          3    1    6    6  503    0 -0.25393541312E+03  0.12157099510E+04  0.11840462684E+04  0.17159252445E+04  0.00000000000E+00 0. -1.
         -3    1    6    6    0  503 -0.79669901980E+02  0.22289903477E+03  0.25871575793E+03  0.35066382246E+03  0.00000000000E+00 0.  1.
<mgrwt>
<rscale>  0 0.48026097E+04</rscale>
<asrwt>0</asrwt>
<pdfrwt beam="1">  1        2 0.30404700E+00 0.48026097E+04</pdfrwt>
<pdfrwt beam="2">  1       -1 0.44887680E+00 0.48026097E+04</pdfrwt>
<totfact> 0.19139708E-02</totfact>
</mgrwt>
</event>
<event>
12    7  0.1611233E-007  0.3078719E+04  0.7818608E-02  0.8221603E-01
         -1   -1    0    0    0  501 -0.00000000000E+00  0.00000000000E+00  0.10041993398E+04  0.10041993398E+04  0.00000000000E+00 0.  1.
          2   -1    0    0  501    0  0.00000000000E+00 -0.00000000000E+00 -0.23597179698E+04  0.23597179698E+04  0.00000000000E+00 0. -1.
         24    2    1    2    0    0 -0.84665988029E+03  0.60758193229E+02 -0.18460957045E+04  0.20334643286E+04  0.79895648201E+02 0.  0.
        254    2    1    2    0    0  0.84665988029E+03 -0.60758193229E+02  0.49057707452E+03  0.13304529810E+04  0.89939688553E+03 0.  0.
         23    2    4    4    0    0  0.78095717105E+03  0.30376468476E+03  0.24924063097E+03  0.87897549248E+03  0.91158858782E+02 0.  0.
         23    2    4    4    0    0  0.65702709244E+02 -0.36452287799E+03  0.24133644354E+03  0.45147748853E+03  0.91623518175E+02 0.  0.
          4    1    3    3  502    0 -0.72801926179E+03  0.77298700714E+02 -0.16138834606E+04  0.17721757698E+04  0.00000000000E+00 0. -1.
         -3    1    3    3    0  502 -0.11864061850E+03 -0.16540507486E+02 -0.23221224395E+03  0.26128855885E+03  0.00000000000E+00 0.  1.
         13    1    5    5    0    0  0.62914110390E+03  0.23311080171E+03  0.23506308985E+03  0.71092463081E+03  0.00000000000E+00 0.  1.
        -13    1    5    5    0    0  0.15181606715E+03  0.70653883048E+02  0.14177541127E+02  0.16805086167E+03  0.00000000000E+00 0. -1.
          4    1    6    6  503    0  0.38453624783E+01 -0.18470964331E+03  0.77013821801E+02  0.20015885664E+03  0.00000000000E+00 0. -1.
         -4    1    6    6    0  503  0.61857346766E+02 -0.17981323468E+03  0.16432262174E+03  0.25131863189E+03  0.00000000000E+00 0.  1.
<mgrwt>
<rscale>  0 0.30787187E+04</rscale>
<asrwt>0</asrwt>
<pdfrwt beam="1">  1        2 0.36303353E+00 0.30787187E+04</pdfrwt>
<pdfrwt beam="2">  1       -1 0.15449221E+00 0.30787187E+04</pdfrwt>
<totfact> 0.13049723E+00</totfact>
</mgrwt>
</event>
<event>
12    7  0.1611233E-007  0.1315022E+04  0.7818608E-02  0.9017736E-01
          2   -1    0    0  501    0  0.00000000000E+00  0.00000000000E+00  0.10510527555E+04  0.10510527555E+04  0.00000000000E+00 0. -1.
         -1   -1    0    0    0  501 -0.00000000000E+00 -0.00000000000E+00 -0.41132190828E+03  0.41132190828E+03  0.00000000000E+00 0.  1.
         24    2    1    2    0    0  0.28204589743E+02  0.28691802125E+03 -0.42514826060E+02  0.30294117493E+03  0.82755031473E+02 0.  0.
        254    2    1    2    0    0 -0.28204589743E+02 -0.28691802125E+03  0.68224567331E+03  0.11594334889E+04  0.89202545176E+03 0.  0.
         23    2    4    4    0    0 -0.76534947220E+02 -0.41370344650E+03  0.83279615821E+03  0.93666661567E+03  0.82381842590E+02 0.  0.
         23    2    4    4    0    0  0.48330357477E+02  0.12678542525E+03 -0.15055048490E+03  0.22276687321E+03  0.92462228963E+02 0.  0.
          4    1    3    3  502    0 -0.50954724187E+01  0.56197108955E+02  0.22788196001E+02  0.60855408724E+02  0.00000000000E+00 0. -1.
         -3    1    3    3    0  502  0.33300062162E+02  0.23072091229E+03 -0.65303022061E+02  0.24208576620E+03  0.00000000000E+00 0.  1.
         13    1    5    5    0    0 -0.26478085233E+01 -0.23605722069E+03  0.47443504631E+03  0.52992323547E+03  0.00000000000E+00 0.  1.
        -13    1    5    5    0    0 -0.73887138697E+02 -0.17764622581E+03  0.35836111190E+03  0.40674338020E+03  0.00000000000E+00 0. -1.
          3    1    6    6  503    0  0.57156498919E+02  0.97472999607E+02 -0.61597681812E+02  0.12869392148E+03  0.00000000000E+00 0. -1.
         -3    1    6    6    0  503 -0.88261414416E+01  0.29312425648E+02 -0.88952803087E+02  0.94072951729E+02  0.00000000000E+00 0.  1.
<mgrwt>
<rscale>  0 0.13150225E+04</rscale>
<asrwt>0</asrwt>
<pdfrwt beam="1">  1        2 0.16170042E+00 0.13150225E+04</pdfrwt>
<pdfrwt beam="2">  1       -1 0.63280294E-01 0.13150225E+04</pdfrwt>
<totfact> 0.66120558E+01</totfact>
</mgrwt>
</event>
<event>
12    7  0.1611233E-007  0.1412907E+04  0.7818608E-02  0.8944529E-01
         -1   -1    0    0    0  501 -0.00000000000E+00  0.00000000000E+00  0.76008395111E+03  0.76008395111E+03  0.00000000000E+00 0.  1.
          2   -1    0    0  501    0  0.00000000000E+00 -0.00000000000E+00 -0.65660699862E+03  0.65660699862E+03  0.00000000000E+00 0. -1.
         24    2    1    2    0    0 -0.55433686724E+02 -0.23018520383E+03 -0.31174528929E+03  0.39955748149E+03  0.80018335000E+02 0.  0.
        254    2    1    2    0    0  0.55433686724E+02  0.23018520383E+03  0.41522224178E+03  0.10171334682E+04  0.89782674301E+03 0.  0.
         23    2    4    4    0    0  0.46563842243E+03  0.16829580293E+03  0.21320499866E+03  0.54657760405E+03  0.90266760597E+02 0.  0.
         23    2    4    4    0    0 -0.41020473571E+03  0.61889400899E+02  0.20201724312E+03  0.47055586419E+03  0.92269343009E+02 0.  0.
          2    1    3    3  502    0 -0.42977446182E+02 -0.23196336240E+03 -0.28478905594E+03  0.36980923293E+03  0.00000000000E+00 0. -1.
         -1    1    3    3    0  502 -0.12456240542E+02  0.17781585662E+01 -0.26956233351E+02  0.29748248567E+02  0.00000000000E+00 0.  1.
         13    1    5    5    0    0  0.80388572530E+02  0.48666609371E+02  0.74769527740E+02  0.12008848296E+03  0.00000000000E+00 0.  1.
        -13    1    5    5    0    0  0.38524984990E+03  0.11962919356E+03  0.13843547092E+03  0.42648912109E+03  0.00000000000E+00 0. -1.
          3    1    6    6  503    0 -0.35026828604E+03  0.84933637681E+02  0.16448493587E+03  0.39617785040E+03  0.00000000000E+00 0. -1.
         -3    1    6    6    0  503 -0.59936449666E+02 -0.23044236782E+02  0.37532307256E+02  0.74378013790E+02  0.00000000000E+00 0.  1.
<mgrwt>
<rscale>  0 0.14129069E+04</rscale>
<asrwt>0</asrwt>
<pdfrwt beam="1">  1        2 0.10101646E+00 0.14129069E+04</pdfrwt>
<pdfrwt beam="2">  1       -1 0.11693599E+00 0.14129069E+04</pdfrwt>
<totfact> 0.32534556E+01</totfact>
</mgrwt>
</event>
<event>
12    7  0.1611233E-007  0.1951958E+04  0.7818608E-02  0.8629417E-01
          2   -1    0    0  501    0  0.00000000000E+00  0.00000000000E+00  0.16274376322E+04  0.16274376322E+04  0.00000000000E+00 0. -1.
         -1   -1    0    0    0  501 -0.00000000000E+00 -0.00000000000E+00 -0.58529739533E+03  0.58529739533E+03  0.00000000000E+00 0.  1.
         24    2    1    2    0    0  0.49765711595E+03 -0.36376709283E+03 -0.94165807329E+02  0.62884224572E+03  0.81155824466E+02 0.  0.
        254    2    1    2    0    0 -0.49765711595E+03  0.36376709283E+03  0.11363060442E+04  0.15838927818E+04  0.91516982866E+03 0.  0.
         23    2    4    4    0    0 -0.59256937283E+03  0.23483788521E+03  0.12225820518E+04  0.13818512628E+04  0.92297049526E+02 0.  0.
         23    2    4    4    0    0  0.94912256872E+02  0.12892920762E+03 -0.86276007607E+02  0.20204151895E+03  0.88012208286E+02 0.  0.
          4    1    3    3  502    0  0.18938092036E+03 -0.10204338216E+03 -0.58178573890E+02  0.22285136594E+03  0.00000000000E+00 0. -1.
         -1    1    3    3    0  502  0.30827619559E+03 -0.26172371067E+03 -0.35987233439E+02  0.40599087978E+03  0.00000000000E+00 0.  1.
         13    1    5    5    0    0  0.13194255478E+00  0.37919983459E+01  0.29752891731E+02  0.29993853148E+02  0.00000000000E+00 0. -1.
        -13    1    5    5    0    0 -0.59270131538E+03  0.23104588687E+03  0.11928291600E+04  0.13518574097E+04  0.00000000000E+00 0.  1.
          2    1    6    6  503    0  0.15255302992E+02  0.93975874907E+02 -0.37611785441E+02  0.10236618454E+03  0.00000000000E+00 0. -1.
         -2    1    6    6    0  503  0.79656953880E+02  0.34953332711E+02 -0.48664222166E+02  0.99675334402E+02  0.00000000000E+00 0.  1.
<mgrwt>
<rscale>  0 0.19519580E+04</rscale>
<asrwt>0</asrwt>
<pdfrwt beam="1">  1        2 0.25037502E+00 0.19519580E+04</pdfrwt>
<pdfrwt beam="2">  1       -1 0.90045754E-01 0.19519580E+04</pdfrwt>
<totfact> 0.13799015E+01</totfact>
</mgrwt>
</event>
<event>
12    7  0.1611233E-007  0.2785219E+04  0.7818608E-02  0.8307872E-01
          2   -1    0    0  501    0  0.00000000000E+00  0.00000000000E+00  0.21118395725E+04  0.21118395725E+04  0.00000000000E+00 0. -1.
         -1   -1    0    0    0  501 -0.00000000000E+00 -0.00000000000E+00 -0.91832794832E+03  0.91832794832E+03  0.00000000000E+00 0.  1.
         24    2    1    2    0    0  0.75800920845E+03  0.26103729133E+03  0.15717821055E+04  0.17662780744E+04  0.80751602112E+02 0.  0.
        254    2    1    2    0    0 -0.75800920845E+03 -0.26103729133E+03 -0.37827048135E+03  0.12638894464E+04  0.90089374967E+03 0.  0.
         23    2    4    4    0    0 -0.90433924122E+02 -0.30986729634E+03 -0.47510056501E+03  0.58145343631E+03  0.90396436620E+02 0.  0.
         23    2    4    4    0    0 -0.66757528433E+03  0.48830005011E+02  0.96830083662E+02  0.68243601013E+03  0.91113737573E+02 0.  0.
          4    1    3    3  502    0  0.74797409589E+02  0.15317090350E+02  0.20240622285E+03  0.21632740184E+03  0.00000000000E+00 0. -1.
         -1    1    3    3    0  502  0.68321179887E+03  0.24572020098E+03  0.13693758827E+04  0.15499506725E+04  0.00000000000E+00 0.  1.
         13    1    5    5    0    0 -0.99728065259E+02 -0.18871885599E+03 -0.29166404006E+03  0.36142551912E+03  0.00000000000E+00 0.  1.
        -13    1    5    5    0    0  0.92941411370E+01 -0.12114844035E+03 -0.18343652495E+03  0.22002791719E+03  0.00000000000E+00 0. -1.
          4    1    6    6  503    0 -0.51939455444E+03  0.10935865967E+02  0.47261611712E+02  0.52165501654E+03  0.00000000000E+00 0. -1.
         -4    1    6    6    0  503 -0.14818072990E+03  0.37894139043E+02  0.49568471950E+02  0.16078099359E+03  0.00000000000E+00 0.  1.
<mgrwt>
<rscale>  0 0.27852191E+04</rscale>
<asrwt>0</asrwt>
<pdfrwt beam="1">  1        2 0.32489839E+00 0.27852191E+04</pdfrwt>
<pdfrwt beam="2">  1       -1 0.14128122E+00 0.27852191E+04</pdfrwt>
<totfact> 0.23467267E+00</totfact>
</mgrwt>
</event>
<event>
12    7  0.1611233E-007  0.1721497E+04  0.7818608E-02  0.8749198E-01
          2   -1    0    0  501    0  0.00000000000E+00  0.00000000000E+00  0.15776024414E+04  0.15776024414E+04  0.00000000000E+00 0. -1.
         -1   -1    0    0    0  501 -0.00000000000E+00 -0.00000000000E+00 -0.46962903722E+03  0.46962903722E+03  0.00000000000E+00 0.  1.
         24    2    1    2    0    0 -0.26582167761E+03 -0.31593823172E+03  0.95846399571E+03  0.10465472705E+04  0.78293217106E+02 0.  0.
        254    2    1    2    0    0  0.26582167761E+03  0.31593823172E+03  0.14950940850E+03  0.10006842081E+04  0.89918723889E+03 0.  0.
         23    2    4    4    0    0 -0.10212689383E+03  0.52630775683E+03  0.16148949640E+03  0.56775719950E+03  0.94019268218E+02 0.  0.
         23    2    4    4    0    0  0.36794857143E+03 -0.21036952511E+03 -0.11980087902E+02  0.43292700860E+03  0.87411577927E+02 0.  0.
          4    1    3    3  502    0 -0.18277918168E+03 -0.17382779681E+03  0.64346662165E+03  0.69113936756E+03  0.00000000000E+00 0. -1.
         -3    1    3    3    0  502 -0.83042495922E+02 -0.14211043491E+03  0.31499737405E+03  0.35540790298E+03  0.00000000000E+00 0.  1.
         13    1    5    5    0    0 -0.54219053258E+02  0.18912120961E+03  0.10343013430E+03  0.22227084906E+03  0.00000000000E+00 0.  1.
        -13    1    5    5    0    0 -0.47907840569E+02  0.33718654722E+03  0.58059362098E+02  0.34548635044E+03  0.00000000000E+00 0. -1.
          2    1    6    6  503    0  0.23837778762E+03 -0.13200713786E+03  0.34179703470E+02  0.27462357183E+03  0.00000000000E+00 0. -1.
         -2    1    6    6    0  503  0.12957078381E+03 -0.78362387255E+02 -0.46159791371E+02  0.15830343677E+03  0.00000000000E+00 0.  1.
<mgrwt>
<rscale>  0 0.17214969E+04</rscale>
<asrwt>0</asrwt>
<pdfrwt beam="1">  1        2 0.24270806E+00 0.17214969E+04</pdfrwt>
<pdfrwt beam="2">  1       -1 0.72250622E-01 0.17214969E+04</pdfrwt>
<totfact> 0.24010520E+01</totfact>
</mgrwt>
</event>
<event>
12    7  0.1611233E-007  0.1782004E+04  0.7818608E-02  0.8715929E-01
         -1   -1    0    0    0  501 -0.00000000000E+00  0.00000000000E+00  0.41032823492E+03  0.41032823492E+03  0.00000000000E+00 0.  1.
          2   -1    0    0  501    0  0.00000000000E+00 -0.00000000000E+00 -0.19347545754E+04  0.19347545754E+04  0.00000000000E+00 0. -1.
         24    2    1    2    0    0  0.12813253695E+03  0.57781996952E+03 -0.81327098232E+03  0.10090321159E+04  0.80263665764E+02 0.  0.
        254    2    1    2    0    0 -0.12813253695E+03 -0.57781996952E+03 -0.71115535813E+03  0.13360506944E+04  0.96384420440E+03 0.  0.
         23    2    4    4    0    0  0.30185052150E+03 -0.25740935375E+03 -0.67814448709E+03  0.79132951061E+03  0.94599874561E+02 0.  0.
         23    2    4    4    0    0 -0.42998305845E+03 -0.32041061577E+03 -0.33010871039E+02  0.54472118377E+03  0.89905823995E+02 0.  0.
          2    1    3    3  502    0  0.21684835033E+02  0.11940524254E+03 -0.11654626160E+03  0.16825835822E+03  0.00000000000E+00 0. -1.
         -1    1    3    3    0  502  0.10644770192E+03  0.45841472698E+03 -0.69672472072E+03  0.84077375769E+03  0.00000000000E+00 0.  1.
         13    1    5    5    0    0  0.27480521174E+02 -0.30684013874E+02 -0.14155393339E+03  0.14742524821E+03  0.00000000000E+00 0.  1.
        -13    1    5    5    0    0  0.27437000032E+03 -0.22672533987E+03 -0.53659055371E+03  0.64390426241E+03  0.00000000000E+00 0. -1.
          3    1    6    6  503    0 -0.36000738040E+03 -0.29083135387E+03 -0.53895350482E+02  0.46593229030E+03  0.00000000000E+00 0. -1.
         -3    1    6    6    0  503 -0.69975678045E+02 -0.29579261895E+02  0.20884479443E+02  0.78788893467E+02  0.00000000000E+00 0.  1.
<mgrwt>
<rscale>  0 0.17820038E+04</rscale>
<asrwt>0</asrwt>
<pdfrwt beam="1">  1        2 0.29765456E+00 0.17820038E+04</pdfrwt>
<pdfrwt beam="2">  1       -1 0.63127419E-01 0.17820038E+04</pdfrwt>
<totfact> 0.19904392E+01</totfact>
</mgrwt>
</event>
<event>
12    7  0.1611233E-007  0.2021053E+04  0.7818608E-02  0.8596841E-01
         -1   -1    0    0    0  501 -0.00000000000E+00  0.00000000000E+00  0.52946755560E+03  0.52946755560E+03  0.00000000000E+00 0.  1.
          2   -1    0    0  501    0  0.00000000000E+00 -0.00000000000E+00 -0.19286615112E+04  0.19286615112E+04  0.00000000000E+00 0. -1.
         24    2    1    2    0    0 -0.24502018708E+03 -0.10718060997E+02  0.38912943954E+03  0.46693266052E+03  0.80340648709E+02 0.  0.
        254    2    1    2    0    0  0.24502018708E+03  0.10718060997E+02 -0.17883233951E+04  0.19911964062E+04  0.84060263728E+03 0.  0.
         23    2    4    4    0    0  0.10668221985E+03  0.27907065669E+03 -0.19587613625E+03  0.36786494809E+03  0.87724750344E+02 0.  0.
         23    2    4    4    0    0  0.13833796724E+03 -0.26835259569E+03 -0.15924472589E+04  0.16233314582E+04  0.90367261626E+02 0.  0.
          4    1    3    3  502    0 -0.92503691983E+02 -0.42317103560E+02  0.13837644709E+03  0.17174315531E+03  0.00000000000E+00 0. -1.
         -3    1    3    3    0  502 -0.15251649510E+03  0.31599042562E+02  0.25075299245E+03  0.29518950522E+03  0.00000000000E+00 0.  1.
         13    1    5    5    0    0  0.67602795649E+02  0.67573936690E+02 -0.71970083849E+02  0.11964977170E+03  0.00000000000E+00 0.  1.
        -13    1    5    5    0    0  0.39079424196E+02  0.21149672000E+03 -0.12390605240E+03  0.24821517638E+03  0.00000000000E+00 0. -1.
          3    1    6    6  503    0  0.11871280702E+03 -0.26937599874E+03 -0.14543573587E+04  0.14838502236E+04  0.00000000000E+00 0. -1.
         -3    1    6    6    0  503  0.19625160220E+02  0.10234030514E+01 -0.13808990020E+03  0.13948123460E+03  0.00000000000E+00 0.  1.
<mgrwt>
<rscale>  0 0.20210529E+04</rscale>
<asrwt>0</asrwt>
<pdfrwt beam="1">  1        2 0.29671716E+00 0.20210529E+04</pdfrwt>
<pdfrwt beam="2">  1       -1 0.81456546E-01 0.20210529E+04</pdfrwt>
<totfact> 0.11601365E+01</totfact>
</mgrwt>
</event>
<event>
12    7  0.1611233E-007  0.1611766E+04  0.7818608E-02  0.8813352E-01
         -1   -1    0    0    0  501 -0.00000000000E+00  0.00000000000E+00  0.65706104668E+03  0.65706104668E+03  0.00000000000E+00 0.  1.
          2   -1    0    0  501    0  0.00000000000E+00 -0.00000000000E+00 -0.98841252334E+03  0.98841252334E+03  0.00000000000E+00 0. -1.
         24    2    1    2    0    0  0.25111373333E+03  0.20588988100E+03  0.34033819915E+03  0.47720836696E+03  0.80305575928E+02 0.  0.
        254    2    1    2    0    0 -0.25111373333E+03 -0.20588988100E+03 -0.67168967581E+03  0.11682652031E+04  0.89901491308E+03 0.  0.
         23    2    4    4    0    0 -0.54045251159E+03  0.54880906323E+02 -0.44655320269E+03  0.70903684927E+03  0.90678881847E+02 0.  0.
         23    2    4    4    0    0  0.28933877826E+03 -0.26077078733E+03 -0.22513647312E+03  0.45922835380E+03  0.92119038630E+02 0.  0.
          2    1    3    3  502    0  0.35587130527E+02  0.43361516999E+02  0.23097192387E+02  0.60664201237E+02  0.00000000000E+00 0. -1.
         -1    1    3    3    0  502  0.21552660281E+03  0.16252836401E+03  0.31724100677E+03  0.41654416572E+03  0.00000000000E+00 0.  1.
         13    1    5    5    0    0 -0.29080189939E+03 -0.14552305468E+02 -0.22185406352E+03  0.36605565121E+03  0.00000000000E+00 0. -1.
        -13    1    5    5    0    0 -0.24965061220E+03  0.69433211791E+02 -0.22469913917E+03  0.34298119805E+03  0.00000000000E+00 0.  1.
          3    1    6    6  503    0 -0.39429766776E+01 -0.87870457940E+01 -0.18392625510E+02  0.20761693380E+02  0.00000000000E+00 0. -1.
         -3    1    6    6    0  503  0.29328175494E+03 -0.25198374153E+03 -0.20674384761E+03  0.43846666042E+03  0.00000000000E+00 0.  1.
<mgrwt>
<rscale>  0 0.16117659E+04</rscale>
<asrwt>0</asrwt>
<pdfrwt beam="1">  1        2 0.15206346E+00 0.16117659E+04</pdfrwt>
<pdfrwt beam="2">  1       -1 0.10108632E+00 0.16117659E+04</pdfrwt>
<totfact> 0.26049982E+01</totfact>
</mgrwt>
</event>
<event>
12    7  0.1611233E-007  0.1623601E+04  0.7818608E-02  0.8806179E-01
          2   -1    0    0  501    0  0.00000000000E+00  0.00000000000E+00  0.24961345034E+04  0.24961345034E+04  0.00000000000E+00 0. -1.
         -1   -1    0    0    0  501 -0.00000000000E+00 -0.00000000000E+00 -0.26401618626E+03  0.26401618626E+03  0.00000000000E+00 0.  1.
         24    2    1    2    0    0  0.51851225083E+03 -0.20862123328E+03  0.82637241726E+03  0.10006941532E+04  0.78228146652E+02 0.  0.
        254    2    1    2    0    0 -0.51851225083E+03  0.20862123328E+03  0.14057458999E+04  0.17594565365E+04  0.89843641710E+03 0.  0.
         23    2    4    4    0    0 -0.76699516954E+03  0.16915854060E+03  0.10553791130E+04  0.13187457814E+04  0.91483123454E+02 0.  0.
         23    2    4    4    0    0  0.24848291871E+03  0.39462692679E+02  0.35036678682E+03  0.44071075504E+03  0.90377094999E+02 0.  0.
          4    1    3    3  502    0  0.50403217516E+03 -0.21567423858E+03  0.80166995643E+03  0.97120467967E+03  0.00000000000E+00 0. -1.
         -3    1    3    3    0  502  0.14480075668E+02  0.70530053078E+01  0.24702460829E+02  0.29489473481E+02  0.00000000000E+00 0.  1.
         13    1    5    5    0    0 -0.39528467680E+03  0.49166163200E+02  0.57740592103E+03  0.70147336725E+03  0.00000000000E+00 0. -1.
        -13    1    5    5    0    0 -0.37171049273E+03  0.11999237740E+03  0.47797319201E+03  0.61727241419E+03  0.00000000000E+00 0.  1.
          1    1    6    6  503    0  0.62603538817E+02  0.44460322811E+02  0.67707065770E+02  0.10237270208E+03  0.00000000000E+00 0. -1.
         -1    1    6    6    0  503  0.18587937989E+03 -0.49976301325E+01  0.28265972105E+03  0.33833805296E+03  0.00000000000E+00 0.  1.
<mgrwt>
<rscale>  0 0.16236008E+04</rscale>
<asrwt>0</asrwt>
<pdfrwt beam="1">  1        2 0.38402068E+00 0.16236008E+04</pdfrwt>
<pdfrwt beam="2">  1       -1 0.40617876E-01 0.16236008E+04</pdfrwt>
<totfact> 0.22632573E+01</totfact>
</mgrwt>
</event>
<event>
12    7  0.1611233E-007  0.1124049E+04  0.7818608E-02  0.9182064E-01
          2   -1    0    0  501    0  0.00000000000E+00  0.00000000000E+00  0.14272373828E+04  0.14272373828E+04  0.00000000000E+00 0. -1.
         -1   -1    0    0    0  501 -0.00000000000E+00 -0.00000000000E+00 -0.22131668676E+03  0.22131668676E+03  0.00000000000E+00 0.  1.
         24    2    1    2    0    0 -0.17344446328E+03 -0.70213949517E+02  0.16589405008E+03  0.26292102754E+03  0.81201295064E+02 0.  0.
        254    2    1    2    0    0  0.17344446328E+03  0.70213949517E+02  0.10400266460E+04  0.13856330420E+04  0.89627591863E+03 0.  0.
         23    2    4    4    0    0  0.35723260427E+03  0.29108362037E+03  0.23263460441E+03  0.52409198952E+03  0.90602134096E+02 0.  0.
         23    2    4    4    0    0 -0.18378814099E+03 -0.22086967086E+03  0.80739204157E+03  0.86154105253E+03  0.88371851483E+02 0.  0.
          2    1    3    3  502    0 -0.16505934634E+03 -0.85978002434E+02  0.15055826963E+03  0.23938378657E+03  0.00000000000E+00 0. -1.
         -1    1    3    3    0  502 -0.83851169365E+01  0.15764052917E+02  0.15335780458E+02  0.23537240974E+02  0.00000000000E+00 0.  1.
         13    1    5    5    0    0  0.48739920558E+02  0.87053972441E+02  0.50119734934E+02  0.11165107166E+03  0.00000000000E+00 0.  1.
        -13    1    5    5    0    0  0.30849268371E+03  0.20402964793E+03  0.18251486948E+03  0.41244091785E+03  0.00000000000E+00 0. -1.
          4    1    6    6  503    0 -0.10002310734E+03 -0.56476367972E+02  0.27242702880E+03  0.29565298606E+03  0.00000000000E+00 0. -1.
         -4    1    6    6    0  503 -0.83765033650E+02 -0.16439330288E+03  0.53496501277E+03  0.56588806648E+03  0.00000000000E+00 0.  1.
<mgrwt>
<rscale>  0 0.11240488E+04</rscale>
<asrwt>0</asrwt>
<pdfrwt beam="1">  1        2 0.21957498E+00 0.11240488E+04</pdfrwt>
<pdfrwt beam="2">  1       -1 0.34048722E-01 0.11240488E+04</pdfrwt>
<totfact> 0.12848315E+02</totfact>
</mgrwt>
</event>
<event>
12    7  0.1611233E-007  0.1103118E+04  0.7818608E-02  0.9202158E-01
          2   -1    0    0  501    0  0.00000000000E+00  0.00000000000E+00  0.39290671156E+03  0.39290671156E+03  0.00000000000E+00 0. -1.
         -1   -1    0    0    0  501 -0.00000000000E+00 -0.00000000000E+00 -0.77427433529E+03  0.77427433529E+03  0.00000000000E+00 0.  1.
         24    2    1    2    0    0 -0.12013682669E+03  0.25813795947E+02  0.66778605467E+02  0.16111666075E+03  0.79999918973E+02 0.  0.
        254    2    1    2    0    0  0.12013682669E+03 -0.25813795947E+02 -0.44814622920E+03  0.10060643861E+04  0.89231793495E+03 0.  0.
         23    2    4    4    0    0  0.34969827468E+03 -0.32976150190E+03 -0.14326233008E+03  0.50983981016E+03  0.91547830984E+02 0.  0.
         23    2    4    4    0    0 -0.22956144799E+03  0.30394770595E+03 -0.30488389913E+03  0.49622457594E+03  0.90564736318E+02 0.  0.
          4    1    3    3  502    0 -0.11545779826E+03  0.21195593047E+02  0.82898462546E+02  0.14370772921E+03  0.00000000000E+00 0. -1.
         -1    1    3    3    0  502 -0.46790284307E+01  0.46182029000E+01 -0.16119857079E+02  0.17408931539E+02  0.00000000000E+00 0.  1.
         13    1    5    5    0    0  0.20039106735E+03 -0.23736867872E+03 -0.11868634095E+03  0.33254611265E+03  0.00000000000E+00 0.  1.
        -13    1    5    5    0    0  0.14930720733E+03 -0.92392823175E+02 -0.24575989127E+02  0.17729369751E+03  0.00000000000E+00 0. -1.
          1    1    6    6  503    0 -0.41134585979E+02  0.10462314677E+02 -0.27169324336E+02  0.50395301139E+02  0.00000000000E+00 0. -1.
         -1    1    6    6    0  503 -0.18842686201E+03  0.29348539127E+03 -0.27771457479E+03  0.44582927480E+03  0.00000000000E+00 0.  1.
<mgrwt>
<rscale>  0 0.11031185E+04</rscale>
<asrwt>0</asrwt>
<pdfrwt beam="1">  1        2 0.60447187E-01 0.11031185E+04</pdfrwt>
<pdfrwt beam="2">  1       -1 0.11911913E+00 0.11031185E+04</pdfrwt>
<totfact> 0.58145469E+01</totfact>
</mgrwt>
</event>
<event>
12    7  0.1611233E-007  0.2111242E+04  0.7818608E-02  0.8556307E-01
         -1   -1    0    0    0  501 -0.00000000000E+00  0.00000000000E+00  0.63287201382E+03  0.63287201382E+03  0.00000000000E+00 0.  1.
          2   -1    0    0  501    0  0.00000000000E+00 -0.00000000000E+00 -0.17607593690E+04  0.17607593690E+04  0.00000000000E+00 0. -1.
         24    2    1    2    0    0 -0.53480172712E+03 -0.16471271460E+03  0.30900503279E+03  0.64410139449E+03  0.78989432277E+02 0.  0.
        254    2    1    2    0    0  0.53480172712E+03  0.16471271460E+03 -0.14368923880E+04  0.17495299883E+04  0.82646976942E+03 0.  0.
         23    2    4    4    0    0  0.17579070956E+03 -0.16031396361E+03 -0.28521594782E+02  0.25727563436E+03  0.93671394609E+02 0.  0.
         23    2    4    4    0    0  0.35901101756E+03  0.32502667821E+03 -0.14083707932E+04  0.14922543540E+04  0.93720401002E+02 0.  0.
          2    1    3    3  502    0 -0.13117172504E+03 -0.13881870760E+02  0.48236837909E+02  0.14044757141E+03  0.00000000000E+00 0. -1.
         -3    1    3    3    0  502 -0.40363000208E+03 -0.15083084384E+03  0.26076819488E+03  0.50365382308E+03  0.00000000000E+00 0.  1.
         13    1    5    5    0    0  0.78262643200E+00 -0.47383156697E+02 -0.40806046307E+01  0.47564980572E+02  0.00000000000E+00 0. -1.
        -13    1    5    5    0    0  0.17500808313E+03 -0.11293080691E+03 -0.24440990151E+02  0.20971065378E+03  0.00000000000E+00 0.  1.
          3    1    6    6  503    0  0.29206150111E+03  0.23886225533E+03 -0.97770206472E+03  0.10479773017E+04  0.00000000000E+00 0. -1.
         -3    1    6    6    0  503  0.66949516445E+02  0.86164422881E+02 -0.43066872848E+03  0.44427705232E+03  0.00000000000E+00 0.  1.
<mgrwt>
<rscale>  0 0.21112417E+04</rscale>
<asrwt>0</asrwt>
<pdfrwt beam="1">  1        2 0.27088606E+00 0.21112417E+04</pdfrwt>
<pdfrwt beam="2">  1       -1 0.97364925E-01 0.21112417E+04</pdfrwt>
<totfact> 0.96348151E+00</totfact>
</mgrwt>
</event>
<event>
12    7  0.1611233E-007  0.2319416E+04  0.7818608E-02  0.8470305E-01
          2   -1    0    0  501    0  0.00000000000E+00  0.00000000000E+00  0.10896390164E+04  0.10896390164E+04  0.00000000000E+00 0. -1.
         -1   -1    0    0    0  501 -0.00000000000E+00 -0.00000000000E+00 -0.12342827941E+04  0.12342827941E+04  0.00000000000E+00 0.  1.
         24    2    1    2    0    0 -0.80919491040E+02  0.69848231453E+03 -0.74986924220E+03  0.10319540024E+04  0.90552056693E+02 0.  0.
        254    2    1    2    0    0  0.80919491040E+02 -0.69848231453E+03  0.60522546457E+03  0.12919678081E+04  0.89914261739E+03 0.  0.
         23    2    4    4    0    0  0.28420575507E+03  0.97049973695E+02  0.14120464696E+03  0.34440181898E+03  0.92099142157E+02 0.  0.
         23    2    4    4    0    0 -0.20328626403E+03 -0.79553228823E+03  0.46402081762E+03  0.94756598910E+03  0.91482554478E+02 0.  0.
          2    1    3    3  502    0 -0.66614919088E+02  0.46412639459E+03 -0.43844706443E+03  0.64193978371E+03  0.00000000000E+00 0. -1.
         -3    1    3    3    0  502 -0.14304571952E+02  0.23435591994E+03 -0.31142217777E+03  0.39001421871E+03  0.00000000000E+00 0.  1.
         13    1    5    5    0    0  0.39140332448E+02  0.82795016273E+01  0.58645028299E+02  0.70991232667E+02  0.00000000000E+00 0. -1.
        -13    1    5    5    0    0  0.24506542262E+03  0.88770472068E+02  0.82559618659E+02  0.27341058631E+03  0.00000000000E+00 0.  1.
          3    1    6    6  503    0 -0.11991054834E+02 -0.20428076225E+03  0.10813876163E+03  0.23144849749E+03  0.00000000000E+00 0. -1.
         -3    1    6    6    0  503 -0.19129520919E+03 -0.59125152597E+03  0.35588205598E+03  0.71611749161E+03  0.00000000000E+00 0.  1.
<mgrwt>
<rscale>  0 0.23194160E+04</rscale>
<asrwt>0</asrwt>
<pdfrwt beam="1">  1        2 0.16763677E+00 0.23194160E+04</pdfrwt>
<pdfrwt beam="2">  1       -1 0.18988966E+00 0.23194160E+04</pdfrwt>
<totfact> 0.40391419E+00</totfact>
</mgrwt>
</event>
<event>
12    7  0.1611233E-007  0.1796890E+04  0.7818608E-02  0.8707955E-01
          2   -1    0    0  501    0  0.00000000000E+00  0.00000000000E+00  0.27167196474E+04  0.27167196474E+04  0.00000000000E+00 0. -1.
         -1   -1    0    0    0  501 -0.00000000000E+00 -0.00000000000E+00 -0.29712435079E+03  0.29712435079E+03  0.00000000000E+00 0.  1.
         24    2    1    2    0    0  0.22735661980E+03  0.44093280958E+03  0.17148294583E+04  0.17869162405E+04  0.79478326550E+02 0.  0.
        254    2    1    2    0    0 -0.22735661980E+03 -0.44093280958E+03  0.70476583831E+03  0.12269277577E+04  0.87323768850E+03 0.  0.
         23    2    4    4    0    0 -0.36648611438E+03 -0.60515067203E+03  0.33629676779E+03  0.78868270510E+03  0.91681434399E+02 0.  0.
         23    2    4    4    0    0  0.13912949458E+03  0.16421786245E+03  0.36846907051E+03  0.43824505258E+03  0.99823582281E+02 0.  0.
          2    1    3    3  502    0  0.19826302610E+03  0.41579479489E+03  0.16288081653E+04  0.16926929958E+04  0.00000000000E+00 0. -1.
         -1    1    3    3    0  502  0.29093593701E+02  0.25138014686E+02  0.86021293021E+02  0.94223244636E+02  0.00000000000E+00 0.  1.
         13    1    5    5    0    0 -0.31792414250E+03 -0.49669007830E+03  0.24398289363E+03  0.63820407916E+03  0.00000000000E+00 0. -1.
        -13    1    5    5    0    0 -0.48561971877E+02 -0.10846059373E+03  0.92313874160E+02  0.15047862595E+03  0.00000000000E+00 0.  1.
          3    1    6    6  503    0  0.13705815755E+03  0.92346478780E+02  0.26214750488E+03  0.30989373180E+03  0.00000000000E+00 0. -1.
         -3    1    6    6    0  503  0.20713370253E+01  0.71871383670E+02  0.10632156563E+03  0.12835132078E+03  0.00000000000E+00 0.  1.
<mgrwt>
<rscale>  0 0.17968902E+04</rscale>
<asrwt>0</asrwt>
<pdfrwt beam="1">  1        2 0.41795685E+00 0.17968902E+04</pdfrwt>
<pdfrwt beam="2">  1       -1 0.45711440E-01 0.17968902E+04</pdfrwt>
<totfact> 0.13297798E+01</totfact>
</mgrwt>
</event>
<event>
12    7  0.1611233E-007  0.2938644E+04  0.7818608E-02  0.8261472E-01
          2   -1    0    0  501    0  0.00000000000E+00  0.00000000000E+00  0.44111165104E+04  0.44111165104E+04  0.00000000000E+00 0. -1.
         -1   -1    0    0    0  501 -0.00000000000E+00 -0.00000000000E+00 -0.48942421136E+03  0.48942421136E+03  0.00000000000E+00 0.  1.
         24    2    1    2    0    0 -0.10817519042E+04 -0.74345912459E+03  0.14399711976E+04  0.19500993137E+04  0.80322047768E+02 0.  0.
        254    2    1    2    0    0  0.10817519042E+04  0.74345912459E+03  0.24817211014E+04  0.29504414080E+04  0.90732917093E+03 0.  0.
         23    2    4    4    0    0  0.80208874989E+03  0.91262279140E+03  0.16530767252E+04  0.20541427439E+04  0.10301956586E+03 0.  0.
         23    2    4    4    0    0  0.27966315434E+03 -0.16916366680E+03  0.82864437624E+03  0.89629866407E+03  0.99357772065E+02 0.  0.
          4    1    3    3  502    0 -0.72079242366E+02 -0.66730090448E+02  0.85660684062E+02  0.13033063702E+03  0.00000000000E+00 0. -1.
         -3    1    3    3    0  502 -0.10096726619E+04 -0.67672903415E+03  0.13543105135E+04  0.18197686767E+04  0.00000000000E+00 0.  1.
         13    1    5    5    0    0  0.25380697457E+03  0.24765616033E+03  0.54780049219E+03  0.65256182339E+03  0.00000000000E+00 0. -1.
        -13    1    5    5    0    0  0.54828177531E+03  0.66496663106E+03  0.11052762330E+04  0.14015809205E+04  0.00000000000E+00 0.  1.
          1    1    6    6  503    0  0.51749906123E+02 -0.80386173173E+02  0.19767853036E+03  0.21958322110E+03  0.00000000000E+00 0. -1.
         -1    1    6    6    0  503  0.22791324822E+03 -0.88777493631E+02  0.63096584588E+03  0.67671544297E+03  0.00000000000E+00 0.  1.
<mgrwt>
<rscale>  0 0.29386441E+04</rscale>
<asrwt>0</asrwt>
<pdfrwt beam="1">  1        2 0.67863328E+00 0.29386441E+04</pdfrwt>
<pdfrwt beam="2">  1       -1 0.75296036E-01 0.29386441E+04</pdfrwt>
<totfact> 0.25968418E-01</totfact>
</mgrwt>
</event>
<event>
12    7  0.1611233E-007  0.2115749E+04  0.7818608E-02  0.8554337E-01
          2   -1    0    0  501    0  0.00000000000E+00  0.00000000000E+00  0.30279168322E+04  0.30279168322E+04  0.00000000000E+00 0. -1.
         -1   -1    0    0    0  501 -0.00000000000E+00 -0.00000000000E+00 -0.36959360919E+03  0.36959360919E+03  0.00000000000E+00 0.  1.
         24    2    1    2    0    0  0.54904440188E+03 -0.11734713670E+03  0.21524365318E+04  0.22258694898E+04  0.79321224223E+02 0.  0.
        254    2    1    2    0    0 -0.54904440188E+03  0.11734713670E+03  0.50588669128E+03  0.11716409516E+04  0.89532176864E+03 0.  0.
         23    2    4    4    0    0 -0.44821857680E+03 -0.27421384980E+03  0.53674434794E+03  0.75681714761E+03  0.92652964630E+02 0.  0.
         23    2    4    4    0    0 -0.10082582508E+03  0.39156098650E+03 -0.30857656665E+02  0.41482380402E+03  0.87411327946E+02 0.  0.
          4    1    3    3  502    0  0.26799018337E+03 -0.17173380462E+02  0.99794528884E+03  0.10334449491E+04  0.00000000000E+00 0. -1.
         -3    1    3    3    0  502  0.28105421851E+03 -0.10017375624E+03  0.11544912429E+04  0.11924245407E+04  0.00000000000E+00 0.  1.
         13    1    5    5    0    0 -0.55625980647E+02 -0.67369491035E+02  0.63052620447E+02  0.10774289299E+03  0.00000000000E+00 0. -1.
        -13    1    5    5    0    0 -0.39259259616E+03 -0.20684435877E+03  0.47369172749E+03  0.64907425462E+03  0.00000000000E+00 0.  1.
          2    1    6    6  503    0 -0.30659658399E+02  0.10799516231E+03  0.30498238093E+02  0.11633190561E+03  0.00000000000E+00 0. -1.
         -2    1    6    6    0  503 -0.70166166676E+02  0.28356582419E+03 -0.61355894757E+02  0.29849189841E+03  0.00000000000E+00 0.  1.
<mgrwt>
<rscale>  0 0.21157492E+04</rscale>
<asrwt>0</asrwt>
<pdfrwt beam="1">  1        2 0.46583334E+00 0.21157492E+04</pdfrwt>
<pdfrwt beam="2">  1       -1 0.56860557E-01 0.21157492E+04</pdfrwt>
<totfact> 0.54939049E+00</totfact>
</mgrwt>
</event>
<event>
12    7  0.1611233E-007  0.1748027E+04  0.7818608E-02  0.8734437E-01
         -1   -1    0    0    0  501 -0.00000000000E+00  0.00000000000E+00  0.10885541113E+04  0.10885541113E+04  0.00000000000E+00 0.  1.
          2   -1    0    0  501    0  0.00000000000E+00 -0.00000000000E+00 -0.70175636573E+03  0.70175636573E+03  0.00000000000E+00 0. -1.
         24    2    1    2    0    0  0.49541338166E+03  0.38916228864E+03  0.30074618701E+02  0.63588803802E+03  0.81039549507E+02 0.  0.
        254    2    1    2    0    0 -0.49541338166E+03 -0.38916228864E+03  0.35672312691E+03  0.11544224391E+04  0.89919857256E+03 0.  0.
         23    2    4    4    0    0  0.16350532472E+03  0.38128756948E+02 -0.12708760338E+03  0.22831780862E+03  0.88260803770E+02 0.  0.
         23    2    4    4    0    0 -0.65891870638E+03 -0.42729104559E+03  0.48381073029E+03  0.92610463044E+03  0.82737322369E+02 0.  0.
          4    1    3    3  502    0  0.40464183763E+03  0.30964602118E+03 -0.72392682571E+01  0.50957637524E+03  0.00000000000E+00 0. -1.
         -3    1    3    3    0  502  0.90771544027E+02  0.79516267456E+02  0.37313886958E+02  0.12631166278E+03  0.00000000000E+00 0.  1.
         13    1    5    5    0    0  0.10177635440E+03  0.70957294887E+00 -0.27697394420E+02  0.10548021362E+03  0.00000000000E+00 0. -1.
        -13    1    5    5    0    0  0.61728970327E+02  0.37419183999E+02 -0.99390208957E+02  0.12283759500E+03  0.00000000000E+00 0.  1.
          2    1    6    6  503    0 -0.48421106009E+02 -0.28758179023E+02  0.11674096828E+02  0.57514527770E+02  0.00000000000E+00 0. -1.
         -2    1    6    6    0  503 -0.61049760037E+03 -0.39853286656E+03  0.47213663346E+03  0.86859010267E+03  0.00000000000E+00 0.  1.
<mgrwt>
<rscale>  0 0.17480272E+04</rscale>
<asrwt>0</asrwt>
<pdfrwt beam="1">  1        2 0.10796252E+00 0.17480272E+04</pdfrwt>
<pdfrwt beam="2">  1       -1 0.16746986E+00 0.17480272E+04</pdfrwt>
<totfact> 0.11356940E+01</totfact>
</mgrwt>
</event>
<event>
12    7  0.1611233E-007  0.1640637E+04  0.7818608E-02  0.8795965E-01
         -1   -1    0    0    0  501 -0.00000000000E+00  0.00000000000E+00  0.56592133938E+03  0.56592133938E+03  0.00000000000E+00 0.  1.
          2   -1    0    0  501    0  0.00000000000E+00 -0.00000000000E+00 -0.11890734389E+04  0.11890734389E+04  0.00000000000E+00 0. -1.
         24    2    1    2    0    0  0.22872880485E+03  0.78662023572E+02  0.33498835504E+03  0.42084157979E+03  0.79911558262E+02 0.  0.
        254    2    1    2    0    0 -0.22872880485E+03 -0.78662023572E+02 -0.95814045459E+03  0.13341531985E+04  0.89634092077E+03 0.  0.
         23    2    4    4    0    0  0.16532263690E+03 -0.37814850264E+03 -0.38200777965E+03  0.56967148434E+03  0.90927399818E+02 0.  0.
         23    2    4    4    0    0 -0.39405144175E+03  0.29948647907E+03 -0.57613267494E+03  0.76448171417E+03  0.86802893219E+02 0.  0.
          2    1    3    3  502    0  0.68476076026E+02  0.62107575296E+02  0.14207485221E+03  0.16950394546E+03  0.00000000000E+00 0. -1.
         -1    1    3    3    0  502  0.16025272882E+03  0.16554448276E+02  0.19291350284E+03  0.25133763433E+03  0.00000000000E+00 0.  1.
         13    1    5    5    0    0 -0.43987670383E+01 -0.26847895655E+02 -0.60758559626E+01  0.27876059231E+02  0.00000000000E+00 0. -1.
        -13    1    5    5    0    0  0.16972140394E+03 -0.35130060699E+03 -0.37593192369E+03  0.54179542511E+03  0.00000000000E+00 0.  1.
          4    1    6    6  503    0 -0.11875471765E+03  0.11967251124E+03 -0.24855115792E+03  0.30033626324E+03  0.00000000000E+00 0. -1.
         -4    1    6    6    0  503 -0.27529672410E+03  0.17981396783E+03 -0.32758151702E+03  0.46414545093E+03  0.00000000000E+00 0.  1.
<mgrwt>
<rscale>  0 0.16406365E+04</rscale>
<asrwt>0</asrwt>
<pdfrwt beam="1">  1        2 0.18293437E+00 0.16406365E+04</pdfrwt>
<pdfrwt beam="2">  1       -1 0.87064823E-01 0.16406365E+04</pdfrwt>
<totfact> 0.27237821E+01</totfact>
</mgrwt>
</event>
<event>
12    7  0.1611233E-007  0.2050311E+04  0.7818608E-02  0.8583453E-01
          2   -1    0    0  501    0  0.00000000000E+00  0.00000000000E+00  0.17957532347E+04  0.17957532347E+04  0.00000000000E+00 0. -1.
         -1   -1    0    0    0  501 -0.00000000000E+00 -0.00000000000E+00 -0.58523870770E+03  0.58523870770E+03  0.00000000000E+00 0.  1.
         24    2    1    2    0    0 -0.77010134665E+03 -0.67651096169E+02  0.16842906433E+03  0.79507206248E+03  0.78348451828E+02 0.  0.
        254    2    1    2    0    0  0.77010134665E+03  0.67651096169E+02  0.10420854627E+04  0.15859198799E+04  0.91190295486E+03 0.  0.
         23    2    4    4    0    0  0.11843451608E+03 -0.96455992586E+02 -0.13796394651E+03  0.22490794058E+03  0.90658910736E+02 0.  0.
         23    2    4    4    0    0  0.65166683057E+03  0.16410708876E+03  0.11800494092E+04  0.13610119393E+04  0.90752940685E+02 0.  0.
          2    1    3    3  502    0 -0.53136178953E+03 -0.31972699022E+02  0.81605300813E+02  0.53854157684E+03  0.00000000000E+00 0. -1.
         -1    1    3    3    0  502 -0.23873955712E+03 -0.35678397147E+02  0.86823763519E+02  0.25653048565E+03  0.00000000000E+00 0.  1.
         13    1    5    5    0    0  0.50571303256E+02 -0.97314741608E+02 -0.88544452018E+02  0.14095295538E+03  0.00000000000E+00 0. -1.
        -13    1    5    5    0    0  0.67863212822E+02  0.85874902164E+00 -0.49419494495E+02  0.83954985203E+02  0.00000000000E+00 0.  1.
          3    1    6    6  503    0  0.16478962309E+03  0.45854839957E+02  0.38456900145E+03  0.42089381452E+03  0.00000000000E+00 0.  1.
         -3    1    6    6    0  503  0.48687720748E+03  0.11825224880E+03  0.79548040775E+03  0.94011812482E+03  0.00000000000E+00 0. -1.
<mgrwt>
<rscale>  0 0.20503115E+04</rscale>
<asrwt>0</asrwt>
<pdfrwt beam="1">  1        2 0.27626973E+00 0.20503115E+04</pdfrwt>
<pdfrwt beam="2">  1       -1 0.90036725E-01 0.20503115E+04</pdfrwt>
<totfact> 0.11031657E+01</totfact>
</mgrwt>
</event>
<event>
12    7  0.1611233E-007  0.1222897E+04  0.7818608E-02  0.9093047E-01
          2   -1    0    0  501    0  0.00000000000E+00  0.00000000000E+00  0.17368924660E+04  0.17368924660E+04  0.00000000000E+00 0. -1.
         -1   -1    0    0    0  501 -0.00000000000E+00 -0.00000000000E+00 -0.21525190540E+03  0.21525190540E+03  0.00000000000E+00 0.  1.
         24    2    1    2    0    0 -0.12262310061E+03 -0.20417173956E+03  0.54029951921E+03  0.59570175527E+03  0.78832015930E+02 0.  0.
        254    2    1    2    0    0  0.12262310061E+03  0.20417173956E+03  0.98134104134E+03  0.13564426161E+04  0.90563999871E+03 0.  0.
         23    2    4    4    0    0 -0.94041728475E+02  0.22099793261E+03  0.10733276169E+04  0.11040053185E+04  0.95454895758E+02 0.  0.
         23    2    4    4    0    0  0.21666482908E+03 -0.16826193048E+02 -0.91986575557E+02  0.25243729760E+03  0.89645357970E+02 0.  0.
          4    1    3    3  502    0 -0.62518495394E+02 -0.13177921270E+03  0.40852925481E+03  0.43378620909E+03  0.00000000000E+00 0. -1.
         -3    1    3    3    0  502 -0.60104605212E+02 -0.72392526864E+02  0.13177026441E+03  0.16191554618E+03  0.00000000000E+00 0.  1.
         13    1    5    5    0    0 -0.14772869040E+02  0.43609936750E+01  0.17688829781E+02  0.23455289905E+02  0.00000000000E+00 0. -1.
        -13    1    5    5    0    0 -0.79268859435E+02  0.21663693894E+03  0.10556387871E+04  0.10805500286E+04  0.00000000000E+00 0.  1.
          3    1    6    6  503    0  0.72070893132E+01 -0.22039117480E+02 -0.20806173732E+02  0.31153839266E+02  0.00000000000E+00 0. -1.
         -3    1    6    6    0  503  0.20945773977E+03  0.52129244321E+01 -0.71180401825E+02  0.22128345834E+03  0.00000000000E+00 0.  1.
<mgrwt>
<rscale>  0 0.12228972E+04</rscale>
<asrwt>0</asrwt>
<pdfrwt beam="1">  1        2 0.26721422E+00 0.12228972E+04</pdfrwt>
<pdfrwt beam="2">  1       -1 0.33115679E-01 0.12228972E+04</pdfrwt>
<totfact> 0.89952073E+01</totfact>
</mgrwt>
</event>
<event>
12    7  0.1611233E-007  0.2676651E+04  0.7818608E-02  0.8342621E-01
         -1   -1    0    0    0  501 -0.00000000000E+00  0.00000000000E+00  0.11374634478E+04  0.11374634478E+04  0.00000000000E+00 0.  1.
          2   -1    0    0  501    0  0.00000000000E+00 -0.00000000000E+00 -0.15746567870E+04  0.15746567870E+04  0.00000000000E+00 0. -1.
         24    2    1    2    0    0 -0.47855748814E+03  0.40380685169E+03 -0.12152083377E+04  0.13693540375E+04  0.79510584765E+02 0.  0.
        254    2    1    2    0    0  0.47855748814E+03 -0.40380685169E+03  0.77801499853E+03  0.13427661973E+04  0.89757254850E+03 0.  0.
         23    2    4    4    0    0  0.27252698715E+03  0.75729600310E+02  0.75660488746E+03  0.81283553633E+03  0.90800453169E+02 0.  0.
         23    2    4    4    0    0  0.20603050099E+03 -0.47953645200E+03  0.21410111066E+02  0.52993066100E+03  0.89243131280E+02 0.  0.
          4    1    3    3  502    0 -0.40334342270E+03  0.34396497032E+03 -0.10844032704E+04  0.12070328373E+04  0.00000000000E+00 0. -1.
         -3    1    3    3    0  502 -0.75214065445E+02  0.59841881370E+02 -0.13080506724E+03  0.16232120016E+03  0.00000000000E+00 0.  1.
         13    1    5    5    0    0  0.23723331458E+03  0.89025710801E+02  0.59169324876E+03  0.64366615831E+03  0.00000000000E+00 0. -1.
        -13    1    5    5    0    0  0.35293672570E+02 -0.13296110492E+02  0.16491163871E+03  0.16916937802E+03  0.00000000000E+00 0.  1.
          3    1    6    6  503    0  0.17429396339E+03 -0.41080074189E+03  0.49924685075E+02  0.44903018761E+03  0.00000000000E+00 0. -1.
         -3    1    6    6    0  503  0.31736537600E+02 -0.68735710108E+02 -0.28514574009E+02  0.80900473384E+02  0.00000000000E+00 0.  1.
<mgrwt>
<rscale>  0 0.26766505E+04</rscale>
<asrwt>0</asrwt>
<pdfrwt beam="1">  1        2 0.24225489E+00 0.26766505E+04</pdfrwt>
<pdfrwt beam="2">  1       -1 0.17499438E+00 0.26766505E+04</pdfrwt>
<totfact> 0.26089442E+00</totfact>
</mgrwt>
</event>
<event>
12    7  0.1611233E-007  0.1049159E+04  0.7818608E-02  0.9256213E-01
          2   -1    0    0  501    0  0.00000000000E+00  0.00000000000E+00  0.37032268624E+03  0.37032268624E+03  0.00000000000E+00 0. -1.
         -1   -1    0    0    0  501 -0.00000000000E+00 -0.00000000000E+00 -0.74309174129E+03  0.74309174129E+03  0.00000000000E+00 0.  1.
         24    2    1    2    0    0 -0.53929183581E+02  0.85433091605E+02 -0.15186028861E+03  0.19728458555E+03  0.75183046318E+02 0.  0.
        254    2    1    2    0    0  0.53929183581E+02 -0.85433091605E+02 -0.22090876644E+03  0.91612984198E+03  0.88333800683E+03 0.  0.
         23    2    4    4    0    0  0.27030068758E+03 -0.16271343133E+03 -0.46425462374E+03  0.56944084708E+03  0.95877005671E+02 0.  0.
         23    2    4    4    0    0 -0.21637150400E+03  0.77280339720E+02  0.24334585730E+03  0.34668899491E+03  0.90483005449E+02 0.  0.
          4    1    3    3  502    0 -0.14153530498E+02 -0.13209352486E+02 -0.27732686745E+02  0.33821758274E+02  0.00000000000E+00 0. -1.
         -1    1    3    3    0  502 -0.39775653083E+02  0.98642444091E+02 -0.12412760187E+03  0.16346282727E+03  0.00000000000E+00 0.  1.
         13    1    5    5    0    0  0.23825717105E+03 -0.15956800611E+03 -0.35954309619E+03  0.45989092854E+03  0.00000000000E+00 0. -1.
        -13    1    5    5    0    0  0.32043516530E+02 -0.31454252200E+01 -0.10471152754E+03  0.10954991854E+03  0.00000000000E+00 0.  1.
          3    1    6    6  503    0 -0.16916044665E+03  0.34364370540E+02  0.21793266691E+03  0.27801225509E+03  0.00000000000E+00 0. -1.
         -3    1    6    6    0  503 -0.47211057347E+02  0.42915969180E+02  0.25413190398E+02  0.68676739823E+02  0.00000000000E+00 0.  1.
<mgrwt>
<rscale>  0 0.10491591E+04</rscale>
<asrwt>0</asrwt>
<pdfrwt beam="1">  1        2 0.56972721E-01 0.10491591E+04</pdfrwt>
<pdfrwt beam="2">  1       -1 0.11432181E+00 0.10491591E+04</pdfrwt>
<totfact> 0.68881189E+01</totfact>
</mgrwt>
</event>
<event>
12    7  0.1611233E-007  0.2143386E+04  0.7818608E-02  0.8542369E-01
         -1   -1    0    0    0  501 -0.00000000000E+00  0.00000000000E+00  0.48996797043E+03  0.48996797043E+03  0.00000000000E+00 0.  1.
          2   -1    0    0  501    0  0.00000000000E+00 -0.00000000000E+00 -0.23440835093E+04  0.23440835093E+04  0.00000000000E+00 0. -1.
         24    2    1    2    0    0  0.18866583774E+02  0.68720991115E+03 -0.37672721922E+02  0.69306856019E+03  0.79444226870E+02 0.  0.
        254    2    1    2    0    0 -0.18866583774E+02 -0.68720991115E+03 -0.18164428170E+04  0.21409829196E+04  0.90096056774E+03 0.  0.
         23    2    4    4    0    0 -0.21747828320E+03 -0.59755593158E+03 -0.53152177408E+03  0.83463848245E+03  0.98671703284E+02 0.  0.
         23    2    4    4    0    0  0.19861169942E+03 -0.89653979562E+02 -0.12849210429E+04  0.13063444371E+04  0.89606131181E+02 0.  0.
          4    1    3    3  502    0  0.19818626076E+02  0.41041602487E+03 -0.60539345817E+02  0.41533011424E+03  0.00000000000E+00 0. -1.
         -3    1    3    3    0  502 -0.95204230157E+00  0.27679388628E+03  0.22866623895E+02  0.27773844594E+03  0.00000000000E+00 0.  1.
         13    1    5    5    0    0 -0.11295328586E+03 -0.34262256971E+03 -0.36235409327E+03  0.51132099407E+03  0.00000000000E+00 0.  1.
        -13    1    5    5    0    0 -0.10452499734E+03 -0.25493336187E+03 -0.16916768081E+03  0.32331748838E+03  0.00000000000E+00 0. -1.
          1    1    6    6  503    0  0.11513759313E+02 -0.18057447023E+02 -0.39661929734E+02  0.45074457476E+02  0.00000000000E+00 0. -1.
         -1    1    6    6    0  503  0.18709794011E+03 -0.71596532540E+02 -0.12452591132E+04  0.12612699797E+04  0.00000000000E+00 0.  1.
<mgrwt>
<rscale>  0 0.21433860E+04</rscale>
<asrwt>0</asrwt>
<pdfrwt beam="1">  1        2 0.36062824E+00 0.21433860E+04</pdfrwt>
<pdfrwt beam="2">  1       -1 0.75379686E-01 0.21433860E+04</pdfrwt>
<totfact> 0.79120857E+00</totfact>
</mgrwt>
</event>
<event>
12    7  0.1611233E-007  0.2182556E+04  0.7818608E-02  0.8525724E-01
         -1   -1    0    0    0  501 -0.00000000000E+00  0.00000000000E+00  0.42460965509E+03  0.42460965509E+03  0.00000000000E+00 0.  1.
          2   -1    0    0  501    0  0.00000000000E+00 -0.00000000000E+00 -0.28046645597E+04  0.28046645597E+04  0.00000000000E+00 0. -1.
         24    2    1    2    0    0 -0.64357604646E+03  0.46729480292E+03 -0.16183715419E+04  0.18049980933E+04  0.79605959355E+02 0.  0.
        254    2    1    2    0    0  0.64357604646E+03 -0.46729480292E+03 -0.76168336269E+03  0.14242761215E+04  0.90324214072E+03 0.  0.
         23    2    4    4    0    0  0.30593943991E+03 -0.54631396654E+03 -0.59831474830E+02  0.63564661017E+03  0.91700145652E+02 0.  0.
         23    2    4    4    0    0  0.33763660654E+03  0.79019163613E+02 -0.70185188786E+03  0.78862951130E+03  0.95383055657E+02 0.  0.
          2    1    3    3  502    0 -0.49296403293E+03  0.33605531757E+03 -0.12764229392E+04  0.14089720486E+04  0.00000000000E+00 0. -1.
         -1    1    3    3    0  502 -0.15061201353E+03  0.13123948535E+03 -0.34194860279E+03  0.39602604470E+03  0.00000000000E+00 0.  1.
         13    1    5    5    0    0  0.28663188655E+03 -0.45664917963E+03 -0.68637986202E+02  0.54350481580E+03  0.00000000000E+00 0. -1.
        -13    1    5    5    0    0  0.19307553364E+02 -0.89664786904E+02  0.88065113718E+01  0.92141794372E+02  0.00000000000E+00 0.  1.
          4    1    6    6  503    0  0.12730134548E+03  0.77400769023E+02 -0.27490453867E+03  0.31268037512E+03  0.00000000000E+00 0. -1.
         -4    1    6    6    0  503  0.21033526106E+03  0.16183945900E+01 -0.42694734919E+03  0.47594913618E+03  0.00000000000E+00 0.  1.
<mgrwt>
<rscale>  0 0.21825560E+04</rscale>
<asrwt>0</asrwt>
<pdfrwt beam="1">  1        2 0.43148684E+00 0.21825560E+04</pdfrwt>
<pdfrwt beam="2">  1       -1 0.65324565E-01 0.21825560E+04</pdfrwt>
<totfact> 0.56890770E+00</totfact>
</mgrwt>
</event>
<event>
12    7  0.1611233E-007  0.1307709E+04  0.7818608E-02  0.9023474E-01
          2   -1    0    0  501    0  0.00000000000E+00  0.00000000000E+00  0.15834228908E+04  0.15834228908E+04  0.00000000000E+00 0. -1.
         -1   -1    0    0    0  501 -0.00000000000E+00 -0.00000000000E+00 -0.27000115526E+03  0.27000115526E+03  0.00000000000E+00 0.  1.
         24    2    1    2    0    0  0.51587045329E+01 -0.55746702891E+02  0.85405439772E+03  0.85974143398E+03  0.81314893606E+02 0.  0.
        254    2    1    2    0    0 -0.51587045329E+01  0.55746702891E+02  0.45936733779E+03  0.99368261205E+03  0.87934775564E+03 0.  0.
         23    2    4    4    0    0  0.23764003030E+03  0.37655365010E+03  0.15450045273E+03  0.48073823961E+03  0.94728188619E+02 0.  0.
         23    2    4    4    0    0 -0.24279873483E+03 -0.32080694721E+03  0.30486688507E+03  0.51294437245E+03  0.91103175590E+02 0.  0.
          4    1    3    3  502    0 -0.33125171268E+02 -0.26141149101E+01  0.29247852544E+03  0.29435998100E+03  0.00000000000E+00 0. -1.
         -3    1    3    3    0  502  0.38283875801E+02 -0.53132587981E+02  0.56157587227E+03  0.56538145298E+03  0.00000000000E+00 0.  1.
         13    1    5    5    0    0  0.13047087803E+03  0.14956699246E+03  0.30637802445E+02  0.20082731434E+03  0.00000000000E+00 0.  1.
        -13    1    5    5    0    0  0.10716915227E+03  0.22698665764E+03  0.12386265028E+03  0.27991092526E+03  0.00000000000E+00 0. -1.
          3    1    6    6  503    0 -0.22615393463E+03 -0.25011109733E+03  0.22712621319E+03  0.40655562950E+03  0.00000000000E+00 0. -1.
         -3    1    6    6    0  503 -0.16644800209E+02 -0.70695849876E+02  0.77740671876E+02  0.10638874295E+03  0.00000000000E+00 0.  1.
<mgrwt>
<rscale>  0 0.13077095E+04</rscale>
<asrwt>0</asrwt>
<pdfrwt beam="1">  1        2 0.24360352E+00 0.13077095E+04</pdfrwt>
<pdfrwt beam="2">  1       -1 0.41538640E-01 0.13077095E+04</pdfrwt>
<totfact> 0.72245236E+01</totfact>
</mgrwt>
</event>
<event>
12    7  0.1611233E-007  0.2804164E+04  0.7818608E-02  0.8301977E-01
         -1   -1    0    0    0  501 -0.00000000000E+00  0.00000000000E+00  0.69589855833E+03  0.69589855833E+03  0.00000000000E+00 0.  1.
          2   -1    0    0  501    0  0.00000000000E+00 -0.00000000000E+00 -0.28248861445E+04  0.28248861445E+04  0.00000000000E+00 0. -1.
         24    2    1    2    0    0  0.75317386288E+03  0.31653590014E+03 -0.21589018524E+04  0.23096513711E+04  0.78526451686E+02 0.  0.
        254    2    1    2    0    0 -0.75317386288E+03 -0.31653590014E+03  0.29914266224E+02  0.12111333318E+04  0.89357889426E+03 0.  0.
         23    2    4    4    0    0  0.18616335134E+03  0.13024741503E+02  0.44071956561E+02  0.21136312226E+03  0.88913411938E+02 0.  0.
         23    2    4    4    0    0 -0.93933721423E+03 -0.32956064165E+03 -0.14157690338E+02  0.99977020954E+03  0.91517283272E+02 0.  0.
          2    1    3    3  502    0  0.73342419854E+03  0.29344673417E+03 -0.20639831772E+04  0.22099883702E+04  0.00000000000E+00 0. -1.
         -1    1    3    3    0  502  0.19749664345E+02  0.23089165972E+02 -0.94918675233E+02  0.99663000833E+02  0.00000000000E+00 0.  1.
         13    1    5    5    0    0  0.27083467332E+02 -0.25004826212E+02  0.29388883117E+02  0.47142995105E+02  0.00000000000E+00 0.  1.
        -13    1    5    5    0    0  0.15907988401E+03  0.38029567715E+02  0.14683073444E+02  0.16422012716E+03  0.00000000000E+00 0. -1.
          1    1    6    6  503    0 -0.72051496033E+03 -0.22932870966E+03 -0.43058134800E+02  0.75735557574E+03  0.00000000000E+00 0. -1.
         -1    1    6    6    0  503 -0.21882225390E+03 -0.10023193199E+03  0.28900444462E+02  0.24241463380E+03  0.00000000000E+00 0.  1.
<mgrwt>
<rscale>  0 0.28041642E+04</rscale>
<asrwt>0</asrwt>
<pdfrwt beam="1">  1        2 0.43459786E+00 0.28041642E+04</pdfrwt>
<pdfrwt beam="2">  1       -1 0.10706132E+00 0.28041642E+04</pdfrwt>
<totfact> 0.17956050E+00</totfact>
</mgrwt>
</event>
<event>
12    7  0.1611233E-007  0.1756404E+04  0.7818608E-02  0.8729833E-01
         -1   -1    0    0    0  501 -0.00000000000E+00  0.00000000000E+00  0.18264426995E+04  0.18264426995E+04  0.00000000000E+00 0.  1.
          2   -1    0    0  501    0  0.00000000000E+00 -0.00000000000E+00 -0.42226264510E+03  0.42226264510E+03  0.00000000000E+00 0. -1.
         24    2    1    2    0    0  0.25260254019E+02  0.62921448491E+02 -0.30327638924E+03  0.32075915303E+03  0.79452355968E+02 0.  0.
        254    2    1    2    0    0 -0.25260254019E+02 -0.62921448491E+02  0.17074564436E+04  0.19279461916E+04  0.89273278282E+03 0.  0.
         23    2    4    4    0    0 -0.11456255599E+03  0.25189067519E+03  0.15045189006E+04  0.15325864939E+04  0.93116849604E+02 0.  0.
         23    2    4    4    0    0  0.89302301968E+02 -0.31481212369E+03  0.20293754306E+03  0.39535969763E+03  0.89688738275E+02 0.  0.
          4    1    3    3  502    0 -0.13872256024E+00  0.69626170382E+02 -0.26726033131E+03  0.27618093261E+03  0.00000000000E+00 0. -1.
         -3    1    3    3    0  502  0.25398976580E+02 -0.67047218910E+01 -0.36016057931E+02  0.44578220420E+02  0.00000000000E+00 0.  1.
         13    1    5    5    0    0  0.32270214058E+01  0.16566715774E+02  0.27190942596E+02  0.32003391976E+02  0.00000000000E+00 0. -1.
        -13    1    5    5    0    0 -0.11778957739E+03  0.23532395942E+03  0.14773279580E+04  0.15005831019E+04  0.00000000000E+00 0.  1.
          3    1    6    6  503    0  0.32642356513E+02 -0.22523420070E+02  0.11118337967E+02  0.41187926988E+02  0.00000000000E+00 0. -1.
         -3    1    6    6    0  503  0.56659945455E+02 -0.29228870362E+03  0.19181920509E+03  0.35417177064E+03  0.00000000000E+00 0.  1.
<mgrwt>
<rscale>  0 0.17564037E+04</rscale>
<asrwt>0</asrwt>
<pdfrwt beam="1">  1        2 0.64963485E-01 0.17564037E+04</pdfrwt>
<pdfrwt beam="2">  1       -1 0.28099118E+00 0.17564037E+04</pdfrwt>
<totfact> 0.35550546E+00</totfact>
</mgrwt>
</event>
<event>
12    7  0.1611233E-007  0.1982332E+04  0.7818608E-02  0.8614926E-01
         -1   -1    0    0    0  501 -0.00000000000E+00  0.00000000000E+00  0.41741495399E+03  0.41741495399E+03  0.00000000000E+00 0.  1.
          2   -1    0    0  501    0  0.00000000000E+00 -0.00000000000E+00 -0.23535575614E+04  0.23535575614E+04  0.00000000000E+00 0. -1.
         24    2    1    2    0    0  0.23024766268E+03 -0.98186199232E+02  0.26738065431E+03  0.37484881790E+03  0.79779108146E+02 0.  0.
        254    2    1    2    0    0 -0.23024766268E+03  0.98186199232E+02 -0.22035232617E+04  0.23961236975E+04  0.90732546138E+03 0.  0.
         23    2    4    4    0    0 -0.91579106640E+01 -0.23591656181E+02 -0.21095395317E+04  0.21116528171E+04  0.90995332602E+02 0.  0.
         23    2    4    4    0    0 -0.22108975201E+03  0.12177785541E+03 -0.93983729999E+02  0.28447088038E+03  0.91543518429E+02 0.  0.
          4    1    3    3  502    0  0.31816157717E+02 -0.20971198326E+02  0.74262822932E+01  0.38822786090E+02  0.00000000000E+00 0. -1.
         -3    1    3    3    0  502  0.19843150496E+03 -0.77215000906E+02  0.25995437202E+03  0.33602603181E+03  0.00000000000E+00 0.  1.
         13    1    5    5    0    0  0.39206319335E+02 -0.10280771609E+02 -0.65829888734E+03  0.65954549108E+03  0.00000000000E+00 0. -1.
        -13    1    5    5    0    0 -0.48364229999E+02 -0.13310884573E+02 -0.14512406444E+04  0.14521073261E+04  0.00000000000E+00 0.  1.
          3    1    6    6  503    0 -0.12830232806E+03  0.90664462250E+02 -0.10031868996E+03  0.18640110423E+03  0.00000000000E+00 0. -1.
         -3    1    6    6    0  503 -0.92787423950E+02  0.31113393163E+02  0.63349599615E+01  0.98069776155E+02  0.00000000000E+00 0.  1.
<mgrwt>
<rscale>  0 0.19823321E+04</rscale>
<asrwt>0</asrwt>
<pdfrwt beam="1">  1        2 0.36208578E+00 0.19823321E+04</pdfrwt>
<pdfrwt beam="2">  1       -1 0.64217686E-01 0.19823321E+04</pdfrwt>
<totfact> 0.11010365E+01</totfact>
</mgrwt>
</event>
<event>
12    7  0.1611233E-007  0.1873711E+04  0.7818608E-02  0.8668054E-01
          2   -1    0    0  501    0  0.00000000000E+00  0.00000000000E+00  0.92113061797E+03  0.92113061797E+03  0.00000000000E+00 0. -1.
         -1   -1    0    0    0  501 -0.00000000000E+00 -0.00000000000E+00 -0.95284846241E+03  0.95284846241E+03  0.00000000000E+00 0.  1.
         24    2    1    2    0    0 -0.86686157178E+02  0.66507075850E+03 -0.23370022642E+03  0.71469580111E+03  0.79628441167E+02 0.  0.
        254    2    1    2    0    0  0.86686157178E+02 -0.66507075850E+03  0.20198238197E+03  0.11592832793E+04  0.92374630462E+03 0.  0.
         23    2    4    4    0    0 -0.74303387109E+02 -0.12049589994E+03  0.48780167067E+03  0.51589813766E+03  0.90333622204E+02 0.  0.
         23    2    4    4    0    0  0.16098954429E+03 -0.54457485856E+03 -0.28581928869E+03  0.64338514160E+03  0.98855271482E+02 0.  0.
          2    1    3    3  502    0  0.20561456272E+01  0.27263640425E+03 -0.10678464870E+03  0.29281017376E+03  0.00000000000E+00 0. -1.
         -1    1    3    3    0  502 -0.88742302806E+02  0.39243435425E+03 -0.12691557772E+03  0.42188562736E+03  0.00000000000E+00 0.  1.
         13    1    5    5    0    0 -0.13329507414E+02  0.40635373805E+01  0.71958838616E+01  0.15683394036E+02  0.00000000000E+00 0. -1.
        -13    1    5    5    0    0 -0.60973879695E+02 -0.12455943732E+03  0.48060578681E+03  0.50021474363E+03  0.00000000000E+00 0.  1.
          3    1    6    6  503    0  0.50502068507E+02 -0.71107962818E+02 -0.68199250443E+02  0.11071557732E+03  0.00000000000E+00 0. -1.
         -3    1    6    6    0  503  0.11048747578E+03 -0.47346689574E+03 -0.21762003825E+03  0.53266956429E+03  0.00000000000E+00 0.  1.
<mgrwt>
<rscale>  0 0.18737106E+04</rscale>
<asrwt>0</asrwt>
<pdfrwt beam="1">  1        2 0.14171240E+00 0.18737106E+04</pdfrwt>
<pdfrwt beam="2">  1       -1 0.14659207E+00 0.18737106E+04</pdfrwt>
<totfact> 0.11278336E+01</totfact>
</mgrwt>
</event>
<event>
12    7  0.1611233E-007  0.1363789E+04  0.7818608E-02  0.8980455E-01
         -1   -1    0    0    0  501 -0.00000000000E+00  0.00000000000E+00  0.46026357715E+03  0.46026357715E+03  0.00000000000E+00 0.  1.
          2   -1    0    0  501    0  0.00000000000E+00 -0.00000000000E+00 -0.10102477721E+04  0.10102477721E+04  0.00000000000E+00 0. -1.
         24    2    1    2    0    0 -0.21366873993E+03  0.31348592551E+03 -0.15841986713E+03  0.41869817240E+03  0.79268842276E+02 0.  0.
        254    2    1    2    0    0  0.21366873993E+03 -0.31348592551E+03 -0.39156432781E+03  0.10518131768E+04  0.89947794871E+03 0.  0.
         23    2    4    4    0    0 -0.29544821455E+03 -0.92442820484E+01  0.40898456996E+02  0.31158084670E+03  0.89637246804E+02 0.  0.
         23    2    4    4    0    0  0.50911695448E+03 -0.30424164346E+03 -0.43246278480E+03  0.74023233013E+03  0.95691124825E+02 0.  0.
          2    1    3    3  502    0 -0.12516262446E+03  0.13542531482E+03 -0.45140952196E+02  0.18985100479E+03  0.00000000000E+00 0. -1.
         -1    1    3    3    0  502 -0.88506115475E+02  0.17806061069E+03 -0.11327891493E+03  0.22884716761E+03  0.00000000000E+00 0.  1.
         13    1    5    5    0    0 -0.23783521260E+03 -0.43522756010E+02  0.34568850851E+02  0.24424337062E+03  0.00000000000E+00 0.  1.
        -13    1    5    5    0    0 -0.57613001953E+02  0.34278473962E+02  0.63296061452E+01  0.67337476082E+02  0.00000000000E+00 0. -1.
          3    1    6    6  503    0  0.12716654214E+03 -0.11767203990E+03 -0.95783004462E+02  0.19797076137E+03  0.00000000000E+00 0. -1.
         -3    1    6    6    0  503  0.38195041234E+03 -0.18656960356E+03 -0.33667978034E+03  0.54226156876E+03  0.00000000000E+00 0.  1.
<mgrwt>
<rscale>  0 0.13637892E+04</rscale>
<asrwt>0</asrwt>
<pdfrwt beam="1">  1        2 0.15542273E+00 0.13637892E+04</pdfrwt>
<pdfrwt beam="2">  1       -1 0.70809782E-01 0.13637892E+04</pdfrwt>
<totfact> 0.55660442E+01</totfact>
</mgrwt>
</event>
<event>
12    7  0.1611233E-007  0.2173656E+04  0.7818608E-02  0.8529474E-01
          2   -1    0    0  501    0  0.00000000000E+00  0.00000000000E+00  0.28941137518E+04  0.28941137518E+04  0.00000000000E+00 0. -1.
         -1   -1    0    0    0  501 -0.00000000000E+00 -0.00000000000E+00 -0.40813705762E+03  0.40813705762E+03  0.00000000000E+00 0.  1.
         24    2    1    2    0    0  0.57023789321E+03  0.36392099225E+02 -0.12808367167E+02  0.57705463201E+03  0.79576091326E+02 0.  0.
        254    2    1    2    0    0 -0.57023789321E+03 -0.36392099225E+02  0.24987850613E+04  0.27251961774E+04  0.92534954627E+03 0.  0.
         23    2    4    4    0    0 -0.71903750413E+03 -0.32898375189E+02  0.11144582452E+04  0.13299077924E+04  0.92413854155E+02 0.  0.
         23    2    4    4    0    0  0.14879961092E+03 -0.34937240357E+01  0.13843268161E+04  0.13952883850E+04  0.91188887697E+02 0.  0.
          2    1    3    3  502    0  0.20628393030E+03 -0.46546049082E+01  0.29199291907E+02  0.20839223569E+03  0.00000000000E+00 0. -1.
         -1    1    3    3    0  502  0.36395396291E+03  0.41046704133E+02 -0.42007659074E+02  0.36866239632E+03  0.00000000000E+00 0.  1.
         13    1    5    5    0    0 -0.36697727532E+03 -0.40396810221E+02  0.49745197893E+03  0.61948583052E+03  0.00000000000E+00 0.  1.
        -13    1    5    5    0    0 -0.35206022881E+03  0.74984350317E+01  0.61700626630E+03  0.71042196186E+03  0.00000000000E+00 0. -1.
          1    1    6    6  503    0  0.25148224192E+02  0.12900856218E+01  0.58371795608E+02  0.63571723458E+02  0.00000000000E+00 0. -1.
         -1    1    6    6    0  503  0.12365138673E+03 -0.47838096575E+01  0.13259550205E+04  0.13317166615E+04  0.00000000000E+00 0.  1.
<mgrwt>
<rscale>  0 0.21736560E+04</rscale>
<asrwt>0</asrwt>
<pdfrwt beam="1">  1        2 0.44524826E+00 0.21736560E+04</pdfrwt>
<pdfrwt beam="2">  1       -1 0.62790318E-01 0.21736560E+04</pdfrwt>
<totfact> 0.54381718E+00</totfact>
</mgrwt>
</event>
<event>
12    7  0.1611233E-007  0.1431959E+04  0.7818608E-02  0.8931004E-01
         -1   -1    0    0    0  501 -0.00000000000E+00  0.00000000000E+00  0.10404282677E+04  0.10404282677E+04  0.00000000000E+00 0.  1.
          2   -1    0    0  501    0  0.00000000000E+00 -0.00000000000E+00 -0.49270747264E+03  0.49270747264E+03  0.00000000000E+00 0. -1.
         24    2    1    2    0    0 -0.20457365937E+03 -0.24503332371E+03 -0.12462280769E+03  0.35211274557E+03  0.80998947882E+02 0.  0.
        254    2    1    2    0    0  0.20457365937E+03  0.24503332371E+03  0.67234360280E+03  0.11810229948E+04  0.91699382889E+03 0.  0.
         23    2    4    4    0    0  0.25800017857E+03 -0.22865629028E+03  0.58906536321E+03  0.68867839054E+03  0.91826642284E+02 0.  0.
         23    2    4    4    0    0 -0.53426519202E+02  0.47368961399E+03  0.83278239594E+02  0.49234460428E+03  0.90728721009E+02 0.  0.
          4    1    3    3  502    0 -0.13972788021E+03 -0.18037168018E+03 -0.12576964208E+03  0.26052989538E+03  0.00000000000E+00 0. -1.
         -3    1    3    3    0  502 -0.64845779164E+02 -0.64661643527E+02  0.11468343899E+01  0.91582850185E+02  0.00000000000E+00 0.  1.
         13    1    5    5    0    0  0.20347699325E+03 -0.18670559708E+03  0.53156404646E+03  0.59901769777E+03  0.00000000000E+00 0. -1.
        -13    1    5    5    0    0  0.54523185329E+02 -0.41950693208E+02  0.57501316749E+02  0.89660692764E+02  0.00000000000E+00 0.  1.
          1    1    6    6  503    0 -0.59831347238E+02  0.47316110841E+03  0.76537559413E+02  0.48303128534E+03  0.00000000000E+00 0. -1.
         -1    1    6    6    0  503  0.64048280352E+01  0.52850558679E+00  0.67406801810E+01  0.93133189368E+01  0.00000000000E+00 0.  1.
<mgrwt>
<rscale>  0 0.14319592E+04</rscale>
<asrwt>0</asrwt>
<pdfrwt beam="1">  1        2 0.75801150E-01 0.14319592E+04</pdfrwt>
<pdfrwt beam="2">  1       -1 0.16006589E+00 0.14319592E+04</pdfrwt>
<totfact> 0.20302720E+01</totfact>
</mgrwt>
</event>
<event>
12    7  0.1611233E-007  0.1771813E+04  0.7818608E-02  0.8721434E-01
         -1   -1    0    0    0  501 -0.00000000000E+00  0.00000000000E+00  0.46558619454E+03  0.46558619454E+03  0.00000000000E+00 0.  1.
          2   -1    0    0  501    0  0.00000000000E+00 -0.00000000000E+00 -0.16856815942E+04  0.16856815942E+04  0.00000000000E+00 0. -1.
         24    2    1    2    0    0 -0.31944414730E+03 -0.24307482044E+03 -0.99472839296E+03  0.10778892507E+04  0.10597513580E+03 0.  0.
        254    2    1    2    0    0  0.31944414730E+03  0.24307482044E+03 -0.22536700666E+03  0.10733785380E+04  0.96965007430E+03 0.  0.
         23    2    4    4    0    0 -0.16961764946E+03  0.34650641334E+01  0.27070368632E+03  0.33248383142E+03  0.92102435851E+02 0.  0.
         23    2    4    4    0    0  0.48906179675E+03  0.23960975631E+03 -0.49607069298E+03  0.74089470659E+03  0.79022512402E+02 0.  0.
          2    1    3    3  502    0 -0.20701623381E+03 -0.97243918718E+02 -0.60688835439E+03  0.64855653222E+03  0.00000000000E+00 0. -1.
         -1    1    3    3    0  502 -0.11242791348E+03 -0.14583090172E+03 -0.38784003857E+03  0.42933271847E+03  0.00000000000E+00 0.  1.
         13    1    5    5    0    0 -0.26242334113E+02  0.32720112760E+01  0.12612516254E+03  0.12886785007E+03  0.00000000000E+00 0. -1.
        -13    1    5    5    0    0 -0.14337531534E+03  0.19305285740E+00  0.14457852378E+03  0.20361598134E+03  0.00000000000E+00 0.  1.
          4    1    6    6  503    0  0.11655962978E+03  0.52676884817E+02 -0.16412462950E+03  0.20808146361E+03  0.00000000000E+00 0. -1.
         -4    1    6    6    0  503  0.37250216697E+03  0.18693287149E+03 -0.33194606348E+03  0.53281324299E+03  0.00000000000E+00 0.  1.
<mgrwt>
<rscale>  0 0.17718127E+04</rscale>
<asrwt>0</asrwt>
<pdfrwt beam="1">  1        2 0.25933563E+00 0.17718127E+04</pdfrwt>
<pdfrwt beam="2">  1       -1 0.71628646E-01 0.17718127E+04</pdfrwt>
<totfact> 0.21182509E+01</totfact>
</mgrwt>
</event>
<event>
12    7  0.1611233E-007  0.1718702E+04  0.7818608E-02  0.8750769E-01
          2   -1    0    0  501    0  0.00000000000E+00  0.00000000000E+00  0.47449478024E+03  0.47449478024E+03  0.00000000000E+00 0. -1.
         -1   -1    0    0    0  501 -0.00000000000E+00 -0.00000000000E+00 -0.15563590476E+04  0.15563590476E+04  0.00000000000E+00 0.  1.
         24    2    1    2    0    0 -0.60771224824E+03 -0.10671822657E+03 -0.37940041515E+03  0.72882901040E+03  0.80895579797E+02 0.  0.
        254    2    1    2    0    0  0.60771224824E+03  0.10671822657E+03 -0.70246385223E+03  0.13020248175E+04  0.90615131467E+03 0.  0.
         23    2    4    4    0    0  0.20390980490E+03 -0.38495893948E+01 -0.82637480184E+03  0.85611356148E+03  0.91875400251E+02 0.  0.
         23    2    4    4    0    0  0.40380244334E+03  0.11056781597E+03  0.12391094961E+03  0.44591125598E+03  0.90560861325E+02 0.  0.
          2    1    3    3  502    0 -0.60604663035E+03 -0.10147177062E+03 -0.36820780346E+03  0.71635607412E+03  0.00000000000E+00 0. -1.
         -1    1    3    3    0  502 -0.16656178908E+01 -0.52464559467E+01 -0.11192611691E+02  0.12472936279E+02  0.00000000000E+00 0.  1.
         13    1    5    5    0    0  0.10836851900E+03  0.12127279732E+01 -0.60967797085E+03  0.61923536297E+03  0.00000000000E+00 0. -1.
        -13    1    5    5    0    0  0.95541285900E+02 -0.50623173680E+01 -0.21669683099E+03  0.23687819851E+03  0.00000000000E+00 0.  1.
          3    1    6    6  503    0  0.29136124016E+03  0.58604171069E+02  0.49157367263E+02  0.30123457287E+03  0.00000000000E+00 0. -1.
         -3    1    6    6    0  503  0.11244120318E+03  0.51963644897E+02  0.74753582349E+02  0.14467668312E+03  0.00000000000E+00 0.  1.
<mgrwt>
<rscale>  0 0.17187021E+04</rscale>
<asrwt>0</asrwt>
<pdfrwt beam="1">  1        2 0.72999197E-01 0.17187021E+04</pdfrwt>
<pdfrwt beam="2">  1       -1 0.23943985E+00 0.17187021E+04</pdfrwt>
<totfact> 0.58112233E+00</totfact>
</mgrwt>
</event>
<event>
12    7  0.1611233E-007  0.2422998E+04  0.7818608E-02  0.8430943E-01
          2   -1    0    0  501    0  0.00000000000E+00  0.00000000000E+00  0.11979383686E+04  0.11979383686E+04  0.00000000000E+00 0. -1.
         -1   -1    0    0    0  501 -0.00000000000E+00 -0.00000000000E+00 -0.12252135158E+04  0.12252135158E+04  0.00000000000E+00 0.  1.
         24    2    1    2    0    0  0.73274733389E+03 -0.69886607831E+03  0.15717512855E+03  0.10283530064E+04  0.86449025376E+02 0.  0.
        254    2    1    2    0    0 -0.73274733389E+03  0.69886607831E+03 -0.18445027576E+03  0.13947988780E+04  0.94133392333E+03 0.  0.
         23    2    4    4    0    0 -0.32008926416E+03  0.78568624824E+03 -0.36286326740E+03  0.92716443797E+03  0.90576633376E+02 0.  0.
         23    2    4    4    0    0 -0.41265806973E+03 -0.86820169924E+02  0.17841299164E+03  0.46763444007E+03  0.95007102526E+02 0.  0.
          4    1    3    3  502    0  0.68288353977E+03 -0.66069678594E+03  0.12683575159E+03  0.95861226767E+03  0.00000000000E+00 0. -1.
         -3    1    3    3    0  502  0.49863794121E+02 -0.38169292369E+02  0.30339376953E+02  0.69740738725E+02  0.00000000000E+00 0.  1.
         13    1    5    5    0    0 -0.14892768717E+03  0.38865809382E+03 -0.12973404397E+03  0.43596501243E+03  0.00000000000E+00 0.  1.
        -13    1    5    5    0    0 -0.17116157699E+03  0.39702815442E+03 -0.23312922343E+03  0.49119942555E+03  0.00000000000E+00 0. -1.
          1    1    6    6  503    0 -0.35973340830E+03 -0.46705685800E+02  0.17027552167E+03  0.40072846095E+03  0.00000000000E+00 0. -1.
         -1    1    6    6    0  503 -0.52924661431E+02 -0.40114484125E+02  0.81374699650E+01  0.66905979117E+02  0.00000000000E+00 0.  1.
<mgrwt>
<rscale>  0 0.24229984E+04</rscale>
<asrwt>0</asrwt>
<pdfrwt beam="1">  1        2 0.18429821E+00 0.24229984E+04</pdfrwt>
<pdfrwt beam="2">  1       -1 0.18849439E+00 0.24229984E+04</pdfrwt>
<totfact> 0.35183676E+00</totfact>
</mgrwt>
</event>
<event>
12    7  0.1611233E-007  0.1778847E+04  0.7818608E-02  0.8717630E-01
         -1   -1    0    0    0  501 -0.00000000000E+00  0.00000000000E+00  0.59527034733E+03  0.59527034733E+03  0.00000000000E+00 0.  1.
          2   -1    0    0  501    0  0.00000000000E+00 -0.00000000000E+00 -0.13289322795E+04  0.13289322795E+04  0.00000000000E+00 0. -1.
         24    2    1    2    0    0 -0.21452707505E+03  0.23172858569E+03 -0.89864749508E+03  0.95537849026E+03  0.73896792099E+02 0.  0.
        254    2    1    2    0    0  0.21452707505E+03 -0.23172858569E+03  0.16498556287E+03  0.96882413661E+03  0.90093283233E+03 0.  0.
         23    2    4    4    0    0  0.29580272865E+03  0.61196607961E+02 -0.28140696465E+03  0.42280167326E+03  0.91252923525E+02 0.  0.
         23    2    4    4    0    0 -0.81275653602E+02 -0.29292519365E+03  0.44639252752E+03  0.54602246335E+03  0.80394906005E+02 0.  0.
          2    1    3    3  502    0 -0.16347996228E+03  0.21528587440E+03 -0.76604495997E+03  0.81234142236E+03  0.00000000000E+00 0. -1.
         -1    1    3    3    0  502 -0.51047112765E+02  0.16442711293E+02 -0.13260253511E+03  0.14303706790E+03  0.00000000000E+00 0.  1.
         13    1    5    5    0    0  0.65216265243E+02 -0.23740110094E+02 -0.53201807243E+02  0.87448192511E+02  0.00000000000E+00 0. -1.
        -13    1    5    5    0    0  0.23058646341E+03  0.84936718055E+02 -0.22820515741E+03  0.33535348075E+03  0.00000000000E+00 0.  1.
          3    1    6    6  503    0 -0.73474369770E+02 -0.12190949585E+03  0.18210472619E+03  0.23113316398E+03  0.00000000000E+00 0. -1.
         -3    1    6    6    0  503 -0.78012838325E+01 -0.17101569779E+03  0.26428780134E+03  0.31488929937E+03  0.00000000000E+00 0.  1.
<mgrwt>
<rscale>  0 0.17788468E+04</rscale>
<asrwt>0</asrwt>
<pdfrwt beam="1">  1        2 0.20445112E+00 0.17788468E+04</pdfrwt>
<pdfrwt beam="2">  1       -1 0.91580055E-01 0.17788468E+04</pdfrwt>
<totfact> 0.19924465E+01</totfact>
</mgrwt>
</event>
<event>
12    7  0.1611233E-007  0.1675724E+04  0.7818608E-02  0.8775332E-01
          2   -1    0    0  501    0  0.00000000000E+00  0.00000000000E+00  0.12068213346E+04  0.12068213346E+04  0.00000000000E+00 0. -1.
         -1   -1    0    0    0  501 -0.00000000000E+00 -0.00000000000E+00 -0.58170424054E+03  0.58170424054E+03  0.00000000000E+00 0.  1.
         24    2    1    2    0    0  0.24358524782E+03 -0.34013178647E+03 -0.22256711211E+03  0.48108249247E+03  0.82950829055E+02 0.  0.
        254    2    1    2    0    0 -0.24358524782E+03  0.34013178647E+03  0.84768420621E+03  0.13074430827E+04  0.90322505276E+03 0.  0.
         23    2    4    4    0    0 -0.15302990660E+03 -0.29830295363E+02  0.89310937652E+03  0.91121281042E+03  0.91413503404E+02 0.  0.
         23    2    4    4    0    0 -0.90555341216E+02  0.36996208184E+03 -0.45425170315E+02  0.39623027229E+03  0.99311483509E+02 0.  0.
          2    1    3    3  502    0  0.14037856059E+03 -0.25737109535E+03 -0.13756620615E+03  0.32383712275E+03  0.00000000000E+00 0. -1.
         -1    1    3    3    0  502  0.10320668723E+03 -0.82760691121E+02 -0.85000905957E+02  0.15724536972E+03  0.00000000000E+00 0.  1.
         13    1    5    5    0    0 -0.66276293153E+02 -0.65900287736E+01  0.17055918086E+03  0.18310218374E+03  0.00000000000E+00 0.  1.
        -13    1    5    5    0    0 -0.86753613448E+02 -0.23240266589E+02  0.72255019566E+03  0.72811062668E+03  0.00000000000E+00 0. -1.
          1    1    6    6  503    0 -0.10329285161E+03  0.36096223368E+03 -0.52501835106E+02  0.37910366660E+03  0.00000000000E+00 0. -1.
         -1    1    6    6    0  503  0.12737510393E+02  0.89998481568E+01  0.70766647915E+01  0.17126605689E+02  0.00000000000E+00 0.  1.
<mgrwt>
<rscale>  0 0.16757244E+04</rscale>
<asrwt>0</asrwt>
<pdfrwt beam="1">  1        2 0.18566482E+00 0.16757244E+04</pdfrwt>
<pdfrwt beam="2">  1       -1 0.89492960E-01 0.16757244E+04</pdfrwt>
<totfact> 0.24951258E+01</totfact>
</mgrwt>
</event>
<event>
12    7  0.1611233E-007  0.2342498E+04  0.7818608E-02  0.8461351E-01
         -1   -1    0    0    0  501 -0.00000000000E+00  0.00000000000E+00  0.85046258665E+03  0.85046258665E+03  0.00000000000E+00 0.  1.
          2   -1    0    0  501    0  0.00000000000E+00 -0.00000000000E+00 -0.16130331604E+04  0.16130331604E+04  0.00000000000E+00 0. -1.
         24    2    1    2    0    0 -0.52535994748E+03  0.83706644621E+03 -0.45173870107E+03  0.10894492108E+04  0.78411855552E+02 0.  0.
        254    2    1    2    0    0  0.52535994748E+03 -0.83706644621E+03 -0.31083187269E+03  0.13740465363E+04  0.90260961713E+03 0.  0.
         23    2    4    4    0    0  0.29319454161E+03  0.93495435267E+02  0.85647650539E+02  0.33219867586E+03  0.91192129888E+02 0.  0.
         23    2    4    4    0    0  0.23216540587E+03 -0.93056188148E+03 -0.39647952323E+03  0.10418478604E+04  0.91677483299E+02 0.  0.
          2    1    3    3  502    0 -0.13143462299E+03  0.18325876127E+03 -0.13645835845E+03  0.26359005538E+03  0.00000000000E+00 0. -1.
         -1    1    3    3    0  502 -0.39392532448E+03  0.65380768494E+03 -0.31528034263E+03  0.82585915543E+03  0.00000000000E+00 0.  1.
         13    1    5    5    0    0  0.63805019015E+02 -0.15556516025E+02  0.56973373109E+01  0.65920750108E+02  0.00000000000E+00 0.  1.
        -13    1    5    5    0    0  0.22938952259E+03  0.10905195129E+03  0.79950313228E+02  0.26627792575E+03  0.00000000000E+00 0. -1.
          1    1    6    6  503    0  0.19981040772E+03 -0.66317344881E+03 -0.25910954387E+03  0.73950049220E+03  0.00000000000E+00 0. -1.
         -1    1    6    6    0  503  0.32354998145E+02 -0.26738843267E+03 -0.13736997936E+03  0.30234736820E+03  0.00000000000E+00 0.  1.
<mgrwt>
<rscale>  0 0.23424981E+04</rscale>
<asrwt>0</asrwt>
<pdfrwt beam="1">  1        2 0.24815895E+00 0.23424981E+04</pdfrwt>
<pdfrwt beam="2">  1       -1 0.13084040E+00 0.23424981E+04</pdfrwt>
<totfact> 0.56296943E+00</totfact>
</mgrwt>
</event>
<event>
12    7  0.1611233E-007  0.2340420E+04  0.7818608E-02  0.8462153E-01
         -1   -1    0    0    0  501 -0.00000000000E+00  0.00000000000E+00  0.55564812290E+03  0.55564812290E+03  0.00000000000E+00 0.  1.
          2   -1    0    0  501    0  0.00000000000E+00 -0.00000000000E+00 -0.24644931276E+04  0.24644931276E+04  0.00000000000E+00 0. -1.
         24    2    1    2    0    0  0.28734407319E+03 -0.93993668018E+03 -0.10024508845E+04  0.14060569511E+04  0.77722549416E+02 0.  0.
        254    2    1    2    0    0 -0.28734407319E+03  0.93993668018E+03 -0.90639412023E+03  0.16140842995E+04  0.90425120702E+03 0.  0.
         23    2    4    4    0    0  0.14231529875E+02  0.90653535223E+03 -0.92266733323E+03  0.12968562140E+04  0.92261317008E+02 0.  0.
         23    2    4    4    0    0 -0.30157560307E+03  0.33401327953E+02  0.16273212995E+02  0.31722808549E+03  0.91133680307E+02 0.  0.
          4    1    3    3  502    0  0.24526206195E+03 -0.87094209944E+03 -0.91026364446E+03  0.12834615390E+04  0.00000000000E+00 0. -1.
         -3    1    3    3    0  502  0.42082011238E+02 -0.68994580743E+02 -0.92187240035E+02  0.12259541210E+03  0.00000000000E+00 0.  1.
         13    1    5    5    0    0 -0.25325920713E+00  0.81103323622E+03 -0.85777458755E+03  0.11804881268E+04  0.00000000000E+00 0.  1.
        -13    1    5    5    0    0  0.14484789082E+02  0.95502116006E+02 -0.64892745680E+02  0.11636808720E+03  0.00000000000E+00 0. -1.
          4    1    6    6  503    0 -0.27360304367E+03  0.52533029938E+02  0.30915699745E+02  0.28031076546E+03  0.00000000000E+00 0.  1.
         -4    1    6    6    0  503 -0.27972559397E+02 -0.19131701985E+02 -0.14642486750E+02  0.36917320031E+02  0.00000000000E+00 0. -1.
<mgrwt>
<rscale>  0 0.23404196E+04</rscale>
<asrwt>0</asrwt>
<pdfrwt beam="1">  1        2 0.37915279E+00 0.23404196E+04</pdfrwt>
<pdfrwt beam="2">  1       -1 0.85484326E-01 0.23404196E+04</pdfrwt>
<totfact> 0.50736820E+00</totfact>
</mgrwt>
</event>
<event>
12    7  0.1611233E-007  0.1216831E+04  0.7818608E-02  0.9098251E-01
          2   -1    0    0  501    0  0.00000000000E+00  0.00000000000E+00  0.29727265176E+03  0.29727265176E+03  0.00000000000E+00 0. -1.
         -1   -1    0    0    0  501 -0.00000000000E+00 -0.00000000000E+00 -0.12452177442E+04  0.12452177442E+04  0.00000000000E+00 0.  1.
         24    2    1    2    0    0  0.13012673609E+03 -0.21069180879E+03 -0.78305242813E+02  0.27245604463E+03  0.82319982166E+02 0.  0.
        254    2    1    2    0    0 -0.13012673609E+03  0.21069180879E+03 -0.86963984964E+03  0.12700343514E+04  0.89184627588E+03 0.  0.
         23    2    4    4    0    0 -0.19766998661E+03  0.13655031710E+03 -0.10296469029E+04  0.10613189032E+04  0.92226118193E+02 0.  0.
         23    2    4    4    0    0  0.67543250519E+02  0.74141491693E+02  0.16000705331E+03  0.20871544814E+03  0.88886611490E+02 0.  0.
          2    1    3    3  502    0  0.75633697589E+02 -0.13725907380E+03 -0.76643749271E+01  0.15690523317E+03  0.00000000000E+00 0. -1.
         -1    1    3    3    0  502  0.54493038501E+02 -0.73432734987E+02 -0.70640867886E+02  0.11555081146E+03  0.00000000000E+00 0.  1.
         13    1    5    5    0    0 -0.11171255926E+03  0.98807490589E+02 -0.78972322833E+03  0.80368239589E+03  0.00000000000E+00 0. -1.
        -13    1    5    5    0    0 -0.85957427349E+02  0.37742826509E+02 -0.23992367462E+03  0.25763650733E+03  0.00000000000E+00 0.  1.
          1    1    6    6  503    0 -0.14403296732E+02  0.37615820485E+02  0.27803238041E+02  0.48943078704E+02  0.00000000000E+00 0. -1.
         -1    1    6    6    0  503  0.81946547250E+02  0.36525671208E+02  0.13220381526E+03  0.15977236943E+03  0.00000000000E+00 0.  1.
<mgrwt>
<rscale>  0 0.12168306E+04</rscale>
<asrwt>0</asrwt>
<pdfrwt beam="1">  1        2 0.45734254E-01 0.12168306E+04</pdfrwt>
<pdfrwt beam="2">  1       -1 0.19157196E+00 0.12168306E+04</pdfrwt>
<totfact> 0.21581922E+01</totfact>
</mgrwt>
</event>
<event>
12    7  0.1611233E-007  0.1426095E+04  0.7818608E-02  0.8935143E-01
          2   -1    0    0  501    0  0.00000000000E+00  0.00000000000E+00  0.26400171712E+03  0.26400171712E+03  0.00000000000E+00 0. -1.
         -1   -1    0    0    0  501 -0.00000000000E+00 -0.00000000000E+00 -0.19258836802E+04  0.19258836802E+04  0.00000000000E+00 0.  1.
         24    2    1    2    0    0  0.96493112815E+02  0.40540681965E+03 -0.45809837195E+03  0.62439482771E+03  0.79681693334E+02 0.  0.
        254    2    1    2    0    0 -0.96493112815E+02 -0.40540681965E+03 -0.12037835912E+04  0.15654905697E+04  0.90994515168E+03 0.  0.
         23    2    4    4    0    0 -0.47932374449E+03 -0.12405666253E+03 -0.48665901817E+03  0.70033924986E+03  0.92177857286E+02 0.  0.
         23    2    4    4    0    0  0.38283063168E+03 -0.28135015712E+03 -0.71712457300E+03  0.86515131980E+03  0.92206016552E+02 0.  0.
          2    1    3    3  502    0  0.59290947549E+01  0.18873262407E+03 -0.18752213579E+03  0.26611972675E+03  0.00000000000E+00 0. -1.
         -1    1    3    3    0  502  0.90564018060E+02  0.21667419558E+03 -0.27057623616E+03  0.35827510096E+03  0.00000000000E+00 0.  1.
         13    1    5    5    0    0 -0.34169138874E+03 -0.13065562786E+03 -0.35109231437E+03  0.50704014776E+03  0.00000000000E+00 0. -1.
        -13    1    5    5    0    0 -0.13763235575E+03  0.65989653258E+01 -0.13556670380E+03  0.19329910210E+03  0.00000000000E+00 0.  1.
          1    1    6    6  503    0  0.32665583394E+03 -0.20147156106E+03 -0.60499908489E+03  0.71646264137E+03  0.00000000000E+00 0. -1.
         -1    1    6    6    0  503  0.56174797734E+02 -0.79878596052E+02 -0.11212548811E+03  0.14868867843E+03  0.00000000000E+00 0.  1.
<mgrwt>
<rscale>  0 0.14260948E+04</rscale>
<asrwt>0</asrwt>
<pdfrwt beam="1">  1        2 0.40615651E-01 0.14260948E+04</pdfrwt>
<pdfrwt beam="2">  1       -1 0.29628978E+00 0.14260948E+04</pdfrwt>
<totfact> 0.49347164E+00</totfact>
</mgrwt>
</event>
<event>
12    7  0.1611233E-007  0.1858930E+04  0.7818608E-02  0.8675574E-01
         -1   -1    0    0    0  501 -0.00000000000E+00  0.00000000000E+00  0.11829152144E+04  0.11829152144E+04  0.00000000000E+00 0.  1.
          2   -1    0    0  501    0  0.00000000000E+00 -0.00000000000E+00 -0.73031895386E+03  0.73031895386E+03  0.00000000000E+00 0. -1.
         24    2    1    2    0    0  0.57062069303E+03  0.15196180775E+02  0.58184446643E+03  0.81919139179E+03  0.81808642874E+02 0.  0.
        254    2    1    2    0    0 -0.57062069303E+03 -0.15196180775E+02 -0.12924820587E+03  0.10940427765E+04  0.92432981063E+03 0.  0.
         23    2    4    4    0    0 -0.16606471021E+03 -0.88819120361E+02 -0.49432284719E+03  0.53688176706E+03  0.91763993085E+02 0.  0.
         23    2    4    4    0    0 -0.40455598281E+03  0.73622939587E+02  0.36507464132E+03  0.55716100941E+03  0.89794299433E+02 0.  0.
          2    1    3    3  502    0  0.42580634572E+03  0.30303588580E+02  0.38886961975E+03  0.57745037250E+03  0.00000000000E+00 0. -1.
         -1    1    3    3    0  502  0.14481434731E+03 -0.15107407805E+02  0.19297484668E+03  0.24174101929E+03  0.00000000000E+00 0.  1.
         13    1    5    5    0    0 -0.88721187656E+01 -0.51373634740E+01 -0.13952437129E+03  0.13990052602E+03  0.00000000000E+00 0.  1.
        -13    1    5    5    0    0 -0.15719259144E+03 -0.83681756887E+02 -0.35479847590E+03  0.39698124105E+03  0.00000000000E+00 0. -1.
          1    1    6    6  503    0 -0.33282795489E+03  0.45959870079E+02  0.33543784290E+03  0.47476868437E+03  0.00000000000E+00 0. -1.
         -1    1    6    6    0  503 -0.71728027926E+02  0.27663069508E+02  0.29636798420E+02  0.82392325039E+02  0.00000000000E+00 0.  1.
<mgrwt>
<rscale>  0 0.18589302E+04</rscale>
<asrwt>0</asrwt>
<pdfrwt beam="1">  1        2 0.11235676E+00 0.18589302E+04</pdfrwt>
<pdfrwt beam="2">  1       -1 0.18198696E+00 0.18589302E+04</pdfrwt>
<totfact> 0.83843191E+00</totfact>
</mgrwt>
</event>
<event>
12    7  0.1611233E-007  0.2324281E+04  0.7818608E-02  0.8468409E-01
          2   -1    0    0  501    0  0.00000000000E+00  0.00000000000E+00  0.12665929444E+04  0.12665929444E+04  0.00000000000E+00 0. -1.
         -1   -1    0    0    0  501 -0.00000000000E+00 -0.00000000000E+00 -0.10663019631E+04  0.10663019631E+04  0.00000000000E+00 0.  1.
         24    2    1    2    0    0 -0.52956066957E+03  0.27922168599E+03  0.85178656403E+03  0.10442048490E+04  0.80150879084E+02 0.  0.
        254    2    1    2    0    0  0.52956066957E+03 -0.27922168599E+03 -0.65149558267E+03  0.12886900584E+04  0.93695054287E+03 0.  0.
         23    2    4    4    0    0  0.49481474454E+03  0.34099358087E+02  0.55686650704E+02  0.50859877468E+03  0.97812641790E+02 0.  0.
         23    2    4    4    0    0  0.34745925030E+02 -0.31332104408E+03 -0.70718223338E+03  0.78009128376E+03  0.95175332029E+02 0.  0.
          2    1    3    3  502    0 -0.45369386246E+03  0.26614112391E+03  0.76230663463E+03  0.92616446913E+03  0.00000000000E+00 0. -1.
         -1    1    3    3    0  502 -0.75866807110E+02  0.13080562080E+02  0.89479929405E+02  0.11804037992E+03  0.00000000000E+00 0.  1.
         13    1    5    5    0    0  0.22239104120E+03 -0.79072428869E+01  0.67974190097E+02  0.23268173588E+03  0.00000000000E+00 0.  1.
        -13    1    5    5    0    0  0.27242370335E+03  0.42006600974E+02 -0.12287539393E+02  0.27591703879E+03  0.00000000000E+00 0. -1.
          1    1    6    6  503    0 -0.31929344726E+02 -0.13688160368E+03 -0.31251774566E+03  0.34267097606E+03  0.00000000000E+00 0. -1.
         -1    1    6    6    0  503  0.66675269756E+02 -0.17643944040E+03 -0.39466448772E+03  0.43742030770E+03  0.00000000000E+00 0.  1.
<mgrwt>
<rscale>  0 0.23242810E+04</rscale>
<asrwt>0</asrwt>
<pdfrwt beam="1">  1        2 0.19486045E+00 0.23242810E+04</pdfrwt>
<pdfrwt beam="2">  1       -1 0.16404646E+00 0.23242810E+04</pdfrwt>
<totfact> 0.48585733E+00</totfact>
</mgrwt>
</event>
<event>
12    7  0.1611233E-007  0.1332273E+04  0.7818608E-02  0.9004357E-01
         -1   -1    0    0    0  501 -0.00000000000E+00  0.00000000000E+00  0.19179477128E+04  0.19179477128E+04  0.00000000000E+00 0.  1.
          2   -1    0    0  501    0  0.00000000000E+00 -0.00000000000E+00 -0.23136058480E+03  0.23136058480E+03  0.00000000000E+00 0. -1.
         24    2    1    2    0    0 -0.16994235885E+03 -0.12706006102E+03  0.59382440166E-02  0.22673593073E+03  0.79903177738E+02 0.  0.
        254    2    1    2    0    0  0.16994235885E+03  0.12706006102E+03  0.16865811897E+04  0.19225723668E+04  0.89816687302E+03 0.  0.
         23    2    4    4    0    0  0.68089369051E+02  0.38315981053E+03  0.15458338487E+04  0.15966414662E+04  0.90631568921E+02 0.  0.
         23    2    4    4    0    0  0.10185298980E+03 -0.25609974951E+03  0.14074734102E+03  0.32593090062E+03  0.10227426238E+03 0.  0.
          2    1    3    3  502    0 -0.10903796995E+03 -0.11067697020E+03 -0.27757183562E+02  0.15782627114E+03  0.00000000000E+00 0. -1.
         -1    1    3    3    0  502 -0.60904388900E+02 -0.16383090811E+02  0.27763121806E+02  0.68909659586E+02  0.00000000000E+00 0.  1.
         13    1    5    5    0    0 -0.85614900313E+01  0.12651032830E+02  0.13834564184E+03  0.13918643741E+03  0.00000000000E+00 0.  1.
        -13    1    5    5    0    0  0.76650859082E+02  0.37050877770E+03  0.14074882069E+04  0.14574550288E+04  0.00000000000E+00 0. -1.
          4    1    6    6  503    0  0.34404373125E+02 -0.18342605539E+03  0.12721983466E+03  0.22586204864E+03  0.00000000000E+00 0. -1.
         -4    1    6    6    0  503  0.67448616673E+02 -0.72673694120E+02  0.13527506363E+02  0.10006885198E+03  0.00000000000E+00 0.  1.
<mgrwt>
<rscale>  0 0.13322725E+04</rscale>
<asrwt>0</asrwt>
<pdfrwt beam="1">  1        2 0.35593937E-01 0.13322725E+04</pdfrwt>
<pdfrwt beam="2">  1       -1 0.29506887E+00 0.13322725E+04</pdfrwt>
<totfact> 0.58748235E+00</totfact>
</mgrwt>
</event>
<event>
12    7  0.1611233E-007  0.2485541E+04  0.7818608E-02  0.8408155E-01
         -1   -1    0    0    0  501 -0.00000000000E+00  0.00000000000E+00  0.11123671169E+04  0.11123671169E+04  0.00000000000E+00 0.  1.
          2   -1    0    0  501    0  0.00000000000E+00 -0.00000000000E+00 -0.13884614895E+04  0.13884614895E+04  0.00000000000E+00 0. -1.
         24    2    1    2    0    0  0.53376402104E+03 -0.71578276853E+03 -0.65784448019E+03  0.11144443977E+04  0.10944383759E+03 0.  0.
        254    2    1    2    0    0 -0.53376402104E+03  0.71578276853E+03  0.38175010760E+03  0.13863842086E+04  0.98948422292E+03 0.  0.
         23    2    4    4    0    0  0.28119320148E+02  0.66608372410E+03  0.45238297517E+03  0.81076614075E+03  0.90736735083E+02 0.  0.
         23    2    4    4    0    0 -0.56188334119E+03  0.49699044433E+02 -0.70632867570E+02  0.57561806788E+03  0.90356372024E+02 0.  0.
          2    1    3    3  502    0  0.44774725467E+03 -0.55790088657E+03 -0.47943883925E+03  0.86115771139E+03  0.00000000000E+00 0. -1.
         -1    1    3    3    0  502  0.86016766369E+02 -0.15788188196E+03 -0.17840564095E+03  0.25328668632E+03  0.00000000000E+00 0.  1.
         13    1    5    5    0    0  0.51260572320E+01  0.59027631481E+03  0.37105446732E+03  0.69723297542E+03  0.00000000000E+00 0.  1.
        -13    1    5    5    0    0  0.22993262916E+02  0.75807409288E+02  0.81328507848E+02  0.11353316534E+03  0.00000000000E+00 0. -1.
          4    1    6    6  503    0 -0.11128487334E+03  0.38584001108E+02 -0.37746245075E+02  0.12368438540E+03  0.00000000000E+00 0. -1.
         -4    1    6    6    0  503 -0.45059846785E+03  0.11115043325E+02 -0.32886622495E+02  0.45193368248E+03  0.00000000000E+00 0.  1.
<mgrwt>
<rscale>  0 0.24855413E+04</rscale>
<asrwt>0</asrwt>
<pdfrwt beam="1">  1        2 0.21360946E+00 0.24855413E+04</pdfrwt>
<pdfrwt beam="2">  1       -1 0.17113340E+00 0.24855413E+04</pdfrwt>
<totfact> 0.36082337E+00</totfact>
</mgrwt>
</event>
<event>
12    7  0.1611233E-007  0.2357396E+04  0.7818608E-02  0.8455628E-01
         -1   -1    0    0    0  501 -0.00000000000E+00  0.00000000000E+00  0.46570414496E+03  0.46570414496E+03  0.00000000000E+00 0.  1.
          2   -1    0    0  501    0  0.00000000000E+00 -0.00000000000E+00 -0.29832879127E+04  0.29832879127E+04  0.00000000000E+00 0. -1.
         24    2    1    2    0    0  0.69022410932E+03  0.64437138940E+03 -0.57046458892E+03  0.11061774188E+04  0.81085301527E+02 0.  0.
        254    2    1    2    0    0 -0.69022410932E+03 -0.64437138940E+03 -0.19471191788E+04  0.23428146389E+04  0.89771015752E+03 0.  0.
         23    2    4    4    0    0 -0.77715867134E+03 -0.22647616406E+03 -0.15542869773E+04  0.17550882169E+04  0.96226752209E+02 0.  0.
         23    2    4    4    0    0  0.86934562022E+02 -0.41789522533E+03 -0.39283220150E+03  0.58772642197E+03  0.94398999537E+02 0.  0.
          2    1    3    3  502    0  0.47082310018E+02  0.65497384987E+02 -0.68535364855E+02  0.10584775667E+03  0.00000000000E+00 0. -1.
         -1    1    3    3    0  502  0.64314179930E+03  0.57887400441E+03 -0.50192922406E+03  0.10003296621E+04  0.00000000000E+00 0.  1.
         13    1    5    5    0    0 -0.27666418076E+03 -0.78459128893E+02 -0.65440337189E+03  0.71480254404E+03  0.00000000000E+00 0.  1.
        -13    1    5    5    0    0 -0.50049449058E+03 -0.14801703517E+03 -0.89988360544E+03  0.10402856729E+04  0.00000000000E+00 0. -1.
          3    1    6    6  503    0  0.51321756165E+02 -0.14610064059E+03 -0.19828645762E+03  0.25158863072E+03  0.00000000000E+00 0. -1.
         -3    1    6    6    0  503  0.35612805856E+02 -0.27179458475E+03 -0.19454574389E+03  0.33613779124E+03  0.00000000000E+00 0.  1.
<mgrwt>
<rscale>  0 0.23573965E+04</rscale>
<asrwt>0</asrwt>
<pdfrwt beam="1">  1        2 0.45896735E+00 0.23573965E+04</pdfrwt>
<pdfrwt beam="2">  1       -1 0.71646795E-01 0.23573965E+04</pdfrwt>
<totfact> 0.36026090E+00</totfact>
</mgrwt>
</event>
<event>
12    7  0.1611233E-007  0.1913940E+04  0.7818608E-02  0.8647949E-01
          2   -1    0    0  501    0  0.00000000000E+00  0.00000000000E+00  0.14531584273E+04  0.14531584273E+04  0.00000000000E+00 0. -1.
         -1   -1    0    0    0  501 -0.00000000000E+00 -0.00000000000E+00 -0.63020750673E+03  0.63020750673E+03  0.00000000000E+00 0.  1.
         24    2    1    2    0    0  0.50287381209E+03  0.54407868437E+03  0.37406264719E+03  0.83368229479E+03  0.78737659051E+02 0.  0.
        254    2    1    2    0    0 -0.50287381209E+03 -0.54407868437E+03  0.44888827339E+03  0.12496836392E+04  0.90072461415E+03 0.  0.
         23    2    4    4    0    0 -0.70408148948E+03 -0.43884686568E+03  0.12473185485E+03  0.84349754394E+03  0.87251106987E+02 0.  0.
         23    2    4    4    0    0  0.20120767740E+03 -0.10523181869E+03  0.32415641855E+03  0.40618609530E+03  0.91386515536E+02 0.  0.
          4    1    3    3  502    0  0.12241263771E+03  0.13292176215E+03  0.13021223516E+03  0.22272915146E+03  0.00000000000E+00 0. -1.
         -3    1    3    3    0  502  0.38046117437E+03  0.41115692222E+03  0.24385041203E+03  0.61095314333E+03  0.00000000000E+00 0.  1.
         13    1    5    5    0    0 -0.34754230794E+03 -0.16952873835E+03  0.40474621260E+02  0.38879794740E+03  0.00000000000E+00 0. -1.
        -13    1    5    5    0    0 -0.35653918154E+03 -0.26931812733E+03  0.84257233585E+02  0.45469959654E+03  0.00000000000E+00 0.  1.
          2    1    6    6  503    0  0.85311860762E+02 -0.31909930950E+02  0.20571638269E+03  0.22497908211E+03  0.00000000000E+00 0.  1.
         -2    1    6    6    0  503  0.11589581664E+03 -0.73321887744E+02  0.11844003586E+03  0.18120701319E+03  0.00000000000E+00 0. -1.
<mgrwt>
<rscale>  0 0.19139398E+04</rscale>
<asrwt>0</asrwt>
<pdfrwt beam="1">  1        2 0.22356283E+00 0.19139398E+04</pdfrwt>
<pdfrwt beam="2">  1       -1 0.96955002E-01 0.19139398E+04</pdfrwt>
<totfact> 0.14711669E+01</totfact>
</mgrwt>
</event>
<event>
12    7  0.1611233E-007  0.1841100E+04  0.7818608E-02  0.8684743E-01
         -1   -1    0    0    0  501 -0.00000000000E+00  0.00000000000E+00  0.12898913621E+04  0.12898913621E+04  0.00000000000E+00 0.  1.
          2   -1    0    0  501    0  0.00000000000E+00 -0.00000000000E+00 -0.65696391883E+03  0.65696391883E+03  0.00000000000E+00 0. -1.
         24    2    1    2    0    0 -0.27912276499E+03  0.30159833228E+03 -0.35153028196E+03  0.54634530933E+03  0.77772655360E+02 0.  0.
        254    2    1    2    0    0  0.27912276499E+03 -0.30159833228E+03  0.98445772520E+03  0.14005099716E+04  0.90741396055E+03 0.  0.
         23    2    4    4    0    0  0.44721420623E+03 -0.33110651291E+03  0.20911068892E+03  0.60129884141E+03  0.90559081863E+02 0.  0.
         23    2    4    4    0    0 -0.16809144124E+03  0.29508180639E+02  0.77534703628E+03  0.79921113016E+03  0.91923547407E+02 0.  0.
          2    1    3    3  502    0 -0.21267565572E+03  0.26981051191E+03 -0.27433444380E+03  0.43964535017E+03  0.00000000000E+00 0. -1.
         -1    1    3    3    0  502 -0.66447109277E+02  0.31787820362E+02 -0.77195838162E+02  0.10669995916E+03  0.00000000000E+00 0.  1.
         13    1    5    5    0    0  0.28494434522E+02 -0.34322352757E+01 -0.30042405616E+01  0.28857208788E+02  0.00000000000E+00 0.  1.
        -13    1    5    5    0    0  0.41871977171E+03 -0.32767427764E+03  0.21211492948E+03  0.57244163262E+03  0.00000000000E+00 0. -1.
          1    1    6    6  503    0 -0.17778834018E+03  0.30484448354E+02  0.68545497057E+03  0.70879229128E+03  0.00000000000E+00 0. -1.
         -1    1    6    6    0  503  0.96968989454E+01 -0.97626771507E+00  0.89892065712E+02  0.90418838888E+02  0.00000000000E+00 0.  1.
<mgrwt>
<rscale>  0 0.18410998E+04</rscale>
<asrwt>0</asrwt>
<pdfrwt beam="1">  1        2 0.10107137E+00 0.18410998E+04</pdfrwt>
<pdfrwt beam="2">  1       -1 0.19844482E+00 0.18410998E+04</pdfrwt>
<totfact> 0.73546778E+00</totfact>
</mgrwt>
</event>
<event>
12    7  0.1611233E-007  0.1292947E+04  0.7818608E-02  0.9035177E-01
         -1   -1    0    0    0  501 -0.00000000000E+00  0.00000000000E+00  0.40637169294E+03  0.40637169294E+03  0.00000000000E+00 0.  1.
          2   -1    0    0  501    0  0.00000000000E+00 -0.00000000000E+00 -0.10284380072E+04  0.10284380072E+04  0.00000000000E+00 0. -1.
         24    2    1    2    0    0  0.31814218003E+03 -0.72125553033E+02 -0.21945157786E+03  0.40094382893E+03  0.78615627047E+02 0.  0.
        254    2    1    2    0    0 -0.31814218003E+03  0.72125553033E+02 -0.40261473640E+03  0.10338658712E+04  0.89463035470E+03 0.  0.
         23    2    4    4    0    0  0.25719692912E+03  0.22817093800E+02  0.69508440112E+02  0.28241857894E+03  0.90873265429E+02 0.  0.
         23    2    4    4    0    0 -0.57533910915E+03  0.49308459232E+02 -0.47212317651E+03  0.75144729225E+03  0.91248696248E+02 0.  0.
          4    1    3    3  502    0  0.30755607900E+03 -0.66091314524E+02 -0.22577845867E+03  0.38721404415E+03  0.00000000000E+00 0. -1.
         -3    1    3    3    0  502  0.10586101032E+02 -0.60342385090E+01  0.63268808086E+01  0.13729784784E+02  0.00000000000E+00 0.  1.
         13    1    5    5    0    0  0.65456149405E+02 -0.20737281788E+02 -0.11756384525E+02  0.69661717809E+02  0.00000000000E+00 0. -1.
        -13    1    5    5    0    0  0.19174077971E+03  0.43554375588E+02  0.81264824637E+02  0.21275686114E+03  0.00000000000E+00 0.  1.
          3    1    6    6  503    0 -0.64710793829E+02 -0.17965577758E+02 -0.34035194927E+02  0.75290393251E+02  0.00000000000E+00 0. -1.
         -3    1    6    6    0  503 -0.51062831532E+03  0.67274036990E+02 -0.43808798158E+03  0.67615689900E+03  0.00000000000E+00 0.  1.
<mgrwt>
<rscale>  0 0.12929472E+04</rscale>
<asrwt>0</asrwt>
<pdfrwt beam="1">  1        2 0.15822123E+00 0.12929472E+04</pdfrwt>
<pdfrwt beam="2">  1       -1 0.62518723E-01 0.12929472E+04</pdfrwt>
<totfact> 0.70123121E+01</totfact>
</mgrwt>
</event>
<event>
12    7  0.1611233E-007  0.1466150E+04  0.7818608E-02  0.8907280E-01
         -1   -1    0    0    0  501 -0.00000000000E+00  0.00000000000E+00  0.26432702437E+03  0.26432702437E+03  0.00000000000E+00 0.  1.
          2   -1    0    0  501    0  0.00000000000E+00 -0.00000000000E+00 -0.20330849578E+04  0.20330849578E+04  0.00000000000E+00 0. -1.
         24    2    1    2    0    0 -0.26947961841E+03  0.39410144292E+02 -0.11505076656E+04  0.11850394299E+04  0.80486878807E+02 0.  0.
        254    2    1    2    0    0  0.26947961841E+03 -0.39410144292E+02 -0.61825026783E+03  0.11123725522E+04  0.88372330347E+03 0.  0.
         23    2    4    4    0    0 -0.54553403505E+02 -0.33874944812E+03 -0.12329886800E+02  0.35687332059E+03  0.97361585889E+02 0.  0.
         23    2    4    4    0    0  0.32403302191E+03  0.29933930383E+03 -0.60592038103E+03  0.75549923165E+03  0.95069252516E+02 0.  0.
          2    1    3    3  502    0 -0.22777659457E+03  0.43958143114E+02 -0.83037998628E+03  0.86217481811E+03  0.00000000000E+00 0. -1.
         -1    1    3    3    0  502 -0.41703023836E+02 -0.45479988221E+01 -0.32012767933E+03  0.32286461181E+03  0.00000000000E+00 0.  1.
         13    1    5    5    0    0 -0.53286588407E+02 -0.16314613197E+03  0.34648144384E+02  0.17509030467E+03  0.00000000000E+00 0. -1.
        -13    1    5    5    0    0 -0.12668150978E+01 -0.17560331615E+03 -0.46978031184E+02  0.18178301592E+03  0.00000000000E+00 0.  1.
          2    1    6    6  503    0  0.29834627916E+03  0.22838023348E+03 -0.49933652971E+03  0.62490399522E+03  0.00000000000E+00 0. -1.
         -2    1    6    6    0  503  0.25686742750E+02  0.70959070346E+02 -0.10658385131E+03  0.13059523643E+03  0.00000000000E+00 0.  1.
<mgrwt>
<rscale>  0 0.14661505E+04</rscale>
<asrwt>0</asrwt>
<pdfrwt beam="1">  1        2 0.31278231E+00 0.14661505E+04</pdfrwt>
<pdfrwt beam="2">  1       -1 0.40665695E-01 0.14661505E+04</pdfrwt>
<totfact> 0.41773712E+01</totfact>
</mgrwt>
</event>
<event>
12    7  0.1611233E-007  0.2866995E+04  0.7818608E-02  0.8282766E-01
          2   -1    0    0  501    0  0.00000000000E+00  0.00000000000E+00  0.12697368751E+04  0.12697368751E+04  0.00000000000E+00 0. -1.
         -1   -1    0    0    0  501 -0.00000000000E+00 -0.00000000000E+00 -0.16183791096E+04  0.16183791096E+04  0.00000000000E+00 0.  1.
         24    2    1    2    0    0  0.22238955543E+03 -0.39002188836E+03 -0.13783656614E+04  0.14518310070E+04  0.79669244490E+02 0.  0.
        254    2    1    2    0    0 -0.22238955543E+03  0.39002188836E+03  0.10297234269E+04  0.14362849777E+04  0.89499162766E+03 0.  0.
         23    2    4    4    0    0 -0.53315668258E+03  0.19896810044E+03  0.82849104536E+03  0.10093013710E+04  0.91910239185E+02 0.  0.
         23    2    4    4    0    0  0.31076712714E+03  0.19105378792E+03  0.20123238151E+03  0.42698360673E+03  0.93502790600E+02 0.  0.
          2    1    3    3  502    0  0.44206849219E+01 -0.17636777411E+02 -0.12401123213E+03  0.12533708177E+03  0.00000000000E+00 0. -1.
         -1    1    3    3    0  502  0.21796887051E+03 -0.37238511095E+03 -0.12543544293E+04  0.13264939252E+04  0.00000000000E+00 0.  1.
         13    1    5    5    0    0 -0.39990487548E+03  0.15707484795E+03  0.55171289978E+03  0.69927358099E+03  0.00000000000E+00 0. -1.
        -13    1    5    5    0    0 -0.13325180710E+03  0.41893252486E+02  0.27677814557E+03  0.31002778999E+03  0.00000000000E+00 0.  1.
          2    1    6    6  503    0  0.30903367417E+03  0.17286851731E+03  0.20376574062E+03  0.40854107883E+03  0.00000000000E+00 0. -1.
         -2    1    6    6    0  503  0.17334529768E+01  0.18185270616E+02 -0.25333591080E+01  0.18442527890E+02  0.00000000000E+00 0.  1.
<mgrwt>
<rscale>  0 0.28669954E+04</rscale>
<asrwt>0</asrwt>
<pdfrwt beam="1">  1        2 0.19534413E+00 0.28669954E+04</pdfrwt>
<pdfrwt beam="2">  1       -1 0.24898140E+00 0.28669954E+04</pdfrwt>
<totfact> 0.12018871E+00</totfact>
</mgrwt>
</event>
<event>
12    7  0.1611233E-007  0.1094197E+04  0.7818608E-02  0.9210866E-01
         -1   -1    0    0    0  501 -0.00000000000E+00  0.00000000000E+00  0.56824546609E+03  0.56824546609E+03  0.00000000000E+00 0.  1.
          2   -1    0    0  501    0  0.00000000000E+00 -0.00000000000E+00 -0.52673886141E+03  0.52673886141E+03  0.00000000000E+00 0. -1.
         24    2    1    2    0    0  0.13654369631E+03 -0.98983491510E+02 -0.34967622603E+02  0.18985308972E+03  0.79872075541E+02 0.  0.
        254    2    1    2    0    0 -0.13654369631E+03  0.98983491510E+02  0.76474227277E+02  0.90513123778E+03  0.88598664639E+03 0.  0.
         23    2    4    4    0    0 -0.17416139527E+03 -0.15890813737E+03  0.40469671397E+03  0.47619589850E+03  0.86018112755E+02 0.  0.
         23    2    4    4    0    0  0.37617698962E+02  0.25789162888E+03 -0.32822248669E+03  0.42893533929E+03  0.91281657523E+02 0.  0.
          2    1    3    3  502    0  0.10988518819E+03 -0.80422912936E+02 -0.60039000752E+02  0.14881962612E+03  0.00000000000E+00 0. -1.
         -1    1    3    3    0  502  0.26658508126E+02 -0.18560578574E+02  0.25071378149E+02  0.41033463597E+02  0.00000000000E+00 0.  1.
         13    1    5    5    0    0 -0.12408742973E+03 -0.14426875357E+03  0.36124652946E+03  0.40830162689E+03  0.00000000000E+00 0.  1.
        -13    1    5    5    0    0 -0.50073965540E+02 -0.14639383799E+02  0.43450184505E+02  0.67894271603E+02  0.00000000000E+00 0. -1.
          2    1    6    6  503    0  0.70711559064E+01  0.36234320937E+02 -0.11142171515E+03  0.11737855795E+03  0.00000000000E+00 0. -1.
         -2    1    6    6    0  503  0.30546543056E+02  0.22165730794E+03 -0.21680077154E+03  0.31155678134E+03  0.00000000000E+00 0.  1.
<mgrwt>
<rscale>  0 0.10941974E+04</rscale>
<asrwt>0</asrwt>
<pdfrwt beam="1">  1        2 0.81036748E-01 0.10941974E+04</pdfrwt>
<pdfrwt beam="2">  1       -1 0.87422379E-01 0.10941974E+04</pdfrwt>
<totfact> 0.84772480E+01</totfact>
</mgrwt>
</event>
<event>
12    7  0.1611233E-007  0.1356852E+04  0.7818608E-02  0.8985657E-01
          2   -1    0    0  501    0  0.00000000000E+00  0.00000000000E+00  0.30719666414E+03  0.30719666414E+03  0.00000000000E+00 0. -1.
         -1   -1    0    0    0  501 -0.00000000000E+00 -0.00000000000E+00 -0.14982654246E+04  0.14982654246E+04  0.00000000000E+00 0.  1.
         24    2    1    2    0    0  0.23331327961E+03 -0.28157346721E+03 -0.24320065620E+03  0.44649779194E+03  0.80591656852E+02 0.  0.
        254    2    1    2    0    0 -0.23331327961E+03  0.28157346721E+03 -0.94786810431E+03  0.13589642968E+04  0.90255820479E+03 0.  0.
         23    2    4    4    0    0 -0.49436373110E+03  0.17528014543E+03 -0.91784774613E+03  0.10610834968E+04  0.91296627314E+02 0.  0.
         23    2    4    4    0    0  0.26105045149E+03  0.10629332178E+03 -0.30020358184E+02  0.29788080001E+03  0.91575873628E+02 0.  0.
          2    1    3    3  502    0  0.21225887848E+03 -0.20521226212E+03 -0.19117485682E+03  0.35172962614E+03  0.00000000000E+00 0. -1.
         -1    1    3    3    0  502  0.21054401125E+02 -0.76361205092E+02 -0.52025799375E+02  0.94768165807E+02  0.00000000000E+00 0.  1.
         13    1    5    5    0    0 -0.18041196503E+03  0.11134201117E+03 -0.36745533896E+03  0.42422747048E+03  0.00000000000E+00 0.  1.
        -13    1    5    5    0    0 -0.31395176607E+03  0.63938134265E+02 -0.55039240717E+03  0.63685602635E+03  0.00000000000E+00 0. -1.
          4    1    6    6  503    0  0.24808688675E+03  0.70057727853E+02 -0.23638789968E+02  0.25887058736E+03  0.00000000000E+00 0. -1.
         -4    1    6    6    0  503  0.12963564741E+02  0.36235593928E+02 -0.63815682162E+01  0.39010212650E+02  0.00000000000E+00 0.  1.
<mgrwt>
<rscale>  0 0.13568524E+04</rscale>
<asrwt>0</asrwt>
<pdfrwt beam="1">  1        2 0.47261025E-01 0.13568524E+04</pdfrwt>
<pdfrwt beam="2">  1       -1 0.23050237E+00 0.13568524E+04</pdfrwt>
<totfact> 0.11205743E+01</totfact>
</mgrwt>
</event>
<event>
12    7  0.1611233E-007  0.1862439E+04  0.7818608E-02  0.8673782E-01
          2   -1    0    0  501    0  0.00000000000E+00  0.00000000000E+00  0.32334183311E+04  0.32334183311E+04  0.00000000000E+00 0. -1.
         -1   -1    0    0    0  501 -0.00000000000E+00 -0.00000000000E+00 -0.26818984818E+03  0.26818984818E+03  0.00000000000E+00 0.  1.
         24    2    1    2    0    0 -0.38996225468E+03 -0.55928003915E+03  0.14971763078E+04  0.16470692130E+04  0.80220780274E+02 0.  0.
        254    2    1    2    0    0  0.38996225468E+03  0.55928003915E+03  0.14680521751E+04  0.18545389662E+04  0.90513693228E+03 0.  0.
         23    2    4    4    0    0  0.40201913736E+03  0.77881556367E+03  0.10258347062E+04  0.13523634913E+04  0.91526494221E+02 0.  0.
         23    2    4    4    0    0 -0.12056882682E+02 -0.21953552452E+03  0.44221746886E+03  0.50217547489E+03  0.91009355987E+02 0.  0.
          2    1    3    3  502    0 -0.29734165276E+03 -0.47827799030E+03  0.12097029979E+04  0.13343699778E+04  0.00000000000E+00 0. -1.
         -1    1    3    3    0  502 -0.92620601918E+02 -0.81002048853E+02  0.28747330990E+03  0.31269923525E+03  0.00000000000E+00 0.  1.
         13    1    5    5    0    0  0.15175871854E+03  0.39356333749E+03  0.48772858179E+03  0.64482709214E+03  0.00000000000E+00 0.  1.
        -13    1    5    5    0    0  0.25026041882E+03  0.38525222618E+03  0.53810612446E+03  0.70753639919E+03  0.00000000000E+00 0. -1.
          2    1    6    6  503    0 -0.40533548021E+02 -0.43499535144E+02  0.11910553692E+03  0.13312139948E+03  0.00000000000E+00 0.  1.
         -2    1    6    6    0  503  0.28476665340E+02 -0.17603598937E+03  0.32311193193E+03  0.36905407542E+03  0.00000000000E+00 0. -1.
<mgrwt>
<rscale>  0 0.18624392E+04</rscale>
<asrwt>0</asrwt>
<pdfrwt beam="1">  1        2 0.49744895E+00 0.18624392E+04</pdfrwt>
<pdfrwt beam="2">  1       -1 0.41259979E-01 0.18624392E+04</pdfrwt>
<totfact> 0.76238063E+00</totfact>
</mgrwt>
</event>
<event>
12    7  0.1611233E-007  0.1998470E+04  0.7818608E-02  0.8607336E-01
         -1   -1    0    0    0  501 -0.00000000000E+00  0.00000000000E+00  0.55377516589E+03  0.55377516589E+03  0.00000000000E+00 0.  1.
          2   -1    0    0  501    0  0.00000000000E+00 -0.00000000000E+00 -0.18030246111E+04  0.18030246111E+04  0.00000000000E+00 0. -1.
         24    2    1    2    0    0 -0.43500170797E+03  0.50563027119E+03 -0.11020769219E+04  0.12906027768E+04  0.78698975975E+02 0.  0.
        254    2    1    2    0    0  0.43500170797E+03 -0.50563027119E+03 -0.14717252332E+03  0.10661970001E+04  0.81867443735E+03 0.  0.
         23    2    4    4    0    0 -0.91781391097E+02  0.95295308995E+02  0.13703946655E+03  0.21240331094E+03  0.93969843221E+02 0.  0.
         23    2    4    4    0    0  0.52678309906E+03 -0.60092558019E+03 -0.28421198987E+03  0.85379368919E+03  0.97853063931E+02 0.  0.
          4    1    3    3  502    0 -0.21830034310E+03  0.31209660027E+03 -0.64139867888E+03  0.74595683050E+03  0.00000000000E+00 0. -1.
         -3    1    3    3    0  502 -0.21670136487E+03  0.19353367093E+03 -0.46067824298E+03  0.54464594634E+03  0.00000000000E+00 0.  1.
         13    1    5    5    0    0 -0.63502051227E+02  0.10229067364E+03  0.13814797210E+03  0.18325052420E+03  0.00000000000E+00 0. -1.
        -13    1    5    5    0    0 -0.28279339870E+02 -0.69953646418E+01 -0.11085055493E+01  0.29152786736E+02  0.00000000000E+00 0.  1.
          1    1    6    6  503    0  0.24634203602E+03 -0.26225382465E+03 -0.17803614029E+03  0.40144530699E+03  0.00000000000E+00 0. -1.
         -1    1    6    6    0  503  0.28044106304E+03 -0.33867175554E+03 -0.10617584958E+03  0.45234838219E+03  0.00000000000E+00 0.  1.
<mgrwt>
<rscale>  0 0.19984697E+04</rscale>
<asrwt>0</asrwt>
<pdfrwt beam="1">  1        2 0.27738840E+00 0.19984697E+04</pdfrwt>
<pdfrwt beam="2">  1       -1 0.85196178E-01 0.19984697E+04</pdfrwt>
<totfact> 0.12389255E+01</totfact>
</mgrwt>
</event>
<event>
12    7  0.1611233E-007  0.1437962E+04  0.7818608E-02  0.8926789E-01
          2   -1    0    0  501    0  0.00000000000E+00  0.00000000000E+00  0.10022326254E+04  0.10022326254E+04  0.00000000000E+00 0. -1.
         -1   -1    0    0    0  501 -0.00000000000E+00 -0.00000000000E+00 -0.51578211066E+03  0.51578211066E+03  0.00000000000E+00 0.  1.
         24    2    1    2    0    0  0.10057738966E+03 -0.21440298498E+03  0.53206360571E+03  0.58797699960E+03  0.80875337750E+02 0.  0.
        254    2    1    2    0    0 -0.10057738966E+03  0.21440298498E+03 -0.45613091011E+02  0.93003773643E+03  0.89822334964E+03 0.  0.
         23    2    4    4    0    0  0.26437037849E+03 -0.21863667149E+03 -0.12363117934E+02  0.35511023149E+03  0.90866598269E+02 0.  0.
         23    2    4    4    0    0 -0.36494776815E+03  0.43303965647E+03 -0.33249973077E+02  0.57492750494E+03  0.93412299359E+02 0.  0.
          4    1    3    3  502    0  0.11202098332E+03 -0.16756223268E+03  0.44302036576E+03  0.48671639278E+03  0.00000000000E+00 0. -1.
         -3    1    3    3    0  502 -0.11443593660E+02 -0.46840752303E+02  0.89043239948E+02  0.10126060682E+03  0.00000000000E+00 0.  1.
         13    1    5    5    0    0  0.22021593485E+03 -0.21909213826E+03 -0.80462129611E+01  0.31074292358E+03  0.00000000000E+00 0. -1.
        -13    1    5    5    0    0  0.44154443640E+02  0.45546676970E+00 -0.43169049728E+01  0.44367307916E+02  0.00000000000E+00 0.  1.
          2    1    6    6  503    0 -0.41889972095E+02  0.82756157840E+02 -0.32893611289E+02  0.98414130521E+02  0.00000000000E+00 0. -1.
         -2    1    6    6    0  503 -0.32305779606E+03  0.35028349863E+03 -0.35636178738E+00  0.47651337442E+03  0.00000000000E+00 0.  1.
<mgrwt>
<rscale>  0 0.14379620E+04</rscale>
<asrwt>0</asrwt>
<pdfrwt beam="1">  1        2 0.15418963E+00 0.14379620E+04</pdfrwt>
<pdfrwt beam="2">  1       -1 0.79351094E-01 0.14379620E+04</pdfrwt>
<totfact> 0.44136778E+01</totfact>
</mgrwt>
</event>
<event>
12    7  0.1611233E-007  0.1405266E+04  0.7818608E-02  0.8950015E-01
         -1   -1    0    0    0  501 -0.00000000000E+00  0.00000000000E+00  0.38427510324E+03  0.38427510324E+03  0.00000000000E+00 0.  1.
          2   -1    0    0  501    0  0.00000000000E+00 -0.00000000000E+00 -0.12847396894E+04  0.12847396894E+04  0.00000000000E+00 0. -1.
         24    2    1    2    0    0  0.16159837431E+02  0.27015788570E+03  0.95803447075E+02  0.29838500792E+03  0.81295073210E+02 0.  0.
        254    2    1    2    0    0 -0.16159837431E+02 -0.27015788570E+03 -0.99626803321E+03  0.13706297847E+04  0.90157062350E+03 0.  0.
         23    2    4    4    0    0 -0.31208284363E+03  0.17600537766E+03 -0.57645954004E+03  0.68440746780E+03  0.87945360449E+02 0.  0.
         23    2    4    4    0    0  0.29592300620E+03 -0.44616326336E+03 -0.41980849317E+03  0.68622231690E+03  0.89609230002E+02 0.  0.
          2    1    3    3  502    0  0.20464098988E+02  0.24707088767E+02 -0.59769801608E+01  0.32633477819E+02  0.00000000000E+00 0. -1.
         -1    1    3    3    0  502 -0.43042615570E+01  0.24545079694E+03  0.10178042724E+03  0.26575153011E+03  0.00000000000E+00 0.  1.
         13    1    5    5    0    0 -0.24353937502E+03  0.12290608034E+03 -0.49627237479E+03  0.56630698543E+03  0.00000000000E+00 0.  1.
        -13    1    5    5    0    0 -0.68543468618E+02  0.53099297314E+02 -0.80187165254E+02  0.11810048237E+03  0.00000000000E+00 0. -1.
          4    1    6    6  503    0  0.26406759097E+03 -0.37226203304E+03 -0.39020528309E+03  0.60047554221E+03  0.00000000000E+00 0.  1.
         -4    1    6    6    0  503  0.31855415234E+02 -0.73901230318E+02 -0.29603210082E+02  0.85746774688E+02  0.00000000000E+00 0. -1.
<mgrwt>
<rscale>  0 0.14052665E+04</rscale>
<asrwt>0</asrwt>
<pdfrwt beam="1">  1        2 0.19765226E+00 0.14052665E+04</pdfrwt>
<pdfrwt beam="2">  1       -1 0.59119246E-01 0.14052665E+04</pdfrwt>
<totfact> 0.54277025E+01</totfact>
</mgrwt>
</event>
<event>
12    7  0.1611233E-007  0.2005815E+04  0.7818608E-02  0.8603907E-01
         -1   -1    0    0    0  501 -0.00000000000E+00  0.00000000000E+00  0.11432995240E+04  0.11432995240E+04  0.00000000000E+00 0.  1.
          2   -1    0    0  501    0  0.00000000000E+00 -0.00000000000E+00 -0.87975511743E+03  0.87975511743E+03  0.00000000000E+00 0. -1.
         24    2    1    2    0    0  0.10816237516E+03  0.72406494157E+03 -0.22179351920E+03  0.77144050490E+03  0.99794531081E+02 0.  0.
        254    2    1    2    0    0 -0.10816237516E+03 -0.72406494157E+03  0.48533792578E+03  0.12516141365E+04  0.89163664435E+03 0.  0.
         23    2    4    4    0    0 -0.97679900269E+02 -0.18620703994E+03  0.64456520923E+03  0.68416803864E+03  0.91690629306E+02 0.  0.
         23    2    4    4    0    0 -0.10482474887E+02 -0.53785790163E+03 -0.15922728345E+03  0.56744609789E+03  0.85092547192E+02 0.  0.
          4    1    3    3  502    0  0.54906719448E+02  0.51905124723E+03 -0.19820350995E+03  0.55831315267E+03  0.00000000000E+00 0. -1.
         -3    1    3    3    0  502  0.53255655709E+02  0.20501369434E+03 -0.23590009255E+02  0.21312735223E+03  0.00000000000E+00 0.  1.
         13    1    5    5    0    0 -0.10093915619E+03 -0.15940187849E+03  0.61850074056E+03  0.64663810450E+03  0.00000000000E+00 0. -1.
        -13    1    5    5    0    0  0.32592559220E+01 -0.26805161443E+02  0.26064468673E+02  0.37529934138E+02  0.00000000000E+00 0.  1.
          2    1    6    6  503    0 -0.86504979463E+01 -0.53907473630E+03 -0.16285527824E+03  0.56320355475E+03  0.00000000000E+00 0. -1.
         -2    1    6    6    0  503 -0.18319769408E+01  0.12168346671E+01  0.36279947888E+01  0.42425431414E+01  0.00000000000E+00 0.  1.
<mgrwt>
<rscale>  0 0.20058152E+04</rscale>
<asrwt>0</asrwt>
<pdfrwt beam="1">  1        2 0.13534694E+00 0.20058152E+04</pdfrwt>
<pdfrwt beam="2">  1       -1 0.17589223E+00 0.20058152E+04</pdfrwt>
<totfact> 0.71464880E+00</totfact>
</mgrwt>
</event>
<event>
12    7  0.1611233E-007  0.2472744E+04  0.7818608E-02  0.8412761E-01
         -1   -1    0    0    0  501 -0.00000000000E+00  0.00000000000E+00  0.15199314029E+04  0.15199314029E+04  0.00000000000E+00 0.  1.
          2   -1    0    0  501    0  0.00000000000E+00 -0.00000000000E+00 -0.10057132681E+04  0.10057132681E+04  0.00000000000E+00 0. -1.
         24    2    1    2    0    0  0.36715008726E+02  0.75058203921E+03 -0.55837789068E+03  0.93954568453E+03  0.78986296756E+02 0.  0.
        254    2    1    2    0    0 -0.36715008726E+02 -0.75058203921E+03  0.10725960255E+04  0.15860989864E+04  0.89472139312E+03 0.  0.
         23    2    4    4    0    0  0.40964171115E+03 -0.28361441743E+03  0.36558133954E+03  0.62409029274E+03  0.87152213921E+02 0.  0.
         23    2    4    4    0    0 -0.44635671987E+03 -0.46696762178E+03  0.70701468600E+03  0.96200869369E+03  0.91092696429E+02 0.  0.
          2    1    3    3  502    0  0.19514182869E+02  0.63020886816E+03 -0.43290890904E+03  0.76482294968E+03  0.00000000000E+00 0. -1.
         -1    1    3    3    0  502  0.17200825857E+02  0.12037317105E+03 -0.12546898164E+03  0.17472273485E+03  0.00000000000E+00 0.  1.
         13    1    5    5    0    0  0.18558169984E+03 -0.79754324066E+02  0.16450925357E+03  0.26050837613E+03  0.00000000000E+00 0. -1.
        -13    1    5    5    0    0  0.22406001131E+03 -0.20386009337E+03  0.20107208597E+03  0.36358191662E+03  0.00000000000E+00 0.  1.
          2    1    6    6  503    0 -0.40763526335E+03 -0.45684708359E+03  0.65993877356E+03  0.90021939024E+03  0.00000000000E+00 0.  1.
         -2    1    6    6    0  503 -0.38721456523E+02 -0.10120538185E+02  0.47075912440E+02  0.61789303447E+02  0.00000000000E+00 0. -1.
<mgrwt>
<rscale>  0 0.24727436E+04</rscale>
<asrwt>0</asrwt>
<pdfrwt beam="1">  1        2 0.15472512E+00 0.24727436E+04</pdfrwt>
<pdfrwt beam="2">  1       -1 0.23383560E+00 0.24727436E+04</pdfrwt>
<totfact> 0.22660387E+00</totfact>
</mgrwt>
</event>
<event>
12    7  0.1611233E-007  0.1900630E+04  0.7818608E-02  0.8654543E-01
          2   -1    0    0  501    0  0.00000000000E+00  0.00000000000E+00  0.14669887487E+04  0.14669887487E+04  0.00000000000E+00 0. -1.
         -1   -1    0    0    0  501 -0.00000000000E+00 -0.00000000000E+00 -0.61561400118E+03  0.61561400118E+03  0.00000000000E+00 0.  1.
         24    2    1    2    0    0 -0.26308833586E+03 -0.51257515800E+03  0.82870139656E+03  0.10124750846E+04  0.80068889955E+02 0.  0.
        254    2    1    2    0    0  0.26308833586E+03  0.51257515800E+03  0.22673350973E+02  0.10701276653E+04  0.90150450593E+03 0.  0.
         23    2    4    4    0    0  0.31916506185E+03  0.21630521973E+03  0.41133445969E+03  0.57098362786E+03  0.90399008705E+02 0.  0.
         23    2    4    4    0    0 -0.56076725990E+02  0.29626993827E+03 -0.38866110872E+03  0.49914403747E+03  0.84657174467E+02 0.  0.
          2    1    3    3  502    0 -0.15990893854E+03 -0.36656194345E+03  0.61835088483E+03  0.73640772931E+03  0.00000000000E+00 0. -1.
         -1    1    3    3    0  502 -0.10317939732E+03 -0.14601321455E+03  0.21035051173E+03  0.27606735526E+03  0.00000000000E+00 0.  1.
         13    1    5    5    0    0  0.28804681860E+03  0.20419895928E+03  0.33094147871E+03  0.48393227523E+03  0.00000000000E+00 0. -1.
        -13    1    5    5    0    0  0.31118243249E+02  0.12106260444E+02  0.80392980980E+02  0.87051352635E+02  0.00000000000E+00 0.  1.
          2    1    6    6  503    0 -0.66951574220E+02  0.21079121687E+03 -0.31986450356E+03  0.38888140999E+03  0.00000000000E+00 0. -1.
         -2    1    6    6    0  503  0.10874848230E+02  0.85478721403E+02 -0.68796605158E+02  0.11026262748E+03  0.00000000000E+00 0.  1.
<mgrwt>
<rscale>  0 0.19006302E+04</rscale>
<asrwt>0</asrwt>
<pdfrwt beam="1">  1        2 0.22569058E+00 0.19006302E+04</pdfrwt>
<pdfrwt beam="2">  1       -1 0.94709847E-01 0.19006302E+04</pdfrwt>
<totfact> 0.15247817E+01</totfact>
</mgrwt>
</event>
<event>
12    7  0.1611233E-007  0.1918839E+04  0.7818608E-02  0.8645535E-01
         -1   -1    0    0    0  501 -0.00000000000E+00  0.00000000000E+00  0.40926238099E+03  0.40926238099E+03  0.00000000000E+00 0.  1.
          2   -1    0    0  501    0  0.00000000000E+00 -0.00000000000E+00 -0.22491336221E+04  0.22491336221E+04  0.00000000000E+00 0. -1.
         24    2    1    2    0    0 -0.78944635132E+02  0.17741950962E+03  0.27772570841E+03  0.34816940892E+03  0.79877596230E+02 0.  0.
        254    2    1    2    0    0  0.78944635132E+02 -0.17741950962E+03 -0.21175969495E+04  0.23102265941E+04  0.90289541916E+03 0.  0.
         23    2    4    4    0    0  0.25447069319E+03 -0.30018692196E+03 -0.20164579975E+04  0.20565681766E+04  0.92207849190E+02 0.  0.
         23    2    4    4    0    0 -0.17552605806E+03  0.12276741233E+03 -0.10113895194E+03  0.25365841750E+03  0.90731860887E+02 0.  0.
          2    1    3    3  502    0 -0.62833002468E+01  0.10970832950E+03  0.13096082537E+03  0.17095653017E+03  0.00000000000E+00 0. -1.
         -1    1    3    3    0  502 -0.72661334885E+02  0.67711180123E+02  0.14676488304E+03  0.17721287875E+03  0.00000000000E+00 0.  1.
         13    1    5    5    0    0  0.28275173036E+02 -0.94077349178E+01 -0.79794589602E+02  0.85177270537E+02  0.00000000000E+00 0.  1.
        -13    1    5    5    0    0  0.22619552016E+03 -0.29077918704E+03 -0.19366634079E+04  0.19713909061E+04  0.00000000000E+00 0. -1.
          3    1    6    6  503    0 -0.12083566700E+03  0.87208558829E+02 -0.21261273517E+02  0.15052784760E+03  0.00000000000E+00 0. -1.
         -3    1    6    6    0  503 -0.54690391059E+02  0.35558853505E+02 -0.79877678426E+02  0.10313056990E+03  0.00000000000E+00 0.  1.
<mgrwt>
<rscale>  0 0.19188390E+04</rscale>
<asrwt>0</asrwt>
<pdfrwt beam="1">  1        2 0.34602056E+00 0.19188390E+04</pdfrwt>
<pdfrwt beam="2">  1       -1 0.62963442E-01 0.19188390E+04</pdfrwt>
<totfact> 0.13199228E+01</totfact>
</mgrwt>
</event>
<event>
12    7  0.1611233E-007  0.1806470E+04  0.7818608E-02  0.8702866E-01
         -1   -1    0    0    0  501 -0.00000000000E+00  0.00000000000E+00  0.29602454699E+03  0.29602454699E+03  0.00000000000E+00 0.  1.
          2   -1    0    0  501    0  0.00000000000E+00 -0.00000000000E+00 -0.27559668974E+04  0.27559668974E+04  0.00000000000E+00 0. -1.
         24    2    1    2    0    0 -0.36320776321E+03 -0.21969679453E+03 -0.39306295541E+02  0.43242178367E+03  0.72505540099E+02 0.  0.
        254    2    1    2    0    0  0.36320776321E+03  0.21969679453E+03 -0.24206360548E+04  0.26195696607E+04  0.90690668564E+03 0.  0.
         23    2    4    4    0    0 -0.29144845392E+03  0.57682626010E+02 -0.93771970070E+03  0.98790851376E+03  0.91517800681E+02 0.  0.
         23    2    4    4    0    0  0.65465621713E+03  0.16201416852E+03 -0.14829163541E+04  0.16316611469E+04  0.91944720438E+02 0.  0.
          4    1    3    3  502    0 -0.23836531987E+02  0.87394176532E+00  0.74235093262E+01  0.24981043254E+02  0.00000000000E+00 0. -1.
         -3    1    3    3    0  502 -0.33937123122E+03 -0.22057073629E+03 -0.46729804867E+02  0.40744074042E+03  0.00000000000E+00 0.  1.
         13    1    5    5    0    0 -0.55917711421E+02 -0.20999729567E+02 -0.23978813277E+03  0.24711561608E+03  0.00000000000E+00 0. -1.
        -13    1    5    5    0    0 -0.23553074250E+03  0.78682355577E+02 -0.69793156793E+03  0.74079289769E+03  0.00000000000E+00 0.  1.
          1    1    6    6  503    0  0.81814173322E+02  0.51558217722E+01 -0.25097305081E+03  0.26402199470E+03  0.00000000000E+00 0. -1.
         -1    1    6    6    0  503  0.57284204380E+03  0.15685834674E+03 -0.12319433033E+04  0.13676391522E+04  0.00000000000E+00 0.  1.
<mgrwt>
<rscale>  0 0.18064704E+04</rscale>
<asrwt>0</asrwt>
<pdfrwt beam="1">  1        2 0.42399489E+00 0.18064704E+04</pdfrwt>
<pdfrwt beam="2">  1       -1 0.45542240E-01 0.18064704E+04</pdfrwt>
<totfact> 0.12676328E+01</totfact>
</mgrwt>
</event>
<event>
12    7  0.1611233E-007  0.1530103E+04  0.7818608E-02  0.8864678E-01
         -1   -1    0    0    0  501 -0.00000000000E+00  0.00000000000E+00  0.94851861218E+03  0.94851861218E+03  0.00000000000E+00 0.  1.
          2   -1    0    0  501    0  0.00000000000E+00 -0.00000000000E+00 -0.61707109214E+03  0.61707109214E+03  0.00000000000E+00 0. -1.
         24    2    1    2    0    0 -0.31208039420E+02 -0.24227123562E+03 -0.34468094697E+03  0.42993952249E+03  0.79835734201E+02 0.  0.
        254    2    1    2    0    0  0.31208039420E+02  0.24227123562E+03  0.67612846701E+03  0.11356501818E+04  0.87913726930E+03 0.  0.
         23    2    4    4    0    0 -0.17731680884E+03 -0.49735819380E+02  0.73163414515E+03  0.75985895101E+03  0.90455517529E+02 0.  0.
         23    2    4    4    0    0  0.20852484826E+03  0.29200705501E+03 -0.55505678138E+02  0.37579123083E+03  0.96888783407E+02 0.  0.
          4    1    3    3  502    0 -0.35070310320E+02 -0.24771487172E+03 -0.33338663847E+03  0.41682038704E+03  0.00000000000E+00 0. -1.
         -1    1    3    3    0  502  0.38622709000E+01  0.54436360974E+01 -0.11294308497E+02  0.13119135448E+02  0.00000000000E+00 0.  1.
         13    1    5    5    0    0 -0.22377848828E+02  0.24274415141E+02  0.10049639835E+03  0.10578062880E+03  0.00000000000E+00 0. -1.
        -13    1    5    5    0    0 -0.15493896001E+03 -0.74010234521E+02  0.63113774680E+03  0.65407832221E+03  0.00000000000E+00 0.  1.
          1    1    6    6  503    0  0.93317289022E+02  0.96491141520E+02  0.21921305014E+02  0.13601176580E+03  0.00000000000E+00 0. -1.
         -1    1    6    6    0  503  0.11520755923E+03  0.19551591348E+03 -0.77426983152E+02  0.23977946503E+03  0.00000000000E+00 0.  1.
<mgrwt>
<rscale>  0 0.15301025E+04</rscale>
<asrwt>0</asrwt>
<pdfrwt beam="1">  1        2 0.94934015E-01 0.15301025E+04</pdfrwt>
<pdfrwt beam="2">  1       -1 0.14592594E+00 0.15301025E+04</pdfrwt>
<totfact> 0.19834468E+01</totfact>
</mgrwt>
</event>
<event>
12    7  0.1800706E-007  0.1713239E+04  0.7818608E-02  0.8753849E-01
          2   -1    0    0  501    0  0.00000000000E+00  0.00000000000E+00  0.16938044959E+04  0.16938044959E+04  0.00000000000E+00 0. -1.
         -1   -1    0    0    0  501 -0.00000000000E+00 -0.00000000000E+00 -0.43322419238E+03  0.43322419238E+03  0.00000000000E+00 0.  1.
         24    2    1    2    0    0 -0.19671203036E+03 -0.23583819540E+03  0.11413362006E+04  0.11848510521E+04  0.83116878428E+02 0.  0.
        254    2    1    2    0    0  0.19671203036E+03  0.23583819540E+03  0.11924410293E+03  0.94217763623E+03  0.88270281795E+03 0.  0.
         23    2    4    4    0    0  0.82881128705E+02 -0.15488738024E+03 -0.29355243210E+03  0.35446311097E+03  0.92799162667E+02 0.  0.
         23    2    4    4    0    0  0.11383090165E+03  0.39072557564E+03  0.41279653503E+03  0.58771452526E+03  0.96868128098E+02 0.  0.
          2    1    3    3  502    0 -0.18290847905E+03 -0.18314620828E+03  0.85270445255E+03  0.89112453041E+03  0.00000000000E+00 0. -1.
         -1    1    3    3    0  502 -0.13803551309E+02 -0.52691987118E+02  0.28863174805E+03  0.29372652165E+03  0.00000000000E+00 0.  1.
         13    1    5    5    0    0  0.13876737661E+02 -0.88144834317E+02 -0.20615864922E+03  0.22464074500E+03  0.00000000000E+00 0. -1.
        -13    1    5    5    0    0  0.69004391044E+02 -0.66742545923E+02 -0.87393782877E+02  0.12982236597E+03  0.00000000000E+00 0.  1.
          2    1    6    6  503    0  0.11244118509E+03  0.22655870555E+03  0.27214697289E+03  0.37153175103E+03  0.00000000000E+00 0. -1.
         -2    1    6    6    0  503  0.13897165579E+01  0.16416687009E+03  0.14064956214E+03  0.21618277423E+03  0.00000000000E+00 0.  1.
<mgrwt>
<rscale>  0 0.17132391E+04</rscale>
<asrwt>0</asrwt>
<pdfrwt beam="1">  1        2 0.26058530E+00 0.17132391E+04</pdfrwt>
<pdfrwt beam="2">  1       -1 0.66649877E-01 0.17132391E+04</pdfrwt>
<totfact> 0.24413596E+01</totfact>
</mgrwt>
</event>
<event>
12    7  0.1611233E-007  0.1970351E+04  0.7818608E-02  0.8620609E-01
         -1   -1    0    0    0  501 -0.00000000000E+00  0.00000000000E+00  0.34869041569E+03  0.34869041569E+03  0.00000000000E+00 0.  1.
          2   -1    0    0  501    0  0.00000000000E+00 -0.00000000000E+00 -0.27834736034E+04  0.27834736034E+04  0.00000000000E+00 0. -1.
         24    2    1    2    0    0 -0.27841787522E+03  0.19110766968E+03  0.14747938075E+03  0.37773127656E+03  0.83018641821E+02 0.  0.
        254    2    1    2    0    0  0.27841787522E+03 -0.19110766968E+03 -0.25822625684E+04  0.27544327425E+04  0.89709592912E+03 0.  0.
         23    2    4    4    0    0  0.20009607501E+03  0.33966543981E+03 -0.12931514889E+04  0.13549407945E+04  0.90624130252E+02 0.  0.
         23    2    4    4    0    0  0.78321800211E+02 -0.53077310949E+03 -0.12891110795E+04  0.13994919480E+04  0.94424250985E+02 0.  0.
          2    1    3    3  502    0 -0.29257314098E+02 -0.30061716392E+01  0.26228219218E+02  0.39407448274E+02  0.00000000000E+00 0. -1.
         -1    1    3    3    0  502 -0.24916056112E+03  0.19411384132E+03  0.12125116153E+03  0.33832382828E+03  0.00000000000E+00 0.  1.
         13    1    5    5    0    0  0.19948881938E+03  0.27567767081E+03 -0.10713336271E+04  0.11240772695E+04  0.00000000000E+00 0. -1.
        -13    1    5    5    0    0  0.60725563067E+00  0.63987768992E+02 -0.22181786181E+03  0.23086352497E+03  0.00000000000E+00 0.  1.
          4    1    6    6  503    0  0.51234454568E+02 -0.20095817740E+03 -0.60471711360E+03  0.63929018910E+03  0.00000000000E+00 0.  1.
         -4    1    6    6    0  503  0.27087345643E+02 -0.32981493209E+03 -0.68439396588E+03  0.76020175891E+03  0.00000000000E+00 0. -1.
<mgrwt>
<rscale>  0 0.19703508E+04</rscale>
<asrwt>0</asrwt>
<pdfrwt beam="1">  1        2 0.42822671E+00 0.19703508E+04</pdfrwt>
<pdfrwt beam="2">  1       -1 0.53644679E-01 0.19703508E+04</pdfrwt>
<totfact> 0.88100577E+00</totfact>
</mgrwt>
</event>
<event>
12    7  0.1611233E-007  0.3795493E+04  0.7818608E-02  0.8047123E-01
         -1   -1    0    0    0  501 -0.00000000000E+00  0.00000000000E+00  0.30066302687E+04  0.30066302687E+04  0.00000000000E+00 0.  1.
          2   -1    0    0  501    0  0.00000000000E+00 -0.00000000000E+00 -0.11978329679E+04  0.11978329679E+04  0.00000000000E+00 0. -1.
         24    2    1    2    0    0 -0.17698100021E+04  0.23700828100E+03  0.90995059081E+03  0.20057148187E+04  0.80507686613E+02 0.  0.
        254    2    1    2    0    0  0.17698100021E+04 -0.23700828100E+03  0.89884671001E+03  0.21987484179E+04  0.91551560798E+03 0.  0.
         23    2    4    4    0    0  0.78112945215E+03 -0.54572258264E+03  0.32498152033E+03  0.10111163051E+04  0.93631381860E+02 0.  0.
         23    2    4    4    0    0  0.98868054995E+03  0.30871430164E+03  0.57386518968E+03  0.11876321128E+04  0.91405850988E+02 0.  0.
          2    1    3    3  502    0 -0.21324068160E+03  0.46888737361E+02  0.13302233341E+03  0.25566596013E+03  0.00000000000E+00 0. -1.
         -3    1    3    3    0  502 -0.15565693205E+04  0.19011954364E+03  0.77692825740E+03  0.17500488586E+04  0.00000000000E+00 0.  1.
         13    1    5    5    0    0  0.62779830284E+03 -0.47585949676E+03  0.24811217107E+03  0.82591320315E+03  0.00000000000E+00 0.  1.
        -13    1    5    5    0    0  0.15333114931E+03 -0.69863085888E+02  0.76869349263E+02  0.18520310196E+03  0.00000000000E+00 0. -1.
          1    1    6    6  503    0  0.41741034467E+03  0.14764901612E+03  0.19738556532E+03  0.48476044516E+03  0.00000000000E+00 0. -1.
         -1    1    6    6    0  503  0.57127020528E+03  0.16106528552E+03  0.37647962436E+03  0.70287166766E+03  0.00000000000E+00 0.  1.
<mgrwt>
<rscale>  0 0.37954925E+04</rscale>
<asrwt>0</asrwt>
<pdfrwt beam="1">  1        2 0.18428200E+00 0.37954925E+04</pdfrwt>
<pdfrwt beam="2">  1       -1 0.46255850E+00 0.37954925E+04</pdfrwt>
<totfact> 0.46040627E-02</totfact>
</mgrwt>
</event>
<event>
12    7  0.1611233E-007  0.1551774E+04  0.7818608E-02  0.8850736E-01
          2   -1    0    0  501    0  0.00000000000E+00  0.00000000000E+00  0.36004109613E+04  0.36004109613E+04  0.00000000000E+00 0. -1.
         -3   -1    0    0    0  501 -0.00000000000E+00 -0.00000000000E+00 -0.16720326553E+03  0.16720326553E+03  0.00000000000E+00 0.  1.
         24    2    1    2    0    0 -0.22758767665E+02 -0.47374825220E+03  0.67385828511E+03  0.82786632406E+03  0.79512855208E+02 0.  0.
        254    2    1    2    0    0  0.22758767665E+02  0.47374825220E+03  0.27593494107E+04  0.29397479028E+04  0.89618814639E+03 0.  0.
         23    2    4    4    0    0  0.24905673142E+02  0.72815486665E+03  0.18010054678E+04  0.19450143252E+04  0.92899019101E+02 0.  0.
         23    2    4    4    0    0 -0.21469054772E+01 -0.25440661446E+03  0.95834394287E+03  0.99473357758E+03  0.79652011027E+02 0.  0.
          4    1    3    3  502    0 -0.12936285925E+01 -0.42952104959E+02  0.28241647725E+02  0.51421274407E+02  0.00000000000E+00 0. -1.
         -3    1    3    3    0  502 -0.21465139073E+02 -0.43079614724E+03  0.64561663738E+03  0.77644504966E+03  0.00000000000E+00 0.  1.
         13    1    5    5    0    0  0.34947835635E+02  0.71694437637E+03  0.17413349028E+04  0.18834749358E+04  0.00000000000E+00 0.  1.
        -13    1    5    5    0    0 -0.10042162493E+02  0.11210490281E+02  0.59670565074E+02  0.61539389468E+02  0.00000000000E+00 0. -1.
          3    1    6    6  503    0 -0.12698992934E+02 -0.40057755861E+02  0.28321807719E+03  0.28631864674E+03  0.00000000000E+00 0. -1.
         -3    1    6    6    0  503  0.10552087456E+02 -0.21434885859E+03  0.67512586568E+03  0.70841493084E+03  0.00000000000E+00 0.  1.
<mgrwt>
<rscale>  0 0.15517738E+04</rscale>
<asrwt>0</asrwt>
<pdfrwt beam="1">  1        2 0.55390932E+00 0.15517738E+04</pdfrwt>
<pdfrwt beam="2">  1       -3 0.25723582E-01 0.15517738E+04</pdfrwt>
<totfact> 0.63649282E+00</totfact>
</mgrwt>
</event>
<event>
12    7  0.1611233E-007  0.2315218E+04  0.7818608E-02  0.8471945E-01
          2   -1    0    0  501    0  0.00000000000E+00  0.00000000000E+00  0.17708548712E+04  0.17708548712E+04  0.00000000000E+00 0. -1.
         -1   -1    0    0    0  501 -0.00000000000E+00 -0.00000000000E+00 -0.75672961339E+03  0.75672961339E+03  0.00000000000E+00 0.  1.
         24    2    1    2    0    0  0.22329425044E+03 -0.33748331237E+03 -0.54306888645E+03  0.68199062623E+03  0.80200314390E+02 0.  0.
        254    2    1    2    0    0 -0.22329425044E+03  0.33748331237E+03  0.15571941442E+04  0.18455938583E+04  0.90421666578E+03 0.  0.
         23    2    4    4    0    0  0.98789642601E+02  0.48560350743E+03  0.13123506983E+04  0.14056071803E+04  0.88865235772E+02 0.  0.
         23    2    4    4    0    0 -0.32208389305E+03 -0.14812019506E+03  0.24484344593E+03  0.43998667801E+03  0.89231930749E+02 0.  0.
          2    1    3    3  502    0  0.73679977761E+02 -0.15033602273E+03 -0.16993990769E+03  0.23855655740E+03  0.00000000000E+00 0. -1.
         -1    1    3    3    0  502  0.14961427268E+03 -0.18714728964E+03 -0.37312897875E+03  0.44343406883E+03  0.00000000000E+00 0.  1.
         13    1    5    5    0    0  0.75590768914E+02  0.24752999862E+03  0.57850979999E+03  0.63376545603E+03  0.00000000000E+00 0.  1.
        -13    1    5    5    0    0  0.23198873687E+02  0.23807350881E+03  0.73384089832E+03  0.77184172431E+03  0.00000000000E+00 0. -1.
          1    1    6    6  503    0 -0.30087654811E+03 -0.14489382666E+03  0.19742087675E+03  0.38793803730E+03  0.00000000000E+00 0. -1.
         -1    1    6    6    0  503 -0.21207344939E+02 -0.32263683961E+01  0.47422569172E+02  0.52048640705E+02  0.00000000000E+00 0.  1.
<mgrwt>
<rscale>  0 0.23152178E+04</rscale>
<asrwt>0</asrwt>
<pdfrwt beam="1">  1        2 0.27243921E+00 0.23152178E+04</pdfrwt>
<pdfrwt beam="2">  1       -1 0.11641994E+00 0.23152178E+04</pdfrwt>
<totfact> 0.61530937E+00</totfact>
</mgrwt>
</event>
<event>
12    7  0.1611233E-007  0.1881978E+04  0.7818608E-02  0.8663879E-01
          2   -1    0    0  501    0  0.00000000000E+00  0.00000000000E+00  0.30611711956E+04  0.30611711956E+04  0.00000000000E+00 0. -1.
         -1   -1    0    0    0  501 -0.00000000000E+00 -0.00000000000E+00 -0.28925547866E+03  0.28925547866E+03  0.00000000000E+00 0.  1.
         24    2    1    2    0    0 -0.63029049346E+03  0.32617751802E+03  0.96663745629E+03  0.12020512885E+04  0.82954499137E+02 0.  0.
        254    2    1    2    0    0  0.63029049346E+03 -0.32617751802E+03  0.18052782606E+04  0.21483753857E+04  0.92348758536E+03 0.  0.
         23    2    4    4    0    0  0.35273164166E+02 -0.20191190719E+03  0.13863384293E+04  0.14043344266E+04  0.90599816912E+02 0.  0.
         23    2    4    4    0    0  0.59501732929E+03 -0.12426561082E+03  0.41893983133E+03  0.74404095912E+03  0.92729727629E+02 0.  0.
          2    1    3    3  502    0 -0.11733402025E+03  0.72980908105E+02  0.24391067038E+03  0.28033176841E+03  0.00000000000E+00 0. -1.
         -1    1    3    3    0  502 -0.51295647321E+03  0.25319660991E+03  0.72272678591E+03  0.92171952011E+03  0.00000000000E+00 0.  1.
         13    1    5    5    0    0  0.57758980672E+02 -0.19012495724E+03  0.12329106036E+04  0.12488203056E+04  0.00000000000E+00 0.  1.
        -13    1    5    5    0    0 -0.22485816507E+02 -0.11786949952E+02  0.15342782573E+03  0.15551412104E+03  0.00000000000E+00 0. -1.
          3    1    6    6  503    0  0.23061039941E+03 -0.66151575222E+02  0.21645651198E+03  0.32312630472E+03  0.00000000000E+00 0. -1.
         -3    1    6    6    0  503  0.36440692988E+03 -0.58114035602E+02  0.20248331935E+03  0.42091465440E+03  0.00000000000E+00 0.  1.
<mgrwt>
<rscale>  0 0.18819783E+04</rscale>
<asrwt>0</asrwt>
<pdfrwt beam="1">  1        2 0.47094939E+00 0.18819783E+04</pdfrwt>
<pdfrwt beam="2">  1       -1 0.44500845E-01 0.18819783E+04</pdfrwt>
<totfact> 0.85360805E+00</totfact>
</mgrwt>
</event>
<event>
12    7  0.1611233E-007  0.1368402E+04  0.7818608E-02  0.8977014E-01
          2   -1    0    0  501    0  0.00000000000E+00  0.00000000000E+00  0.99588084098E+03  0.99588084098E+03  0.00000000000E+00 0. -1.
         -1   -1    0    0    0  501 -0.00000000000E+00 -0.00000000000E+00 -0.47006714424E+03  0.47006714424E+03  0.00000000000E+00 0.  1.
         24    2    1    2    0    0  0.24062293305E+03  0.27821412548E+03  0.22986714911E+03  0.43958321312E+03  0.71358247545E+02 0.  0.
        254    2    1    2    0    0 -0.24062293305E+03 -0.27821412548E+03  0.29594654763E+03  0.10263647721E+04  0.91133846119E+03 0.  0.
         23    2    4    4    0    0 -0.23218250915E+03 -0.21748071889E+03 -0.28513604798E+03  0.43501804994E+03  0.82046067963E+02 0.  0.
         23    2    4    4    0    0 -0.84404238943E+01 -0.60733406586E+02  0.58108259561E+03  0.59134672217E+03  0.90962494861E+02 0.  0.
          2    1    3    3  502    0  0.12573288689E+03  0.11188598561E+03  0.13748805738E+03  0.21732509874E+03  0.00000000000E+00 0. -1.
         -1    1    3    3    0  502  0.11489004616E+03  0.16632813986E+03  0.92379091731E+02  0.22225811438E+03  0.00000000000E+00 0.  1.
         13    1    5    5    0    0 -0.29110743348E+02 -0.31508580976E+01 -0.48429593635E+02  0.56593187087E+02  0.00000000000E+00 0.  1.
        -13    1    5    5    0    0 -0.20307176581E+03 -0.21432986080E+03 -0.23670645434E+03  0.37842486285E+03  0.00000000000E+00 0. -1.
          3    1    6    6  503    0  0.24656682550E+01 -0.21868238012E+02  0.50269157799E+03  0.50317305366E+03  0.00000000000E+00 0. -1.
         -3    1    6    6    0  503 -0.10906092149E+02 -0.38865168574E+02  0.78391017621E+02  0.88173668507E+02  0.00000000000E+00 0.  1.
<mgrwt>
<rscale>  0 0.13684018E+04</rscale>
<asrwt>0</asrwt>
<pdfrwt beam="1">  1        2 0.15321244E+00 0.13684018E+04</pdfrwt>
<pdfrwt beam="2">  1       -1 0.72318022E-01 0.13684018E+04</pdfrwt>
<totfact> 0.54416580E+01</totfact>
</mgrwt>
</event>
<event>
12    7  0.1691959E-007  0.1891884E+04  0.7818608E-02  0.8658907E-01
         -1   -1    0    0    0  501 -0.00000000000E+00  0.00000000000E+00  0.43928734547E+03  0.43928734547E+03  0.00000000000E+00 0.  1.
          2   -1    0    0  501    0  0.00000000000E+00 -0.00000000000E+00 -0.20369487495E+04  0.20369487495E+04  0.00000000000E+00 0. -1.
         24    2    1    2    0    0 -0.11237148255E+03 -0.91216450477E+02  0.31242529921E+03  0.35630562805E+03  0.91631556083E+02 0.  0.
        254    2    1    2    0    0  0.11237148255E+03  0.91216450477E+02 -0.19100867032E+04  0.21199304669E+04  0.90814436064E+03 0.  0.
         23    2    4    4    0    0 -0.34497145440E+03  0.19390753755E+03 -0.59125283084E+03  0.71764307087E+03  0.93948016050E+02 0.  0.
         23    2    4    4    0    0  0.45734293694E+03 -0.10269108708E+03 -0.13188338724E+04  0.14022873960E+04  0.85901902249E+02 0.  0.
          2    1    3    3  502    0 -0.26092952142E+02 -0.95775157679E+01  0.70975380949E+01  0.28687035517E+02  0.00000000000E+00 0. -1.
         -1    1    3    3    0  502 -0.86278530404E+02 -0.81638934709E+02  0.30532776111E+03  0.32761859254E+03  0.00000000000E+00 0.  1.
         13    1    5    5    0    0 -0.18536359691E+03  0.10261535437E+03 -0.23277839581E+03  0.31476237953E+03  0.00000000000E+00 0.  1.
        -13    1    5    5    0    0 -0.15960785748E+03  0.91292183187E+02 -0.35847443503E+03  0.40288069134E+03  0.00000000000E+00 0. -1.
          4    1    6    6  503    0  0.10918318570E+03 -0.32811819009E+02 -0.22463876801E+03  0.25191300006E+03  0.00000000000E+00 0. -1.
         -4    1    6    6    0  503  0.34815975124E+03 -0.69879268067E+02 -0.10941951044E+04  0.11503743960E+04  0.00000000000E+00 0.  1.
<mgrwt>
<rscale>  0 0.18918835E+04</rscale>
<asrwt>0</asrwt>
<pdfrwt beam="1">  1        2 0.31337673E+00 0.18918835E+04</pdfrwt>
<pdfrwt beam="2">  1       -1 0.67582669E-01 0.18918835E+04</pdfrwt>
<totfact> 0.15076691E+01</totfact>
</mgrwt>
</event>
<event>
12    7  0.1611233E-007  0.1483144E+04  0.7818608E-02  0.8895740E-01
         -1   -1    0    0    0  501 -0.00000000000E+00  0.00000000000E+00  0.33482033343E+03  0.33482033343E+03  0.00000000000E+00 0.  1.
          2   -1    0    0  501    0  0.00000000000E+00 -0.00000000000E+00 -0.16424604228E+04  0.16424604228E+04  0.00000000000E+00 0. -1.
         24    2    1    2    0    0  0.31567299168E+03  0.28034119598E+03 -0.10660681295E+03  0.44364619433E+03  0.84948863071E+02 0.  0.
        254    2    1    2    0    0 -0.31567299168E+03 -0.28034119598E+03 -0.12010332764E+04  0.15336345619E+04  0.85516864685E+03 0.  0.
         23    2    4    4    0    0  0.15652633792E+03 -0.39634383042E+03 -0.73151081180E+03  0.85153326318E+03  0.91716433376E+02 0.  0.
         23    2    4    4    0    0 -0.47219932960E+03  0.11600263444E+03 -0.46952246461E+03  0.68210129872E+03  0.91553366201E+02 0.  0.
          4    1    3    3  502    0  0.11498063426E+03  0.11897744838E+03 -0.82830420452E+02  0.18503258640E+03  0.00000000000E+00 0. -1.
         -3    1    3    3    0  502  0.20069235743E+03  0.16136374760E+03 -0.23776392502E+02  0.25861360794E+03  0.00000000000E+00 0.  1.
         13    1    5    5    0    0  0.13418418282E+03 -0.35477396904E+03 -0.69536705152E+03  0.79208919976E+03  0.00000000000E+00 0. -1.
        -13    1    5    5    0    0  0.22342155100E+02 -0.41569861379E+02 -0.36143760278E+02  0.59444063426E+02  0.00000000000E+00 0.  1.
          4    1    6    6  503    0 -0.38404699714E+03  0.91550742667E+02 -0.42592450419E+03  0.58076270349E+03  0.00000000000E+00 0. -1.
         -4    1    6    6    0  503 -0.88152332459E+02  0.24451891773E+02 -0.43597960421E+02  0.10133859522E+03  0.00000000000E+00 0.  1.
<mgrwt>
<rscale>  0 0.14831442E+04</rscale>
<asrwt>0</asrwt>
<pdfrwt beam="1">  1        2 0.25268621E+00 0.14831442E+04</pdfrwt>
<pdfrwt beam="2">  1       -1 0.51510821E-01 0.14831442E+04</pdfrwt>
<totfact> 0.44123558E+01</totfact>
</mgrwt>
</event>
<event>
12    7  0.1611233E-007  0.1653055E+04  0.7818608E-02  0.8788601E-01
         -1   -1    0    0    0  501 -0.00000000000E+00  0.00000000000E+00  0.38955772130E+03  0.38955772130E+03  0.00000000000E+00 0.  1.
          2   -1    0    0  501    0  0.00000000000E+00 -0.00000000000E+00 -0.17536500159E+04  0.17536500159E+04  0.00000000000E+00 0. -1.
         24    2    1    2    0    0  0.34603035676E+03  0.36456005204E+03 -0.84421332868E+03  0.98574274775E+03  0.79696807162E+02 0.  0.
        254    2    1    2    0    0 -0.34603035676E+03 -0.36456005204E+03 -0.51987896595E+03  0.11574649895E+04  0.90377542748E+03 0.  0.
         23    2    4    4    0    0 -0.76306670767E+02 -0.59305634715E+03 -0.51056052880E+03  0.79158692672E+03  0.91647531814E+02 0.  0.
         23    2    4    4    0    0 -0.26972368599E+03  0.22849629511E+03 -0.93184371520E+01  0.36587806277E+03  0.93906868130E+02 0.  0.
          4    1    3    3  502    0  0.34132921455E+03  0.35050055693E+03 -0.83641418498E+03  0.96899172440E+03  0.00000000000E+00 0. -1.
         -3    1    3    3    0  502  0.47011422028E+01  0.14059495112E+02 -0.77991437039E+01  0.16751023352E+02  0.00000000000E+00 0.  1.
         13    1    5    5    0    0 -0.83642327496E+02 -0.29216441139E+03 -0.26134849957E+03  0.40082305380E+03  0.00000000000E+00 0.  1.
        -13    1    5    5    0    0  0.73356567289E+01 -0.30089193576E+03 -0.24921202923E+03  0.39076387292E+03  0.00000000000E+00 0. -1.
          2    1    6    6  503    0 -0.16294456665E+03  0.10272382229E+03 -0.43300137002E+02  0.19742851195E+03  0.00000000000E+00 0. -1.
         -2    1    6    6    0  503 -0.10677911934E+03  0.12577247282E+03  0.33981699850E+02  0.16844955082E+03  0.00000000000E+00 0.  1.
<mgrwt>
<rscale>  0 0.16530552E+04</rscale>
<asrwt>0</asrwt>
<pdfrwt beam="1">  1        2 0.26979231E+00 0.16530552E+04</pdfrwt>
<pdfrwt beam="2">  1       -1 0.59931957E-01 0.16530552E+04</pdfrwt>
<totfact> 0.28116798E+01</totfact>
</mgrwt>
</event>
<event>
12    7  0.1611233E-007  0.1345198E+04  0.7818608E-02  0.8994471E-01
         -1   -1    0    0    0  501 -0.00000000000E+00  0.00000000000E+00  0.36953665645E+03  0.36953665645E+03  0.00000000000E+00 0.  1.
          2   -1    0    0  501    0  0.00000000000E+00 -0.00000000000E+00 -0.12242075832E+04  0.12242075832E+04  0.00000000000E+00 0. -1.
         24    2    1    2    0    0  0.10806386527E+03  0.19459683924E+03  0.10443466894E+03  0.25827423772E+03  0.79077512456E+02 0.  0.
        254    2    1    2    0    0 -0.10806386527E+03 -0.19459683924E+03 -0.95910559569E+03  0.13354700019E+04  0.90224766752E+03 0.  0.
         23    2    4    4    0    0  0.22093042470E+03 -0.41723539150E+02 -0.92801715491E+03  0.95984285124E+03  0.97628648407E+02 0.  0.
         23    2    4    4    0    0 -0.32899428997E+03 -0.15287330009E+03 -0.31088440777E+02  0.37562715069E+03  0.92313468538E+02 0.  0.
          4    1    3    3  502    0  0.92338749878E+02  0.97124614229E+02  0.38089673032E+02  0.13932142193E+03  0.00000000000E+00 0. -1.
         -3    1    3    3    0  502  0.15725115394E+02  0.97472225006E+02  0.66344995904E+02  0.11895281579E+03  0.00000000000E+00 0.  1.
         13    1    5    5    0    0  0.13512967192E+03  0.18921791111E+02 -0.44126460787E+03  0.46187933117E+03  0.00000000000E+00 0.  1.
        -13    1    5    5    0    0  0.85800752779E+02 -0.60645330261E+02 -0.48675254705E+03  0.49796352007E+03  0.00000000000E+00 0. -1.
          1    1    6    6  503    0 -0.24068569024E+01  0.81544473423E+01 -0.64396855064E+01  0.10665717089E+02  0.00000000000E+00 0. -1.
         -1    1    6    6    0  503 -0.32658743307E+03 -0.16102774743E+03 -0.24648755271E+02  0.36496143360E+03  0.00000000000E+00 0.  1.
<mgrwt>
<rscale>  0 0.13451982E+04</rscale>
<asrwt>0</asrwt>
<pdfrwt beam="1">  1        2 0.18833963E+00 0.13451982E+04</pdfrwt>
<pdfrwt beam="2">  1       -1 0.56851793E-01 0.13451982E+04</pdfrwt>
<totfact> 0.63920293E+01</totfact>
</mgrwt>
</event>
<event>
12    7  0.1611233E-007  0.1632860E+04  0.7818608E-02  0.8800611E-01
         -1   -1    0    0    0  501 -0.00000000000E+00  0.00000000000E+00  0.25991953812E+03  0.25991953812E+03  0.00000000000E+00 0.  1.
          2   -1    0    0  501    0  0.00000000000E+00 -0.00000000000E+00 -0.25644781165E+04  0.25644781165E+04  0.00000000000E+00 0. -1.
         24    2    1    2    0    0 -0.42598403578E+03  0.26464471080E+03 -0.12688145821E+04  0.13667612539E+04  0.81527048525E+02 0.  0.
        254    2    1    2    0    0  0.42598403578E+03 -0.26464471080E+03 -0.10357439962E+04  0.14576364007E+04  0.89467258213E+03 0.  0.
         23    2    4    4    0    0  0.34906253951E+03  0.20329390803E+03 -0.13308653333E+03  0.43415915183E+03  0.87230007630E+02 0.  0.
         23    2    4    4    0    0  0.76921496266E+02 -0.46793861883E+03 -0.90265746291E+03  0.10234772489E+04  0.88496983133E+02 0.  0.
          2    1    3    3  502    0 -0.32564021029E+03  0.16845957652E+03 -0.85735766825E+03  0.93246037276E+03  0.00000000000E+00 0. -1.
         -1    1    3    3    0  502 -0.10034382549E+03  0.96185134282E+02 -0.41145691388E+03  0.43430088114E+03  0.00000000000E+00 0.  1.
         13    1    5    5    0    0  0.49296065282E+02  0.34995251403E+02  0.10925968316E+02  0.61434082208E+02  0.00000000000E+00 0.  1.
        -13    1    5    5    0    0  0.29976647423E+03  0.16829865663E+03 -0.14401250164E+03  0.37272506962E+03  0.00000000000E+00 0. -1.
          3    1    6    6  503    0 -0.53456393309E+01 -0.82867729957E+01 -0.53462376925E+02  0.54364254920E+02  0.00000000000E+00 0. -1.
         -3    1    6    6    0  503  0.82267135597E+02 -0.45965184584E+03 -0.84919508598E+03  0.96911299395E+03  0.00000000000E+00 0.  1.
<mgrwt>
<rscale>  0 0.16328600E+04</rscale>
<asrwt>0</asrwt>
<pdfrwt beam="1">  1        2 0.39453511E+00 0.16328600E+04</pdfrwt>
<pdfrwt beam="2">  1       -1 0.39987620E-01 0.16328600E+04</pdfrwt>
<totfact> 0.21243520E+01</totfact>
</mgrwt>
</event>
<event>
12    7  0.1611233E-007  0.2922840E+04  0.7818608E-02  0.8266114E-01
          2   -1    0    0  501    0  0.00000000000E+00  0.00000000000E+00  0.19056896871E+04  0.19056896871E+04  0.00000000000E+00 0. -1.
         -1   -1    0    0    0  501 -0.00000000000E+00 -0.00000000000E+00 -0.11207223079E+04  0.11207223079E+04  0.00000000000E+00 0.  1.
         24    2    1    2    0    0  0.42971784540E+03  0.35895871114E+03  0.15975474402E+04  0.16947660267E+04  0.81026407259E+02 0.  0.
        254    2    1    2    0    0 -0.42971784540E+03 -0.35895871114E+03 -0.81258006103E+03  0.13316459683E+04  0.89413972415E+03 0.  0.
         23    2    4    4    0    0 -0.26868667205E+03  0.19083727011E+03 -0.10356347330E+02  0.34198855842E+03  0.90760832732E+02 0.  0.
         23    2    4    4    0    0 -0.16103117335E+03 -0.54979598126E+03 -0.80222371370E+03  0.98965740986E+03  0.87477095741E+02 0.  0.
          2    1    3    3  502    0  0.41475681382E+03  0.34244098178E+03  0.14704736900E+04  0.15657528265E+04  0.00000000000E+00 0. -1.
         -1    1    3    3    0  502  0.14961031580E+02  0.16517729366E+02  0.12707375019E+03  0.12901320024E+03  0.00000000000E+00 0.  1.
         13    1    5    5    0    0 -0.73286495647E+02  0.27323950185E+02 -0.35631268878E+02  0.85948217083E+02  0.00000000000E+00 0.  1.
        -13    1    5    5    0    0 -0.19540017641E+03  0.16351331993E+03  0.25274921548E+02  0.25604034134E+03  0.00000000000E+00 0. -1.
          4    1    6    6  503    0 -0.74946046703E+02 -0.28716972525E+03 -0.48820389239E+03  0.57133737980E+03  0.00000000000E+00 0. -1.
         -4    1    6    6    0  503 -0.86085126645E+02 -0.26262625601E+03 -0.31401982131E+03  0.41832003006E+03  0.00000000000E+00 0.  1.
<mgrwt>
<rscale>  0 0.29228404E+04</rscale>
<asrwt>0</asrwt>
<pdfrwt beam="1">  1        2 0.29318303E+00 0.29228404E+04</pdfrwt>
<pdfrwt beam="2">  1       -1 0.17241882E+00 0.29228404E+04</pdfrwt>
<totfact> 0.17453418E+00</totfact>
</mgrwt>
</event>
<event>
12    7  0.1611233E-007  0.1969998E+04  0.7818608E-02  0.8620778E-01
         -1   -1    0    0    0  501 -0.00000000000E+00  0.00000000000E+00  0.16796016782E+04  0.16796016782E+04  0.00000000000E+00 0.  1.
          2   -1    0    0  501    0  0.00000000000E+00 -0.00000000000E+00 -0.57765042630E+03  0.57765042630E+03  0.00000000000E+00 0. -1.
         24    2    1    2    0    0 -0.30915985873E+03 -0.66674618903E+03  0.75257767214E+03  0.10548921072E+04  0.79334144430E+02 0.  0.
        254    2    1    2    0    0  0.30915985873E+03  0.66674618903E+03  0.34937357972E+03  0.12023599972E+04  0.88514256812E+03 0.  0.
         23    2    4    4    0    0 -0.51686396909E+02  0.36678091196E+03  0.56193627020E+03  0.67927639317E+03  0.91893011385E+02 0.  0.
         23    2    4    4    0    0  0.36084625564E+03  0.29996527706E+03 -0.21256269049E+03  0.52308360406E+03  0.90798523076E+02 0.  0.
          4    1    3    3  502    0  0.44511435366E+01 -0.39390742799E+01  0.63947802710E+01  0.87305326115E+01  0.00000000000E+00 0. -1.
         -3    1    3    3    0  502 -0.31361100227E+03 -0.66280711475E+03  0.74618289187E+03  0.10461615746E+04  0.00000000000E+00 0.  1.
         13    1    5    5    0    0  0.99569300634E+01  0.85739398686E+02  0.78369205253E+02  0.11658523610E+03  0.00000000000E+00 0. -1.
        -13    1    5    5    0    0 -0.61643326972E+02  0.28104151328E+03  0.48356706495E+03  0.56269115707E+03  0.00000000000E+00 0.  1.
          1    1    6    6  503    0  0.10804255002E+03  0.13520993927E+03 -0.10659149100E+03  0.20326501481E+03  0.00000000000E+00 0. -1.
         -1    1    6    6    0  503  0.25280370562E+03  0.16475533779E+03 -0.10597119948E+03  0.31981858925E+03  0.00000000000E+00 0.  1.
<mgrwt>
<rscale>  0 0.19699976E+04</rscale>
<asrwt>0</asrwt>
<pdfrwt beam="1">  1        2 0.88869297E-01 0.19699976E+04</pdfrwt>
<pdfrwt beam="2">  1       -1 0.25840026E+00 0.19699976E+04</pdfrwt>
<totfact> 0.33942637E+00</totfact>
</mgrwt>
</event>
<event>
12    7  0.1611233E-007  0.1606421E+04  0.7818608E-02  0.8816613E-01
          2   -1    0    0  501    0  0.00000000000E+00  0.00000000000E+00  0.60591001329E+03  0.60591001329E+03  0.00000000000E+00 0. -1.
         -1   -1    0    0    0  501 -0.00000000000E+00 -0.00000000000E+00 -0.10647567594E+04  0.10647567594E+04  0.00000000000E+00 0.  1.
         24    2    1    2    0    0  0.19696054763E+03 -0.13317903869E+02  0.37497994974E+03  0.43144510772E+03  0.81019098862E+02 0.  0.
        254    2    1    2    0    0 -0.19696054763E+03  0.13317903869E+02 -0.83382669585E+03  0.12392216650E+04  0.89522765391E+03 0.  0.
         23    2    4    4    0    0  0.20168817338E+03  0.32060647637E+03 -0.47429233930E+03  0.61435051797E+03  0.94903655569E+02 0.  0.
         23    2    4    4    0    0 -0.39864872101E+03 -0.30728857250E+03 -0.35953435655E+03  0.62487114700E+03  0.88611101213E+02 0.  0.
          4    1    3    3  502    0  0.13920065430E+03 -0.10602044986E+02  0.32958179711E+03  0.35792930378E+03  0.00000000000E+00 0. -1.
         -3    1    3    3    0  502  0.57759893331E+02 -0.27158588830E+01  0.45398152631E+02  0.73515803943E+02  0.00000000000E+00 0.  1.
         13    1    5    5    0    0  0.12813097296E+03  0.17717541965E+03 -0.34151456897E+03  0.40551310260E+03  0.00000000000E+00 0.  1.
        -13    1    5    5    0    0  0.73557200423E+02  0.14343105672E+03 -0.13277777033E+03  0.20883741537E+03  0.00000000000E+00 0. -1.
          2    1    6    6  503    0 -0.34050601334E+03 -0.24607117643E+03 -0.33388508904E+03  0.53663266922E+03  0.00000000000E+00 0. -1.
         -2    1    6    6    0  503 -0.58142707672E+02 -0.61217396074E+02 -0.25649267514E+02  0.88238477783E+02  0.00000000000E+00 0.  1.
<mgrwt>
<rscale>  0 0.16064206E+04</rscale>
<asrwt>0</asrwt>
<pdfrwt beam="1">  1        2 0.93216926E-01 0.16064206E+04</pdfrwt>
<pdfrwt beam="2">  1       -1 0.16380873E+00 0.16064206E+04</pdfrwt>
<totfact> 0.14680133E+01</totfact>
</mgrwt>
</event>
<event>
12    7  0.1611233E-007  0.1854074E+04  0.7818608E-02  0.8678060E-01
          2   -1    0    0  501    0  0.00000000000E+00  0.00000000000E+00  0.11879906741E+04  0.11879906741E+04  0.00000000000E+00 0. -1.
         -1   -1    0    0    0  501 -0.00000000000E+00 -0.00000000000E+00 -0.72340464325E+03  0.72340464325E+03  0.00000000000E+00 0.  1.
         24    2    1    2    0    0  0.59705342012E+03 -0.23192460719E+03 -0.10597092323E+03  0.65391399368E+03  0.78178415583E+02 0.  0.
        254    2    1    2    0    0 -0.59705342012E+03  0.23192460719E+03  0.57055695406E+03  0.12574813236E+04  0.91949020201E+03 0.  0.
         23    2    4    4    0    0 -0.28218019325E+03 -0.28821189930E+03  0.48124475310E+03  0.63460747864E+03  0.91860650996E+02 0.  0.
         23    2    4    4    0    0 -0.31487322686E+03  0.52013650648E+03  0.89312200961E+02  0.62287384501E+03  0.10152843532E+03 0.  0.
          2    1    3    3  502    0  0.11243598360E+03 -0.67559409583E+02  0.73857951732E+00  0.13117419613E+03  0.00000000000E+00 0. -1.
         -1    1    3    3    0  502  0.48461743651E+03 -0.16436519760E+03 -0.10670950275E+03  0.52273979754E+03  0.00000000000E+00 0.  1.
         13    1    5    5    0    0 -0.23051488251E+03 -0.21582127421E+03  0.31477050780E+03  0.44586590589E+03  0.00000000000E+00 0.  1.
        -13    1    5    5    0    0 -0.51665310747E+02 -0.72390625087E+02  0.16647424530E+03  0.18874157275E+03  0.00000000000E+00 0. -1.
          2    1    6    6  503    0  0.10747810445E+01  0.11486441231E+02  0.15837692353E+02  0.19594029333E+02  0.00000000000E+00 0.  1.
         -2    1    6    6    0  503 -0.31594800791E+03  0.50865006525E+03  0.73474508609E+02  0.60327981567E+03  0.00000000000E+00 0. -1.
<mgrwt>
<rscale>  0 0.18540744E+04</rscale>
<asrwt>0</asrwt>
<pdfrwt beam="1">  1        2 0.18276780E+00 0.18540744E+04</pdfrwt>
<pdfrwt beam="2">  1       -1 0.11129302E+00 0.18540744E+04</pdfrwt>
<totfact> 0.15323834E+01</totfact>
</mgrwt>
</event>
<event>
12    7  0.1611233E-007  0.1230308E+04  0.7818608E-02  0.9086734E-01
         -1   -1    0    0    0  501 -0.00000000000E+00  0.00000000000E+00  0.33540611604E+03  0.33540611604E+03  0.00000000000E+00 0.  1.
          2   -1    0    0  501    0  0.00000000000E+00 -0.00000000000E+00 -0.11282268365E+04  0.11282268365E+04  0.00000000000E+00 0. -1.
         24    2    1    2    0    0  0.14462202972E+03 -0.15171691977E+03  0.30992810170E+02  0.22505685034E+03  0.75871446392E+02 0.  0.
        254    2    1    2    0    0 -0.14462202972E+03  0.15171691977E+03 -0.82381353064E+03  0.12385761022E+04  0.90081544861E+03 0.  0.
         23    2    4    4    0    0 -0.33890910377E+03 -0.40622343414E+02  0.11855575121E+02  0.35437467826E+03  0.94505568750E+02 0.  0.
         23    2    4    4    0    0  0.19428707405E+03  0.19233926318E+03 -0.83566910576E+03  0.88420142395E+03  0.93420792582E+02 0.  0.
          4    1    3    3  502    0  0.22731488213E+02 -0.18726864740E+02 -0.22310312536E+02  0.36948153741E+02  0.00000000000E+00 0. -1.
         -1    1    3    3    0  502  0.12189054151E+03 -0.13299005503E+03  0.53303122707E+02  0.18810869660E+03  0.00000000000E+00 0.  1.
         13    1    5    5    0    0 -0.11627293412E+03 -0.51280278182E+02 -0.21868021355E+02  0.12894678165E+03  0.00000000000E+00 0. -1.
        -13    1    5    5    0    0 -0.22263616965E+03  0.10657934768E+02  0.33723596476E+02  0.22542789661E+03  0.00000000000E+00 0.  1.
          1    1    6    6  503    0  0.67277586231E+01  0.33203647407E+02 -0.19529853828E+03  0.19821519617E+03  0.00000000000E+00 0. -1.
         -1    1    6    6    0  503  0.18755931542E+03  0.15913561578E+03 -0.64037056748E+03  0.68598622778E+03  0.00000000000E+00 0.  1.
<mgrwt>
<rscale>  0 0.12303076E+04</rscale>
<asrwt>0</asrwt>
<pdfrwt beam="1">  1        2 0.17357336E+00 0.12303076E+04</pdfrwt>
<pdfrwt beam="2">  1       -1 0.51600942E-01 0.12303076E+04</pdfrwt>
<totfact> 0.88807870E+01</totfact>
</mgrwt>
</event>
<event>
12    7  0.1611233E-007  0.1409118E+04  0.7818608E-02  0.8947245E-01
          2   -1    0    0  501    0  0.00000000000E+00  0.00000000000E+00  0.77615735013E+03  0.77615735013E+03  0.00000000000E+00 0. -1.
         -1   -1    0    0    0  501 -0.00000000000E+00 -0.00000000000E+00 -0.63956554740E+03  0.63956554740E+03  0.00000000000E+00 0.  1.
         24    2    1    2    0    0 -0.31725869219E+03 -0.23523470016E+03 -0.17740292747E+02  0.40324859623E+03  0.79412029568E+02 0.  0.
        254    2    1    2    0    0  0.31725869219E+03  0.23523470016E+03  0.15433209548E+03  0.10124743013E+04  0.91940055099E+03 0.  0.
         23    2    4    4    0    0  0.47896343188E+03 -0.16530652670E+03  0.22850455083E+03  0.56454539055E+03  0.98817768662E+02 0.  0.
         23    2    4    4    0    0 -0.16170473969E+03  0.40054122686E+03 -0.74172455348E+02  0.44792891074E+03  0.92504371232E+02 0.  0.
          2    1    3    3  502    0 -0.14592761312E+03 -0.67692716857E+02  0.14225295761E+02  0.16149158252E+03  0.00000000000E+00 0. -1.
         -1    1    3    3    0  502 -0.17133107907E+03 -0.16754198331E+03 -0.31965588508E+02  0.24175701370E+03  0.00000000000E+00 0.  1.
         13    1    5    5    0    0  0.20032451227E+03 -0.67947153172E+02  0.14939164816E+03  0.25896831926E+03  0.00000000000E+00 0. -1.
        -13    1    5    5    0    0  0.27863891960E+03 -0.97359373523E+02  0.79112902669E+02  0.30557707129E+03  0.00000000000E+00 0.  1.
          2    1    6    6  503    0 -0.56598387319E+01  0.69433697375E+02 -0.39926868655E+02  0.80294625886E+02  0.00000000000E+00 0. -1.
         -2    1    6    6    0  503 -0.15604490095E+03  0.33110752948E+03 -0.34245586694E+02  0.36763428486E+03  0.00000000000E+00 0.  1.
<mgrwt>
<rscale>  0 0.14091182E+04</rscale>
<asrwt>0</asrwt>
<pdfrwt beam="1">  1        2 0.11940882E+00 0.14091182E+04</pdfrwt>
<pdfrwt beam="2">  1       -1 0.98394700E-01 0.14091182E+04</pdfrwt>
<totfact> 0.39399867E+01</totfact>
</mgrwt>
</event>
<event>
12    7  0.1611233E-007  0.1294749E+04  0.7818608E-02  0.9033740E-01
         -1   -1    0    0    0  501 -0.00000000000E+00  0.00000000000E+00  0.32643623741E+03  0.32643623741E+03  0.00000000000E+00 0.  1.
          2   -1    0    0  501    0  0.00000000000E+00 -0.00000000000E+00 -0.12838450713E+04  0.12838450713E+04  0.00000000000E+00 0. -1.
         24    2    1    2    0    0 -0.85993157371E+02 -0.30341839767E+03 -0.15280156147E+03  0.35942239230E+03  0.79866086271E+02 0.  0.
        254    2    1    2    0    0  0.85993157371E+02  0.30341839767E+03 -0.80460727241E+03  0.12508589164E+04  0.90432163459E+03 0.  0.
         23    2    4    4    0    0 -0.25652736759E+03 -0.44962833238E-01 -0.72879222039E+03  0.77797601496E+03  0.91116886487E+02 0.  0.
         23    2    4    4    0    0  0.34252052497E+03  0.30346336050E+03 -0.75815052022E+02  0.47288290146E+03  0.91978232129E+02 0.  0.
          4    1    3    3  502    0 -0.14729307425E+02 -0.14827878501E+03 -0.10449088136E+03  0.18199421658E+03  0.00000000000E+00 0. -1.
         -3    1    3    3    0  502 -0.71263849947E+02 -0.15513961266E+03 -0.48310680117E+02  0.17742817572E+03  0.00000000000E+00 0.  1.
         13    1    5    5    0    0 -0.22984879453E+03  0.12970690667E+02 -0.69893845240E+03  0.73587612232E+03  0.00000000000E+00 0. -1.
        -13    1    5    5    0    0 -0.26678573061E+02 -0.13015653500E+02 -0.29853767993E+02  0.42099892637E+02  0.00000000000E+00 0.  1.
          2    1    6    6  503    0  0.25915673666E+03  0.20460046249E+03 -0.16471378046E+02  0.33059774607E+03  0.00000000000E+00 0. -1.
         -2    1    6    6    0  503  0.83363788306E+02  0.98862898010E+02 -0.59343673976E+02  0.14228515539E+03  0.00000000000E+00 0.  1.
<mgrwt>
<rscale>  0 0.12947487E+04</rscale>
<asrwt>0</asrwt>
<pdfrwt beam="1">  1        2 0.19751463E+00 0.12947487E+04</pdfrwt>
<pdfrwt beam="2">  1       -1 0.50220959E-01 0.12947487E+04</pdfrwt>
<totfact> 0.75142950E+01</totfact>
</mgrwt>
</event>
<event>
12    7  0.1611233E-007  0.2517222E+04  0.7818608E-02  0.8396876E-01
          2   -1    0    0  501    0  0.00000000000E+00  0.00000000000E+00  0.11494502313E+04  0.11494502313E+04  0.00000000000E+00 0. -1.
         -1   -1    0    0    0  501 -0.00000000000E+00 -0.00000000000E+00 -0.13781382102E+04  0.13781382102E+04  0.00000000000E+00 0.  1.
         24    2    1    2    0    0 -0.10277690565E+04 -0.39703309671E+03 -0.19532365001E+03  0.11219444635E+04  0.81630493313E+02 0.  0.
        254    2    1    2    0    0  0.10277690565E+04  0.39703309671E+03 -0.33364328900E+02  0.14056439780E+04  0.87222548742E+03 0.  0.
         23    2    4    4    0    0  0.95319552377E+03  0.57323172142E+03  0.14866489210E+03  0.11263707046E+04  0.97125697069E+02 0.  0.
         23    2    4    4    0    0  0.74573532738E+02 -0.17619862471E+03 -0.18202922100E+03  0.27927327336E+03  0.90839180866E+02 0.  0.
          4    1    3    3  502    0 -0.25678384914E+03 -0.66276770644E+02 -0.30237338277E+02  0.26691731329E+03  0.00000000000E+00 0. -1.
         -3    1    3    3    0  502 -0.77098520737E+03 -0.33075632607E+03 -0.16508631173E+03  0.85502715017E+03  0.00000000000E+00 0.  1.
         13    1    5    5    0    0  0.48791010056E+03  0.24671923616E+03  0.45155850655E+02  0.54860340736E+03  0.00000000000E+00 0.  1.
        -13    1    5    5    0    0  0.46528542321E+03  0.32651248526E+03  0.10350904145E+03  0.57776729723E+03  0.00000000000E+00 0. -1.
          1    1    6    6  503    0  0.87486470758E+02 -0.17289195134E+03 -0.15150659069E+03  0.24596698239E+03  0.00000000000E+00 0. -1.
         -1    1    6    6    0  503 -0.12912938020E+02 -0.33066733716E+01 -0.30522630314E+02  0.33306290973E+02  0.00000000000E+00 0.  1.
<mgrwt>
<rscale>  0 0.25172217E+04</rscale>
<asrwt>0</asrwt>
<pdfrwt beam="1">  1        2 0.17683850E+00 0.25172217E+04</pdfrwt>
<pdfrwt beam="2">  1       -1 0.21202126E+00 0.25172217E+04</pdfrwt>
<totfact> 0.25690382E+00</totfact>
</mgrwt>
</event>
<event>
12    7  0.2002107E-007  0.2062488E+04  0.7818608E-02  0.8577950E-01
         -1   -1    0    0    0  501 -0.00000000000E+00  0.00000000000E+00  0.58290971242E+03  0.58290971242E+03  0.00000000000E+00 0.  1.
          2   -1    0    0  501    0  0.00000000000E+00 -0.00000000000E+00 -0.18244057498E+04  0.18244057498E+04  0.00000000000E+00 0. -1.
         24    2    1    2    0    0  0.14550132171E+03  0.78256289609E+03 -0.79635360680E+03  0.11289952594E+04  0.82921093544E+02 0.  0.
        254    2    1    2    0    0 -0.14550132171E+03 -0.78256289609E+03 -0.44514243056E+03  0.12783202028E+04  0.89575411603E+03 0.  0.
         23    2    4    4    0    0 -0.61385856832E+02 -0.28120506128E+03  0.26380598505E+03  0.40112174221E+03  0.91981217754E+02 0.  0.
         23    2    4    4    0    0 -0.84115464873E+02 -0.50135783481E+03 -0.70894841561E+03  0.87719846057E+03  0.91837864009E+02 0.  0.
          2    1    3    3  502    0  0.13332901063E+03  0.67112154269E+03 -0.64231716349E+03  0.93848393095E+03  0.00000000000E+00 0. -1.
         -1    1    3    3    0  502  0.12172311073E+02  0.11144135341E+03 -0.15403644331E+03  0.19051132846E+03  0.00000000000E+00 0.  1.
         13    1    5    5    0    0 -0.29412989324E+02 -0.26172429785E+03  0.21748561328E+03  0.34156218176E+03  0.00000000000E+00 0. -1.
        -13    1    5    5    0    0 -0.31972867508E+02 -0.19480763434E+02  0.46320371768E+02  0.59559560453E+02  0.00000000000E+00 0.  1.
          1    1    6    6  503    0  0.15355951058E+02 -0.32423590190E+02 -0.34707773558E+02  0.49917171185E+02  0.00000000000E+00 0. -1.
         -1    1    6    6    0  503 -0.99471415931E+02 -0.46893424462E+03 -0.67424064205E+03  0.82728128938E+03  0.00000000000E+00 0.  1.
<mgrwt>
<rscale>  0 0.20624877E+04</rscale>
<asrwt>0</asrwt>
<pdfrwt beam="1">  1        2 0.28067780E+00 0.20624877E+04</pdfrwt>
<pdfrwt beam="2">  1       -1 0.89678420E-01 0.20624877E+04</pdfrwt>
<totfact> 0.10717818E+01</totfact>
</mgrwt>
</event>
<event>
12    7  0.1611233E-007  0.1398461E+04  0.7818608E-02  0.8954933E-01
          2   -1    0    0  501    0  0.00000000000E+00  0.00000000000E+00  0.18772068375E+04  0.18772068375E+04  0.00000000000E+00 0. -1.
         -1   -1    0    0    0  501 -0.00000000000E+00 -0.00000000000E+00 -0.26045269029E+03  0.26045269029E+03  0.00000000000E+00 0.  1.
         24    2    1    2    0    0  0.10336132136E+03  0.20391615085E+03 -0.34235189193E+02  0.24462108334E+03  0.80012917098E+02 0.  0.
        254    2    1    2    0    0 -0.10336132136E+03 -0.20391615085E+03  0.16509893364E+04  0.18930384444E+04  0.89753184007E+03 0.  0.
         23    2    4    4    0    0 -0.44490435845E+03 -0.25133571989E+03  0.65943519452E+03  0.83926102550E+03  0.91622927831E+02 0.  0.
         23    2    4    4    0    0  0.34154303709E+03  0.47419569035E+02  0.99155414185E+03  0.10537774189E+04  0.91471146771E+02 0.  0.
          2    1    3    3  502    0  0.67471117894E+02  0.13576690616E+03  0.16328298102E+02  0.15248481195E+03  0.00000000000E+00 0. -1.
         -1    1    3    3    0  502  0.35890203462E+02  0.68149244696E+02 -0.50563487294E+02  0.92136271384E+02  0.00000000000E+00 0.  1.
         13    1    5    5    0    0 -0.31975173907E+03 -0.13322955309E+03  0.42038919225E+03  0.54471860755E+03  0.00000000000E+00 0. -1.
        -13    1    5    5    0    0 -0.12515261938E+03 -0.11810616679E+03  0.23904600227E+03  0.29454241795E+03  0.00000000000E+00 0.  1.
          4    1    6    6  503    0  0.30147454381E+03  0.15145437854E+02  0.89240885849E+03  0.94207741485E+03  0.00000000000E+00 0. -1.
         -4    1    6    6    0  503  0.40068493279E+02  0.32274131180E+02  0.99145283361E+02  0.11170000407E+03  0.00000000000E+00 0.  1.
<mgrwt>
<rscale>  0 0.13984614E+04</rscale>
<asrwt>0</asrwt>
<pdfrwt beam="1">  1        2 0.28880104E+00 0.13984614E+04</pdfrwt>
<pdfrwt beam="2">  1       -1 0.40069646E-01 0.13984614E+04</pdfrwt>
<totfact> 0.52648376E+01</totfact>
</mgrwt>
</event>
<event>
12    7  0.1611233E-007  0.2782829E+04  0.7818608E-02  0.8308619E-01
          2   -1    0    0  501    0  0.00000000000E+00  0.00000000000E+00  0.17955845854E+04  0.17955845854E+04  0.00000000000E+00 0. -1.
         -1   -1    0    0    0  501 -0.00000000000E+00 -0.00000000000E+00 -0.10782197838E+04  0.10782197838E+04  0.00000000000E+00 0.  1.
         24    2    1    2    0    0  0.95064298821E+03  0.49800053683E+02 -0.50536366588E+03  0.10807774865E+04  0.80532007372E+02 0.  0.
        254    2    1    2    0    0 -0.95064298821E+03 -0.49800053683E+02  0.12227284676E+04  0.17930268827E+04  0.90204121875E+03 0.  0.
         23    2    4    4    0    0  0.79833353597E+02  0.21156888295E+03  0.23606697411E+03  0.33960884084E+03  0.92042337711E+02 0.  0.
         23    2    4    4    0    0 -0.10304763418E+04 -0.26136893663E+03  0.98666149344E+03  0.14534180419E+04  0.93423175349E+02 0.  0.
          4    1    3    3  502    0  0.59605312311E+02  0.65437525436E+00 -0.55331707247E+02  0.81331539328E+02  0.00000000000E+00 0. -1.
         -3    1    3    3    0  502  0.89103767590E+03  0.49145678429E+02 -0.45003195864E+03  0.99944594720E+03  0.00000000000E+00 0.  1.
         13    1    5    5    0    0 -0.92455114108E+01  0.82245255282E+02  0.11315567846E+03  0.14019261416E+03  0.00000000000E+00 0.  1.
        -13    1    5    5    0    0  0.89078865008E+02  0.12932362766E+03  0.12291129565E+03  0.19941622668E+03  0.00000000000E+00 0. -1.
          4    1    6    6  503    0 -0.82527200188E+03 -0.18918008081E+03  0.73940756690E+03  0.11240936483E+04  0.00000000000E+00 0. -1.
         -4    1    6    6    0  503 -0.20520433993E+03 -0.72188855817E+02  0.24725392654E+03  0.32932439360E+03  0.00000000000E+00 0.  1.
<mgrwt>
<rscale>  0 0.27828294E+04</rscale>
<asrwt>0</asrwt>
<pdfrwt beam="1">  1        2 0.27624378E+00 0.27828294E+04</pdfrwt>
<pdfrwt beam="2">  1       -1 0.16587997E+00 0.27828294E+04</pdfrwt>
<totfact> 0.22717016E+00</totfact>
</mgrwt>
</event>
<event>
12    7  0.1611233E-007  0.1360772E+04  0.7818608E-02  0.8982713E-01
          2   -1    0    0  501    0  0.00000000000E+00  0.00000000000E+00  0.80844912486E+03  0.80844912486E+03  0.00000000000E+00 0. -1.
         -1   -1    0    0    0  501 -0.00000000000E+00 -0.00000000000E+00 -0.57260918249E+03  0.57260918249E+03  0.00000000000E+00 0.  1.
         24    2    1    2    0    0  0.14928189480E+03  0.33328224307E+03  0.68279953701E+02  0.38007931590E+03  0.80224663515E+02 0.  0.
        254    2    1    2    0    0 -0.14928189480E+03 -0.33328224307E+03  0.16755998867E+03  0.10009789915E+04  0.91679902589E+03 0.  0.
         23    2    4    4    0    0 -0.17634090863E+03 -0.12010592548E+03  0.52536637353E+03  0.57343720429E+03  0.85433315786E+02 0.  0.
         23    2    4    4    0    0  0.27059013826E+02 -0.21317631759E+03 -0.35780638485E+03  0.42754178716E+03  0.92683537479E+02 0.  0.
          4    1    3    3  502    0  0.76533614147E+02  0.23413274099E+03  0.73308181542E+02  0.25700121396E+03  0.00000000000E+00 0. -1.
         -3    1    3    3    0  502  0.72748280654E+02  0.99149502078E+02 -0.50282278408E+01  0.12307810193E+03  0.00000000000E+00 0.  1.
         13    1    5    5    0    0 -0.12121329529E+03 -0.10531435578E+03  0.29248702675E+03  0.33366515746E+03  0.00000000000E+00 0. -1.
        -13    1    5    5    0    0 -0.55127613336E+02 -0.14791569701E+02  0.23287934678E+03  0.23977204683E+03  0.00000000000E+00 0.  1.
          3    1    6    6  503    0  0.22388645591E+02 -0.17064159951E+02 -0.98192388620E+02  0.10214784476E+03  0.00000000000E+00 0. -1.
         -3    1    6    6    0  503  0.46703682352E+01 -0.19611215764E+03 -0.25961399623E+03  0.32539394240E+03  0.00000000000E+00 0.  1.
<mgrwt>
<rscale>  0 0.13607724E+04</rscale>
<asrwt>0</asrwt>
<pdfrwt beam="1">  1        2 0.12437679E+00 0.13607724E+04</pdfrwt>
<pdfrwt beam="2">  1       -1 0.88093721E-01 0.13607724E+04</pdfrwt>
<totfact> 0.47947242E+01</totfact>
</mgrwt>
</event>
<event>
12    7  0.1611233E-007  0.1782146E+04  0.7818608E-02  0.8715852E-01
          2   -1    0    0  501    0  0.00000000000E+00  0.00000000000E+00  0.11097339868E+04  0.11097339868E+04  0.00000000000E+00 0. -1.
         -1   -1    0    0    0  501 -0.00000000000E+00 -0.00000000000E+00 -0.71549709237E+03  0.71549709237E+03  0.00000000000E+00 0.  1.
         24    2    1    2    0    0 -0.15528692989E+03 -0.51204423600E+03  0.54557294408E+03  0.76831698216E+03  0.79735923780E+02 0.  0.
        254    2    1    2    0    0  0.15528692989E+03  0.51204423600E+03 -0.15133604961E+03  0.10569140971E+04  0.89881114727E+03 0.  0.
         23    2    4    4    0    0  0.13201853159E+00 -0.87097496700E+02  0.27342660350E+03  0.30038562358E+03  0.88788647868E+02 0.  0.
         23    2    4    4    0    0  0.15515491135E+03  0.59914173270E+03 -0.42476265311E+03  0.75652847349E+03  0.94170894347E+02 0.  0.
          4    1    3    3  502    0 -0.12421801936E+03 -0.45640576928E+03  0.50896560259E+03  0.69482539331E+03  0.00000000000E+00 0. -1.
         -3    1    3    3    0  502 -0.31068910530E+02 -0.55638466721E+02  0.36607341494E+02  0.73491588851E+02  0.00000000000E+00 0.  1.
         13    1    5    5    0    0 -0.11353473387E+02 -0.60635260664E+02  0.26231687250E+03  0.26947296301E+03  0.00000000000E+00 0. -1.
        -13    1    5    5    0    0  0.11485491918E+02 -0.26462236037E+02  0.11109731000E+02  0.30912660571E+02  0.00000000000E+00 0.  1.
          3    1    6    6  503    0  0.86163157937E+02  0.19960937495E+03 -0.18518431491E+03  0.28558925548E+03  0.00000000000E+00 0. -1.
         -3    1    6    6    0  503  0.68991753417E+02  0.39953235775E+03 -0.23957833819E+03  0.47093921801E+03  0.00000000000E+00 0.  1.
<mgrwt>
<rscale>  0 0.17821464E+04</rscale>
<asrwt>0</asrwt>
<pdfrwt beam="1">  1        2 0.17072831E+00 0.17821464E+04</pdfrwt>
<pdfrwt beam="2">  1       -1 0.11007648E+00 0.17821464E+04</pdfrwt>
<totfact> 0.17655255E+01</totfact>
</mgrwt>
</event>
<event>
12    7  0.1611233E-007  0.2613230E+04  0.7818608E-02  0.8363721E-01
         -1   -1    0    0    0  501 -0.00000000000E+00  0.00000000000E+00  0.80442698789E+03  0.80442698789E+03  0.00000000000E+00 0.  1.
          2   -1    0    0  501    0  0.00000000000E+00 -0.00000000000E+00 -0.21223098671E+04  0.21223098671E+04  0.00000000000E+00 0. -1.
         24    2    1    2    0    0 -0.55936487080E+03 -0.62070537874E+03 -0.14624467034E+04  0.16861787417E+04  0.79272713237E+02 0.  0.
        254    2    1    2    0    0  0.55936487080E+03  0.62070537874E+03  0.14456382412E+03  0.12405581133E+04  0.90549517241E+03 0.  0.
         23    2    4    4    0    0 -0.28576478462E+02  0.24621692400E+03 -0.30688226140E+03  0.40480927066E+03  0.90853918296E+02 0.  0.
         23    2    4    4    0    0  0.58794134926E+03  0.37448845475E+03  0.45144608553E+03  0.83574884260E+03  0.93573109730E+02 0.  0.
          4    1    3    3  502    0 -0.14526270502E+03 -0.14062547007E+03 -0.41882691563E+03  0.46507285619E+03  0.00000000000E+00 0. -1.
         -3    1    3    3    0  502 -0.41410216577E+03 -0.48007990868E+03 -0.10436197877E+04  0.12211058856E+04  0.00000000000E+00 0.  1.
         13    1    5    5    0    0 -0.45906307044E+02  0.14667418727E+03 -0.23505413779E+03  0.28084008604E+03  0.00000000000E+00 0. -1.
        -13    1    5    5    0    0  0.17329828581E+02  0.99542736728E+02 -0.71828123613E+02  0.12396918462E+03  0.00000000000E+00 0.  1.
          4    1    6    6  503    0  0.59125807711E+03  0.37377444826E+03  0.45110375763E+03  0.83233890458E+03  0.00000000000E+00 0. -1.
         -4    1    6    6    0  503 -0.33167278564E+01  0.71400649001E+00  0.34232789639E+00  0.34099380244E+01  0.00000000000E+00 0.  1.
<mgrwt>
<rscale>  0 0.26132304E+04</rscale>
<asrwt>0</asrwt>
<pdfrwt beam="1">  1        2 0.32650921E+00 0.26132304E+04</pdfrwt>
<pdfrwt beam="2">  1       -1 0.12375800E+00 0.26132304E+04</pdfrwt>
<totfact> 0.32920366E+00</totfact>
</mgrwt>
</event>
<event>
12    7  0.1611233E-007  0.2918621E+04  0.7818608E-02  0.8267359E-01
         -1   -1    0    0    0  501 -0.00000000000E+00  0.00000000000E+00  0.67183622808E+03  0.67183622808E+03  0.00000000000E+00 0.  1.
          2   -1    0    0  501    0  0.00000000000E+00 -0.00000000000E+00 -0.31698019526E+04  0.31698019526E+04  0.00000000000E+00 0. -1.
         24    2    1    2    0    0  0.10711105814E+04  0.40137919185E+02 -0.21426348019E+04  0.23972956042E+04  0.85166832431E+02 0.  0.
        254    2    1    2    0    0 -0.10711105814E+04 -0.40137919185E+02 -0.35533092264E+03  0.14443425765E+04  0.90054232741E+03 0.  0.
         23    2    4    4    0    0 -0.48197672212E+03  0.40165102600E+03 -0.31355194713E+02  0.63478536424E+03  0.91346609519E+02 0.  0.
         23    2    4    4    0    0 -0.58913385933E+03 -0.44178894518E+03 -0.32397572793E+03  0.80955721226E+03  0.90368309363E+02 0.  0.
          4    1    3    3  502    0  0.70304749470E+03  0.60505955704E+02 -0.14550941507E+04  0.16171690505E+04  0.00000000000E+00 0. -1.
         -3    1    3    3    0  502  0.36806308675E+03 -0.20368036519E+02 -0.68754065118E+03  0.78012655369E+03  0.00000000000E+00 0.  1.
         13    1    5    5    0    0 -0.19578716646E+02  0.45306920872E+02 -0.11472277203E+02  0.50672047212E+02  0.00000000000E+00 0. -1.
        -13    1    5    5    0    0 -0.46239800547E+03  0.35634410513E+03 -0.19882917510E+02  0.58411331703E+03  0.00000000000E+00 0.  1.
          2    1    6    6  503    0 -0.81340209639E+02 -0.27629784042E+02 -0.49281763436E+02  0.99036997520E+02  0.00000000000E+00 0. -1.
         -2    1    6    6    0  503 -0.50779364969E+03 -0.41415916114E+03 -0.27469396450E+03  0.71052021474E+03  0.00000000000E+00 0.  1.
<mgrwt>
<rscale>  0 0.29186214E+04</rscale>
<asrwt>0</asrwt>
<pdfrwt beam="1">  1        2 0.48766183E+00 0.29186214E+04</pdfrwt>
<pdfrwt beam="2">  1       -1 0.10335942E+00 0.29186214E+04</pdfrwt>
<totfact> 0.11726082E+00</totfact>
</mgrwt>
</event>
<event>
12    7  0.1611233E-007  0.1615875E+04  0.7818608E-02  0.8810854E-01
         -1   -1    0    0    0  501 -0.00000000000E+00  0.00000000000E+00  0.31327053374E+03  0.31327053374E+03  0.00000000000E+00 0.  1.
          2   -1    0    0  501    0  0.00000000000E+00 -0.00000000000E+00 -0.20837050907E+04  0.20837050907E+04  0.00000000000E+00 0. -1.
         24    2    1    2    0    0  0.11336125323E+03  0.54216745801E+03 -0.57884414618E+03  0.80510835686E+03  0.79640407268E+02 0.  0.
        254    2    1    2    0    0 -0.11336125323E+03 -0.54216745801E+03 -0.11915904108E+04  0.15918672676E+04  0.89853066962E+03 0.  0.
         23    2    4    4    0    0  0.30564831963E+03 -0.27600063025E+03 -0.93503306974E+03  0.10257977638E+04  0.91525775146E+02 0.  0.
         23    2    4    4    0    0 -0.41900957286E+03 -0.26616682776E+03 -0.25655734102E+03  0.56606950376E+03  0.90549497563E+02 0.  0.
          2    1    3    3  502    0  0.47738072706E+02  0.16192532186E+03 -0.12910853168E+03  0.21252704863E+03  0.00000000000E+00 0. -1.
         -1    1    3    3    0  502  0.65623180522E+02  0.38024213615E+03 -0.44973561450E+03  0.59258130824E+03  0.00000000000E+00 0.  1.
         13    1    5    5    0    0  0.13905465093E+03 -0.90167359321E+02 -0.28770781162E+03  0.33202730836E+03  0.00000000000E+00 0.  1.
        -13    1    5    5    0    0  0.16659366870E+03 -0.18583327093E+03 -0.64732525811E+03  0.69377045543E+03  0.00000000000E+00 0. -1.
          3    1    6    6  503    0 -0.24317538622E+03 -0.14763854470E+03 -0.96552067134E+02  0.30042255244E+03  0.00000000000E+00 0. -1.
         -3    1    6    6    0  503 -0.17583418663E+03 -0.11852828306E+03 -0.16000527389E+03  0.26564695132E+03  0.00000000000E+00 0.  1.
<mgrwt>
<rscale>  0 0.16158755E+04</rscale>
<asrwt>0</asrwt>
<pdfrwt beam="1">  1        2 0.32057001E+00 0.16158755E+04</pdfrwt>
<pdfrwt beam="2">  1       -1 0.48195467E-01 0.16158755E+04</pdfrwt>
<totfact> 0.28185264E+01</totfact>
</mgrwt>
</event>
<event>
12    7  0.1611233E-007  0.1310290E+04  0.7818608E-02  0.9021445E-01
         -1   -1    0    0    0  501 -0.00000000000E+00  0.00000000000E+00  0.55312067833E+03  0.55312067833E+03  0.00000000000E+00 0.  1.
          2   -1    0    0  501    0  0.00000000000E+00 -0.00000000000E+00 -0.77598785045E+03  0.77598785045E+03  0.00000000000E+00 0. -1.
         24    2    1    2    0    0  0.58698307157E+02  0.28435951817E+02  0.27382254593E+03  0.29279170967E+03  0.80586003580E+02 0.  0.
        254    2    1    2    0    0 -0.58698307157E+02 -0.28435951817E+02 -0.49668971805E+03  0.10363168191E+04  0.90719225026E+03 0.  0.
         23    2    4    4    0    0  0.79507399385E+02 -0.13335889330E+03 -0.71851344156E+03  0.74063103298E+03  0.90370018991E+02 0.  0.
         23    2    4    4    0    0 -0.13820570654E+03  0.10492294148E+03  0.22182372351E+03  0.29568578613E+03  0.90081512195E+02 0.  0.
          2    1    3    3  502    0 -0.15870035145E+02 -0.90579438361E+01  0.30529611032E+02  0.35580352891E+02  0.00000000000E+00 0. -1.
         -1    1    3    3    0  502  0.74568342302E+02  0.37493895653E+02  0.24329293490E+03  0.25721135678E+03  0.00000000000E+00 0.  1.
         13    1    5    5    0    0 -0.74675651553E+00  0.11283784679E+02 -0.21898960125E+02  0.24646417520E+02  0.00000000000E+00 0.  1.
        -13    1    5    5    0    0  0.80254155901E+02 -0.14464267798E+03 -0.69661448143E+03  0.71598461546E+03  0.00000000000E+00 0. -1.
          4    1    6    6  503    0 -0.14271407751E+03  0.72514783813E+02  0.16354987611E+03  0.22885424131E+03  0.00000000000E+00 0. -1.
         -4    1    6    6    0  503  0.45083709693E+01  0.32408157668E+02  0.58273847398E+02  0.66831544818E+02  0.00000000000E+00 0.  1.
<mgrwt>
<rscale>  0 0.13102899E+04</rscale>
<asrwt>0</asrwt>
<pdfrwt beam="1">  1        2 0.11938275E+00 0.13102899E+04</pdfrwt>
<pdfrwt beam="2">  1       -1 0.85095490E-01 0.13102899E+04</pdfrwt>
<totfact> 0.54807371E+01</totfact>
</mgrwt>
</event>
<event>
12    7  0.1611233E-007  0.1373554E+04  0.7818608E-02  0.8973187E-01
          4   -1    0    0  501    0  0.00000000000E+00  0.00000000000E+00  0.76300387195E+03  0.76300387195E+03  0.00000000000E+00 0. -1.
         -3   -1    0    0    0  501 -0.00000000000E+00 -0.00000000000E+00 -0.61816558417E+03  0.61816558417E+03  0.00000000000E+00 0.  1.
         24    2    1    2    0    0 -0.11000003562E+03  0.74691874017E+02  0.42450157999E+03  0.45199371667E+03  0.80111451218E+02 0.  0.
        254    2    1    2    0    0  0.11000003562E+03 -0.74691874017E+02 -0.27966329222E+03  0.92917573945E+03  0.87605771150E+03 0.  0.
         23    2    4    4    0    0  0.13250532627E+03 -0.34809955323E+03  0.14866373696E+03  0.41133053189E+03  0.91438172169E+02 0.  0.
         23    2    4    4    0    0 -0.22505290651E+02  0.27340767921E+03 -0.42832702918E+03  0.51784520756E+03  0.97166701660E+02 0.  0.
          4    1    3    3  502    0 -0.86545085031E+01  0.21360973211E+02  0.18599639974E+03  0.18741892224E+03  0.00000000000E+00 0. -1.
         -3    1    3    3    0  502 -0.10134552711E+03  0.53330900806E+02  0.23850518024E+03  0.26457479443E+03  0.00000000000E+00 0.  1.
         13    1    5    5    0    0  0.16778593945E+02 -0.15825776116E+03  0.83078382220E+02  0.17952453251E+03  0.00000000000E+00 0.  1.
        -13    1    5    5    0    0  0.11572673232E+03 -0.18984179207E+03  0.65585354743E+02  0.23180599937E+03  0.00000000000E+00 0. -1.
          2    1    6    6  503    0 -0.49529802748E+02  0.93590585487E+02 -0.12133777105E+03  0.16104426017E+03  0.00000000000E+00 0. -1.
         -2    1    6    6    0  503  0.27024512098E+02  0.17981709372E+03 -0.30698925813E+03  0.35680094739E+03  0.00000000000E+00 0.  1.
<mgrwt>
<rscale>  0 0.13735541E+04</rscale>
<asrwt>0</asrwt>
<pdfrwt beam="1">  1        4 0.11738521E+00 0.13735541E+04</pdfrwt>
<pdfrwt beam="2">  1       -3 0.95102398E-01 0.13735541E+04</pdfrwt>
<totfact> 0.12246166E+00</totfact>
</mgrwt>
</event>
<event>
12    7  0.1611233E-007  0.1384630E+04  0.7818608E-02  0.8965020E-01
          2   -1    0    0  501    0  0.00000000000E+00  0.00000000000E+00  0.19051539927E+04  0.19051539927E+04  0.00000000000E+00 0. -1.
         -1   -1    0    0    0  501 -0.00000000000E+00 -0.00000000000E+00 -0.25158064338E+03  0.25158064338E+03  0.00000000000E+00 0.  1.
         24    2    1    2    0    0 -0.44779097961E+01  0.54312253261E+02  0.10951071303E+04  0.10993509928E+04  0.79643618269E+02 0.  0.
        254    2    1    2    0    0  0.44779097961E+01 -0.54312253261E+02  0.55846621903E+03  0.10573836433E+04  0.89621748412E+03 0.  0.
         23    2    4    4    0    0  0.15800289521E+03 -0.22067867095E+03 -0.13880876994E+03  0.31838157059E+03  0.91842033789E+02 0.  0.
         23    2    4    4    0    0 -0.15352498542E+03  0.16636641769E+03  0.69727498897E+03  0.73900207273E+03  0.93187698667E+02 0.  0.
          4    1    3    3  502    0 -0.40843335870E+02  0.26075486036E+02  0.67242705352E+03  0.67417078798E+03  0.00000000000E+00 0. -1.
         -3    1    3    3    0  502  0.36365426074E+02  0.28236767225E+02  0.42268007676E+03  0.42518020477E+03  0.00000000000E+00 0.  1.
         13    1    5    5    0    0  0.61448323559E+02 -0.22139978500E+02 -0.39228901916E+02  0.76190431563E+02  0.00000000000E+00 0. -1.
        -13    1    5    5    0    0  0.96554571655E+02 -0.19853869245E+03 -0.99579868025E+02  0.24219113903E+03  0.00000000000E+00 0.  1.
          3    1    6    6  503    0 -0.70442378023E+01  0.33851530933E+02  0.40937833315E+02  0.53585946192E+02  0.00000000000E+00 0. -1.
         -3    1    6    6    0  503 -0.14648074762E+03  0.13251488676E+03  0.65633715565E+03  0.68541612654E+03  0.00000000000E+00 0.  1.
<mgrwt>
<rscale>  0 0.13846297E+04</rscale>
<asrwt>0</asrwt>
<pdfrwt beam="1">  1        2 0.29310060E+00 0.13846297E+04</pdfrwt>
<pdfrwt beam="2">  1       -1 0.38704716E-01 0.13846297E+04</pdfrwt>
<totfact> 0.54181859E+01</totfact>
</mgrwt>
</event>
<event>
12    7  0.1611233E-007  0.1646843E+04  0.7818608E-02  0.8792277E-01
         -1   -1    0    0    0  501 -0.00000000000E+00  0.00000000000E+00  0.28210418078E+03  0.28210418078E+03  0.00000000000E+00 0.  1.
          2   -1    0    0  501    0  0.00000000000E+00 -0.00000000000E+00 -0.24034477723E+04  0.24034477723E+04  0.00000000000E+00 0. -1.
         24    2    1    2    0    0  0.35632199379E+03 -0.40375170681E+03 -0.10222297552E+04  0.11582240699E+04  0.80922924010E+02 0.  0.
        254    2    1    2    0    0 -0.35632199379E+03  0.40375170681E+03 -0.10991138363E+04  0.15273278832E+04  0.91361831944E+03 0.  0.
         23    2    4    4    0    0 -0.22155060543E+03  0.68865861831E+03 -0.81254292607E+03  0.10916781975E+04  0.90553392210E+02 0.  0.
         23    2    4    4    0    0 -0.13477138836E+03 -0.28490691150E+03 -0.28657091028E+03  0.43564968573E+03  0.91282455724E+02 0.  0.
          4    1    3    3  502    0  0.23547717073E+03 -0.23778593954E+03 -0.70441370344E+03  0.77986557596E+03  0.00000000000E+00 0. -1.
         -1    1    3    3    0  502  0.12084482306E+03 -0.16596576727E+03 -0.31781605177E+03  0.37835849393E+03  0.00000000000E+00 0.  1.
         13    1    5    5    0    0 -0.58217452499E+02  0.31309435726E+03 -0.38477956376E+03  0.49947238263E+03  0.00000000000E+00 0. -1.
        -13    1    5    5    0    0 -0.16333315293E+03  0.37556426105E+03 -0.42776336231E+03  0.59220581486E+03  0.00000000000E+00 0.  1.
          2    1    6    6  503    0  0.93087184933E+01 -0.48874656208E+01 -0.21870172760E+02  0.24266108397E+02  0.00000000000E+00 0.  1.
         -2    1    6    6    0  503 -0.14408010686E+03 -0.28001944588E+03 -0.26470073752E+03  0.41138357734E+03  0.00000000000E+00 0. -1.
<mgrwt>
<rscale>  0 0.16468426E+04</rscale>
<asrwt>0</asrwt>
<pdfrwt beam="1">  1        2 0.36976121E+00 0.16468426E+04</pdfrwt>
<pdfrwt beam="2">  1       -1 0.43400642E-01 0.16468426E+04</pdfrwt>
<totfact> 0.22592968E+01</totfact>
</mgrwt>
</event>
<event>
12    7  0.1611233E-007  0.1868279E+04  0.7818608E-02  0.8670809E-01
         -1   -1    0    0    0  501 -0.00000000000E+00  0.00000000000E+00  0.28069023311E+03  0.28069023311E+03  0.00000000000E+00 0.  1.
          2   -1    0    0  501    0  0.00000000000E+00 -0.00000000000E+00 -0.31088243477E+04  0.31088243477E+04  0.00000000000E+00 0. -1.
         24    2    1    2    0    0 -0.50267732169E+02 -0.68114165052E+03 -0.82870911629E+03  0.10768599160E+04  0.79923002385E+02 0.  0.
        254    2    1    2    0    0  0.50267732169E+02  0.68114165052E+03 -0.19994249983E+04  0.23126546648E+04  0.94031403363E+03 0.  0.
         23    2    4    4    0    0  0.46537278270E+03  0.19693547069E+03 -0.99426308296E+03  0.11189532042E+04  0.90231859432E+02 0.  0.
         23    2    4    4    0    0 -0.41510505053E+03  0.48420617984E+03 -0.10051619154E+04  0.11937014607E+04  0.88345195348E+02 0.  0.
          2    1    3    3  502    0 -0.15767354986E+02 -0.44429792150E+03 -0.59082595176E+03  0.73940824840E+03  0.00000000000E+00 0. -1.
         -1    1    3    3    0  502 -0.34500377183E+02 -0.23684372903E+03 -0.23788316453E+03  0.33745166761E+03  0.00000000000E+00 0.  1.
         13    1    5    5    0    0  0.11215007028E+03  0.72153973436E+02 -0.19481421547E+03  0.23608560459E+03  0.00000000000E+00 0.  1.
        -13    1    5    5    0    0  0.35322271243E+03  0.12478149725E+03 -0.79944886749E+03  0.88286759956E+03  0.00000000000E+00 0. -1.
          1    1    6    6  503    0 -0.41881578582E+03  0.47228032744E+03 -0.98186798529E+03  0.11672703674E+04  0.00000000000E+00 0. -1.
         -1    1    6    6    0  503  0.37107352844E+01  0.11925852399E+02 -0.23293930094E+02  0.26431093262E+02  0.00000000000E+00 0.  1.
<mgrwt>
<rscale>  0 0.18682790E+04</rscale>
<asrwt>0</asrwt>
<pdfrwt beam="1">  1        2 0.47828064E+00 0.18682790E+04</pdfrwt>
<pdfrwt beam="2">  1       -1 0.43183115E-01 0.18682790E+04</pdfrwt>
<totfact> 0.84301798E+00</totfact>
</mgrwt>
</event>
<event>
12    7  0.1611233E-007  0.1079053E+04  0.7818608E-02  0.9225852E-01
         -1   -1    0    0    0  501 -0.00000000000E+00  0.00000000000E+00  0.26374975856E+03  0.26374975856E+03  0.00000000000E+00 0.  1.
          2   -1    0    0  501    0  0.00000000000E+00 -0.00000000000E+00 -0.11036550628E+04  0.11036550628E+04  0.00000000000E+00 0. -1.
         24    2    1    2    0    0 -0.66197892673E+01  0.18897215056E+02 -0.30778322406E+03  0.31939763619E+03  0.82966322376E+02 0.  0.
        254    2    1    2    0    0  0.66197892673E+01 -0.18897215056E+02 -0.53212208022E+03  0.10480071852E+04  0.90264291148E+03 0.  0.
         23    2    4    4    0    0 -0.34909993165E+03  0.25579142101E+03 -0.21668664224E+03  0.49136310300E+03  0.84761929679E+02 0.  0.
         23    2    4    4    0    0  0.35571972092E+03 -0.27468863607E+03 -0.31543543798E+03  0.55664408221E+03  0.91448084106E+02 0.  0.
          2    1    3    3  502    0 -0.30852590459E+02  0.92998569044E+01 -0.27782823664E+03  0.27969071982E+03  0.00000000000E+00 0. -1.
         -1    1    3    3    0  502  0.24232801192E+02  0.95973581514E+01 -0.29954987416E+02  0.39706916377E+02  0.00000000000E+00 0.  1.
         13    1    5    5    0    0 -0.24978563717E+03  0.19591867207E+03 -0.11663645674E+03  0.33820268131E+03  0.00000000000E+00 0.  1.
        -13    1    5    5    0    0 -0.99314294478E+02  0.59872748936E+02 -0.10005018550E+03  0.15316042169E+03  0.00000000000E+00 0. -1.
          1    1    6    6  503    0  0.20833986095E+01 -0.26267988100E+02 -0.21187034548E+02  0.33811805357E+02  0.00000000000E+00 0. -1.
         -1    1    6    6    0  503  0.35363632231E+03 -0.24842064797E+03 -0.29424840343E+03  0.52283227685E+03  0.00000000000E+00 0.  1.
<mgrwt>
<rscale>  0 0.10790528E+04</rscale>
<asrwt>0</asrwt>
<pdfrwt beam="1">  1        2 0.16979308E+00 0.10790528E+04</pdfrwt>
<pdfrwt beam="2">  1       -1 0.40576887E-01 0.10790528E+04</pdfrwt>
<totfact> 0.14560899E+02</totfact>
</mgrwt>
</event>
<event>
12    7  0.1611233E-007  0.2145722E+04  0.7818608E-02  0.8541366E-01
          2   -1    0    0  501    0  0.00000000000E+00  0.00000000000E+00  0.30266133299E+04  0.30266133299E+04  0.00000000000E+00 0. -1.
         -1   -1    0    0    0  501 -0.00000000000E+00 -0.00000000000E+00 -0.38030327869E+03  0.38030327869E+03  0.00000000000E+00 0.  1.
         24    2    1    2    0    0 -0.56939460476E+03  0.16217446080E+03  0.53451724660E+02  0.59975365575E+03  0.79602695000E+02 0.  0.
        254    2    1    2    0    0  0.56939460476E+03 -0.16217446080E+03  0.25928583265E+04  0.28071629528E+04  0.89818637854E+03 0.  0.
         23    2    4    4    0    0  0.65982974510E+03  0.16902946896E+03  0.13529385860E+04  0.15173325974E+04  0.88933345209E+02 0.  0.
         23    2    4    4    0    0 -0.90435140340E+02 -0.33120392976E+03  0.12399197406E+04  0.12898303554E+04  0.91579610168E+02 0.  0.
          4    1    3    3  502    0 -0.88271597645E+02  0.42344393320E+02  0.33696050292E+02  0.10353910566E+03  0.00000000000E+00 0. -1.
         -3    1    3    3    0  502 -0.48112300712E+03  0.11983006748E+03  0.19755674368E+02  0.49621455009E+03  0.00000000000E+00 0.  1.
         13    1    5    5    0    0  0.54716862725E+03  0.12146395991E+03  0.11694384834E+04  0.12968166280E+04  0.00000000000E+00 0. -1.
        -13    1    5    5    0    0  0.11266111786E+03  0.47565509046E+02  0.18350010261E+03  0.22051596946E+03  0.00000000000E+00 0.  1.
          3    1    6    6  503    0 -0.96767536625E+02 -0.18433702828E+03  0.74431482913E+03  0.77288334243E+03  0.00000000000E+00 0. -1.
         -3    1    6    6    0  503  0.63323962846E+01 -0.14686690148E+03  0.49560491142E+03  0.51694701297E+03  0.00000000000E+00 0.  1.
<mgrwt>
<rscale>  0 0.21457222E+04</rscale>
<asrwt>0</asrwt>
<pdfrwt beam="1">  1        2 0.46563281E+00 0.21457222E+04</pdfrwt>
<pdfrwt beam="2">  1       -1 0.58508199E-01 0.21457222E+04</pdfrwt>
<totfact> 0.51899720E+00</totfact>
</mgrwt>
</event>
<event>
12    7  0.1611233E-007  0.1131873E+04  0.7818608E-02  0.9174671E-01
         -1   -1    0    0    0  501 -0.00000000000E+00  0.00000000000E+00  0.15353784031E+03  0.15353784031E+03  0.00000000000E+00 0.  1.
          2   -1    0    0  501    0  0.00000000000E+00 -0.00000000000E+00 -0.20860285039E+04  0.20860285039E+04  0.00000000000E+00 0. -1.
         24    2    1    2    0    0 -0.10397336102E+03  0.81404505761E+02 -0.63994360374E+03  0.65797372327E+03  0.77229859451E+02 0.  0.
        254    2    1    2    0    0  0.10397336102E+03 -0.81404505761E+02 -0.12925470599E+04  0.15815926210E+04  0.90184264888E+03 0.  0.
         23    2    4    4    0    0  0.25451765818E+03 -0.39758481841E+03 -0.10221536294E+04  0.11299478761E+04  0.95557493032E+02 0.  0.
         23    2    4    4    0    0 -0.15054429716E+03  0.31618031265E+03 -0.27039343052E+03  0.45164474490E+03  0.90756778299E+02 0.  0.
          2    1    3    3  502    0 -0.92904380810E+02  0.46659475498E+02 -0.33247665148E+03  0.34835191173E+03  0.00000000000E+00 0. -1.
         -1    1    3    3    0  502 -0.11068980209E+02  0.34745030263E+02 -0.30746695225E+03  0.30962181153E+03  0.00000000000E+00 0.  1.
         13    1    5    5    0    0  0.21711546117E+03 -0.26101556559E+03 -0.69652788910E+03  0.77486731074E+03  0.00000000000E+00 0.  1.
        -13    1    5    5    0    0  0.37402197004E+02 -0.13656925283E+03 -0.32562574028E+03  0.35508056535E+03  0.00000000000E+00 0. -1.
          3    1    6    6  503    0 -0.47248392051E+02  0.82712721360E+02 -0.27223616573E+02  0.99070329189E+02  0.00000000000E+00 0. -1.
         -3    1    6    6    0  503 -0.10329590511E+03  0.23346759129E+03 -0.24316981395E+03  0.35257441571E+03  0.00000000000E+00 0.  1.
<mgrwt>
<rscale>  0 0.11318733E+04</rscale>
<asrwt>0</asrwt>
<pdfrwt beam="1">  1        2 0.32092743E+00 0.11318733E+04</pdfrwt>
<pdfrwt beam="2">  1       -1 0.23621208E-01 0.11318733E+04</pdfrwt>
<totfact> 0.10452451E+02</totfact>
</mgrwt>
</event>
<event>
12    7  0.1611233E-007  0.2156273E+04  0.7818608E-02  0.8536852E-01
          2   -1    0    0  501    0  0.00000000000E+00  0.00000000000E+00  0.16233813441E+04  0.16233813441E+04  0.00000000000E+00 0. -1.
         -1   -1    0    0    0  501 -0.00000000000E+00 -0.00000000000E+00 -0.71602270301E+03  0.71602270301E+03  0.00000000000E+00 0.  1.
         24    2    1    2    0    0  0.24015496835E+03 -0.55046159981E+03  0.10668133107E+04  0.12271836498E+04  0.84892218270E+02 0.  0.
        254    2    1    2    0    0 -0.24015496835E+03  0.55046159981E+03 -0.15945466965E+03  0.11122203973E+04  0.92245652404E+03 0.  0.
         23    2    4    4    0    0 -0.26444165829E+03 -0.15443638646E+03  0.12885860435E+03  0.34426381840E+03  0.90183416667E+02 0.  0.
         23    2    4    4    0    0  0.24286689944E+02  0.70489798628E+03 -0.28831327400E+03  0.76795657888E+03  0.95717024129E+02 0.  0.
          2    1    3    3  502    0  0.23305866743E+03 -0.53476624146E+03  0.99554742103E+03  0.11538656520E+04  0.00000000000E+00 0. -1.
         -1    1    3    3    0  502  0.70963009236E+01 -0.15695358352E+02  0.71265889699E+02  0.73317997758E+02  0.00000000000E+00 0.  1.
         13    1    5    5    0    0 -0.21116007019E+03 -0.16095842995E+03  0.10494806355E+03  0.28550006560E+03  0.00000000000E+00 0. -1.
        -13    1    5    5    0    0 -0.53281588100E+02  0.65220434893E+01  0.23910540802E+02  0.58763752801E+02  0.00000000000E+00 0.  1.
          4    1    6    6  503    0 -0.32507326735E+02  0.35515740053E+03 -0.16302346941E+03  0.39213538099E+03  0.00000000000E+00 0. -1.
         -4    1    6    6    0  503  0.56794016679E+02  0.34974058574E+03 -0.12528980459E+03  0.37582119789E+03  0.00000000000E+00 0.  1.
<mgrwt>
<rscale>  0 0.21562726E+04</rscale>
<asrwt>0</asrwt>
<pdfrwt beam="1">  1        2 0.24975097E+00 0.21562726E+04</pdfrwt>
<pdfrwt beam="2">  1       -1 0.11015734E+00 0.21562726E+04</pdfrwt>
<totfact> 0.85991811E+00</totfact>
</mgrwt>
</event>
<event>
12    7  0.1611233E-007  0.1490890E+04  0.7818608E-02  0.8890534E-01
         -1   -1    0    0    0  501 -0.00000000000E+00  0.00000000000E+00  0.74188609768E+03  0.74188609768E+03  0.00000000000E+00 0.  1.
          2   -1    0    0  501    0  0.00000000000E+00 -0.00000000000E+00 -0.74902076509E+03  0.74902076509E+03  0.00000000000E+00 0. -1.
         24    2    1    2    0    0 -0.31545792086E+03 -0.11760690121E+03 -0.33049417440E+03  0.47836783211E+03  0.79147333731E+02 0.  0.
        254    2    1    2    0    0  0.31545792086E+03  0.11760690121E+03  0.32335950700E+03  0.10125390307E+04  0.89851479387E+03 0.  0.
         23    2    4    4    0    0 -0.28586402754E+03  0.10485257201E+03 -0.11217021577E+02  0.31816504843E+03  0.91601705063E+02 0.  0.
         23    2    4    4    0    0  0.60132194840E+03  0.12754329195E+02  0.33457652857E+03  0.69437398223E+03  0.91994647565E+02 0.  0.
          4    1    3    3  502    0 -0.30095238720E+03 -0.10930762589E+03 -0.28057745293E+03  0.42572785148E+03  0.00000000000E+00 0. -1.
         -3    1    3    3    0  502 -0.14505533668E+02 -0.82992753187E+01 -0.49916721472E+02  0.52639980626E+02  0.00000000000E+00 0.  1.
         13    1    5    5    0    0 -0.10329454977E+03  0.86033494745E+02 -0.48205418770E+01  0.13451677908E+03  0.00000000000E+00 0. -1.
        -13    1    5    5    0    0 -0.18256947777E+03  0.18819077267E+02 -0.63964796997E+01  0.18364826935E+03  0.00000000000E+00 0.  1.
          4    1    6    6  503    0  0.51596615775E+03 -0.20437923711E+02  0.29404675992E+03  0.59422410056E+03  0.00000000000E+00 0. -1.
         -4    1    6    6    0  503  0.85355790656E+02  0.33192252906E+02  0.40529768654E+02  0.10014988167E+03  0.00000000000E+00 0.  1.
<mgrwt>
<rscale>  0 0.14908898E+04</rscale>
<asrwt>0</asrwt>
<pdfrwt beam="1">  1        2 0.11523396E+00 0.14908898E+04</pdfrwt>
<pdfrwt beam="2">  1       -1 0.11413632E+00 0.14908898E+04</pdfrwt>
<totfact> 0.28996974E+01</totfact>
</mgrwt>
</event>
<event>
12    7  0.1611233E-007  0.2135717E+04  0.7818608E-02  0.8545671E-01
          2   -1    0    0  501    0  0.00000000000E+00  0.00000000000E+00  0.10167100178E+04  0.10167100178E+04  0.00000000000E+00 0. -1.
         -1   -1    0    0    0  501 -0.00000000000E+00 -0.00000000000E+00 -0.11215803780E+04  0.11215803780E+04  0.00000000000E+00 0.  1.
         24    2    1    2    0    0  0.58870259256E+03  0.60051032826E+03  0.18569586522E+03  0.86497092379E+03  0.80674331854E+02 0.  0.
        254    2    1    2    0    0 -0.58870259256E+03 -0.60051032826E+03 -0.29056622539E+03  0.12733194721E+04  0.91089535609E+03 0.  0.
         23    2    4    4    0    0  0.11233050349E+03 -0.30512146327E+03  0.16966285464E+03  0.37935842600E+03  0.97005575965E+02 0.  0.
         23    2    4    4    0    0 -0.70103309605E+03 -0.29538886498E+03 -0.46022908003E+03  0.89396104605E+03  0.93024526002E+02 0.  0.
          2    1    3    3  502    0  0.12241210356E+03  0.14716463165E+03  0.11835097448E+02  0.19178691676E+03  0.00000000000E+00 0. -1.
         -1    1    3    3    0  502  0.46629048900E+03  0.45334569660E+03  0.17386076777E+03  0.67318400704E+03  0.00000000000E+00 0.  1.
         13    1    5    5    0    0 -0.17069309212E+02 -0.48995040819E+02  0.18998915118E+02  0.55252458022E+02  0.00000000000E+00 0.  1.
        -13    1    5    5    0    0  0.12939981270E+03 -0.25612642246E+03  0.15066393952E+03  0.32410596798E+03  0.00000000000E+00 0. -1.
          4    1    6    6  503    0 -0.58165739562E+03 -0.20836691447E+03 -0.38735977558E+03  0.72923911899E+03  0.00000000000E+00 0. -1.
         -4    1    6    6    0  503 -0.11937570043E+03 -0.87021950513E+02 -0.72869304451E+02  0.16472192706E+03  0.00000000000E+00 0.  1.
<mgrwt>
<rscale>  0 0.21357172E+04</rscale>
<asrwt>0</asrwt>
<pdfrwt beam="1">  1        2 0.15641693E+00 0.21357172E+04</pdfrwt>
<pdfrwt beam="2">  1       -1 0.17255083E+00 0.21357172E+04</pdfrwt>
<totfact> 0.60699029E+00</totfact>
</mgrwt>
</event>
<event>
12    7  0.1611233E-007  0.2641627E+04  0.7818608E-02  0.8354198E-01
         -1   -1    0    0    0  501 -0.00000000000E+00  0.00000000000E+00  0.78668748667E+03  0.78668748667E+03  0.00000000000E+00 0.  1.
          2   -1    0    0  501    0  0.00000000000E+00 -0.00000000000E+00 -0.22175866893E+04  0.22175866893E+04  0.00000000000E+00 0. -1.
         24    2    1    2    0    0 -0.48881912157E+03 -0.85577369147E+03  0.74236072317E+02  0.99166068816E+03  0.81161452544E+02 0.  0.
        254    2    1    2    0    0  0.48881912157E+03  0.85577369147E+03 -0.15051352750E+04  0.20126134878E+04  0.90215747564E+03 0.  0.
         23    2    4    4    0    0 -0.17567209229E+03  0.16175423925E+03 -0.73306732694E+03  0.77654563543E+03  0.92791703064E+02 0.  0.
         23    2    4    4    0    0  0.66449121386E+03  0.69401945222E+03 -0.77206794802E+03  0.12360678524E+04  0.92537808640E+02 0.  0.
          2    1    3    3  502    0 -0.25369484142E+03 -0.41415878898E+03  0.74429705133E+02  0.49135359576E+03  0.00000000000E+00 0. -1.
         -1    1    3    3    0  502 -0.23512428015E+03 -0.44161490248E+03 -0.19363281595E+00  0.50030709240E+03  0.00000000000E+00 0.  1.
         13    1    5    5    0    0 -0.66835305838E+02  0.12250801124E+03 -0.43369541073E+03  0.45559508362E+03  0.00000000000E+00 0. -1.
        -13    1    5    5    0    0 -0.10883678645E+03  0.39246228014E+02 -0.29937191620E+03  0.32095055181E+03  0.00000000000E+00 0.  1.
          2    1    6    6  503    0  0.43535794190E+03  0.44425854055E+03 -0.44284921793E+03  0.76355590381E+03  0.00000000000E+00 0. -1.
         -2    1    6    6    0  503  0.22913327196E+03  0.24976091166E+03 -0.32921873009E+03  0.47251194859E+03  0.00000000000E+00 0.  1.
<mgrwt>
<rscale>  0 0.26416265E+04</rscale>
<asrwt>0</asrwt>
<pdfrwt beam="1">  1        2 0.34116718E+00 0.26416265E+04</pdfrwt>
<pdfrwt beam="2">  1       -1 0.12102884E+00 0.26416265E+04</pdfrwt>
<totfact> 0.30675041E+00</totfact>
</mgrwt>
</event>
<event>
12    7  0.1611233E-007  0.1354129E+04  0.7818608E-02  0.8987708E-01
          2   -1    0    0  501    0  0.00000000000E+00  0.00000000000E+00  0.66725032152E+03  0.66725032152E+03  0.00000000000E+00 0. -1.
         -1   -1    0    0    0  501 -0.00000000000E+00 -0.00000000000E+00 -0.68702308619E+03  0.68702308619E+03  0.00000000000E+00 0.  1.
         24    2    1    2    0    0 -0.16131624178E+03 -0.18535533265E+03 -0.29255900041E+03  0.39147835597E+03  0.85352242322E+02 0.  0.
        254    2    1    2    0    0  0.16131624178E+03  0.18535533265E+03  0.27278623574E+03  0.96279505174E+03  0.89004632017E+03 0.  0.
         23    2    4    4    0    0  0.34178028641E+03  0.45873540312E+03  0.21854755102E+03  0.61892314629E+03  0.89726778068E+02 0.  0.
         23    2    4    4    0    0 -0.18046404463E+03 -0.27338007047E+03  0.54238684725E+02  0.34387190546E+03  0.89454558883E+02 0.  0.
          4    1    3    3  502    0  0.99633645242E+00  0.52283799845E+01  0.12673760199E+01  0.54712782387E+01  0.00000000000E+00 0. -1.
         -3    1    3    3    0  502 -0.16231257823E+03 -0.19058371263E+03 -0.29382637643E+03  0.38600707773E+03  0.00000000000E+00 0.  1.
         13    1    5    5    0    0  0.38525068657E+02  0.67915783844E+02  0.63123418464E+02  0.10040567996E+03  0.00000000000E+00 0. -1.
        -13    1    5    5    0    0  0.30325521775E+03  0.39081961928E+03  0.15542413255E+03  0.51851746633E+03  0.00000000000E+00 0.  1.
          2    1    6    6  503    0 -0.11868487224E+03 -0.18746700511E+03 -0.62842008682E+01  0.22196726805E+03  0.00000000000E+00 0. -1.
         -2    1    6    6    0  503 -0.61779172385E+02 -0.85913065363E+02  0.60522885593E+02  0.12190463741E+03  0.00000000000E+00 0.  1.
<mgrwt>
<rscale>  0 0.13541291E+04</rscale>
<asrwt>0</asrwt>
<pdfrwt beam="1">  1        2 0.10265390E+00 0.13541291E+04</pdfrwt>
<pdfrwt beam="2">  1       -1 0.10569586E+00 0.13541291E+04</pdfrwt>
<totfact> 0.40719125E+01</totfact>
</mgrwt>
</event>
<event>
12    7  0.1611233E-007  0.2104358E+04  0.7818608E-02  0.8559326E-01
         -1   -1    0    0    0  501 -0.00000000000E+00  0.00000000000E+00  0.55719463149E+03  0.55719463149E+03  0.00000000000E+00 0.  1.
          2   -1    0    0  501    0  0.00000000000E+00 -0.00000000000E+00 -0.19868832071E+04  0.19868832071E+04  0.00000000000E+00 0. -1.
         24    2    1    2    0    0  0.58748865585E+03  0.74652526543E+02 -0.13326722471E+04  0.14605769928E+04  0.80956243171E+02 0.  0.
        254    2    1    2    0    0 -0.58748865585E+03 -0.74652526543E+02 -0.97016328560E+02  0.10835008458E+04  0.90213413326E+03 0.  0.
         23    2    4    4    0    0 -0.78899151513E+03 -0.11308000005E+03  0.64596456431E+02  0.80477286370E+03  0.90509461460E+02 0.  0.
         23    2    4    4    0    0  0.20150285928E+03  0.38427473510E+02 -0.16161278499E+03  0.27872798211E+03  0.97419313902E+02 0.  0.
          2    1    3    3  502    0  0.46062366706E+03  0.27319091782E+02 -0.10624543824E+04  0.11583306135E+04  0.00000000000E+00 0. -1.
         -1    1    3    3    0  502  0.12686498879E+03  0.47333434761E+02 -0.27021786465E+03  0.30224637931E+03  0.00000000000E+00 0.  1.
         13    1    5    5    0    0 -0.54920870034E+03 -0.10420853609E+03  0.12038699778E+02  0.55913732286E+03  0.00000000000E+00 0. -1.
        -13    1    5    5    0    0 -0.23978281479E+03 -0.88714639594E+01  0.52557756653E+02  0.24563554084E+03  0.00000000000E+00 0.  1.
          3    1    6    6  503    0  0.21174186391E+03  0.30498543499E+02 -0.14943356909E+03  0.26095051190E+03  0.00000000000E+00 0. -1.
         -3    1    6    6    0  503 -0.10239004638E+02  0.79289300115E+01 -0.12179215898E+02  0.17777470208E+02  0.00000000000E+00 0.  1.
<mgrwt>
<rscale>  0 0.21043580E+04</rscale>
<asrwt>0</asrwt>
<pdfrwt beam="1">  1        2 0.30567434E+00 0.21043580E+04</pdfrwt>
<pdfrwt beam="2">  1       -1 0.85722252E-01 0.21043580E+04</pdfrwt>
<totfact> 0.95770696E+00</totfact>
</mgrwt>
</event>
<event>
12    7  0.1611233E-007  0.1553153E+04  0.7818608E-02  0.8849856E-01
         -1   -1    0    0    0  501 -0.00000000000E+00  0.00000000000E+00  0.39325053119E+03  0.39325053119E+03  0.00000000000E+00 0.  1.
          2   -1    0    0  501    0  0.00000000000E+00 -0.00000000000E+00 -0.15335547416E+04  0.15335547416E+04  0.00000000000E+00 0. -1.
         24    2    1    2    0    0  0.54462019680E+02  0.47095481239E+03 -0.15352331690E+03  0.50451044952E+03  0.78719997116E+02 0.  0.
        254    2    1    2    0    0 -0.54462019680E+02 -0.47095481239E+03 -0.98678089354E+03  0.14222948233E+04  0.90797658871E+03 0.  0.
         23    2    4    4    0    0  0.39938665521E+03 -0.93936606202E+02 -0.48756448088E+03  0.64400505189E+03  0.93218010580E+02 0.  0.
         23    2    4    4    0    0 -0.45384867489E+03 -0.37701820619E+03 -0.49921641266E+03  0.77828977142E+03  0.91632931453E+02 0.  0.
          4    1    3    3  502    0 -0.17311248537E+02  0.38486337285E+02 -0.13370424353E+02  0.44267886000E+02  0.00000000000E+00 0. -1.
         -3    1    3    3    0  502  0.71773268216E+02  0.43246847510E+03 -0.14015289255E+03  0.46024256352E+03  0.00000000000E+00 0.  1.
         13    1    5    5    0    0  0.28543625573E+03 -0.89022230138E+02 -0.40402086378E+03  0.50262478243E+03  0.00000000000E+00 0. -1.
        -13    1    5    5    0    0  0.11395039948E+03 -0.49143760645E+01 -0.83543617098E+02  0.14138026945E+03  0.00000000000E+00 0.  1.
          4    1    6    6  503    0 -0.45055402441E+03 -0.36392570642E+03 -0.46920636252E+03  0.74538276028E+03  0.00000000000E+00 0. -1.
         -4    1    6    6    0  503 -0.32946504796E+01 -0.13092499770E+02 -0.30010050145E+02  0.32907011133E+02  0.00000000000E+00 0.  1.
<mgrwt>
<rscale>  0 0.15531532E+04</rscale>
<asrwt>0</asrwt>
<pdfrwt beam="1">  1        2 0.23593150E+00 0.15531532E+04</pdfrwt>
<pdfrwt beam="2">  1       -1 0.60500081E-01 0.15531532E+04</pdfrwt>
<totfact> 0.36916876E+01</totfact>
</mgrwt>
</event>
<event>
12    7  0.1611233E-007  0.1709517E+04  0.7818608E-02  0.8755955E-01
         -1   -1    0    0    0  501 -0.00000000000E+00  0.00000000000E+00  0.65841406360E+03  0.65841406360E+03  0.00000000000E+00 0.  1.
          2   -1    0    0  501    0  0.00000000000E+00 -0.00000000000E+00 -0.11096548728E+04  0.11096548728E+04  0.00000000000E+00 0. -1.
         24    2    1    2    0    0 -0.32516025136E+03  0.91373330200E+02 -0.68301771565E+03  0.76497353864E+03  0.67771973540E+02 0.  0.
        254    2    1    2    0    0  0.32516025136E+03 -0.91373330200E+02  0.23177690647E+03  0.10030953977E+04  0.91564270764E+03 0.  0.
         23    2    4    4    0    0 -0.31075376901E+03 -0.27388731368E+01  0.11989211776E+03  0.34498482767E+03  0.89805373108E+02 0.  0.
         23    2    4    4    0    0  0.63591402037E+03 -0.88634457064E+02  0.11188478871E+03  0.65811057007E+03  0.91370718609E+02 0.  0.
          2    1    3    3  502    0 -0.12826014805E+03  0.55827778995E+02 -0.34342413669E+03  0.37082009675E+03  0.00000000000E+00 0. -1.
         -3    1    3    3    0  502 -0.19690010330E+03  0.35545551205E+02 -0.33959357896E+03  0.39415344190E+03  0.00000000000E+00 0.  1.
         13    1    5    5    0    0 -0.30971606384E+03  0.10719884163E+02  0.11641061227E+03  0.33104438791E+03  0.00000000000E+00 0. -1.
        -13    1    5    5    0    0 -0.10377051667E+01 -0.13458757300E+02  0.34815054924E+01  0.13940439755E+02  0.00000000000E+00 0.  1.
          3    1    6    6  503    0  0.39884189689E+03 -0.88382383125E+02  0.40477467004E+02  0.41051763628E+03  0.00000000000E+00 0. -1.
         -3    1    6    6    0  503  0.23707212347E+03 -0.25207393854E+00  0.71407321706E+02  0.24759293379E+03  0.00000000000E+00 0.  1.
<mgrwt>
<rscale>  0 0.17095173E+04</rscale>
<asrwt>0</asrwt>
<pdfrwt beam="1">  1        2 0.17071614E+00 0.17095173E+04</pdfrwt>
<pdfrwt beam="2">  1       -1 0.10129447E+00 0.17095173E+04</pdfrwt>
<totfact> 0.21568294E+01</totfact>
</mgrwt>
</event>
<event>
12    7  0.1611233E-007  0.1241036E+04  0.7818608E-02  0.9077677E-01
         -1   -1    0    0    0  501 -0.00000000000E+00  0.00000000000E+00  0.17599043872E+03  0.17599043872E+03  0.00000000000E+00 0.  1.
          2   -1    0    0  501    0  0.00000000000E+00 -0.00000000000E+00 -0.21878623713E+04  0.21878623713E+04  0.00000000000E+00 0. -1.
         24    2    1    2    0    0 -0.28827566634E+03  0.30889103144E+02 -0.50393560930E+03  0.58673872792E+03  0.79083753299E+02 0.  0.
        254    2    1    2    0    0  0.28827566634E+03 -0.30889103144E+02 -0.15079363232E+04  0.17771140821E+04  0.89454206674E+03 0.  0.
         23    2    4    4    0    0 -0.16685729651E+03 -0.32671791226E+03 -0.48146944584E+03  0.61190557011E+03  0.89608302445E+02 0.  0.
         23    2    4    4    0    0  0.45513296284E+03  0.29582880911E+03 -0.10264668774E+04  0.11652085119E+04  0.97035703366E+02 0.  0.
          2    1    3    3  502    0 -0.15577616545E+03  0.28800189560E+02 -0.34622400622E+03  0.38074496336E+03  0.00000000000E+00 0. -1.
         -1    1    3    3    0  502 -0.13249950089E+03  0.20889135840E+01 -0.15771160308E+03  0.20599376457E+03  0.00000000000E+00 0.  1.
         13    1    5    5    0    0 -0.90384907649E+02 -0.24421204717E+03 -0.37833231467E+03  0.45928672509E+03  0.00000000000E+00 0. -1.
        -13    1    5    5    0    0 -0.76472388856E+02 -0.82505865083E+02 -0.10313713116E+03  0.15261884502E+03  0.00000000000E+00 0.  1.
          1    1    6    6  503    0  0.35942137939E+03  0.23012793955E+03 -0.71344356001E+03  0.83135089454E+03  0.00000000000E+00 0. -1.
         -1    1    6    6    0  503  0.95711583453E+02  0.65700869560E+02 -0.31302331740E+03  0.33385761741E+03  0.00000000000E+00 0.  1.
<mgrwt>
<rscale>  0 0.12410364E+04</rscale>
<asrwt>0</asrwt>
<pdfrwt beam="1">  1        2 0.33659422E+00 0.12410364E+04</pdfrwt>
<pdfrwt beam="2">  1       -1 0.27075452E-01 0.12410364E+04</pdfrwt>
<totfact> 0.71948322E+01</totfact>
</mgrwt>
</event>
<event>
12    7  0.1611233E-007  0.4250413E+04  0.7818608E-02  0.7955851E-01
          2   -1    0    0  501    0  0.00000000000E+00  0.00000000000E+00  0.14604009912E+04  0.14604009912E+04  0.00000000000E+00 0. -1.
         -1   -1    0    0    0  501 -0.00000000000E+00 -0.00000000000E+00 -0.30926452898E+04  0.30926452898E+04  0.00000000000E+00 0.  1.
         24    2    1    2    0    0 -0.69915540297E+03 -0.17681089467E+04 -0.15326981780E+04  0.24435779452E+04  0.82957486289E+02 0.  0.
        254    2    1    2    0    0  0.69915540297E+03  0.17681089467E+04 -0.99546120493E+02  0.21094683358E+04  0.90825090409E+03 0.  0.
         23    2    4    4    0    0  0.30748684006E+03  0.12774721380E+04  0.31188627235E+03  0.13533454149E+04  0.88247067128E+02 0.  0.
         23    2    4    4    0    0  0.39166856291E+03  0.49063680867E+03 -0.41143239284E+03  0.75612292093E+03  0.91194936706E+02 0.  0.
          4    1    3    3  502    0 -0.57620912706E+03 -0.14913796706E+04 -0.13233090474E+04  0.20754221534E+04  0.00000000000E+00 0. -1.
         -3    1    3    3    0  502 -0.12294627590E+03 -0.27672927611E+03 -0.20938913067E+03  0.36815579183E+03  0.00000000000E+00 0.  1.
         13    1    5    5    0    0  0.98522510722E+01  0.43402871120E+02 -0.54207730989E+01  0.44835932617E+02  0.00000000000E+00 0.  1.
        -13    1    5    5    0    0  0.29763458899E+03  0.12340692669E+04  0.31730704544E+03  0.13085094823E+04  0.00000000000E+00 0. -1.
          2    1    6    6  503    0  0.25545749818E+03  0.25084701198E+03 -0.21629319805E+03  0.41828878101E+03  0.00000000000E+00 0.  1.
         -2    1    6    6    0  503  0.13621106473E+03  0.23978979669E+03 -0.19513919479E+03  0.33783413992E+03  0.00000000000E+00 0. -1.
<mgrwt>
<rscale>  0 0.42504128E+04</rscale>
<asrwt>0</asrwt>
<pdfrwt beam="1">  1        2 0.22467708E+00 0.42504128E+04</pdfrwt>
<pdfrwt beam="2">  1       -1 0.47579158E+00 0.42504128E+04</pdfrwt>
<totfact> 0.25415163E-02</totfact>
</mgrwt>
</event>
<event>
12    7  0.1611233E-007  0.1568761E+04  0.7818608E-02  0.8839972E-01
         -1   -1    0    0    0  501 -0.00000000000E+00  0.00000000000E+00  0.23325004290E+03  0.23325004290E+03  0.00000000000E+00 0.  1.
          2   -1    0    0  501    0  0.00000000000E+00 -0.00000000000E+00 -0.26377392106E+04  0.26377392106E+04  0.00000000000E+00 0. -1.
         24    2    1    2    0    0  0.79679269696E+02 -0.31904666506E+03 -0.10560180777E+03  0.35438871029E+03  0.79372890023E+02 0.  0.
        254    2    1    2    0    0 -0.79679269696E+02  0.31904666506E+03 -0.22988873600E+04  0.25166005433E+04  0.96966779879E+03 0.  0.
         23    2    4    4    0    0  0.28374533232E+03  0.83178356264E+02 -0.19588783474E+03  0.36766119900E+03  0.96812503774E+02 0.  0.
         23    2    4    4    0    0 -0.36342460202E+03  0.23586830879E+03 -0.21029995252E+04  0.21489393443E+04  0.87304076377E+02 0.  0.
          4    1    3    3  502    0  0.20641938613E+02 -0.58654149603E+02  0.10810427964E+02  0.63113106786E+02  0.00000000000E+00 0. -1.
         -3    1    3    3    0  502  0.59037331083E+02 -0.26039251545E+03 -0.11641223574E+03  0.29127560350E+03  0.00000000000E+00 0.  1.
         13    1    5    5    0    0  0.11563543550E+02  0.26154263047E+02 -0.20284455311E+01  0.28668372926E+02  0.00000000000E+00 0. -1.
        -13    1    5    5    0    0  0.27218178877E+03  0.57024093217E+02 -0.19385938921E+03  0.33899282608E+03  0.00000000000E+00 0.  1.
          2    1    6    6  503    0 -0.29016917142E+03  0.16376518563E+03 -0.17426360518E+04  0.17742033686E+04  0.00000000000E+00 0. -1.
         -2    1    6    6    0  503 -0.73255430603E+02  0.72103123167E+02 -0.36036347337E+03  0.37473597562E+03  0.00000000000E+00 0.  1.
<mgrwt>
<rscale>  0 0.15687610E+04</rscale>
<asrwt>0</asrwt>
<pdfrwt beam="1">  1        2 0.40580602E+00 0.15687610E+04</pdfrwt>
<pdfrwt beam="2">  1       -1 0.35884624E-01 0.15687610E+04</pdfrwt>
<totfact> 0.23556797E+01</totfact>
</mgrwt>
</event>
<event>
12    7  0.1611233E-007  0.2544341E+04  0.7818608E-02  0.8387357E-01
         -1   -1    0    0    0  501 -0.00000000000E+00  0.00000000000E+00  0.68013916740E+03  0.68013916740E+03  0.00000000000E+00 0.  1.
          2   -1    0    0  501    0  0.00000000000E+00 -0.00000000000E+00 -0.23795393570E+04  0.23795393570E+04  0.00000000000E+00 0. -1.
         24    2    1    2    0    0  0.35350579571E+03 -0.89208280175E+03 -0.14185826642E+04  0.17145231975E+04  0.80218119101E+02 0.  0.
        254    2    1    2    0    0 -0.35350579571E+03  0.89208280175E+03 -0.28081752542E+03  0.13451553270E+04  0.89989238154E+03 0.  0.
         23    2    4    4    0    0  0.19408616297E+03  0.66243353926E+03 -0.26326538861E+03  0.74436326535E+03  0.90996556928E+02 0.  0.
         23    2    4    4    0    0 -0.54759195868E+03  0.22964926250E+03 -0.17552136814E+02  0.60079206164E+03  0.89706671111E+02 0.  0.
          2    1    3    3  502    0  0.19896333592E+03 -0.57707020645E+03 -0.94819303514E+03  0.11276818985E+04  0.00000000000E+00 0. -1.
         -1    1    3    3    0  502  0.15454245979E+03 -0.31501259531E+03 -0.47038962907E+03  0.58684129900E+03  0.00000000000E+00 0.  1.
         13    1    5    5    0    0  0.14688311307E+03  0.59994215919E+03 -0.22692964896E+03  0.65802910943E+03  0.00000000000E+00 0.  1.
        -13    1    5    5    0    0  0.47203049901E+02  0.62491380067E+02 -0.36335739651E+02  0.86334155921E+02  0.00000000000E+00 0. -1.
          2    1    6    6  503    0 -0.42597996682E+03  0.13985316178E+03  0.20513217876E+01  0.44835482256E+03  0.00000000000E+00 0.  1.
         -2    1    6    6    0  503 -0.12161199186E+03  0.89796100713E+02 -0.19603458602E+02  0.15243723907E+03  0.00000000000E+00 0. -1.
<mgrwt>
<rscale>  0 0.25443411E+04</rscale>
<asrwt>0</asrwt>
<pdfrwt beam="1">  1        2 0.36608298E+00 0.25443411E+04</pdfrwt>
<pdfrwt beam="2">  1       -1 0.10463679E+00 0.25443411E+04</pdfrwt>
<totfact> 0.35421951E+00</totfact>
</mgrwt>
</event>
<event>
12    7  0.1611233E-007  0.1154135E+04  0.7818608E-02  0.9153978E-01
         -1   -1    0    0    0  501 -0.00000000000E+00  0.00000000000E+00  0.40874695665E+03  0.40874695665E+03  0.00000000000E+00 0.  1.
          2   -1    0    0  501    0  0.00000000000E+00 -0.00000000000E+00 -0.81470123406E+03  0.81470123406E+03  0.00000000000E+00 0. -1.
         24    2    1    2    0    0  0.11251830479E+03  0.90419429657E+02  0.90541516927E+02  0.18828932635E+03  0.80119048669E+02 0.  0.
        254    2    1    2    0    0 -0.11251830479E+03 -0.90419429657E+02 -0.49649579434E+03  0.10351588644E+04  0.89677742974E+03 0.  0.
         23    2    4    4    0    0 -0.20581454951E+03 -0.38006859819E+03 -0.55844095156E+03  0.71199864844E+03  0.90961590118E+02 0.  0.
         23    2    4    4    0    0  0.93296244720E+02  0.28964916853E+03  0.61945157222E+02  0.32316021592E+03  0.89411926159E+02 0.  0.
          2    1    3    3  502    0  0.50735485836E+02  0.61343352986E+02  0.63073871041E+01  0.79855366824E+02  0.00000000000E+00 0. -1.
         -1    1    3    3    0  502  0.61782818952E+02  0.29076076671E+02  0.84234129823E+02  0.10843395953E+03  0.00000000000E+00 0.  1.
         13    1    5    5    0    0 -0.33270185220E+02 -0.12827639398E+03 -0.21458931888E+03  0.25221085277E+03  0.00000000000E+00 0.  1.
        -13    1    5    5    0    0 -0.17254436429E+03 -0.25179220421E+03 -0.34385163268E+03  0.45978779567E+03  0.00000000000E+00 0. -1.
          3    1    6    6  503    0 -0.10174044825E+02  0.64143098255E+00  0.21831832373E+01  0.10425397396E+02  0.00000000000E+00 0.  1.
         -3    1    6    6    0  503  0.10347028955E+03  0.28900773755E+03  0.59761973984E+02  0.31273481853E+03  0.00000000000E+00 0. -1.
<mgrwt>
<rscale>  0 0.11541346E+04</rscale>
<asrwt>0</asrwt>
<pdfrwt beam="1">  1        2 0.12533865E+00 0.11541346E+04</pdfrwt>
<pdfrwt beam="2">  1       -1 0.62884149E-01 0.11541346E+04</pdfrwt>
<totfact> 0.97417445E+01</totfact>
</mgrwt>
</event>
<event>
12    7  0.1611233E-007  0.1466119E+04  0.7818608E-02  0.8907301E-01
         -1   -1    0    0    0  501 -0.00000000000E+00  0.00000000000E+00  0.16535115972E+03  0.16535115972E+03  0.00000000000E+00 0.  1.
          2   -1    0    0  501    0  0.00000000000E+00 -0.00000000000E+00 -0.32499104390E+04  0.32499104390E+04  0.00000000000E+00 0. -1.
         24    2    1    2    0    0 -0.80393333723E+02 -0.42522960145E+03 -0.13060105978E+04  0.13782885591E+04  0.82051012704E+02 0.  0.
        254    2    1    2    0    0  0.80393333723E+02  0.42522960145E+03 -0.17785486815E+04  0.20369730396E+04  0.89372280349E+03 0.  0.
         23    2    4    4    0    0 -0.36367935758E+03  0.30273306891E+02 -0.86041908814E+03  0.93905417610E+03  0.91228231246E+02 0.  0.
         23    2    4    4    0    0  0.44407269130E+03  0.39495629456E+03 -0.91812959339E+03  0.10979188635E+04  0.96295642800E+02 0.  0.
          4    1    3    3  502    0 -0.37258648242E+02 -0.16402242203E+03 -0.63609053969E+03  0.65795344553E+03  0.00000000000E+00 0. -1.
         -3    1    3    3    0  502 -0.43134685481E+02 -0.26120717942E+03 -0.66992005806E+03  0.72033511358E+03  0.00000000000E+00 0.  1.
         13    1    5    5    0    0 -0.18487461577E+03 -0.23244113178E+02 -0.36879014140E+03  0.41318891654E+03  0.00000000000E+00 0. -1.
        -13    1    5    5    0    0 -0.17880474180E+03  0.53517420069E+02 -0.49162894674E+03  0.52586525957E+03  0.00000000000E+00 0.  1.
          3    1    6    6  503    0  0.34462217955E+03  0.35255969971E+03 -0.77549754024E+03  0.91894462478E+03  0.00000000000E+00 0. -1.
         -3    1    6    6    0  503  0.99450511755E+02  0.42396594849E+02 -0.14263205315E+03  0.17897423873E+03  0.00000000000E+00 0.  1.
<mgrwt>
<rscale>  0 0.14661193E+04</rscale>
<asrwt>0</asrwt>
<pdfrwt beam="1">  1        2 0.49998621E+00 0.14661193E+04</pdfrwt>
<pdfrwt beam="2">  1       -1 0.25438640E-01 0.14661193E+04</pdfrwt>
<totfact> 0.18235209E+01</totfact>
</mgrwt>
</event>
<event>
12    7  0.1611233E-007  0.1322688E+04  0.7818608E-02  0.9011764E-01
         -1   -1    0    0    0  501 -0.00000000000E+00  0.00000000000E+00  0.55138386229E+03  0.55138386229E+03  0.00000000000E+00 0.  1.
          2   -1    0    0  501    0  0.00000000000E+00 -0.00000000000E+00 -0.79323306006E+03  0.79323306006E+03  0.00000000000E+00 0. -1.
         24    2    1    2    0    0  0.59372593321E+02  0.28548995469E+03  0.11118321714E+03  0.32228402025E+03  0.80471503439E+02 0.  0.
        254    2    1    2    0    0 -0.59372593321E+02 -0.28548995469E+03 -0.35303241491E+03  0.10223329021E+04  0.91405856360E+03 0.  0.
         23    2    4    4    0    0 -0.14911850128E+03  0.28640743619E+03 -0.26980958470E+03  0.43045414729E+03  0.90708400885E+02 0.  0.
         23    2    4    4    0    0  0.89745907962E+02 -0.57189739088E+03 -0.83222830210E+02  0.59187875482E+03  0.90958601829E+02 0.  0.
          4    1    3    3  502    0  0.94162136747E+01  0.46787069484E+02 -0.11789064628E+02  0.49159709068E+02  0.00000000000E+00 0. -1.
         -3    1    3    3    0  502  0.49956379646E+02  0.23870288521E+03  0.12297228177E+03  0.27312431118E+03  0.00000000000E+00 0.  1.
         13    1    5    5    0    0  0.53421538631E+01  0.16894423789E+01  0.35265431526E+01  0.66203723502E+01  0.00000000000E+00 0. -1.
        -13    1    5    5    0    0 -0.15446065515E+03  0.28471799381E+03 -0.27333612785E+03  0.42383377494E+03  0.00000000000E+00 0.  1.
          3    1    6    6  503    0 -0.12015375322E+02 -0.17029816426E+02 -0.96911769567E+01  0.22984838534E+02  0.00000000000E+00 0. -1.
         -3    1    6    6    0  503  0.10176128328E+03 -0.55486757446E+03 -0.73531653254E+02  0.56889391629E+03  0.00000000000E+00 0.  1.
<mgrwt>
<rscale>  0 0.13226880E+04</rscale>
<asrwt>0</asrwt>
<pdfrwt beam="1">  1        2 0.12203585E+00 0.13226880E+04</pdfrwt>
<pdfrwt beam="2">  1       -1 0.84828287E-01 0.13226880E+04</pdfrwt>
<totfact> 0.53550973E+01</totfact>
</mgrwt>
</event>
<event>
12    7  0.1611233E-007  0.2730327E+04  0.7818608E-02  0.8325231E-01
          2   -1    0    0  501    0  0.00000000000E+00  0.00000000000E+00  0.29280908294E+04  0.29280908294E+04  0.00000000000E+00 0. -1.
         -1   -1    0    0    0  501 -0.00000000000E+00 -0.00000000000E+00 -0.63648019997E+03  0.63648019997E+03  0.00000000000E+00 0.  1.
         24    2    1    2    0    0  0.10602422049E+04  0.39019990740E+03  0.16018433694E+04  0.19626360384E+04  0.98328725976E+02 0.  0.
        254    2    1    2    0    0 -0.10602422049E+04 -0.39019990740E+03  0.68976725996E+03  0.16019349909E+04  0.90224572124E+03 0.  0.
         23    2    4    4    0    0  0.76617558571E+02  0.13950832454E+03  0.12890960254E+03  0.22509210650E+03  0.93359241031E+02 0.  0.
         23    2    4    4    0    0 -0.11368597634E+04 -0.52970823194E+03  0.56085765741E+03  0.13768428844E+04  0.89967126084E+02 0.  0.
          4    1    3    3  502    0  0.96068882992E+03  0.36968989657E+03  0.14131795909E+04  0.17483335505E+04  0.00000000000E+00 0. -1.
         -3    1    3    3    0  502  0.99553374953E+02  0.20510010829E+02  0.18866377853E+03  0.21430248794E+03  0.00000000000E+00 0.  1.
         13    1    5    5    0    0  0.53372396003E+02  0.10089730814E+03  0.32519262673E+02  0.11868606443E+03  0.00000000000E+00 0. -1.
        -13    1    5    5    0    0  0.23245162568E+02  0.38611016401E+02  0.96390339870E+02  0.10640604208E+03  0.00000000000E+00 0.  1.
          1    1    6    6  503    0 -0.10588297148E+04 -0.49975297502E+03  0.49842649464E+03  0.12725181223E+04  0.00000000000E+00 0. -1.
         -1    1    6    6    0  503 -0.78030048619E+02 -0.29955256915E+02  0.62431162778E+02  0.10432476211E+03  0.00000000000E+00 0.  1.
<mgrwt>
<rscale>  0 0.27303273E+04</rscale>
<asrwt>0</asrwt>
<pdfrwt beam="1">  1        2 0.45047550E+00 0.27303273E+04</pdfrwt>
<pdfrwt beam="2">  1       -1 0.97920032E-01 0.27303273E+04</pdfrwt>
<totfact> 0.19195315E+00</totfact>
</mgrwt>
</event>
<event>
12    7  0.1611233E-007  0.2773059E+04  0.7818608E-02  0.8311682E-01
          2   -1    0    0  501    0  0.00000000000E+00  0.00000000000E+00  0.23479664434E+04  0.23479664434E+04  0.00000000000E+00 0. -1.
         -1   -1    0    0    0  501 -0.00000000000E+00 -0.00000000000E+00 -0.81877808634E+03  0.81877808634E+03  0.00000000000E+00 0.  1.
         24    2    1    2    0    0 -0.74042020205E+03 -0.73720226770E+02 -0.44673038655E+03  0.87172845394E+03  0.81766201493E+02 0.  0.
        254    2    1    2    0    0  0.74042020205E+03  0.73720226770E+02  0.19759187436E+04  0.22950160758E+04  0.89954830854E+03 0.  0.
         23    2    4    4    0    0  0.71351481651E+03 -0.29579858364E+03  0.14447880015E+04  0.16409042982E+04  0.92489734713E+02 0.  0.
         23    2    4    4    0    0  0.26905385548E+02  0.36951881041E+03  0.53113074206E+03  0.65411177759E+03  0.92164534349E+02 0.  0.
          2    1    3    3  502    0 -0.13678134317E+03 -0.18638986447E+02 -0.47811240052E+02  0.14609059631E+03  0.00000000000E+00 0. -1.
         -1    1    3    3    0  502 -0.60363885888E+03 -0.55081240323E+02 -0.39891914650E+03  0.72563785763E+03  0.00000000000E+00 0.  1.
         13    1    5    5    0    0  0.53908983870E+01  0.53154183005E+01  0.78596144329E+01  0.10912790485E+02  0.00000000000E+00 0. -1.
        -13    1    5    5    0    0  0.70812391812E+03 -0.30111400194E+03  0.14369283871E+04  0.16299915077E+04  0.00000000000E+00 0.  1.
          2    1    6    6  503    0  0.58642665245E+02  0.19290450473E+03  0.30106000656E+03  0.36233718783E+03  0.00000000000E+00 0. -1.
         -2    1    6    6    0  503 -0.31737279698E+02  0.17661430568E+03  0.23007073550E+03  0.29177458976E+03  0.00000000000E+00 0.  1.
<mgrwt>
<rscale>  0 0.27730586E+04</rscale>
<asrwt>0</asrwt>
<pdfrwt beam="1">  1        2 0.36122560E+00 0.27730586E+04</pdfrwt>
<pdfrwt beam="2">  1       -1 0.12596586E+00 0.27730586E+04</pdfrwt>
<totfact> 0.23172251E+00</totfact>
</mgrwt>
</event>
<event>
12    7  0.1611233E-007  0.1591138E+04  0.7818608E-02  0.8826011E-01
         -1   -1    0    0    0  501 -0.00000000000E+00  0.00000000000E+00  0.22860182944E+04  0.22860182944E+04  0.00000000000E+00 0.  1.
          2   -1    0    0  501    0  0.00000000000E+00 -0.00000000000E+00 -0.27687012328E+03  0.27687012328E+03  0.00000000000E+00 0. -1.
         24    2    1    2    0    0 -0.39221755246E+03 -0.43032488721E+02  0.12770233107E+04  0.13388720491E+04  0.78124415435E+02 0.  0.
        254    2    1    2    0    0  0.39221755246E+03  0.43032488721E+02  0.73212486037E+03  0.12240163685E+04  0.89806617557E+03 0.  0.
         23    2    4    4    0    0  0.12647069779E+03 -0.41384273184E+03  0.37359716765E+03  0.57912156752E+03  0.92446212420E+02 0.  0.
         23    2    4    4    0    0  0.26574685466E+03  0.45687522056E+03  0.35852769272E+03  0.64489480101E+03  0.89391498410E+02 0.  0.
          2    1    3    3  502    0 -0.20281577535E+02  0.10069039782E+02  0.12789542703E+03  0.12988444173E+03  0.00000000000E+00 0. -1.
         -1    1    3    3    0  502 -0.37193597492E+03 -0.53101528503E+02  0.11491278837E+04  0.12089876074E+04  0.00000000000E+00 0.  1.
         13    1    5    5    0    0  0.13133466685E+03 -0.28890103946E+03  0.26209696379E+03  0.41159133099E+03  0.00000000000E+00 0.  1.
        -13    1    5    5    0    0 -0.48639690620E+01 -0.12494169239E+03  0.11150020386E+03  0.16753023653E+03  0.00000000000E+00 0. -1.
          4    1    6    6  503    0  0.23183078367E+03  0.33109221591E+03  0.24929604551E+03  0.47488533985E+03  0.00000000000E+00 0. -1.
         -4    1    6    6    0  503  0.33916070990E+02  0.12578300466E+03  0.10923164721E+03  0.17000946116E+03  0.00000000000E+00 0.  1.
<mgrwt>
<rscale>  0 0.15911382E+04</rscale>
<asrwt>0</asrwt>
<pdfrwt beam="1">  1        2 0.42595405E-01 0.15911382E+04</pdfrwt>
<pdfrwt beam="2">  1       -1 0.35169511E+00 0.15911382E+04</pdfrwt>
<totfact> 0.20059135E+00</totfact>
</mgrwt>
</event>
<event>
12    7  0.1611233E-007  0.1188505E+04  0.7818608E-02  0.9122978E-01
          2   -1    0    0  501    0  0.00000000000E+00  0.00000000000E+00  0.31239299621E+03  0.31239299621E+03  0.00000000000E+00 0. -1.
         -1   -1    0    0    0  501 -0.00000000000E+00 -0.00000000000E+00 -0.11304217559E+04  0.11304217559E+04  0.00000000000E+00 0.  1.
         24    2    1    2    0    0  0.13297941996E+03 -0.21578271748E+02 -0.31171515957E+03  0.34815022740E+03  0.76766478264E+02 0.  0.
        254    2    1    2    0    0 -0.13297941996E+03  0.21578271748E+02 -0.50631360011E+03  0.10946645247E+04  0.96113880997E+03 0.  0.
         23    2    4    4    0    0  0.26808684034E+03  0.29891184581E+03 -0.39931885241E+02  0.41389743221E+03  0.92182880166E+02 0.  0.
         23    2    4    4    0    0 -0.40106626031E+03 -0.27733357407E+03 -0.46638171487E+03  0.68076709249E+03  0.90354157589E+02 0.  0.
          4    1    3    3  502    0  0.41527097647E+02 -0.34406089297E+02 -0.17536979438E+03  0.18347436769E+03  0.00000000000E+00 0. -1.
         -3    1    3    3    0  502  0.91452322317E+02  0.12827817549E+02 -0.13634536519E+03  0.16467585971E+03  0.00000000000E+00 0.  1.
         13    1    5    5    0    0  0.12112157661E+03  0.82369936401E+02  0.12442859613E+02  0.14700363090E+03  0.00000000000E+00 0. -1.
        -13    1    5    5    0    0  0.14696526373E+03  0.21654190941E+03 -0.52374744853E+02  0.26689380130E+03  0.00000000000E+00 0.  1.
          3    1    6    6  503    0 -0.15427999401E+03 -0.57498214846E+02 -0.13747847643E+03  0.21449637000E+03  0.00000000000E+00 0. -1.
         -3    1    6    6    0  503 -0.24678626630E+03 -0.21983535922E+03 -0.32890323844E+03  0.46627072249E+03  0.00000000000E+00 0.  1.
<mgrwt>
<rscale>  0 0.11885047E+04</rscale>
<asrwt>0</asrwt>
<pdfrwt beam="1">  1        2 0.48060460E-01 0.11885047E+04</pdfrwt>
<pdfrwt beam="2">  1       -1 0.17391104E+00 0.11885047E+04</pdfrwt>
<totfact> 0.27348436E+01</totfact>
</mgrwt>
</event>
<event>
12    7  0.1611233E-007  0.1840967E+04  0.7818608E-02  0.8684812E-01
          2   -1    0    0  501    0  0.00000000000E+00  0.00000000000E+00  0.77549533541E+03  0.77549533541E+03  0.00000000000E+00 0. -1.
         -1   -1    0    0    0  501 -0.00000000000E+00 -0.00000000000E+00 -0.10925788842E+04  0.10925788842E+04  0.00000000000E+00 0.  1.
         24    2    1    2    0    0  0.28932465916E+03  0.12800216317E+03 -0.75806525500E+03  0.82523823934E+03  0.79132222549E+02 0.  0.
        254    2    1    2    0    0 -0.28932465916E+03 -0.12800216317E+03  0.44098170621E+03  0.10428359803E+04  0.89047667255E+03 0.  0.
         23    2    4    4    0    0  0.14476772356E+03 -0.16932488904E+03 -0.16319640638E+03  0.29181052200E+03  0.94295821022E+02 0.  0.
         23    2    4    4    0    0 -0.43409238273E+03  0.41322725869E+02  0.60417811259E+03  0.75102545827E+03  0.94150320377E+02 0.  0.
          4    1    3    3  502    0  0.83299748946E+02  0.25941744100E+02 -0.13140409006E+03  0.15773033046E+03  0.00000000000E+00 0. -1.
         -3    1    3    3    0  502  0.20602491022E+03  0.10206041907E+03 -0.62666116494E+03  0.66750790888E+03  0.00000000000E+00 0.  1.
         13    1    5    5    0    0  0.10640792521E+03 -0.66046294402E+02 -0.12007023141E+03  0.17349818449E+03  0.00000000000E+00 0. -1.
        -13    1    5    5    0    0  0.38359798356E+02 -0.10327859463E+03 -0.43126174972E+02  0.11831233751E+03  0.00000000000E+00 0.  1.
          4    1    6    6  503    0 -0.37106838477E+03  0.15386565019E+01  0.48937998346E+03  0.61415542158E+03  0.00000000000E+00 0. -1.
         -4    1    6    6    0  503 -0.63023997958E+02  0.39784069368E+02  0.11479812913E+03  0.13687003670E+03  0.00000000000E+00 0.  1.
<mgrwt>
<rscale>  0 0.18409670E+04</rscale>
<asrwt>0</asrwt>
<pdfrwt beam="1">  1        2 0.11930697E+00 0.18409670E+04</pdfrwt>
<pdfrwt beam="2">  1       -1 0.16808906E+00 0.18409670E+04</pdfrwt>
<totfact> 0.98004862E+00</totfact>
</mgrwt>
</event>
<event>
12    7  0.1611233E-007  0.2684654E+04  0.7818608E-02  0.8340001E-01
         -1   -1    0    0    0  501 -0.00000000000E+00  0.00000000000E+00  0.62242625208E+03  0.62242625208E+03  0.00000000000E+00 0.  1.
          2   -1    0    0  501    0  0.00000000000E+00 -0.00000000000E+00 -0.28948679709E+04  0.28948679709E+04  0.00000000000E+00 0. -1.
         24    2    1    2    0    0  0.22777291273E+03 -0.43063166066E+03 -0.24272591497E+04  0.24772232031E+04  0.87884533542E+02 0.  0.
        254    2    1    2    0    0 -0.22777291273E+03  0.43063166066E+03  0.15481743092E+03  0.10400710198E+04  0.90578980037E+03 0.  0.
         23    2    4    4    0    0 -0.39490354577E+03  0.17572737846E+03  0.43274066964E+03  0.61835968025E+03  0.90968593466E+02 0.  0.
         23    2    4    4    0    0  0.16713063304E+03  0.25490428220E+03 -0.27792323872E+03  0.42171133959E+03  0.87694274234E+02 0.  0.
          2    1    3    3  502    0  0.20276849606E+03 -0.30221228341E+03 -0.18201529007E+04  0.18561799237E+04  0.00000000000E+00 0. -1.
         -1    1    3    3    0  502  0.25004416669E+02 -0.12841937725E+03 -0.60710624902E+03  0.62104327941E+03  0.00000000000E+00 0.  1.
         13    1    5    5    0    0 -0.31066687490E+03  0.17639751233E+03  0.35759422536E+03  0.50547365859E+03  0.00000000000E+00 0. -1.
        -13    1    5    5    0    0 -0.84236670870E+02 -0.67013387011E+00  0.75146444275E+02  0.11288602166E+03  0.00000000000E+00 0.  1.
          3    1    6    6  503    0  0.17091423437E+03  0.23704861872E+03 -0.27816244093E+03  0.40345763928E+03  0.00000000000E+00 0. -1.
         -3    1    6    6    0  503 -0.37836013279E+01  0.17855663481E+02  0.23920221323E+00  0.18253700311E+02  0.00000000000E+00 0.  1.
<mgrwt>
<rscale>  0 0.26846540E+04</rscale>
<asrwt>0</asrwt>
<pdfrwt beam="1">  1        2 0.44536431E+00 0.26846540E+04</pdfrwt>
<pdfrwt beam="2">  1       -1 0.95757884E-01 0.26846540E+04</pdfrwt>
<totfact> 0.21248631E+00</totfact>
</mgrwt>
</event>
<event>
12    7  0.1611233E-007  0.1630924E+04  0.7818608E-02  0.8801772E-01
         -1   -1    0    0    0  501 -0.00000000000E+00  0.00000000000E+00  0.33984680007E+03  0.33984680007E+03  0.00000000000E+00 0.  1.
          2   -1    0    0  501    0  0.00000000000E+00 -0.00000000000E+00 -0.19567010330E+04  0.19567010330E+04  0.00000000000E+00 0. -1.
         24    2    1    2    0    0  0.62740655643E+02 -0.14336636024E+03  0.19814059120E+03  0.26524278287E+03  0.81263379588E+02 0.  0.
        254    2    1    2    0    0 -0.62740655643E+02  0.14336636024E+03 -0.18149948241E+04  0.20313050502E+04  0.89861209220E+03 0.  0.
         23    2    4    4    0    0  0.25536069945E+03  0.27466709287E+03 -0.15206983578E+04  0.15689575691E+04  0.91941609224E+02 0.  0.
         23    2    4    4    0    0 -0.31810135509E+03 -0.13130073263E+03 -0.29429646630E+03  0.46234748107E+03  0.93415355667E+02 0.  0.
          4    1    3    3  502    0  0.71476838841E+02 -0.10388751673E+03  0.10642050276E+03  0.16500569090E+03  0.00000000000E+00 0. -1.
         -3    1    3    3    0  502 -0.87361831982E+01 -0.39478843516E+02  0.91720088438E+02  0.10023709196E+03  0.00000000000E+00 0.  1.
         13    1    5    5    0    0  0.97174961602E+01  0.41875153966E+02 -0.10693489062E+03  0.11525202420E+03  0.00000000000E+00 0. -1.
        -13    1    5    5    0    0  0.24564320329E+03  0.23279193890E+03 -0.14137634672E+04  0.14537055449E+04  0.00000000000E+00 0.  1.
          4    1    6    6  503    0 -0.91167054560E+02 -0.52347705873E+02 -0.14628486257E+03  0.18014154203E+03  0.00000000000E+00 0. -1.
         -4    1    6    6    0  503 -0.22693430053E+03 -0.78953026755E+02 -0.14801160373E+03  0.28220593905E+03  0.00000000000E+00 0.  1.
<mgrwt>
<rscale>  0 0.16309244E+04</rscale>
<asrwt>0</asrwt>
<pdfrwt beam="1">  1        2 0.30103092E+00 0.16309244E+04</pdfrwt>
<pdfrwt beam="2">  1       -1 0.52284124E-01 0.16309244E+04</pdfrwt>
<totfact> 0.28359470E+01</totfact>
</mgrwt>
</event>
<event>
12    7  0.1611233E-007  0.1891004E+04  0.7818608E-02  0.8659347E-01
          2   -1    0    0  501    0  0.00000000000E+00  0.00000000000E+00  0.10925680159E+04  0.10925680159E+04  0.00000000000E+00 0. -1.
         -1   -1    0    0    0  501 -0.00000000000E+00 -0.00000000000E+00 -0.81823151096E+03  0.81823151096E+03  0.00000000000E+00 0.  1.
         24    2    1    2    0    0 -0.62820775829E+03  0.30765065120E+03 -0.56078518103E+02  0.70659244418E+03  0.82669046298E+02 0.  0.
        254    2    1    2    0    0  0.62820775829E+03 -0.30765065120E+03  0.33041502301E+03  0.12042070827E+04  0.92284706194E+03 0.  0.
         23    2    4    4    0    0  0.68218989865E+03 -0.50545429272E+03  0.66234787935E+02  0.85643804760E+03  0.90730272774E+02 0.  0.
         23    2    4    4    0    0 -0.53982140356E+02  0.19780364152E+03  0.26418023508E+03  0.34776903506E+03  0.95455503072E+02 0.  0.
          2    1    3    3  502    0 -0.20143218888E+03  0.11334253099E+03  0.18081441188E+02  0.23183699999E+03  0.00000000000E+00 0. -1.
         -1    1    3    3    0  502 -0.42677556941E+03  0.19430812021E+03 -0.74159959291E+02  0.47475544419E+03  0.00000000000E+00 0.  1.
         13    1    5    5    0    0  0.57027906524E+03 -0.46062751558E+03  0.49717600385E+02  0.73475693951E+03  0.00000000000E+00 0. -1.
        -13    1    5    5    0    0  0.11191083340E+03 -0.44826777133E+02  0.16517187550E+02  0.12168110809E+03  0.00000000000E+00 0.  1.
          3    1    6    6  503    0 -0.15032424997E+02 -0.66931451501E+01  0.31629794830E+02  0.35654114970E+02  0.00000000000E+00 0.  1.
         -3    1    6    6    0  503 -0.38949715358E+02  0.20449678667E+03  0.23255044025E+03  0.31211492009E+03  0.00000000000E+00 0. -1.
<mgrwt>
<rscale>  0 0.18910035E+04</rscale>
<asrwt>0</asrwt>
<pdfrwt beam="1">  1        2 0.16808739E+00 0.18910035E+04</pdfrwt>
<pdfrwt beam="2">  1       -1 0.12588177E+00 0.18910035E+04</pdfrwt>
<totfact> 0.12943857E+01</totfact>
</mgrwt>
</event>
<event>
12    7  0.1611233E-007  0.1788383E+04  0.7818608E-02  0.8712502E-01
         -1   -1    0    0    0  501 -0.00000000000E+00  0.00000000000E+00  0.34485295374E+03  0.34485295374E+03  0.00000000000E+00 0.  1.
          2   -1    0    0  501    0  0.00000000000E+00 -0.00000000000E+00 -0.23186056091E+04  0.23186056091E+04  0.00000000000E+00 0. -1.
         24    2    1    2    0    0  0.36543243741E+03 -0.56125104003E+02 -0.15832948233E+04  0.16278535437E+04  0.79961043396E+02 0.  0.
        254    2    1    2    0    0 -0.36543243741E+03  0.56125104003E+02 -0.39045783197E+03  0.10356050191E+04  0.88505906212E+03 0.  0.
         23    2    4    4    0    0 -0.37143621271E+03  0.28734190953E+03 -0.55740754211E+03  0.73438241753E+03  0.89911812837E+02 0.  0.
         23    2    4    4    0    0  0.60037753051E+01 -0.23121680552E+03  0.16694971014E+03  0.30122260157E+03  0.96775996547E+02 0.  0.
          2    1    3    3  502    0  0.28588677963E+03 -0.24549599034E+02 -0.13262636617E+04  0.13569485009E+04  0.00000000000E+00 0. -1.
         -1    1    3    3    0  502  0.79545657781E+02 -0.31575504969E+02 -0.25703116163E+03  0.27090504284E+03  0.00000000000E+00 0.  1.
         13    1    5    5    0    0 -0.18550808221E+03  0.12637587244E+03 -0.20063252758E+03  0.30106065971E+03  0.00000000000E+00 0. -1.
        -13    1    5    5    0    0 -0.18592813050E+03  0.16096603709E+03 -0.35677501453E+03  0.43332175782E+03  0.00000000000E+00 0.  1.
          2    1    6    6  503    0 -0.26781081456E+01 -0.22951087596E+03  0.13116625214E+03  0.26436149521E+03  0.00000000000E+00 0.  1.
         -2    1    6    6    0  503  0.86818834507E+01 -0.17059295598E+01  0.35783457999E+02  0.36861106362E+02  0.00000000000E+00 0. -1.
<mgrwt>
<rscale>  0 0.17883825E+04</rscale>
<asrwt>0</asrwt>
<pdfrwt beam="1">  1        2 0.35670854E+00 0.17883825E+04</pdfrwt>
<pdfrwt beam="2">  1       -1 0.53054303E-01 0.17883825E+04</pdfrwt>
<totfact> 0.17065593E+01</totfact>
</mgrwt>
</event>
<event>
12    7  0.1611233E-007  0.1979367E+04  0.7818608E-02  0.8616328E-01
         -1   -1    0    0    0  501 -0.00000000000E+00  0.00000000000E+00  0.28977936650E+03  0.28977936650E+03  0.00000000000E+00 0.  1.
          2   -1    0    0  501    0  0.00000000000E+00 -0.00000000000E+00 -0.33800671632E+04  0.33800671632E+04  0.00000000000E+00 0. -1.
         24    2    1    2    0    0  0.73388237574E+03  0.24591921466E+03 -0.14170415309E+04  0.16165677565E+04  0.78898729833E+02 0.  0.
        254    2    1    2    0    0 -0.73388237574E+03 -0.24591921466E+03 -0.16732462658E+04  0.20532787732E+04  0.90395854596E+03 0.  0.
         23    2    4    4    0    0 -0.51155252094E+03 -0.20948404724E+03 -0.17176707957E+04  0.18064849484E+04  0.86170520152E+02 0.  0.
         23    2    4    4    0    0 -0.22232985480E+03 -0.36435167413E+02  0.44424529950E+02  0.24679382477E+03  0.90418843842E+02 0.  0.
          4    1    3    3  502    0  0.18959714364E+02  0.14207188607E+02 -0.72127639853E+02  0.75919110951E+02  0.00000000000E+00 0. -1.
         -3    1    3    3    0  502  0.71492266138E+03  0.23171202605E+03 -0.13449138911E+04  0.15406486456E+04  0.00000000000E+00 0.  1.
         13    1    5    5    0    0 -0.37834756441E+03 -0.18187323393E+03 -0.12030508348E+04  0.12741883942E+04  0.00000000000E+00 0.  1.
        -13    1    5    5    0    0 -0.13320495654E+03 -0.27610813317E+02 -0.51461996095E+03  0.53229655425E+03  0.00000000000E+00 0. -1.
          4    1    6    6  503    0 -0.62003710338E+02 -0.44396767306E+02 -0.10833755369E+02  0.77025341923E+02  0.00000000000E+00 0. -1.
         -4    1    6    6    0  503 -0.16032614446E+03  0.79615998925E+01  0.55258285318E+02  0.16976848284E+03  0.00000000000E+00 0.  1.
<mgrwt>
<rscale>  0 0.19793673E+04</rscale>
<asrwt>0</asrwt>
<pdfrwt beam="1">  1        2 0.52001030E+00 0.19793673E+04</pdfrwt>
<pdfrwt beam="2">  1       -1 0.44581444E-01 0.19793673E+04</pdfrwt>
<totfact> 0.52186404E+00</totfact>
</mgrwt>
</event>
<event>
12    7  0.1611233E-007  0.1417780E+04  0.7818608E-02  0.8941048E-01
         -1   -1    0    0    0  501 -0.00000000000E+00  0.00000000000E+00  0.26208223301E+03  0.26208223301E+03  0.00000000000E+00 0.  1.
          2   -1    0    0  501    0  0.00000000000E+00 -0.00000000000E+00 -0.19174314578E+04  0.19174314578E+04  0.00000000000E+00 0. -1.
         24    2    1    2    0    0  0.25623544232E+02 -0.40415600059E+03 -0.64196008933E+03  0.76301652108E+03  0.77992411832E+02 0.  0.
        254    2    1    2    0    0 -0.25623544232E+02  0.40415600059E+03 -0.10133891354E+04  0.14164971697E+04  0.90305484504E+03 0.  0.
         23    2    4    4    0    0 -0.82984317891E+02  0.67448371411E+03 -0.80767122270E+03  0.10594735596E+04  0.91305760857E+02 0.  0.
         23    2    4    4    0    0  0.57360773659E+02 -0.27032771352E+03 -0.20571791275E+03  0.35702361009E+03  0.93694543505E+02 0.  0.
          4    1    3    3  502    0  0.14760444857E+02 -0.18660190718E+03 -0.36930586089E+03  0.41403497603E+03  0.00000000000E+00 0. -1.
         -3    1    3    3    0  502  0.10863099374E+02 -0.21755409341E+03 -0.27265422845E+03  0.34898154504E+03  0.00000000000E+00 0.  1.
         13    1    5    5    0    0 -0.46546106873E+02  0.59654348121E+03 -0.68348810242E+03  0.90839784851E+03  0.00000000000E+00 0.  1.
        -13    1    5    5    0    0 -0.36438211018E+02  0.77940232903E+02 -0.12418312028E+03  0.15107571112E+03  0.00000000000E+00 0. -1.
          1    1    6    6  503    0  0.96410618141E+01 -0.36170310672E+02 -0.76941393271E+02  0.85564124757E+02  0.00000000000E+00 0. -1.
         -1    1    6    6    0  503  0.47719711845E+02 -0.23415740285E+03 -0.12877651948E+03  0.27145948533E+03  0.00000000000E+00 0.  1.
<mgrwt>
<rscale>  0 0.14177796E+04</rscale>
<asrwt>0</asrwt>
<pdfrwt beam="1">  1        2 0.29498945E+00 0.14177796E+04</pdfrwt>
<pdfrwt beam="2">  1       -1 0.40320344E-01 0.14177796E+04</pdfrwt>
<totfact> 0.49374070E+01</totfact>
</mgrwt>
</event>
<event>
12    7  0.1611233E-007  0.1579586E+04  0.7818608E-02  0.8833188E-01
         -1   -1    0    0    0  501 -0.00000000000E+00  0.00000000000E+00  0.42628546114E+03  0.42628546114E+03  0.00000000000E+00 0.  1.
          2   -1    0    0  501    0  0.00000000000E+00 -0.00000000000E+00 -0.14632751959E+04  0.14632751959E+04  0.00000000000E+00 0. -1.
         24    2    1    2    0    0  0.52019847837E+02 -0.52579048716E+03 -0.30372927616E+03  0.61482793734E+03  0.81241728080E+02 0.  0.
        254    2    1    2    0    0 -0.52019847837E+02  0.52579048716E+03 -0.73326045863E+03  0.12747327197E+04  0.89894989049E+03 0.  0.
         23    2    4    4    0    0 -0.26032182093E+03 -0.14098594697E+03 -0.36832780908E+03  0.48134285688E+03  0.91548256312E+02 0.  0.
         23    2    4    4    0    0  0.20830197310E+03  0.66677643413E+03 -0.36493264955E+03  0.79338986285E+03  0.91165293079E+02 0.  0.
          4    1    3    3  502    0  0.57759471709E+01 -0.23511465675E+03 -0.17711791765E+03  0.29441980255E+03  0.00000000000E+00 0. -1.
         -3    1    3    3    0  502  0.46243900666E+02 -0.29067583041E+03 -0.12661135852E+03  0.32040813479E+03  0.00000000000E+00 0.  1.
         13    1    5    5    0    0 -0.25542378982E+03 -0.11217898552E+03 -0.34663262219E+03  0.44494899929E+03  0.00000000000E+00 0.  1.
        -13    1    5    5    0    0 -0.48980311123E+01 -0.28806961446E+02 -0.21695186887E+02  0.36393857594E+02  0.00000000000E+00 0. -1.
          1    1    6    6  503    0  0.48002434041E+02  0.26691988397E+03 -0.17371139583E+03  0.32206537717E+03  0.00000000000E+00 0. -1.
         -1    1    6    6    0  503  0.16029953905E+03  0.39985655015E+03 -0.19122125373E+03  0.47132448568E+03  0.00000000000E+00 0.  1.
<mgrwt>
<rscale>  0 0.15795859E+04</rscale>
<asrwt>0</asrwt>
<pdfrwt beam="1">  1        2 0.22511926E+00 0.15795859E+04</pdfrwt>
<pdfrwt beam="2">  1       -1 0.65582378E-01 0.15795859E+04</pdfrwt>
<totfact> 0.34349352E+01</totfact>
</mgrwt>
</event>
<event>
12    7  0.1611233E-007  0.1616519E+04  0.7818608E-02  0.8810464E-01
         -1   -1    0    0    0  501 -0.00000000000E+00  0.00000000000E+00  0.36398963447E+03  0.36398963447E+03  0.00000000000E+00 0.  1.
          2   -1    0    0  501    0  0.00000000000E+00 -0.00000000000E+00 -0.17947858653E+04  0.17947858653E+04  0.00000000000E+00 0. -1.
         24    2    1    2    0    0  0.41131671119E+03 -0.36272698680E+03 -0.58259582283E+03  0.80410872271E+03  0.80128904320E+02 0.  0.
        254    2    1    2    0    0 -0.41131671119E+03  0.36272698680E+03 -0.84820040800E+03  0.13546667771E+04  0.90273243038E+03 0.  0.
         23    2    4    4    0    0 -0.56026296588E+03  0.82351804682E+02 -0.16685235532E+03  0.59739357750E+03  0.91449260751E+02 0.  0.
         23    2    4    4    0    0  0.14894625469E+03  0.28037518212E+03 -0.68134805268E+03  0.75727319955E+03  0.91827557599E+02 0.  0.
          4    1    3    3  502    0  0.43555090821E+01 -0.18270442840E+02 -0.35625359941E+02  0.40273388383E+02  0.00000000000E+00 0. -1.
         -3    1    3    3    0  502  0.40696120211E+03 -0.34445654396E+03 -0.54697046288E+03  0.76383533433E+03  0.00000000000E+00 0.  1.
         13    1    5    5    0    0 -0.10983871778E+03 -0.85330861380E+01 -0.60717830143E+02  0.12579353076E+03  0.00000000000E+00 0. -1.
        -13    1    5    5    0    0 -0.45042424810E+03  0.90884890820E+02 -0.10613452518E+03  0.47160004674E+03  0.00000000000E+00 0.  1.
          3    1    6    6  503    0  0.93236744583E+02  0.21890870460E+03 -0.41575683749E+03  0.47902803615E+03  0.00000000000E+00 0. -1.
         -3    1    6    6    0  503  0.55709510106E+02  0.61466477516E+02 -0.26559121519E+03  0.27824516341E+03  0.00000000000E+00 0.  1.
<mgrwt>
<rscale>  0 0.16165190E+04</rscale>
<asrwt>0</asrwt>
<pdfrwt beam="1">  1        2 0.27612090E+00 0.16165190E+04</pdfrwt>
<pdfrwt beam="2">  1       -1 0.55998405E-01 0.16165190E+04</pdfrwt>
<totfact> 0.30572177E+01</totfact>
</mgrwt>
</event>
<event>
12    7  0.1611233E-007  0.1754265E+04  0.7818608E-02  0.8731006E-01
         -1   -1    0    0    0  501 -0.00000000000E+00  0.00000000000E+00  0.23741465861E+03  0.23741465861E+03  0.00000000000E+00 0.  1.
          2   -1    0    0  501    0  0.00000000000E+00 -0.00000000000E+00 -0.32405806414E+04  0.32405806414E+04  0.00000000000E+00 0. -1.
         24    2    1    2    0    0  0.32141216216E+03  0.39997149093E+03 -0.18773955942E+04  0.19478607798E+04  0.79148144557E+02 0.  0.
        254    2    1    2    0    0 -0.32141216216E+03 -0.39997149093E+03 -0.11257703886E+04  0.15301345202E+04  0.90037198455E+03 0.  0.
         23    2    4    4    0    0 -0.32800983173E+03 -0.66596728713E+03 -0.73948393526E+03  0.10519005001E+04  0.92494834446E+02 0.  0.
         23    2    4    4    0    0  0.65976695664E+01  0.26599579620E+03 -0.38628645333E+03  0.47823402009E+03  0.93237659259E+02 0.  0.
          4    1    3    3  502    0  0.68584182716E+02  0.11763787201E+03 -0.39617782017E+03  0.41892639479E+03  0.00000000000E+00 0. -1.
         -3    1    3    3    0  502  0.25282797945E+03  0.28233361891E+03 -0.14812177740E+04  0.15289343850E+04  0.00000000000E+00 0.  1.
         13    1    5    5    0    0 -0.50415653178E+02 -0.19408817464E+03 -0.19070000306E+03  0.27672811347E+03  0.00000000000E+00 0.  1.
        -13    1    5    5    0    0 -0.27759417855E+03 -0.47187911249E+03 -0.54878393221E+03  0.77517238665E+03  0.00000000000E+00 0. -1.
          4    1    6    6  503    0  0.48601383212E+02  0.17421413381E+03 -0.24070552734E+03  0.30108438977E+03  0.00000000000E+00 0. -1.
         -4    1    6    6    0  503 -0.42003713645E+02  0.91781662392E+02 -0.14558092599E+03  0.17714963032E+03  0.00000000000E+00 0.  1.
<mgrwt>
<rscale>  0 0.17542649E+04</rscale>
<asrwt>0</asrwt>
<pdfrwt beam="1">  1        2 0.49855081E+00 0.17542649E+04</pdfrwt>
<pdfrwt beam="2">  1       -1 0.36525337E-01 0.17542649E+04</pdfrwt>
<totfact> 0.95145542E+00</totfact>
</mgrwt>
</event>
<event>
12    7  0.1611233E-007  0.1354526E+04  0.7818608E-02  0.8987409E-01
          2   -1    0    0  501    0  0.00000000000E+00  0.00000000000E+00  0.22000095318E+04  0.22000095318E+04  0.00000000000E+00 0. -1.
         -1   -1    0    0    0  501 -0.00000000000E+00 -0.00000000000E+00 -0.20849247265E+03  0.20849247265E+03  0.00000000000E+00 0.  1.
         24    2    1    2    0    0  0.28683670458E+03 -0.94208862242E+02  0.17311135243E+03  0.35720548403E+03  0.80483617354E+02 0.  0.
        254    2    1    2    0    0 -0.28683670458E+03  0.94208862242E+02  0.18184057068E+04  0.20512965205E+04  0.90003749681E+03 0.  0.
         23    2    4    4    0    0 -0.48128003323E+03  0.35701902450E+03  0.12457082900E+04  0.13855526091E+04  0.94201031709E+02 0.  0.
         23    2    4    4    0    0  0.19444332865E+03 -0.26281016225E+03  0.57269741672E+03  0.66574391139E+03  0.91406974569E+02 0.  0.
          2    1    3    3  502    0  0.11234583740E+03 -0.13823742319E+02  0.10193809244E+03  0.15232878166E+03  0.00000000000E+00 0. -1.
         -1    1    3    3    0  502  0.17449086719E+03 -0.80385119923E+02  0.71173259982E+02  0.20487670237E+03  0.00000000000E+00 0.  1.
         13    1    5    5    0    0 -0.34122688176E+03  0.26965506547E+03  0.80547893974E+03  0.91539388327E+03  0.00000000000E+00 0. -1.
        -13    1    5    5    0    0 -0.14005315147E+03  0.87363959029E+02  0.44022935030E+03  0.47015872579E+03  0.00000000000E+00 0.  1.
          1    1    6    6  503    0  0.11959439518E+03 -0.12071181421E+03  0.21818482166E+03  0.27654796664E+03  0.00000000000E+00 0.  1.
         -1    1    6    6    0  503  0.74848933469E+02 -0.14209834804E+03  0.35451259506E+03  0.38919594476E+03  0.00000000000E+00 0. -1.
<mgrwt>
<rscale>  0 0.13545264E+04</rscale>
<asrwt>0</asrwt>
<pdfrwt beam="1">  1        2 0.33846299E+00 0.13545264E+04</pdfrwt>
<pdfrwt beam="2">  1       -1 0.32075767E-01 0.13545264E+04</pdfrwt>
<totfact> 0.52166506E+01</totfact>
</mgrwt>
</event>
<event>
12    7  0.1611233E-007  0.1508430E+04  0.7818608E-02  0.8878866E-01
         -1   -1    0    0    0  501 -0.00000000000E+00  0.00000000000E+00  0.11585813227E+04  0.11585813227E+04  0.00000000000E+00 0.  1.
          2   -1    0    0  501    0  0.00000000000E+00 -0.00000000000E+00 -0.49098014420E+03  0.49098014420E+03  0.00000000000E+00 0. -1.
         24    2    1    2    0    0 -0.90076182758E+02 -0.18893857462E+03 -0.26566453738E+03  0.34652858210E+03  0.75451362557E+02 0.  0.
        254    2    1    2    0    0  0.90076182758E+02  0.18893857462E+03  0.93326571589E+03  0.13030328848E+04  0.88492841448E+03 0.  0.
         23    2    4    4    0    0 -0.16342712458E+03 -0.29445862871E+03  0.28680615576E+03  0.45191944511E+03  0.92515430173E+02 0.  0.
         23    2    4    4    0    0  0.25350330734E+03  0.48339720333E+03  0.64645956014E+03  0.85111343970E+03  0.92451832412E+02 0.  0.
          2    1    3    3  502    0 -0.32489516745E+02 -0.13272367487E+03 -0.20219135904E+03  0.24403378504E+03  0.00000000000E+00 0. -1.
         -1    1    3    3    0  502 -0.57586666014E+02 -0.56214899746E+02 -0.63473178340E+02  0.10249479706E+03  0.00000000000E+00 0.  1.
         13    1    5    5    0    0 -0.20012882450E+02 -0.11263766150E+03  0.12480790744E+03  0.16930673941E+03  0.00000000000E+00 0. -1.
        -13    1    5    5    0    0 -0.14341424213E+03 -0.18182096722E+03  0.16199824832E+03  0.28261270570E+03  0.00000000000E+00 0.  1.
          4    1    6    6  503    0  0.49018442384E+02  0.18145265557E+03  0.19622110065E+03  0.27171785780E+03  0.00000000000E+00 0. -1.
         -4    1    6    6    0  503  0.20448486496E+03  0.30194454776E+03  0.45023845949E+03  0.57939558190E+03  0.00000000000E+00 0.  1.
<mgrwt>
<rscale>  0 0.15084302E+04</rscale>
<asrwt>0</asrwt>
<pdfrwt beam="1">  1        2 0.75535407E-01 0.15084302E+04</pdfrwt>
<pdfrwt beam="2">  1       -1 0.17824328E+00 0.15084302E+04</pdfrwt>
<totfact> 0.14876118E+01</totfact>
</mgrwt>
</event>
<event>
12    7  0.1611233E-007  0.1869649E+04  0.7818608E-02  0.8670113E-01
         -1   -1    0    0    0  501 -0.00000000000E+00  0.00000000000E+00  0.87146717546E+03  0.87146717546E+03  0.00000000000E+00 0.  1.
          2   -1    0    0  501    0  0.00000000000E+00 -0.00000000000E+00 -0.10027884324E+04  0.10027884324E+04  0.00000000000E+00 0. -1.
         24    2    1    2    0    0  0.63275657881E+03  0.33817889511E+03 -0.88611216905E+02  0.72720295782E+03  0.78907166858E+02 0.  0.
        254    2    1    2    0    0 -0.63275657881E+03 -0.33817889511E+03 -0.42710039986E+02  0.11470526500E+04  0.89395737103E+03 0.  0.
         23    2    4    4    0    0 -0.26814630804E+03  0.62320574366E+02 -0.39857121107E+03  0.49261941397E+03  0.89602344969E+02 0.  0.
         23    2    4    4    0    0 -0.36461027077E+03 -0.40049946948E+03  0.35586117108E+03  0.65443323602E+03  0.91132939825E+02 0.  0.
          2    1    3    3  502    0  0.46392550943E+03  0.27852773596E+03 -0.87482100322E+02  0.54814021553E+03  0.00000000000E+00 0. -1.
         -1    1    3    3    0  502  0.16883106937E+03  0.59651159156E+02 -0.11291165834E+01  0.17906274230E+03  0.00000000000E+00 0.  1.
         13    1    5    5    0    0 -0.83787010105E+01 -0.15081789736E+01 -0.62552351693E+02  0.63129026103E+02  0.00000000000E+00 0.  1.
        -13    1    5    5    0    0 -0.25976760703E+03  0.63828753339E+02 -0.33601885938E+03  0.42949038787E+03  0.00000000000E+00 0. -1.
          3    1    6    6  503    0 -0.28882315418E+03 -0.35248916758E+03  0.32434034849E+03  0.55934255096E+03  0.00000000000E+00 0. -1.
         -3    1    6    6    0  503 -0.75787116584E+02 -0.48010301898E+02  0.31520822592E+02  0.95090685060E+02  0.00000000000E+00 0.  1.
<mgrwt>
<rscale>  0 0.18696494E+04</rscale>
<asrwt>0</asrwt>
<pdfrwt beam="1">  1        2 0.15427514E+00 0.18696494E+04</pdfrwt>
<pdfrwt beam="2">  1       -1 0.13407187E+00 0.18696494E+04</pdfrwt>
<totfact> 0.12597893E+01</totfact>
</mgrwt>
</event>
<event>
12    7  0.1611233E-007  0.1394104E+04  0.7818608E-02  0.8958098E-01
         -1   -1    0    0    0  501 -0.00000000000E+00  0.00000000000E+00  0.19123856243E+03  0.19123856243E+03  0.00000000000E+00 0.  1.
          2   -1    0    0  501    0  0.00000000000E+00 -0.00000000000E+00 -0.25407081292E+04  0.25407081292E+04  0.00000000000E+00 0. -1.
         24    2    1    2    0    0  0.46541660291E+02  0.39914162984E+03 -0.69237062688E+03  0.80435035834E+03  0.78244790117E+02 0.  0.
        254    2    1    2    0    0 -0.46541660291E+02 -0.39914162984E+03 -0.16570989399E+04  0.19275963333E+04  0.89898307034E+03 0.  0.
         23    2    4    4    0    0  0.21189072502E+03 -0.60146698225E+03 -0.11139136067E+04  0.12870354038E+04  0.94849340077E+02 0.  0.
         23    2    4    4    0    0 -0.25843238531E+03  0.20232535241E+03 -0.54318533319E+03  0.64056092952E+03  0.86862835709E+02 0.  0.
          4    1    3    3  502    0 -0.58163259753E+01  0.13997825988E+01 -0.28722994918E+01  0.66361994805E+01  0.00000000000E+00 0. -1.
         -1    1    3    3    0  502  0.52357986266E+02  0.39774184724E+03 -0.68949832739E+03  0.79771415886E+03  0.00000000000E+00 0.  1.
         13    1    5    5    0    0  0.12186663382E+03 -0.34922205127E+03 -0.55070034080E+03  0.66338403877E+03  0.00000000000E+00 0. -1.
        -13    1    5    5    0    0  0.90024091194E+02 -0.25224493098E+03 -0.56321326590E+03  0.62365136501E+03  0.00000000000E+00 0.  1.
          1    1    6    6  503    0 -0.23179060826E+03  0.20839714704E+03 -0.48937854424E+03  0.58021342326E+03  0.00000000000E+00 0. -1.
         -1    1    6    6    0  503 -0.26641777049E+02 -0.60717946240E+01 -0.53806788953E+02  0.60347506259E+02  0.00000000000E+00 0.  1.
<mgrwt>
<rscale>  0 0.13941038E+04</rscale>
<asrwt>0</asrwt>
<pdfrwt beam="1">  1        2 0.39087818E+00 0.13941038E+04</pdfrwt>
<pdfrwt beam="2">  1       -1 0.29421317E-01 0.13941038E+04</pdfrwt>
<totfact> 0.38757767E+01</totfact>
</mgrwt>
</event>
<event>
12    7  0.1611233E-007  0.2433189E+04  0.7818608E-02  0.8427182E-01
         -1   -1    0    0    0  501 -0.00000000000E+00  0.00000000000E+00  0.57237182790E+03  0.57237182790E+03  0.00000000000E+00 0.  1.
          2   -1    0    0  501    0  0.00000000000E+00 -0.00000000000E+00 -0.25859101577E+04  0.25859101577E+04  0.00000000000E+00 0. -1.
         24    2    1    2    0    0 -0.57968469867E+03  0.26842941627E+03 -0.19968267707E+04  0.20980321040E+04  0.79579242600E+02 0.  0.
        254    2    1    2    0    0  0.57968469867E+03 -0.26842941627E+03 -0.16711559124E+02  0.10602498816E+04  0.84602708815E+03 0.  0.
         23    2    4    4    0    0  0.10336807370E+03  0.26436416016E+03  0.12947137072E+03  0.32542197209E+03  0.92537863837E+02 0.  0.
         23    2    4    4    0    0  0.47631662497E+03 -0.53279357643E+03 -0.14618292984E+03  0.73482790954E+03  0.88634560705E+02 0.  0.
          2    1    3    3  502    0 -0.42836028711E+03  0.21827105548E+03 -0.15896290241E+04  0.16607393605E+04  0.00000000000E+00 0. -1.
         -1    1    3    3    0  502 -0.15132441156E+03  0.50158360788E+02 -0.40719774666E+03  0.43729274356E+03  0.00000000000E+00 0.  1.
         13    1    5    5    0    0  0.34455224996E+02  0.13021592497E+02  0.25651333515E+02  0.44885580221E+02  0.00000000000E+00 0.  1.
        -13    1    5    5    0    0  0.68912848704E+02  0.25134256766E+03  0.10382003720E+03  0.28053639187E+03  0.00000000000E+00 0. -1.
          3    1    6    6  503    0  0.46107251889E+03 -0.48359315666E+03 -0.12883293851E+03  0.68047640289E+03  0.00000000000E+00 0. -1.
         -3    1    6    6    0  503  0.15244106078E+02 -0.49200419766E+02 -0.17349991337E+02  0.54351506646E+02  0.00000000000E+00 0.  1.
<mgrwt>
<rscale>  0 0.24331890E+04</rscale>
<asrwt>0</asrwt>
<pdfrwt beam="1">  1        2 0.39783233E+00 0.24331890E+04</pdfrwt>
<pdfrwt beam="2">  1       -1 0.88057204E-01 0.24331890E+04</pdfrwt>
<totfact> 0.40097507E+00</totfact>
</mgrwt>
</event>
<event>
12    7  0.1611233E-007  0.1278985E+04  0.7818608E-02  0.9046398E-01
         -1   -1    0    0    0  501 -0.00000000000E+00  0.00000000000E+00  0.31337986246E+03  0.31337986246E+03  0.00000000000E+00 0.  1.
          2   -1    0    0  501    0  0.00000000000E+00 -0.00000000000E+00 -0.13049680778E+04  0.13049680778E+04  0.00000000000E+00 0. -1.
         24    2    1    2    0    0 -0.16941903726E+03 -0.24758567263E+03 -0.12815553055E+03  0.33560843801E+03  0.78789010517E+02 0.  0.
        254    2    1    2    0    0  0.16941903726E+03  0.24758567263E+03 -0.86343268477E+03  0.12827395022E+04  0.89994619503E+03 0.  0.
         23    2    4    4    0    0  0.27399896336E+03  0.52281636207E+03 -0.73721879956E+03  0.94894584361E+03  0.92705314264E+02 0.  0.
         23    2    4    4    0    0 -0.10457992610E+03 -0.27523068944E+03 -0.12621388521E+03  0.33379365861E+03  0.93804948458E+02 0.  0.
          2    1    3    3  502    0  0.45815036047E+01 -0.26067555304E+02 -0.82122898651E+00  0.26479841991E+02  0.00000000000E+00 0. -1.
         -1    1    3    3    0  502 -0.17400054087E+03 -0.22151811732E+03 -0.12733430156E+03  0.30912859602E+03  0.00000000000E+00 0.  1.
         13    1    5    5    0    0  0.19257904943E+03  0.39204982566E+03 -0.47885168612E+03  0.64814249466E+03  0.00000000000E+00 0.  1.
        -13    1    5    5    0    0  0.81419913932E+02  0.13076653641E+03 -0.25836711344E+03  0.30080334894E+03  0.00000000000E+00 0. -1.
          1    1    6    6  503    0 -0.22273293042E+02 -0.18254417179E+03 -0.61145032985E+02  0.19379677318E+03  0.00000000000E+00 0. -1.
         -1    1    6    6    0  503 -0.82306633060E+02 -0.92686517656E+02 -0.65068852223E+02  0.13999688543E+03  0.00000000000E+00 0.  1.
<mgrwt>
<rscale>  0 0.12789851E+04</rscale>
<asrwt>0</asrwt>
<pdfrwt beam="1">  1        2 0.20076432E+00 0.12789851E+04</pdfrwt>
<pdfrwt beam="2">  1       -1 0.48212287E-01 0.12789851E+04</pdfrwt>
<totfact> 0.79005578E+01</totfact>
</mgrwt>
</event>
<event>
12    7  0.1611233E-007  0.1269593E+04  0.7818608E-02  0.9054032E-01
          2   -1    0    0  501    0  0.00000000000E+00  0.00000000000E+00  0.62666050415E+03  0.62666050415E+03  0.00000000000E+00 0. -1.
         -1   -1    0    0    0  501 -0.00000000000E+00 -0.00000000000E+00 -0.64303840186E+03  0.64303840186E+03  0.00000000000E+00 0.  1.
         24    2    1    2    0    0 -0.26072986369E+03 -0.15121758690E+03  0.94429013603E+02  0.32567832424E+03  0.79389620627E+02 0.  0.
        254    2    1    2    0    0  0.26072986369E+03  0.15121758690E+03 -0.11080691131E+03  0.94402058176E+03  0.88772172824E+03 0.  0.
         23    2    4    4    0    0  0.34497132413E+03  0.36287727644E+03  0.20074519138E+03  0.54587711821E+03  0.83654432568E+02 0.  0.
         23    2    4    4    0    0 -0.84241460442E+02 -0.21165968954E+03 -0.31155210270E+03  0.39814346355E+03  0.97760201721E+02 0.  0.
          4    1    3    3  502    0 -0.26483099296E+03 -0.14068710582E+03  0.87349991257E+02  0.31234330079E+03  0.00000000000E+00 0. -1.
         -3    1    3    3    0  502  0.41011292698E+01 -0.10530481082E+02  0.70790223454E+01  0.13335023452E+02  0.00000000000E+00 0.  1.
         13    1    5    5    0    0  0.34476029697E+03  0.34998779957E+03  0.20495848746E+03  0.53231485401E+03  0.00000000000E+00 0. -1.
        -13    1    5    5    0    0  0.21102715925E+00  0.12889476866E+02 -0.42132960730E+01  0.13562264197E+02  0.00000000000E+00 0.  1.
          2    1    6    6  503    0 -0.82917151268E+02 -0.20687040098E+03 -0.24421404138E+03  0.33062231440E+03  0.00000000000E+00 0. -1.
         -2    1    6    6    0  503 -0.13243091744E+01 -0.47892885574E+01 -0.67338061322E+02  0.67521149149E+02  0.00000000000E+00 0.  1.
<mgrwt>
<rscale>  0 0.12695933E+04</rscale>
<asrwt>0</asrwt>
<pdfrwt beam="1">  1        2 0.96409308E-01 0.12695933E+04</pdfrwt>
<pdfrwt beam="2">  1       -1 0.98928985E-01 0.12695933E+04</pdfrwt>
<totfact> 0.51595380E+01</totfact>
</mgrwt>
</event>
<event>
12    7  0.1611233E-007  0.1839604E+04  0.7818608E-02  0.8685517E-01
          2   -1    0    0  501    0  0.00000000000E+00  0.00000000000E+00  0.70642451047E+03  0.70642451047E+03  0.00000000000E+00 0. -1.
         -1   -1    0    0    0  501 -0.00000000000E+00 -0.00000000000E+00 -0.11976313468E+04  0.11976313468E+04  0.00000000000E+00 0.  1.
         24    2    1    2    0    0  0.41984752129E+03 -0.35754114067E+03  0.25733261522E+03  0.61386420483E+03  0.80632367604E+02 0.  0.
        254    2    1    2    0    0 -0.41984752129E+03  0.35754114067E+03 -0.74853945151E+03  0.12901916524E+04  0.89452533840E+03 0.  0.
         23    2    4    4    0    0 -0.27693415000E+03 -0.20283206864E+03 -0.58209214740E+03  0.68169331270E+03  0.89672364851E+02 0.  0.
         23    2    4    4    0    0 -0.14291337129E+03  0.56037320931E+03 -0.16644730411E+03  0.60849833969E+03  0.90128568989E+02 0.  0.
          4    1    3    3  502    0  0.18136399320E+03 -0.15571329045E+03  0.15590922319E+03  0.28538958062E+03  0.00000000000E+00 0. -1.
         -3    1    3    3    0  502  0.23848352809E+03 -0.20182785022E+03  0.10142339203E+03  0.32847462421E+03  0.00000000000E+00 0.  1.
         13    1    5    5    0    0 -0.47123072611E+02  0.15887094219E+01 -0.81894740051E+02  0.94497917532E+02  0.00000000000E+00 0.  1.
        -13    1    5    5    0    0 -0.22981107739E+03 -0.20442077806E+03 -0.50019740735E+03  0.58719539517E+03  0.00000000000E+00 0. -1.
          2    1    6    6  503    0 -0.15537637020E+03  0.51681888891E+03 -0.15885462248E+03  0.56256410428E+03  0.00000000000E+00 0. -1.
         -2    1    6    6    0  503  0.12462998906E+02  0.43554320407E+02 -0.75926816329E+01  0.45934235405E+02  0.00000000000E+00 0.  1.
<mgrwt>
<rscale>  0 0.18396045E+04</rscale>
<asrwt>0</asrwt>
<pdfrwt beam="1">  1        2 0.10868069E+00 0.18396045E+04</pdfrwt>
<pdfrwt beam="2">  1       -1 0.18425098E+00 0.18396045E+04</pdfrwt>
<totfact> 0.84431062E+00</totfact>
</mgrwt>
</event>
<event>
12    7  0.1661291E-007  0.1466479E+04  0.7818608E-02  0.8907055E-01
          2   -1    0    0  501    0  0.00000000000E+00  0.00000000000E+00  0.14833803648E+04  0.14833803648E+04  0.00000000000E+00 0. -1.
         -1   -1    0    0    0  501 -0.00000000000E+00 -0.00000000000E+00 -0.36244264354E+03  0.36244264354E+03  0.00000000000E+00 0.  1.
         24    2    1    2    0    0 -0.33433862400E+03 -0.24185199088E+03  0.11942100790E+03  0.43689343698E+03  0.79622843161E+02 0.  0.
        254    2    1    2    0    0  0.33433862400E+03  0.24185199088E+03  0.10015167134E+04  0.14089295714E+04  0.90098396708E+03 0.  0.
         23    2    4    4    0    0  0.50742256932E+03  0.45146018085E+03  0.82753672840E+03  0.10743917376E+04  0.90590342409E+02 0.  0.
         23    2    4    4    0    0 -0.17308394532E+03 -0.20960818996E+03  0.17397998501E+03  0.33453783384E+03  0.88050449500E+02 0.  0.
          4    1    3    3  502    0 -0.11625744817E+02 -0.15455820694E+01 -0.87312638611E+01  0.14621276795E+02  0.00000000000E+00 0. -1.
         -3    1    3    3    0  502 -0.32271287918E+03 -0.24030640882E+03  0.12815227176E+03  0.42227216018E+03  0.00000000000E+00 0.  1.
         13    1    5    5    0    0  0.38956733760E+02  0.21407722509E+02  0.26995526275E+02  0.52006500816E+02  0.00000000000E+00 0. -1.
        -13    1    5    5    0    0  0.46846583556E+03  0.43005245834E+03  0.80054120212E+03  0.10223852367E+04  0.00000000000E+00 0.  1.
          4    1    6    6  503    0 -0.13160687496E+03 -0.18789324624E+03  0.10778511710E+03  0.25345980546E+03  0.00000000000E+00 0.  1.
         -4    1    6    6    0  503 -0.41477070368E+02 -0.21714943722E+02  0.66194867910E+02  0.81078028373E+02  0.00000000000E+00 0. -1.
<mgrwt>
<rscale>  0 0.14664792E+04</rscale>
<asrwt>0</asrwt>
<pdfrwt beam="1">  1        2 0.22821236E+00 0.14664792E+04</pdfrwt>
<pdfrwt beam="2">  1       -1 0.55760408E-01 0.14664792E+04</pdfrwt>
<totfact> 0.46570844E+01</totfact>
</mgrwt>
</event>
<event>
12    7  0.1611233E-007  0.2245562E+04  0.7818608E-02  0.8499700E-01
         -1   -1    0    0    0  501 -0.00000000000E+00  0.00000000000E+00  0.61539916444E+03  0.61539916444E+03  0.00000000000E+00 0.  1.
          2   -1    0    0  501    0  0.00000000000E+00 -0.00000000000E+00 -0.20484872186E+04  0.20484872186E+04  0.00000000000E+00 0. -1.
         24    2    1    2    0    0 -0.49139962812E+03 -0.57554398946E+03 -0.12546651771E+04  0.14674179988E+04  0.80039979390E+02 0.  0.
        254    2    1    2    0    0  0.49139962812E+03  0.57554398946E+03 -0.17842287704E+03  0.11964683842E+04  0.90938297380E+03 0.  0.
         23    2    4    4    0    0  0.30038175974E+03  0.48446387324E+03 -0.52503757683E+03  0.78037759388E+03  0.91598503788E+02 0.  0.
         23    2    4    4    0    0  0.19101786837E+03  0.91080116226E+02  0.34661469979E+03  0.41609079032E+03  0.90589083616E+02 0.  0.
          4    1    3    3  502    0 -0.38865011928E+03 -0.40360149022E+03 -0.94480259416E+03  0.10984511915E+04  0.00000000000E+00 0. -1.
         -3    1    3    3    0  502 -0.10274950883E+03 -0.17194249924E+03 -0.30986258298E+03  0.36896680737E+03  0.00000000000E+00 0.  1.
         13    1    5    5    0    0  0.61650452118E+02  0.13550764739E+03 -0.18718728898E+03  0.23916977632E+03  0.00000000000E+00 0. -1.
        -13    1    5    5    0    0  0.23873130763E+03  0.34895622584E+03 -0.33785028785E+03  0.54120781757E+03  0.00000000000E+00 0.  1.
          1    1    6    6  503    0  0.28804184970E+02  0.35955391184E+02  0.26854951644E+02  0.53325975423E+02  0.00000000000E+00 0. -1.
         -1    1    6    6    0  503  0.16221368340E+03  0.55124725042E+02  0.31975974815E+03  0.36276481490E+03  0.00000000000E+00 0.  1.
<mgrwt>
<rscale>  0 0.22455621E+04</rscale>
<asrwt>0</asrwt>
<pdfrwt beam="1">  1        2 0.31515188E+00 0.22455621E+04</pdfrwt>
<pdfrwt beam="2">  1       -1 0.94676794E-01 0.22455621E+04</pdfrwt>
<totfact> 0.70203988E+00</totfact>
</mgrwt>
</event>
<event>
12    7  0.1611233E-007  0.2196984E+04  0.7818608E-02  0.8519685E-01
          2   -1    0    0  501    0  0.00000000000E+00  0.00000000000E+00  0.19985625763E+04  0.19985625763E+04  0.00000000000E+00 0. -1.
         -1   -1    0    0    0  501 -0.00000000000E+00 -0.00000000000E+00 -0.60377601831E+03  0.60377601831E+03  0.00000000000E+00 0.  1.
         24    2    1    2    0    0 -0.21538650634E+03  0.43291980838E+03  0.15074832494E+04  0.15850558045E+04  0.78008002804E+02 0.  0.
        254    2    1    2    0    0  0.21538650634E+03 -0.43291980838E+03 -0.11269669141E+03  0.10172827901E+04  0.88789234889E+03 0.  0.
         23    2    4    4    0    0 -0.13716694646E+03 -0.55357312459E+03 -0.22008925961E+03  0.61796461348E+03  0.90459968152E+02 0.  0.
         23    2    4    4    0    0  0.35255345280E+03  0.12065331621E+03  0.10739256820E+03  0.39931817665E+03  0.95240131771E+02 0.  0.
          2    1    3    3  502    0 -0.20662319454E+03  0.43290489122E+03  0.14925747762E+04  0.15677624986E+04  0.00000000000E+00 0. -1.
         -1    1    3    3    0  502 -0.87633118006E+01  0.14917161661E-01  0.14908473160E+02  0.17293305878E+02  0.00000000000E+00 0.  1.
         13    1    5    5    0    0 -0.92902367055E+02 -0.25989926510E+03 -0.14432747517E+03  0.31146251443E+03  0.00000000000E+00 0. -1.
        -13    1    5    5    0    0 -0.44264579409E+02 -0.29367385949E+03 -0.75761784440E+02  0.30650209905E+03  0.00000000000E+00 0.  1.
          2    1    6    6  503    0  0.13013029266E+03  0.57667445217E+01  0.64411917755E+02  0.14531360418E+03  0.00000000000E+00 0. -1.
         -2    1    6    6    0  503  0.22242316014E+03  0.11488657169E+03  0.42980650448E+02  0.25400457246E+03  0.00000000000E+00 0.  1.
<mgrwt>
<rscale>  0 0.21969835E+04</rscale>
<asrwt>0</asrwt>
<pdfrwt beam="1">  1        2 0.30747116E+00 0.21969835E+04</pdfrwt>
<pdfrwt beam="2">  1       -1 0.92888619E-01 0.21969835E+04</pdfrwt>
<totfact> 0.78433913E+00</totfact>
</mgrwt>
</event>
<event>
12    7  0.1611233E-007  0.1189257E+04  0.7818608E-02  0.9122312E-01
          2   -1    0    0  501    0  0.00000000000E+00  0.00000000000E+00  0.12195023368E+04  0.12195023368E+04  0.00000000000E+00 0. -1.
         -1   -1    0    0    0  501 -0.00000000000E+00 -0.00000000000E+00 -0.28994052930E+03  0.28994052930E+03  0.00000000000E+00 0.  1.
         24    2    1    2    0    0  0.22123686798E+03 -0.98721444677E+02  0.15033783662E+03  0.29580216353E+03  0.78776769640E+02 0.  0.
        254    2    1    2    0    0 -0.22123686798E+03  0.98721444677E+02  0.77922397085E+03  0.12136407025E+04  0.89835520966E+03 0.  0.
         23    2    4    4    0    0  0.51240107689E+02  0.10187686670E+02  0.88800824554E+03  0.89410624589E+03  0.90210848586E+02 0.  0.
         23    2    4    4    0    0 -0.27247697567E+03  0.88533758007E+02 -0.10878427469E+03  0.31953445665E+03  0.90478295695E+02 0.  0.
          4    1    3    3  502    0  0.39662216243E+01  0.47626554492E+01 -0.61579745861E+01  0.87369589621E+01  0.00000000000E+00 0. -1.
         -3    1    3    3    0  502  0.21727064635E+03 -0.10348410013E+03  0.15649581121E+03  0.28706520457E+03  0.00000000000E+00 0.  1.
         13    1    5    5    0    0 -0.21551237062E+02  0.88998201047E+01  0.40197797789E+03  0.40265364437E+03  0.00000000000E+00 0. -1.
        -13    1    5    5    0    0  0.72791344751E+02  0.12878665655E+01  0.48603026765E+03  0.49145260152E+03  0.00000000000E+00 0.  1.
          1    1    6    6  503    0 -0.48934613678E+02 -0.10428679022E+01 -0.53376919643E+02  0.72420850174E+02  0.00000000000E+00 0. -1.
         -1    1    6    6    0  503 -0.22354236199E+03  0.89576625909E+02 -0.55407355046E+02  0.24711360648E+03  0.00000000000E+00 0.  1.
<mgrwt>
<rscale>  0 0.11892572E+04</rscale>
<asrwt>0</asrwt>
<pdfrwt beam="1">  1        2 0.18761574E+00 0.11892572E+04</pdfrwt>
<pdfrwt beam="2">  1       -1 0.44606236E-01 0.11892572E+04</pdfrwt>
<totfact> 0.10328358E+02</totfact>
</mgrwt>
</event>
<event>
12    7  0.1611233E-007  0.2093628E+04  0.7818608E-02  0.8564055E-01
          2   -1    0    0  501    0  0.00000000000E+00  0.00000000000E+00  0.15779510070E+04  0.15779510070E+04  0.00000000000E+00 0. -1.
         -1   -1    0    0    0  501 -0.00000000000E+00 -0.00000000000E+00 -0.69445751575E+03  0.69445751575E+03  0.00000000000E+00 0.  1.
         24    2    1    2    0    0  0.83321988074E+03  0.22907957710E+03  0.34966863834E+03  0.93549021833E+03  0.78364339026E+02 0.  0.
        254    2    1    2    0    0 -0.83321988074E+03 -0.22907957710E+03  0.53382485291E+03  0.13369183044E+04  0.86928059729E+03 0.  0.
         23    2    4    4    0    0 -0.74251066604E+03 -0.40845117239E+03  0.11010506059E+03  0.85917204601E+03  0.88876492243E+02 0.  0.
         23    2    4    4    0    0 -0.90709214702E+02  0.17937159529E+03  0.42371979232E+03  0.47774625841E+03  0.91108145585E+02 0.  0.
          2    1    3    3  502    0  0.81640273245E+03  0.23454867344E+03  0.33748087576E+03  0.91401304327E+03  0.00000000000E+00 0. -1.
         -1    1    3    3    0  502  0.16817148296E+02 -0.54690963419E+01  0.12187762587E+02  0.21477175059E+02  0.00000000000E+00 0.  1.
         13    1    5    5    0    0 -0.61409249349E+03 -0.29891378767E+03  0.78861928317E+02  0.68751599746E+03  0.00000000000E+00 0. -1.
        -13    1    5    5    0    0 -0.12841817255E+03 -0.10953738472E+03  0.31243132269E+02  0.17165604856E+03  0.00000000000E+00 0.  1.
          4    1    6    6  503    0  0.75450623068E+01  0.48828841346E+02  0.16056675264E+03  0.16799662427E+03  0.00000000000E+00 0. -1.
         -4    1    6    6    0  503 -0.98254277008E+02  0.13054275395E+03  0.26315303969E+03  0.30974963415E+03  0.00000000000E+00 0.  1.
<mgrwt>
<rscale>  0 0.20936284E+04</rscale>
<asrwt>0</asrwt>
<pdfrwt beam="1">  1        2 0.24276169E+00 0.20936284E+04</pdfrwt>
<pdfrwt beam="2">  1       -1 0.10683962E+00 0.20936284E+04</pdfrwt>
<totfact> 0.98512256E+00</totfact>
</mgrwt>
</event>
<event>
12    7  0.1611233E-007  0.2278679E+04  0.7818608E-02  0.8486375E-01
         -1   -1    0    0    0  501 -0.00000000000E+00  0.00000000000E+00  0.50035035173E+03  0.50035035173E+03  0.00000000000E+00 0.  1.
          2   -1    0    0  501    0  0.00000000000E+00 -0.00000000000E+00 -0.25943709979E+04  0.25943709979E+04  0.00000000000E+00 0. -1.
         24    2    1    2    0    0 -0.27305150215E+03  0.15027874000E+03 -0.21193185750E+04  0.21435234742E+04  0.77722836778E+02 0.  0.
        254    2    1    2    0    0  0.27305150215E+03 -0.15027874000E+03  0.25297928809E+02  0.95119787551E+03  0.89832988965E+03 0.  0.
         23    2    4    4    0    0 -0.20316567043E+03 -0.13493270278E+03  0.29715041500E+03  0.39525824039E+03  0.91910736809E+02 0.  0.
         23    2    4    4    0    0  0.47621717257E+03 -0.15346037217E+02 -0.27185248619E+03  0.55593963511E+03  0.90259666137E+02 0.  0.
          4    1    3    3  502    0 -0.19577738702E+03  0.87547291081E+02 -0.12191642905E+04  0.12378832258E+04  0.00000000000E+00 0. -1.
         -3    1    3    3    0  502 -0.77274115124E+02  0.62731448918E+02 -0.90015428452E+03  0.90564024839E+03  0.00000000000E+00 0.  1.
         13    1    5    5    0    0 -0.98762302608E+01 -0.35865536500E+02  0.79502167872E+02  0.87775117938E+02  0.00000000000E+00 0. -1.
        -13    1    5    5    0    0 -0.19328944017E+03 -0.99067166282E+02  0.21764824713E+03  0.30748312245E+03  0.00000000000E+00 0.  1.
          4    1    6    6  503    0  0.15655144505E+03 -0.22080447463E+02 -0.13596764117E+03  0.20852601889E+03  0.00000000000E+00 0. -1.
         -4    1    6    6    0  503  0.31966572752E+03  0.67344102458E+01 -0.13588484502E+03  0.34741361623E+03  0.00000000000E+00 0.  1.
<mgrwt>
<rscale>  0 0.22786790E+04</rscale>
<asrwt>0</asrwt>
<pdfrwt beam="1">  1        2 0.39913400E+00 0.22786790E+04</pdfrwt>
<pdfrwt beam="2">  1       -1 0.76976977E-01 0.22786790E+04</pdfrwt>
<totfact> 0.53642265E+00</totfact>
</mgrwt>
</event>
<event>
12    7  0.1611233E-007  0.3108651E+04  0.7818608E-02  0.8213368E-01
         -1   -1    0    0    0  501 -0.00000000000E+00  0.00000000000E+00  0.91419376399E+03  0.91419376399E+03  0.00000000000E+00 0.  1.
          2   -1    0    0  501    0  0.00000000000E+00 -0.00000000000E+00 -0.26426868284E+04  0.26426868284E+04  0.00000000000E+00 0. -1.
         24    2    1    2    0    0  0.88699399863E+03 -0.53145391361E+03  0.32798244348E+03  0.10879481995E+04  0.82808125529E+02 0.  0.
        254    2    1    2    0    0 -0.88699399863E+03  0.53145391361E+03 -0.20564755079E+04  0.24689323929E+04  0.89293562495E+03 0.  0.
         23    2    4    4    0    0 -0.20434948165E+03  0.39729959579E+03 -0.22705610650E+03  0.50960198742E+03  0.92379817177E+02 0.  0.
         23    2    4    4    0    0 -0.68264451697E+03  0.13415431782E+03 -0.18294194014E+04  0.19593304055E+04  0.90550395492E+02 0.  0.
          4    1    3    3  502    0  0.84804414877E+03 -0.50539995753E+03  0.33035024427E+03  0.10410279916E+04  0.00000000000E+00 0. -1.
         -3    1    3    3    0  502  0.38949849862E+02 -0.26053956076E+02 -0.23678007871E+01  0.46920207928E+02  0.00000000000E+00 0.  1.
         13    1    5    5    0    0 -0.28015649037E+02  0.89752744978E+02 -0.88039909900E+02  0.12880783189E+03  0.00000000000E+00 0. -1.
        -13    1    5    5    0    0 -0.17633383262E+03  0.30754685081E+03 -0.13901619660E+03  0.38079415553E+03  0.00000000000E+00 0.  1.
          1    1    6    6  503    0 -0.26455297823E+03  0.69544982664E+02 -0.83493581018E+03  0.87860263489E+03  0.00000000000E+00 0. -1.
         -1    1    6    6    0  503 -0.41809153874E+03  0.64609335158E+02 -0.99448359123E+03  0.10807277706E+04  0.00000000000E+00 0.  1.
<mgrwt>
<rscale>  0 0.31086510E+04</rscale>
<asrwt>0</asrwt>
<pdfrwt beam="1">  1        2 0.40656720E+00 0.31086510E+04</pdfrwt>
<pdfrwt beam="2">  1       -1 0.14064520E+00 0.31086510E+04</pdfrwt>
<totfact> 0.11462757E+00</totfact>
</mgrwt>
</event>
<event>
12    7  0.1611233E-007  0.1392117E+04  0.7818608E-02  0.8959544E-01
         -1   -1    0    0    0  501 -0.00000000000E+00  0.00000000000E+00  0.25713168288E+03  0.25713168288E+03  0.00000000000E+00 0.  1.
          2   -1    0    0  501    0  0.00000000000E+00 -0.00000000000E+00 -0.18842397207E+04  0.18842397207E+04  0.00000000000E+00 0. -1.
         24    2    1    2    0    0  0.81872316740E+02 -0.17720417038E+03  0.60686891784E+02  0.21944826402E+03  0.79813830245E+02 0.  0.
        254    2    1    2    0    0 -0.81872316740E+02  0.17720417038E+03 -0.16877949296E+04  0.19219231395E+04  0.89834984039E+03 0.  0.
         23    2    4    4    0    0 -0.42455554270E+03  0.74874217851E+01 -0.12964711444E+04  0.13671876478E+04  0.89783995522E+02 0.  0.
         23    2    4    4    0    0  0.34268322596E+03  0.16971674859E+03 -0.39132378523E+03  0.55473549173E+03  0.91441745331E+02 0.  0.
          2    1    3    3  502    0 -0.93060587852E+01  0.86836727159E+00  0.86456181420E+01  0.12731987468E+02  0.00000000000E+00 0. -1.
         -1    1    3    3    0  502  0.91178375525E+02 -0.17807253765E+03  0.52041273642E+02  0.20671627655E+03  0.00000000000E+00 0.  1.
         13    1    5    5    0    0 -0.54283690922E+02 -0.29589320420E+02 -0.19292413816E+03  0.20258817850E+03  0.00000000000E+00 0. -1.
        -13    1    5    5    0    0 -0.37027185178E+03  0.37076742205E+02 -0.11035470062E+04  0.11645994693E+04  0.00000000000E+00 0.  1.
          3    1    6    6  503    0  0.23537302311E+02  0.44474884445E+02 -0.47865348093E+02  0.69448624857E+02  0.00000000000E+00 0. -1.
         -3    1    6    6    0  503  0.31914592365E+03  0.12524186415E+03 -0.34345843714E+03  0.48528686688E+03  0.00000000000E+00 0.  1.
<mgrwt>
<rscale>  0 0.13921174E+04</rscale>
<asrwt>0</asrwt>
<pdfrwt beam="1">  1        2 0.28988304E+00 0.13921174E+04</pdfrwt>
<pdfrwt beam="2">  1       -1 0.39558720E-01 0.13921174E+04</pdfrwt>
<totfact> 0.53444141E+01</totfact>
</mgrwt>
</event>
<event>
12    7  0.1611233E-007  0.2140561E+04  0.7818608E-02  0.8543584E-01
          2   -1    0    0  501    0  0.00000000000E+00  0.00000000000E+00  0.89290978592E+03  0.89290978592E+03  0.00000000000E+00 0. -1.
         -1   -1    0    0    0  501 -0.00000000000E+00 -0.00000000000E+00 -0.12828842770E+04  0.12828842770E+04  0.00000000000E+00 0.  1.
         24    2    1    2    0    0 -0.54837421324E+03 -0.82202478113E+02 -0.84800749591E+03  0.10165279853E+04  0.82103024921E+02 0.  0.
        254    2    1    2    0    0  0.54837421324E+03  0.82202478113E+02  0.45803300484E+03  0.11592660776E+04  0.90919309277E+03 0.  0.
         23    2    4    4    0    0  0.74077686909E+02 -0.31904075904E+03 -0.59575704578E+02  0.34548720942E+03  0.92399338068E+02 0.  0.
         23    2    4    4    0    0  0.47429652633E+03  0.40124323715E+03  0.51760870942E+03  0.81377886815E+03  0.91454578549E+02 0.  0.
          2    1    3    3  502    0 -0.33191540755E+02  0.13583997737E+02 -0.42982409737E+02  0.55979379409E+02  0.00000000000E+00 0. -1.
         -1    1    3    3    0  502 -0.51518267248E+03 -0.95786475850E+02 -0.80502508617E+03  0.96054860593E+03  0.00000000000E+00 0.  1.
         13    1    5    5    0    0 -0.12193185269E+02 -0.71296052285E+02  0.12561660716E+02  0.73413868979E+02  0.00000000000E+00 0. -1.
        -13    1    5    5    0    0  0.86270872178E+02 -0.24774470675E+03 -0.72137365294E+02  0.27207334044E+03  0.00000000000E+00 0.  1.
          1    1    6    6  503    0  0.13711363201E+02  0.32740478425E+02  0.13920585018E+02  0.38127720828E+02  0.00000000000E+00 0. -1.
         -1    1    6    6    0  503  0.46058516313E+03  0.36850275872E+03  0.50368812440E+03  0.77565114732E+03  0.00000000000E+00 0.  1.
<mgrwt>
<rscale>  0 0.21405606E+04</rscale>
<asrwt>0</asrwt>
<pdfrwt beam="1">  1        2 0.13737074E+00 0.21405606E+04</pdfrwt>
<pdfrwt beam="2">  1       -1 0.19736681E+00 0.21405606E+04</pdfrwt>
<totfact> 0.48757630E+00</totfact>
</mgrwt>
</event>
<event>
12    7  0.1611233E-007  0.1704844E+04  0.7818608E-02  0.8758606E-01
          2   -1    0    0  501    0  0.00000000000E+00  0.00000000000E+00  0.94178039973E+03  0.94178039973E+03  0.00000000000E+00 0. -1.
         -1   -1    0    0    0  501 -0.00000000000E+00 -0.00000000000E+00 -0.77154253936E+03  0.77154253936E+03  0.00000000000E+00 0.  1.
         24    2    1    2    0    0 -0.85047863833E+02 -0.80054599642E+02 -0.54516263046E+03  0.56340763487E+03  0.81141797591E+02 0.  0.
        254    2    1    2    0    0  0.85047863833E+02  0.80054599642E+02  0.71540049083E+03  0.11499153042E+04  0.89267321375E+03 0.  0.
         23    2    4    4    0    0  0.28528791275E+03 -0.31374542498E+03  0.24577570500E+03  0.49884558560E+03  0.92821528952E+02 0.  0.
         23    2    4    4    0    0 -0.20024004892E+03  0.39380002463E+03  0.46962478583E+03  0.65106971863E+03  0.90386959582E+02 0.  0.
          4    1    3    3  502    0 -0.28916103131E+02 -0.31255307289E+02 -0.37867067273E+03  0.38105710024E+03  0.00000000000E+00 0. -1.
         -1    1    3    3    0  502 -0.56131760702E+02 -0.48799292353E+02 -0.16649195773E+03  0.18235053464E+03  0.00000000000E+00 0.  1.
         13    1    5    5    0    0  0.14820264524E+03 -0.14011648410E+03  0.67827192008E+02  0.21493529526E+03  0.00000000000E+00 0.  1.
        -13    1    5    5    0    0  0.13708526752E+03 -0.17362894089E+03  0.17794851300E+03  0.28391029034E+03  0.00000000000E+00 0. -1.
          2    1    6    6  503    0 -0.14683809517E+03  0.27267359145E+03  0.26627788619E+03  0.40843142183E+03  0.00000000000E+00 0. -1.
         -2    1    6    6    0  503 -0.53401953749E+02  0.12112643318E+03  0.20334689964E+03  0.24263829680E+03  0.00000000000E+00 0.  1.
<mgrwt>
<rscale>  0 0.17048444E+04</rscale>
<asrwt>0</asrwt>
<pdfrwt beam="1">  1        2 0.14488929E+00 0.17048444E+04</pdfrwt>
<pdfrwt beam="2">  1       -1 0.11869885E+00 0.17048444E+04</pdfrwt>
<totfact> 0.18976390E+01</totfact>
</mgrwt>
</event>
<event>
12    7  0.1611233E-007  0.1429219E+04  0.7818608E-02  0.8932936E-01
          2   -1    0    0  501    0  0.00000000000E+00  0.00000000000E+00  0.61711681116E+03  0.61711681116E+03  0.00000000000E+00 0. -1.
         -1   -1    0    0    0  501 -0.00000000000E+00 -0.00000000000E+00 -0.82750376854E+03  0.82750376854E+03  0.00000000000E+00 0.  1.
         24    2    1    2    0    0 -0.21241581988E+03 -0.38453546720E+03 -0.22632252846E+03  0.50133611671E+03  0.84427536710E+02 0.  0.
        254    2    1    2    0    0  0.21241581988E+03  0.38453546720E+03  0.15935571077E+02  0.94328446300E+03  0.83459189407E+03 0.  0.
         23    2    4    4    0    0  0.31725724974E+03 -0.12731205461E+03 -0.15418978657E+03  0.38638462351E+03  0.93048725115E+02 0.  0.
         23    2    4    4    0    0 -0.10484142986E+03  0.51184752181E+03  0.17012535765E+03  0.55689983949E+03  0.90637646182E+02 0.  0.
          4    1    3    3  502    0 -0.12625860400E+03 -0.25209938626E+03 -0.18762357600E+03  0.33867084597E+03  0.00000000000E+00 0. -1.
         -1    1    3    3    0  502 -0.86157215878E+02 -0.13243608094E+03 -0.38698952457E+02  0.16266527074E+03  0.00000000000E+00 0.  1.
         13    1    5    5    0    0  0.28625345453E+03 -0.14249761799E+03 -0.13870855281E+03  0.34854938529E+03  0.00000000000E+00 0.  1.
        -13    1    5    5    0    0  0.31003795211E+02  0.15185563385E+02 -0.15481233757E+02  0.37835238224E+02  0.00000000000E+00 0. -1.
          3    1    6    6  503    0 -0.11265731925E+03  0.38296820698E+03  0.14884804670E+03  0.42604232201E+03  0.00000000000E+00 0.  1.
         -3    1    6    6    0  503  0.78158893938E+01  0.12887931484E+03  0.21277310952E+02  0.13085751748E+03  0.00000000000E+00 0. -1.
<mgrwt>
<rscale>  0 0.14292186E+04</rscale>
<asrwt>0</asrwt>
<pdfrwt beam="1">  1        2 0.94941048E-01 0.14292186E+04</pdfrwt>
<pdfrwt beam="2">  1       -1 0.12730827E+00 0.14292186E+04</pdfrwt>
<totfact> 0.28443424E+01</totfact>
</mgrwt>
</event>
<event>
12    7  0.1611233E-007  0.1854012E+04  0.7818608E-02  0.8678093E-01
          2   -1    0    0  501    0  0.00000000000E+00  0.00000000000E+00  0.22822179885E+04  0.22822179885E+04  0.00000000000E+00 0. -1.
         -1   -1    0    0    0  501 -0.00000000000E+00 -0.00000000000E+00 -0.37653708572E+03  0.37653708572E+03  0.00000000000E+00 0.  1.
         24    2    1    2    0    0  0.11161607035E+03  0.55561218355E+03  0.11762710106E+03  0.58422960579E+03  0.79530193712E+02 0.  0.
        254    2    1    2    0    0 -0.11161607035E+03 -0.55561218355E+03  0.17880538017E+04  0.20745254684E+04  0.88620340535E+03 0.  0.
         23    2    4    4    0    0 -0.31405958731E+03 -0.27160956006E+03  0.24703366457E+03  0.49190164674E+03  0.92392754781E+02 0.  0.
         23    2    4    4    0    0  0.20244351696E+03 -0.28400262349E+03  0.15410201371E+04  0.15826238217E+04  0.91182400606E+02 0.  0.
          4    1    3    3  502    0  0.32009336604E+02  0.34740934266E+03  0.83443875896E+02  0.35872096317E+03  0.00000000000E+00 0. -1.
         -1    1    3    3    0  502  0.79606733747E+02  0.20820284089E+03  0.34183225159E+02  0.22550864262E+03  0.00000000000E+00 0.  1.
         13    1    5    5    0    0 -0.16739641578E+03 -0.11669114374E+03  0.73447245248E+02  0.21687065472E+03  0.00000000000E+00 0. -1.
        -13    1    5    5    0    0 -0.14666317153E+03 -0.15491841632E+03  0.17358641933E+03  0.27503099202E+03  0.00000000000E+00 0.  1.
          2    1    6    6  503    0  0.42751849933E+02 -0.81894151102E+02  0.25899063591E+03  0.27497367537E+03  0.00000000000E+00 0. -1.
         -2    1    6    6    0  503  0.15969166703E+03 -0.20210847239E+03  0.12820295012E+04  0.13076501463E+04  0.00000000000E+00 0.  1.
<mgrwt>
<rscale>  0 0.18540116E+04</rscale>
<asrwt>0</asrwt>
<pdfrwt beam="1">  1        2 0.35111045E+00 0.18540116E+04</pdfrwt>
<pdfrwt beam="2">  1       -1 0.57928784E-01 0.18540116E+04</pdfrwt>
<totfact> 0.14998178E+01</totfact>
</mgrwt>
</event>
<event>
12    7  0.1611233E-007  0.2827275E+04  0.7818608E-02  0.8294850E-01
          2   -1    0    0  501    0  0.00000000000E+00  0.00000000000E+00  0.40902856358E+04  0.40902856358E+04  0.00000000000E+00 0. -1.
         -1   -1    0    0    0  501 -0.00000000000E+00 -0.00000000000E+00 -0.48856499143E+03  0.48856499143E+03  0.00000000000E+00 0.  1.
         24    2    1    2    0    0  0.81223512420E+03  0.35702181346E+03  0.14791840660E+03  0.90301319450E+03  0.79765294234E+02 0.  0.
        254    2    1    2    0    0 -0.81223512420E+03 -0.35702181346E+03  0.34538022377E+04  0.36758374327E+04  0.89209890814E+03 0.  0.
         23    2    4    4    0    0 -0.35246838620E+03 -0.22669274108E+03  0.29297029876E+04  0.29609527179E+04  0.91966516404E+02 0.  0.
         23    2    4    4    0    0 -0.45976673800E+03 -0.13032907239E+03  0.52409925013E+03  0.71488471476E+03  0.89493077511E+02 0.  0.
          2    1    3    3  502    0  0.29405433582E+03  0.15580716863E+03  0.25077926693E+02  0.33372552886E+03  0.00000000000E+00 0. -1.
         -1    1    3    3    0  502  0.51818078838E+03  0.20121464484E+03  0.12284047991E+03  0.56928766564E+03  0.00000000000E+00 0.  1.
         13    1    5    5    0    0 -0.53790367165E+02 -0.29450782758E+02  0.24804826796E+03  0.25551652675E+03  0.00000000000E+00 0. -1.
        -13    1    5    5    0    0 -0.29867801903E+03 -0.19724195832E+03  0.26816547196E+04  0.27054361912E+04  0.00000000000E+00 0.  1.
          4    1    6    6  503    0 -0.31529735976E+03 -0.46854347216E+02  0.32727457338E+03  0.45685490181E+03  0.00000000000E+00 0.  1.
         -4    1    6    6    0  503 -0.14446937824E+03 -0.83474725170E+02  0.19682467676E+03  0.25802981295E+03  0.00000000000E+00 0. -1.
<mgrwt>
<rscale>  0 0.28272746E+04</rscale>
<asrwt>0</asrwt>
<pdfrwt beam="1">  1        2 0.62927469E+00 0.28272746E+04</pdfrwt>
<pdfrwt beam="2">  1       -1 0.75163848E-01 0.28272746E+04</pdfrwt>
<totfact> 0.50671016E-01</totfact>
</mgrwt>
</event>
<event>
12    7  0.1611233E-007  0.1199146E+04  0.7818608E-02  0.9113604E-01
         -1   -1    0    0    0  501 -0.00000000000E+00  0.00000000000E+00  0.30774677490E+03  0.30774677490E+03  0.00000000000E+00 0.  1.
          2   -1    0    0  501    0  0.00000000000E+00 -0.00000000000E+00 -0.11681289573E+04  0.11681289573E+04  0.00000000000E+00 0. -1.
         24    2    1    2    0    0  0.83071118650E+02  0.24015331679E+03 -0.24691427354E+03  0.36298855035E+03  0.78864458979E+02 0.  0.
        254    2    1    2    0    0 -0.83071118650E+02 -0.24015331679E+03 -0.61346790889E+03  0.11128871819E+04  0.89308486608E+03 0.  0.
         23    2    4    4    0    0  0.21996859696E+03 -0.45944988600E+03 -0.21937387977E+03  0.56196372560E+03  0.90542522428E+02 0.  0.
         23    2    4    4    0    0 -0.30303971561E+03  0.21929656922E+03 -0.39409402913E+03  0.55092345628E+03  0.91008221470E+02 0.  0.
          2    1    3    3  502    0  0.86303382920E+02  0.18426549025E+03 -0.15671819618E+03  0.25683192522E+03  0.00000000000E+00 0. -1.
         -1    1    3    3    0  502 -0.32322642697E+01  0.55887826542E+02 -0.90196077356E+02  0.10615662513E+03  0.00000000000E+00 0.  1.
         13    1    5    5    0    0  0.13833515216E+03 -0.23685334741E+03 -0.16000799876E+03  0.31755107017E+03  0.00000000000E+00 0.  1.
        -13    1    5    5    0    0  0.81633444804E+02 -0.22259653859E+03 -0.59365881008E+02  0.24441265543E+03  0.00000000000E+00 0. -1.
          4    1    6    6  503    0 -0.50845252462E+02  0.84638648239E+02 -0.11154697891E+03  0.14896868456E+03  0.00000000000E+00 0. -1.
         -4    1    6    6    0  503 -0.25219446315E+03  0.13465792098E+03 -0.28254705021E+03  0.40195477172E+03  0.00000000000E+00 0.  1.
<mgrwt>
<rscale>  0 0.11991462E+04</rscale>
<asrwt>0</asrwt>
<pdfrwt beam="1">  1        2 0.17971215E+00 0.11991462E+04</pdfrwt>
<pdfrwt beam="2">  1       -1 0.47345658E-01 0.11991462E+04</pdfrwt>
<totfact> 0.99098834E+01</totfact>
</mgrwt>
</event>
<event>
12    7  0.1611233E-007  0.1245413E+04  0.7818608E-02  0.9074010E-01
          2   -1    0    0  501    0  0.00000000000E+00  0.00000000000E+00  0.19552492545E+04  0.19552492545E+04  0.00000000000E+00 0. -1.
         -1   -1    0    0    0  501 -0.00000000000E+00 -0.00000000000E+00 -0.19831918834E+03  0.19831918834E+03  0.00000000000E+00 0.  1.
         24    2    1    2    0    0 -0.91988251221E+02  0.42308337552E+02 -0.57055620666E+02  0.14001538585E+03  0.78084125376E+02 0.  0.
        254    2    1    2    0    0  0.91988251221E+02 -0.42308337552E+02  0.18139856868E+04  0.20135530570E+04  0.86810138088E+03 0.  0.
         23    2    4    4    0    0  0.10173683680E+03 -0.24800818378E+03  0.12509627262E+03  0.30959834182E+03  0.91343377723E+02 0.  0.
         23    2    4    4    0    0 -0.97485855787E+01  0.20569984622E+03  0.16888894142E+04  0.17039547152E+04  0.93310000776E+02 0.  0.
          4    1    3    3  502    0 -0.15804735292E+02 -0.20818173654E+02 -0.68946763864E+00  0.26146919084E+02  0.00000000000E+00 0. -1.
         -3    1    3    3    0  502 -0.76183515929E+02  0.63126511206E+02 -0.56366153028E+02  0.11386846677E+03  0.00000000000E+00 0.  1.
         13    1    5    5    0    0  0.57805450976E+00 -0.13262262930E+01 -0.10417839955E+02  0.10517814056E+02  0.00000000000E+00 0.  1.
        -13    1    5    5    0    0  0.10115878229E+03 -0.24668195748E+03  0.13551411258E+03  0.29908052777E+03  0.00000000000E+00 0. -1.
          4    1    6    6  503    0  0.11640785678E+02  0.19426028751E+03  0.13199855752E+04  0.13342542808E+04  0.00000000000E+00 0. -1.
         -4    1    6    6    0  503 -0.21389371257E+02  0.11439558715E+02  0.36890383901E+03  0.36970043433E+03  0.00000000000E+00 0.  1.
<mgrwt>
<rscale>  0 0.12454131E+04</rscale>
<asrwt>0</asrwt>
<pdfrwt beam="1">  1        2 0.30080756E+00 0.12454131E+04</pdfrwt>
<pdfrwt beam="2">  1       -1 0.30510646E-01 0.12454131E+04</pdfrwt>
<totfact> 0.78609348E+01</totfact>
</mgrwt>
</event>
<event>
12    7  0.1611233E-007  0.1693488E+04  0.7818608E-02  0.8765087E-01
          2   -1    0    0  501    0  0.00000000000E+00  0.00000000000E+00  0.14593838853E+04  0.14593838853E+04  0.00000000000E+00 0. -1.
         -1   -1    0    0    0  501 -0.00000000000E+00 -0.00000000000E+00 -0.49128633919E+03  0.49128633919E+03  0.00000000000E+00 0.  1.
         24    2    1    2    0    0  0.34201163874E+03 -0.31478149048E+03 -0.94024012820E+02  0.48104731549E+03  0.80663851722E+02 0.  0.
        254    2    1    2    0    0 -0.34201163874E+03  0.31478149048E+03  0.10621215590E+04  0.14696229090E+04  0.90312232890E+03 0.  0.
         23    2    4    4    0    0 -0.46827321526E+03  0.53992155640E+02  0.14261070688E+03  0.50084585551E+03  0.91180043115E+02 0.  0.
         23    2    4    4    0    0  0.12626157652E+03  0.26078933484E+03  0.91951085208E+03  0.96877705353E+03  0.95266518124E+02 0.  0.
          2    1    3    3  502    0  0.21891316326E+02 -0.17812910733E+02  0.13594248962E+02  0.31326236993E+02  0.00000000000E+00 0. -1.
         -1    1    3    3    0  502  0.32012032241E+03 -0.29696857975E+03 -0.10761826178E+03  0.44972107850E+03  0.00000000000E+00 0.  1.
         13    1    5    5    0    0 -0.20414091088E+03  0.68816993342E+02  0.58059278202E+02  0.22311470111E+03  0.00000000000E+00 0. -1.
        -13    1    5    5    0    0 -0.26413230438E+03 -0.14824837702E+02  0.84551428683E+02  0.27773115440E+03  0.00000000000E+00 0.  1.
          2    1    6    6  503    0  0.68731813673E+02  0.50000594676E+02  0.30284009139E+03  0.31454132102E+03  0.00000000000E+00 0. -1.
         -2    1    6    6    0  503  0.57529762849E+02  0.21078874016E+03  0.61667076069E+03  0.65423573250E+03  0.00000000000E+00 0.  1.
<mgrwt>
<rscale>  0 0.16934880E+04</rscale>
<asrwt>0</asrwt>
<pdfrwt beam="1">  1        2 0.22452060E+00 0.16934880E+04</pdfrwt>
<pdfrwt beam="2">  1       -1 0.75582515E-01 0.16934880E+04</pdfrwt>
<totfact> 0.25545121E+01</totfact>
</mgrwt>
</event>
<event>
12    7  0.1611233E-007  0.1168959E+04  0.7818608E-02  0.9140469E-01
          2   -1    0    0  501    0  0.00000000000E+00  0.00000000000E+00  0.26766200529E+04  0.26766200529E+04  0.00000000000E+00 0. -1.
         -1   -1    0    0    0  501 -0.00000000000E+00 -0.00000000000E+00 -0.12762975946E+03  0.12762975946E+03  0.00000000000E+00 0.  1.
         24    2    1    2    0    0 -0.23891820998E+02  0.21981750078E+03  0.62556068456E+03  0.66825295464E+03  0.79657319610E+02 0.  0.
        254    2    1    2    0    0  0.23891820998E+02 -0.21981750078E+03  0.19234296089E+04  0.21359968577E+04  0.90222533941E+03 0.  0.
         23    2    4    4    0    0  0.38217224854E+03 -0.25959493360E+03  0.60930153174E+03  0.77025284215E+03  0.92714223054E+02 0.  0.
         23    2    4    4    0    0 -0.35828042754E+03  0.39777432815E+02  0.13141280771E+04  0.13657440156E+04  0.91525974387E+02 0.  0.
          2    1    3    3  502    0  0.21011662503E+02  0.19696653043E+02  0.10088508104E+03  0.10491543108E+03  0.00000000000E+00 0. -1.
         -1    1    3    3    0  502 -0.44903483500E+02  0.20012084774E+03  0.52467560351E+03  0.56333752356E+03  0.00000000000E+00 0.  1.
         13    1    5    5    0    0  0.25471589907E+02 -0.45173428397E+02  0.42423991855E+02  0.67001758263E+02  0.00000000000E+00 0. -1.
        -13    1    5    5    0    0  0.35670065864E+03 -0.21442150520E+03  0.56687753989E+03  0.70325108389E+03  0.00000000000E+00 0.  1.
          4    1    6    6  503    0 -0.18962927441E+03 -0.16515739896E+02  0.77599315030E+03  0.79899774761E+03  0.00000000000E+00 0. -1.
         -4    1    6    6    0  503 -0.16865115313E+03  0.56293172711E+02  0.53813492684E+03  0.56674626795E+03  0.00000000000E+00 0.  1.
<mgrwt>
<rscale>  0 0.11689591E+04</rscale>
<asrwt>0</asrwt>
<pdfrwt beam="1">  1        2 0.41178766E+00 0.11689591E+04</pdfrwt>
<pdfrwt beam="2">  1       -1 0.19635350E-01 0.11689591E+04</pdfrwt>
<totfact> 0.65777586E+01</totfact>
</mgrwt>
</event>
<event>
12    7  0.1611233E-007  0.1398867E+04  0.7818608E-02  0.8954639E-01
         -1   -1    0    0    0  501 -0.00000000000E+00  0.00000000000E+00  0.15491533024E+03  0.15491533024E+03  0.00000000000E+00 0.  1.
          2   -1    0    0  501    0  0.00000000000E+00 -0.00000000000E+00 -0.31579008287E+04  0.31579008287E+04  0.00000000000E+00 0. -1.
         24    2    1    2    0    0 -0.11267210322E+03  0.15530085410E+02  0.32967124369E+02  0.14517403833E+03  0.83979067161E+02 0.  0.
        254    2    1    2    0    0  0.11267210322E+03 -0.15530085410E+02 -0.30359526229E+04  0.31676421206E+04  0.89666721237E+03 0.  0.
         23    2    4    4    0    0  0.37370844595E+03  0.18762940377E+03 -0.24616715355E+04  0.24986346775E+04  0.92117898227E+02 0.  0.
         23    2    4    4    0    0 -0.26103634273E+03 -0.20315948918E+03 -0.57428108741E+03  0.66900744318E+03  0.91424512034E+02 0.  0.
          2    1    3    3  502    0 -0.10821948520E+02  0.57490205218E+01 -0.24808680981E+02  0.27670136587E+02  0.00000000000E+00 0. -1.
         -1    1    3    3    0  502 -0.10185015470E+03  0.97810648878E+01  0.57775805350E+02  0.11750390175E+03  0.00000000000E+00 0.  1.
         13    1    5    5    0    0  0.12659529755E+02  0.33082951281E+02 -0.19507812403E+03  0.19826805046E+03  0.00000000000E+00 0. -1.
        -13    1    5    5    0    0  0.36104891620E+03  0.15454645249E+03 -0.22665934114E+04  0.23003666270E+04  0.00000000000E+00 0.  1.
          2    1    6    6  503    0 -0.25730972034E+02  0.49769533866E+01 -0.24905027580E+02  0.36154023090E+02  0.00000000000E+00 0. -1.
         -2    1    6    6    0  503 -0.23530537070E+03 -0.20813644257E+03 -0.54937605983E+03  0.63285342009E+03  0.00000000000E+00 0.  1.
<mgrwt>
<rscale>  0 0.13988670E+04</rscale>
<asrwt>0</asrwt>
<pdfrwt beam="1">  1        2 0.48583086E+00 0.13988670E+04</pdfrwt>
<pdfrwt beam="2">  1       -1 0.23833129E-01 0.13988670E+04</pdfrwt>
<totfact> 0.23543067E+01</totfact>
</mgrwt>
</event>
<event>
12    7  0.1611233E-007  0.1731778E+04  0.7818608E-02  0.8743445E-01
         -1   -1    0    0    0  501 -0.00000000000E+00  0.00000000000E+00  0.94615740419E+03  0.94615740419E+03  0.00000000000E+00 0.  1.
          2   -1    0    0  501    0  0.00000000000E+00 -0.00000000000E+00 -0.79243070217E+03  0.79243070217E+03  0.00000000000E+00 0. -1.
         24    2    1    2    0    0 -0.32221126672E+03  0.25577494216E+03 -0.45978054219E+03  0.62206204356E+03  0.79511745134E+02 0.  0.
        254    2    1    2    0    0  0.32221126672E+03 -0.25577494216E+03  0.61350724421E+03  0.11165260628E+04  0.83725646535E+03 0.  0.
         23    2    4    4    0    0  0.39037487897E+03  0.73357606069E+01  0.70967839498E+03  0.81442462060E+03  0.84839134910E+02 0.  0.
         23    2    4    4    0    0 -0.68163612242E+02 -0.26311070277E+03 -0.96171150773E+02  0.30210144221E+03  0.90237859002E+02 0.  0.
          2    1    3    3  502    0 -0.22878378401E+03  0.13461501107E+03 -0.30692541163E+03  0.40579111540E+03  0.00000000000E+00 0. -1.
         -1    1    3    3    0  502 -0.93427482714E+02  0.12115993109E+03 -0.15285513057E+03  0.21627092816E+03  0.00000000000E+00 0.  1.
         13    1    5    5    0    0  0.20025844926E+03  0.14851604184E+02  0.44743250567E+03  0.49042824529E+03  0.00000000000E+00 0.  1.
        -13    1    5    5    0    0  0.19011642971E+03 -0.75158435770E+01  0.26224588931E+03  0.32399637531E+03  0.00000000000E+00 0. -1.
          1    1    6    6  503    0 -0.57707295471E+02 -0.77338559052E+02 -0.56612528854E+02  0.11187655291E+03  0.00000000000E+00 0. -1.
         -1    1    6    6    0  503 -0.10456316771E+02 -0.18577214372E+03 -0.39558621919E+02  0.19022488930E+03  0.00000000000E+00 0.  1.
<mgrwt>
<rscale>  0 0.17317785E+04</rscale>
<asrwt>0</asrwt>
<pdfrwt beam="1">  1        2 0.12191242E+00 0.17317785E+04</pdfrwt>
<pdfrwt beam="2">  1       -1 0.14556268E+00 0.17317785E+04</pdfrwt>
<totfact> 0.14295916E+01</totfact>
</mgrwt>
</event>
<event>
12    7  0.1611233E-007  0.1946818E+04  0.7818608E-02  0.8631897E-01
          2   -1    0    0  501    0  0.00000000000E+00  0.00000000000E+00  0.14858773814E+04  0.14858773814E+04  0.00000000000E+00 0. -1.
         -1   -1    0    0    0  501 -0.00000000000E+00 -0.00000000000E+00 -0.63768744985E+03  0.63768744985E+03  0.00000000000E+00 0.  1.
         24    2    1    2    0    0  0.44736125092E+03  0.60349764821E+03  0.47247613955E+03  0.89121949487E+03  0.81835110926E+02 0.  0.
        254    2    1    2    0    0 -0.44736125092E+03 -0.60349764821E+03  0.37571379201E+03  0.12323453364E+04  0.90176087429E+03 0.  0.
         23    2    4    4    0    0 -0.56733835794E+03 -0.55616925347E+03 -0.26902964737E+02  0.80024139746E+03  0.92008009464E+02 0.  0.
         23    2    4    4    0    0  0.11997710702E+03 -0.47328394738E+02  0.40261675675E+03  0.43210393893E+03  0.89325685351E+02 0.  0.
          2    1    3    3  502    0  0.19712411746E+03  0.31551868851E+03  0.19989060731E+03  0.42233424604E+03  0.00000000000E+00 0. -1.
         -1    1    3    3    0  502  0.25023713346E+03  0.28797895969E+03  0.27258553224E+03  0.46888524883E+03  0.00000000000E+00 0.  1.
         13    1    5    5    0    0 -0.15398739459E+03 -0.17923132369E+03 -0.44973341392E+02  0.24053811865E+03  0.00000000000E+00 0.  1.
        -13    1    5    5    0    0 -0.41335096335E+03 -0.37693792978E+03  0.18070376655E+02  0.55970327881E+03  0.00000000000E+00 0. -1.
          1    1    6    6  503    0  0.11827310967E+03 -0.40064744954E+02  0.25142353938E+03  0.28072675044E+03  0.00000000000E+00 0. -1.
         -1    1    6    6    0  503  0.17039973503E+01 -0.72636497841E+01  0.15119321737E+03  0.15137718848E+03  0.00000000000E+00 0.  1.
<mgrwt>
<rscale>  0 0.19468183E+04</rscale>
<asrwt>0</asrwt>
<pdfrwt beam="1">  1        2 0.22859652E+00 0.19468183E+04</pdfrwt>
<pdfrwt beam="2">  1       -1 0.98105762E-01 0.19468183E+04</pdfrwt>
<totfact> 0.13686238E+01</totfact>
</mgrwt>
</event>
<event>
12    7  0.1611233E-007  0.1340143E+04  0.7818608E-02  0.8998324E-01
          2   -1    0    0  501    0  0.00000000000E+00  0.00000000000E+00  0.18156948406E+04  0.18156948406E+04  0.00000000000E+00 0. -1.
         -1   -1    0    0    0  501 -0.00000000000E+00 -0.00000000000E+00 -0.24728577489E+03  0.24728577489E+03  0.00000000000E+00 0.  1.
         24    2    1    2    0    0  0.33521084852E+03  0.29545587226E+02  0.25599508086E+03  0.43006201968E+03  0.78616821702E+02 0.  0.
        254    2    1    2    0    0 -0.33521084852E+03 -0.29545587226E+02  0.13124139849E+04  0.16329185958E+04  0.91145675611E+03 0.  0.
         23    2    4    4    0    0  0.14242332790E+02  0.25460883678E+03  0.32612263879E+02  0.27314621038E+03  0.92286449039E+02 0.  0.
         23    2    4    4    0    0 -0.34945318131E+03 -0.28415442401E+03  0.12798017210E+04  0.13597723855E+04  0.90704093653E+02 0.  0.
          2    1    3    3  502    0  0.86574896027E+02 -0.22028343095E+01  0.10996017431E+03  0.13996894311E+03  0.00000000000E+00 0. -1.
         -1    1    3    3    0  502  0.24863595249E+03  0.31748421536E+02  0.14603490656E+03  0.29009307657E+03  0.00000000000E+00 0.  1.
         13    1    5    5    0    0 -0.34224209311E+02  0.48316402090E+02  0.45005677395E+01  0.59380353012E+02  0.00000000000E+00 0.  1.
        -13    1    5    5    0    0  0.48466542100E+02  0.20629243469E+03  0.28111696139E+02  0.21376585736E+03  0.00000000000E+00 0. -1.
          4    1    6    6  503    0 -0.23894192889E+03 -0.15121664115E+03  0.87641490546E+03  0.92090325466E+03  0.00000000000E+00 0. -1.
         -4    1    6    6    0  503 -0.11051125242E+03 -0.13293778285E+03  0.40338681553E+03  0.43886913080E+03  0.00000000000E+00 0.  1.
<mgrwt>
<rscale>  0 0.13401425E+04</rscale>
<asrwt>0</asrwt>
<pdfrwt beam="1">  1        2 0.27933766E+00 0.13401425E+04</pdfrwt>
<pdfrwt beam="2">  1       -1 0.38043967E-01 0.13401425E+04</pdfrwt>
<totfact> 0.62867622E+01</totfact>
</mgrwt>
</event>
<event>
12    7  0.1611233E-007  0.1796202E+04  0.7818608E-02  0.8708322E-01
         -1   -1    0    0    0  501 -0.00000000000E+00  0.00000000000E+00  0.61984016712E+03  0.61984016712E+03  0.00000000000E+00 0.  1.
          2   -1    0    0  501    0  0.00000000000E+00 -0.00000000000E+00 -0.13012797637E+04  0.13012797637E+04  0.00000000000E+00 0. -1.
         24    2    1    2    0    0  0.55818858584E+03 -0.20839748188E+03  0.17326100186E+02  0.60153020328E+03  0.80835536109E+02 0.  0.
        254    2    1    2    0    0 -0.55818858584E+03  0.20839748188E+03 -0.69876569679E+03  0.13195897276E+04  0.94764948280E+03 0.  0.
         23    2    4    4    0    0 -0.16684692159E+03  0.54774966019E+03 -0.26536609483E+03  0.63804534060E+03  0.93888800679E+02 0.  0.
         23    2    4    4    0    0 -0.39134166425E+03 -0.33935217831E+03 -0.43339960196E+03  0.68154438696E+03  0.91429411607E+02 0.  0.
          4    1    3    3  502    0  0.21386192656E+02  0.68970323873E+01 -0.37380343664E+01  0.22779622319E+02  0.00000000000E+00 0. -1.
         -3    1    3    3    0  502  0.53680239318E+03 -0.21529451427E+03  0.21064134553E+02  0.57875058097E+03  0.00000000000E+00 0.  1.
         13    1    5    5    0    0 -0.31297978561E+02  0.75915194565E+02 -0.75946111916E+02  0.11185031132E+03  0.00000000000E+00 0. -1.
        -13    1    5    5    0    0 -0.13554894302E+03  0.47183446563E+03 -0.18941998291E+03  0.52619502928E+03  0.00000000000E+00 0.  1.
          2    1    6    6  503    0 -0.94269288567E+02 -0.73841707239E+02 -0.15322167047E+03  0.19446381874E+03  0.00000000000E+00 0. -1.
         -2    1    6    6    0  503 -0.29707237569E+03 -0.26551047107E+03 -0.28017793149E+03  0.48708056822E+03  0.00000000000E+00 0.  1.
<mgrwt>
<rscale>  0 0.17962021E+04</rscale>
<asrwt>0</asrwt>
<pdfrwt beam="1">  1        2 0.20019689E+00 0.17962021E+04</pdfrwt>
<pdfrwt beam="2">  1       -1 0.95360025E-01 0.17962021E+04</pdfrwt>
<totfact> 0.18863253E+01</totfact>
</mgrwt>
</event>
<event>
12    7  0.1611233E-007  0.2528532E+04  0.7818608E-02  0.8392891E-01
          2   -1    0    0  501    0  0.00000000000E+00  0.00000000000E+00  0.20719230068E+04  0.20719230068E+04  0.00000000000E+00 0. -1.
         -1   -1    0    0    0  501 -0.00000000000E+00 -0.00000000000E+00 -0.77144187568E+03  0.77144187568E+03  0.00000000000E+00 0.  1.
         24    2    1    2    0    0 -0.35364894229E+03  0.97907561553E+03  0.16005025515E+03  0.10576497101E+04  0.96696379060E+02 0.  0.
        254    2    1    2    0    0  0.35364894229E+03 -0.97907561553E+03  0.11404308760E+04  0.17857151724E+04  0.89696123596E+03 0.  0.
         23    2    4    4    0    0 -0.51667560979E+02 -0.22322772568E+03  0.83563842441E+03  0.87104864590E+03  0.89073075626E+02 0.  0.
         23    2    4    4    0    0  0.40531650327E+03 -0.75584788985E+03  0.30479245156E+03  0.91466652651E+03  0.90160500131E+02 0.  0.
          4    1    3    3  502    0 -0.24030492429E+03  0.55462531531E+03  0.12240908377E+03  0.61671685627E+03  0.00000000000E+00 0. -1.
         -3    1    3    3    0  502 -0.11334401800E+03  0.42445030022E+03  0.37641171386E+02  0.44093285380E+03  0.00000000000E+00 0.  1.
         13    1    5    5    0    0 -0.57275293268E+02 -0.22891725774E+03  0.82241769989E+03  0.85560180178E+03  0.00000000000E+00 0. -1.
        -13    1    5    5    0    0  0.56077322898E+01  0.56895320596E+01  0.13220724514E+02  0.15446844117E+02  0.00000000000E+00 0.  1.
          4    1    6    6  503    0  0.33860962122E+03 -0.55693856959E+03  0.21354324244E+03  0.68588465668E+03  0.00000000000E+00 0. -1.
         -4    1    6    6    0  503  0.66706882051E+02 -0.19890932027E+03  0.91249209115E+02  0.22878186984E+03  0.00000000000E+00 0.  1.
<mgrwt>
<rscale>  0 0.25285317E+04</rscale>
<asrwt>0</asrwt>
<pdfrwt beam="1">  1        2 0.31875738E+00 0.25285317E+04</pdfrwt>
<pdfrwt beam="2">  1       -1 0.11868337E+00 0.25285317E+04</pdfrwt>
<totfact> 0.39222896E+00</totfact>
</mgrwt>
</event>
<event>
12    7  0.1611233E-007  0.2646289E+04  0.7818608E-02  0.8352646E-01
          2   -1    0    0  501    0  0.00000000000E+00  0.00000000000E+00  0.13662981351E+04  0.13662981351E+04  0.00000000000E+00 0. -1.
         -1   -1    0    0    0  501 -0.00000000000E+00 -0.00000000000E+00 -0.12813535736E+04  0.12813535736E+04  0.00000000000E+00 0.  1.
         24    2    1    2    0    0  0.28567418239E+03  0.11300407791E+04  0.55189013119E+02  0.11696165780E+04  0.79719580189E+02 0.  0.
        254    2    1    2    0    0 -0.28567418239E+03 -0.11300407791E+04  0.29755548306E+02  0.14780351307E+04  0.90835045766E+03 0.  0.
         23    2    4    4    0    0 -0.18290610906E+03 -0.52628090541E+03 -0.42747133582E+03  0.70864714382E+03  0.94988395953E+02 0.  0.
         23    2    4    4    0    0 -0.10276807333E+03 -0.60375987371E+03  0.45722688413E+03  0.76938798687E+03  0.88397900246E+02 0.  0.
          2    1    3    3  502    0  0.22376358812E+03  0.85522599102E+03  0.83948857612E+01  0.88405436099E+03  0.00000000000E+00 0. -1.
         -1    1    3    3    0  502  0.61910594270E+02  0.27481478810E+03  0.46794127358E+02  0.28556221703E+03  0.00000000000E+00 0.  1.
         13    1    5    5    0    0 -0.14986581108E+03 -0.46410979425E+03 -0.33184096467E+03  0.58989498072E+03  0.00000000000E+00 0. -1.
        -13    1    5    5    0    0 -0.33040297985E+02 -0.62171111158E+02 -0.95630371154E+02  0.11875216310E+03  0.00000000000E+00 0.  1.
          2    1    6    6  503    0 -0.36823321499E+02 -0.35619763199E+03  0.31166274486E+03  0.47472768675E+03  0.00000000000E+00 0. -1.
         -2    1    6    6    0  503 -0.65944751831E+02 -0.24756224173E+03  0.14556413927E+03  0.29466030012E+03  0.00000000000E+00 0.  1.
<mgrwt>
<rscale>  0 0.26462887E+04</rscale>
<asrwt>0</asrwt>
<pdfrwt beam="1">  1        2 0.21019971E+00 0.26462887E+04</pdfrwt>
<pdfrwt beam="2">  1       -1 0.19713132E+00 0.26462887E+04</pdfrwt>
<totfact> 0.23929773E+00</totfact>
</mgrwt>
</event>
<event>
12    7  0.1611233E-007  0.2234425E+04  0.7818608E-02  0.8504235E-01
          2   -1    0    0  501    0  0.00000000000E+00  0.00000000000E+00  0.11782243360E+04  0.11782243360E+04  0.00000000000E+00 0. -1.
         -1   -1    0    0    0  501 -0.00000000000E+00 -0.00000000000E+00 -0.10593602780E+04  0.10593602780E+04  0.00000000000E+00 0.  1.
         24    2    1    2    0    0  0.74666660019E+03  0.54950875476E+03 -0.82452515111E+02  0.93604285588E+03  0.99533549145E+02 0.  0.
        254    2    1    2    0    0 -0.74666660019E+03 -0.54950875476E+03  0.20131657311E+03  0.13015417582E+04  0.89107334278E+03 0.  0.
         23    2    4    4    0    0 -0.14424168129E+03 -0.60235033725E+03  0.27804507178E+03  0.68526475037E+03  0.92989917529E+02 0.  0.
         23    2    4    4    0    0 -0.60242491890E+03  0.52841582487E+02 -0.76728498673E+02  0.61627700778E+03  0.90565291691E+02 0.  0.
          2    1    3    3  502    0  0.34555095426E+03  0.22773653072E+03  0.79747476118E+01  0.41392388916E+03  0.00000000000E+00 0. -1.
         -1    1    3    3    0  502  0.40111564593E+03  0.32177222404E+03 -0.90427262723E+02  0.52211896673E+03  0.00000000000E+00 0.  1.
         13    1    5    5    0    0 -0.56285449069E+02 -0.21455280590E+03  0.51876591835E+02  0.22779846154E+03  0.00000000000E+00 0.  1.
        -13    1    5    5    0    0 -0.87956232220E+02 -0.38779753134E+03  0.22616847995E+03  0.45746628884E+03  0.00000000000E+00 0. -1.
          2    1    6    6  503    0 -0.43735214928E+03  0.69182983083E+02 -0.81974857921E+02  0.45031440679E+03  0.00000000000E+00 0. -1.
         -2    1    6    6    0  503 -0.16507276962E+03 -0.16341400596E+02  0.52463592477E+01  0.16596260099E+03  0.00000000000E+00 0.  1.
<mgrwt>
<rscale>  0 0.22344253E+04</rscale>
<asrwt>0</asrwt>
<pdfrwt beam="1">  1        2 0.18126528E+00 0.22344253E+04</pdfrwt>
<pdfrwt beam="2">  1       -1 0.16297850E+00 0.22344253E+04</pdfrwt>
<totfact> 0.56285621E+00</totfact>
</mgrwt>
</event>
<event>
12    7  0.1611233E-007  0.1535107E+04  0.7818608E-02  0.8861437E-01
         -1   -1    0    0    0  501 -0.00000000000E+00  0.00000000000E+00  0.49158621887E+03  0.49158621887E+03  0.00000000000E+00 0.  1.
          2   -1    0    0  501    0  0.00000000000E+00 -0.00000000000E+00 -0.11984438270E+04  0.11984438270E+04  0.00000000000E+00 0. -1.
         24    2    1    2    0    0  0.26203727996E+03  0.23383958198E+03 -0.62643684976E+03  0.72303565328E+03  0.83743316085E+02 0.  0.
        254    2    1    2    0    0 -0.26203727996E+03 -0.23383958198E+03 -0.80420758320E+02  0.96699439254E+03  0.89736624109E+03 0.  0.
         23    2    4    4    0    0 -0.49197311775E+03  0.79848003572E+02  0.11946373493E+03  0.52062995368E+03  0.91491597694E+02 0.  0.
         23    2    4    4    0    0  0.22993583778E+03 -0.31368758555E+03 -0.19988449325E+03  0.44636443886E+03  0.89537761929E+02 0.  0.
          4    1    3    3  502    0  0.15996601893E+03  0.18375002000E+03 -0.47310248496E+03  0.53214580553E+03  0.00000000000E+00 0. -1.
         -3    1    3    3    0  502  0.10207126103E+03  0.50089561978E+02 -0.15333436480E+03  0.19088984775E+03  0.00000000000E+00 0.  1.
         13    1    5    5    0    0 -0.21061369820E+03 -0.91152811027E+00  0.79836375887E+02  0.22523944518E+03  0.00000000000E+00 0.  1.
        -13    1    5    5    0    0 -0.28135941955E+03  0.80759531682E+02  0.39627359042E+02  0.29539050850E+03  0.00000000000E+00 0. -1.
          1    1    6    6  503    0  0.19073047640E+03 -0.23137834064E+03 -0.11305085230E+03  0.32045989820E+03  0.00000000000E+00 0. -1.
         -1    1    6    6    0  503  0.39205361380E+02 -0.82309244909E+02 -0.86833640953E+02  0.12590454066E+03  0.00000000000E+00 0.  1.
<mgrwt>
<rscale>  0 0.15351071E+04</rscale>
<asrwt>0</asrwt>
<pdfrwt beam="1">  1        2 0.18437597E+00 0.15351071E+04</pdfrwt>
<pdfrwt beam="2">  1       -1 0.75628649E-01 0.15351071E+04</pdfrwt>
<totfact> 0.36647241E+01</totfact>
</mgrwt>
</event>
<event>
12    7  0.1611233E-007  0.1208034E+04  0.7818608E-02  0.9105853E-01
          2   -1    0    0  501    0  0.00000000000E+00  0.00000000000E+00  0.95853963682E+03  0.95853963682E+03  0.00000000000E+00 0. -1.
         -1   -1    0    0    0  501 -0.00000000000E+00 -0.00000000000E+00 -0.38061733065E+03  0.38061733065E+03  0.00000000000E+00 0.  1.
         24    2    1    2    0    0 -0.21547364388E+02  0.17293384678E+03 -0.51902701823E+02  0.19887542397E+03  0.80542780745E+02 0.  0.
        254    2    1    2    0    0  0.21547364388E+02 -0.17293384678E+03  0.62982500800E+03  0.11402815435E+04  0.93444745891E+03 0.  0.
         23    2    4    4    0    0  0.15798732983E+03  0.26224105369E+03 -0.42225745051E+02  0.32274606941E+03  0.93014220152E+02 0.  0.
         23    2    4    4    0    0 -0.13643996544E+03 -0.43517490046E+03  0.67205075305E+03  0.81753547409E+03  0.93375470842E+02 0.  0.
          4    1    3    3  502    0  0.12035855952E+01 -0.85017956581E+01 -0.55878381477E+01  0.10244661188E+02  0.00000000000E+00 0. -1.
         -3    1    3    3    0  502 -0.22750949983E+02  0.18143564243E+03 -0.46314863676E+02  0.18863076278E+03  0.00000000000E+00 0.  1.
         13    1    5    5    0    0  0.10237987485E+03  0.23835128586E+03 -0.36258506934E+02  0.26193062740E+03  0.00000000000E+00 0. -1.
        -13    1    5    5    0    0  0.55607454979E+02  0.23889767824E+02 -0.59672381176E+01  0.60815442008E+02  0.00000000000E+00 0.  1.
          2    1    6    6  503    0 -0.14507919336E+03 -0.41154663523E+03  0.65534993258E+03  0.78733864343E+03  0.00000000000E+00 0. -1.
         -2    1    6    6    0  503  0.86392279245E+01 -0.23628265234E+02  0.16700820474E+02  0.30196830654E+02  0.00000000000E+00 0.  1.
<mgrwt>
<rscale>  0 0.12080344E+04</rscale>
<asrwt>0</asrwt>
<pdfrwt beam="1">  1        2 0.14746764E+00 0.12080344E+04</pdfrwt>
<pdfrwt beam="2">  1       -1 0.58556513E-01 0.12080344E+04</pdfrwt>
<totfact> 0.89121729E+01</totfact>
</mgrwt>
</event>
<event>
12    7  0.1611233E-007  0.2078418E+04  0.7818608E-02  0.8570810E-01
          2   -1    0    0  501    0  0.00000000000E+00  0.00000000000E+00  0.20936058483E+04  0.20936058483E+04  0.00000000000E+00 0. -1.
         -1   -1    0    0    0  501 -0.00000000000E+00 -0.00000000000E+00 -0.51583519933E+03  0.51583519933E+03  0.00000000000E+00 0.  1.
         24    2    1    2    0    0 -0.41562347826E+02  0.57760539491E+02 -0.42524803379E+03  0.43847616295E+03  0.79760557665E+02 0.  0.
        254    2    1    2    0    0  0.41562347826E+02 -0.57760539491E+02  0.20030186827E+04  0.21709648846E+04  0.83423077045E+03 0.  0.
         23    2    4    4    0    0  0.22820089522E+03  0.15922636850E+03  0.23007065387E+03  0.37269312366E+03  0.92406567116E+02 0.  0.
         23    2    4    4    0    0 -0.18663854740E+03 -0.21698690799E+03  0.17729480288E+04  0.17982717610E+04  0.92300312809E+02 0.  0.
          4    1    3    3  502    0 -0.12694619759E+02  0.26777817735E+02 -0.34670821322E+02  0.45609985141E+02  0.00000000000E+00 0. -1.
         -3    1    3    3    0  502 -0.28867728066E+02  0.30982721756E+02 -0.39057721247E+03  0.39286617781E+03  0.00000000000E+00 0.  1.
         13    1    5    5    0    0  0.20159189204E+02  0.15682121389E+02 -0.66521765218E+01  0.26392674990E+02  0.00000000000E+00 0. -1.
        -13    1    5    5    0    0  0.20804170602E+03  0.14354424711E+03  0.23672283039E+03  0.34630044867E+03  0.00000000000E+00 0.  1.
          2    1    6    6  503    0 -0.14290312000E+03 -0.10142022448E+03  0.11378983485E+04  0.11513123013E+04  0.00000000000E+00 0.  1.
         -2    1    6    6    0  503 -0.43735427400E+02 -0.11556668351E+03  0.63504968039E+03  0.64695945972E+03  0.00000000000E+00 0. -1.
<mgrwt>
<rscale>  0 0.20784182E+04</rscale>
<asrwt>0</asrwt>
<pdfrwt beam="1">  1        2 0.32209320E+00 0.20784182E+04</pdfrwt>
<pdfrwt beam="2">  1       -1 0.79359262E-01 0.20784182E+04</pdfrwt>
<totfact> 0.98792582E+00</totfact>
</mgrwt>
</event>
<event>
12    7  0.1611233E-007  0.1343080E+04  0.7818608E-02  0.8996083E-01
          2   -1    0    0  501    0  0.00000000000E+00  0.00000000000E+00  0.11538636204E+04  0.11538636204E+04  0.00000000000E+00 0. -1.
         -1   -1    0    0    0  501 -0.00000000000E+00 -0.00000000000E+00 -0.39083154398E+03  0.39083154398E+03  0.00000000000E+00 0.  1.
         24    2    1    2    0    0 -0.20197087298E+03  0.23543744689E+03 -0.11879326527E+02  0.31852510179E+03  0.71372944018E+02 0.  0.
        254    2    1    2    0    0  0.20197087298E+03 -0.23543744689E+03  0.77491140298E+03  0.12261700626E+04  0.89821061844E+03 0.  0.
         23    2    4    4    0    0  0.14300564752E+03  0.31628607200E+03  0.15779421345E+03  0.39144250887E+03  0.88547893228E+02 0.  0.
         23    2    4    4    0    0  0.58965225465E+02 -0.55172351889E+03  0.61711718954E+03  0.83472755375E+03  0.89781536296E+02 0.  0.
          2    1    3    3  502    0 -0.41334528877E+02  0.37831825889E+02 -0.29370271837E+02  0.63264549278E+02  0.00000000000E+00 0. -1.
         -1    1    3    3    0  502 -0.16063634410E+03  0.19760562101E+03  0.17490945310E+02  0.25526055251E+03  0.00000000000E+00 0.  1.
         13    1    5    5    0    0  0.32902086187E+02  0.17845577057E+03  0.71272123069E+02  0.19495826439E+03  0.00000000000E+00 0. -1.
        -13    1    5    5    0    0  0.11010356133E+03  0.13783030142E+03  0.86522090376E+02  0.19648424449E+03  0.00000000000E+00 0.  1.
          2    1    6    6  503    0  0.63137730080E+02 -0.51340595165E+03  0.53586961300E+03  0.74480083666E+03  0.00000000000E+00 0. -1.
         -2    1    6    6    0  503 -0.41725046155E+01 -0.38317567237E+02  0.81247576539E+02  0.89926717093E+02  0.00000000000E+00 0.  1.
<mgrwt>
<rscale>  0 0.13430805E+04</rscale>
<asrwt>0</asrwt>
<pdfrwt beam="1">  1        2 0.17751748E+00 0.13430805E+04</pdfrwt>
<pdfrwt beam="2">  1       -1 0.60127930E-01 0.13430805E+04</pdfrwt>
<totfact> 0.63110183E+01</totfact>
</mgrwt>
</event>
<event>
12    7  0.1611233E-007  0.2164539E+04  0.7818608E-02  0.8533335E-01
          2   -1    0    0  501    0  0.00000000000E+00  0.00000000000E+00  0.17165762014E+04  0.17165762014E+04  0.00000000000E+00 0. -1.
         -1   -1    0    0    0  501 -0.00000000000E+00 -0.00000000000E+00 -0.68235069340E+03  0.68235069340E+03  0.00000000000E+00 0.  1.
         24    2    1    2    0    0 -0.21378430745E+03  0.57280407444E+03  0.11287452090E+04  0.12862784828E+04  0.81476074356E+02 0.  0.
        254    2    1    2    0    0  0.21378430745E+03 -0.57280407444E+03 -0.94519700945E+02  0.11126484120E+04  0.92479418096E+03 0.  0.
         23    2    4    4    0    0  0.13188320080E+03 -0.19134786456E+03  0.40272352195E+03  0.47412549099E+03  0.92744607134E+02 0.  0.
         23    2    4    4    0    0  0.81901106644E+02 -0.38145620988E+03 -0.49724322289E+03  0.63852292105E+03  0.90796842784E+02 0.  0.
          2    1    3    3  502    0 -0.17489938037E+03  0.40084837772E+03  0.74307083892E+03  0.86222009188E+03  0.00000000000E+00 0. -1.
         -1    1    3    3    0  502 -0.38884927078E+02  0.17195569672E+03  0.38567437006E+03  0.42405839092E+03  0.00000000000E+00 0.  1.
         13    1    5    5    0    0  0.13712072878E+03 -0.13281371923E+03  0.32082958280E+03  0.37332720163E+03  0.00000000000E+00 0. -1.
        -13    1    5    5    0    0 -0.52375279809E+01 -0.58534145330E+02  0.81893939147E+02  0.10079828936E+03  0.00000000000E+00 0.  1.
          1    1    6    6  503    0  0.26373642299E+02 -0.11032790831E+03 -0.83939213523E+02  0.14111558357E+03  0.00000000000E+00 0. -1.
         -1    1    6    6    0  503  0.55527464345E+02 -0.27112830157E+03 -0.41330400937E+03  0.49740733747E+03  0.00000000000E+00 0.  1.
<mgrwt>
<rscale>  0 0.21645387E+04</rscale>
<asrwt>0</asrwt>
<pdfrwt beam="1">  1        2 0.26408864E+00 0.21645387E+04</pdfrwt>
<pdfrwt beam="2">  1       -1 0.10497703E+00 0.21645387E+04</pdfrwt>
<totfact> 0.85367405E+00</totfact>
</mgrwt>
</event>
<event>
12    7  0.1611233E-007  0.1256894E+04  0.7818608E-02  0.9064465E-01
         -1   -1    0    0    0  501 -0.00000000000E+00  0.00000000000E+00  0.23574787824E+03  0.23574787824E+03  0.00000000000E+00 0.  1.
          2   -1    0    0  501    0  0.00000000000E+00 -0.00000000000E+00 -0.16752879723E+04  0.16752879723E+04  0.00000000000E+00 0. -1.
         24    2    1    2    0    0 -0.16106062914E+03 -0.46919839681E+01  0.32621505809E+02  0.18112963941E+03  0.76034483348E+02 0.  0.
        254    2    1    2    0    0  0.16106062914E+03  0.46919839681E+01 -0.14721615999E+04  0.17299062112E+04  0.89406553575E+03 0.  0.
         23    2    4    4    0    0 -0.20842115256E+03 -0.32957765886E+03 -0.70412083646E+03  0.80995004600E+03  0.90399749053E+02 0.  0.
         23    2    4    4    0    0  0.36948178170E+03  0.33426964283E+03 -0.76804076345E+03  0.91995616516E+03  0.90441972489E+02 0.  0.
          2    1    3    3  502    0 -0.72072481919E+02 -0.35608228043E+02  0.33063740354E+02  0.86922951402E+02  0.00000000000E+00 0. -1.
         -1    1    3    3    0  502 -0.88988147219E+02  0.30916244074E+02 -0.44223454462E+00  0.94206688003E+02  0.00000000000E+00 0.  1.
         13    1    5    5    0    0 -0.20035814740E+03 -0.33356442789E+03 -0.67131328686E+03  0.77593179075E+03  0.00000000000E+00 0. -1.
        -13    1    5    5    0    0 -0.80630051553E+01  0.39867690334E+01 -0.32807549599E+02  0.34018255249E+02  0.00000000000E+00 0.  1.
          3    1    6    6  503    0  0.31989118477E+03  0.24098209735E+03 -0.61901299380E+03  0.73727866363E+03  0.00000000000E+00 0. -1.
         -3    1    6    6    0  503  0.49590596923E+02  0.93287545473E+02 -0.14902776964E+03  0.18267750154E+03  0.00000000000E+00 0.  1.
<mgrwt>
<rscale>  0 0.12568939E+04</rscale>
<asrwt>0</asrwt>
<pdfrwt beam="1">  1        2 0.25773660E+00 0.12568939E+04</pdfrwt>
<pdfrwt beam="2">  1       -1 0.36268906E-01 0.12568939E+04</pdfrwt>
<totfact> 0.82497735E+01</totfact>
</mgrwt>
</event>
<event>
12    7  0.1611233E-007  0.1461606E+04  0.7818608E-02  0.8910393E-01
         -1   -1    0    0    0  501 -0.00000000000E+00  0.00000000000E+00  0.92499126196E+03  0.92499126196E+03  0.00000000000E+00 0.  1.
          2   -1    0    0  501    0  0.00000000000E+00 -0.00000000000E+00 -0.57738206608E+03  0.57738206608E+03  0.00000000000E+00 0. -1.
         24    2    1    2    0    0  0.31661079331E+03  0.29752137864E+03  0.21491999799E+03  0.49152014990E+03  0.81486729182E+02 0.  0.
        254    2    1    2    0    0 -0.31661079331E+03 -0.29752137864E+03  0.13268919790E+03  0.10108531781E+04  0.90302622295E+03 0.  0.
         23    2    4    4    0    0  0.25116292969E+03  0.11857841926E+03  0.37388139003E+02  0.29484705624E+03  0.91614708822E+02 0.  0.
         23    2    4    4    0    0 -0.56777372300E+03 -0.41609979790E+03  0.95301058893E+02  0.71600612190E+03  0.89868973649E+02 0.  0.
          2    1    3    3  502    0  0.27977819904E+03  0.25989502418E+03  0.15599929255E+03  0.41250096185E+03  0.00000000000E+00 0. -1.
         -1    1    3    3    0  502  0.36832594266E+02  0.37626354464E+02  0.58920705434E+02  0.79019188046E+02  0.00000000000E+00 0.  1.
         13    1    5    5    0    0  0.13763410842E+03  0.15844156591E+02  0.67985175492E+01  0.13870978675E+03  0.00000000000E+00 0. -1.
        -13    1    5    5    0    0  0.11352882127E+03  0.10273426267E+03  0.30589621453E+02  0.15613726949E+03  0.00000000000E+00 0.  1.
          4    1    6    6  503    0 -0.36765065594E+02 -0.59694404724E+02  0.96853011070E+01  0.70773561879E+02  0.00000000000E+00 0. -1.
         -4    1    6    6    0  503 -0.53100865741E+03 -0.35640539318E+03  0.85615757786E+02  0.64523256002E+03  0.00000000000E+00 0.  1.
<mgrwt>
<rscale>  0 0.14616065E+04</rscale>
<asrwt>0</asrwt>
<pdfrwt beam="1">  1        2 0.88828010E-01 0.14616065E+04</pdfrwt>
<pdfrwt beam="2">  1       -1 0.14230635E+00 0.14616065E+04</pdfrwt>
<totfact> 0.23102516E+01</totfact>
</mgrwt>
</event>
<event>
12    7  0.1611233E-007  0.1253420E+04  0.7818608E-02  0.9067341E-01
          2   -1    0    0  501    0  0.00000000000E+00  0.00000000000E+00  0.64907260359E+03  0.64907260359E+03  0.00000000000E+00 0. -1.
         -1   -1    0    0    0  501 -0.00000000000E+00 -0.00000000000E+00 -0.60511808078E+03  0.60511808078E+03  0.00000000000E+00 0.  1.
         24    2    1    2    0    0 -0.11483172777E+03 -0.24714426945E+03  0.14236626325E+03  0.31831363957E+03  0.82394202463E+02 0.  0.
        254    2    1    2    0    0  0.11483172777E+03  0.24714426945E+03 -0.98411740441E+02  0.93587704481E+03  0.88989569991E+03 0.  0.
         23    2    4    4    0    0  0.12212381214E+03  0.43051098934E+03  0.25816818865E+03  0.52480541977E+03  0.92282054350E+02 0.  0.
         23    2    4    4    0    0 -0.72920843642E+01 -0.18336671989E+03 -0.35657992909E+03  0.41107162504E+03  0.90300092037E+02 0.  0.
          2    1    3    3  502    0 -0.12185697178E+03 -0.23690861942E+03  0.14791102500E+03  0.30471706031E+03  0.00000000000E+00 0. -1.
         -1    1    3    3    0  502  0.70252440056E+01 -0.10235650024E+02 -0.55447617450E+01  0.13596579260E+02  0.00000000000E+00 0.  1.
         13    1    5    5    0    0  0.26548582391E+02  0.24099611301E+03  0.16328706507E+03  0.29231253708E+03  0.00000000000E+00 0.  1.
        -13    1    5    5    0    0  0.95575229745E+02  0.18951487633E+03  0.94881123585E+02  0.23249288269E+03  0.00000000000E+00 0. -1.
          1    1    6    6  503    0 -0.30861683237E+02 -0.17014419382E+03 -0.33293453785E+03  0.37516249370E+03  0.00000000000E+00 0. -1.
         -1    1    6    6    0  503  0.23569598873E+02 -0.13222526068E+02 -0.23645391244E+02  0.35909131342E+02  0.00000000000E+00 0.  1.
<mgrwt>
<rscale>  0 0.12534202E+04</rscale>
<asrwt>0</asrwt>
<pdfrwt beam="1">  1        2 0.99857323E-01 0.12534202E+04</pdfrwt>
<pdfrwt beam="2">  1       -1 0.93095090E-01 0.12534202E+04</pdfrwt>
<totfact> 0.56728665E+01</totfact>
</mgrwt>
</event>
<event>
12    7  0.1611233E-007  0.3424659E+04  0.7818608E-02  0.8131881E-01
          2   -1    0    0  501    0  0.00000000000E+00  0.00000000000E+00  0.31997240863E+04  0.31997240863E+04  0.00000000000E+00 0. -1.
         -1   -1    0    0    0  501 -0.00000000000E+00 -0.00000000000E+00 -0.91635154359E+03  0.91635154359E+03  0.00000000000E+00 0.  1.
         24    2    1    2    0    0 -0.26877178151E+02 -0.99485585580E+03 -0.43292982028E+03  0.10895679708E+04  0.96278643614E+02 0.  0.
        254    2    1    2    0    0  0.26877178151E+02  0.99485585580E+03  0.27163023630E+04  0.30265076591E+04  0.88937591982E+03 0.  0.
         23    2    4    4    0    0 -0.29538386990E+03  0.46121307309E+02  0.85895430855E+03  0.91401834570E+03  0.90819747419E+02 0.  0.
         23    2    4    4    0    0  0.32226104805E+03  0.94873454849E+03  0.18573480545E+04  0.21124893134E+04  0.94445101531E+02 0.  0.
          4    1    3    3  502    0 -0.49285190217E+02 -0.50124717312E+03 -0.25367860086E+03  0.56394201038E+03  0.00000000000E+00 0. -1.
         -3    1    3    3    0  502  0.22408012066E+02 -0.49360868268E+03 -0.17925121941E+03  0.52562596044E+03  0.00000000000E+00 0.  1.
         13    1    5    5    0    0 -0.23865214331E+02  0.25381906432E+02  0.54113265147E+02  0.64358644284E+02  0.00000000000E+00 0.  1.
        -13    1    5    5    0    0 -0.27151865557E+03  0.20739400877E+02  0.80484104340E+03  0.84965970142E+03  0.00000000000E+00 0. -1.
          1    1    6    6  503    0  0.26013841392E+03  0.78987218233E+03  0.16090281362E+04  0.18112265462E+04  0.00000000000E+00 0. -1.
         -1    1    6    6    0  503  0.62122634137E+02  0.15886236616E+03  0.24831991830E+03  0.30126276716E+03  0.00000000000E+00 0.  1.
<mgrwt>
<rscale>  0 0.34246589E+04</rscale>
<asrwt>0</asrwt>
<pdfrwt beam="1">  1        2 0.49226524E+00 0.34246589E+04</pdfrwt>
<pdfrwt beam="2">  1       -1 0.14097716E+00 0.34246589E+04</pdfrwt>
<totfact> 0.50073991E-01</totfact>
</mgrwt>
</event>
<event>
12    7  0.1611233E-007  0.1926191E+04  0.7818608E-02  0.8641928E-01
          2   -1    0    0  501    0  0.00000000000E+00  0.00000000000E+00  0.22377051295E+04  0.22377051295E+04  0.00000000000E+00 0. -1.
         -3   -1    0    0    0  501 -0.00000000000E+00 -0.00000000000E+00 -0.41451079724E+03  0.41451079724E+03  0.00000000000E+00 0.  1.
         24    2    1    2    0    0  0.71922062811E+03 -0.22284876161E+03  0.65955065721E+03  0.10041344296E+04  0.79617841956E+02 0.  0.
        254    2    1    2    0    0 -0.71922062811E+03  0.22284876161E+03  0.11636436751E+04  0.16480814972E+04  0.89172088482E+03 0.  0.
         23    2    4    4    0    0 -0.71607678649E+03 -0.87517342193E+02  0.42578993895E+03  0.84262415313E+03  0.91066689836E+02 0.  0.
         23    2    4    4    0    0 -0.31438416206E+01  0.31036610381E+03  0.73785373614E+03  0.80545734408E+03  0.89422564639E+02 0.  0.
          4    1    3    3  502    0  0.60913478152E+02  0.31823264903E+01  0.58198626061E+02  0.84306933865E+02  0.00000000000E+00 0. -1.
         -3    1    3    3    0  502  0.65830714995E+03 -0.22603108810E+03  0.60135203115E+03  0.91982749569E+03  0.00000000000E+00 0.  1.
         13    1    5    5    0    0 -0.20724164461E+03 -0.67292921951E+02  0.12784781667E+03  0.25263115571E+03  0.00000000000E+00 0.  1.
        -13    1    5    5    0    0 -0.50883514187E+03 -0.20224420243E+02  0.29794212228E+03  0.58999299742E+03  0.00000000000E+00 0. -1.
          4    1    6    6  503    0 -0.35354833905E+01  0.18189125291E+03  0.31771846786E+03  0.36611740241E+03  0.00000000000E+00 0.  1.
         -4    1    6    6    0  503  0.39164176995E+00  0.12847485090E+03  0.42013526828E+03  0.43933994167E+03  0.00000000000E+00 0. -1.
<mgrwt>
<rscale>  0 0.19261910E+04</rscale>
<asrwt>0</asrwt>
<pdfrwt beam="1">  1        2 0.34426232E+00 0.19261910E+04</pdfrwt>
<pdfrwt beam="2">  1       -3 0.63770893E-01 0.19261910E+04</pdfrwt>
<totfact> 0.70344535E+00</totfact>
</mgrwt>
</event>
<event>
12    7  0.1611233E-007  0.1457533E+04  0.7818608E-02  0.8913195E-01
          2   -1    0    0  501    0  0.00000000000E+00  0.00000000000E+00  0.25384254468E+03  0.25384254468E+03  0.00000000000E+00 0. -1.
         -1   -1    0    0    0  501 -0.00000000000E+00 -0.00000000000E+00 -0.20922430739E+04  0.20922430739E+04  0.00000000000E+00 0.  1.
         24    2    1    2    0    0 -0.24784653922E+02  0.10703538569E+03  0.12108094831E+03  0.18194817816E+03  0.79835397119E+02 0.  0.
        254    2    1    2    0    0  0.24784653922E+02 -0.10703538569E+03 -0.19594814775E+04  0.21641374404E+04  0.91205939900E+03 0.  0.
         23    2    4    4    0    0 -0.34001942767E+03 -0.10500640827E+03 -0.16034716835E+04  0.16450508138E+04  0.91821473558E+02 0.  0.
         23    2    4    4    0    0  0.36480408160E+03 -0.20289774232E+01 -0.35600979394E+03  0.51908662658E+03  0.98090865103E+02 0.  0.
          2    1    3    3  502    0 -0.49469589695E+02  0.93296559888E+02  0.81867082085E+02  0.13361776649E+03  0.00000000000E+00 0. -1.
         -1    1    3    3    0  502  0.24684935774E+02  0.13738825804E+02  0.39213866227E+02  0.48330411679E+02  0.00000000000E+00 0.  1.
         13    1    5    5    0    0 -0.25935819116E+02  0.16483812398E+02 -0.12863638572E+03  0.13225620029E+03  0.00000000000E+00 0. -1.
        -13    1    5    5    0    0 -0.31408360856E+03 -0.12149022067E+03 -0.14748352978E+04  0.15127946135E+04  0.00000000000E+00 0.  1.
          3    1    6    6  503    0  0.10536520986E+03 -0.44828712410E+02 -0.98352744735E+02  0.15094602778E+03  0.00000000000E+00 0. -1.
         -3    1    6    6    0  503  0.25943887174E+03  0.42799734987E+02 -0.25765704920E+03  0.36814059880E+03  0.00000000000E+00 0.  1.
<mgrwt>
<rscale>  0 0.14575326E+04</rscale>
<asrwt>0</asrwt>
<pdfrwt beam="1">  1        2 0.39052700E-01 0.14575326E+04</pdfrwt>
<pdfrwt beam="2">  1       -1 0.32188355E+00 0.14575326E+04</pdfrwt>
<totfact> 0.35103173E+00</totfact>
</mgrwt>
</event>
<event>
12    7  0.1611233E-007  0.2328262E+04  0.7818608E-02  0.8466861E-01
         -1   -1    0    0    0  501 -0.00000000000E+00  0.00000000000E+00  0.75697356495E+03  0.75697356495E+03  0.00000000000E+00 0.  1.
          2   -1    0    0  501    0  0.00000000000E+00 -0.00000000000E+00 -0.17902876726E+04  0.17902876726E+04  0.00000000000E+00 0. -1.
         24    2    1    2    0    0 -0.17717106918E+03  0.21023544760E+03 -0.14807296219E+04  0.15081403707E+04  0.79615534833E+02 0.  0.
        254    2    1    2    0    0  0.17717106918E+03 -0.21023544760E+03  0.44741551431E+03  0.10391208668E+04  0.89666214494E+03 0.  0.
         23    2    4    4    0    0 -0.28811987282E+03  0.14333693385E+03  0.81415480929E+02  0.34366796531E+03  0.88998045655E+02 0.  0.
         23    2    4    4    0    0  0.46529094200E+03 -0.35357238145E+03  0.36600003339E+03  0.69545290148E+03  0.90496541917E+02 0.  0.
          4    1    3    3  502    0 -0.12885124900E+03  0.13995791415E+03 -0.81162474829E+03  0.83362197317E+03  0.00000000000E+00 0. -1.
         -3    1    3    3    0  502 -0.48319820181E+02  0.70277533449E+02 -0.66910487365E+03  0.67451839758E+03  0.00000000000E+00 0.  1.
         13    1    5    5    0    0 -0.25164236746E+03  0.90036354721E+02  0.80312905152E+02  0.27907093902E+03  0.00000000000E+00 0. -1.
        -13    1    5    5    0    0 -0.36477505359E+02  0.53300579129E+02  0.11025757769E+01  0.64597026295E+02  0.00000000000E+00 0.  1.
          1    1    6    6  503    0  0.45157223816E+03 -0.32681706470E+03  0.36307270528E+03  0.66524331591E+03  0.00000000000E+00 0. -1.
         -1    1    6    6    0  503  0.13718703844E+02 -0.26755316759E+02  0.29273281075E+01  0.30209585563E+02  0.00000000000E+00 0.  1.
<mgrwt>
<rscale>  0 0.23282615E+04</rscale>
<asrwt>0</asrwt>
<pdfrwt beam="1">  1        2 0.27542887E+00 0.23282615E+04</pdfrwt>
<pdfrwt beam="2">  1       -1 0.11645747E+00 0.23282615E+04</pdfrwt>
<totfact> 0.59907278E+00</totfact>
</mgrwt>
</event>
<event>
12    7  0.1611233E-007  0.1164235E+04  0.7818608E-02  0.9144751E-01
         -1   -1    0    0    0  501 -0.00000000000E+00  0.00000000000E+00  0.18596612189E+03  0.18596612189E+03  0.00000000000E+00 0.  1.
          2   -1    0    0  501    0  0.00000000000E+00 -0.00000000000E+00 -0.18221641771E+04  0.18221641771E+04  0.00000000000E+00 0. -1.
         24    2    1    2    0    0  0.64594346878E+02  0.89471120532E+02 -0.66403070479E+03  0.67780598234E+03  0.79414493204E+02 0.  0.
        254    2    1    2    0    0 -0.64594346878E+02 -0.89471120532E+02 -0.97216735046E+03  0.13303243167E+04  0.90137446117E+03 0.  0.
         23    2    4    4    0    0 -0.13986981147E+03  0.38162589733E+03 -0.36473258107E+03  0.55181250923E+03  0.79153647849E+02 0.  0.
         23    2    4    4    0    0  0.75275464592E+02 -0.47109701786E+03 -0.60743476939E+03  0.77851180748E+03  0.97492766446E+02 0.  0.
          2    1    3    3  502    0  0.51152728549E+02  0.33336032241E+02 -0.17428439921E+03  0.18466982561E+03  0.00000000000E+00 0. -1.
         -1    1    3    3    0  502  0.13441618330E+02  0.56135088291E+02 -0.48974630558E+03  0.49313615673E+03  0.00000000000E+00 0.  1.
         13    1    5    5    0    0 -0.49101925025E+02  0.12787258648E+03 -0.75187460110E+02  0.15625476495E+03  0.00000000000E+00 0.  1.
        -13    1    5    5    0    0 -0.90767886446E+02  0.25375331085E+03 -0.28954512096E+03  0.39555774427E+03  0.00000000000E+00 0. -1.
          2    1    6    6  503    0  0.49429226778E+02 -0.17608474434E+03 -0.16630795352E+03  0.24719915262E+03  0.00000000000E+00 0. -1.
         -2    1    6    6    0  503  0.25846237814E+02 -0.29501227352E+03 -0.44112681587E+03  0.53131265486E+03  0.00000000000E+00 0.  1.
<mgrwt>
<rscale>  0 0.11642350E+04</rscale>
<asrwt>0</asrwt>
<pdfrwt beam="1">  1        2 0.28033294E+00 0.11642350E+04</pdfrwt>
<pdfrwt beam="2">  1       -1 0.28610174E-01 0.11642350E+04</pdfrwt>
<totfact> 0.10483606E+02</totfact>
</mgrwt>
</event>
<event>
12    7  0.1611233E-007  0.2031907E+04  0.7818608E-02  0.8591847E-01
         -1   -1    0    0    0  501 -0.00000000000E+00  0.00000000000E+00  0.32665176757E+03  0.32665176757E+03  0.00000000000E+00 0.  1.
          2   -1    0    0  501    0  0.00000000000E+00 -0.00000000000E+00 -0.31598207117E+04  0.31598207117E+04  0.00000000000E+00 0. -1.
         24    2    1    2    0    0 -0.61121433351E+03  0.19698756684E+03 -0.20184238986E+04  0.21196031190E+04  0.79342831085E+02 0.  0.
        254    2    1    2    0    0  0.61121433351E+03 -0.19698756684E+03 -0.81474504552E+03  0.13668693602E+04  0.89001982883E+03 0.  0.
         23    2    4    4    0    0  0.33715689157E+03  0.15506520393E+02 -0.92687349136E+03  0.99108224086E+03  0.96095355998E+02 0.  0.
         23    2    4    4    0    0  0.27405744194E+03 -0.21249408724E+03  0.11212844584E+03  0.37578711936E+03  0.91553001668E+02 0.  0.
          2    1    3    3  502    0 -0.42609948579E+03  0.17257070503E+03 -0.13925624632E+04  0.14664827425E+04  0.00000000000E+00 0. -1.
         -1    1    3    3    0  502 -0.18511484772E+03  0.24416861814E+02 -0.62586143533E+03  0.65312037651E+03  0.00000000000E+00 0.  1.
         13    1    5    5    0    0  0.89536930461E+02 -0.28312503627E+02 -0.18019621167E+03  0.20319727970E+03  0.00000000000E+00 0. -1.
        -13    1    5    5    0    0  0.24761996111E+03  0.43819024020E+02 -0.74667727970E+03  0.78788496116E+03  0.00000000000E+00 0.  1.
          3    1    6    6  503    0  0.15233400097E+03 -0.75758993966E+02  0.86742836972E+02  0.19096961220E+03  0.00000000000E+00 0. -1.
         -3    1    6    6    0  503  0.12172344097E+03 -0.13673509327E+03  0.25385608866E+02  0.18481750715E+03  0.00000000000E+00 0.  1.
<mgrwt>
<rscale>  0 0.20319065E+04</rscale>
<asrwt>0</asrwt>
<pdfrwt beam="1">  1        2 0.48612626E+00 0.20319065E+04</pdfrwt>
<pdfrwt beam="2">  1       -1 0.50254118E-01 0.20319065E+04</pdfrwt>
<totfact> 0.57915034E+00</totfact>
</mgrwt>
</event>
<event>
12    7  0.1962118E-007  0.2747861E+04  0.7818608E-02  0.8319641E-01
         -1   -1    0    0    0  501 -0.00000000000E+00  0.00000000000E+00  0.11363785024E+04  0.11363785024E+04  0.00000000000E+00 0.  1.
          2   -1    0    0  501    0  0.00000000000E+00 -0.00000000000E+00 -0.16611411641E+04  0.16611411641E+04  0.00000000000E+00 0. -1.
         24    2    1    2    0    0  0.58932453550E+03  0.86884323640E+03  0.40660061082E+03  0.11286983973E+04  0.80274763561E+02 0.  0.
        254    2    1    2    0    0 -0.58932453550E+03 -0.86884323640E+03 -0.93136327259E+03  0.16688212693E+04  0.90295897226E+03 0.  0.
         23    2    4    4    0    0 -0.30618373944E+03 -0.30923411318E+03 -0.93370792964E+03  0.10347786891E+04  0.97888806306E+02 0.  0.
         23    2    4    4    0    0 -0.28314079606E+03 -0.55960912322E+03  0.23446570517E+01  0.63404258019E+03  0.93131170365E+02 0.  0.
          2    1    3    3  502    0  0.25826237701E+02  0.27654908870E+02  0.30551307650E+02  0.48633023117E+02  0.00000000000E+00 0. -1.
         -1    1    3    3    0  502  0.56349829780E+03  0.84118832753E+03  0.37604930317E+03  0.10800653741E+04  0.00000000000E+00 0.  1.
         13    1    5    5    0    0 -0.17057636184E+03 -0.18435691897E+03 -0.64565487659E+03  0.69278711626E+03  0.00000000000E+00 0. -1.
        -13    1    5    5    0    0 -0.13560737760E+03 -0.12487719421E+03 -0.28805305306E+03  0.34199157280E+03  0.00000000000E+00 0.  1.
          2    1    6    6  503    0 -0.24507421209E+03 -0.40577506251E+03 -0.17295251097E+02  0.47435629699E+03  0.00000000000E+00 0. -1.
         -2    1    6    6    0  503 -0.38066583974E+02 -0.15383406071E+03  0.19639908148E+02  0.15968628320E+03  0.00000000000E+00 0.  1.
<mgrwt>
<rscale>  0 0.27478611E+04</rscale>
<asrwt>0</asrwt>
<pdfrwt beam="1">  1        2 0.25556018E+00 0.27478611E+04</pdfrwt>
<pdfrwt beam="2">  1       -1 0.17482746E+00 0.27478611E+04</pdfrwt>
<totfact> 0.23264068E+00</totfact>
</mgrwt>
</event>
<event>
12    7  0.1611233E-007  0.2558724E+04  0.7818608E-02  0.8382358E-01
          2   -1    0    0  501    0  0.00000000000E+00  0.00000000000E+00  0.27177182464E+04  0.27177182464E+04  0.00000000000E+00 0. -1.
         -1   -1    0    0    0  501 -0.00000000000E+00 -0.00000000000E+00 -0.60225784983E+03  0.60225784983E+03  0.00000000000E+00 0.  1.
         24    2    1    2    0    0  0.82503118018E+03 -0.67703889173E+01  0.19162438931E+04  0.20877984263E+04  0.78672261206E+02 0.  0.
        254    2    1    2    0    0 -0.82503118018E+03  0.67703889173E+01  0.19921650347E+03  0.12321776699E+04  0.89322578809E+03 0.  0.
         23    2    4    4    0    0 -0.12756904852E+03  0.37765548342E+03 -0.12309045645E+02  0.40916228323E+03  0.91458925883E+02 0.  0.
         23    2    4    4    0    0 -0.69746213167E+03 -0.37088509450E+03  0.21152554911E+03  0.82301538667E+03  0.92747454585E+02 0.  0.
          4    1    3    3  502    0  0.44163518171E+02 -0.74164457647E+01  0.15221587209E+03  0.15866660557E+03  0.00000000000E+00 0. -1.
         -3    1    3    3    0  502  0.78086766201E+03  0.64605684743E+00  0.17640280210E+04  0.19291318208E+04  0.00000000000E+00 0.  1.
         13    1    5    5    0    0 -0.27966636471E+02  0.13831094347E+02 -0.66872446328E+01  0.31908481116E+02  0.00000000000E+00 0.  1.
        -13    1    5    5    0    0 -0.99602412044E+02  0.36382438907E+03 -0.56218010118E+01  0.37725380212E+03  0.00000000000E+00 0. -1.
          3    1    6    6  503    0 -0.74097265716E+02 -0.72932552506E+02  0.18040894694E+02  0.10552267947E+03  0.00000000000E+00 0. -1.
         -3    1    6    6    0  503 -0.62336486595E+03 -0.29795254199E+03  0.19348465442E+03  0.71749270720E+03  0.00000000000E+00 0.  1.
<mgrwt>
<rscale>  0 0.25587240E+04</rscale>
<asrwt>0</asrwt>
<pdfrwt beam="1">  1        2 0.41811049E+00 0.25587240E+04</pdfrwt>
<pdfrwt beam="2">  1       -1 0.92655055E-01 0.25587240E+04</pdfrwt>
<totfact> 0.29616085E+00</totfact>
</mgrwt>
</event>
<event>
12    7  0.1611233E-007  0.2869122E+04  0.7818608E-02  0.8282124E-01
          2   -1    0    0  501    0  0.00000000000E+00  0.00000000000E+00  0.31191904259E+04  0.31191904259E+04  0.00000000000E+00 0. -1.
         -1   -1    0    0    0  501 -0.00000000000E+00 -0.00000000000E+00 -0.65977532514E+03  0.65977532514E+03  0.00000000000E+00 0.  1.
         24    2    1    2    0    0 -0.82402929844E+03 -0.54671551467E+03  0.16435514162E+02  0.99237695166E+03  0.81361842326E+02 0.  0.
        254    2    1    2    0    0  0.82402929844E+03  0.54671551467E+03  0.24429795866E+04  0.27865887993E+04  0.90498935771E+03 0.  0.
         23    2    4    4    0    0  0.56198950692E+03 -0.12663992728E+03  0.13764589143E+04  0.14950895065E+04  0.93720928717E+02 0.  0.
         23    2    4    4    0    0  0.26203979153E+03  0.67335544195E+03  0.10665206722E+04  0.12914992929E+04  0.91824155941E+02 0.  0.
          2    1    3    3  502    0 -0.71774692454E+02 -0.22097936975E+02  0.29352126716E+01  0.75156774604E+02  0.00000000000E+00 0. -1.
         -1    1    3    3    0  502 -0.75225460599E+03 -0.52461757770E+03  0.13500301491E+02  0.91722017706E+03  0.00000000000E+00 0.  1.
         13    1    5    5    0    0  0.34312185988E+03 -0.44297082929E+02  0.73554659294E+03  0.81284908357E+03  0.00000000000E+00 0. -1.
        -13    1    5    5    0    0  0.21886764704E+03 -0.82342844352E+02  0.64091232137E+03  0.68224042289E+03  0.00000000000E+00 0.  1.
          3    1    6    6  503    0  0.15195674657E+02  0.17269145142E+02  0.65663756979E+02  0.69576295409E+02  0.00000000000E+00 0. -1.
         -3    1    6    6    0  503  0.24684411687E+03  0.65608629681E+03  0.10008569153E+04  0.12219229975E+04  0.00000000000E+00 0.  1.
<mgrwt>
<rscale>  0 0.28691217E+04</rscale>
<asrwt>0</asrwt>
<pdfrwt beam="1">  1        2 0.47987544E+00 0.28691217E+04</pdfrwt>
<pdfrwt beam="2">  1       -1 0.10150390E+00 0.28691217E+04</pdfrwt>
<totfact> 0.13239515E+00</totfact>
</mgrwt>
</event>
<event>
12    7  0.1611233E-007  0.2807843E+04  0.7818608E-02  0.8300837E-01
          2   -1    0    0  501    0  0.00000000000E+00  0.00000000000E+00  0.99853794840E+03  0.99853794840E+03  0.00000000000E+00 0. -1.
         -1   -1    0    0    0  501 -0.00000000000E+00 -0.00000000000E+00 -0.19738820729E+04  0.19738820729E+04  0.00000000000E+00 0.  1.
         24    2    1    2    0    0  0.76715205891E+03 -0.63793613524E+03 -0.12465511309E+04  0.15986476881E+04  0.79372001119E+02 0.  0.
        254    2    1    2    0    0 -0.76715205891E+03  0.63793613524E+03  0.27120700643E+03  0.13737723332E+04  0.90455093220E+03 0.  0.
         23    2    4    4    0    0  0.11299834243E+02  0.53890711298E+03  0.30067275274E+02  0.54747691043E+03  0.90985513871E+02 0.  0.
         23    2    4    4    0    0 -0.77845189315E+03  0.99029022258E+02  0.24113973116E+03  0.82629542275E+03  0.93923684560E+02 0.  0.
          4    1    3    3  502    0  0.32414816234E+03 -0.22832970559E+03 -0.53041645158E+03  0.66222964122E+03  0.00000000000E+00 0. -1.
         -3    1    3    3    0  502  0.44300389657E+03 -0.40960642964E+03 -0.71613467936E+03  0.93641804690E+03  0.00000000000E+00 0.  1.
         13    1    5    5    0    0 -0.26446451847E+02  0.52903382660E+02  0.12530959515E+01  0.59158709938E+02  0.00000000000E+00 0.  1.
        -13    1    5    5    0    0  0.37746286090E+02  0.48600373032E+03  0.28814179322E+02  0.48831820049E+03  0.00000000000E+00 0. -1.
          3    1    6    6  503    0 -0.29487903389E+03  0.53047513068E+02  0.47437914004E+02  0.30334475265E+03  0.00000000000E+00 0. -1.
         -3    1    6    6    0  503 -0.48357285926E+03  0.45981509190E+02  0.19370181715E+03  0.52295067011E+03  0.00000000000E+00 0.  1.
<mgrwt>
<rscale>  0 0.28078434E+04</rscale>
<asrwt>0</asrwt>
<pdfrwt beam="1">  1        2 0.15362122E+00 0.28078434E+04</pdfrwt>
<pdfrwt beam="2">  1       -1 0.30367416E+00 0.28078434E+04</pdfrwt>
<totfact> 0.78209909E-01</totfact>
</mgrwt>
</event>
<event>
12    7  0.1611233E-007  0.1924664E+04  0.7818608E-02  0.8642676E-01
         -1   -1    0    0    0  501 -0.00000000000E+00  0.00000000000E+00  0.41774943405E+03  0.41774943405E+03  0.00000000000E+00 0.  1.
          2   -1    0    0  501    0  0.00000000000E+00 -0.00000000000E+00 -0.22168383281E+04  0.22168383281E+04  0.00000000000E+00 0. -1.
         24    2    1    2    0    0 -0.64327799790E+03  0.28497910761E+03 -0.10604831574E+04  0.12750443684E+04  0.78063691344E+02 0.  0.
        254    2    1    2    0    0  0.64327799790E+03 -0.28497910761E+03 -0.73860573662E+03  0.13595433937E+04  0.89877701956E+03 0.  0.
         23    2    4    4    0    0 -0.95576056247E+02 -0.52995796323E+02 -0.53512342723E+03  0.55366589912E+03  0.90804782487E+02 0.  0.
         23    2    4    4    0    0  0.73885405415E+03 -0.23198331128E+03 -0.20348230939E+03  0.80587749460E+03  0.91169710000E+02 0.  0.
          4    1    3    3  502    0 -0.49030835432E+03  0.21555643203E+03 -0.86394176715E+03  0.10164950736E+04  0.00000000000E+00 0. -1.
         -3    1    3    3    0  502 -0.15296964359E+03  0.69422675576E+02 -0.19654139028E+03  0.25854929479E+03  0.00000000000E+00 0.  1.
         13    1    5    5    0    0 -0.26351439913E+02  0.76092799798E+01 -0.31765043736E+02  0.41968053694E+02  0.00000000000E+00 0. -1.
        -13    1    5    5    0    0 -0.69224616334E+02 -0.60605076303E+02 -0.50335838349E+03  0.51169784543E+03  0.00000000000E+00 0.  1.
          2    1    6    6  503    0  0.12103702681E+03 -0.59727902432E+01 -0.44355301460E+02  0.12904661503E+03  0.00000000000E+00 0. -1.
         -2    1    6    6    0  503  0.61781702734E+03 -0.22601052104E+03 -0.15912700793E+03  0.67683087958E+03  0.00000000000E+00 0.  1.
<mgrwt>
<rscale>  0 0.19246641E+04</rscale>
<asrwt>0</asrwt>
<pdfrwt beam="1">  1        2 0.34105205E+00 0.19246641E+04</pdfrwt>
<pdfrwt beam="2">  1       -1 0.64269143E-01 0.19246641E+04</pdfrwt>
<totfact> 0.13201967E+01</totfact>
</mgrwt>
</event>
<event>
12    7  0.1611233E-007  0.1099359E+04  0.7818608E-02  0.9205817E-01
         -1   -1    0    0    0  501 -0.00000000000E+00  0.00000000000E+00  0.59117123936E+03  0.59117123936E+03  0.00000000000E+00 0.  1.
          2   -1    0    0  501    0  0.00000000000E+00 -0.00000000000E+00 -0.51110009387E+03  0.51110009387E+03  0.00000000000E+00 0. -1.
         24    2    1    2    0    0  0.23731476345E+02  0.91478028225E+02  0.15397729050E+03  0.19954936993E+03  0.84732121595E+02 0.  0.
        254    2    1    2    0    0 -0.23731476345E+02 -0.91478028225E+02 -0.73906145011E+02  0.90272196331E+03  0.89471415108E+03 0.  0.
         23    2    4    4    0    0  0.26057193741E+02  0.34843185245E+03 -0.22475585962E+03  0.42622254118E+03  0.95219352201E+02 0.  0.
         23    2    4    4    0    0 -0.49788670086E+02 -0.43990988067E+03  0.15084971461E+03  0.47649942212E+03  0.91084840151E+02 0.  0.
          2    1    3    3  502    0 -0.17088636021E+02  0.33373150346E+01  0.66798348259E+02  0.69030272220E+02  0.00000000000E+00 0. -1.
         -1    1    3    3    0  502  0.40820112366E+02  0.88140713190E+02  0.87178942243E+02  0.13051909771E+03  0.00000000000E+00 0.  1.
         13    1    5    5    0    0  0.59338926409E+02  0.27614057150E+03 -0.17079573254E+03  0.33006954672E+03  0.00000000000E+00 0.  1.
        -13    1    5    5    0    0 -0.33281732668E+02  0.72291280947E+02 -0.53960127083E+02  0.96152994468E+02  0.00000000000E+00 0. -1.
          2    1    6    6  503    0  0.10324422455E+02 -0.52229710988E+02  0.46143613483E+02  0.70454023832E+02  0.00000000000E+00 0. -1.
         -2    1    6    6    0  503 -0.60113092541E+02 -0.38768016968E+03  0.10470610113E+03  0.40604539829E+03  0.00000000000E+00 0.  1.
<mgrwt>
<rscale>  0 0.10993592E+04</rscale>
<asrwt>0</asrwt>
<pdfrwt beam="1">  1        2 0.78630783E-01 0.10993592E+04</pdfrwt>
<pdfrwt beam="2">  1       -1 0.90949422E-01 0.10993592E+04</pdfrwt>
<totfact> 0.80477494E+01</totfact>
</mgrwt>
</event>
<event>
12    7  0.1611233E-007  0.2736502E+04  0.7818608E-02  0.8323258E-01
         -1   -1    0    0    0  501 -0.00000000000E+00  0.00000000000E+00  0.12404054260E+04  0.12404054260E+04  0.00000000000E+00 0.  1.
          2   -1    0    0  501    0  0.00000000000E+00 -0.00000000000E+00 -0.15092736178E+04  0.15092736178E+04  0.00000000000E+00 0. -1.
         24    2    1    2    0    0  0.12233237548E+03 -0.12960172496E+03 -0.13329441150E+04  0.13470699995E+04  0.78075301092E+02 0.  0.
        254    2    1    2    0    0 -0.12233237548E+03  0.12960172496E+03  0.10640759231E+04  0.14026090443E+04  0.89626600064E+03 0.  0.
         23    2    4    4    0    0 -0.15284477887E+03  0.40997295649E+03  0.20096873132E+03  0.49027215448E+03  0.92406726015E+02 0.  0.
         23    2    4    4    0    0  0.30512403392E+02 -0.28037123153E+03  0.86310719177E+03  0.91233688984E+03  0.88687890035E+02 0.  0.
          2    1    3    3  502    0  0.49930955051E+02 -0.10572487914E+03 -0.88399803913E+03  0.89169691237E+03  0.00000000000E+00 0. -1.
         -1    1    3    3    0  502  0.72401420425E+02 -0.23876845823E+02 -0.44894607585E+03  0.45537308711E+03  0.00000000000E+00 0.  1.
         13    1    5    5    0    0 -0.14604463237E+03  0.28736661361E+03  0.16608060176E+03  0.36261739002E+03  0.00000000000E+00 0. -1.
        -13    1    5    5    0    0 -0.68001464957E+01  0.12260634287E+03  0.34888129561E+02  0.12765476446E+03  0.00000000000E+00 0.  1.
          2    1    6    6  503    0  0.38907825996E+02 -0.25085313715E+03  0.82629800791E+03  0.86441281412E+03  0.00000000000E+00 0. -1.
         -2    1    6    6    0  503 -0.83954226040E+01 -0.29518094385E+02  0.36809183867E+02  0.47924075721E+02  0.00000000000E+00 0.  1.
<mgrwt>
<rscale>  0 0.27365023E+04</rscale>
<asrwt>0</asrwt>
<pdfrwt beam="1">  1        2 0.23219594E+00 0.27365023E+04</pdfrwt>
<pdfrwt beam="2">  1       -1 0.19083160E+00 0.27365023E+04</pdfrwt>
<totfact> 0.21780276E+00</totfact>
</mgrwt>
</event>
<event>
12    7  0.1611233E-007  0.3240331E+04  0.7818608E-02  0.8178246E-01
         -1   -1    0    0    0  501 -0.00000000000E+00  0.00000000000E+00  0.19871772800E+04  0.19871772800E+04  0.00000000000E+00 0.  1.
          2   -1    0    0  501    0  0.00000000000E+00 -0.00000000000E+00 -0.13209373074E+04  0.13209373074E+04  0.00000000000E+00 0. -1.
         24    2    1    2    0    0 -0.13101620624E+04  0.78550579491E+02  0.10385138141E+04  0.16753304720E+04  0.74339928914E+02 0.  0.
        254    2    1    2    0    0  0.13101620624E+04 -0.78550579491E+02 -0.37227384151E+03  0.16327841155E+04  0.89705146522E+03 0.  0.
         23    2    4    4    0    0  0.77943053091E+03 -0.35840245532E+03 -0.52093057882E+03  0.10079064893E+04  0.92425920597E+02 0.  0.
         23    2    4    4    0    0  0.53073153152E+03  0.27985187583E+03  0.14865673731E+03  0.62487762612E+03  0.91543383856E+02 0.  0.
          2    1    3    3  502    0 -0.58048957963E+03  0.72436519518E+01  0.49039483641E+03  0.75993928582E+03  0.00000000000E+00 0. -1.
         -1    1    3    3    0  502 -0.72967248279E+03  0.71306927540E+02  0.54811897768E+03  0.91539118619E+03  0.00000000000E+00 0.  1.
         13    1    5    5    0    0  0.69750311036E+03 -0.31797088951E+03 -0.49660238604E+03  0.91336192462E+03  0.00000000000E+00 0. -1.
        -13    1    5    5    0    0  0.81927420548E+02 -0.40431565817E+02 -0.24328192783E+02  0.94544564710E+02  0.00000000000E+00 0.  1.
          3    1    6    6  503    0  0.44987711762E+03  0.21060636149E+03  0.95270403609E+02  0.50578741607E+03  0.00000000000E+00 0. -1.
         -3    1    6    6    0  503  0.80854413902E+02  0.69245514338E+02  0.53386333699E+02  0.11909021005E+03  0.00000000000E+00 0.  1.
<mgrwt>
<rscale>  0 0.32403312E+04</rscale>
<asrwt>0</asrwt>
<pdfrwt beam="1">  1        2 0.20322112E+00 0.32403312E+04</pdfrwt>
<pdfrwt beam="2">  1       -1 0.30571958E+00 0.32403312E+04</pdfrwt>
<totfact> 0.46573819E-01</totfact>
</mgrwt>
</event>
<event>
12    7  0.1611233E-007  0.2076691E+04  0.7818608E-02  0.8571581E-01
          2   -1    0    0  501    0  0.00000000000E+00  0.00000000000E+00  0.51084964392E+03  0.51084964392E+03  0.00000000000E+00 0. -1.
         -1   -1    0    0    0  501 -0.00000000000E+00 -0.00000000000E+00 -0.21105264836E+04  0.21105264836E+04  0.00000000000E+00 0.  1.
         24    2    1    2    0    0 -0.10732155215E+03 -0.68186776588E+03 -0.12648912656E+04  0.14432739892E+04  0.81414547192E+02 0.  0.
        254    2    1    2    0    0  0.10732155215E+03  0.68186776588E+03 -0.33478557412E+03  0.11781021383E+04  0.89408148511E+03 0.  0.
         23    2    4    4    0    0  0.19938403276E+03 -0.65268557208E+02 -0.35159184729E+03  0.41931576630E+03  0.90525729558E+02 0.  0.
         23    2    4    4    0    0 -0.92062480607E+02  0.74713632309E+03  0.16806273164E+02  0.75878637203E+03  0.93734315804E+02 0.  0.
          4    1    3    3  502    0 -0.36171452747E+01 -0.41195104297E+02 -0.42651736257E+02  0.59407835878E+02  0.00000000000E+00 0. -1.
         -3    1    3    3    0  502 -0.10370440687E+03 -0.64067266158E+03 -0.12222395293E+04  0.13838661533E+04  0.00000000000E+00 0.  1.
         13    1    5    5    0    0  0.26930609523E+02 -0.44536591046E+01 -0.54420919127E+01  0.27833597918E+02  0.00000000000E+00 0. -1.
        -13    1    5    5    0    0  0.17245342323E+03 -0.60814898103E+02 -0.34614975537E+03  0.39148216838E+03  0.00000000000E+00 0.  1.
          3    1    6    6  503    0 -0.68513556808E+02  0.24272357982E+03 -0.16346286966E+02  0.25273710603E+03  0.00000000000E+00 0. -1.
         -3    1    6    6    0  503 -0.23548923799E+02  0.50441274326E+03  0.33152560130E+02  0.50604926600E+03  0.00000000000E+00 0.  1.
<mgrwt>
<rscale>  0 0.20766913E+04</rscale>
<asrwt>0</asrwt>
<pdfrwt beam="1">  1        2 0.78592252E-01 0.20766913E+04</pdfrwt>
<pdfrwt beam="2">  1       -1 0.32469639E+00 0.20766913E+04</pdfrwt>
<totfact> 0.14456546E+00</totfact>
</mgrwt>
</event>
<event>
12    7  0.1611233E-007  0.1245891E+04  0.7818608E-02  0.9073610E-01
          4   -1    0    0  501    0  0.00000000000E+00  0.00000000000E+00  0.11192204286E+03  0.11192204286E+03  0.00000000000E+00 0. -1.
         -3   -1    0    0    0  501 -0.00000000000E+00 -0.00000000000E+00 -0.34672440339E+04  0.34672440339E+04  0.00000000000E+00 0.  1.
         24    2    1    2    0    0 -0.26500913223E+02 -0.10407180553E+03 -0.33478132077E+02  0.13789947743E+03  0.79763659901E+02 0.  0.
        254    2    1    2    0    0  0.26500913223E+02  0.10407180553E+03 -0.33218438590E+04  0.34412665993E+04  0.89226450409E+03 0.  0.
         23    2    4    4    0    0 -0.13995992911E+03 -0.10276768154E+03 -0.30313504649E+04  0.30377003172E+04  0.91583829909E+02 0.  0.
         23    2    4    4    0    0  0.16646084233E+03  0.20683948707E+03 -0.29049339402E+03  0.40356628210E+03  0.89373075570E+02 0.  0.
          2    1    3    3  502    0 -0.12660623672E+02 -0.11441228996E+03 -0.35607617151E+02  0.12049218184E+03  0.00000000000E+00 0. -1.
         -1    1    3    3    0  502 -0.13840289551E+02  0.10340484430E+02  0.21294850741E+01  0.17407295591E+02  0.00000000000E+00 0.  1.
         13    1    5    5    0    0 -0.91924812072E+02 -0.56426285127E+02 -0.11192444699E+04  0.11244297578E+04  0.00000000000E+00 0. -1.
        -13    1    5    5    0    0 -0.48035117037E+02 -0.46341396411E+02 -0.19121059950E+04  0.19132705595E+04  0.00000000000E+00 0.  1.
          1    1    6    6  503    0  0.67957478493E+02  0.43791855060E+02 -0.13636849874E+03  0.15853174099E+03  0.00000000000E+00 0. -1.
         -1    1    6    6    0  503  0.98503363838E+02  0.16304763201E+03 -0.15412489528E+03  0.24503454111E+03  0.00000000000E+00 0.  1.
<mgrwt>
<rscale>  0 0.12458909E+04</rscale>
<asrwt>0</asrwt>
<pdfrwt beam="1">  1        4 0.17218775E-01 0.12458909E+04</pdfrwt>
<pdfrwt beam="2">  1       -3 0.53342218E+00 0.12458909E+04</pdfrwt>
<totfact> 0.14278931E-01</totfact>
</mgrwt>
</event>
<event>
12    7  0.1611233E-007  0.1935576E+04  0.7818608E-02  0.8637348E-01
          2   -1    0    0  501    0  0.00000000000E+00  0.00000000000E+00  0.58696047236E+03  0.58696047236E+03  0.00000000000E+00 0. -1.
         -1   -1    0    0    0  501 -0.00000000000E+00 -0.00000000000E+00 -0.15957012838E+04  0.15957012838E+04  0.00000000000E+00 0.  1.
         24    2    1    2    0    0 -0.48437818350E+02  0.62083290070E+03 -0.88049596981E+03  0.10818117557E+04  0.85227983031E+02 0.  0.
        254    2    1    2    0    0  0.48437818350E+02 -0.62083290070E+03 -0.12824484159E+03  0.11008500004E+04  0.89869030883E+03 0.  0.
         23    2    4    4    0    0  0.34216022495E+03  0.23866910859E+02  0.64811040453E+02  0.36059538477E+03  0.90472711787E+02 0.  0.
         23    2    4    4    0    0 -0.29372240660E+03 -0.64469981156E+03 -0.19305588204E+03  0.74025461565E+03  0.93784984060E+02 0.  0.
          4    1    3    3  502    0 -0.55755866270E+02  0.51573647705E+03 -0.67946079059E+03  0.85484489607E+03  0.00000000000E+00 0. -1.
         -3    1    3    3    0  502  0.73180479199E+01  0.10509642365E+03 -0.20103517922E+03  0.22696685964E+03  0.00000000000E+00 0.  1.
         13    1    5    5    0    0 -0.49243026191E+01 -0.36010023812E+01 -0.12153819148E+01  0.62203800232E+01  0.00000000000E+00 0. -1.
        -13    1    5    5    0    0  0.34708452757E+03  0.27467913241E+02  0.66026422368E+02  0.35437500475E+03  0.00000000000E+00 0.  1.
          1    1    6    6  503    0  0.84369994950E+00 -0.56857988203E+02 -0.20803432953E+02  0.60550189717E+02  0.00000000000E+00 0. -1.
         -1    1    6    6    0  503 -0.29456610655E+03 -0.58784182335E+03 -0.17225244909E+03  0.67970442593E+03  0.00000000000E+00 0.  1.
<mgrwt>
<rscale>  0 0.19355760E+04</rscale>
<asrwt>0</asrwt>
<pdfrwt beam="1">  1        2 0.90301612E-01 0.19355760E+04</pdfrwt>
<pdfrwt beam="2">  1       -1 0.24549250E+00 0.19355760E+04</pdfrwt>
<totfact> 0.40535084E+00</totfact>
</mgrwt>
</event>
<event>
12    7  0.1611233E-007  0.1129690E+04  0.7818608E-02  0.9176727E-01
          2   -1    0    0  501    0  0.00000000000E+00  0.00000000000E+00  0.96356300302E+03  0.96356300302E+03  0.00000000000E+00 0. -1.
         -1   -1    0    0    0  501 -0.00000000000E+00 -0.00000000000E+00 -0.33111494625E+03  0.33111494625E+03  0.00000000000E+00 0.  1.
         24    2    1    2    0    0 -0.49735230088E+02  0.94505488599E+02 -0.77276239160E+02  0.15389711703E+03  0.79421816928E+02 0.  0.
        254    2    1    2    0    0  0.49735230088E+02 -0.94505488599E+02  0.70972429594E+03  0.11407808322E+04  0.88671723254E+03 0.  0.
         23    2    4    4    0    0  0.79127955749E+02  0.37787378691E+03  0.22212525202E+03  0.45466492810E+03  0.91272871360E+02 0.  0.
         23    2    4    4    0    0 -0.29392725661E+02 -0.47237927551E+03  0.48759904392E+03  0.68611590414E+03  0.94847741279E+02 0.  0.
          2    1    3    3  502    0  0.20615145310E+02  0.10709117976E+02 -0.18499566655E+02  0.29696858258E+02  0.00000000000E+00 0. -1.
         -1    1    3    3    0  502 -0.70350375398E+02  0.83796370624E+02 -0.58776672505E+02  0.12420025877E+03  0.00000000000E+00 0.  1.
         13    1    5    5    0    0  0.69564336737E+02  0.16089620881E+03  0.66521155446E+02  0.18748826917E+03  0.00000000000E+00 0.  1.
        -13    1    5    5    0    0  0.95636190118E+01  0.21697757810E+03  0.15560409657E+03  0.26717665893E+03  0.00000000000E+00 0. -1.
          3    1    6    6  503    0 -0.15966359948E+02 -0.26832053843E+03  0.20884047217E+03  0.34038974545E+03  0.00000000000E+00 0. -1.
         -3    1    6    6    0  503 -0.13426365713E+02 -0.20405873708E+03  0.27875857175E+03  0.34572615869E+03  0.00000000000E+00 0.  1.
<mgrwt>
<rscale>  0 0.11296904E+04</rscale>
<asrwt>0</asrwt>
<pdfrwt beam="1">  1        2 0.14824046E+00 0.11296904E+04</pdfrwt>
<pdfrwt beam="2">  1       -1 0.50940761E-01 0.11296904E+04</pdfrwt>
<totfact> 0.11644659E+02</totfact>
</mgrwt>
</event>
<event>
12    7  0.1611233E-007  0.1534121E+04  0.7818608E-02  0.8862075E-01
         -1   -1    0    0    0  501 -0.00000000000E+00  0.00000000000E+00  0.28163288757E+03  0.28163288757E+03  0.00000000000E+00 0.  1.
          2   -1    0    0  501    0  0.00000000000E+00 -0.00000000000E+00 -0.20891794576E+04  0.20891794576E+04  0.00000000000E+00 0. -1.
         24    2    1    2    0    0 -0.24005237928E+03  0.24608235487E+03 -0.33223757622E+02  0.35428729384E+03  0.78955673212E+02 0.  0.
        254    2    1    2    0    0  0.24005237928E+03 -0.24608235487E+03 -0.17743228124E+04  0.20165250513E+04  0.89441051528E+03 0.  0.
         23    2    4    4    0    0  0.87901831286E+02  0.27490585662E+03 -0.11284786455E+04  0.11679608139E+04  0.85839660695E+02 0.  0.
         23    2    4    4    0    0  0.15215054800E+03 -0.52098821149E+03 -0.64584416685E+03  0.84856423745E+03  0.91477163576E+02 0.  0.
          2    1    3    3  502    0 -0.17822246909E+03  0.18308808841E+03  0.10622736685E+02  0.25572903461E+03  0.00000000000E+00 0. -1.
         -1    1    3    3    0  502 -0.61829910197E+02  0.62994266454E+02 -0.43846494306E+02  0.98558259237E+02  0.00000000000E+00 0.  1.
         13    1    5    5    0    0  0.84420414352E+02  0.23965094222E+03 -0.10685561606E+04  0.10983495113E+04  0.00000000000E+00 0. -1.
        -13    1    5    5    0    0  0.34814169334E+01  0.35254914398E+02 -0.59922484910E+02  0.69611302609E+02  0.00000000000E+00 0.  1.
          3    1    6    6  503    0  0.86491865943E+00 -0.14530646849E+03 -0.17764430766E+03  0.22950428735E+03  0.00000000000E+00 0. -1.
         -3    1    6    6    0  503  0.15128562934E+03 -0.37568174300E+03 -0.46819985920E+03  0.61905995010E+03  0.00000000000E+00 0.  1.
<mgrwt>
<rscale>  0 0.15341208E+04</rscale>
<asrwt>0</asrwt>
<pdfrwt beam="1">  1        2 0.32141223E+00 0.15341208E+04</pdfrwt>
<pdfrwt beam="2">  1       -1 0.43328136E-01 0.15341208E+04</pdfrwt>
<totfact> 0.34392717E+01</totfact>
</mgrwt>
</event>
<event>
12    7  0.1611233E-007  0.1600526E+04  0.7818608E-02  0.8820225E-01
         -1   -1    0    0    0  501 -0.00000000000E+00  0.00000000000E+00  0.38439861412E+03  0.38439861412E+03  0.00000000000E+00 0.  1.
          2   -1    0    0  501    0  0.00000000000E+00 -0.00000000000E+00 -0.16660327755E+04  0.16660327755E+04  0.00000000000E+00 0. -1.
         24    2    1    2    0    0 -0.53430321106E+03 -0.57965649821E+02 -0.52102264629E+03  0.75279383844E+03  0.79962662090E+02 0.  0.
        254    2    1    2    0    0  0.53430321106E+03  0.57965649821E+02 -0.76061151508E+03  0.12976375512E+04  0.90360024316E+03 0.  0.
         23    2    4    4    0    0  0.60263134298E+03  0.31710911222E+03 -0.74548462020E+03  0.10137454975E+04  0.90608444377E+02 0.  0.
         23    2    4    4    0    0 -0.68328131923E+02 -0.25914346240E+03 -0.15126894883E+02  0.28389205365E+03  0.92421899245E+02 0.  0.
          4    1    3    3  502    0 -0.24636580084E+03 -0.37889963982E+02 -0.18875885263E+03  0.31266861314E+03  0.00000000000E+00 0. -1.
         -3    1    3    3    0  502 -0.28793741022E+03 -0.20075685839E+02 -0.33226379366E+03  0.44012522530E+03  0.00000000000E+00 0.  1.
         13    1    5    5    0    0  0.22976588805E+03  0.76650653963E+02 -0.29080070066E+03  0.37846100667E+03  0.00000000000E+00 0.  1.
        -13    1    5    5    0    0  0.37286545493E+03  0.24045845826E+03 -0.45468391954E+03  0.63528449085E+03  0.00000000000E+00 0. -1.
          1    1    6    6  503    0 -0.52035059209E+02 -0.16981263254E+03  0.33726160892E+02  0.18078006385E+03  0.00000000000E+00 0.  1.
         -1    1    6    6    0  503 -0.16293072714E+02 -0.89330829861E+02 -0.48853055775E+02  0.10311198980E+03  0.00000000000E+00 0. -1.
<mgrwt>
<rscale>  0 0.16005258E+04</rscale>
<asrwt>0</asrwt>
<pdfrwt beam="1">  1        2 0.25631274E+00 0.16005258E+04</pdfrwt>
<pdfrwt beam="2">  1       -1 0.59138248E-01 0.16005258E+04</pdfrwt>
<totfact> 0.32432366E+01</totfact>
</mgrwt>
</event>
<event>
12    7  0.1611233E-007  0.1393133E+04  0.7818608E-02  0.8958805E-01
          2   -1    0    0  501    0  0.00000000000E+00  0.00000000000E+00  0.45234079532E+03  0.45234079532E+03  0.00000000000E+00 0. -1.
         -1   -1    0    0    0  501 -0.00000000000E+00 -0.00000000000E+00 -0.10726527130E+04  0.10726527130E+04  0.00000000000E+00 0.  1.
         24    2    1    2    0    0 -0.19029302167E+03 -0.11436551957E+03 -0.55084988605E+03  0.59971767104E+03  0.83275337480E+02 0.  0.
        254    2    1    2    0    0  0.19029302167E+03  0.11436551957E+03 -0.69462031623E+02  0.92527583727E+03  0.89555541148E+03 0.  0.
         23    2    4    4    0    0  0.37025615643E+03  0.41176876633E+03 -0.24211828259E+02  0.55991413558E+03  0.79211667675E+02 0.  0.
         23    2    4    4    0    0 -0.17996313476E+03 -0.29740324676E+03 -0.45250203364E+02  0.36536170169E+03  0.10298626656E+03 0.  0.
          4    1    3    3  502    0 -0.64953953400E+02 -0.67323412549E+02 -0.14687181538E+03  0.17413439664E+03  0.00000000000E+00 0. -1.
         -3    1    3    3    0  502 -0.12533906827E+03 -0.47042107023E+02 -0.40397807067E+03  0.42558327440E+03  0.00000000000E+00 0.  1.
         13    1    5    5    0    0  0.23989799362E+03  0.24398388291E+03  0.20519419131E+02  0.34278306409E+03  0.00000000000E+00 0.  1.
        -13    1    5    5    0    0  0.13035816281E+03  0.16778488342E+03 -0.44731247390E+02  0.21713107149E+03  0.00000000000E+00 0. -1.
          2    1    6    6  503    0 -0.11929444070E+03 -0.27112888953E+03 -0.32034678378E+02  0.29794002574E+03  0.00000000000E+00 0.  1.
         -2    1    6    6    0  503 -0.60668694059E+02 -0.26274357226E+02 -0.13215524986E+02  0.67421675944E+02  0.00000000000E+00 0. -1.
<mgrwt>
<rscale>  0 0.13931326E+04</rscale>
<asrwt>0</asrwt>
<pdfrwt beam="1">  1        2 0.69590892E-01 0.13931326E+04</pdfrwt>
<pdfrwt beam="2">  1       -1 0.16502349E+00 0.13931326E+04</pdfrwt>
<totfact> 0.20626938E+01</totfact>
</mgrwt>
</event>
<event>
12    7  0.1611233E-007  0.1316687E+04  0.7818608E-02  0.9016436E-01
         -1   -1    0    0    0  501 -0.00000000000E+00  0.00000000000E+00  0.48072625843E+03  0.48072625843E+03  0.00000000000E+00 0.  1.
          2   -1    0    0  501    0  0.00000000000E+00 -0.00000000000E+00 -0.90158676472E+03  0.90158676472E+03  0.00000000000E+00 0. -1.
         24    2    1    2    0    0  0.17972027253E+03  0.27157434020E+03 -0.17500538665E+02  0.33626602065E+03  0.81954677550E+02 0.  0.
        254    2    1    2    0    0 -0.17972027253E+03 -0.27157434020E+03 -0.40335996762E+03  0.10460470025E+04  0.90854998175E+03 0.  0.
         23    2    4    4    0    0 -0.42306843620E+03 -0.10341664280E+03  0.99431053585E+02  0.45575605645E+03  0.90250456275E+02 0.  0.
         23    2    4    4    0    0  0.24334816367E+03 -0.16815769740E+03 -0.50279102121E+03  0.59029094604E+03  0.90273196569E+02 0.  0.
          2    1    3    3  502    0 -0.91600132954E+00  0.25034972054E+02 -0.17630433707E+02  0.30633659214E+02  0.00000000000E+00 0. -1.
         -1    1    3    3    0  502  0.18063627386E+03  0.24653936815E+03  0.12989504224E+00  0.30563236143E+03  0.00000000000E+00 0.  1.
         13    1    5    5    0    0 -0.61880175027E+02  0.32494831098E+01 -0.11768393618E+02  0.63073055184E+02  0.00000000000E+00 0.  1.
        -13    1    5    5    0    0 -0.36118826117E+03 -0.10666612591E+03  0.11119944720E+03  0.39268300127E+03  0.00000000000E+00 0. -1.
          4    1    6    6  503    0  0.15921270611E+03 -0.12002615874E+03 -0.25145820235E+03  0.32091461808E+03  0.00000000000E+00 0. -1.
         -4    1    6    6    0  503  0.84135457562E+02 -0.48131538658E+02 -0.25133281886E+03  0.26937632797E+03  0.00000000000E+00 0.  1.
<mgrwt>
<rscale>  0 0.13166874E+04</rscale>
<asrwt>0</asrwt>
<pdfrwt beam="1">  1        2 0.13870565E+00 0.13166874E+04</pdfrwt>
<pdfrwt beam="2">  1       -1 0.73957887E-01 0.13166874E+04</pdfrwt>
<totfact> 0.60182052E+01</totfact>
</mgrwt>
</event>
<event>
12    7  0.1611233E-007  0.2413927E+04  0.7818608E-02  0.8434308E-01
         -1   -1    0    0    0  501 -0.00000000000E+00  0.00000000000E+00  0.10206061773E+04  0.10206061773E+04  0.00000000000E+00 0.  1.
          2   -1    0    0  501    0  0.00000000000E+00 -0.00000000000E+00 -0.14273484570E+04  0.14273484570E+04  0.00000000000E+00 0. -1.
         24    2    1    2    0    0 -0.30347515396E+03 -0.45264346794E+03  0.72232205839E+03  0.90846870527E+03  0.81135407062E+02 0.  0.
        254    2    1    2    0    0  0.30347515396E+03  0.45264346794E+03 -0.11290643381E+04  0.15394859290E+04  0.89344690270E+03 0.  0.
         23    2    4    4    0    0  0.53848593134E+03  0.52136085786E+03 -0.65903399708E+03  0.10021714070E+04  0.90760549343E+02 0.  0.
         23    2    4    4    0    0 -0.23501077738E+03 -0.68717389920E+02 -0.47003034104E+03  0.53731452205E+03  0.88465976231E+02 0.  0.
          4    1    3    3  502    0 -0.73575415775E+02 -0.13526451961E+03  0.26221627013E+03  0.30408420609E+03  0.00000000000E+00 0. -1.
         -3    1    3    3    0  502 -0.22989973819E+03 -0.31737894833E+03  0.46010578826E+03  0.60438449918E+03  0.00000000000E+00 0.  1.
         13    1    5    5    0    0  0.37503419994E+03  0.38603540586E+03 -0.52066224559E+03  0.74884121126E+03  0.00000000000E+00 0.  1.
        -13    1    5    5    0    0  0.16345173139E+03  0.13532545200E+03 -0.13837175149E+03  0.25333019572E+03  0.00000000000E+00 0. -1.
          1    1    6    6  503    0 -0.80918166658E+02  0.73437618858E+01 -0.21453777429E+03  0.22940823248E+03  0.00000000000E+00 0. -1.
         -1    1    6    6    0  503 -0.15409261072E+03 -0.76061151805E+02 -0.25549256675E+03  0.30790628957E+03  0.00000000000E+00 0.  1.
<mgrwt>
<rscale>  0 0.24139268E+04</rscale>
<asrwt>0</asrwt>
<pdfrwt beam="1">  1        2 0.21959207E+00 0.24139268E+04</pdfrwt>
<pdfrwt beam="2">  1       -1 0.15701634E+00 0.24139268E+04</pdfrwt>
<totfact> 0.43988201E+00</totfact>
</mgrwt>
</event>
<event>
12    7  0.1611233E-007  0.2954487E+04  0.7818608E-02  0.8256848E-01
         -1   -1    0    0    0  501 -0.00000000000E+00  0.00000000000E+00  0.71319357958E+03  0.71319357958E+03  0.00000000000E+00 0.  1.
          2   -1    0    0  501    0  0.00000000000E+00 -0.00000000000E+00 -0.30598255571E+04  0.30598255571E+04  0.00000000000E+00 0. -1.
         24    2    1    2    0    0 -0.66758351483E+03 -0.11561002053E+04 -0.11830291319E+04  0.17855593103E+04  0.80179109035E+02 0.  0.
        254    2    1    2    0    0  0.66758351483E+03  0.11561002053E+04 -0.11636028456E+04  0.19874598264E+04  0.90210284624E+03 0.  0.
         23    2    4    4    0    0  0.94225460454E+02  0.94966347452E+03 -0.49785619791E+03  0.10801991339E+04  0.90720575984E+02 0.  0.
         23    2    4    4    0    0  0.57335805438E+03  0.20643673080E+03 -0.66574664767E+03  0.90726069245E+03  0.92454220171E+02 0.  0.
          2    1    3    3  502    0 -0.24288471435E+03 -0.46610942639E+03 -0.50835329105E+03  0.73121409338E+03  0.00000000000E+00 0. -1.
         -1    1    3    3    0  502 -0.42469880048E+03 -0.68999077894E+03 -0.67467584085E+03  0.10543452169E+04  0.00000000000E+00 0.  1.
         13    1    5    5    0    0  0.32934547487E+02  0.19645814094E+03 -0.14376519925E+03  0.24566016786E+03  0.00000000000E+00 0. -1.
        -13    1    5    5    0    0  0.61290912967E+02  0.75320533359E+03 -0.35409099866E+03  0.83453896607E+03  0.00000000000E+00 0.  1.
          1    1    6    6  503    0  0.27281994299E+03  0.53361755626E+02 -0.32784464659E+03  0.42983753972E+03  0.00000000000E+00 0. -1.
         -1    1    6    6    0  503  0.30053811139E+03  0.15307497518E+03 -0.33790200108E+03  0.47742315273E+03  0.00000000000E+00 0.  1.
<mgrwt>
<rscale>  0 0.29544867E+04</rscale>
<asrwt>0</asrwt>
<pdfrwt beam="1">  1        2 0.47074239E+00 0.29544867E+04</pdfrwt>
<pdfrwt beam="2">  1       -1 0.10972209E+00 0.29544867E+04</pdfrwt>
<totfact> 0.11957121E+00</totfact>
</mgrwt>
</event>
<event>
12    7  0.1611233E-007  0.1677851E+04  0.7818608E-02  0.8774099E-01
          2   -1    0    0  501    0  0.00000000000E+00  0.00000000000E+00  0.65159405453E+03  0.65159405453E+03  0.00000000000E+00 0. -1.
         -1   -1    0    0    0  501 -0.00000000000E+00 -0.00000000000E+00 -0.10801141220E+04  0.10801141220E+04  0.00000000000E+00 0.  1.
         24    2    1    2    0    0  0.47989417952E+03 -0.21747010739E+03 -0.43427435315E+03  0.68756056503E+03  0.80954589965E+02 0.  0.
        254    2    1    2    0    0 -0.47989417952E+03  0.21747010739E+03  0.57542857005E+01  0.10441476115E+04  0.90145407625E+03 0.  0.
         23    2    4    4    0    0 -0.16396124535E+03 -0.18668463072E+02  0.42270415671E+03  0.46300181262E+03  0.91978654581E+02 0.  0.
         23    2    4    4    0    0 -0.31593293417E+03  0.23613857047E+03 -0.41694987101E+03  0.58114579886E+03  0.91149334810E+02 0.  0.
          2    1    3    3  502    0  0.23572851212E+03 -0.10484348351E+03 -0.16060256868E+03  0.30389681230E+03  0.00000000000E+00 0. -1.
         -1    1    3    3    0  502  0.24416566740E+03 -0.11262662389E+03 -0.27367178447E+03  0.38366375273E+03  0.00000000000E+00 0.  1.
         13    1    5    5    0    0 -0.16926520130E+03 -0.25631028094E+02  0.34844663361E+03  0.38823023381E+03  0.00000000000E+00 0. -1.
        -13    1    5    5    0    0  0.53039559492E+01  0.69625650223E+01  0.74257523094E+02  0.74771578802E+02  0.00000000000E+00 0.  1.
          1    1    6    6  503    0 -0.32012245359E+03  0.23908518312E+03 -0.40971949916E+03  0.57228504967E+03  0.00000000000E+00 0. -1.
         -1    1    6    6    0  503  0.41895194173E+01 -0.29466126572E+01 -0.72303718437E+01  0.88607491838E+01  0.00000000000E+00 0.  1.
<mgrwt>
<rscale>  0 0.16778509E+04</rscale>
<asrwt>0</asrwt>
<pdfrwt beam="1">  1        2 0.10024524E+00 0.16778509E+04</pdfrwt>
<pdfrwt beam="2">  1       -1 0.16617140E+00 0.16778509E+04</pdfrwt>
<totfact> 0.12818018E+01</totfact>
</mgrwt>
</event>
<event>
12    7  0.1611233E-007  0.1511910E+04  0.7818608E-02  0.8876571E-01
          2   -1    0    0  501    0  0.00000000000E+00  0.00000000000E+00  0.16192777351E+04  0.16192777351E+04  0.00000000000E+00 0. -1.
         -1   -1    0    0    0  501 -0.00000000000E+00 -0.00000000000E+00 -0.35291541183E+03  0.35291541183E+03  0.00000000000E+00 0.  1.
         24    2    1    2    0    0  0.40485720143E+03  0.14181663907E+03  0.69937412598E+03  0.82443884524E+03  0.80956338737E+02 0.  0.
        254    2    1    2    0    0 -0.40485720143E+03 -0.14181663907E+03  0.56698819725E+03  0.11477543017E+04  0.90102331185E+03 0.  0.
         23    2    4    4    0    0 -0.31829412958E+03 -0.50445030198E+03  0.41810406941E+03  0.73382851233E+03  0.88949494441E+02 0.  0.
         23    2    4    4    0    0 -0.86563071847E+02  0.36263366291E+03  0.14888412785E+03  0.41392578933E+03  0.10085502797E+03 0.  0.
          4    1    3    3  502    0  0.19217620612E+03  0.64860507546E+02  0.40751643946E+03  0.45520130499E+03  0.00000000000E+00 0. -1.
         -3    1    3    3    0  502  0.21268099531E+03  0.76956131526E+02  0.29185768652E+03  0.36923754024E+03  0.00000000000E+00 0.  1.
         13    1    5    5    0    0 -0.45687611651E+02 -0.91497647789E+02  0.35190288851E+02  0.10815513783E+03  0.00000000000E+00 0.  1.
        -13    1    5    5    0    0 -0.27260651793E+03 -0.41295265419E+03  0.38291378056E+03  0.62567337450E+03  0.00000000000E+00 0. -1.
          4    1    6    6  503    0 -0.48167148746E+02  0.28821910900E+03  0.15346668057E+03  0.33006416203E+03  0.00000000000E+00 0. -1.
         -4    1    6    6    0  503 -0.38395923101E+02  0.74414553909E+02 -0.45825527244E+01  0.83861627302E+02  0.00000000000E+00 0.  1.
<mgrwt>
<rscale>  0 0.15119101E+04</rscale>
<asrwt>0</asrwt>
<pdfrwt beam="1">  1        2 0.24911965E+00 0.15119101E+04</pdfrwt>
<pdfrwt beam="2">  1       -1 0.54294680E-01 0.15119101E+04</pdfrwt>
<totfact> 0.40985018E+01</totfact>
</mgrwt>
</event>
<event>
12    7  0.1611233E-007  0.2389245E+04  0.7818608E-02  0.8443541E-01
         -1   -1    0    0    0  501 -0.00000000000E+00  0.00000000000E+00  0.35567383520E+03  0.35567383520E+03  0.00000000000E+00 0.  1.
          2   -1    0    0  501    0  0.00000000000E+00 -0.00000000000E+00 -0.40124475221E+04  0.40124475221E+04  0.00000000000E+00 0. -1.
         24    2    1    2    0    0 -0.48401783875E+03  0.88380305546E+03 -0.17966450201E+04  0.20613883085E+04  0.77506911454E+02 0.  0.
        254    2    1    2    0    0  0.48401783875E+03 -0.88380305546E+03 -0.18601286668E+04  0.23067330488E+04  0.91954205563E+03 0.  0.
         23    2    4    4    0    0  0.16203315522E+03 -0.23602495018E+03 -0.14260463038E+04  0.14576992103E+04  0.96521535082E+02 0.  0.
         23    2    4    4    0    0  0.32198468352E+03 -0.64777810528E+03 -0.43408236307E+03  0.84903383848E+03  0.95605182139E+02 0.  0.
          4    1    3    3  502    0 -0.41279763514E+03  0.73041352990E+03 -0.14376934003E+04  0.16645924803E+04  0.00000000000E+00 0. -1.
         -3    1    3    3    0  502 -0.71220203610E+02  0.15338952555E+03 -0.35895161981E+03  0.39679582825E+03  0.00000000000E+00 0.  1.
         13    1    5    5    0    0  0.14309987333E+03 -0.12724619577E+03 -0.87756942786E+03  0.89821894258E+03  0.00000000000E+00 0. -1.
        -13    1    5    5    0    0  0.18933281895E+02 -0.10877875441E+03 -0.54847687590E+03  0.55948026772E+03  0.00000000000E+00 0.  1.
          1    1    6    6  503    0  0.15765677230E+03 -0.22069619742E+03 -0.18146442336E+03  0.32633082348E+03  0.00000000000E+00 0. -1.
         -1    1    6    6    0  503  0.16432791123E+03 -0.42708190785E+03 -0.25261793971E+03  0.52270301499E+03  0.00000000000E+00 0.  1.
<mgrwt>
<rscale>  0 0.23892447E+04</rscale>
<asrwt>0</asrwt>
<pdfrwt beam="1">  1        2 0.61729958E+00 0.23892447E+04</pdfrwt>
<pdfrwt beam="2">  1       -1 0.54719055E-01 0.23892447E+04</pdfrwt>
<totfact> 0.11603115E+00</totfact>
</mgrwt>
</event>
<event>
12    7  0.1611233E-007  0.1228306E+04  0.7818608E-02  0.9088435E-01
          2   -1    0    0  501    0  0.00000000000E+00  0.00000000000E+00  0.66817492488E+03  0.66817492488E+03  0.00000000000E+00 0. -1.
         -1   -1    0    0    0  501 -0.00000000000E+00 -0.00000000000E+00 -0.56449913268E+03  0.56449913268E+03  0.00000000000E+00 0.  1.
         24    2    1    2    0    0 -0.23746503996E+03  0.15732494852E+02  0.15748933214E+03  0.29596411240E+03  0.78451956579E+02 0.  0.
        254    2    1    2    0    0  0.23746503996E+03 -0.15732494852E+02 -0.53813539938E+02  0.93670994517E+03  0.90437407509E+03 0.  0.
         23    2    4    4    0    0 -0.13195253174E+03 -0.35501212622E+03 -0.15064215582E+03  0.41779719414E+03  0.91740699358E+02 0.  0.
         23    2    4    4    0    0  0.36941757170E+03  0.33927963137E+03  0.96828615884E+02  0.51891275103E+03  0.91184712415E+02 0.  0.
          2    1    3    3  502    0 -0.92412355638E+02 -0.22731806870E+02  0.91537862825E+02  0.13204529090E+03  0.00000000000E+00 0. -1.
         -1    1    3    3    0  502 -0.14505268432E+03  0.38464301721E+02  0.65951469312E+02  0.16391882150E+03  0.00000000000E+00 0.  1.
         13    1    5    5    0    0 -0.86477414430E+02 -0.27345592355E+03 -0.15161857100E+03  0.32441435912E+03  0.00000000000E+00 0.  1.
        -13    1    5    5    0    0 -0.45475117311E+02 -0.81556202670E+02  0.97641517919E+00  0.93382835013E+02  0.00000000000E+00 0. -1.
          4    1    6    6  503    0  0.25381531456E+03  0.28486995385E+03  0.82371638248E+02  0.39033087413E+03  0.00000000000E+00 0.  1.
         -4    1    6    6    0  503  0.11560225714E+03  0.54409677526E+02  0.14456977636E+02  0.12858187690E+03  0.00000000000E+00 0. -1.
<mgrwt>
<rscale>  0 0.12283064E+04</rscale>
<asrwt>0</asrwt>
<pdfrwt beam="1">  1        2 0.10279614E+00 0.12283064E+04</pdfrwt>
<pdfrwt beam="2">  1       -1 0.86846020E-01 0.12283064E+04</pdfrwt>
<totfact> 0.63898580E+01</totfact>
</mgrwt>
</event>
<event>
12    7  0.1611233E-007  0.1499591E+04  0.7818608E-02  0.8884725E-01
          2   -1    0    0  501    0  0.00000000000E+00  0.00000000000E+00  0.54681276768E+03  0.54681276768E+03  0.00000000000E+00 0. -1.
         -1   -1    0    0    0  501 -0.00000000000E+00 -0.00000000000E+00 -0.10281279318E+04  0.10281279318E+04  0.00000000000E+00 0.  1.
         24    2    1    2    0    0 -0.32195846607E+03 -0.31525469479E+03 -0.36683941918E+03  0.58635836160E+03  0.78753998569E+02 0.  0.
        254    2    1    2    0    0  0.32195846607E+03  0.31525469479E+03 -0.11447574490E+03  0.98858233783E+03  0.87243771470E+03 0.  0.
         23    2    4    4    0    0  0.24596328159E+03 -0.94646528489E+02 -0.39101979955E+03  0.48023938692E+03  0.90980678472E+02 0.  0.
         23    2    4    4    0    0  0.75995184478E+02  0.40990122328E+03  0.27654405465E+03  0.50834295091E+03  0.90231151313E+02 0.  0.
          4    1    3    3  502    0 -0.80731618983E+02 -0.10947563255E+03 -0.74528981056E+02  0.15510344111E+03  0.00000000000E+00 0. -1.
         -3    1    3    3    0  502 -0.24122684709E+03 -0.20577906224E+03 -0.29231043813E+03  0.43125492050E+03  0.00000000000E+00 0.  1.
         13    1    5    5    0    0  0.13924052570E+03 -0.81864692764E+02 -0.29397344705E+03  0.33542531134E+03  0.00000000000E+00 0.  1.
        -13    1    5    5    0    0  0.10672275590E+03 -0.12781835725E+02 -0.97046352507E+02  0.14481407558E+03  0.00000000000E+00 0. -1.
          1    1    6    6  503    0  0.43583586527E+02  0.37977404830E+03  0.24627863502E+03  0.45473181420E+03  0.00000000000E+00 0. -1.
         -1    1    6    6    0  503  0.32411597952E+02  0.30127174978E+02  0.30265419635E+02  0.53611136712E+02  0.00000000000E+00 0.  1.
<mgrwt>
<rscale>  0 0.14995913E+04</rscale>
<asrwt>0</asrwt>
<pdfrwt beam="1">  1        2 0.84125041E-01 0.14995913E+04</pdfrwt>
<pdfrwt beam="2">  1       -1 0.15817353E+00 0.14995913E+04</pdfrwt>
<totfact> 0.18472028E+01</totfact>
</mgrwt>
</event>
<event>
12    7  0.1611233E-007  0.1739292E+04  0.7818608E-02  0.8739267E-01
          2   -1    0    0  501    0  0.00000000000E+00  0.00000000000E+00  0.13630604749E+04  0.13630604749E+04  0.00000000000E+00 0. -1.
         -1   -1    0    0    0  501 -0.00000000000E+00 -0.00000000000E+00 -0.55484282753E+03  0.55484282753E+03  0.00000000000E+00 0.  1.
         24    2    1    2    0    0  0.13245939603E+03 -0.53699926644E+03 -0.41148168513E+02  0.56034192240E+03  0.79851076780E+02 0.  0.
        254    2    1    2    0    0 -0.13245939603E+03  0.53699926644E+03  0.84936581590E+03  0.13575613800E+04  0.90312618588E+03 0.  0.
         23    2    4    4    0    0 -0.22188372101E+02  0.36813094080E+03 -0.91312122269E+02  0.39143786069E+03  0.94196505673E+02 0.  0.
         23    2    4    4    0    0 -0.11027102393E+03  0.16886832565E+03  0.94067793817E+03  0.96612351936E+03  0.88563317292E+02 0.  0.
          4    1    3    3  502    0  0.23903410862E+02 -0.45637478100E+02 -0.24012597032E+02  0.56839750830E+02  0.00000000000E+00 0. -1.
         -3    1    3    3    0  502  0.10855598517E+03 -0.49136178834E+03 -0.17135571480E+02  0.50350217157E+03  0.00000000000E+00 0.  1.
         13    1    5    5    0    0 -0.52411679995E+02  0.17970219353E+03 -0.22333537567E+02  0.18851697393E+03  0.00000000000E+00 0.  1.
        -13    1    5    5    0    0  0.30223307894E+02  0.18842874727E+03 -0.68978584703E+02  0.20292088676E+03  0.00000000000E+00 0. -1.
          1    1    6    6  503    0 -0.11712082636E+03  0.16117915371E+03  0.93069174856E+03  0.95177893357E+03  0.00000000000E+00 0. -1.
         -1    1    6    6    0  503  0.68498024253E+01  0.76891719374E+01  0.99861896069E+01  0.14344585780E+02  0.00000000000E+00 0.  1.
<mgrwt>
<rscale>  0 0.17392922E+04</rscale>
<asrwt>0</asrwt>
<pdfrwt beam="1">  1        2 0.20970161E+00 0.17392922E+04</pdfrwt>
<pdfrwt beam="2">  1       -1 0.85360435E-01 0.17392922E+04</pdfrwt>
<totfact> 0.22289873E+01</totfact>
</mgrwt>
</event>
<event>
12    7  0.1611233E-007  0.1231947E+04  0.7818608E-02  0.9085344E-01
          2   -1    0    0  501    0  0.00000000000E+00  0.00000000000E+00  0.26568319651E+04  0.26568319651E+04  0.00000000000E+00 0. -1.
         -1   -1    0    0    0  501 -0.00000000000E+00 -0.00000000000E+00 -0.14281042790E+03  0.14281042790E+03  0.00000000000E+00 0.  1.
         24    2    1    2    0    0 -0.16622252583E+03  0.20762115104E+02  0.82972723515E+02  0.20232874052E+03  0.77404475809E+02 0.  0.
        254    2    1    2    0    0  0.16622252583E+03 -0.20762115104E+02  0.24310488136E+04  0.25973136524E+04  0.89887645501E+03 0.  0.
         23    2    4    4    0    0 -0.11613042753E+03  0.23445537129E+03  0.19795937877E+04  0.19992505629E+04  0.98770702511E+02 0.  0.
         23    2    4    4    0    0  0.28235295335E+03 -0.25521748639E+03  0.45145502594E+03  0.59806308954E+03  0.94913976817E+02 0.  0.
          4    1    3    3  502    0 -0.71105606169E+01  0.27891060901E+01  0.34052582099E+02  0.34898675228E+02  0.00000000000E+00 0. -1.
         -3    1    3    3    0  502 -0.15911196521E+03  0.17973009014E+02  0.48920141416E+02  0.16743006529E+03  0.00000000000E+00 0.  1.
         13    1    5    5    0    0  0.13652367891E+02  0.54441608444E+02  0.32000461015E+03  0.32488956030E+03  0.00000000000E+00 0. -1.
        -13    1    5    5    0    0 -0.12978279542E+03  0.18001376284E+03  0.16595891775E+04  0.16743610026E+04  0.00000000000E+00 0.  1.
          4    1    6    6  503    0 -0.44515869873E+01 -0.14026287237E+02  0.58616845554E+01  0.15840224309E+02  0.00000000000E+00 0. -1.
         -4    1    6    6    0  503  0.28680454034E+03 -0.24119119915E+03  0.44559334139E+03  0.58222286523E+03  0.00000000000E+00 0.  1.
<mgrwt>
<rscale>  0 0.12319469E+04</rscale>
<asrwt>0</asrwt>
<pdfrwt beam="1">  1        2 0.40874334E+00 0.12319469E+04</pdfrwt>
<pdfrwt beam="2">  1       -1 0.21970837E-01 0.12319469E+04</pdfrwt>
<totfact> 0.55598080E+01</totfact>
</mgrwt>
</event>
<event>
12    7  0.1611233E-007  0.1539653E+04  0.7818608E-02  0.8858504E-01
          2   -1    0    0  501    0  0.00000000000E+00  0.00000000000E+00  0.11055593150E+04  0.11055593150E+04  0.00000000000E+00 0. -1.
         -1   -1    0    0    0  501 -0.00000000000E+00 -0.00000000000E+00 -0.53604784604E+03  0.53604784604E+03  0.00000000000E+00 0.  1.
         24    2    1    2    0    0  0.22472223424E+03 -0.20223344236E+02  0.66837529900E+03  0.71001923526E+03  0.80577341180E+02 0.  0.
        254    2    1    2    0    0 -0.22472223424E+03  0.20223344236E+02 -0.98863830069E+02  0.93158792576E+03  0.89842803847E+03 0.  0.
         23    2    4    4    0    0  0.66836983320E+02 -0.14046374972E+02 -0.45025951785E+03  0.46453054132E+03  0.91599712969E+02 0.  0.
         23    2    4    4    0    0 -0.29155921756E+03  0.34269719208E+02  0.35139568778E+03  0.46705738444E+03  0.92100379819E+02 0.  0.
          4    1    3    3  502    0  0.16707560344E+03  0.16494852701E+02  0.52491292700E+03  0.55110790084E+03  0.00000000000E+00 0. -1.
         -3    1    3    3    0  502  0.57646630803E+02 -0.36718196937E+02  0.14346237200E+03  0.15891133442E+03  0.00000000000E+00 0.  1.
         13    1    5    5    0    0  0.31120658857E+02  0.34173529468E+02 -0.28479169827E+03  0.28851800105E+03  0.00000000000E+00 0.  1.
        -13    1    5    5    0    0  0.35716324463E+02 -0.48219904440E+02 -0.16546781958E+03  0.17601254027E+03  0.00000000000E+00 0. -1.
          2    1    6    6  503    0 -0.13951615759E+03 -0.26405107427E+02  0.13700086573E+03  0.19730997222E+03  0.00000000000E+00 0. -1.
         -2    1    6    6    0  503 -0.15204305997E+03  0.60674826636E+02  0.21439482205E+03  0.26974741221E+03  0.00000000000E+00 0.  1.
<mgrwt>
<rscale>  0 0.15396528E+04</rscale>
<asrwt>0</asrwt>
<pdfrwt beam="1">  1        2 0.17008605E+00 0.15396528E+04</pdfrwt>
<pdfrwt beam="2">  1       -1 0.82468899E-01 0.15396528E+04</pdfrwt>
<totfact> 0.34715901E+01</totfact>
</mgrwt>
</event>
<event>
12    7  0.1611233E-007  0.2166292E+04  0.7818608E-02  0.8532591E-01
          2   -1    0    0  501    0  0.00000000000E+00  0.00000000000E+00  0.32284224749E+04  0.32284224749E+04  0.00000000000E+00 0. -1.
         -1   -1    0    0    0  501 -0.00000000000E+00 -0.00000000000E+00 -0.36339877633E+03  0.36339877633E+03  0.00000000000E+00 0.  1.
         24    2    1    2    0    0  0.31177000208E+03 -0.53002629847E+03  0.22746783505E+04  0.23576634259E+04  0.79289471948E+02 0.  0.
        254    2    1    2    0    0 -0.31177000208E+03  0.53002629847E+03  0.59034534808E+03  0.12341578253E+04  0.89247380720E+03 0.  0.
         23    2    4    4    0    0  0.40799654958E+02  0.31257401911E+02 -0.20310950817E+03  0.22864759530E+03  0.91567535223E+02 0.  0.
         23    2    4    4    0    0 -0.35256965704E+03  0.49876889656E+03  0.79345485625E+03  0.10055102300E+04  0.91675724847E+02 0.  0.
          4    1    3    3  502    0  0.29967084957E+03 -0.46234124152E+03  0.19988283087E+04  0.20733732537E+04  0.00000000000E+00 0. -1.
         -3    1    3    3    0  502  0.12099152507E+02 -0.67685056954E+02  0.27585004182E+03  0.28429017218E+03  0.00000000000E+00 0.  1.
         13    1    5    5    0    0  0.60540322511E+02  0.33877960845E+02 -0.19530252154E+03  0.20725810431E+03  0.00000000000E+00 0. -1.
        -13    1    5    5    0    0 -0.19740667554E+02 -0.26205589341E+01 -0.78069866315E+01  0.21389490991E+02  0.00000000000E+00 0.  1.
          1    1    6    6  503    0 -0.21367771623E+03  0.37145319394E+03  0.52876135110E+03  0.68060576557E+03  0.00000000000E+00 0. -1.
         -1    1    6    6    0  503 -0.13889194080E+03  0.12731570262E+03  0.26469350515E+03  0.32490446445E+03  0.00000000000E+00 0.  1.
<mgrwt>
<rscale>  0 0.21662916E+04</rscale>
<asrwt>0</asrwt>
<pdfrwt beam="1">  1        2 0.49668036E+00 0.21662916E+04</pdfrwt>
<pdfrwt beam="2">  1       -1 0.55907506E-01 0.21662916E+04</pdfrwt>
<totfact> 0.42033430E+00</totfact>
</mgrwt>
</event>
<event>
12    7  0.1611233E-007  0.2297969E+04  0.7818608E-02  0.8478722E-01
         -1   -1    0    0    0  501 -0.00000000000E+00  0.00000000000E+00  0.38521941127E+03  0.38521941127E+03  0.00000000000E+00 0.  1.
          2   -1    0    0  501    0  0.00000000000E+00 -0.00000000000E+00 -0.34270479811E+04  0.34270479811E+04  0.00000000000E+00 0. -1.
         24    2    1    2    0    0 -0.86385083935E+03 -0.33873732218E+03 -0.79416526524E+03  0.12232979100E+04  0.69123527388E+02 0.  0.
        254    2    1    2    0    0  0.86385083935E+03  0.33873732218E+03 -0.22476633046E+04  0.25889694824E+04  0.88870208940E+03 0.  0.
         23    2    4    4    0    0  0.71883988917E+03 -0.16200111773E+03 -0.11287013436E+04  0.13510923392E+04  0.92242276733E+02 0.  0.
         23    2    4    4    0    0  0.14501095018E+03  0.50073843991E+03 -0.11189619610E+04  0.12378771432E+04  0.92178037034E+02 0.  0.
          2    1    3    3  502    0 -0.37666219779E+03 -0.15680352216E+03 -0.39309689877E+03  0.56655708241E+03  0.00000000000E+00 0. -1.
         -1    1    3    3    0  502 -0.48718864156E+03 -0.18193380002E+03 -0.40106836647E+03  0.65674082760E+03  0.00000000000E+00 0.  1.
         13    1    5    5    0    0  0.92537918910E+02 -0.41990148510E+02 -0.20282318262E+03  0.22685608305E+03  0.00000000000E+00 0.  1.
        -13    1    5    5    0    0  0.62630197026E+03 -0.12001096922E+03 -0.92587816095E+03  0.11242362561E+04  0.00000000000E+00 0. -1.
          1    1    6    6  503    0  0.14330614222E+03  0.43727312020E+03 -0.91386084087E+03  0.10231745054E+04  0.00000000000E+00 0. -1.
         -1    1    6    6    0  503  0.17048079622E+01  0.63465319711E+02 -0.20510112017E+03  0.21470263778E+03  0.00000000000E+00 0.  1.
<mgrwt>
<rscale>  0 0.22979690E+04</rscale>
<asrwt>0</asrwt>
<pdfrwt beam="1">  1        2 0.52723815E+00 0.22979690E+04</pdfrwt>
<pdfrwt beam="2">  1       -1 0.59264525E-01 0.22979690E+04</pdfrwt>
<totfact> 0.27263224E+00</totfact>
</mgrwt>
</event>
<event>
12    7  0.1611233E-007  0.1830797E+04  0.7818608E-02  0.8690091E-01
          2   -1    0    0  501    0  0.00000000000E+00  0.00000000000E+00  0.14038032841E+04  0.14038032841E+04  0.00000000000E+00 0. -1.
         -1   -1    0    0    0  501 -0.00000000000E+00 -0.00000000000E+00 -0.59691703891E+03  0.59691703891E+03  0.00000000000E+00 0.  1.
         24    2    1    2    0    0  0.31450679590E+03 -0.52306363035E+03 -0.42208863605E+02  0.61702311045E+03  0.80161366030E+02 0.  0.
        254    2    1    2    0    0 -0.31450679590E+03  0.52306363035E+03  0.84909510877E+03  0.13836972125E+04  0.90617072682E+03 0.  0.
         23    2    4    4    0    0 -0.13408962226E+03 -0.23125919250E+03  0.96326199549E+02  0.29834045781E+03  0.90925525213E+02 0.  0.
         23    2    4    4    0    0 -0.18041717364E+03  0.75432282285E+03  0.75276890922E+03  0.10853567547E+04  0.98919041151E+02 0.  0.
          2    1    3    3  502    0  0.22336479902E+03 -0.33136950395E+03  0.46734170477E+01  0.39964912412E+03  0.00000000000E+00 0. -1.
         -1    1    3    3    0  502  0.91141996881E+02 -0.19169412641E+03 -0.46882280653E+02  0.21737398633E+03  0.00000000000E+00 0.  1.
         13    1    5    5    0    0 -0.11703710032E+03 -0.22719954222E+03  0.10781369298E+03  0.27738260081E+03  0.00000000000E+00 0.  1.
        -13    1    5    5    0    0 -0.17052521943E+02 -0.40596502718E+01 -0.11487493426E+02  0.20957857004E+02  0.00000000000E+00 0. -1.
          3    1    6    6  503    0 -0.47277917474E+01  0.14702232160E+03  0.10908843510E+03  0.18313438163E+03  0.00000000000E+00 0. -1.
         -3    1    6    6    0  503 -0.17568938189E+03  0.60730050125E+03  0.64368047412E+03  0.90222237308E+03  0.00000000000E+00 0.  1.
<mgrwt>
<rscale>  0 0.18307967E+04</rscale>
<asrwt>0</asrwt>
<pdfrwt beam="1">  1        2 0.21596974E+00 0.18307967E+04</pdfrwt>
<pdfrwt beam="2">  1       -1 0.91833391E-01 0.18307967E+04</pdfrwt>
<totfact> 0.17851261E+01</totfact>
</mgrwt>
</event>
<event>
12    7  0.1611233E-007  0.2279677E+04  0.7818608E-02  0.8485977E-01
          2   -1    0    0  501    0  0.00000000000E+00  0.00000000000E+00  0.14334335193E+04  0.14334335193E+04  0.00000000000E+00 0. -1.
         -1   -1    0    0    0  501 -0.00000000000E+00 -0.00000000000E+00 -0.90637761478E+03  0.90637761478E+03  0.00000000000E+00 0.  1.
         24    2    1    2    0    0  0.74785182283E+03 -0.58413996471E+03  0.11271908946E+03  0.95999216715E+03  0.91528796450E+02 0.  0.
        254    2    1    2    0    0 -0.74785182283E+03  0.58413996471E+03  0.41433681507E+03  0.13798189669E+04  0.91198878167E+03 0.  0.
         23    2    4    4    0    0 -0.83404832072E+03  0.54952366744E+03  0.62333205619E+02  0.10047688501E+04  0.89789483257E+02 0.  0.
         23    2    4    4    0    0  0.86196497890E+02  0.34616297273E+02  0.35200360945E+03  0.37505011680E+03  0.90155004072E+02 0.  0.
          4    1    3    3  502    0  0.72578573845E+01 -0.11354542900E+02  0.12523706752E+02  0.18396884766E+02  0.00000000000E+00 0. -1.
         -3    1    3    3    0  502  0.74059396545E+03 -0.57278542181E+03  0.10019538271E+03  0.94159528238E+03  0.00000000000E+00 0.  1.
         13    1    5    5    0    0 -0.75669235075E+03  0.52643323680E+03  0.50552433339E+02  0.92318514665E+03  0.00000000000E+00 0. -1.
        -13    1    5    5    0    0 -0.77355969975E+02  0.23090430635E+02  0.11780772280E+02  0.81583703478E+02  0.00000000000E+00 0.  1.
          1    1    6    6  503    0  0.52911549578E+02 -0.17165465968E+02  0.24828519366E+03  0.25444021437E+03  0.00000000000E+00 0. -1.
         -1    1    6    6    0  503  0.33284948311E+02  0.51781763242E+02  0.10371841579E+03  0.12060990243E+03  0.00000000000E+00 0.  1.
<mgrwt>
<rscale>  0 0.22796772E+04</rscale>
<asrwt>0</asrwt>
<pdfrwt beam="1">  1        2 0.22052823E+00 0.22796772E+04</pdfrwt>
<pdfrwt beam="2">  1       -1 0.13944271E+00 0.22796772E+04</pdfrwt>
<totfact> 0.60688038E+00</totfact>
</mgrwt>
</event>
<event>
12    7  0.1611233E-007  0.1264951E+04  0.7818608E-02  0.9057830E-01
          2   -1    0    0  501    0  0.00000000000E+00  0.00000000000E+00  0.29578523586E+04  0.29578523586E+04  0.00000000000E+00 0. -1.
         -1   -1    0    0    0  501 -0.00000000000E+00 -0.00000000000E+00 -0.13524186827E+03  0.13524186827E+03  0.00000000000E+00 0.  1.
         24    2    1    2    0    0  0.27242911885E+03 -0.11210037135E+03  0.58611018349E+03  0.66191272335E+03  0.88426173081E+02 0.  0.
        254    2    1    2    0    0 -0.27242911885E+03  0.11210037135E+03  0.22365003069E+04  0.24311815035E+04  0.90660121470E+03 0.  0.
         23    2    4    4    0    0  0.31653705162E+03  0.10619784511E+03  0.10031832785E+04  0.10612705560E+04  0.91895676359E+02 0.  0.
         23    2    4    4    0    0 -0.58896617047E+03  0.59025262369E+01  0.12333170284E+04  0.13699109476E+04  0.93108120267E+02 0.  0.
          4    1    3    3  502    0  0.13072752891E+03 -0.22739229248E+02  0.18915183851E+03  0.23105232605E+03  0.00000000000E+00 0. -1.
         -3    1    3    3    0  502  0.14170158994E+03 -0.89361142104E+02  0.39695834499E+03  0.43086039730E+03  0.00000000000E+00 0.  1.
         13    1    5    5    0    0  0.22023877237E+02 -0.72275807762E+01  0.14610822058E+03  0.14793546300E+03  0.00000000000E+00 0. -1.
        -13    1    5    5    0    0  0.29451317439E+03  0.11342542589E+03  0.85707505792E+03  0.91333509296E+03  0.00000000000E+00 0.  1.
          4    1    6    6  503    0 -0.50496363447E+03  0.21606424286E+02  0.11124553341E+04  0.12218886938E+04  0.00000000000E+00 0.  1.
         -4    1    6    6    0  503 -0.84002536006E+02 -0.15703898049E+02  0.12086169430E+03  0.14802225379E+03  0.00000000000E+00 0. -1.
<mgrwt>
<rscale>  0 0.12649513E+04</rscale>
<asrwt>0</asrwt>
<pdfrwt beam="1">  1        2 0.45505416E+00 0.12649513E+04</pdfrwt>
<pdfrwt beam="2">  1       -1 0.20806444E-01 0.12649513E+04</pdfrwt>
<totfact> 0.40088569E+01</totfact>
</mgrwt>
</event>
<event>
12    7  0.1611233E-007  0.1991693E+04  0.7818608E-02  0.8610514E-01
         -1   -1    0    0    0  501 -0.00000000000E+00  0.00000000000E+00  0.34169119048E+03  0.34169119048E+03  0.00000000000E+00 0.  1.
          2   -1    0    0  501    0  0.00000000000E+00 -0.00000000000E+00 -0.29023587708E+04  0.29023587708E+04  0.00000000000E+00 0. -1.
         24    2    1    2    0    0  0.29251884459E+03  0.44498501386E+03 -0.19619303227E+04  0.20345347438E+04  0.81130114411E+02 0.  0.
        254    2    1    2    0    0 -0.29251884459E+03 -0.44498501386E+03 -0.59873725766E+03  0.12095152175E+04  0.90601424976E+03 0.  0.
         23    2    4    4    0    0  0.84189536610E+02  0.23618511268E+03 -0.15486418919E+03  0.30883369341E+03  0.92325768696E+02 0.  0.
         23    2    4    4    0    0 -0.37670838120E+03 -0.68117012655E+03 -0.44387306847E+03  0.90068152414E+03  0.91115098852E+02 0.  0.
          4    1    3    3  502    0  0.28854880147E+03  0.42572667205E+03 -0.19269970957E+04  0.19944476471E+04  0.00000000000E+00 0. -1.
         -3    1    3    3    0  502  0.39700431211E+01  0.19258341816E+02 -0.34933226996E+02  0.40087096680E+02  0.00000000000E+00 0.  1.
         13    1    5    5    0    0  0.77840526770E+02  0.10233020642E+03 -0.10447636005E+03  0.16566812779E+03  0.00000000000E+00 0. -1.
        -13    1    5    5    0    0  0.63490098404E+01  0.13385490626E+03 -0.50387829135E+02  0.14316556562E+03  0.00000000000E+00 0.  1.
          2    1    6    6  503    0 -0.19421673967E+02 -0.96081293919E+02 -0.50069988314E+02  0.11007188647E+03  0.00000000000E+00 0. -1.
         -2    1    6    6    0  503 -0.35728670724E+03 -0.58508883263E+03 -0.39380308016E+03  0.79060963767E+03  0.00000000000E+00 0.  1.
<mgrwt>
<rscale>  0 0.19916932E+04</rscale>
<asrwt>0</asrwt>
<pdfrwt beam="1">  1        2 0.44651672E+00 0.19916932E+04</pdfrwt>
<pdfrwt beam="2">  1       -1 0.52567877E-01 0.19916932E+04</pdfrwt>
<totfact> 0.77420811E+00</totfact>
</mgrwt>
</event>
<event>
12    7  0.1611233E-007  0.1756311E+04  0.7818608E-02  0.8729884E-01
         -1   -1    0    0    0  501 -0.00000000000E+00  0.00000000000E+00  0.53317184360E+03  0.53317184360E+03  0.00000000000E+00 0.  1.
          2   -1    0    0  501    0  0.00000000000E+00 -0.00000000000E+00 -0.14463581208E+04  0.14463581208E+04  0.00000000000E+00 0. -1.
         24    2    1    2    0    0 -0.44309174653E+02 -0.55223900792E+03 -0.72192907122E+03  0.91347810502E+03  0.79557775529E+02 0.  0.
        254    2    1    2    0    0  0.44309174653E+02  0.55223900792E+03 -0.19125720601E+03  0.10660518594E+04  0.89048078208E+03 0.  0.
         23    2    4    4    0    0 -0.32369334837E+03  0.18425819516E+03  0.17618137664E+03  0.42218735176E+03  0.92053333717E+02 0.  0.
         23    2    4    4    0    0  0.36800252302E+03  0.36798081277E+03 -0.36743858266E+03  0.64386450765E+03  0.93352325452E+02 0.  0.
          2    1    3    3  502    0 -0.52310210687E+02 -0.53067671888E+03 -0.66720426372E+03  0.85411689342E+03  0.00000000000E+00 0. -1.
         -1    1    3    3    0  502  0.80010360344E+01 -0.21562289045E+02 -0.54724807501E+02  0.59361211599E+02  0.00000000000E+00 0.  1.
         13    1    5    5    0    0 -0.11565503235E+02  0.31783443940E+01 -0.10469747019E+02  0.15921003135E+02  0.00000000000E+00 0. -1.
        -13    1    5    5    0    0 -0.31212784513E+03  0.18107985076E+03  0.18665112366E+03  0.40626634862E+03  0.00000000000E+00 0.  1.
          1    1    6    6  503    0  0.26646725718E+03  0.27648761308E+03 -0.31782946157E+03  0.49846340485E+03  0.00000000000E+00 0. -1.
         -1    1    6    6    0  503  0.10153526585E+03  0.91493199689E+02 -0.49609121088E+02  0.14540110280E+03  0.00000000000E+00 0.  1.
<mgrwt>
<rscale>  0 0.17563114E+04</rscale>
<asrwt>0</asrwt>
<pdfrwt beam="1">  1        2 0.22251663E+00 0.17563114E+04</pdfrwt>
<pdfrwt beam="2">  1       -1 0.82026440E-01 0.17563114E+04</pdfrwt>
<totfact> 0.21733243E+01</totfact>
</mgrwt>
</event>
<event>
12    7  0.1611233E-007  0.2285483E+04  0.7818608E-02  0.8483667E-01
         -1   -1    0    0    0  501 -0.00000000000E+00  0.00000000000E+00  0.61812401378E+03  0.61812401378E+03  0.00000000000E+00 0.  1.
          2   -1    0    0  501    0  0.00000000000E+00 -0.00000000000E+00 -0.21126149415E+04  0.21126149415E+04  0.00000000000E+00 0. -1.
         24    2    1    2    0    0 -0.62495990030E+03  0.51196730529E+03 -0.47350810210E+01  0.81185448587E+03  0.79999291014E+02 0.  0.
        254    2    1    2    0    0  0.62495990030E+03 -0.51196730529E+03 -0.14897558467E+04  0.19188844694E+04  0.90003318023E+03 0.  0.
         23    2    4    4    0    0  0.50703322872E+03 -0.27246134956E+02 -0.12609045570E+04  0.13623354208E+04  0.90842997536E+02 0.  0.
         23    2    4    4    0    0  0.11792667158E+03 -0.48472117033E+03 -0.22885128975E+03  0.55654904859E+03  0.92263848962E+02 0.  0.
          2    1    3    3  502    0 -0.11328825212E+03  0.89365076497E+02  0.29768688017E+02  0.14733132645E+03  0.00000000000E+00 0. -1.
         -3    1    3    3    0  502 -0.51167164818E+03  0.42260222879E+03 -0.34503769038E+02  0.66452315942E+03  0.00000000000E+00 0.  1.
         13    1    5    5    0    0  0.41241649340E+03  0.11095778703E+02 -0.10456909053E+04  0.11241352009E+04  0.00000000000E+00 0. -1.
        -13    1    5    5    0    0  0.94616735322E+02 -0.38341913659E+02 -0.21521365163E+03  0.23820021997E+03  0.00000000000E+00 0.  1.
          4    1    6    6  503    0  0.32122469499E+01 -0.15340511373E+03 -0.99296089749E+02  0.18276531643E+03  0.00000000000E+00 0.  1.
         -4    1    6    6    0  503  0.11471442463E+03 -0.33131605660E+03 -0.12955520000E+03  0.37378373216E+03  0.00000000000E+00 0. -1.
<mgrwt>
<rscale>  0 0.22854829E+04</rscale>
<asrwt>0</asrwt>
<pdfrwt beam="1">  1        2 0.32501769E+00 0.22854829E+04</pdfrwt>
<pdfrwt beam="2">  1       -1 0.95096000E-01 0.22854829E+04</pdfrwt>
<totfact> 0.63790702E+00</totfact>
</mgrwt>
</event>
<event>
12    7  0.1611233E-007  0.2306019E+04  0.7818608E-02  0.8475552E-01
         -1   -1    0    0    0  501 -0.00000000000E+00  0.00000000000E+00  0.40006159132E+03  0.40006159132E+03  0.00000000000E+00 0.  1.
          2   -1    0    0  501    0  0.00000000000E+00 -0.00000000000E+00 -0.33230659519E+04  0.33230659519E+04  0.00000000000E+00 0. -1.
         24    2    1    2    0    0  0.15073500146E+02  0.72621409384E+03 -0.22997031667E+04  0.24132820917E+04  0.87645185726E+02 0.  0.
        254    2    1    2    0    0 -0.15073500146E+02 -0.72621409384E+03 -0.62330119387E+03  0.13098454515E+04  0.89419047643E+03 0.  0.
         23    2    4    4    0    0 -0.43101127116E+03 -0.49644017672E+03 -0.41755032950E+03  0.78421012484E+03  0.91726099310E+02 0.  0.
         23    2    4    4    0    0  0.41593777102E+03 -0.22977391711E+03 -0.20575086437E+03  0.52563532670E+03  0.90326054608E+02 0.  0.
          2    1    3    3  502    0  0.16084289552E+02  0.69759969864E+03 -0.21358018887E+04  0.22468986964E+04  0.00000000000E+00 0. -1.
         -1    1    3    3    0  502 -0.10107894058E+01  0.28614395197E+02 -0.16390127804E+03  0.16638339536E+03  0.00000000000E+00 0.  1.
         13    1    5    5    0    0 -0.27648427624E+03 -0.38168833215E+03 -0.29343941461E+03  0.55519026285E+03  0.00000000000E+00 0. -1.
        -13    1    5    5    0    0 -0.15452699492E+03 -0.11475184457E+03 -0.12411091489E+03  0.22901986199E+03  0.00000000000E+00 0.  1.
          3    1    6    6  503    0  0.15089697092E+03 -0.45337672334E+02 -0.39432029826E+02  0.16242008909E+03  0.00000000000E+00 0. -1.
         -3    1    6    6    0  503  0.26504080010E+03 -0.18443624478E+03 -0.16631883454E+03  0.36321523761E+03  0.00000000000E+00 0.  1.
<mgrwt>
<rscale>  0 0.23060191E+04</rscale>
<asrwt>0</asrwt>
<pdfrwt beam="1">  1        2 0.51124091E+00 0.23060191E+04</pdfrwt>
<pdfrwt beam="2">  1       -1 0.61547938E-01 0.23060191E+04</pdfrwt>
<totfact> 0.29725297E+00</totfact>
</mgrwt>
</event>
<event>
12    7  0.1611233E-007  0.2827456E+04  0.7818608E-02  0.8294795E-01
          2   -1    0    0  501    0  0.00000000000E+00  0.00000000000E+00  0.22537377894E+04  0.22537377894E+04  0.00000000000E+00 0. -1.
         -1   -1    0    0    0  501 -0.00000000000E+00 -0.00000000000E+00 -0.88680540195E+03  0.88680540195E+03  0.00000000000E+00 0.  1.
         24    2    1    2    0    0  0.83899631565E+03 -0.39575242413E+03 -0.35206058727E+03  0.99543669265E+03  0.80079667178E+02 0.  0.
        254    2    1    2    0    0 -0.83899631565E+03  0.39575242413E+03  0.17189929748E+04  0.21451064987E+04  0.88657218816E+03 0.  0.
         23    2    4    4    0    0 -0.91614410643E+03  0.59226010204E+02  0.11870954013E+04  0.15042456861E+04  0.10359463434E+03 0.  0.
         23    2    4    4    0    0  0.77147790783E+02  0.33652641393E+03  0.53189757342E+03  0.64086081263E+03  0.92659288102E+02 0.  0.
          2    1    3    3  502    0  0.76362264965E+03 -0.34757511593E+03 -0.29511254163E+03  0.88939272793E+03  0.00000000000E+00 0. -1.
         -1    1    3    3    0  502  0.75373665999E+02 -0.48177308198E+02 -0.56948045642E+02  0.10604396472E+03  0.00000000000E+00 0.  1.
         13    1    5    5    0    0 -0.35775821387E+03 -0.93211719683E+01  0.39942626843E+03  0.53630137773E+03  0.00000000000E+00 0.  1.
        -13    1    5    5    0    0 -0.55838589256E+03  0.68547182173E+02  0.78766913291E+03  0.96794430839E+03  0.00000000000E+00 0. -1.
          1    1    6    6  503    0  0.11406046092E+02  0.95905138166E+02  0.22860025438E+03  0.24816520650E+03  0.00000000000E+00 0.  1.
         -1    1    6    6    0  503  0.65741744691E+02  0.24062127576E+03  0.30329731904E+03  0.39269560613E+03  0.00000000000E+00 0. -1.
<mgrwt>
<rscale>  0 0.28274560E+04</rscale>
<asrwt>0</asrwt>
<pdfrwt beam="1">  1        2 0.34672889E+00 0.28274560E+04</pdfrwt>
<pdfrwt beam="2">  1       -1 0.13643160E+00 0.28274560E+04</pdfrwt>
<totfact> 0.21311606E+00</totfact>
</mgrwt>
</event>
<event>
12    7  0.1611233E-007  0.1823724E+04  0.7818608E-02  0.8693784E-01
         -3   -1    0    0    0  501 -0.00000000000E+00  0.00000000000E+00  0.92052502438E+03  0.92052502438E+03  0.00000000000E+00 0.  1.
          4   -1    0    0  501    0  0.00000000000E+00 -0.00000000000E+00 -0.90328089512E+03  0.90328089512E+03  0.00000000000E+00 0. -1.
         24    2    1    2    0    0 -0.16780988189E+03 -0.60126767721E+03  0.10414486421E+03  0.63833761074E+03  0.83341324841E+02 0.  0.
        254    2    1    2    0    0  0.16780988189E+03  0.60126767721E+03 -0.86900734942E+02  0.11854683088E+04  0.10040420296E+04 0.  0.
         23    2    4    4    0    0 -0.37621141029E+03  0.30904306827E+02 -0.66240572128E+00  0.38709318553E+03  0.85735605766E+02 0.  0.
         23    2    4    4    0    0  0.54402129217E+03  0.57036337038E+03 -0.86238329221E+02  0.79837512323E+03  0.93232222714E+02 0.  0.
          4    1    3    3  502    0 -0.24022579258E+01 -0.66047738253E+02 -0.93804788050E+01  0.66753786066E+02  0.00000000000E+00 0. -1.
         -3    1    3    3    0  502 -0.16540762396E+03 -0.53521993896E+03  0.11352534301E+03  0.57158382467E+03  0.00000000000E+00 0.  1.
         13    1    5    5    0    0 -0.14068834281E+03 -0.68835173336E+01  0.36921637028E+02  0.14561524609E+03  0.00000000000E+00 0. -1.
        -13    1    5    5    0    0 -0.23552306747E+03  0.37787824160E+02 -0.37584042750E+02  0.24147793944E+03  0.00000000000E+00 0.  1.
          2    1    6    6  503    0  0.23534879328E+03  0.30744924391E+03 -0.62654205997E+02  0.39222396868E+03  0.00000000000E+00 0. -1.
         -2    1    6    6    0  503  0.30867249890E+03  0.26291412648E+03 -0.23584123223E+02  0.40615115455E+03  0.00000000000E+00 0.  1.
<mgrwt>
<rscale>  0 0.18237244E+04</rscale>
<asrwt>0</asrwt>
<pdfrwt beam="1">  1        4 0.13896629E+00 0.18237244E+04</pdfrwt>
<pdfrwt beam="2">  1       -3 0.14161924E+00 0.18237244E+04</pdfrwt>
<totfact> 0.29366216E-01</totfact>
</mgrwt>
</event>
<event>
12    7  0.1611233E-007  0.1398457E+04  0.7818608E-02  0.8954936E-01
         -1   -1    0    0    0  501 -0.00000000000E+00  0.00000000000E+00  0.79471904282E+03  0.79471904282E+03  0.00000000000E+00 0.  1.
          2   -1    0    0  501    0  0.00000000000E+00 -0.00000000000E+00 -0.61521146757E+03  0.61521146757E+03  0.00000000000E+00 0. -1.
         24    2    1    2    0    0 -0.40110350787E+03 -0.30631015146E+02  0.53467120964E+02  0.41346337481E+03  0.79189305907E+02 0.  0.
        254    2    1    2    0    0  0.40110350787E+03  0.30631015146E+02  0.12604045428E+03  0.99646713558E+03  0.90290546186E+03 0.  0.
         23    2    4    4    0    0  0.43300346075E+03  0.36319084558E+03  0.25655694258E+03  0.62752168599E+03  0.92533314366E+02 0.  0.
         23    2    4    4    0    0 -0.31899952882E+02 -0.33255983043E+03 -0.13051648830E+03  0.36894544959E+03  0.86443873382E+02 0.  0.
          4    1    3    3  502    0 -0.37641738913E+03 -0.92772112132E+01  0.41997854222E+02  0.37886664837E+03  0.00000000000E+00 0. -1.
         -3    1    3    3    0  502 -0.24686118745E+02 -0.21353803933E+02  0.11469266742E+02  0.34596726445E+02  0.00000000000E+00 0.  1.
         13    1    5    5    0    0  0.39956561956E+03  0.36158160742E+03  0.23648472582E+03  0.58848871587E+03  0.00000000000E+00 0. -1.
        -13    1    5    5    0    0  0.33437841191E+02  0.16092381608E+01  0.20072216757E+02  0.39032970122E+02  0.00000000000E+00 0.  1.
          4    1    6    6  503    0 -0.43904049587E+02 -0.11814231985E+03 -0.76742186965E+02  0.14756197535E+03  0.00000000000E+00 0. -1.
         -4    1    6    6    0  503  0.12004096705E+02 -0.21441751058E+03 -0.53774301333E+02  0.22138347424E+03  0.00000000000E+00 0.  1.
<mgrwt>
<rscale>  0 0.13984567E+04</rscale>
<asrwt>0</asrwt>
<pdfrwt beam="1">  1        2 0.94647918E-01 0.13984567E+04</pdfrwt>
<pdfrwt beam="2">  1       -1 0.12226447E+00 0.13984567E+04</pdfrwt>
<totfact> 0.31648113E+01</totfact>
</mgrwt>
</event>
<event>
12    7  0.1611233E-007  0.1429866E+04  0.7818608E-02  0.8932479E-01
         -1   -1    0    0    0  501 -0.00000000000E+00  0.00000000000E+00  0.39402456160E+03  0.39402456160E+03  0.00000000000E+00 0.  1.
          2   -1    0    0  501    0  0.00000000000E+00 -0.00000000000E+00 -0.12972011813E+04  0.12972011813E+04  0.00000000000E+00 0. -1.
         24    2    1    2    0    0  0.20552816930E+03  0.15703268037E+03  0.12784974609E+03  0.30204269787E+03  0.89348434121E+02 0.  0.
        254    2    1    2    0    0 -0.20552816930E+03 -0.15703268037E+03 -0.10310263658E+04  0.13891830451E+04  0.89437859690E+03 0.  0.
         23    2    4    4    0    0  0.16320481585E+03 -0.36846614613E+03 -0.21846919715E+03  0.46735885685E+03  0.91062606027E+02 0.  0.
         23    2    4    4    0    0 -0.36873298516E+03  0.21143346576E+03 -0.81255716867E+03  0.92182418821E+03  0.94034870262E+02 0.  0.
          2    1    3    3  502    0  0.71771193617E+02  0.11100763762E+03  0.60655000414E+02  0.14544012142E+03  0.00000000000E+00 0. -1.
         -1    1    3    3    0  502  0.13375697569E+03  0.46025042753E+02  0.67194745680E+02  0.15660257646E+03  0.00000000000E+00 0.  1.
         13    1    5    5    0    0  0.15155970880E+02 -0.53730547704E+02 -0.69075623403E+02  0.88815071685E+02  0.00000000000E+00 0. -1.
        -13    1    5    5    0    0  0.14804884497E+03 -0.31473559842E+03 -0.14939357375E+03  0.37854378517E+03  0.00000000000E+00 0.  1.
          1    1    6    6  503    0 -0.88010532521E+02  0.70869637174E+02 -0.14249556991E+03  0.18186078949E+03  0.00000000000E+00 0. -1.
         -1    1    6    6    0  503 -0.28072245264E+03  0.14056382858E+03 -0.67006159876E+03  0.73996339873E+03  0.00000000000E+00 0.  1.
<mgrwt>
<rscale>  0 0.14298659E+04</rscale>
<asrwt>0</asrwt>
<pdfrwt beam="1">  1        2 0.19956942E+00 0.14298659E+04</pdfrwt>
<pdfrwt beam="2">  1       -1 0.60619163E-01 0.14298659E+04</pdfrwt>
<totfact> 0.50697788E+01</totfact>
</mgrwt>
</event>
<event>
12    7  0.1611233E-007  0.2518467E+04  0.7818608E-02  0.8396436E-01
          2   -1    0    0  501    0  0.00000000000E+00  0.00000000000E+00  0.16674650286E+04  0.16674650286E+04  0.00000000000E+00 0. -1.
         -1   -1    0    0    0  501 -0.00000000000E+00 -0.00000000000E+00 -0.95094605879E+03  0.95094605879E+03  0.00000000000E+00 0.  1.
         24    2    1    2    0    0 -0.34871622667E+03 -0.24179480636E+03  0.13643403843E+04  0.14310501482E+04  0.80075634912E+02 0.  0.
        254    2    1    2    0    0  0.34871622667E+03  0.24179480636E+03 -0.64782141446E+03  0.11873609392E+04  0.90004759866E+03 0.  0.
         23    2    4    4    0    0 -0.18201568298E+03 -0.19974355064E+03 -0.27960994856E+03  0.39955507224E+03  0.91844093663E+02 0.  0.
         23    2    4    4    0    0  0.53073190965E+03  0.44153835700E+03 -0.36821146590E+03  0.78780586699E+03  0.91792809250E+02 0.  0.
          4    1    3    3  502    0 -0.28083852357E+03 -0.16950823955E+03  0.11285717664E+04  0.11752776487E+04  0.00000000000E+00 0. -1.
         -3    1    3    3    0  502 -0.67877703097E+02 -0.72286566813E+02  0.23576861793E+03  0.25577249954E+03  0.00000000000E+00 0.  1.
         13    1    5    5    0    0 -0.16599411890E+03 -0.15689940035E+03 -0.26844820396E+03  0.35247114428E+03  0.00000000000E+00 0.  1.
        -13    1    5    5    0    0 -0.16021564082E+02 -0.42844150285E+02 -0.11161744606E+02  0.47083927958E+02  0.00000000000E+00 0. -1.
          3    1    6    6  503    0  0.15122818323E+02  0.26552338317E+02 -0.36079230035E+02  0.47280409728E+02  0.00000000000E+00 0. -1.
         -3    1    6    6    0  503  0.51560909133E+03  0.41498601868E+03 -0.33213223586E+03  0.74052545727E+03  0.00000000000E+00 0.  1.
<mgrwt>
<rscale>  0 0.25184672E+04</rscale>
<asrwt>0</asrwt>
<pdfrwt beam="1">  1        2 0.25653308E+00 0.25184672E+04</pdfrwt>
<pdfrwt beam="2">  1       -1 0.14629939E+00 0.25184672E+04</pdfrwt>
<totfact> 0.38681940E+00</totfact>
</mgrwt>
</event>
<event>
12    7  0.1611233E-007  0.1702317E+04  0.7818608E-02  0.8760044E-01
          2   -1    0    0  501    0  0.00000000000E+00  0.00000000000E+00  0.29650287974E+04  0.29650287974E+04  0.00000000000E+00 0. -1.
         -1   -1    0    0    0  501 -0.00000000000E+00 -0.00000000000E+00 -0.24433852653E+03  0.24433852653E+03  0.00000000000E+00 0.  1.
         24    2    1    2    0    0  0.18447085659E+03  0.24473650927E+03 -0.93812954754E+01  0.31693549628E+03  0.80216233983E+02 0.  0.
        254    2    1    2    0    0 -0.18447085659E+03 -0.24473650927E+03  0.27300715663E+04  0.28924318276E+04  0.90495616709E+03 0.  0.
         23    2    4    4    0    0 -0.25366700535E+03 -0.25844359576E+03  0.36118074199E+03  0.52044389319E+03  0.96282271348E+02 0.  0.
         23    2    4    4    0    0  0.69196148755E+02  0.13707086490E+02  0.23688908243E+04  0.23719879344E+04  0.98524272921E+02 0.  0.
          2    1    3    3  502    0  0.49479413427E+02  0.19636430448E+02 -0.11459866073E+02  0.54453009873E+02  0.00000000000E+00 0. -1.
         -1    1    3    3    0  502  0.13499144317E+03  0.22510007882E+03  0.20785705977E+01  0.26248248640E+03  0.00000000000E+00 0.  1.
         13    1    5    5    0    0 -0.21781253646E+03 -0.25805822958E+03  0.33775307578E+03  0.47761228114E+03  0.00000000000E+00 0.  1.
        -13    1    5    5    0    0 -0.35854468892E+02 -0.38536617741E+00  0.23427666213E+02  0.42831612050E+02  0.00000000000E+00 0. -1.
          3    1    6    6  503    0  0.42167072686E+02 -0.39906414880E+02  0.14310025146E+04  0.14321797306E+04  0.00000000000E+00 0. -1.
         -3    1    6    6    0  503  0.27029076069E+02  0.53613501370E+02  0.93788830970E+03  0.93980820382E+03  0.00000000000E+00 0.  1.
<mgrwt>
<rscale>  0 0.17023170E+04</rscale>
<asrwt>0</asrwt>
<pdfrwt beam="1">  1        2 0.45615825E+00 0.17023170E+04</pdfrwt>
<pdfrwt beam="2">  1       -1 0.37590545E-01 0.17023170E+04</pdfrwt>
<totfact> 0.13591981E+01</totfact>
</mgrwt>
</event>
<event>
12    7  0.1611233E-007  0.3767058E+04  0.7818608E-02  0.8053261E-01
          2   -1    0    0  501    0  0.00000000000E+00  0.00000000000E+00  0.19684721073E+04  0.19684721073E+04  0.00000000000E+00 0. -1.
         -1   -1    0    0    0  501 -0.00000000000E+00 -0.00000000000E+00 -0.18022514800E+04  0.18022514800E+04  0.00000000000E+00 0.  1.
         24    2    1    2    0    0 -0.86330996963E+03 -0.13034802023E+04  0.92064055397E+03  0.18161650269E+04  0.80694694046E+02 0.  0.
        254    2    1    2    0    0  0.86330996963E+03  0.13034802023E+04 -0.75441992666E+03  0.19545585605E+04  0.89821211256E+03 0.  0.
         23    2    4    4    0    0  0.62509412624E+03  0.23582695924E+03 -0.11521592621E+03  0.68440768876E+03  0.93713144348E+02 0.  0.
         23    2    4    4    0    0  0.23821584339E+03  0.10676532431E+04 -0.63920400045E+03  0.12701508717E+04  0.89840120578E+02 0.  0.
          4    1    3    3  502    0 -0.85402352951E+03 -0.12877021672E+04  0.89840609731E+03  0.17873630230E+04  0.00000000000E+00 0. -1.
         -3    1    3    3    0  502 -0.92864401253E+01 -0.15778035155E+02  0.22234456660E+02  0.28802003863E+02  0.00000000000E+00 0.  1.
         13    1    5    5    0    0  0.67203322319E+02  0.55665576410E+02 -0.18227660662E+01  0.87282675280E+02  0.00000000000E+00 0. -1.
        -13    1    5    5    0    0  0.55789080392E+03  0.18016138283E+03 -0.11339316014E+03  0.59712501348E+03  0.00000000000E+00 0.  1.
          4    1    6    6  503    0  0.10180999562E+02  0.46524405007E+02 -0.51350291162E+02  0.70035886628E+02  0.00000000000E+00 0. -1.
         -4    1    6    6    0  503  0.22803484383E+03  0.10211288381E+04 -0.58785370929E+03  0.12001149851E+04  0.00000000000E+00 0.  1.
<mgrwt>
<rscale>  0 0.37670581E+04</rscale>
<asrwt>0</asrwt>
<pdfrwt beam="1">  1        2 0.30284186E+00 0.37670581E+04</pdfrwt>
<pdfrwt beam="2">  1       -1 0.27726946E+00 0.37670581E+04</pdfrwt>
<totfact> 0.29495583E-01</totfact>
</mgrwt>
</event>
<event>
12    7  0.1611233E-007  0.1457752E+04  0.7818608E-02  0.8913044E-01
         -1   -1    0    0    0  501 -0.00000000000E+00  0.00000000000E+00  0.83933861122E+03  0.83933861122E+03  0.00000000000E+00 0.  1.
          2   -1    0    0  501    0  0.00000000000E+00 -0.00000000000E+00 -0.63295125349E+03  0.63295125349E+03  0.00000000000E+00 0. -1.
         24    2    1    2    0    0 -0.22764970127E+03 -0.10956027651E+03  0.43695345121E+03  0.51109252278E+03  0.80370440098E+02 0.  0.
        254    2    1    2    0    0  0.22764970127E+03  0.10956027651E+03 -0.23056609348E+03  0.96119734193E+03  0.89828267599E+03 0.  0.
         23    2    4    4    0    0  0.44355771132E+03  0.36481825604E+03 -0.92073185193E+02  0.58810756835E+03  0.86932372043E+02 0.  0.
         23    2    4    4    0    0 -0.21590801005E+03 -0.25525797953E+03 -0.13849290829E+03  0.37308977357E+03  0.90789804381E+02 0.  0.
          2    1    3    3  502    0 -0.46799617890E+02  0.77969330655E+01  0.56288685013E+02  0.73616658851E+02  0.00000000000E+00 0. -1.
         -1    1    3    3    0  502 -0.18085008338E+03 -0.11735720957E+03  0.38066476620E+03  0.43747586393E+03  0.00000000000E+00 0.  1.
         13    1    5    5    0    0  0.79984323106E+02  0.10265639038E+03 -0.43657946313E+02  0.13726559184E+03  0.00000000000E+00 0. -1.
        -13    1    5    5    0    0  0.36357338822E+03  0.26216186566E+03 -0.48415238880E+02  0.45084197651E+03  0.00000000000E+00 0.  1.
          1    1    6    6  503    0 -0.32395954674E+02 -0.57766680505E+02 -0.66934189419E+02  0.94163012744E+02  0.00000000000E+00 0. -1.
         -1    1    6    6    0  503 -0.18351205538E+03 -0.19749129903E+03 -0.71558718868E+02  0.27892676083E+03  0.00000000000E+00 0.  1.
<mgrwt>
<rscale>  0 0.14577523E+04</rscale>
<asrwt>0</asrwt>
<pdfrwt beam="1">  1        2 0.97377116E-01 0.14577523E+04</pdfrwt>
<pdfrwt beam="2">  1       -1 0.12912902E+00 0.14577523E+04</pdfrwt>
<totfact> 0.26547170E+01</totfact>
</mgrwt>
</event>
<event>
12    7  0.1611233E-007  0.3773898E+04  0.7818608E-02  0.8051780E-01
         -1   -1    0    0    0  501 -0.00000000000E+00  0.00000000000E+00  0.17143307995E+04  0.17143307995E+04  0.00000000000E+00 0.  1.
          2   -1    0    0  501    0  0.00000000000E+00 -0.00000000000E+00 -0.20769488204E+04  0.20769488204E+04  0.00000000000E+00 0. -1.
         24    2    1    2    0    0 -0.32304087121E+03  0.74597870454E+03  0.14064282503E+04  0.16264660053E+04  0.80694554231E+02 0.  0.
        254    2    1    2    0    0  0.32304087121E+03 -0.74597870454E+03 -0.17690462712E+04  0.21648136146E+04  0.94660110088E+03 0.  0.
         23    2    4    4    0    0 -0.51384142600E+02 -0.81893835889E+02  0.84940675043E+02  0.15823141436E+03  0.92061564986E+02 0.  0.
         23    2    4    4    0    0  0.37442501381E+03 -0.66408486865E+03 -0.18539869463E+04  0.20065822003E+04  0.88891651356E+02 0.  0.
          4    1    3    3  502    0 -0.24415197529E+03  0.46862609925E+03  0.89499890308E+03  0.10393477014E+04  0.00000000000E+00 0. -1.
         -3    1    3    3    0  502 -0.78888895919E+02  0.27735260529E+03  0.51142934722E+03  0.58711830389E+03  0.00000000000E+00 0.  1.
         13    1    5    5    0    0 -0.37693810592E+02 -0.54254129172E+02 -0.18848054349E+01  0.66089986993E+02  0.00000000000E+00 0.  1.
        -13    1    5    5    0    0 -0.13690332008E+02 -0.27639706717E+02  0.86825480478E+02  0.92141427372E+02  0.00000000000E+00 0. -1.
          3    1    6    6  503    0  0.31258168606E+03 -0.57718515503E+03 -0.16626064634E+04  0.17874871372E+04  0.00000000000E+00 0. -1.
         -3    1    6    6    0  503  0.61843327755E+02 -0.86899713616E+02 -0.19138048294E+03  0.21909506307E+03  0.00000000000E+00 0.  1.
<mgrwt>
<rscale>  0 0.37738984E+04</rscale>
<asrwt>0</asrwt>
<pdfrwt beam="1">  1        2 0.31953059E+00 0.37738984E+04</pdfrwt>
<pdfrwt beam="2">  1       -1 0.26374320E+00 0.37738984E+04</pdfrwt>
<totfact> 0.31385411E-01</totfact>
</mgrwt>
</event>
<event>
12    7  0.1772262E-007  0.3100898E+04  0.7818608E-02  0.8215491E-01
         -1   -1    0    0    0  501 -0.00000000000E+00  0.00000000000E+00  0.85192818449E+03  0.85192818449E+03  0.00000000000E+00 0.  1.
          2   -1    0    0  501    0  0.00000000000E+00 -0.00000000000E+00 -0.28217079509E+04  0.28217079509E+04  0.00000000000E+00 0. -1.
         24    2    1    2    0    0 -0.10713791346E+04 -0.56196372481E+02  0.19325621444E+03  0.10931172602E+04  0.80907958192E+02 0.  0.
        254    2    1    2    0    0  0.10713791346E+04  0.56196372481E+02 -0.21630359809E+04  0.25805188752E+04  0.91068201282E+03 0.  0.
         23    2    4    4    0    0  0.10751468865E+04 -0.23087375045E+03 -0.17011426839E+04  0.20276700017E+04  0.91190397640E+02 0.  0.
         23    2    4    4    0    0 -0.37677518147E+01  0.28707012293E+03 -0.46189329698E+03  0.55284887356E+03  0.99363010081E+02 0.  0.
          2    1    3    3  502    0 -0.81477575107E+02  0.43545886623E+01  0.35145152191E+02  0.88841090776E+02  0.00000000000E+00 0. -1.
         -3    1    3    3    0  502 -0.98990155953E+03 -0.60550961144E+02  0.15811106224E+03  0.10042761694E+04  0.00000000000E+00 0.  1.
         13    1    5    5    0    0  0.37807855789E+02 -0.16419520003E+02 -0.96408626648E+02  0.10485064563E+03  0.00000000000E+00 0.  1.
        -13    1    5    5    0    0  0.10373390307E+04 -0.21445423045E+03 -0.16047340572E+04  0.19228193560E+04  0.00000000000E+00 0. -1.
          2    1    6    6  503    0 -0.32401598715E+02  0.26593666083E+03 -0.41543635365E+03  0.49432735622E+03  0.00000000000E+00 0. -1.
         -2    1    6    6    0  503  0.28633846901E+02  0.21133462101E+02 -0.46456943324E+02  0.58521517339E+02  0.00000000000E+00 0.  1.
<mgrwt>
<rscale>  0 0.31008983E+04</rscale>
<asrwt>0</asrwt>
<pdfrwt beam="1">  1        2 0.43410891E+00 0.31008983E+04</pdfrwt>
<pdfrwt beam="2">  1       -1 0.13106588E+00 0.31008983E+04</pdfrwt>
<totfact> 0.10743552E+00</totfact>
</mgrwt>
</event>
<event>
12    7  0.1611233E-007  0.1182137E+04  0.7818608E-02  0.9128637E-01
          2   -1    0    0  501    0  0.00000000000E+00  0.00000000000E+00  0.44293961957E+03  0.44293961957E+03  0.00000000000E+00 0. -1.
         -1   -1    0    0    0  501 -0.00000000000E+00 -0.00000000000E+00 -0.78873465513E+03  0.78873465513E+03  0.00000000000E+00 0.  1.
         24    2    1    2    0    0 -0.71899831318E+02 -0.23203669636E+03 -0.10053750667E+03  0.27482749874E+03  0.80073401416E+02 0.  0.
        254    2    1    2    0    0  0.71899831318E+02  0.23203669636E+03 -0.24525752889E+03  0.95684677595E+03  0.89240903344E+03 0.  0.
         23    2    4    4    0    0  0.19974515450E+03  0.47158225936E+03 -0.37931655528E+03  0.64390922925E+03  0.91924383679E+02 0.  0.
         23    2    4    4    0    0 -0.12784532318E+03 -0.23954556300E+03  0.13405902639E+03  0.31293754671E+03  0.78940371006E+02 0.  0.
          4    1    3    3  502    0 -0.75032354384E+02 -0.22613060668E+03 -0.11065840241E+03  0.26269790160E+03  0.00000000000E+00 0. -1.
         -3    1    3    3    0  502  0.31325230666E+01 -0.59060896813E+01  0.10120895742E+02  0.12129597137E+02  0.00000000000E+00 0.  1.
         13    1    5    5    0    0  0.16508566381E+03  0.27819685574E+03 -0.22420761042E+03  0.39359346985E+03  0.00000000000E+00 0.  1.
        -13    1    5    5    0    0  0.34659490690E+02  0.19338540362E+03 -0.15510894486E+03  0.25031575940E+03  0.00000000000E+00 0. -1.
          2    1    6    6  503    0 -0.62235487837E+02 -0.43669018068E+02  0.40887013363E+02  0.86324891816E+02  0.00000000000E+00 0. -1.
         -2    1    6    6    0  503 -0.65609835342E+02 -0.19587654493E+03  0.93172013022E+02  0.22661265489E+03  0.00000000000E+00 0.  1.
<mgrwt>
<rscale>  0 0.11821368E+04</rscale>
<asrwt>0</asrwt>
<pdfrwt beam="1">  1        2 0.68144557E-01 0.11821368E+04</pdfrwt>
<pdfrwt beam="2">  1       -1 0.12134379E+00 0.11821368E+04</pdfrwt>
<totfact> 0.48232541E+01</totfact>
</mgrwt>
</event>
<event>
12    7  0.1611233E-007  0.1022912E+04  0.7818608E-02  0.9283766E-01
         -1   -1    0    0    0  501 -0.00000000000E+00  0.00000000000E+00  0.12750113811E+03  0.12750113811E+03  0.00000000000E+00 0.  1.
          2   -1    0    0  501    0  0.00000000000E+00 -0.00000000000E+00 -0.20516460094E+04  0.20516460094E+04  0.00000000000E+00 0. -1.
         24    2    1    2    0    0 -0.13510608940E+03  0.10208238743E+02 -0.45363413135E+03  0.48031356170E+03  0.80989683870E+02 0.  0.
        254    2    1    2    0    0  0.13510608940E+03 -0.10208238743E+02 -0.14705107399E+04  0.16988335858E+04  0.83980703287E+03 0.  0.
         23    2    4    4    0    0 -0.24621794959E+03  0.17273513866E+03 -0.10468982758E+04  0.10932989849E+04  0.94052983242E+02 0.  0.
         23    2    4    4    0    0  0.38132403899E+03 -0.18294337740E+03 -0.42361246414E+03  0.60553460092E+03  0.91369202085E+02 0.  0.
          2    1    3    3  502    0 -0.12985343374E+03  0.32987038628E+02 -0.39883115145E+03  0.42073310583E+03  0.00000000000E+00 0. -1.
         -1    1    3    3    0  502 -0.52526556527E+01 -0.22778799885E+02 -0.54802979905E+02  0.59580455873E+02  0.00000000000E+00 0.  1.
         13    1    5    5    0    0 -0.34282133047E+02  0.56266035211E+01 -0.52717947183E+02  0.63135610147E+02  0.00000000000E+00 0. -1.
        -13    1    5    5    0    0 -0.21193581655E+03  0.16710853514E+03 -0.99418032860E+03  0.10301633747E+04  0.00000000000E+00 0.  1.
          1    1    6    6  503    0  0.51683534587E+02 -0.96072557920E+00 -0.83090583953E+02  0.97857835061E+02  0.00000000000E+00 0. -1.
         -1    1    6    6    0  503  0.32964050440E+03 -0.18198265182E+03 -0.34052188019E+03  0.50767676586E+03  0.00000000000E+00 0.  1.
<mgrwt>
<rscale>  0 0.10229119E+04</rscale>
<asrwt>0</asrwt>
<pdfrwt beam="1">  1        2 0.31563782E+00 0.10229119E+04</pdfrwt>
<pdfrwt beam="2">  1       -1 0.19615561E-01 0.10229119E+04</pdfrwt>
<totfact> 0.15068052E+02</totfact>
</mgrwt>
</event>
<event>
12    7  0.1611233E-007  0.1913665E+04  0.7818608E-02  0.8648084E-01
         -1   -1    0    0    0  501 -0.00000000000E+00  0.00000000000E+00  0.28360035076E+03  0.28360035076E+03  0.00000000000E+00 0.  1.
          2   -1    0    0  501    0  0.00000000000E+00 -0.00000000000E+00 -0.32282336795E+04  0.32282336795E+04  0.00000000000E+00 0. -1.
         24    2    1    2    0    0 -0.51292936392E+03  0.19939671233E+03 -0.21717313209E+04  0.22418725153E+04  0.81974770884E+02 0.  0.
        254    2    1    2    0    0  0.51292936392E+03 -0.19939671233E+03 -0.77290200781E+03  0.12699615150E+04  0.84413811352E+03 0.  0.
         23    2    4    4    0    0 -0.13400339989E+03 -0.17985937673E+03  0.18083700486E+02  0.24390532797E+03  0.94108884843E+02 0.  0.
         23    2    4    4    0    0  0.64693276381E+03 -0.19537335602E+02 -0.79098570830E+03  0.10260561871E+04  0.90714937497E+02 0.  0.
          2    1    3    3  502    0 -0.48964142310E+03  0.18046896299E+03 -0.19710380327E+04  0.20389479385E+04  0.00000000000E+00 0. -1.
         -1    1    3    3    0  502 -0.23287940823E+02  0.18927749343E+02 -0.20069328827E+03  0.20292457672E+03  0.00000000000E+00 0.  1.
         13    1    5    5    0    0 -0.14593243330E+03 -0.17757228852E+03  0.11598878698E+02  0.23013632205E+03  0.00000000000E+00 0. -1.
        -13    1    5    5    0    0  0.11929033403E+02 -0.22870882107E+01  0.64848217882E+01  0.13769005920E+02  0.00000000000E+00 0.  1.
          3    1    6    6  503    0  0.32404512050E+03 -0.47487255411E+02 -0.43718007633E+03  0.54624783632E+03  0.00000000000E+00 0. -1.
         -3    1    6    6    0  503  0.32288764331E+03  0.27949919808E+02 -0.35380563197E+03  0.47980835073E+03  0.00000000000E+00 0.  1.
<mgrwt>
<rscale>  0 0.19136648E+04</rscale>
<asrwt>0</asrwt>
<pdfrwt beam="1">  1        2 0.49665133E+00 0.19136648E+04</pdfrwt>
<pdfrwt beam="2">  1       -1 0.43630824E-01 0.19136648E+04</pdfrwt>
<totfact> 0.68964400E+00</totfact>
</mgrwt>
</event>
<event>
12    7  0.2663474E-007  0.1863037E+04  0.7818608E-02  0.8673477E-01
          2   -1    0    0  501    0  0.00000000000E+00  0.00000000000E+00  0.17785672282E+04  0.17785672282E+04  0.00000000000E+00 0. -1.
         -1   -1    0    0    0  501 -0.00000000000E+00 -0.00000000000E+00 -0.48787979563E+03  0.48787979563E+03  0.00000000000E+00 0.  1.
         24    2    1    2    0    0 -0.72963229993E+02  0.32203160722E+03 -0.25872927228E+03  0.42703675651E+03  0.79947270706E+02 0.  0.
        254    2    1    2    0    0  0.72963229993E+02 -0.32203160722E+03  0.15494167048E+04  0.18394102673E+04  0.93472456760E+03 0.  0.
         23    2    4    4    0    0  0.37439230288E+03 -0.16827966532E+03  0.13962217753E+04  0.14581281136E+04  0.90635023114E+02 0.  0.
         23    2    4    4    0    0 -0.30142907289E+03 -0.15375194190E+03  0.15319492948E+03  0.38128215373E+03  0.86071183994E+02 0.  0.
          4    1    3    3  502    0  0.81450077919E+01  0.11953333859E+02 -0.29922639929E+02  0.33235338461E+02  0.00000000000E+00 0. -1.
         -3    1    3    3    0  502 -0.81108237785E+02  0.31007827336E+03 -0.22880663235E+03  0.39380141805E+03  0.00000000000E+00 0.  1.
         13    1    5    5    0    0  0.35427900837E+03 -0.17768714612E+03  0.13476195085E+04  0.14046938020E+04  0.00000000000E+00 0. -1.
        -13    1    5    5    0    0  0.20113294517E+02  0.94074807938E+01  0.48602266823E+02  0.53434311557E+02  0.00000000000E+00 0.  1.
          4    1    6    6  503    0 -0.27956938962E+03 -0.14749148063E+03  0.11409520818E+03  0.33605133091E+03  0.00000000000E+00 0. -1.
         -4    1    6    6    0  503 -0.21859683266E+02 -0.62604612710E+01  0.39099721301E+02  0.45230822827E+02  0.00000000000E+00 0.  1.
<mgrwt>
<rscale>  0 0.18630373E+04</rscale>
<asrwt>0</asrwt>
<pdfrwt beam="1">  1        2 0.27362572E+00 0.18630373E+04</pdfrwt>
<pdfrwt beam="2">  1       -1 0.75058431E-01 0.18630373E+04</pdfrwt>
<totfact> 0.16934959E+01</totfact>
</mgrwt>
</event>
<event>
12    7  0.1611233E-007  0.1416218E+04  0.7818608E-02  0.8942162E-01
         -1   -1    0    0    0  501 -0.00000000000E+00  0.00000000000E+00  0.29072861317E+03  0.29072861317E+03  0.00000000000E+00 0.  1.
          2   -1    0    0  501    0  0.00000000000E+00 -0.00000000000E+00 -0.17246957009E+04  0.17246957009E+04  0.00000000000E+00 0. -1.
         24    2    1    2    0    0 -0.14194257007E+03 -0.35154196861E+02 -0.98014612359E+03  0.99411857780E+03  0.78751586603E+02 0.  0.
        254    2    1    2    0    0  0.14194257007E+03  0.35154196861E+02 -0.45382096414E+03  0.10213057363E+04  0.90317685349E+03 0.  0.
         23    2    4    4    0    0  0.35569328312E+03  0.69303040681E+02 -0.62632377831E+03  0.72987826852E+03  0.95499677885E+02 0.  0.
         23    2    4    4    0    0 -0.21375071305E+03 -0.34148843820E+02  0.17250281417E+03  0.29142746775E+03  0.91198888137E+02 0.  0.
          2    1    3    3  502    0 -0.70566944814E+02 -0.55956434155E+02 -0.46570745668E+03  0.47433558947E+03  0.00000000000E+00 0. -1.
         -1    1    3    3    0  502 -0.71375625251E+02  0.20802237295E+02 -0.51443866690E+03  0.51978298833E+03  0.00000000000E+00 0.  1.
         13    1    5    5    0    0  0.17944349351E+03  0.66585950897E+02 -0.25499868507E+03  0.31883849456E+03  0.00000000000E+00 0.  1.
        -13    1    5    5    0    0  0.17624978961E+03  0.27170897841E+01 -0.37132509324E+03  0.41103977396E+03  0.00000000000E+00 0. -1.
          1    1    6    6  503    0 -0.79257817355E+01  0.94292761664E+01 -0.76052010007E+01  0.14476475655E+02  0.00000000000E+00 0. -1.
         -1    1    6    6    0  503 -0.20582493132E+03 -0.43578119987E+02  0.18010801517E+03  0.27695099209E+03  0.00000000000E+00 0.  1.
<mgrwt>
<rscale>  0 0.14162180E+04</rscale>
<asrwt>0</asrwt>
<pdfrwt beam="1">  1        2 0.26533780E+00 0.14162180E+04</pdfrwt>
<pdfrwt beam="2">  1       -1 0.44727479E-01 0.14162180E+04</pdfrwt>
<totfact> 0.52124311E+01</totfact>
</mgrwt>
</event>
<event>
12    7  0.1611233E-007  0.1647537E+04  0.7818608E-02  0.8791865E-01
          2   -1    0    0  501    0  0.00000000000E+00  0.00000000000E+00  0.48381187773E+03  0.48381187773E+03  0.00000000000E+00 0. -1.
         -1   -1    0    0    0  501 -0.00000000000E+00 -0.00000000000E+00 -0.14025997828E+04  0.14025997828E+04  0.00000000000E+00 0.  1.
         24    2    1    2    0    0 -0.46104587114E+03  0.31563515674E+03 -0.44305996541E+03  0.71844364487E+03  0.87580194404E+02 0.  0.
        254    2    1    2    0    0  0.46104587114E+03 -0.31563515674E+03 -0.47572793962E+03  0.11679680156E+04  0.90864919827E+03 0.  0.
         23    2    4    4    0    0  0.14908453594E+03 -0.12995699729E+03  0.26204903241E+03  0.34043797374E+03  0.90073850657E+02 0.  0.
         23    2    4    4    0    0  0.31196133519E+03 -0.18567815945E+03 -0.73777697203E+03  0.82753004189E+03  0.93246212869E+02 0.  0.
          2    1    3    3  502    0 -0.86150346971E+02  0.41612644231E+02 -0.40552066074E+02  0.10391325472E+03  0.00000000000E+00 0. -1.
         -1    1    3    3    0  502 -0.37489552417E+03  0.27402251251E+03 -0.40250789934E+03  0.61453039016E+03  0.00000000000E+00 0.  1.
         13    1    5    5    0    0  0.33013405755E+02 -0.55976377451E+02  0.32198240757E+02  0.72525626504E+02  0.00000000000E+00 0. -1.
        -13    1    5    5    0    0  0.11607113019E+03 -0.73980619835E+02  0.22985079165E+03  0.26791234723E+03  0.00000000000E+00 0.  1.
          4    1    6    6  503    0  0.36380684912E+02 -0.45614576609E+02 -0.66335418531E+02  0.88343825962E+02  0.00000000000E+00 0. -1.
         -4    1    6    6    0  503  0.27558065028E+03 -0.14006358284E+03 -0.67144155350E+03  0.73918621593E+03  0.00000000000E+00 0.  1.
<mgrwt>
<rscale>  0 0.16475369E+04</rscale>
<asrwt>0</asrwt>
<pdfrwt beam="1">  1        2 0.74432598E-01 0.16475369E+04</pdfrwt>
<pdfrwt beam="2">  1       -1 0.21578458E+00 0.16475369E+04</pdfrwt>
<totfact> 0.82077943E+00</totfact>
</mgrwt>
</event>
<event>
12    7  0.1611233E-007  0.1671965E+04  0.7818608E-02  0.8777517E-01
         -1   -1    0    0    0  501 -0.00000000000E+00  0.00000000000E+00  0.36050160174E+03  0.36050160174E+03  0.00000000000E+00 0.  1.
          2   -1    0    0  501    0  0.00000000000E+00 -0.00000000000E+00 -0.19385960404E+04  0.19385960404E+04  0.00000000000E+00 0. -1.
         24    2    1    2    0    0 -0.47540847761E+02 -0.54852472641E+03 -0.85063436448E+03  0.10163698120E+04  0.79304886922E+02 0.  0.
        254    2    1    2    0    0  0.47540847761E+02  0.54852472641E+03 -0.72746007420E+03  0.12827278301E+04  0.90169452641E+03 0.  0.
         23    2    4    4    0    0 -0.20595718376E+02  0.46838709645E+03 -0.92493414015E+03  0.10410053000E+04  0.91532591062E+02 0.  0.
         23    2    4    4    0    0  0.68136566137E+02  0.80137629954E+02  0.19747406595E+03  0.24172253016E+03  0.91483022917E+02 0.  0.
          4    1    3    3  502    0 -0.26343055583E+02 -0.45264329297E+03 -0.74513839730E+03  0.87224488441E+03  0.00000000000E+00 0. -1.
         -3    1    3    3    0  502 -0.21197792178E+02 -0.95881433434E+02 -0.10549596718E+03  0.14412492762E+03  0.00000000000E+00 0.  1.
         13    1    5    5    0    0 -0.54135409955E+01  0.68654915169E+02 -0.21946104046E+03  0.23001293895E+03  0.00000000000E+00 0.  1.
        -13    1    5    5    0    0 -0.15182177381E+02  0.39973218129E+03 -0.70547309969E+03  0.81099236103E+03  0.00000000000E+00 0. -1.
          3    1    6    6  503    0  0.68425802896E+02  0.47425103258E+02  0.19102524186E+03  0.20837915911E+03  0.00000000000E+00 0. -1.
         -3    1    6    6    0  503 -0.28923675915E+00  0.32712526696E+02  0.64488240864E+01  0.33343371048E+02  0.00000000000E+00 0.  1.
<mgrwt>
<rscale>  0 0.16719653E+04</rscale>
<asrwt>0</asrwt>
<pdfrwt beam="1">  1        2 0.29824555E+00 0.16719653E+04</pdfrwt>
<pdfrwt beam="2">  1       -1 0.55461784E-01 0.16719653E+04</pdfrwt>
<totfact> 0.25808418E+01</totfact>
</mgrwt>
</event>
<event>
12    7  0.1611233E-007  0.2293303E+04  0.7818608E-02  0.8480566E-01
          2   -1    0    0  501    0  0.00000000000E+00  0.00000000000E+00  0.18109795640E+04  0.18109795640E+04  0.00000000000E+00 0. -1.
         -1   -1    0    0    0  501 -0.00000000000E+00 -0.00000000000E+00 -0.72602156407E+03  0.72602156407E+03  0.00000000000E+00 0.  1.
         24    2    1    2    0    0 -0.67905413759E+03  0.64329586908E+03  0.18059572333E+03  0.95581523488E+03  0.77613471708E+02 0.  0.
        254    2    1    2    0    0  0.67905413759E+03 -0.64329586908E+03  0.90436227663E+03  0.15811858932E+04  0.89851744813E+03 0.  0.
         23    2    4    4    0    0  0.50617989374E+03  0.80225809013E+02  0.21520542870E+03  0.56311416277E+03  0.90166060728E+02 0.  0.
         23    2    4    4    0    0  0.17287424385E+03 -0.72352167809E+03  0.68915684793E+03  0.10180717305E+04  0.90353552501E+02 0.  0.
          2    1    3    3  502    0 -0.55838429772E+03  0.53299150036E+03  0.11869077782E+03  0.78099965694E+03  0.00000000000E+00 0. -1.
         -1    1    3    3    0  502 -0.12066983987E+03  0.11030436871E+03  0.61904945510E+02  0.17481557794E+03  0.00000000000E+00 0.  1.
         13    1    5    5    0    0  0.35977623762E+03  0.43256972158E+02  0.10865451950E+03  0.37830663674E+03  0.00000000000E+00 0. -1.
        -13    1    5    5    0    0  0.14640365613E+03  0.36968836855E+02  0.10655090920E+03  0.18480752603E+03  0.00000000000E+00 0.  1.
          3    1    6    6  503    0  0.12658574025E+03 -0.44054315474E+03  0.47572902045E+03  0.66062116354E+03  0.00000000000E+00 0. -1.
         -3    1    6    6    0  503  0.46288503599E+02 -0.28297852335E+03  0.21342782748E+03  0.35745056691E+03  0.00000000000E+00 0.  1.
<mgrwt>
<rscale>  0 0.22933035E+04</rscale>
<asrwt>0</asrwt>
<pdfrwt beam="1">  1        2 0.27861224E+00 0.22933035E+04</pdfrwt>
<pdfrwt beam="2">  1       -1 0.11169563E+00 0.22933035E+04</pdfrwt>
<totfact> 0.64664796E+00</totfact>
</mgrwt>
</event>
<event>
12    7  0.1611233E-007  0.1865918E+04  0.7818608E-02  0.8672010E-01
          2   -1    0    0  501    0  0.00000000000E+00  0.00000000000E+00  0.11608658734E+04  0.11608658734E+04  0.00000000000E+00 0. -1.
         -1   -1    0    0    0  501 -0.00000000000E+00 -0.00000000000E+00 -0.74979600789E+03  0.74979600789E+03  0.00000000000E+00 0.  1.
         24    2    1    2    0    0 -0.54375757465E+03 -0.44792276920E+03  0.52577716618E+02  0.71091432652E+03  0.79546566222E+02 0.  0.
        254    2    1    2    0    0  0.54375757465E+03  0.44792276920E+03  0.35849214884E+03  0.11997475547E+04  0.90253557666E+03 0.  0.
         23    2    4    4    0    0  0.21448478637E+03  0.21018939759E+03  0.63010775435E+03  0.70365235205E+03  0.88924372428E+02 0.  0.
         23    2    4    4    0    0  0.32927278829E+03  0.23773337161E+03 -0.27161560551E+03  0.49609520268E+03  0.86009812707E+02 0.  0.
          4    1    3    3  502    0 -0.23116967517E+03 -0.15608425216E+03 -0.77325679533E+01  0.27903674507E+03  0.00000000000E+00 0. -1.
         -3    1    3    3    0  502 -0.31258789948E+03 -0.29183851704E+03  0.60310284571E+02  0.43187758145E+03  0.00000000000E+00 0.  1.
         13    1    5    5    0    0  0.42215655141E+02  0.10887375946E+02  0.14772865521E+03  0.15402743932E+03  0.00000000000E+00 0. -1.
        -13    1    5    5    0    0  0.17226913123E+03  0.19930202164E+03  0.48237909914E+03  0.54962491273E+03  0.00000000000E+00 0.  1.
          2    1    6    6  503    0  0.25816597580E+03  0.14570310203E+03 -0.17046226470E+03  0.34195971793E+03  0.00000000000E+00 0.  1.
         -2    1    6    6    0  503  0.71106812488E+02  0.92030269588E+02 -0.10115334081E+03  0.15413548475E+03  0.00000000000E+00 0. -1.
<mgrwt>
<rscale>  0 0.18659181E+04</rscale>
<asrwt>0</asrwt>
<pdfrwt beam="1">  1        2 0.17859475E+00 0.18659181E+04</pdfrwt>
<pdfrwt beam="2">  1       -1 0.11535323E+00 0.18659181E+04</pdfrwt>
<totfact> 0.14592712E+01</totfact>
</mgrwt>
</event>
<event>
12    7  0.1611233E-007  0.1589851E+04  0.7818608E-02  0.8826807E-01
          2   -1    0    0  501    0  0.00000000000E+00  0.00000000000E+00  0.31258556471E+04  0.31258556471E+04  0.00000000000E+00 0. -1.
         -1   -1    0    0    0  501 -0.00000000000E+00 -0.00000000000E+00 -0.20215470674E+03  0.20215470674E+03  0.00000000000E+00 0.  1.
         24    2    1    2    0    0  0.52610999065E+03  0.23232653617E+03  0.11224504978E+04  0.12636103879E+04  0.77773714451E+02 0.  0.
        254    2    1    2    0    0 -0.52610999065E+03 -0.23232653617E+03  0.18012504425E+04  0.20643999659E+04  0.82853890734E+03 0.  0.
         23    2    4    4    0    0 -0.30402980494E+03 -0.52600882564E+03  0.93194130305E+03  0.11159920032E+04  0.88341111106E+02 0.  0.
         23    2    4    4    0    0 -0.22208018571E+03  0.29368228947E+03  0.86930913944E+03  0.94840796271E+03  0.90611190161E+02 0.  0.
          4    1    3    3  502    0  0.97171530698E+02  0.70667476526E+02  0.27575937147E+03  0.30079798798E+03  0.00000000000E+00 0. -1.
         -3    1    3    3    0  502  0.42893845995E+03  0.16165905964E+03  0.84669112637E+03  0.96281239993E+03  0.00000000000E+00 0.  1.
         13    1    5    5    0    0 -0.30958367845E+03 -0.51331849413E+03  0.91761751168E+03  0.10960656130E+04  0.00000000000E+00 0. -1.
        -13    1    5    5    0    0  0.55538735045E+01 -0.12690331510E+02  0.14323791377E+02  0.19926390143E+02  0.00000000000E+00 0.  1.
          3    1    6    6  503    0 -0.12106516944E+03  0.22887806290E+03  0.60956861521E+03  0.66228078605E+03  0.00000000000E+00 0. -1.
         -3    1    6    6    0  503 -0.10101501627E+03  0.64804226579E+02  0.25974052423E+03  0.28612717666E+03  0.00000000000E+00 0.  1.
<mgrwt>
<rscale>  0 0.15898509E+04</rscale>
<asrwt>0</asrwt>
<pdfrwt beam="1">  1        2 0.48090083E+00 0.15898509E+04</pdfrwt>
<pdfrwt beam="2">  1       -1 0.31100726E-01 0.15898509E+04</pdfrwt>
<totfact> 0.15269846E+01</totfact>
</mgrwt>
</event>
<event>
12    7  0.1611233E-007  0.1541064E+04  0.7818608E-02  0.8857596E-01
         -3   -1    0    0    0  501 -0.00000000000E+00  0.00000000000E+00  0.57201677486E+03  0.57201677486E+03  0.00000000000E+00 0.  1.
          4   -1    0    0  501    0  0.00000000000E+00 -0.00000000000E+00 -0.10379410265E+04  0.10379410265E+04  0.00000000000E+00 0. -1.
         24    2    1    2    0    0  0.64167062598E+02  0.19749608347E+03  0.31229168840E+03  0.38462380487E+03  0.85365436366E+02 0.  0.
        254    2    1    2    0    0 -0.64167062598E+02 -0.19749608347E+03 -0.77821594007E+03  0.12253339965E+04  0.92341823608E+03 0.  0.
         23    2    4    4    0    0 -0.37307206122E+03  0.20207730324E+03 -0.35544737994E+03  0.55944760494E+03  0.81368196565E+02 0.  0.
         23    2    4    4    0    0  0.30890499862E+03 -0.39957338671E+03 -0.42276856013E+03  0.66588639158E+03  0.97929778534E+02 0.  0.
          4    1    3    3  502    0  0.83409593888E+01  0.28698169996E+01 -0.35056668978E+01  0.94919520403E+01  0.00000000000E+00 0. -1.
         -3    1    3    3    0  502  0.55826103209E+02  0.19462626647E+03  0.31579735529E+03  0.37513185283E+03  0.00000000000E+00 0.  1.
         13    1    5    5    0    0 -0.12776445353E+03  0.40097322537E+02 -0.14842617897E+03  0.19990468095E+03  0.00000000000E+00 0. -1.
        -13    1    5    5    0    0 -0.24530760769E+03  0.16197998070E+03 -0.20702120098E+03  0.35954292399E+03  0.00000000000E+00 0.  1.
          3    1    6    6  503    0  0.14380937585E+02 -0.43801737622E+02 -0.73777425442E+02  0.86997195870E+02  0.00000000000E+00 0. -1.
         -3    1    6    6    0  503  0.29452406103E+03 -0.35577164909E+03 -0.34899113468E+03  0.57888919571E+03  0.00000000000E+00 0.  1.
<mgrwt>
<rscale>  0 0.15410641E+04</rscale>
<asrwt>0</asrwt>
<pdfrwt beam="1">  1        4 0.15968323E+00 0.15410641E+04</pdfrwt>
<pdfrwt beam="2">  1       -3 0.88002581E-01 0.15410641E+04</pdfrwt>
<totfact> 0.64988773E-01</totfact>
</mgrwt>
</event>
<event>
12    7  0.1611233E-007  0.1813460E+04  0.7818608E-02  0.8699174E-01
         -1   -1    0    0    0  501 -0.00000000000E+00  0.00000000000E+00  0.84567498810E+03  0.84567498810E+03  0.00000000000E+00 0.  1.
          2   -1    0    0  501    0  0.00000000000E+00 -0.00000000000E+00 -0.97219316940E+03  0.97219316940E+03  0.00000000000E+00 0. -1.
         24    2    1    2    0    0 -0.45632728578E+03 -0.22434854686E+03 -0.50373798008E+03  0.72059276237E+03  0.83277334185E+02 0.  0.
        254    2    1    2    0    0  0.45632728578E+03  0.22434854686E+03  0.37721979877E+03  0.10972753951E+04  0.89618728731E+03 0.  0.
         23    2    4    4    0    0 -0.10866151817E+02 -0.28417468769E+03 -0.12819670249E+02  0.29919375210E+03  0.92082739798E+02 0.  0.
         23    2    4    4    0    0  0.46719343760E+03  0.50852323455E+03  0.39003946902E+03  0.79808164302E+03  0.89095080255E+02 0.  0.
          2    1    3    3  502    0 -0.26320738026E+03 -0.11912624156E+03 -0.22892266261E+03  0.36861195302E+03  0.00000000000E+00 0. -1.
         -1    1    3    3    0  502 -0.19311990552E+03 -0.10522230530E+03 -0.27481531747E+03  0.35198080936E+03  0.00000000000E+00 0.  1.
         13    1    5    5    0    0 -0.14517078278E+02 -0.10588218736E+03 -0.48445173608E+02  0.11734018070E+03  0.00000000000E+00 0.  1.
        -13    1    5    5    0    0  0.36509264610E+01 -0.17829250034E+03  0.35625503359E+02  0.18185357140E+03  0.00000000000E+00 0. -1.
          3    1    6    6  503    0  0.83697682097E+02  0.76858778381E+02  0.29671408480E+02  0.11744345994E+03  0.00000000000E+00 0. -1.
         -3    1    6    6    0  503  0.38349575550E+03  0.43166445617E+03  0.36036806054E+03  0.68063818308E+03  0.00000000000E+00 0.  1.
<mgrwt>
<rscale>  0 0.18134602E+04</rscale>
<asrwt>0</asrwt>
<pdfrwt beam="1">  1        2 0.14956818E+00 0.18134602E+04</pdfrwt>
<pdfrwt beam="2">  1       -1 0.13010384E+00 0.18134602E+04</pdfrwt>
<totfact> 0.14299504E+01</totfact>
</mgrwt>
</event>
<event>
12    7  0.1611233E-007  0.2142308E+04  0.7818608E-02  0.8542832E-01
          2   -1    0    0  501    0  0.00000000000E+00  0.00000000000E+00  0.83920549433E+03  0.83920549433E+03  0.00000000000E+00 0. -1.
         -1   -1    0    0    0  501 -0.00000000000E+00 -0.00000000000E+00 -0.13672109991E+04  0.13672109991E+04  0.00000000000E+00 0.  1.
         24    2    1    2    0    0  0.60362466315E+03 -0.36949509408E+03 -0.75433203261E+03  0.10374882297E+04  0.80471441418E+02 0.  0.
        254    2    1    2    0    0 -0.60362466315E+03  0.36949509408E+03  0.22632652781E+03  0.11689282637E+04  0.90237477250E+03 0.  0.
         23    2    4    4    0    0 -0.12736844050E+03  0.59248874233E+03  0.12807671589E+03  0.62632707888E+03  0.92824216456E+02 0.  0.
         23    2    4    4    0    0 -0.47625622265E+03 -0.22299364826E+03  0.98249811922E+02  0.54260118485E+03  0.90646916563E+02 0.  0.
          2    1    3    3  502    0  0.26961616387E+03 -0.13165099809E+03 -0.35949724966E+03  0.46825541495E+03  0.00000000000E+00 0. -1.
         -1    1    3    3    0  502  0.33400849928E+03 -0.23784409598E+03 -0.39483478295E+03  0.56923281477E+03  0.00000000000E+00 0.  1.
         13    1    5    5    0    0 -0.39679261756E+02  0.39506204291E+03  0.85218668020E+02  0.40609196365E+03  0.00000000000E+00 0.  1.
        -13    1    5    5    0    0 -0.87689178748E+02  0.19742669943E+03  0.42858047867E+02  0.22023511524E+03  0.00000000000E+00 0. -1.
          4    1    6    6  503    0 -0.18150394266E+02  0.88575006510E+01  0.36335213422E+01  0.20520589834E+02  0.00000000000E+00 0. -1.
         -4    1    6    6    0  503 -0.45810582838E+03 -0.23185114891E+03  0.94616290579E+02  0.52208059501E+03  0.00000000000E+00 0.  1.
<mgrwt>
<rscale>  0 0.21423081E+04</rscale>
<asrwt>0</asrwt>
<pdfrwt beam="1">  1        2 0.12910854E+00 0.21423081E+04</pdfrwt>
<pdfrwt beam="2">  1       -1 0.21034015E+00 0.21423081E+04</pdfrwt>
<totfact> 0.43271446E+00</totfact>
</mgrwt>
</event>
<event>
12    7  0.1611233E-007  0.2424973E+04  0.7818608E-02  0.8430213E-01
          2   -1    0    0  501    0  0.00000000000E+00  0.00000000000E+00  0.32726184075E+04  0.32726184075E+04  0.00000000000E+00 0. -1.
         -1   -1    0    0    0  501 -0.00000000000E+00 -0.00000000000E+00 -0.44921941493E+03  0.44921941493E+03  0.00000000000E+00 0.  1.
         24    2    1    2    0    0 -0.23767046861E+03 -0.20270914999E+03 -0.30468664045E+03  0.44532394192E+03  0.88888768938E+02 0.  0.
        254    2    1    2    0    0  0.23767046861E+03  0.20270914999E+03  0.31280856330E+04  0.32765138805E+04  0.92360447728E+03 0.  0.
         23    2    4    4    0    0  0.73468363452E+02  0.17102653519E+03  0.30711439813E+04  0.30782433224E+04  0.94915342813E+02 0.  0.
         23    2    4    4    0    0  0.16420210516E+03  0.31682614803E+02  0.56941651730E+02  0.19827055804E+03  0.90015237950E+02 0.  0.
          4    1    3    3  502    0 -0.88621810754E+02 -0.31298742853E+02 -0.60260543470E+02  0.11164573321E+03  0.00000000000E+00 0. -1.
         -3    1    3    3    0  502 -0.14904865786E+03 -0.17141040714E+03 -0.24442609698E+03  0.33367820871E+03  0.00000000000E+00 0.  1.
         13    1    5    5    0    0  0.95740397267E+02  0.14594253724E+03  0.26701296498E+04  0.26758284315E+04  0.00000000000E+00 0. -1.
        -13    1    5    5    0    0 -0.22272033815E+02  0.25083997945E+02  0.40101433146E+03  0.40241489098E+03  0.00000000000E+00 0.  1.
          2    1    6    6  503    0  0.14922483321E+03  0.55638727085E+02  0.36474446134E+02  0.16338330398E+03  0.00000000000E+00 0. -1.
         -2    1    6    6    0  503  0.14977271945E+02 -0.23956112282E+02  0.20467205596E+02  0.34887254055E+02  0.00000000000E+00 0.  1.
<mgrwt>
<rscale>  0 0.24249732E+04</rscale>
<asrwt>0</asrwt>
<pdfrwt beam="1">  1        2 0.50347974E+00 0.24249732E+04</pdfrwt>
<pdfrwt beam="2">  1       -1 0.69110682E-01 0.24249732E+04</pdfrwt>
<totfact> 0.25138993E+00</totfact>
</mgrwt>
</event>
<event>
12    7  0.1611233E-007  0.2355061E+04  0.7818608E-02  0.8456522E-01
          2   -1    0    0  501    0  0.00000000000E+00  0.00000000000E+00  0.17860321029E+04  0.17860321029E+04  0.00000000000E+00 0. -1.
         -1   -1    0    0    0  501 -0.00000000000E+00 -0.00000000000E+00 -0.77634567368E+03  0.77634567368E+03  0.00000000000E+00 0.  1.
         24    2    1    2    0    0 -0.85534953030E+03 -0.38843179550E+03  0.81385801203E+03  0.12454856364E+04  0.79796791926E+02 0.  0.
        254    2    1    2    0    0  0.85534953030E+03  0.38843179550E+03  0.19582841720E+03  0.13168921402E+04  0.90186144233E+03 0.  0.
         23    2    4    4    0    0 -0.70845108909E+02 -0.69379428953E+02 -0.17080905828E+03  0.21675198532E+03  0.89292520007E+02 0.  0.
         23    2    4    4    0    0  0.92619463921E+03  0.45781122445E+03  0.36663747548E+03  0.11001401549E+04  0.91965727297E+02 0.  0.
          2    1    3    3  502    0 -0.43132596430E+03 -0.15785672379E+03  0.42303575759E+03  0.62443581329E+03  0.00000000000E+00 0. -1.
         -1    1    3    3    0  502 -0.42402356600E+03 -0.23057507171E+03  0.39082225445E+03  0.62104982311E+03  0.00000000000E+00 0.  1.
         13    1    5    5    0    0 -0.83686429257E+02 -0.80364397046E+02 -0.15496570892E+03  0.19358777259E+03  0.00000000000E+00 0.  1.
        -13    1    5    5    0    0  0.12841320348E+02  0.10984968093E+02 -0.15843349360E+02  0.23164212727E+02  0.00000000000E+00 0. -1.
          1    1    6    6  503    0  0.38640276060E+02  0.40742851310E+02  0.27211096521E+02  0.62397873688E+02  0.00000000000E+00 0. -1.
         -1    1    6    6    0  503  0.88755436315E+03  0.41706837314E+03  0.33942637896E+03  0.10377422812E+04  0.00000000000E+00 0.  1.
<mgrwt>
<rscale>  0 0.23550612E+04</rscale>
<asrwt>0</asrwt>
<pdfrwt beam="1">  1        2 0.27477417E+00 0.23550612E+04</pdfrwt>
<pdfrwt beam="2">  1       -1 0.11943780E+00 0.23550612E+04</pdfrwt>
<totfact> 0.56523507E+00</totfact>
</mgrwt>
</event>
<event>
12    7  0.1611233E-007  0.1469477E+04  0.7818608E-02  0.8905008E-01
          2   -1    0    0  501    0  0.00000000000E+00  0.00000000000E+00  0.12990342233E+04  0.12990342233E+04  0.00000000000E+00 0. -1.
         -1   -1    0    0    0  501 -0.00000000000E+00 -0.00000000000E+00 -0.41557097836E+03  0.41557097836E+03  0.00000000000E+00 0.  1.
         24    2    1    2    0    0  0.81652614767E+02  0.41273420260E+03  0.74992683321E+02  0.43480538394E+03  0.80094618123E+02 0.  0.
        254    2    1    2    0    0 -0.81652614767E+02 -0.41273420260E+03  0.80847056159E+03  0.12797998177E+04  0.89846883802E+03 0.  0.
         23    2    4    4    0    0 -0.36401854716E+03  0.95244693277E+02  0.44013457276E+03  0.58575277661E+03  0.88356204588E+02 0.  0.
         23    2    4    4    0    0  0.28236593239E+03 -0.50797889588E+03  0.36833598883E+03  0.69404704108E+03  0.90867024449E+02 0.  0.
          2    1    3    3  502    0  0.72160233629E+02  0.26064222975E+03  0.80947419193E+02  0.28230117945E+03  0.00000000000E+00 0. -1.
         -1    1    3    3    0  502  0.94923811379E+01  0.15209197286E+03 -0.59547358714E+01  0.15250420449E+03  0.00000000000E+00 0.  1.
         13    1    5    5    0    0 -0.20242164728E+01 -0.85342910665E+00  0.30994989171E+02  0.31072739617E+02  0.00000000000E+00 0.  1.
        -13    1    5    5    0    0 -0.36199433069E+03  0.96098122384E+02  0.40913958359E+03  0.55468003699E+03  0.00000000000E+00 0. -1.
          3    1    6    6  503    0  0.28683234932E+03 -0.49568646444E+03  0.36842848674E+03  0.68096800034E+03  0.00000000000E+00 0. -1.
         -3    1    6    6    0  503 -0.44664169269E+01 -0.12292431443E+02 -0.92497909579E-01  0.13079040745E+02  0.00000000000E+00 0.  1.
<mgrwt>
<rscale>  0 0.14694774E+04</rscale>
<asrwt>0</asrwt>
<pdfrwt beam="1">  1        2 0.19985142E+00 0.14694774E+04</pdfrwt>
<pdfrwt beam="2">  1       -1 0.63933997E-01 0.14694774E+04</pdfrwt>
<totfact> 0.45335879E+01</totfact>
</mgrwt>
</event>
<event>
12    7  0.1611233E-007  0.1747882E+04  0.7818608E-02  0.8734517E-01
         -1   -1    0    0    0  501 -0.00000000000E+00  0.00000000000E+00  0.45004681428E+03  0.45004681428E+03  0.00000000000E+00 0.  1.
          2   -1    0    0  501    0  0.00000000000E+00 -0.00000000000E+00 -0.16970965871E+04  0.16970965871E+04  0.00000000000E+00 0. -1.
         24    2    1    2    0    0  0.17057454509E+03  0.39330348380E+03 -0.10403868003E+04  0.11280020914E+04  0.78744638629E+02 0.  0.
        254    2    1    2    0    0 -0.17057454509E+03 -0.39330348380E+03 -0.20666297247E+03  0.10191413100E+04  0.90119704819E+03 0.  0.
         23    2    4    4    0    0 -0.11886949123E+03  0.18371418519E+03  0.19476314925E+03  0.30707168355E+03  0.92084074375E+02 0.  0.
         23    2    4    4    0    0 -0.51705053866E+02 -0.57701766899E+03 -0.40142612172E+03  0.71206962641E+03  0.10137760468E+03 0.  0.
          2    1    3    3  502    0  0.14674637135E+03  0.31796591041E+03 -0.91578325055E+03  0.98045692393E+03  0.00000000000E+00 0. -1.
         -1    1    3    3    0  502  0.23828173742E+02  0.75337573389E+02 -0.12460354975E+03  0.14754516745E+03  0.00000000000E+00 0.  1.
         13    1    5    5    0    0 -0.87666773227E+02  0.17954536138E+03  0.18907042505E+03  0.27508112540E+03  0.00000000000E+00 0. -1.
        -13    1    5    5    0    0 -0.31202718000E+02  0.41688238061E+01  0.56927241979E+01  0.31990558158E+02  0.00000000000E+00 0.  1.
          2    1    6    6  503    0 -0.33639529970E+02 -0.97369220999E+02 -0.10919357860E+03  0.15011868898E+03  0.00000000000E+00 0. -1.
         -2    1    6    6    0  503 -0.18065523896E+02 -0.47964844799E+03 -0.29223254312E+03  0.56195093742E+03  0.00000000000E+00 0.  1.
<mgrwt>
<rscale>  0 0.17478820E+04</rscale>
<asrwt>0</asrwt>
<pdfrwt beam="1">  1        2 0.26109178E+00 0.17478820E+04</pdfrwt>
<pdfrwt beam="2">  1       -1 0.69237971E-01 0.17478820E+04</pdfrwt>
<totfact> 0.22429563E+01</totfact>
</mgrwt>
</event>
<event>
12    7  0.1611233E-007  0.1406950E+04  0.7818608E-02  0.8948803E-01
          2   -1    0    0  501    0  0.00000000000E+00  0.00000000000E+00  0.10212603850E+04  0.10212603850E+04  0.00000000000E+00 0. -1.
         -1   -1    0    0    0  501 -0.00000000000E+00 -0.00000000000E+00 -0.48457461261E+03  0.48457461261E+03  0.00000000000E+00 0.  1.
         24    2    1    2    0    0  0.31599243389E+03 -0.20278088827E+03  0.37391343093E+02  0.38555050666E+03  0.79245023371E+02 0.  0.
        254    2    1    2    0    0 -0.31599243389E+03  0.20278088827E+03  0.49929442928E+03  0.11202844909E+04  0.92993069989E+03 0.  0.
         23    2    4    4    0    0 -0.33886286081E+03  0.93239502669E+02 -0.19475230693E+03  0.41142241697E+03  0.88421156064E+02 0.  0.
         23    2    4    4    0    0  0.22870426922E+02  0.10954138560E+03  0.69404673621E+03  0.70886207396E+03  0.90896624077E+02 0.  0.
          4    1    3    3  502    0  0.82398191030E+02 -0.40412431259E+02  0.42236905164E+02  0.10102763307E+03  0.00000000000E+00 0. -1.
         -3    1    3    3    0  502  0.23359424286E+03 -0.16236845701E+03 -0.48455620718E+01  0.28452287359E+03  0.00000000000E+00 0.  1.
         13    1    5    5    0    0 -0.32743817320E+03  0.10075109396E+03 -0.16841208184E+03  0.38174490110E+03  0.00000000000E+00 0. -1.
        -13    1    5    5    0    0 -0.11424687606E+02 -0.75115912929E+01 -0.26340225092E+02  0.29677515876E+02  0.00000000000E+00 0.  1.
          2    1    6    6  503    0  0.40873490925E+02  0.62793150548E+02  0.57272190439E+03  0.57760194060E+03  0.00000000000E+00 0. -1.
         -2    1    6    6    0  503 -0.18003064003E+02  0.46748235049E+02  0.12132483182E+03  0.13126013336E+03  0.00000000000E+00 0.  1.
<mgrwt>
<rscale>  0 0.14069497E+04</rscale>
<asrwt>0</asrwt>
<pdfrwt beam="1">  1        2 0.15711698E+00 0.14069497E+04</pdfrwt>
<pdfrwt beam="2">  1       -1 0.74549941E-01 0.14069497E+04</pdfrwt>
<totfact> 0.49060596E+01</totfact>
</mgrwt>
</event>
<event>
12    7  0.1611233E-007  0.1756256E+04  0.7818608E-02  0.8729914E-01
          2   -1    0    0  501    0  0.00000000000E+00  0.00000000000E+00  0.12147691311E+04  0.12147691311E+04  0.00000000000E+00 0. -1.
         -1   -1    0    0    0  501 -0.00000000000E+00 -0.00000000000E+00 -0.63477792204E+03  0.63477792204E+03  0.00000000000E+00 0.  1.
         24    2    1    2    0    0  0.32212593353E+03 -0.26234609841E+03 -0.31484440656E+03  0.52810824218E+03  0.84739145060E+02 0.  0.
        254    2    1    2    0    0 -0.32212593353E+03  0.26234609841E+03  0.89483561565E+03  0.13214388110E+04  0.87913546155E+03 0.  0.
         23    2    4    4    0    0 -0.49403140723E+03  0.46009094218E+02  0.89877229113E+03  0.10307920743E+04  0.92502978467E+02 0.  0.
         23    2    4    4    0    0  0.17190547371E+03  0.21633700420E+03 -0.39366754855E+01  0.29064673670E+03  0.90037974581E+02 0.  0.
          4    1    3    3  502    0  0.16760847442E+03 -0.17293927527E+03 -0.14176258430E+03  0.27945880543E+03  0.00000000000E+00 0. -1.
         -3    1    3    3    0  502  0.15451745911E+03 -0.89406823148E+02 -0.17308182226E+03  0.24864943674E+03  0.00000000000E+00 0.  1.
         13    1    5    5    0    0 -0.10055665769E+03 -0.25431656830E+02  0.15885417621E+03  0.18971836989E+03  0.00000000000E+00 0.  1.
        -13    1    5    5    0    0 -0.39347474955E+03  0.71440751047E+02  0.73991811492E+03  0.84107370440E+03  0.00000000000E+00 0. -1.
          1    1    6    6  503    0  0.14099293507E+03  0.20691884938E+03  0.18862742506E+02  0.25109803070E+03  0.00000000000E+00 0. -1.
         -1    1    6    6    0  503  0.30912538641E+02  0.94181548112E+01 -0.22799417991E+02  0.39548705997E+02  0.00000000000E+00 0.  1.
<mgrwt>
<rscale>  0 0.17562558E+04</rscale>
<asrwt>0</asrwt>
<pdfrwt beam="1">  1        2 0.18688756E+00 0.17562558E+04</pdfrwt>
<pdfrwt beam="2">  1       -1 0.97658142E-01 0.17562558E+04</pdfrwt>
<totfact> 0.20171369E+01</totfact>
</mgrwt>
</event>
<event>
12    7  0.1611233E-007  0.2512632E+04  0.7818608E-02  0.8398499E-01
         -1   -1    0    0    0  501 -0.00000000000E+00  0.00000000000E+00  0.26046451457E+04  0.26046451457E+04  0.00000000000E+00 0.  1.
          2   -1    0    0  501    0  0.00000000000E+00 -0.00000000000E+00 -0.60596730108E+03  0.60596730108E+03  0.00000000000E+00 0. -1.
         24    2    1    2    0    0 -0.86136452163E+03  0.35828569264E+03  0.15953333580E+04  0.18500096796E+04  0.84438232115E+02 0.  0.
        254    2    1    2    0    0  0.86136452163E+03 -0.35828569264E+03  0.40334448665E+03  0.13606027671E+04  0.90456378347E+03 0.  0.
         23    2    4    4    0    0 -0.20390003199E+02  0.13041317219E+02  0.38790576428E+03  0.39931818251E+03  0.91642243199E+02 0.  0.
         23    2    4    4    0    0  0.88175452483E+03 -0.37132700986E+03  0.15438722376E+02  0.96128458463E+03  0.91950574713E+02 0.  0.
          4    1    3    3  502    0 -0.37276465345E+03  0.18278558959E+03  0.64369244247E+03  0.76596606917E+03  0.00000000000E+00 0. -1.
         -3    1    3    3    0  502 -0.48859986817E+03  0.17550010305E+03  0.95164091548E+03  0.10840436105E+04  0.00000000000E+00 0.  1.
         13    1    5    5    0    0 -0.34273909810E+02  0.36526119243E+02  0.12009964356E+03  0.13012602608E+03  0.00000000000E+00 0. -1.
        -13    1    5    5    0    0  0.13883906610E+02 -0.23484802025E+02  0.26780612072E+03  0.26919215643E+03  0.00000000000E+00 0.  1.
          2    1    6    6  503    0  0.39389669355E+03 -0.15840990082E+03  0.52027701272E+02  0.42773260755E+03  0.00000000000E+00 0. -1.
         -2    1    6    6    0  503  0.48785783128E+03 -0.21291710904E+03 -0.36588978896E+02  0.53355197707E+03  0.00000000000E+00 0.  1.
<mgrwt>
<rscale>  0 0.25126319E+04</rscale>
<asrwt>0</asrwt>
<pdfrwt beam="1">  1        2 0.93225740E-01 0.25126319E+04</pdfrwt>
<pdfrwt beam="2">  1       -1 0.40071463E+00 0.25126319E+04</pdfrwt>
<totfact> 0.35239076E-01</totfact>
</mgrwt>
</event>
<event>
12    7  0.1611233E-007  0.2246678E+04  0.7818608E-02  0.8499247E-01
          2   -1    0    0  501    0  0.00000000000E+00  0.00000000000E+00  0.16174674573E+04  0.16174674573E+04  0.00000000000E+00 0. -1.
         -1   -1    0    0    0  501 -0.00000000000E+00 -0.00000000000E+00 -0.78016434171E+03  0.78016434171E+03  0.00000000000E+00 0.  1.
         24    2    1    2    0    0  0.56241640830E+02  0.72499306877E+03  0.99167311443E+03  0.12324148364E+04  0.81564031859E+02 0.  0.
        254    2    1    2    0    0 -0.56241640830E+02 -0.72499306877E+03 -0.15436999879E+03  0.11652169626E+04  0.89728613135E+03 0.  0.
         23    2    4    4    0    0  0.17964874229E+03 -0.29165531862E+03 -0.45765182836E+03  0.57913144087E+03  0.92798352997E+02 0.  0.
         23    2    4    4    0    0 -0.23589038312E+03 -0.43333775015E+03  0.30328182957E+03  0.58608552174E+03  0.89947162773E+02 0.  0.
          4    1    3    3  502    0  0.22829828336E+02  0.63214225023E+03  0.87289354253E+03  0.10779926540E+04  0.00000000000E+00 0. -1.
         -3    1    3    3    0  502  0.33411812495E+02  0.92850818544E+02  0.11877957190E+03  0.15442218240E+03  0.00000000000E+00 0.  1.
         13    1    5    5    0    0  0.19098569229E+02 -0.34459859469E+01 -0.56519941771E+02  0.59758965717E+02  0.00000000000E+00 0.  1.
        -13    1    5    5    0    0  0.16055017306E+03 -0.28820933267E+03 -0.40113188659E+03  0.51937247516E+03  0.00000000000E+00 0. -1.
          3    1    6    6  503    0 -0.12008874859E+03 -0.27814719090E+03  0.22432071054E+03  0.37697075287E+03  0.00000000000E+00 0. -1.
         -3    1    6    6    0  503 -0.11580163453E+03 -0.15519055925E+03  0.78961119035E+02  0.20911476887E+03  0.00000000000E+00 0.  1.
<mgrwt>
<rscale>  0 0.22466779E+04</rscale>
<asrwt>0</asrwt>
<pdfrwt beam="1">  1        2 0.24884115E+00 0.22466779E+04</pdfrwt>
<pdfrwt beam="2">  1       -1 0.12002528E+00 0.22466779E+04</pdfrwt>
<totfact> 0.69967968E+00</totfact>
</mgrwt>
</event>
<event>
12    7  0.1611233E-007  0.1581703E+04  0.7818608E-02  0.8831868E-01
          2   -1    0    0  501    0  0.00000000000E+00  0.00000000000E+00  0.51168035776E+03  0.51168035776E+03  0.00000000000E+00 0. -1.
         -1   -1    0    0    0  501 -0.00000000000E+00 -0.00000000000E+00 -0.12223377653E+04  0.12223377653E+04  0.00000000000E+00 0.  1.
         24    2    1    2    0    0 -0.15269758728E+03  0.49438434698E+02 -0.77740481581E+03  0.79776454445E+03  0.79431157354E+02 0.  0.
        254    2    1    2    0    0  0.15269758728E+03 -0.49438434698E+02  0.66747408275E+02  0.93625357860E+03  0.91997545344E+03 0.  0.
         23    2    4    4    0    0  0.50419854774E+02  0.88657028224E+02  0.46968709405E+03  0.48968739006E+03  0.93731228832E+02 0.  0.
         23    2    4    4    0    0  0.10227773251E+03 -0.13809546292E+03 -0.40293968577E+03  0.44656618854E+03  0.86774875004E+02 0.  0.
          2    1    3    3  502    0 -0.47089287357E+02  0.67381557472E+01 -0.98683570360E+02  0.10955022038E+03  0.00000000000E+00 0. -1.
         -1    1    3    3    0  502 -0.10560829993E+03  0.42700278951E+02 -0.67872124545E+03  0.68821432407E+03  0.00000000000E+00 0.  1.
         13    1    5    5    0    0  0.16423354722E+02  0.66351745768E+02  0.41980215531E+03  0.42533061299E+03  0.00000000000E+00 0.  1.
        -13    1    5    5    0    0  0.33996500052E+02  0.22305282456E+02  0.49884938735E+02  0.64356777062E+02  0.00000000000E+00 0. -1.
          3    1    6    6  503    0 -0.36850817356E+00 -0.45036045156E+02 -0.49408238198E+02  0.66854731795E+02  0.00000000000E+00 0. -1.
         -3    1    6    6    0  503  0.10264624068E+03 -0.93059417766E+02 -0.35353144757E+03  0.37971145675E+03  0.00000000000E+00 0.  1.
<mgrwt>
<rscale>  0 0.15817032E+04</rscale>
<asrwt>0</asrwt>
<pdfrwt beam="1">  1        2 0.78720057E-01 0.15817032E+04</pdfrwt>
<pdfrwt beam="2">  1       -1 0.18805196E+00 0.15817032E+04</pdfrwt>
<totfact> 0.11997102E+01</totfact>
</mgrwt>
</event>
<event>
12    7  0.1611233E-007  0.1678546E+04  0.7818608E-02  0.8773696E-01
         -1   -1    0    0    0  501 -0.00000000000E+00  0.00000000000E+00  0.10376635595E+04  0.10376635595E+04  0.00000000000E+00 0.  1.
          2   -1    0    0  501    0  0.00000000000E+00 -0.00000000000E+00 -0.67881290249E+03  0.67881290249E+03  0.00000000000E+00 0. -1.
         24    2    1    2    0    0  0.47118572742E+03  0.52110246881E+02  0.51579404091E+03  0.70508415009E+03  0.79804125935E+02 0.  0.
        254    2    1    2    0    0 -0.47118572742E+03 -0.52110246881E+02 -0.15694338392E+03  0.10113923119E+04  0.87951788796E+03 0.  0.
         23    2    4    4    0    0  0.17615401582E+03 -0.78234225433E+02 -0.27305589195E+03  0.34609347888E+03  0.89835097094E+02 0.  0.
         23    2    4    4    0    0 -0.64733974324E+03  0.26123978552E+02  0.11611250803E+03  0.66529883301E+03  0.97001119834E+02 0.  0.
          4    1    3    3  502    0  0.18643015471E+01  0.76313625039E+01  0.17196961307E+02  0.18906316197E+02  0.00000000000E+00 0. -1.
         -3    1    3    3    0  502  0.46932142587E+03  0.44478884377E+02  0.49859707960E+03  0.68617783389E+03  0.00000000000E+00 0.  1.
         13    1    5    5    0    0  0.99466527382E+02 -0.18538701329E+02 -0.76567094140E+02  0.12688496137E+03  0.00000000000E+00 0. -1.
        -13    1    5    5    0    0  0.76687488442E+02 -0.59695524104E+02 -0.19648879781E+03  0.21920851751E+03  0.00000000000E+00 0.  1.
          2    1    6    6  503    0 -0.16801376373E+03  0.95147318863E+01 -0.12480983203E+02  0.16874516250E+03  0.00000000000E+00 0. -1.
         -2    1    6    6    0  503 -0.47932597952E+03  0.16609246666E+02  0.12859349124E+03  0.49655367052E+03  0.00000000000E+00 0.  1.
<mgrwt>
<rscale>  0 0.16785463E+04</rscale>
<asrwt>0</asrwt>
<pdfrwt beam="1">  1        2 0.10443275E+00 0.16785463E+04</pdfrwt>
<pdfrwt beam="2">  1       -1 0.15964055E+00 0.16785463E+04</pdfrwt>
<totfact> 0.13635613E+01</totfact>
</mgrwt>
</event>
<event>
12    7  0.1611233E-007  0.2694248E+04  0.7818608E-02  0.8336874E-01
          2   -1    0    0  501    0  0.00000000000E+00  0.00000000000E+00  0.33441706342E+04  0.33441706342E+04  0.00000000000E+00 0. -1.
         -1   -1    0    0    0  501 -0.00000000000E+00 -0.00000000000E+00 -0.54265869738E+03  0.54265869738E+03  0.00000000000E+00 0.  1.
         24    2    1    2    0    0 -0.90978301082E+03  0.75803565992E+03  0.14881086004E+04  0.19034220109E+04  0.78898391904E+02 0.  0.
        254    2    1    2    0    0  0.90978301082E+03 -0.75803565992E+03  0.13134033364E+04  0.19834073207E+04  0.89808300695E+03 0.  0.
         23    2    4    4    0    0  0.43290148012E+03 -0.13798566898E+03  0.10588671926E+04  0.11559592047E+04  0.92726559801E+02 0.  0.
         23    2    4    4    0    0  0.47688153069E+03 -0.62004999094E+03  0.25453614372E+03  0.82744811602E+03  0.89463683495E+02 0.  0.
          4    1    3    3  502    0 -0.17536084020E+01  0.80230007462E+00  0.12100243281E+02  0.12252947209E+02  0.00000000000E+00 0. -1.
         -3    1    3    3    0  502 -0.90802940241E+03  0.75723335984E+03  0.14760083572E+04  0.18911690637E+04  0.00000000000E+00 0.  1.
         13    1    5    5    0    0  0.35412994985E+03 -0.73151445985E+02  0.83558762396E+03  0.91047560799E+03  0.00000000000E+00 0. -1.
        -13    1    5    5    0    0  0.78771530278E+02 -0.64834222991E+02  0.22327956868E+03  0.24548359669E+03  0.00000000000E+00 0.  1.
          1    1    6    6  503    0  0.41409041025E+03 -0.54453916186E+03  0.25252493183E+03  0.72922054815E+03  0.00000000000E+00 0. -1.
         -1    1    6    6    0  503  0.62791120446E+02 -0.75510829084E+02  0.20112118911E+01  0.98227567867E+02  0.00000000000E+00 0.  1.
<mgrwt>
<rscale>  0 0.26942482E+04</rscale>
<asrwt>0</asrwt>
<pdfrwt beam="1">  1        2 0.51448778E+00 0.26942482E+04</pdfrwt>
<pdfrwt beam="2">  1       -1 0.83485955E-01 0.26942482E+04</pdfrwt>
<totfact> 0.14775482E+00</totfact>
</mgrwt>
</event>
<event>
12    7  0.1611233E-007  0.1807582E+04  0.7818608E-02  0.8702278E-01
         -1   -1    0    0    0  501 -0.00000000000E+00  0.00000000000E+00  0.35922182154E+03  0.35922182154E+03  0.00000000000E+00 0.  1.
          2   -1    0    0  501    0  0.00000000000E+00 -0.00000000000E+00 -0.22739099291E+04  0.22739099291E+04  0.00000000000E+00 0. -1.
         24    2    1    2    0    0  0.51235397216E+03 -0.16501602848E+03 -0.12755032626E+04  0.13870786577E+04  0.85683997954E+02 0.  0.
        254    2    1    2    0    0 -0.51235397216E+03  0.16501602848E+03 -0.63918484501E+03  0.12460530929E+04  0.92431280518E+03 0.  0.
         23    2    4    4    0    0 -0.69928419024E+03  0.31921999390E+03 -0.32640432559E+03  0.84009663519E+03  0.91229323515E+02 0.  0.
         23    2    4    4    0    0  0.18693021808E+03 -0.15420396542E+03 -0.31278051942E+03  0.40595645773E+03  0.90814221686E+02 0.  0.
          4    1    3    3  502    0  0.47619541986E+03 -0.15824403676E+03 -0.12309479580E+04  0.13292991117E+04  0.00000000000E+00 0. -1.
         -3    1    3    3    0  502  0.36158552303E+02 -0.67719917174E+01 -0.44555304599E+02  0.57779546073E+02  0.00000000000E+00 0.  1.
         13    1    5    5    0    0 -0.17820590735E+03  0.69721496370E+02 -0.12359473419E+03  0.22780274535E+03  0.00000000000E+00 0. -1.
        -13    1    5    5    0    0 -0.52107828289E+03  0.24949849753E+03 -0.20280959140E+03  0.61229388983E+03  0.00000000000E+00 0.  1.
          2    1    6    6  503    0 -0.65886689980E+00 -0.12531624877E+02  0.23885585493E+01  0.12774229511E+02  0.00000000000E+00 0. -1.
         -2    1    6    6    0  503  0.18758908498E+03 -0.14167234054E+03 -0.31516907797E+03  0.39318222821E+03  0.00000000000E+00 0.  1.
<mgrwt>
<rscale>  0 0.18075819E+04</rscale>
<asrwt>0</asrwt>
<pdfrwt beam="1">  1        2 0.34983230E+00 0.18075819E+04</pdfrwt>
<pdfrwt beam="2">  1       -1 0.55264895E-01 0.18075819E+04</pdfrwt>
<totfact> 0.16687978E+01</totfact>
</mgrwt>
</event>
<event>
12    7  0.1611233E-007  0.2348500E+04  0.7818608E-02  0.8459040E-01
         -1   -1    0    0    0  501 -0.00000000000E+00  0.00000000000E+00  0.10655969746E+04  0.10655969746E+04  0.00000000000E+00 0.  1.
          2   -1    0    0  501    0  0.00000000000E+00 -0.00000000000E+00 -0.12939813643E+04  0.12939813643E+04  0.00000000000E+00 0. -1.
         24    2    1    2    0    0  0.64580811819E+03  0.75502443199E+03 -0.20820186832E+03  0.10183565267E+04  0.81067744328E+02 0.  0.
        254    2    1    2    0    0 -0.64580811819E+03 -0.75502443199E+03 -0.20182521408E+02  0.13412218122E+04  0.90074335800E+03 0.  0.
         23    2    4    4    0    0 -0.71485387285E+03 -0.61325045379E+03  0.28395433404E+03  0.98747546269E+03  0.85939205240E+02 0.  0.
         23    2    4    4    0    0  0.69045754665E+02 -0.14177397820E+03 -0.30413685545E+03  0.35374634953E+03  0.88148033604E+02 0.  0.
          2    1    3    3  502    0  0.22958146890E+03  0.28046502876E+03 -0.37058786971E+02  0.36433725711E+03  0.00000000000E+00 0. -1.
         -1    1    3    3    0  502  0.41622664928E+03  0.47455940323E+03 -0.17114308134E+03  0.65401926964E+03  0.00000000000E+00 0.  1.
         13    1    5    5    0    0 -0.31026370848E+03 -0.23501652278E+03  0.80695250066E+02  0.39750227441E+03  0.00000000000E+00 0. -1.
        -13    1    5    5    0    0 -0.40459016437E+03 -0.37823393101E+03  0.20325908397E+03  0.58997318828E+03  0.00000000000E+00 0.  1.
          4    1    6    6  503    0  0.17213550876E+01 -0.10227227225E+03 -0.18275210635E+03  0.20942997185E+03  0.00000000000E+00 0.  1.
         -4    1    6    6    0  503  0.67324399577E+02 -0.39501705959E+02 -0.12138474909E+03  0.14431637767E+03  0.00000000000E+00 0. -1.
<mgrwt>
<rscale>  0 0.23484996E+04</rscale>
<asrwt>0</asrwt>
<pdfrwt beam="1">  1        2 0.19907406E+00 0.23484996E+04</pdfrwt>
<pdfrwt beam="2">  1       -1 0.16393800E+00 0.23484996E+04</pdfrwt>
<totfact> 0.46812894E+00</totfact>
</mgrwt>
</event>
<event>
12    7  0.1611233E-007  0.1263858E+04  0.7818608E-02  0.9058727E-01
         -1   -1    0    0    0  501 -0.00000000000E+00  0.00000000000E+00  0.44834414270E+03  0.44834414270E+03  0.00000000000E+00 0.  1.
          2   -1    0    0  501    0  0.00000000000E+00 -0.00000000000E+00 -0.89068741603E+03  0.89068741603E+03  0.00000000000E+00 0. -1.
         24    2    1    2    0    0 -0.19021812958E+03  0.62558436247E+02 -0.35501600922E+03  0.41504948578E+03  0.78314839448E+02 0.  0.
        254    2    1    2    0    0  0.19021812958E+03 -0.62558436247E+02 -0.87327264120E+02  0.92398207296E+03  0.89778634726E+03 0.  0.
         23    2    4    4    0    0  0.52481198007E+03  0.85089346997E+02 -0.78398712495E+01  0.53915452702E+03  0.89209467129E+02 0.  0.
         23    2    4    4    0    0 -0.33459385050E+03 -0.14764778324E+03 -0.79487392871E+02  0.38482754593E+03  0.89560492395E+02 0.  0.
          2    1    3    3  502    0 -0.17600603296E+03  0.43244126777E+02 -0.25920853282E+03  0.31628664472E+03  0.00000000000E+00 0. -1.
         -1    1    3    3    0  502 -0.14212096614E+02  0.19314309470E+02 -0.95807476395E+02  0.98762841058E+02  0.00000000000E+00 0.  1.
         13    1    5    5    0    0  0.20878257017E+03  0.15081833339E+02  0.36356991422E+02  0.21246047663E+03  0.00000000000E+00 0. -1.
        -13    1    5    5    0    0  0.31602940991E+03  0.70007513658E+02 -0.44196862672E+02  0.32669405040E+03  0.00000000000E+00 0.  1.
          1    1    6    6  503    0 -0.31568290277E+03 -0.14500135971E+03 -0.95087130404E+02  0.36017030942E+03  0.00000000000E+00 0. -1.
         -1    1    6    6    0  503 -0.18910947731E+02 -0.26464235306E+01  0.15599737533E+02  0.24657236518E+02  0.00000000000E+00 0.  1.
<mgrwt>
<rscale>  0 0.12638584E+04</rscale>
<asrwt>0</asrwt>
<pdfrwt beam="1">  1        2 0.13702883E+00 0.12638584E+04</pdfrwt>
<pdfrwt beam="2">  1       -1 0.68976022E-01 0.12638584E+04</pdfrwt>
<totfact> 0.70966740E+01</totfact>
</mgrwt>
</event>
<event>
12    7  0.1611233E-007  0.1742650E+04  0.7818608E-02  0.8737407E-01
          2   -1    0    0  501    0  0.00000000000E+00  0.00000000000E+00  0.12852451135E+04  0.12852451135E+04  0.00000000000E+00 0. -1.
         -1   -1    0    0    0  501 -0.00000000000E+00 -0.00000000000E+00 -0.59070992062E+03  0.59070992062E+03  0.00000000000E+00 0.  1.
         24    2    1    2    0    0  0.18361790651E+03  0.26204577591E+03  0.87754312703E+03  0.93745780586E+03  0.79760100944E+02 0.  0.
        254    2    1    2    0    0 -0.18361790651E+03 -0.26204577591E+03 -0.18300793411E+03  0.93849722830E+03  0.86307683280E+03 0.  0.
         23    2    4    4    0    0  0.20616370192E+03  0.19935104894E+03  0.21426282067E+01  0.30038737383E+03  0.89351389470E+02 0.  0.
         23    2    4    4    0    0 -0.38978160842E+03 -0.46139682485E+03 -0.18515056231E+03  0.63810985446E+03  0.89926210792E+02 0.  0.
          4    1    3    3  502    0  0.18265099988E+03  0.26404571243E+03  0.83106765154E+03  0.89092927185E+03  0.00000000000E+00 0. -1.
         -3    1    3    3    0  502  0.96690662946E+00 -0.19999365192E+01  0.46475475495E+02  0.46528534008E+02  0.00000000000E+00 0.  1.
         13    1    5    5    0    0  0.68819956049E+02  0.21143013623E+02 -0.18840727085E+02  0.74418992016E+02  0.00000000000E+00 0. -1.
        -13    1    5    5    0    0  0.13734374587E+03  0.17820803532E+03  0.20983355291E+02  0.22596838182E+03  0.00000000000E+00 0.  1.
          3    1    6    6  503    0 -0.58600500959E+02 -0.34225244224E+02 -0.37474439155E+01  0.67966384270E+02  0.00000000000E+00 0. -1.
         -3    1    6    6    0  503 -0.33118110746E+03 -0.42717158063E+03 -0.18140311840E+03  0.57014347019E+03  0.00000000000E+00 0.  1.
<mgrwt>
<rscale>  0 0.17426498E+04</rscale>
<asrwt>0</asrwt>
<pdfrwt beam="1">  1        2 0.19773002E+00 0.17426498E+04</pdfrwt>
<pdfrwt beam="2">  1       -1 0.90878449E-01 0.17426498E+04</pdfrwt>
<totfact> 0.21556296E+01</totfact>
</mgrwt>
</event>
<event>
12    7  0.1611233E-007  0.2051396E+04  0.7818608E-02  0.8582961E-01
         -1   -1    0    0    0  501 -0.00000000000E+00  0.00000000000E+00  0.50955531552E+03  0.50955531552E+03  0.00000000000E+00 0.  1.
          2   -1    0    0  501    0  0.00000000000E+00 -0.00000000000E+00 -0.20646567853E+04  0.20646567853E+04  0.00000000000E+00 0. -1.
         24    2    1    2    0    0  0.58361720533E+03  0.55867467860E+03 -0.79936071279E+03  0.11393339189E+04  0.79861072116E+02 0.  0.
        254    2    1    2    0    0 -0.58361720533E+03 -0.55867467860E+03 -0.75574075694E+03  0.14348781818E+04  0.91378600677E+03 0.  0.
         23    2    4    4    0    0 -0.71343511163E+03 -0.11086263784E+03 -0.57012309496E+03  0.92446462223E+03  0.91182845865E+02 0.  0.
         23    2    4    4    0    0  0.12981790630E+03 -0.44781204076E+03 -0.18561766198E+03  0.51041355961E+03  0.93165297963E+02 0.  0.
          4    1    3    3  502    0  0.44543088847E+03  0.42137289178E+03 -0.65240614262E+03  0.89531981172E+03  0.00000000000E+00 0. -1.
         -3    1    3    3    0  502  0.13818631686E+03  0.13730178681E+03 -0.14695457018E+03  0.24401410722E+03  0.00000000000E+00 0.  1.
         13    1    5    5    0    0 -0.70949354028E+03 -0.10678441662E+03 -0.55136747240E+03  0.90487020337E+03  0.00000000000E+00 0.  1.
        -13    1    5    5    0    0 -0.39415713538E+01 -0.40782212165E+01 -0.18755622556E+02  0.19594418861E+02  0.00000000000E+00 0. -1.
          3    1    6    6  503    0  0.31823303590E+02 -0.11648757095E+03 -0.93806626310E+02  0.15291095441E+03  0.00000000000E+00 0. -1.
         -3    1    6    6    0  503  0.97994602715E+02 -0.33132446981E+03 -0.91811035674E+02  0.35750260520E+03  0.00000000000E+00 0.  1.
<mgrwt>
<rscale>  0 0.20513964E+04</rscale>
<asrwt>0</asrwt>
<pdfrwt beam="1">  1        2 0.31763950E+00 0.20513964E+04</pdfrwt>
<pdfrwt beam="2">  1       -1 0.78393126E-01 0.20513964E+04</pdfrwt>
<totfact> 0.10548169E+01</totfact>
</mgrwt>
</event>
<event>
12    7  0.1611233E-007  0.1427487E+04  0.7818608E-02  0.8934159E-01
         -1   -1    0    0    0  501 -0.00000000000E+00  0.00000000000E+00  0.98691864125E+02  0.98691864125E+02  0.00000000000E+00 0.  1.
          2   -1    0    0  501    0  0.00000000000E+00 -0.00000000000E+00 -0.51618192003E+04  0.51618192003E+04  0.00000000000E+00 0. -1.
         24    2    1    2    0    0 -0.33015534555E+03  0.19515876327E+03 -0.23147022133E+04  0.23476231343E+04  0.79990932989E+02 0.  0.
        254    2    1    2    0    0  0.33015534555E+03 -0.19515876327E+03 -0.27484251229E+04  0.29128879301E+04  0.88542980657E+03 0.  0.
         23    2    4    4    0    0  0.17106551722E+03  0.23729876399E+03 -0.33462089029E+03  0.45374870529E+03  0.91338013783E+02 0.  0.
         23    2    4    4    0    0  0.15908982832E+03 -0.43245752725E+03 -0.24138042326E+04  0.24591392248E+04  0.92659416831E+02 0.  0.
          2    1    3    3  502    0 -0.28348702819E+03  0.16891257154E+03 -0.17871777085E+04  0.18173883772E+04  0.00000000000E+00 0. -1.
         -1    1    3    3    0  502 -0.46668317359E+02  0.26246191722E+02 -0.52752450478E+03  0.53023475704E+03  0.00000000000E+00 0.  1.
         13    1    5    5    0    0  0.93105892887E+02  0.12641510884E+03 -0.11108122284E+03  0.19232401072E+03  0.00000000000E+00 0. -1.
        -13    1    5    5    0    0  0.77959624338E+02  0.11088365515E+03 -0.22353966745E+03  0.26142469457E+03  0.00000000000E+00 0.  1.
          2    1    6    6  503    0  0.14765014682E+03 -0.35105373323E+03 -0.21252939628E+04  0.21591465253E+04  0.00000000000E+00 0. -1.
         -2    1    6    6    0  503  0.11439681501E+02 -0.81403794024E+02 -0.28851026983E+03  0.29999269957E+03  0.00000000000E+00 0.  1.
<mgrwt>
<rscale>  0 0.14274867E+04</rscale>
<asrwt>0</asrwt>
<pdfrwt beam="1">  1        2 0.79412615E+00 0.14274867E+04</pdfrwt>
<pdfrwt beam="2">  1       -1 0.15183361E-01 0.14274867E+04</pdfrwt>
<totfact> 0.79568950E-01</totfact>
</mgrwt>
</event>
<event>
12    7  0.1611233E-007  0.1177677E+04  0.7818608E-02  0.9132623E-01
          2   -1    0    0  501    0  0.00000000000E+00  0.00000000000E+00  0.57600047164E+03  0.57600047164E+03  0.00000000000E+00 0. -1.
         -1   -1    0    0    0  501 -0.00000000000E+00 -0.00000000000E+00 -0.60196297951E+03  0.60196297951E+03  0.00000000000E+00 0.  1.
         24    2    1    2    0    0  0.32801212330E+02  0.18167662593E+03  0.15038515718E+03  0.25161711588E+03  0.81321347542E+02 0.  0.
        254    2    1    2    0    0 -0.32801212330E+02 -0.18167662593E+03 -0.17634766505E+03  0.92634633527E+03  0.89046994220E+03 0.  0.
         23    2    4    4    0    0  0.34835165189E+03 -0.66028775457E+02  0.15854551760E+03  0.39846161488E+03  0.89029797348E+02 0.  0.
         23    2    4    4    0    0 -0.38115286422E+03 -0.11564785047E+03 -0.33489318266E+03  0.52788472039E+03  0.88639173099E+02 0.  0.
          2    1    3    3  502    0  0.15131920302E+02  0.10257304060E+03  0.13314032288E+03  0.16874996073E+03  0.00000000000E+00 0. -1.
         -1    1    3    3    0  502  0.17669292028E+02  0.79103585330E+02  0.17244834298E+02  0.82867155151E+02  0.00000000000E+00 0.  1.
         13    1    5    5    0    0  0.32661903688E+03 -0.37589569624E+02  0.15141387906E+03  0.36196565275E+03  0.00000000000E+00 0.  1.
        -13    1    5    5    0    0  0.21732615013E+02 -0.28439205833E+02  0.71316385454E+01  0.36495962134E+02  0.00000000000E+00 0. -1.
          2    1    6    6  503    0 -0.74123913282E+01  0.10766219432E+02 -0.67139394068E+01  0.14694625154E+02  0.00000000000E+00 0. -1.
         -2    1    6    6    0  503 -0.37374047289E+03 -0.12641406990E+03 -0.32817924325E+03  0.51319009524E+03  0.00000000000E+00 0.  1.
<mgrwt>
<rscale>  0 0.11776773E+04</rscale>
<asrwt>0</asrwt>
<pdfrwt beam="1">  1        2 0.88615457E-01 0.11776773E+04</pdfrwt>
<pdfrwt beam="2">  1       -1 0.92609689E-01 0.11776773E+04</pdfrwt>
<totfact> 0.66747485E+01</totfact>
</mgrwt>
</event>
<event>
12    7  0.1611233E-007  0.1098987E+04  0.7818608E-02  0.9206180E-01
         -1   -1    0    0    0  501 -0.00000000000E+00  0.00000000000E+00  0.13319461178E+04  0.13319461178E+04  0.00000000000E+00 0.  1.
          2   -1    0    0  501    0  0.00000000000E+00 -0.00000000000E+00 -0.22669307484E+03  0.22669307484E+03  0.00000000000E+00 0. -1.
         24    2    1    2    0    0  0.38876335095E+02 -0.82195688415E+02  0.39662747984E+03  0.41548562791E+03  0.83949083456E+02 0.  0.
        254    2    1    2    0    0 -0.38876335095E+02  0.82195688415E+02  0.70862556307E+03  0.11431535647E+04  0.89240259031E+03 0.  0.
         23    2    4    4    0    0  0.19337137415E+03 -0.55978011418E+02  0.81030009139E+03  0.84018341895E+03  0.93786530306E+02 0.  0.
         23    2    4    4    0    0 -0.23224770925E+03  0.13817369983E+03 -0.10167452832E+03  0.30297014574E+03  0.91772706847E+02 0.  0.
          2    1    3    3  502    0  0.40329538497E+02 -0.80063868941E+02  0.20385763409E+03  0.22269851765E+03  0.00000000000E+00 0. -1.
         -1    1    3    3    0  502 -0.14532034018E+01 -0.21318194746E+01  0.19276984575E+03  0.19278711026E+03  0.00000000000E+00 0.  1.
         13    1    5    5    0    0  0.73300704172E+02 -0.39875962076E+02  0.18073470408E+03  0.19906812613E+03  0.00000000000E+00 0.  1.
        -13    1    5    5    0    0  0.12007066998E+03 -0.16102049342E+02  0.62956538731E+03  0.64111529282E+03  0.00000000000E+00 0. -1.
          1    1    6    6  503    0 -0.17437058831E+03  0.14043300652E+03 -0.99512215109E+02  0.24500859647E+03  0.00000000000E+00 0. -1.
         -1    1    6    6    0  503 -0.57877120939E+02 -0.22593066907E+01 -0.21623132108E+01  0.57961549266E+02  0.00000000000E+00 0.  1.
<mgrwt>
<rscale>  0 0.10989867E+04</rscale>
<asrwt>0</asrwt>
<pdfrwt beam="1">  1        2 0.34875859E-01 0.10989867E+04</pdfrwt>
<pdfrwt beam="2">  1       -1 0.20491478E+00 0.10989867E+04</pdfrwt>
<totfact> 0.23851508E+01</totfact>
</mgrwt>
</event>
<event>
12    7  0.1611233E-007  0.1769244E+04  0.7818608E-02  0.8722828E-01
          2   -1    0    0  501    0  0.00000000000E+00  0.00000000000E+00  0.42094448592E+04  0.42094448592E+04  0.00000000000E+00 0. -1.
         -1   -1    0    0    0  501 -0.00000000000E+00 -0.00000000000E+00 -0.18590479691E+03  0.18590479691E+03  0.00000000000E+00 0.  1.
         24    2    1    2    0    0 -0.37569435303E+03 -0.26944162019E+03  0.45111314876E+03  0.65072736482E+03  0.78727357103E+02 0.  0.
        254    2    1    2    0    0  0.37569435303E+03  0.26944162019E+03  0.35724269135E+04  0.37446222913E+04  0.10228475049E+04 0.  0.
         23    2    4    4    0    0  0.25727449560E+03 -0.36057766281E+03  0.18530621077E+04  0.19073507251E+04  0.89113390215E+02 0.  0.
         23    2    4    4    0    0  0.11841985743E+03  0.63001928300E+03  0.17193648058E+04  0.18372715662E+04  0.91672858441E+02 0.  0.
          2    1    3    3  502    0 -0.15431465073E+03 -0.15139963877E+03  0.23822092953E+03  0.32168940504E+03  0.00000000000E+00 0. -1.
         -1    1    3    3    0  502 -0.22137970231E+03 -0.11804198142E+03  0.21289221922E+03  0.32903795978E+03  0.00000000000E+00 0.  1.
         13    1    5    5    0    0  0.21330158293E+03 -0.29523013454E+03  0.16459544134E+04  0.16857711377E+04  0.00000000000E+00 0. -1.
        -13    1    5    5    0    0  0.43972912673E+02 -0.65347528270E+02  0.20710769431E+03  0.22157958738E+03  0.00000000000E+00 0.  1.
          1    1    6    6  503    0  0.53614010666E+02  0.31460377151E+03  0.72678681639E+03  0.79376890319E+03  0.00000000000E+00 0. -1.
         -1    1    6    6    0  503  0.64805846762E+02  0.31541551149E+03  0.99257798942E+03  0.10435026630E+04  0.00000000000E+00 0.  1.
<mgrwt>
<rscale>  0 0.17692439E+04</rscale>
<asrwt>0</asrwt>
<pdfrwt beam="1">  1        2 0.64760683E+00 0.17692439E+04</pdfrwt>
<pdfrwt beam="2">  1       -1 0.28600741E-01 0.17692439E+04</pdfrwt>
<totfact> 0.27790210E+00</totfact>
</mgrwt>
</event>
<event>
12    7  0.1611233E-007  0.1267431E+04  0.7818608E-02  0.9055799E-01
          2   -1    0    0  501    0  0.00000000000E+00  0.00000000000E+00  0.10557528811E+04  0.10557528811E+04  0.00000000000E+00 0. -1.
         -1   -1    0    0    0  501 -0.00000000000E+00 -0.00000000000E+00 -0.38038752242E+03  0.38038752242E+03  0.00000000000E+00 0.  1.
         24    2    1    2    0    0 -0.14903816735E+03 -0.26290515491E+03  0.14679429399E+03  0.34362903119E+03  0.72116922586E+02 0.  0.
        254    2    1    2    0    0  0.14903816735E+03  0.26290515491E+03  0.52857106469E+03  0.10925113723E+04  0.90711754058E+03 0.  0.
         23    2    4    4    0    0 -0.28107598388E+03  0.66396093890E+02  0.53063921493E+03  0.61096347499E+03  0.91028794129E+02 0.  0.
         23    2    4    4    0    0  0.43011415123E+03  0.19650906102E+03 -0.20681502347E+01  0.48154789733E+03  0.90940123345E+02 0.  0.
          4    1    3    3  502    0 -0.25226354611E+02 -0.33907326022E+02  0.51006490028E+02  0.66240001131E+02  0.00000000000E+00 0. -1.
         -3    1    3    3    0  502 -0.12381181274E+03 -0.22899782889E+03  0.95787803966E+02  0.27738903006E+03  0.00000000000E+00 0.  1.
         13    1    5    5    0    0 -0.15384552909E+03  0.66779234048E+01  0.34764673550E+03  0.38022532029E+03  0.00000000000E+00 0. -1.
        -13    1    5    5    0    0 -0.12723045478E+03  0.59718170485E+02  0.18299247943E+03  0.23073815471E+03  0.00000000000E+00 0.  1.
          2    1    6    6  503    0  0.20015974482E+03  0.14141364290E+03 -0.22484430124E+01  0.24508528585E+03  0.00000000000E+00 0. -1.
         -2    1    6    6    0  503  0.22995440641E+03  0.55095418115E+02  0.18029277772E+00  0.23646261148E+03  0.00000000000E+00 0.  1.
<mgrwt>
<rscale>  0 0.12674308E+04</rscale>
<asrwt>0</asrwt>
<pdfrwt beam="1">  1        2 0.16242352E+00 0.12674308E+04</pdfrwt>
<pdfrwt beam="2">  1       -1 0.58521158E-01 0.12674308E+04</pdfrwt>
<totfact> 0.76959311E+01</totfact>
</mgrwt>
</event>
<event>
12    7  0.1611233E-007  0.1581841E+04  0.7818608E-02  0.8831782E-01
         -1   -1    0    0    0  501 -0.00000000000E+00  0.00000000000E+00  0.73572939070E+03  0.73572939070E+03  0.00000000000E+00 0.  1.
          2   -1    0    0  501    0  0.00000000000E+00 -0.00000000000E+00 -0.85025139642E+03  0.85025139642E+03  0.00000000000E+00 0. -1.
         24    2    1    2    0    0  0.79767845330E+02 -0.42435421210E+03  0.26420127803E+03  0.51245443309E+03  0.79798647884E+02 0.  0.
        254    2    1    2    0    0 -0.79767845330E+02  0.42435421210E+03 -0.37872328375E+03  0.10735263540E+04  0.90696642752E+03 0.  0.
         23    2    4    4    0    0  0.33818649239E+03 -0.41659575737E+02 -0.39418056981E+02  0.35489585748E+03  0.91058566606E+02 0.  0.
         23    2    4    4    0    0 -0.41795433772E+03  0.46601378784E+03 -0.33930522677E+03  0.71863049654E+03  0.97196063548E+02 0.  0.
          2    1    3    3  502    0  0.25668129165E+02 -0.36141321625E+02  0.10519505800E+02  0.45559938388E+02  0.00000000000E+00 0. -1.
         -1    1    3    3    0  502  0.54099716165E+02 -0.38821289048E+03  0.25368177223E+03  0.46689449471E+03  0.00000000000E+00 0.  1.
         13    1    5    5    0    0  0.86562226720E+02  0.29076254551E+02 -0.11195415825E+02  0.91998831563E+02  0.00000000000E+00 0. -1.
        -13    1    5    5    0    0  0.25162426567E+03 -0.70735830288E+02 -0.28222641156E+02  0.26289702591E+03  0.00000000000E+00 0.  1.
          1    1    6    6  503    0 -0.93604361864E+02  0.17086081373E+03 -0.11090141834E+03  0.22417475062E+03  0.00000000000E+00 0. -1.
         -1    1    6    6    0  503 -0.32434997586E+03  0.29515297412E+03 -0.22840380844E+03  0.49445574592E+03  0.00000000000E+00 0.  1.
<mgrwt>
<rscale>  0 0.15818406E+04</rscale>
<asrwt>0</asrwt>
<pdfrwt beam="1">  1        2 0.13080791E+00 0.15818406E+04</pdfrwt>
<pdfrwt beam="2">  1       -1 0.11318914E+00 0.15818406E+04</pdfrwt>
<totfact> 0.24801962E+01</totfact>
</mgrwt>
</event>
<event>
12    7  0.1611233E-007  0.2964610E+04  0.7818608E-02  0.8253909E-01
          2   -1    0    0  501    0  0.00000000000E+00  0.00000000000E+00  0.23129727753E+04  0.23129727753E+04  0.00000000000E+00 0. -1.
         -1   -1    0    0    0  501 -0.00000000000E+00 -0.00000000000E+00 -0.94995876184E+03  0.94995876184E+03  0.00000000000E+00 0.  1.
         24    2    1    2    0    0  0.75099228483E+03 -0.10872746277E+04  0.35387769477E+03  0.13703354345E+04  0.80213791081E+02 0.  0.
        254    2    1    2    0    0 -0.75099228483E+03  0.10872746277E+04  0.10091363187E+04  0.18925961027E+04  0.90410639310E+03 0.  0.
         23    2    4    4    0    0 -0.56719127998E+03  0.11845333630E+04  0.64986515829E+03  0.14678465589E+04  0.86160085929E+02 0.  0.
         23    2    4    4    0    0 -0.18380100485E+03 -0.97258735314E+02  0.35927116044E+03  0.42474954371E+03  0.89968534399E+02 0.  0.
          4    1    3    3  502    0  0.72729366206E+03 -0.10216786400E+04  0.33471635115E+03  0.12980055278E+04  0.00000000000E+00 0. -1.
         -3    1    3    3    0  502  0.23698622771E+02 -0.65595987696E+02  0.19161343620E+02  0.72329906763E+02  0.00000000000E+00 0.  1.
         13    1    5    5    0    0 -0.42417781157E+03  0.92380671393E+03  0.46633806841E+03  0.11183992376E+04  0.00000000000E+00 0. -1.
        -13    1    5    5    0    0 -0.14301346841E+03  0.26072664911E+03  0.18352708987E+03  0.34944732138E+03  0.00000000000E+00 0.  1.
          3    1    6    6  503    0 -0.11766699081E+03 -0.11977835172E+02  0.20013353063E+03  0.23247025475E+03  0.00000000000E+00 0. -1.
         -3    1    6    6    0  503 -0.66134014037E+02 -0.85280900142E+02  0.15913762981E+03  0.19227928896E+03  0.00000000000E+00 0.  1.
<mgrwt>
<rscale>  0 0.29646104E+04</rscale>
<asrwt>0</asrwt>
<pdfrwt beam="1">  1        2 0.35584196E+00 0.29646104E+04</pdfrwt>
<pdfrwt beam="2">  1       -1 0.14614750E+00 0.29646104E+04</pdfrwt>
<totfact> 0.16275337E+00</totfact>
</mgrwt>
</event>
<event>
12    7  0.1611233E-007  0.1749753E+04  0.7818608E-02  0.8733486E-01
          2   -1    0    0  501    0  0.00000000000E+00  0.00000000000E+00  0.99979603967E+03  0.99979603967E+03  0.00000000000E+00 0. -1.
         -1   -1    0    0    0  501 -0.00000000000E+00 -0.00000000000E+00 -0.76556524376E+03  0.76556524376E+03  0.00000000000E+00 0.  1.
         24    2    1    2    0    0 -0.10045644147E+03 -0.34062749314E+03  0.62600808702E+03  0.72380034361E+03  0.76695675765E+02 0.  0.
        254    2    1    2    0    0  0.10045644147E+03  0.34062749314E+03 -0.39177729111E+03  0.10415609398E+04  0.89735230529E+03 0.  0.
         23    2    4    4    0    0  0.26699210450E+03 -0.44106036584E+02  0.17212304093E+03  0.33241808216E+03  0.87437485084E+02 0.  0.
         23    2    4    4    0    0 -0.16653566302E+03  0.38473352973E+03 -0.56390033204E+03  0.70914285766E+03  0.95634680647E+02 0.  0.
          4    1    3    3  502    0 -0.39172185315E+02 -0.24679707471E+03  0.40232503240E+03  0.47361238147E+03  0.00000000000E+00 0. -1.
         -3    1    3    3    0  502 -0.61284256160E+02 -0.93830418436E+02  0.22368305462E+03  0.25018796214E+03  0.00000000000E+00 0.  1.
         13    1    5    5    0    0  0.94802455161E+01  0.84858591040E+01 -0.68408682444E+01  0.14445841551E+02  0.00000000000E+00 0.  1.
        -13    1    5    5    0    0  0.25751185898E+03 -0.52591895688E+02  0.17896390918E+03  0.31797224061E+03  0.00000000000E+00 0. -1.
          4    1    6    6  503    0 -0.27597892272E+02  0.66026978086E+02 -0.45001177764E+02  0.84535859215E+02  0.00000000000E+00 0.  1.
         -4    1    6    6    0  503 -0.13893777075E+03  0.31870655164E+03 -0.51889915427E+03  0.62460699845E+03  0.00000000000E+00 0. -1.
<mgrwt>
<rscale>  0 0.17497532E+04</rscale>
<asrwt>0</asrwt>
<pdfrwt beam="1">  1        2 0.15381477E+00 0.17497532E+04</pdfrwt>
<pdfrwt beam="2">  1       -1 0.11777927E+00 0.17497532E+04</pdfrwt>
<totfact> 0.17657720E+01</totfact>
</mgrwt>
</event>
<event>
12    7  0.1611233E-007  0.1699629E+04  0.7818608E-02  0.8761576E-01
          2   -1    0    0  501    0  0.00000000000E+00  0.00000000000E+00  0.32884395875E+04  0.32884395875E+04  0.00000000000E+00 0. -1.
         -1   -1    0    0    0  501 -0.00000000000E+00 -0.00000000000E+00 -0.21961323219E+03  0.21961323219E+03  0.00000000000E+00 0.  1.
         24    2    1    2    0    0 -0.15344428049E+03  0.20478452981E+03  0.23467450467E+04  0.23620050611E+04  0.79835727724E+02 0.  0.
        254    2    1    2    0    0  0.15344428049E+03 -0.20478452981E+03  0.72208130852E+03  0.11460477585E+04  0.85237444699E+03 0.  0.
         23    2    4    4    0    0 -0.21814930763E+03  0.44578125009E+02  0.63633273779E+03  0.68007210551E+03  0.89456055511E+02 0.  0.
         23    2    4    4    0    0  0.37159358812E+03 -0.24936265481E+03  0.85748570737E+02  0.46597565303E+03  0.97554925495E+02 0.  0.
          2    1    3    3  502    0 -0.14638339682E+03  0.19404141197E+03  0.19554144924E+04  0.19704633987E+04  0.00000000000E+00 0. -1.
         -1    1    3    3    0  502 -0.70608836754E+01  0.10743117832E+02  0.39133055436E+03  0.39154166245E+03  0.00000000000E+00 0.  1.
         13    1    5    5    0    0 -0.11601304345E+03 -0.34874391151E+01  0.42400149241E+03  0.43960033445E+03  0.00000000000E+00 0. -1.
        -13    1    5    5    0    0 -0.10213626417E+03  0.48065564124E+02  0.21233124538E+03  0.24047177106E+03  0.00000000000E+00 0.  1.
          1    1    6    6  503    0  0.19409210407E+03 -0.16768649732E+03  0.86169165363E+02  0.27058387111E+03  0.00000000000E+00 0. -1.
         -1    1    6    6    0  503  0.17750148405E+03 -0.81676157495E+02 -0.42059462550E+00  0.19539178193E+03  0.00000000000E+00 0.  1.
<mgrwt>
<rscale>  0 0.16996292E+04</rscale>
<asrwt>0</asrwt>
<pdfrwt beam="1">  1        2 0.50591375E+00 0.16996292E+04</pdfrwt>
<pdfrwt beam="2">  1       -1 0.33786654E-01 0.16996292E+04</pdfrwt>
<totfact> 0.10230720E+01</totfact>
</mgrwt>
</event>
<event>
12    7  0.1611233E-007  0.1069502E+04  0.7818608E-02  0.9235438E-01
         -1   -1    0    0    0  501 -0.00000000000E+00  0.00000000000E+00  0.12812424428E+03  0.12812424428E+03  0.00000000000E+00 0.  1.
          2   -1    0    0  501    0  0.00000000000E+00 -0.00000000000E+00 -0.22318849441E+04  0.22318849441E+04  0.00000000000E+00 0. -1.
         24    2    1    2    0    0 -0.52755508183E+02  0.10112537908E+03 -0.13818477697E+03  0.19853902752E+03  0.85517407146E+02 0.  0.
        254    2    1    2    0    0  0.52755508183E+02 -0.10112537908E+03 -0.19655759228E+04  0.21614701608E+04  0.89188287449E+03 0.  0.
         23    2    4    4    0    0 -0.34237212987E+03  0.10940002445E+03 -0.13213848114E+04  0.13726049061E+04  0.93804945437E+02 0.  0.
         23    2    4    4    0    0  0.39512763805E+03 -0.21052540353E+03 -0.64419111146E+03  0.78886525476E+03  0.82942185872E+02 0.  0.
          2    1    3    3  502    0  0.23341445504E+02  0.15660724992E+02 -0.26068433000E+02  0.38335943768E+02  0.00000000000E+00 0. -1.
         -1    1    3    3    0  502 -0.76096953687E+02  0.85464654090E+02 -0.11211634397E+03  0.16020308375E+03  0.00000000000E+00 0.  1.
         13    1    5    5    0    0 -0.33463410616E+03  0.10907318584E+03 -0.11891378692E+04  0.12401313708E+04  0.00000000000E+00 0.  1.
        -13    1    5    5    0    0 -0.77380237082E+01  0.32683861140E+00 -0.13224694212E+03  0.13247353523E+03  0.00000000000E+00 0. -1.
          1    1    6    6  503    0  0.14490143073E+00  0.52110278573E+01 -0.61100650590E+01  0.80317309952E+01  0.00000000000E+00 0. -1.
         -1    1    6    6    0  503  0.39498273662E+03 -0.21573643139E+03 -0.63808104641E+03  0.78083352377E+03  0.00000000000E+00 0.  1.
<mgrwt>
<rscale>  0 0.10695019E+04</rscale>
<asrwt>0</asrwt>
<pdfrwt beam="1">  1        2 0.34336692E+00 0.10695019E+04</pdfrwt>
<pdfrwt beam="2">  1       -1 0.19711422E-01 0.10695019E+04</pdfrwt>
<totfact> 0.11828840E+02</totfact>
</mgrwt>
</event>
<event>
12    7  0.1611233E-007  0.1757178E+04  0.7818608E-02  0.8729409E-01
         -1   -1    0    0    0  501 -0.00000000000E+00  0.00000000000E+00  0.40263660471E+03  0.40263660471E+03  0.00000000000E+00 0.  1.
          2   -1    0    0  501    0  0.00000000000E+00 -0.00000000000E+00 -0.19171589586E+04  0.19171589586E+04  0.00000000000E+00 0. -1.
         24    2    1    2    0    0 -0.42079296511E+02 -0.49483269602E+03 -0.11007115770E+04  0.12101945792E+04  0.79842843225E+02 0.  0.
        254    2    1    2    0    0  0.42079296511E+02  0.49483269602E+03 -0.41381077692E+03  0.11096009841E+04  0.90185637470E+03 0.  0.
         23    2    4    4    0    0 -0.11175073936E+03  0.36359025096E+01  0.23517939892E+03  0.27615837288E+03  0.91938292883E+02 0.  0.
         23    2    4    4    0    0  0.15383003588E+03  0.49119679351E+03 -0.64899017584E+03  0.83344261123E+03  0.92197440177E+02 0.  0.
          2    1    3    3  502    0 -0.39940033240E+02 -0.44476547424E+03 -0.91978091336E+03  0.10224521807E+04  0.00000000000E+00 0. -1.
         -1    1    3    3    0  502 -0.21392632714E+01 -0.50067221784E+02 -0.18093066364E+03  0.18774239848E+03  0.00000000000E+00 0.  1.
         13    1    5    5    0    0 -0.94967406970E+02  0.23885439009E+01  0.92848136676E+02  0.13283557510E+03  0.00000000000E+00 0. -1.
        -13    1    5    5    0    0 -0.16783332394E+02  0.12473586087E+01  0.14233126225E+03  0.14332279778E+03  0.00000000000E+00 0.  1.
          3    1    6    6  503    0  0.16140214060E+03  0.48874586868E+03 -0.64197316363E+03  0.82283213231E+03  0.00000000000E+00 0. -1.
         -3    1    6    6    0  503 -0.75721047207E+01  0.24509248305E+01 -0.70170122068E+01  0.10610478912E+02  0.00000000000E+00 0.  1.
<mgrwt>
<rscale>  0 0.17571777E+04</rscale>
<asrwt>0</asrwt>
<pdfrwt beam="1">  1        2 0.29494753E+00 0.17571777E+04</pdfrwt>
<pdfrwt beam="2">  1       -1 0.61944092E-01 0.17571777E+04</pdfrwt>
<totfact> 0.21185725E+01</totfact>
</mgrwt>
</event>
<event>
12    7  0.1611233E-007  0.3479275E+04  0.7818608E-02  0.8118719E-01
         -1   -1    0    0    0  501 -0.00000000000E+00  0.00000000000E+00  0.30046377194E+04  0.30046377194E+04  0.00000000000E+00 0.  1.
          2   -1    0    0  501    0  0.00000000000E+00 -0.00000000000E+00 -0.10072227101E+04  0.10072227101E+04  0.00000000000E+00 0. -1.
         24    2    1    2    0    0 -0.89901471757E+03 -0.10668710439E+04  0.18892263099E+04  0.23499897573E+04  0.82671172284E+02 0.  0.
        254    2    1    2    0    0  0.89901471757E+03  0.10668710439E+04  0.10818869933E+03  0.16618706722E+04  0.89647534803E+03 0.  0.
         23    2    4    4    0    0  0.10409795303E+04  0.10029421823E+04  0.19165893002E+03  0.14609595062E+04  0.90211584740E+02 0.  0.
         23    2    4    4    0    0 -0.14196481268E+03  0.63928861609E+02 -0.83470230691E+02  0.20091116592E+03  0.95692788616E+02 0.  0.
          2    1    3    3  502    0 -0.17632248858E+03 -0.21286855536E+03  0.32095832918E+03  0.42357631061E+03  0.00000000000E+00 0. -1.
         -1    1    3    3    0  502 -0.72269222899E+03 -0.85400248854E+03  0.15682679807E+04  0.19264134467E+04  0.00000000000E+00 0.  1.
         13    1    5    5    0    0  0.15344079817E+03  0.19434296236E+03  0.27392283063E+02  0.24912567658E+03  0.00000000000E+00 0. -1.
        -13    1    5    5    0    0  0.88753873208E+03  0.80859921993E+03  0.16426664696E+03  0.12118338297E+04  0.00000000000E+00 0.  1.
          2    1    6    6  503    0 -0.15474342115E+03  0.53770778354E+02 -0.64954359687E+02  0.17622681928E+03  0.00000000000E+00 0.  1.
         -2    1    6    6    0  503  0.12778608465E+02  0.10158083255E+02 -0.18515871005E+02  0.24684346635E+02  0.00000000000E+00 0. -1.
<mgrwt>
<rscale>  0 0.34792754E+04</rscale>
<asrwt>0</asrwt>
<pdfrwt beam="1">  1        2 0.15495734E+00 0.34792754E+04</pdfrwt>
<pdfrwt beam="2">  1       -1 0.46225195E+00 0.34792754E+04</pdfrwt>
<totfact> 0.62247762E-02</totfact>
</mgrwt>
</event>
<event>
12    7  0.1611233E-007  0.1253318E+04  0.7818608E-02  0.9067426E-01
         -1   -1    0    0    0  501 -0.00000000000E+00  0.00000000000E+00  0.69836710240E+03  0.69836710240E+03  0.00000000000E+00 0.  1.
          2   -1    0    0  501    0  0.00000000000E+00 -0.00000000000E+00 -0.56231411272E+03  0.56231411272E+03  0.00000000000E+00 0. -1.
         24    2    1    2    0    0  0.19141667242E+03  0.19916373609E+03 -0.52750912023E+02  0.29190434128E+03  0.78223714305E+02 0.  0.
        254    2    1    2    0    0 -0.19141667242E+03 -0.19916373609E+03  0.18880390170E+03  0.96877687384E+03  0.90916180174E+03 0.  0.
         23    2    4    4    0    0 -0.15665723705E+03  0.31651808157E+03  0.24756637507E+03  0.44092650989E+03  0.91661830545E+02 0.  0.
         23    2    4    4    0    0 -0.34759435373E+02 -0.51568181766E+03 -0.58762473371E+02  0.52785036395E+03  0.89649445212E+02 0.  0.
          2    1    3    3  502    0  0.17032993726E+03  0.17825587046E+03 -0.71593869491E+02  0.25673551571E+03  0.00000000000E+00 0. -1.
         -1    1    3    3    0  502  0.21086735163E+02  0.20907865635E+02  0.18842957468E+02  0.35168825562E+02  0.00000000000E+00 0.  1.
         13    1    5    5    0    0 -0.91719288349E+02  0.21213680046E+03  0.10850751256E+03  0.25532005453E+03  0.00000000000E+00 0. -1.
        -13    1    5    5    0    0 -0.64937948703E+02  0.10438128111E+03  0.13905886251E+03  0.18560645536E+03  0.00000000000E+00 0.  1.
          2    1    6    6  503    0 -0.33408469415E+02 -0.51648368263E+03 -0.64807283435E+02  0.52160473947E+03  0.00000000000E+00 0. -1.
         -2    1    6    6    0  503 -0.13509659582E+01  0.80186496299E+00  0.60448100645E+01  0.62456244808E+01  0.00000000000E+00 0.  1.
<mgrwt>
<rscale>  0 0.12533183E+04</rscale>
<asrwt>0</asrwt>
<pdfrwt beam="1">  1        2 0.86509863E-01 0.12533183E+04</pdfrwt>
<pdfrwt beam="2">  1       -1 0.10744109E+00 0.12533183E+04</pdfrwt>
<totfact> 0.48646185E+01</totfact>
</mgrwt>
</event>
<event>
12    7  0.1611233E-007  0.1770822E+04  0.7818608E-02  0.8721972E-01
         -1   -1    0    0    0  501 -0.00000000000E+00  0.00000000000E+00  0.35381606247E+03  0.35381606247E+03  0.00000000000E+00 0.  1.
          2   -1    0    0  501    0  0.00000000000E+00 -0.00000000000E+00 -0.22157064280E+04  0.22157064280E+04  0.00000000000E+00 0. -1.
         24    2    1    2    0    0 -0.26830769005E+02  0.65105474996E+03 -0.61817390989E+03  0.90163814122E+03  0.78868100183E+02 0.  0.
        254    2    1    2    0    0  0.26830769005E+02 -0.65105474996E+03 -0.12437164557E+04  0.16678843493E+04  0.90023074978E+03 0.  0.
         23    2    4    4    0    0 -0.14832489727E+03  0.12718191503E+03 -0.32831942892E+02  0.21496671194E+03  0.83410048003E+02 0.  0.
         23    2    4    4    0    0  0.17515566627E+03 -0.77823666500E+03 -0.12108845128E+04  0.14529176373E+04  0.91632654801E+02 0.  0.
          4    1    3    3  502    0  0.99384757861E+01  0.26937756239E+03 -0.30058530979E+03  0.40375063205E+03  0.00000000000E+00 0. -1.
         -3    1    3    3    0  502 -0.36769244791E+02  0.38167718758E+03 -0.31758860009E+03  0.49788750917E+03  0.00000000000E+00 0.  1.
         13    1    5    5    0    0 -0.13330569828E+03  0.13380323311E+03 -0.13140583540E+02  0.18933142718E+03  0.00000000000E+00 0. -1.
        -13    1    5    5    0    0 -0.15019198990E+02 -0.66213180779E+01 -0.19691359352E+02  0.25635284756E+02  0.00000000000E+00 0.  1.
          2    1    6    6  503    0  0.13049743351E+03 -0.70163904649E+03 -0.10941675201E+04  0.13063420278E+04  0.00000000000E+00 0. -1.
         -2    1    6    6    0  503  0.44658232760E+02 -0.76597618502E+02 -0.11671699273E+03  0.14657560952E+03  0.00000000000E+00 0.  1.
<mgrwt>
<rscale>  0 0.17708219E+04</rscale>
<asrwt>0</asrwt>
<pdfrwt beam="1">  1        2 0.34087791E+00 0.17708219E+04</pdfrwt>
<pdfrwt beam="2">  1       -1 0.54433240E-01 0.17708219E+04</pdfrwt>
<totfact> 0.18593203E+01</totfact>
</mgrwt>
</event>
<event>
12    7  0.1611233E-007  0.3177304E+04  0.7818608E-02  0.8194837E-01
         -1   -1    0    0    0  501 -0.00000000000E+00  0.00000000000E+00  0.10443213497E+04  0.10443213497E+04  0.00000000000E+00 0.  1.
          2   -1    0    0  501    0  0.00000000000E+00 -0.00000000000E+00 -0.24167041666E+04  0.24167041666E+04  0.00000000000E+00 0. -1.
         24    2    1    2    0    0 -0.12675815064E+04  0.72148758870E+03 -0.54840197076E+03  0.15604652917E+04  0.83665936711E+02 0.  0.
        254    2    1    2    0    0  0.12675815064E+04 -0.72148758870E+03 -0.82398084613E+03  0.19005602246E+04  0.89770680989E+03 0.  0.
         23    2    4    4    0    0  0.12201070647E+04 -0.78816030539E+03 -0.93985730733E+03  0.17324385461E+04  0.90297516897E+02 0.  0.
         23    2    4    4    0    0  0.47474441665E+02  0.66672716691E+02  0.11587646120E+03  0.16812167847E+03  0.90213473211E+02 0.  0.
          2    1    3    3  502    0 -0.12201892440E+04  0.67539586932E+03 -0.51846963762E+03  0.14878952035E+04  0.00000000000E+00 0. -1.
         -1    1    3    3    0  502 -0.47392262437E+02  0.46091719384E+02 -0.29932333140E+02  0.72570088204E+02  0.00000000000E+00 0.  1.
         13    1    5    5    0    0  0.93579217311E+03 -0.61929767841E+03 -0.76765878020E+03  0.13596089911E+04  0.00000000000E+00 0.  1.
        -13    1    5    5    0    0  0.28431489162E+03 -0.16886262698E+03 -0.17219852713E+03  0.37282955507E+03  0.00000000000E+00 0. -1.
          2    1    6    6  503    0 -0.28528499256E+01  0.71153665236E+02  0.64918189957E+02  0.96360542840E+02  0.00000000000E+00 0. -1.
         -2    1    6    6    0  503  0.50327291591E+02 -0.44809485447E+01  0.50958271246E+02  0.71761135632E+02  0.00000000000E+00 0.  1.
<mgrwt>
<rscale>  0 0.31773044E+04</rscale>
<asrwt>0</asrwt>
<pdfrwt beam="1">  1        2 0.37180064E+00 0.31773044E+04</pdfrwt>
<pdfrwt beam="2">  1       -1 0.16066482E+00 0.31773044E+04</pdfrwt>
<totfact> 0.10769847E+00</totfact>
</mgrwt>
</event>
<event>
12    7  0.1611233E-007  0.1970233E+04  0.7818608E-02  0.8620666E-01
          2   -1    0    0  501    0  0.00000000000E+00  0.00000000000E+00  0.15666067962E+04  0.15666067962E+04  0.00000000000E+00 0. -1.
         -1   -1    0    0    0  501 -0.00000000000E+00 -0.00000000000E+00 -0.61946270030E+03  0.61946270030E+03  0.00000000000E+00 0.  1.
         24    2    1    2    0    0  0.67462823305E+03  0.21264621435E+03  0.17271661429E+02  0.71185774986E+03  0.78111973720E+02 0.  0.
        254    2    1    2    0    0 -0.67462823305E+03 -0.21264621435E+03  0.92987243443E+03  0.14742117466E+04  0.89905275942E+03 0.  0.
         23    2    4    4    0    0 -0.36947995003E+03 -0.43681659388E+03  0.14453038225E+03  0.59723645947E+03  0.92077070802E+02 0.  0.
         23    2    4    4    0    0 -0.30514828302E+03  0.22417037953E+03  0.78534205218E+03  0.87697528714E+03  0.94634463272E+02 0.  0.
          2    1    3    3  502    0  0.19968262974E+03  0.61600120474E+02  0.40812770434E+02  0.21291643828E+03  0.00000000000E+00 0. -1.
         -1    1    3    3    0  502  0.47494560331E+03  0.15104609388E+03 -0.23541109005E+02  0.49894131157E+03  0.00000000000E+00 0.  1.
         13    1    5    5    0    0 -0.27785460211E+03 -0.37055992958E+03  0.14085489146E+03  0.48410530029E+03  0.00000000000E+00 0. -1.
        -13    1    5    5    0    0 -0.91625347915E+02 -0.66256664304E+02  0.36754907980E+01  0.11313115918E+03  0.00000000000E+00 0.  1.
          4    1    6    6  503    0 -0.24020083047E+03  0.21895624256E+03  0.64629615042E+03  0.72342034058E+03  0.00000000000E+00 0. -1.
         -4    1    6    6    0  503 -0.64947452546E+02  0.52141369747E+01  0.13904590175E+03  0.15355494655E+03  0.00000000000E+00 0.  1.
<mgrwt>
<rscale>  0 0.19702330E+04</rscale>
<asrwt>0</asrwt>
<pdfrwt beam="1">  1        2 0.24101643E+00 0.19702330E+04</pdfrwt>
<pdfrwt beam="2">  1       -1 0.95301954E-01 0.19702330E+04</pdfrwt>
<totfact> 0.13133028E+01</totfact>
</mgrwt>
</event>
<event>
12    7  0.1611233E-007  0.1510895E+04  0.7818608E-02  0.8877240E-01
          2   -1    0    0  501    0  0.00000000000E+00  0.00000000000E+00  0.33669763759E+04  0.33669763759E+04  0.00000000000E+00 0. -1.
         -1   -1    0    0    0  501 -0.00000000000E+00 -0.00000000000E+00 -0.16949945139E+03  0.16949945139E+03  0.00000000000E+00 0.  1.
         24    2    1    2    0    0 -0.16523517519E+03 -0.13101337267E+01 -0.23143991894E+02  0.18301001929E+03  0.75184062344E+02 0.  0.
        254    2    1    2    0    0  0.16523517519E+03  0.13101337267E+01  0.32206209164E+04  0.33534658080E+04  0.91979859675E+03 0.  0.
         23    2    4    4    0    0 -0.28723534700E+03  0.25993028893E+03  0.11728978503E+04  0.12386342505E+04  0.91964882780E+02 0.  0.
         23    2    4    4    0    0  0.45247052219E+03 -0.25862015520E+03  0.20477230661E+04  0.21148315575E+04  0.87913610196E+02 0.  0.
          4    1    3    3  502    0 -0.86260160150E+02  0.24432951661E+01  0.25742906381E+02  0.90052663199E+02  0.00000000000E+00 0. -1.
         -3    1    3    3    0  502 -0.78975015042E+02 -0.37534288927E+01 -0.48886898275E+02  0.92957356096E+02  0.00000000000E+00 0.  1.
         13    1    5    5    0    0 -0.19351398379E+03  0.19196917356E+03  0.68618481867E+03  0.73834235345E+03  0.00000000000E+00 0.  1.
        -13    1    5    5    0    0 -0.93721363211E+02  0.67961115368E+02  0.48671303161E+03  0.50029189705E+03  0.00000000000E+00 0. -1.
          4    1    6    6  503    0  0.75875458414E+02 -0.37163787315E+02  0.47970975096E+03  0.48709308909E+03  0.00000000000E+00 0. -1.
         -4    1    6    6    0  503  0.37659506378E+03 -0.22145636789E+03  0.15680133152E+04  0.16277384684E+04  0.00000000000E+00 0.  1.
<mgrwt>
<rscale>  0 0.15108946E+04</rscale>
<asrwt>0</asrwt>
<pdfrwt beam="1">  1        2 0.51799632E+00 0.15108946E+04</pdfrwt>
<pdfrwt beam="2">  1       -1 0.26076841E-01 0.15108946E+04</pdfrwt>
<totfact> 0.14549665E+01</totfact>
</mgrwt>
</event>
<event>
12    7  0.1611233E-007  0.2339948E+04  0.7818608E-02  0.8462334E-01
          2   -1    0    0  501    0  0.00000000000E+00  0.00000000000E+00  0.22305033632E+04  0.22305033632E+04  0.00000000000E+00 0. -1.
         -1   -1    0    0    0  501 -0.00000000000E+00 -0.00000000000E+00 -0.61369092664E+03  0.61369092664E+03  0.00000000000E+00 0.  1.
         24    2    1    2    0    0  0.19448346134E+03  0.26647706434E+03 -0.45190369609E+03  0.56525615260E+03  0.80397294445E+02 0.  0.
        254    2    1    2    0    0 -0.19448346134E+03 -0.26647706434E+03  0.20687161327E+04  0.22789381373E+04  0.89729524315E+03 0.  0.
         23    2    4    4    0    0 -0.22580830139E+03  0.27156588987E+03  0.51069102822E+03  0.62779414082E+03  0.92643053881E+02 0.  0.
         23    2    4    4    0    0  0.31324840050E+02 -0.53804295422E+03  0.15580251045E+04  0.16511439965E+04  0.91448371795E+02 0.  0.
          4    1    3    3  502    0  0.49573030071E+02  0.50025693949E+02 -0.15522174405E+03  0.17045188527E+03  0.00000000000E+00 0. -1.
         -3    1    3    3    0  502  0.14491043127E+03  0.21645137039E+03 -0.29668195204E+03  0.39480426733E+03  0.00000000000E+00 0.  1.
         13    1    5    5    0    0 -0.16915897104E+03  0.16292449133E+03  0.27104204248E+03  0.35864039950E+03  0.00000000000E+00 0. -1.
        -13    1    5    5    0    0 -0.56649330346E+02  0.10864139855E+03  0.23964898573E+03  0.26915374133E+03  0.00000000000E+00 0.  1.
          1    1    6    6  503    0  0.34497476623E+02 -0.53644013654E+03  0.15071253863E+04  0.16001203161E+04  0.00000000000E+00 0. -1.
         -1    1    6    6    0  503 -0.31726365733E+01 -0.16028176783E+01  0.50899718157E+02  0.51023680343E+02  0.00000000000E+00 0.  1.
<mgrwt>
<rscale>  0 0.23399484E+04</rscale>
<asrwt>0</asrwt>
<pdfrwt beam="1">  1        2 0.34315436E+00 0.23399484E+04</pdfrwt>
<pdfrwt beam="2">  1       -1 0.94413989E-01 0.23399484E+04</pdfrwt>
<totfact> 0.55403140E+00</totfact>
</mgrwt>
</event>
<event>
12    7  0.1611233E-007  0.2042828E+04  0.7818608E-02  0.8586855E-01
          2   -1    0    0  501    0  0.00000000000E+00  0.00000000000E+00  0.20128534931E+04  0.20128534931E+04  0.00000000000E+00 0. -1.
         -1   -1    0    0    0  501 -0.00000000000E+00 -0.00000000000E+00 -0.51831231379E+03  0.51831231379E+03  0.00000000000E+00 0.  1.
         24    2    1    2    0    0  0.70021354176E+03  0.48178468296E+03  0.49457030709E+03  0.98663567085E+03  0.80216416965E+02 0.  0.
        254    2    1    2    0    0 -0.70021354176E+03 -0.48178468296E+03  0.99997087218E+03  0.15445301360E+04  0.81438081448E+03 0.  0.
         23    2    4    4    0    0 -0.77272856938E+03 -0.28642680172E+03  0.10218828581E+04  0.13159582796E+04  0.91388529346E+02 0.  0.
         23    2    4    4    0    0  0.72515027628E+02 -0.19535788124E+03 -0.21911985905E+02  0.22857185640E+03  0.91333605076E+02 0.  0.
          4    1    3    3  502    0  0.42252643793E+03  0.27917827750E+03  0.25005557368E+03  0.56479809782E+03  0.00000000000E+00 0. -1.
         -3    1    3    3    0  502  0.27768710383E+03  0.20260640546E+03  0.24451473340E+03  0.42183757303E+03  0.00000000000E+00 0.  1.
         13    1    5    5    0    0 -0.15500546681E+03 -0.31748764479E+02  0.24013049134E+03  0.28757143749E+03  0.00000000000E+00 0.  1.
        -13    1    5    5    0    0 -0.61772310257E+03 -0.25467803724E+03  0.78175236674E+03  0.10283868421E+04  0.00000000000E+00 0. -1.
          3    1    6    6  503    0  0.58865757185E+02 -0.40901148799E+02 -0.15752657917E+02  0.73390922964E+02  0.00000000000E+00 0. -1.
         -3    1    6    6    0  503  0.13649270443E+02 -0.15445673244E+03 -0.61593279881E+01  0.15518093344E+03  0.00000000000E+00 0.  1.
<mgrwt>
<rscale>  0 0.20428282E+04</rscale>
<asrwt>0</asrwt>
<pdfrwt beam="1">  1        2 0.30966976E+00 0.20428282E+04</pdfrwt>
<pdfrwt beam="2">  1       -1 0.79740357E-01 0.20428282E+04</pdfrwt>
<totfact> 0.10880445E+01</totfact>
</mgrwt>
</event>
<event>
12    7  0.1611233E-007  0.1706058E+04  0.7818608E-02  0.8757917E-01
          2   -1    0    0  501    0  0.00000000000E+00  0.00000000000E+00  0.63786112476E+03  0.63786112476E+03  0.00000000000E+00 0. -1.
         -1   -1    0    0    0  501 -0.00000000000E+00 -0.00000000000E+00 -0.11407788176E+04  0.11407788176E+04  0.00000000000E+00 0.  1.
         24    2    1    2    0    0  0.17728210133E+03 -0.95357447138E+02 -0.77689843014E+03  0.80669263021E+03  0.81607859297E+02 0.  0.
        254    2    1    2    0    0 -0.17728210133E+03  0.95357447138E+02  0.27398073728E+03  0.97194731218E+03  0.91054607081E+03 0.  0.
         23    2    4    4    0    0 -0.45530329131E+03  0.11056601753E+03  0.42785225522E+03  0.64080855213E+03  0.89733588326E+02 0.  0.
         23    2    4    4    0    0  0.27802118999E+03 -0.15208570389E+02 -0.15387151794E+03  0.33113876005E+03  0.91920355080E+02 0.  0.
          2    1    3    3  502    0  0.41481542032E+02  0.12275282543E+02 -0.18204725559E+03  0.18711655234E+03  0.00000000000E+00 0. -1.
         -1    1    3    3    0  502  0.13580055930E+03 -0.10763272968E+03 -0.59485117456E+03  0.61957607787E+03  0.00000000000E+00 0.  1.
         13    1    5    5    0    0 -0.72196712407E+02  0.39690525132E+02  0.42024585391E+02  0.92486587378E+02  0.00000000000E+00 0. -1.
        -13    1    5    5    0    0 -0.38310657891E+03  0.70875492395E+02  0.38582766983E+03  0.54832196475E+03  0.00000000000E+00 0.  1.
          2    1    6    6  503    0  0.18043195330E+03  0.31041132223E+02 -0.77189135450E+02  0.19868921534E+03  0.00000000000E+00 0. -1.
         -2    1    6    6    0  503  0.97589236684E+02 -0.46249702611E+02 -0.76682382487E+02  0.13244954470E+03  0.00000000000E+00 0.  1.
<mgrwt>
<rscale>  0 0.17060580E+04</rscale>
<asrwt>0</asrwt>
<pdfrwt beam="1">  1        2 0.98132483E-01 0.17060580E+04</pdfrwt>
<pdfrwt beam="2">  1       -1 0.17550443E+00 0.17060580E+04</pdfrwt>
<totfact> 0.11212652E+01</totfact>
</mgrwt>
</event>
<event>
12    7  0.1611233E-007  0.1779603E+04  0.7818608E-02  0.8717222E-01
         -1   -1    0    0    0  501 -0.00000000000E+00  0.00000000000E+00  0.44823804129E+03  0.44823804129E+03  0.00000000000E+00 0.  1.
          2   -1    0    0  501    0  0.00000000000E+00 -0.00000000000E+00 -0.17663533150E+04  0.17663533150E+04  0.00000000000E+00 0. -1.
         24    2    1    2    0    0 -0.16226485847E+03 -0.23592044802E+03  0.24630796803E+03  0.38613798633E+03  0.80290642571E+02 0.  0.
        254    2    1    2    0    0  0.16226485847E+03  0.23592044802E+03 -0.15644232418E+04  0.18284533700E+04  0.90212710013E+03 0.  0.
         23    2    4    4    0    0  0.24019883439E+02  0.35830646654E+03 -0.15794696517E+04  0.16223406775E+04  0.91128559003E+02 0.  0.
         23    2    4    4    0    0  0.13824497503E+03 -0.12238601852E+03  0.15046409975E+02  0.20611269252E+03  0.90366127024E+02 0.  0.
          2    1    3    3  502    0 -0.80754523250E+02 -0.65224480314E+02  0.12008581497E+03  0.15873288511E+03  0.00000000000E+00 0. -1.
         -1    1    3    3    0  502 -0.81510335219E+02 -0.17069596771E+03  0.12622215305E+03  0.22740510122E+03  0.00000000000E+00 0.  1.
         13    1    5    5    0    0 -0.34522550447E+02  0.10783306850E+03 -0.47125398954E+03  0.48466493560E+03  0.00000000000E+00 0. -1.
        -13    1    5    5    0    0  0.58542433886E+02  0.25047339804E+03 -0.11082156622E+04  0.11376757419E+04  0.00000000000E+00 0.  1.
          4    1    6    6  503    0  0.39133901253E+02 -0.44342023448E+02  0.47500233067E+02  0.75854791623E+02  0.00000000000E+00 0.  1.
         -4    1    6    6    0  503  0.99111073776E+02 -0.78043995073E+02 -0.32453823092E+02  0.13025790089E+03  0.00000000000E+00 0. -1.
<mgrwt>
<rscale>  0 0.17796030E+04</rscale>
<asrwt>0</asrwt>
<pdfrwt beam="1">  1        2 0.27174667E+00 0.17796030E+04</pdfrwt>
<pdfrwt beam="2">  1       -1 0.68959698E-01 0.17796030E+04</pdfrwt>
<totfact> 0.20642428E+01</totfact>
</mgrwt>
</event>
<event>
12    7  0.1611233E-007  0.1462061E+04  0.7818608E-02  0.8910081E-01
          2   -1    0    0  501    0  0.00000000000E+00  0.00000000000E+00  0.15270957304E+04  0.15270957304E+04  0.00000000000E+00 0. -1.
         -1   -1    0    0    0  501 -0.00000000000E+00 -0.00000000000E+00 -0.34994912981E+03  0.34994912981E+03  0.00000000000E+00 0.  1.
         24    2    1    2    0    0 -0.14317021467E+03 -0.11125667180E+03 -0.13244115623E+03  0.23837583959E+03  0.80041387100E+02 0.  0.
        254    2    1    2    0    0  0.14317021467E+03  0.11125667180E+03  0.13095877568E+04  0.16386690206E+04  0.96816336892E+03 0.  0.
         23    2    4    4    0    0  0.35565599491E+03  0.41377992741E+03  0.10178125663E+04  0.11584039436E+04  0.90841958561E+02 0.  0.
         23    2    4    4    0    0 -0.21248578024E+03 -0.30252325561E+03  0.29177519048E+03  0.48026507696E+03  0.94081110622E+02 0.  0.
          2    1    3    3  502    0 -0.33369182281E+02 -0.66020659488E+02 -0.24584904707E+02  0.77952853345E+02  0.00000000000E+00 0. -1.
         -1    1    3    3    0  502 -0.10980103239E+03 -0.45236012316E+02 -0.10785625153E+03  0.16042298625E+03  0.00000000000E+00 0.  1.
         13    1    5    5    0    0  0.25105931866E+03  0.34659299370E+03  0.76104264478E+03  0.87312278171E+03  0.00000000000E+00 0.  1.
        -13    1    5    5    0    0  0.10459667625E+03  0.67186933716E+02  0.25676992155E+03  0.28528116194E+03  0.00000000000E+00 0. -1.
          3    1    6    6  503    0 -0.13471376353E+03 -0.16508814108E+03  0.11108705643E+03  0.24029612255E+03  0.00000000000E+00 0. -1.
         -3    1    6    6    0  503 -0.77772016714E+02 -0.13743511453E+03  0.18068813405E+03  0.23996895440E+03  0.00000000000E+00 0.  1.
<mgrwt>
<rscale>  0 0.14620613E+04</rscale>
<asrwt>0</asrwt>
<pdfrwt beam="1">  1        2 0.23493780E+00 0.14620613E+04</pdfrwt>
<pdfrwt beam="2">  1       -1 0.53838328E-01 0.14620613E+04</pdfrwt>
<totfact> 0.47109996E+01</totfact>
</mgrwt>
</event>
<event>
12    7  0.1611233E-007  0.1472067E+04  0.7818608E-02  0.8903244E-01
          2   -1    0    0  501    0  0.00000000000E+00  0.00000000000E+00  0.59331519835E+03  0.59331519835E+03  0.00000000000E+00 0. -1.
         -1   -1    0    0    0  501 -0.00000000000E+00 -0.00000000000E+00 -0.91308170321E+03  0.91308170321E+03  0.00000000000E+00 0.  1.
         24    2    1    2    0    0  0.33606252346E+03 -0.16585240085E+03  0.15895159643E+03  0.41465375456E+03  0.78911897831E+02 0.  0.
        254    2    1    2    0    0 -0.33606252346E+03  0.16585240085E+03 -0.47871810130E+03  0.10917431470E+04  0.90680044110E+03 0.  0.
         23    2    4    4    0    0 -0.89434481408E+02 -0.36478907704E+03 -0.15125153587E+03  0.41511937262E+03  0.91528515930E+02 0.  0.
         23    2    4    4    0    0 -0.24662804205E+03  0.53064147789E+03 -0.32746656543E+03  0.67662377438E+03  0.90441204107E+02 0.  0.
          4    1    3    3  502    0  0.29756898988E+03 -0.17070185227E+03  0.13278292389E+03  0.36785558441E+03  0.00000000000E+00 0. -1.
         -1    1    3    3    0  502  0.38493533580E+02  0.48494514170E+01  0.26168672544E+02  0.46798170148E+02  0.00000000000E+00 0.  1.
         13    1    5    5    0    0 -0.72027632651E+02 -0.32131654049E+03 -0.16213646860E+03  0.36704295867E+03  0.00000000000E+00 0. -1.
        -13    1    5    5    0    0 -0.17406848758E+02 -0.43472536548E+02  0.10884932732E+02  0.48076413948E+02  0.00000000000E+00 0.  1.
          3    1    6    6  503    0 -0.25261549526E+03  0.52662187747E+03 -0.31903477303E+03  0.66552864453E+03  0.00000000000E+00 0. -1.
         -3    1    6    6    0  503  0.59874532133E+01  0.40196004181E+01 -0.84317923956E+01  0.11095129855E+02  0.00000000000E+00 0.  1.
<mgrwt>
<rscale>  0 0.14720669E+04</rscale>
<asrwt>0</asrwt>
<pdfrwt beam="1">  1        2 0.91279262E-01 0.14720669E+04</pdfrwt>
<pdfrwt beam="2">  1       -1 0.14047411E+00 0.14720669E+04</pdfrwt>
<totfact> 0.23112877E+01</totfact>
</mgrwt>
</event>
<event>
12    7  0.1611233E-007  0.1162540E+04  0.7818608E-02  0.9146292E-01
          2   -1    0    0  501    0  0.00000000000E+00  0.00000000000E+00  0.79584263441E+03  0.79584263441E+03  0.00000000000E+00 0. -1.
         -1   -1    0    0    0  501 -0.00000000000E+00 -0.00000000000E+00 -0.42454993447E+03  0.42454993447E+03  0.00000000000E+00 0.  1.
         24    2    1    2    0    0  0.21580120551E+03  0.24362706202E+02  0.24982790150E+02  0.23287336156E+03  0.80263073517E+02 0.  0.
        254    2    1    2    0    0 -0.21580120551E+03 -0.24362706202E+02  0.34630990979E+03  0.98751920732E+03  0.89894378548E+03 0.  0.
         23    2    4    4    0    0 -0.24156143768E+03  0.26219374387E+02  0.63176709685E+03  0.68399834933E+03  0.98410840131E+02 0.  0.
         23    2    4    4    0    0  0.25760232175E+02 -0.50582080589E+02 -0.28545718706E+03  0.30352085799E+03  0.86121827382E+02 0.  0.
          2    1    3    3  502    0  0.45578429139E+02  0.94165589008E+01  0.39957787113E+02  0.61340765688E+02  0.00000000000E+00 0. -1.
         -1    1    3    3    0  502  0.17022277637E+03  0.14946147301E+02 -0.14974996963E+02  0.17153259587E+03  0.00000000000E+00 0.  1.
         13    1    5    5    0    0 -0.13986373246E+03 -0.15185318505E+02  0.45161561545E+03  0.47302126979E+03  0.00000000000E+00 0. -1.
        -13    1    5    5    0    0 -0.10169770522E+03  0.41404692893E+02  0.18015148141E+03  0.21097707954E+03  0.00000000000E+00 0.  1.
          1    1    6    6  503    0 -0.18963938851E+02  0.11946821880E+02 -0.10508787354E+03  0.10745147134E+03  0.00000000000E+00 0. -1.
         -1    1    6    6    0  503  0.44724171026E+02 -0.62528902469E+02 -0.18036931352E+03  0.19606938664E+03  0.00000000000E+00 0.  1.
<mgrwt>
<rscale>  0 0.11625402E+04</rscale>
<asrwt>0</asrwt>
<pdfrwt beam="1">  1        2 0.12243733E+00 0.11625402E+04</pdfrwt>
<pdfrwt beam="2">  1       -1 0.65315375E-01 0.11625402E+04</pdfrwt>
<totfact> 0.93092056E+01</totfact>
</mgrwt>
</event>
<event>
12    7  0.1611233E-007  0.1858830E+04  0.7818608E-02  0.8675625E-01
          2   -1    0    0  501    0  0.00000000000E+00  0.00000000000E+00  0.21864939897E+04  0.21864939897E+04  0.00000000000E+00 0. -1.
         -1   -1    0    0    0  501 -0.00000000000E+00 -0.00000000000E+00 -0.39506721757E+03  0.39506721757E+03  0.00000000000E+00 0.  1.
         24    2    1    2    0    0 -0.73903213524E+02 -0.45845194745E+02 -0.28996989465E+03  0.31292298140E+03  0.79213544532E+02 0.  0.
        254    2    1    2    0    0  0.73903213524E+02  0.45845194745E+02  0.20813966668E+04  0.22686382259E+04  0.89830053353E+03 0.  0.
         23    2    4    4    0    0  0.40795777000E+03  0.19289206828E+03  0.70796573544E+03  0.84467271895E+03  0.92841948863E+02 0.  0.
         23    2    4    4    0    0 -0.33405455647E+03 -0.14704687353E+03  0.13734309314E+04  0.14239655069E+04  0.90277417064E+02 0.  0.
          2    1    3    3  502    0 -0.43161693616E+02 -0.41555517392E+02 -0.76312070786E+02  0.97022291094E+02  0.00000000000E+00 0. -1.
         -1    1    3    3    0  502 -0.30741519908E+02 -0.42896773532E+01 -0.21365782386E+03  0.21590069031E+03  0.00000000000E+00 0.  1.
         13    1    5    5    0    0  0.31043233425E+03  0.18128501150E+03  0.51371996752E+03  0.62700932574E+03  0.00000000000E+00 0.  1.
        -13    1    5    5    0    0  0.97525435744E+02  0.11607056778E+02  0.19424576793E+03  0.21766339321E+03  0.00000000000E+00 0. -1.
          3    1    6    6  503    0 -0.98187342169E+01 -0.28456700888E+02  0.13475959652E+03  0.13808091911E+03  0.00000000000E+00 0. -1.
         -3    1    6    6    0  503 -0.32423582225E+03 -0.11859017264E+03  0.12386713348E+04  0.12858845878E+04  0.00000000000E+00 0.  1.
<mgrwt>
<rscale>  0 0.18588298E+04</rscale>
<asrwt>0</asrwt>
<pdfrwt beam="1">  1        2 0.33638368E+00 0.18588298E+04</pdfrwt>
<pdfrwt beam="2">  1       -1 0.60779573E-01 0.18588298E+04</pdfrwt>
<totfact> 0.15437764E+01</totfact>
</mgrwt>
</event>
<event>
12    7  0.1611233E-007  0.2077057E+04  0.7818608E-02  0.8571418E-01
         -1   -1    0    0    0  501 -0.00000000000E+00  0.00000000000E+00  0.20214166315E+04  0.20214166315E+04  0.00000000000E+00 0.  1.
          2   -1    0    0  501    0  0.00000000000E+00 -0.00000000000E+00 -0.53355708451E+03  0.53355708451E+03  0.00000000000E+00 0. -1.
         24    2    1    2    0    0 -0.42009912593E+03 -0.30472699423E+03  0.14195076159E+04  0.15135065202E+04  0.79738940846E+02 0.  0.
        254    2    1    2    0    0  0.42009912593E+03  0.30472699423E+03  0.68351931145E+02  0.10414671958E+04  0.90035555021E+03 0.  0.
         23    2    4    4    0    0  0.33848590575E+03  0.42126725100E+03 -0.30834934221E+03  0.62866007857E+03  0.89974287350E+02 0.  0.
         23    2    4    4    0    0  0.81613220180E+02 -0.11654025678E+03  0.37670127335E+03  0.41280711722E+03  0.90903891708E+02 0.  0.
          2    1    3    3  502    0 -0.28336257194E+02 -0.49163357851E+02  0.13274634948E+03  0.14436610588E+03  0.00000000000E+00 0. -1.
         -1    1    3    3    0  502 -0.39176286873E+03 -0.25556363638E+03  0.12867612664E+04  0.13691404143E+04  0.00000000000E+00 0.  1.
         13    1    5    5    0    0  0.32250275275E+03  0.36077858069E+03 -0.25825448676E+03  0.54851124851E+03  0.00000000000E+00 0. -1.
        -13    1    5    5    0    0  0.15983152998E+02  0.60488670319E+02 -0.50094855447E+02  0.80148830054E+02  0.00000000000E+00 0.  1.
          1    1    6    6  503    0  0.53914823075E+02 -0.11271578336E+03  0.35797619216E+03  0.37915512672E+03  0.00000000000E+00 0. -1.
         -1    1    6    6    0  503  0.27698397105E+02 -0.38244734212E+01  0.18725081188E+02  0.33651990500E+02  0.00000000000E+00 0.  1.
<mgrwt>
<rscale>  0 0.20770567E+04</rscale>
<asrwt>0</asrwt>
<pdfrwt beam="1">  1        2 0.82085706E-01 0.20770567E+04</pdfrwt>
<pdfrwt beam="2">  1       -1 0.31098717E+00 0.20770567E+04</pdfrwt>
<totfact> 0.16871919E+00</totfact>
</mgrwt>
</event>
<event>
12    7  0.1611233E-007  0.3056449E+04  0.7818608E-02  0.8227793E-01
         -1   -1    0    0    0  501 -0.00000000000E+00  0.00000000000E+00  0.62246632743E+03  0.62246632743E+03  0.00000000000E+00 0.  1.
          2   -1    0    0  501    0  0.00000000000E+00 -0.00000000000E+00 -0.37519633166E+04  0.37519633166E+04  0.00000000000E+00 0. -1.
         24    2    1    2    0    0 -0.25561808939E+03 -0.10052034030E+04 -0.27739177411E+04  0.29625788491E+04  0.80494184888E+02 0.  0.
        254    2    1    2    0    0  0.25561808939E+03  0.10052034030E+04 -0.35557924808E+03  0.14118507949E+04  0.88944453252E+03 0.  0.
         23    2    4    4    0    0  0.50056145514E+03  0.96256546706E+03 -0.35840297254E+03  0.11462966284E+04  0.91919643306E+02 0.  0.
         23    2    4    4    0    0 -0.24494336575E+03  0.42637935959E+02  0.28237244541E+01  0.26555416653E+03  0.93251251629E+02 0.  0.
          2    1    3    3  502    0 -0.19581729734E+03 -0.87701714022E+03 -0.23737611042E+04  0.25381578473E+04  0.00000000000E+00 0. -1.
         -1    1    3    3    0  502 -0.59800792053E+02 -0.12818626280E+03 -0.40015663698E+03  0.42442100186E+03  0.00000000000E+00 0.  1.
         13    1    5    5    0    0  0.10176242570E+03  0.16616366121E+03 -0.30701324522E+02  0.19725243957E+03  0.00000000000E+00 0.  1.
        -13    1    5    5    0    0  0.39879902944E+03  0.79640180585E+03 -0.32770164802E+03  0.94904418883E+03  0.00000000000E+00 0. -1.
          1    1    6    6  503    0 -0.23971243733E+03  0.21181273947E+02  0.13498196516E+02  0.24102468812E+03  0.00000000000E+00 0. -1.
         -1    1    6    6    0  503 -0.52309284241E+01  0.21456662012E+02 -0.10674472062E+02  0.24529478402E+02  0.00000000000E+00 0.  1.
<mgrwt>
<rscale>  0 0.30564495E+04</rscale>
<asrwt>0</asrwt>
<pdfrwt beam="1">  1        2 0.57722513E+00 0.30564495E+04</pdfrwt>
<pdfrwt beam="2">  1       -1 0.95764049E-01 0.30564495E+04</pdfrwt>
<totfact> 0.54291587E-01</totfact>
</mgrwt>
</event>
<event>
12    7  0.1611233E-007  0.1684571E+04  0.7818608E-02  0.8770213E-01
          2   -1    0    0  501    0  0.00000000000E+00  0.00000000000E+00  0.65593633798E+03  0.65593633798E+03  0.00000000000E+00 0. -1.
         -1   -1    0    0    0  501 -0.00000000000E+00 -0.00000000000E+00 -0.10815763302E+04  0.10815763302E+04  0.00000000000E+00 0.  1.
         24    2    1    2    0    0 -0.35754449726E+03 -0.25606348446E+02 -0.64735168432E+03  0.74221079550E+03  0.57609974533E+02 0.  0.
        254    2    1    2    0    0  0.35754449726E+03  0.25606348446E+02  0.22171169208E+03  0.99530187270E+03  0.90165181240E+03 0.  0.
         23    2    4    4    0    0 -0.28729318687E+03 -0.62653317586E+02  0.12413938333E+03  0.33080174563E+03  0.86927527252E+02 0.  0.
         23    2    4    4    0    0  0.64483768413E+03  0.88259666032E+02  0.97572308741E+02  0.66450012707E+03  0.91840382859E+02 0.  0.
          4    1    3    3  502    0 -0.56159582041E+02 -0.20366726095E+02 -0.13755224269E+03  0.14996440130E+03  0.00000000000E+00 0. -1.
         -3    1    3    3    0  502 -0.30138491522E+03 -0.52396223511E+01 -0.50979944163E+03  0.59224639421E+03  0.00000000000E+00 0.  1.
         13    1    5    5    0    0 -0.26835380385E+03 -0.54545348931E+02  0.85269765465E+02  0.28680985345E+03  0.00000000000E+00 0. -1.
        -13    1    5    5    0    0 -0.18939383013E+02 -0.81079686554E+01  0.38869617869E+02  0.43991892184E+02  0.00000000000E+00 0.  1.
          2    1    6    6  503    0  0.58899341943E+03  0.74146959864E+02  0.62165940602E+02  0.59688828432E+03  0.00000000000E+00 0. -1.
         -2    1    6    6    0  503  0.55844264695E+02  0.14112706168E+02  0.35406368139E+02  0.67611842746E+02  0.00000000000E+00 0.  1.
<mgrwt>
<rscale>  0 0.16845714E+04</rscale>
<asrwt>0</asrwt>
<pdfrwt beam="1">  1        2 0.10091328E+00 0.16845714E+04</pdfrwt>
<pdfrwt beam="2">  1       -1 0.16639636E+00 0.16845714E+04</pdfrwt>
<totfact> 0.12656908E+01</totfact>
</mgrwt>
</event>
<event>
12    7  0.1611233E-007  0.1283358E+04  0.7818608E-02  0.9042867E-01
         -1   -1    0    0    0  501 -0.00000000000E+00  0.00000000000E+00  0.38798311695E+03  0.38798311695E+03  0.00000000000E+00 0.  1.
          2   -1    0    0  501    0  0.00000000000E+00 -0.00000000000E+00 -0.10612628191E+04  0.10612628191E+04  0.00000000000E+00 0. -1.
         24    2    1    2    0    0 -0.30146675859E+03 -0.13576422815E+03 -0.19681426318E+03  0.39317062031E+03  0.80827905446E+02 0.  0.
        254    2    1    2    0    0  0.30146675859E+03  0.13576422815E+03 -0.47646543895E+03  0.10560753157E+04  0.88258802722E+03 0.  0.
         23    2    4    4    0    0 -0.60359942978E+02 -0.14431572205E+03  0.17725615439E+03  0.25306273807E+03  0.90280976856E+02 0.  0.
         23    2    4    4    0    0  0.36182670157E+03  0.28007995020E+03 -0.65372159334E+03  0.80301257767E+03  0.90077399037E+02 0.  0.
          2    1    3    3  502    0 -0.12342965280E+02  0.10338663418E+02 -0.13123944096E+02  0.20771968174E+02  0.00000000000E+00 0. -1.
         -1    1    3    3    0  502 -0.28912379331E+03 -0.14610289157E+03 -0.18369031908E+03  0.37239865213E+03  0.00000000000E+00 0.  1.
         13    1    5    5    0    0 -0.65360085695E+02 -0.11847709053E+03  0.18151864249E+03  0.22640180952E+03  0.00000000000E+00 0. -1.
        -13    1    5    5    0    0  0.50001427175E+01 -0.25838631521E+02 -0.42624881031E+01  0.26660928546E+02  0.00000000000E+00 0.  1.
          2    1    6    6  503    0  0.34233552814E+03  0.23005491250E+03 -0.57066582956E+03  0.70411530705E+03  0.00000000000E+00 0. -1.
         -2    1    6    6    0  503  0.19491173431E+02  0.50025037701E+02 -0.83055763774E+02  0.98897270614E+02  0.00000000000E+00 0.  1.
<mgrwt>
<rscale>  0 0.12833582E+04</rscale>
<asrwt>0</asrwt>
<pdfrwt beam="1">  1        2 0.16327120E+00 0.12833582E+04</pdfrwt>
<pdfrwt beam="2">  1       -1 0.59689711E-01 0.12833582E+04</pdfrwt>
<totfact> 0.73346464E+01</totfact>
</mgrwt>
</event>
<event>
12    7  0.1611233E-007  0.1846726E+04  0.7818608E-02  0.8681838E-01
         -1   -1    0    0    0  501 -0.00000000000E+00  0.00000000000E+00  0.34682885694E+03  0.34682885694E+03  0.00000000000E+00 0.  1.
          2   -1    0    0  501    0  0.00000000000E+00 -0.00000000000E+00 -0.24582711665E+04  0.24582711665E+04  0.00000000000E+00 0. -1.
         24    2    1    2    0    0 -0.20673006505E+03 -0.87887835909E+01 -0.18301037459E+04  0.18434842869E+04  0.79624321419E+02 0.  0.
        254    2    1    2    0    0  0.20673006505E+03  0.87887835909E+01 -0.28133856368E+03  0.96161573662E+03  0.89595696046E+03 0.  0.
         23    2    4    4    0    0  0.47160865250E+03 -0.13154237427E+03 -0.38656073560E+03  0.63113640663E+03  0.95842809506E+02 0.  0.
         23    2    4    4    0    0 -0.26487858744E+03  0.14033115787E+03  0.10522217192E+03  0.33047932999E+03  0.91057026826E+02 0.  0.
          4    1    3    3  502    0 -0.93451044681E+02 -0.38696640929E+02 -0.10103934442E+04  0.10154434695E+04  0.00000000000E+00 0. -1.
         -3    1    3    3    0  502 -0.11327902037E+03  0.29907857338E+02 -0.81971030174E+03  0.82804081733E+03  0.00000000000E+00 0.  1.
         13    1    5    5    0    0  0.13718198588E+02  0.10608583391E+02 -0.25948892545E+02  0.31210191258E+02  0.00000000000E+00 0.  1.
        -13    1    5    5    0    0  0.45789045391E+03 -0.14215095766E+03 -0.36061184305E+03  0.59992621538E+03  0.00000000000E+00 0. -1.
          1    1    6    6  503    0 -0.23923021958E+03  0.14329661142E+03  0.11660656754E+03  0.30226165552E+03  0.00000000000E+00 0. -1.
         -1    1    6    6    0  503 -0.25648367864E+02 -0.29654535499E+01 -0.11384395625E+02  0.28217674472E+02  0.00000000000E+00 0.  1.
<mgrwt>
<rscale>  0 0.18467262E+04</rscale>
<asrwt>0</asrwt>
<pdfrwt beam="1">  1        2 0.37819557E+00 0.18467262E+04</pdfrwt>
<pdfrwt beam="2">  1       -1 0.53358285E-01 0.18467262E+04</pdfrwt>
<totfact> 0.13975201E+01</totfact>
</mgrwt>
</event>
<event>
12    7  0.1611233E-007  0.2474612E+04  0.7818608E-02  0.8412086E-01
          2   -1    0    0  501    0  0.00000000000E+00  0.00000000000E+00  0.29123375129E+04  0.29123375129E+04  0.00000000000E+00 0. -1.
         -1   -1    0    0    0  501 -0.00000000000E+00 -0.00000000000E+00 -0.52566919006E+03  0.52566919006E+03  0.00000000000E+00 0.  1.
         24    2    1    2    0    0 -0.17576703632E+03 -0.79733967072E+03  0.62214665753E+02  0.82308939328E+03  0.83431907168E+02 0.  0.
        254    2    1    2    0    0  0.17576703632E+03  0.79733967072E+03  0.23244536571E+04  0.26149173097E+04  0.87639211028E+03 0.  0.
         23    2    4    4    0    0 -0.22823421021E+02 -0.17184468191E+02 -0.40456035564E+02  0.10400648267E+03  0.91457329556E+02 0.  0.
         23    2    4    4    0    0  0.19859045734E+03  0.81452413891E+03  0.23649096926E+04  0.25109108270E+04  0.94802870234E+02 0.  0.
          2    1    3    3  502    0 -0.20818369518E+02 -0.20793163620E+03  0.43013143138E+02  0.21335205723E+03  0.00000000000E+00 0. -1.
         -1    1    3    3    0  502 -0.15494866680E+03 -0.58940803452E+03  0.19201522616E+02  0.60973733605E+03  0.00000000000E+00 0.  1.
         13    1    5    5    0    0 -0.48755603184E+02 -0.38322318788E+02 -0.22019120016E+02  0.65806919130E+02  0.00000000000E+00 0.  1.
        -13    1    5    5    0    0  0.25932182163E+02  0.21137850597E+02 -0.18436915548E+02  0.38199563539E+02  0.00000000000E+00 0. -1.
          2    1    6    6  503    0 -0.86528902442E+01  0.50746064604E+02  0.17365876358E+03  0.18112813628E+03  0.00000000000E+00 0. -1.
         -2    1    6    6    0  503  0.20724334759E+03  0.76377807431E+03  0.21912509290E+04  0.23297826907E+04  0.00000000000E+00 0.  1.
<mgrwt>
<rscale>  0 0.24746120E+04</rscale>
<asrwt>0</asrwt>
<pdfrwt beam="1">  1        2 0.44805191E+00 0.24746120E+04</pdfrwt>
<pdfrwt beam="2">  1       -1 0.80872185E-01 0.24746120E+04</pdfrwt>
<totfact> 0.30588616E+00</totfact>
</mgrwt>
</event>
<event>
12    7  0.1611233E-007  0.1689921E+04  0.7818608E-02  0.8767134E-01
         -1   -1    0    0    0  501 -0.00000000000E+00  0.00000000000E+00  0.15343929145E+04  0.15343929145E+04  0.00000000000E+00 0.  1.
          2   -1    0    0  501    0  0.00000000000E+00 -0.00000000000E+00 -0.46530317432E+03  0.46530317432E+03  0.00000000000E+00 0. -1.
         24    2    1    2    0    0  0.41259630515E+03 -0.20976862041E+03 -0.67535403135E+02  0.47466966554E+03  0.80694953862E+02 0.  0.
        254    2    1    2    0    0 -0.41259630515E+03  0.20976862041E+03  0.11366251433E+04  0.15250264232E+04  0.90529016902E+03 0.  0.
         23    2    4    4    0    0  0.20929642468E+03  0.23813032110E+03  0.65464767670E+03  0.73286548151E+03  0.89538763540E+02 0.  0.
         23    2    4    4    0    0 -0.62189272983E+03 -0.28361700691E+02  0.48197746659E+03  0.79216094174E+03  0.87531284883E+02 0.  0.
          2    1    3    3  502    0  0.31319929115E+03 -0.12140003719E+03 -0.34808184247E+02  0.33770308659E+03  0.00000000000E+00 0. -1.
         -1    1    3    3    0  502  0.99397014000E+02 -0.88368583218E+02 -0.32727218888E+02  0.13696657895E+03  0.00000000000E+00 0.  1.
         13    1    5    5    0    0  0.27876905071E+02  0.82558653972E+02  0.22393976803E+03  0.24029580289E+03  0.00000000000E+00 0. -1.
        -13    1    5    5    0    0  0.18141951961E+03  0.15557166713E+03  0.43070790867E+03  0.49256967862E+03  0.00000000000E+00 0.  1.
          2    1    6    6  503    0 -0.18601774210E+03 -0.10698311898E+01  0.96086398284E+02  0.20937129902E+03  0.00000000000E+00 0. -1.
         -2    1    6    6    0  503 -0.43587498772E+03 -0.27291869502E+02  0.38589106831E+03  0.58278964272E+03  0.00000000000E+00 0.  1.
<mgrwt>
<rscale>  0 0.16899206E+04</rscale>
<asrwt>0</asrwt>
<pdfrwt beam="1">  1        2 0.71585104E-01 0.16899206E+04</pdfrwt>
<pdfrwt beam="2">  1       -1 0.23606045E+00 0.16899206E+04</pdfrwt>
<totfact> 0.62710623E+00</totfact>
</mgrwt>
</event>
<event>
12    7  0.1611233E-007  0.2194042E+04  0.7818608E-02  0.8520912E-01
         -1   -1    0    0    0  501 -0.00000000000E+00  0.00000000000E+00  0.69592348004E+03  0.69592348004E+03  0.00000000000E+00 0.  1.
          2   -1    0    0  501    0  0.00000000000E+00 -0.00000000000E+00 -0.17292922581E+04  0.17292922581E+04  0.00000000000E+00 0. -1.
         24    2    1    2    0    0 -0.38884007647E+03  0.82420952407E+03 -0.45966350835E+03  0.10238489316E+04  0.80362611023E+02 0.  0.
        254    2    1    2    0    0  0.38884007647E+03 -0.82420952407E+03 -0.57370526974E+03  0.14013668065E+04  0.89675707150E+03 0.  0.
         23    2    4    4    0    0  0.49475601335E+02 -0.42503217154E+03  0.18500717769E+03  0.47495533727E+03  0.90855570190E+02 0.  0.
         23    2    4    4    0    0  0.33936447513E+03 -0.39917735253E+03 -0.75871244743E+03  0.92641146926E+03  0.89904542293E+02 0.  0.
          2    1    3    3  502    0 -0.17344466754E+03  0.35759161034E+03 -0.24501981329E+03  0.46689347970E+03  0.00000000000E+00 0. -1.
         -1    1    3    3    0  502 -0.21539540893E+03  0.46661791373E+03 -0.21464369507E+03  0.55695545193E+03  0.00000000000E+00 0.  1.
         13    1    5    5    0    0  0.55371624536E+02 -0.41115772793E+03  0.15783043546E+03  0.44387739343E+03  0.00000000000E+00 0. -1.
        -13    1    5    5    0    0 -0.58960232017E+01 -0.13874443614E+02  0.27176742237E+02  0.31077943848E+02  0.00000000000E+00 0.  1.
          4    1    6    6  503    0  0.21866616684E+03 -0.20301061578E+03 -0.37977800116E+03  0.48296949469E+03  0.00000000000E+00 0. -1.
         -4    1    6    6    0  503  0.12069830830E+03 -0.19616673675E+03 -0.37893444628E+03  0.44344197457E+03  0.00000000000E+00 0.  1.
<mgrwt>
<rscale>  0 0.21940420E+04</rscale>
<asrwt>0</asrwt>
<pdfrwt beam="1">  1        2 0.26604496E+00 0.21940420E+04</pdfrwt>
<pdfrwt beam="2">  1       -1 0.10706515E+00 0.21940420E+04</pdfrwt>
<totfact> 0.80007303E+00</totfact>
</mgrwt>
</event>
<event>
12    7  0.1611233E-007  0.2016329E+04  0.7818608E-02  0.8599024E-01
          2   -1    0    0  501    0  0.00000000000E+00  0.00000000000E+00  0.15588338424E+04  0.15588338424E+04  0.00000000000E+00 0. -1.
         -3   -1    0    0    0  501 -0.00000000000E+00 -0.00000000000E+00 -0.65202339533E+03  0.65202339533E+03  0.00000000000E+00 0.  1.
         24    2    1    2    0    0  0.27508214818E+03  0.53838664981E+03 -0.21884629506E+03  0.64764820156E+03  0.77615199506E+02 0.  0.
        254    2    1    2    0    0 -0.27508214818E+03 -0.53838664981E+03  0.11256567421E+04  0.15632090361E+04  0.90054928611E+03 0.  0.
         23    2    4    4    0    0  0.46372722253E+02 -0.33132179841E+03  0.11160627327E+04  0.11684506422E+04  0.88069952458E+02 0.  0.
         23    2    4    4    0    0 -0.32145487043E+03 -0.20706485140E+03  0.95940093835E+01  0.39475839390E+03  0.97637380809E+02 0.  0.
          4    1    3    3  502    0  0.47040379170E+01 -0.20402077798E+01 -0.63162316916E+00  0.51661754072E+01  0.00000000000E+00 0. -1.
         -3    1    3    3    0  502  0.27037811026E+03  0.54042685759E+03 -0.21821467189E+03  0.64248202616E+03  0.00000000000E+00 0.  1.
         13    1    5    5    0    0  0.19297061251E+02 -0.66206055059E+02  0.36629895538E+03  0.37273387693E+03  0.00000000000E+00 0. -1.
        -13    1    5    5    0    0  0.27075661003E+02 -0.26511574335E+03  0.74976377734E+03  0.79571676532E+03  0.00000000000E+00 0.  1.
          1    1    6    6  503    0  0.40983461607E+01 -0.14561667046E+02  0.66827313066E+01  0.16537759405E+02  0.00000000000E+00 0. -1.
         -1    1    6    6    0  503 -0.32555321659E+03 -0.19250318435E+03  0.29112780769E+01  0.37822063449E+03  0.00000000000E+00 0.  1.
<mgrwt>
<rscale>  0 0.20163295E+04</rscale>
<asrwt>0</asrwt>
<pdfrwt beam="1">  1        2 0.23982059E+00 0.20163295E+04</pdfrwt>
<pdfrwt beam="2">  1       -3 0.10031129E+00 0.20163295E+04</pdfrwt>
<totfact> 0.60251607E+00</totfact>
</mgrwt>
</event>
<event>
12    7  0.1611233E-007  0.2397007E+04  0.7818608E-02  0.8440625E-01
         -1   -1    0    0    0  501 -0.00000000000E+00  0.00000000000E+00  0.56355794406E+03  0.56355794406E+03  0.00000000000E+00 0.  1.
          2   -1    0    0  501    0  0.00000000000E+00 -0.00000000000E+00 -0.25488243910E+04  0.25488243910E+04  0.00000000000E+00 0. -1.
         24    2    1    2    0    0  0.63353308066E+03 -0.53313500759E+03 -0.16406846474E+04  0.18393854823E+04  0.76783719892E+02 0.  0.
        254    2    1    2    0    0 -0.63353308066E+03  0.53313500759E+03 -0.34458179956E+03  0.12729968528E+04  0.90343083299E+03 0.  0.
         23    2    4    4    0    0 -0.45865612752E+03  0.54387903681E+02  0.20979994129E+03  0.51519532550E+03  0.89926195700E+02 0.  0.
         23    2    4    4    0    0 -0.17487695314E+03  0.47874710391E+03 -0.55438174086E+03  0.75780152728E+03  0.84518056699E+02 0.  0.
          4    1    3    3  502    0  0.31370244593E+03 -0.22400715377E+03 -0.81285003326E+03  0.89961858923E+03  0.00000000000E+00 0. -1.
         -3    1    3    3    0  502  0.31983063474E+03 -0.30912785383E+03 -0.82783461414E+03  0.93976689307E+03  0.00000000000E+00 0.  1.
         13    1    5    5    0    0 -0.27801090080E+03  0.10307154035E+02  0.16669053414E+03  0.32431779563E+03  0.00000000000E+00 0.  1.
        -13    1    5    5    0    0 -0.18064522672E+03  0.44080749645E+02  0.43109407152E+02  0.19087752987E+03  0.00000000000E+00 0. -1.
          4    1    6    6  503    0 -0.64222131797E+02  0.29372447599E+03 -0.30816825721E+03  0.43054178050E+03  0.00000000000E+00 0. -1.
         -4    1    6    6    0  503 -0.11065482135E+03  0.18502262792E+03 -0.24621348365E+03  0.32725974678E+03  0.00000000000E+00 0.  1.
<mgrwt>
<rscale>  0 0.23970067E+04</rscale>
<asrwt>0</asrwt>
<pdfrwt beam="1">  1        2 0.39212683E+00 0.23970067E+04</pdfrwt>
<pdfrwt beam="2">  1       -1 0.86701222E-01 0.23970067E+04</pdfrwt>
<totfact> 0.43742780E+00</totfact>
</mgrwt>
</event>
<event>
12    7  0.1611233E-007  0.1501773E+04  0.7818608E-02  0.8883274E-01
          2   -1    0    0  501    0  0.00000000000E+00  0.00000000000E+00  0.25824782231E+04  0.25824782231E+04  0.00000000000E+00 0. -1.
         -1   -1    0    0    0  501 -0.00000000000E+00 -0.00000000000E+00 -0.21832937134E+03  0.21832937134E+03  0.00000000000E+00 0.  1.
         24    2    1    2    0    0  0.20149573033E+03  0.37329537856E+03  0.34858281485E+03  0.55471076931E+03  0.79019553172E+02 0.  0.
        254    2    1    2    0    0 -0.20149573033E+03 -0.37329537856E+03  0.20155660369E+04  0.22460968252E+04  0.89582059013E+03 0.  0.
         23    2    4    4    0    0 -0.27179060295E+03  0.12791574595E+02  0.17252514726E+04  0.17491650916E+04  0.95142617164E+02 0.  0.
         23    2    4    4    0    0  0.70294872617E+02 -0.38608695316E+03  0.29031456430E+03  0.49693173355E+03  0.93027399450E+02 0.  0.
          4    1    3    3  502    0  0.16411782931E+02  0.98613313655E+02  0.89870855612E+02  0.13442731470E+03  0.00000000000E+00 0. -1.
         -3    1    3    3    0  502  0.18508394740E+03  0.27468206491E+03  0.25871195924E+03  0.42028345461E+03  0.00000000000E+00 0.  1.
         13    1    5    5    0    0 -0.24288536278E+03  0.28435981223E+02  0.13110674538E+04  0.13336790367E+04  0.00000000000E+00 0.  1.
        -13    1    5    5    0    0 -0.28905240176E+02 -0.15644406628E+02  0.41418401886E+03  0.41548605494E+03  0.00000000000E+00 0. -1.
          3    1    6    6  503    0 -0.14813703151E+02 -0.48083974445E+02  0.14242530814E+02  0.52291147276E+02  0.00000000000E+00 0. -1.
         -3    1    6    6    0  503  0.85108575768E+02 -0.33800297871E+03  0.27607203349E+03  0.44464058627E+03  0.00000000000E+00 0.  1.
<mgrwt>
<rscale>  0 0.15017734E+04</rscale>
<asrwt>0</asrwt>
<pdfrwt beam="1">  1        2 0.39730432E+00 0.15017734E+04</pdfrwt>
<pdfrwt beam="2">  1       -1 0.33589136E-01 0.15017734E+04</pdfrwt>
<totfact> 0.28733765E+01</totfact>
</mgrwt>
</event>
<event>
12    7  0.1611233E-007  0.1922790E+04  0.7818608E-02  0.8643595E-01
         -1   -1    0    0    0  501 -0.00000000000E+00  0.00000000000E+00  0.36417116467E+03  0.36417116467E+03  0.00000000000E+00 0.  1.
          2   -1    0    0  501    0  0.00000000000E+00 -0.00000000000E+00 -0.25380380873E+04  0.25380380873E+04  0.00000000000E+00 0. -1.
         24    2    1    2    0    0 -0.47797916397E+03 -0.20729883886E+03 -0.40585484624E+02  0.52869174500E+03  0.80192829418E+02 0.  0.
        254    2    1    2    0    0  0.47797916397E+03  0.20729883886E+03 -0.21332814380E+04  0.23735175069E+04  0.90069904647E+03 0.  0.
         23    2    4    4    0    0  0.67605485135E+02 -0.32859934859E+03 -0.55045791879E+03  0.65034970557E+03  0.86039442517E+02 0.  0.
         23    2    4    4    0    0  0.41037367884E+03  0.53589818746E+03 -0.15828235192E+04  0.17231678014E+04  0.91561755883E+02 0.  0.
          4    1    3    3  502    0 -0.74919014805E+02 -0.66428889778E+02 -0.53120649864E+01  0.10026900922E+03  0.00000000000E+00 0. -1.
         -3    1    3    3    0  502 -0.40306014916E+03 -0.14086994909E+03 -0.35273419638E+02  0.42842273578E+03  0.00000000000E+00 0.  1.
         13    1    5    5    0    0 -0.16553138112E+02 -0.12283891102E+03 -0.19022718096E+03  0.22704577692E+03  0.00000000000E+00 0.  1.
        -13    1    5    5    0    0  0.84158623247E+02 -0.20576043757E+03 -0.36023073783E+03  0.42330392865E+03  0.00000000000E+00 0. -1.
          2    1    6    6  503    0  0.51073419402E+01  0.34435411861E+02 -0.11062849574E+03  0.11597649159E+03  0.00000000000E+00 0.  1.
         -2    1    6    6    0  503  0.40526633689E+03  0.50146277559E+03 -0.14721950235E+04  0.16071913098E+04  0.00000000000E+00 0. -1.
<mgrwt>
<rscale>  0 0.19227899E+04</rscale>
<asrwt>0</asrwt>
<pdfrwt beam="1">  1        2 0.39046738E+00 0.19227899E+04</pdfrwt>
<pdfrwt beam="2">  1       -1 0.56026336E-01 0.19227899E+04</pdfrwt>
<totfact> 0.11357491E+01</totfact>
</mgrwt>
</event>
<event>
12    7  0.1611233E-007  0.1317238E+04  0.7818608E-02  0.9016006E-01
         -1   -1    0    0    0  501 -0.00000000000E+00  0.00000000000E+00  0.17172476654E+03  0.17172476654E+03  0.00000000000E+00 0.  1.
          2   -1    0    0  501    0  0.00000000000E+00 -0.00000000000E+00 -0.25260141584E+04  0.25260141584E+04  0.00000000000E+00 0. -1.
         24    2    1    2    0    0  0.39241240756E+02 -0.78356379105E+02 -0.13238390051E+04  0.13295127410E+04  0.85876772423E+02 0.  0.
        254    2    1    2    0    0 -0.39241240756E+02  0.78356379105E+02 -0.10304503867E+04  0.13682261839E+04  0.89584334211E+03 0.  0.
         23    2    4    4    0    0 -0.27106575104E+03  0.24728714964E+03 -0.99569551719E+03  0.10658891690E+04  0.10041206075E+03 0.  0.
         23    2    4    4    0    0  0.23182451029E+03 -0.16893077053E+03 -0.34754869532E+02  0.30233701484E+03  0.88991914145E+02 0.  0.
          2    1    3    3  502    0  0.36440204618E+02 -0.96740865062E+02 -0.10644865292E+04  0.10694943920E+04  0.00000000000E+00 0. -1.
         -1    1    3    3    0  502  0.28010361373E+01  0.18384485957E+02 -0.25935247586E+03  0.26001834909E+03  0.00000000000E+00 0.  1.
         13    1    5    5    0    0 -0.14387198735E+03  0.69739052891E+02 -0.47716996264E+03  0.50324333825E+03  0.00000000000E+00 0. -1.
        -13    1    5    5    0    0 -0.12719376369E+03  0.17754809674E+03 -0.51852555454E+03  0.56264583078E+03  0.00000000000E+00 0.  1.
          1    1    6    6  503    0  0.42680854403E+02 -0.57733275089E+01 -0.30022681578E+02  0.52500933822E+02  0.00000000000E+00 0. -1.
         -1    1    6    6    0  503  0.18914365588E+03 -0.16315744302E+03 -0.47321879544E+01  0.24983608101E+03  0.00000000000E+00 0.  1.
<mgrwt>
<rscale>  0 0.13172383E+04</rscale>
<asrwt>0</asrwt>
<pdfrwt beam="1">  1        2 0.38861757E+00 0.13172383E+04</pdfrwt>
<pdfrwt beam="2">  1       -1 0.26419195E-01 0.13172383E+04</pdfrwt>
<totfact> 0.47974980E+01</totfact>
</mgrwt>
</event>
<event>
12    7  0.1611233E-007  0.2979351E+04  0.7818608E-02  0.8249652E-01
          2   -1    0    0  501    0  0.00000000000E+00  0.00000000000E+00  0.22325808002E+04  0.22325808002E+04  0.00000000000E+00 0. -1.
         -1   -1    0    0    0  501 -0.00000000000E+00 -0.00000000000E+00 -0.99397668270E+03  0.99397668270E+03  0.00000000000E+00 0.  1.
         24    2    1    2    0    0 -0.88553672657E+03  0.70125592658E+03 -0.24655468250E+03  0.11589027405E+04  0.79568723538E+02 0.  0.
        254    2    1    2    0    0  0.88553672657E+03 -0.70125592658E+03  0.14851588000E+04  0.20676547424E+04  0.89082226282E+03 0.  0.
         23    2    4    4    0    0  0.15064287110E+03 -0.38602197204E+03  0.56797425745E+02  0.42812586102E+03  0.91430672026E+02 0.  0.
         23    2    4    4    0    0  0.73489385547E+03 -0.31523395454E+03  0.14283613742E+04  0.16395288814E+04  0.91636851720E+02 0.  0.
          2    1    3    3  502    0 -0.23333158292E+03  0.15370235362E+03 -0.85801422800E+02  0.29228398049E+03  0.00000000000E+00 0. -1.
         -1    1    3    3    0  502 -0.65220514365E+03  0.54755357297E+03 -0.16075325970E+03  0.86661876000E+03  0.00000000000E+00 0.  1.
         13    1    5    5    0    0  0.54277554987E+02 -0.68535309472E+02 -0.14880781006E+02  0.88682463110E+02  0.00000000000E+00 0.  1.
        -13    1    5    5    0    0  0.96365316111E+02 -0.31748666257E+03  0.71678206751E+02  0.33944339791E+03  0.00000000000E+00 0. -1.
          3    1    6    6  503    0  0.73620144378E+03 -0.30904489457E+03  0.14143904297E+04  0.16241925995E+04  0.00000000000E+00 0. -1.
         -3    1    6    6    0  503 -0.13075883087E+01 -0.61890599754E+01  0.13970944557E+02  0.15336281895E+02  0.00000000000E+00 0.  1.
<mgrwt>
<rscale>  0 0.29793511E+04</rscale>
<asrwt>0</asrwt>
<pdfrwt beam="1">  1        2 0.34347397E+00 0.29793511E+04</pdfrwt>
<pdfrwt beam="2">  1       -1 0.15291949E+00 0.29793511E+04</pdfrwt>
<totfact> 0.15979790E+00</totfact>
</mgrwt>
</event>
<event>
12    7  0.1611233E-007  0.1181949E+04  0.7818608E-02  0.9128805E-01
         -1   -1    0    0    0  501 -0.00000000000E+00  0.00000000000E+00  0.12454000398E+03  0.12454000398E+03  0.00000000000E+00 0.  1.
          2   -1    0    0  501    0  0.00000000000E+00 -0.00000000000E+00 -0.28043265292E+04  0.28043265292E+04  0.00000000000E+00 0. -1.
         24    2    1    2    0    0  0.34241992479E+02  0.12201852030E+03 -0.10320238775E+04  0.10428439608E+04  0.79932531267E+02 0.  0.
        254    2    1    2    0    0 -0.34241992479E+02 -0.12201852030E+03 -0.16477626478E+04  0.18860225724E+04  0.90878950637E+03 0.  0.
         23    2    4    4    0    0 -0.19131029092E+03 -0.26799269326E+03 -0.16146752679E+04  0.16506527339E+04  0.95176237480E+02 0.  0.
         23    2    4    4    0    0  0.15706829844E+03  0.14597417296E+03 -0.33087379883E+02  0.23536983850E+03  0.91242953821E+02 0.  0.
          4    1    3    3  502    0  0.38036235694E+02  0.13112517353E+03 -0.10015485395E+04  0.10108115766E+04  0.00000000000E+00 0. -1.
         -3    1    3    3    0  502 -0.37942432157E+01 -0.91066532290E+01 -0.30475337966E+02  0.32032384219E+02  0.00000000000E+00 0.  1.
         13    1    5    5    0    0 -0.19952199678E+02 -0.55372553601E+01 -0.39540916741E+02  0.44634466118E+02  0.00000000000E+00 0.  1.
        -13    1    5    5    0    0 -0.17135809124E+03 -0.26245543790E+03 -0.15751343511E+04  0.16060182678E+04  0.00000000000E+00 0. -1.
          1    1    6    6  503    0  0.16701026068E+03  0.12638943491E+03 -0.38000731006E+02  0.21286327064E+03  0.00000000000E+00 0. -1.
         -1    1    6    6    0  503 -0.99419622407E+01  0.19584738051E+02  0.49133511229E+01  0.22506567863E+02  0.00000000000E+00 0.  1.
<mgrwt>
<rscale>  0 0.11819490E+04</rscale>
<asrwt>0</asrwt>
<pdfrwt beam="1">  1        2 0.43143480E+00 0.11819490E+04</pdfrwt>
<pdfrwt beam="2">  1       -1 0.19160003E-01 0.11819490E+04</pdfrwt>
<totfact> 0.57498595E+01</totfact>
</mgrwt>
</event>
<event>
12    7  0.1611233E-007  0.1625748E+04  0.7818608E-02  0.8804884E-01
          2   -1    0    0  501    0  0.00000000000E+00  0.00000000000E+00  0.23200279024E+04  0.23200279024E+04  0.00000000000E+00 0. -1.
         -3   -1    0    0    0  501 -0.00000000000E+00 -0.00000000000E+00 -0.28480875520E+03  0.28480875520E+03  0.00000000000E+00 0.  1.
         24    2    1    2    0    0 -0.89400902315E+02 -0.39865780778E+03  0.13522985711E+04  0.14149224463E+04  0.79834420245E+02 0.  0.
        254    2    1    2    0    0  0.89400902315E+02  0.39865780778E+03  0.68292057611E+03  0.11899142113E+04  0.88464385372E+03 0.  0.
         23    2    4    4    0    0  0.83970044466E+02  0.27377115209E+02  0.78402692313E+03  0.79420693137E+03  0.90917318725E+02 0.  0.
         23    2    4    4    0    0  0.54308578483E+01  0.37128069257E+03 -0.10110634702E+03  0.39570727993E+03  0.92102720287E+02 0.  0.
          2    1    3    3  502    0 -0.24622639630E+02 -0.13922929613E+03  0.60261441684E+03  0.61897916497E+03  0.00000000000E+00 0. -1.
         -1    1    3    3    0  502 -0.64778262684E+02 -0.25942851165E+03  0.74968415422E+03  0.79594328131E+03  0.00000000000E+00 0.  1.
         13    1    5    5    0    0  0.13165668687E+02 -0.27194064813E+02  0.10305957261E+03  0.10739705536E+03  0.00000000000E+00 0.  1.
        -13    1    5    5    0    0  0.70804375779E+02  0.54571180021E+02  0.68096735051E+03  0.68680987601E+03  0.00000000000E+00 0. -1.
          2    1    6    6  503    0  0.22383422472E+02  0.21354004534E+02 -0.17460742927E+02  0.35523072147E+02  0.00000000000E+00 0.  1.
         -2    1    6    6    0  503 -0.16952564623E+02  0.34992668804E+03 -0.83645604090E+02  0.36018420778E+03  0.00000000000E+00 0. -1.
<mgrwt>
<rscale>  0 0.16257481E+04</rscale>
<asrwt>0</asrwt>
<pdfrwt beam="1">  1        2 0.35692736E+00 0.16257481E+04</pdfrwt>
<pdfrwt beam="2">  1       -3 0.43816733E-01 0.16257481E+04</pdfrwt>
<totfact> 0.14140660E+01</totfact>
</mgrwt>
</event>
<event>
12    7  0.1715635E-007  0.1473522E+04  0.7818608E-02  0.8902254E-01
         -1   -1    0    0    0  501 -0.00000000000E+00  0.00000000000E+00  0.33575530436E+03  0.33575530436E+03  0.00000000000E+00 0.  1.
          2   -1    0    0  501    0  0.00000000000E+00 -0.00000000000E+00 -0.16167030344E+04  0.16167030344E+04  0.00000000000E+00 0. -1.
         24    2    1    2    0    0  0.21831044576E+02  0.12807835565E+03  0.17942563873E+03  0.23488342323E+03  0.78076904266E+02 0.  0.
        254    2    1    2    0    0 -0.21831044576E+02 -0.12807835565E+03 -0.14603733688E+04  0.17175749156E+04  0.89470249498E+03 0.  0.
         23    2    4    4    0    0 -0.61269118318E+02  0.28840749113E+03 -0.15741635351E+03  0.34588509407E+03  0.89015752220E+02 0.  0.
         23    2    4    4    0    0  0.39438073742E+02 -0.41648584679E+03 -0.13029570153E+04  0.13716898215E+04  0.93915709119E+02 0.  0.
          4    1    3    3  502    0 -0.10086716864E+01  0.18609540909E+02 -0.49167745007E+01  0.19274519525E+02  0.00000000000E+00 0. -1.
         -3    1    3    3    0  502  0.22839716263E+02  0.10946881474E+03  0.18434241324E+03  0.21560890371E+03  0.00000000000E+00 0.  1.
         13    1    5    5    0    0 -0.71347382790E+02  0.12242059495E+03 -0.72898476362E+02  0.15934691386E+03  0.00000000000E+00 0.  1.
        -13    1    5    5    0    0  0.10078264472E+02  0.16598689618E+03 -0.84517877144E+02  0.18653818021E+03  0.00000000000E+00 0. -1.
          3    1    6    6  503    0 -0.24193720429E+02 -0.18250805266E+03 -0.49480249509E+03  0.52794321148E+03  0.00000000000E+00 0. -1.
         -3    1    6    6    0  503  0.63631794171E+02 -0.23397779412E+03 -0.80815452022E+03  0.84374661002E+03  0.00000000000E+00 0.  1.
<mgrwt>
<rscale>  0 0.14735218E+04</rscale>
<asrwt>0</asrwt>
<pdfrwt beam="1">  1        2 0.24872355E+00 0.14735218E+04</pdfrwt>
<pdfrwt beam="2">  1       -1 0.51654661E-01 0.14735218E+04</pdfrwt>
<totfact> 0.45400168E+01</totfact>
</mgrwt>
</event>
<event>
12    7  0.1611233E-007  0.1028040E+04  0.7818608E-02  0.9278314E-01
          2   -1    0    0  501    0  0.00000000000E+00  0.00000000000E+00  0.15071571948E+04  0.15071571948E+04  0.00000000000E+00 0. -1.
         -1   -1    0    0    0  501 -0.00000000000E+00 -0.00000000000E+00 -0.17530803089E+03  0.17530803089E+03  0.00000000000E+00 0.  1.
         24    2    1    2    0    0 -0.92407167843E+01  0.59605506510E+01  0.16210483483E+02  0.82836521678E+02  0.80487207295E+02 0.  0.
        254    2    1    2    0    0  0.92407167843E+01 -0.59605506510E+01  0.13156386804E+04  0.15996287040E+04  0.90982742005E+03 0.  0.
         23    2    4    4    0    0  0.13685844613E+03  0.41919641128E+03  0.74115056749E+03  0.86726187974E+03  0.91559482570E+02 0.  0.
         23    2    4    4    0    0 -0.12761772935E+03 -0.42515696193E+03  0.57448811291E+03  0.73236682426E+03  0.96331958764E+02 0.  0.
          4    1    3    3  502    0  0.16696147511E+02 -0.30063388376E+02  0.17169545250E+02  0.38436466363E+02  0.00000000000E+00 0. -1.
         -3    1    3    3    0  502 -0.25936864295E+02  0.36023939027E+02 -0.95906176637E+00  0.44400055315E+02  0.00000000000E+00 0.  1.
         13    1    5    5    0    0  0.40164531105E+02  0.73908494639E+02  0.21186158701E+03  0.22794952773E+03  0.00000000000E+00 0.  1.
        -13    1    5    5    0    0  0.96693915028E+02  0.34528791664E+03  0.52928898048E+03  0.63931235201E+03  0.00000000000E+00 0. -1.
          3    1    6    6  503    0 -0.30924939875E+02 -0.26748934728E+03  0.33925621470E+03  0.43313009827E+03  0.00000000000E+00 0. -1.
         -3    1    6    6    0  503 -0.96692789474E+02 -0.15766761465E+03  0.23523189822E+03  0.29923672600E+03  0.00000000000E+00 0.  1.
<mgrwt>
<rscale>  0 0.10280404E+04</rscale>
<asrwt>0</asrwt>
<pdfrwt beam="1">  1        2 0.23187033E+00 0.10280404E+04</pdfrwt>
<pdfrwt beam="2">  1       -1 0.26970467E-01 0.10280404E+04</pdfrwt>
<totfact> 0.17539325E+02</totfact>
</mgrwt>
</event>
<event>
12    7  0.1611233E-007  0.1596848E+04  0.7818608E-02  0.8822487E-01
          2   -1    0    0  501    0  0.00000000000E+00  0.00000000000E+00  0.22712023961E+04  0.22712023961E+04  0.00000000000E+00 0. -1.
         -1   -1    0    0    0  501 -0.00000000000E+00 -0.00000000000E+00 -0.28067995137E+03  0.28067995137E+03  0.00000000000E+00 0.  1.
         24    2    1    2    0    0  0.46047298967E+03 -0.16843204578E+03  0.30682286702E+03  0.58433653075E+03  0.83091402569E+02 0.  0.
        254    2    1    2    0    0 -0.46047298967E+03  0.16843204578E+03  0.16836995777E+04  0.19675458167E+04  0.89218134068E+03 0.  0.
         23    2    4    4    0    0 -0.63829669869E+03  0.21467835368E+03  0.75235031141E+03  0.10135294960E+04  0.87758630079E+02 0.  0.
         23    2    4    4    0    0  0.17782370902E+03 -0.46246307893E+02  0.93134926628E+03  0.95401632067E+03  0.94740127813E+02 0.  0.
          2    1    3    3  502    0  0.10887530982E+03 -0.12360958137E+02  0.95963340122E+02  0.14565572087E+03  0.00000000000E+00 0. -1.
         -1    1    3    3    0  502  0.35159767985E+03 -0.15607108765E+03  0.21085952690E+03  0.43868080988E+03  0.00000000000E+00 0.  1.
         13    1    5    5    0    0 -0.17296295188E+03  0.90078215162E+02  0.17945327589E+03  0.26501650099E+03  0.00000000000E+00 0. -1.
        -13    1    5    5    0    0 -0.46533374681E+03  0.12460013851E+03  0.57289703552E+03  0.74851299504E+03  0.00000000000E+00 0.  1.
          4    1    6    6  503    0 -0.34045447678E+01 -0.19630642154E+02  0.49792949702E+02  0.53631062608E+02  0.00000000000E+00 0. -1.
         -4    1    6    6    0  503  0.18122825379E+03 -0.26615665739E+02  0.88155631658E+03  0.90038525806E+03  0.00000000000E+00 0.  1.
<mgrwt>
<rscale>  0 0.15968481E+04</rscale>
<asrwt>0</asrwt>
<pdfrwt beam="1">  1        2 0.34941574E+00 0.15968481E+04</pdfrwt>
<pdfrwt beam="2">  1       -1 0.43181532E-01 0.15968481E+04</pdfrwt>
<totfact> 0.27224037E+01</totfact>
</mgrwt>
</event>
<event>
12    7  0.1611233E-007  0.1922599E+04  0.7818608E-02  0.8643689E-01
          2   -1    0    0  501    0  0.00000000000E+00  0.00000000000E+00  0.15798253918E+04  0.15798253918E+04  0.00000000000E+00 0. -1.
         -1   -1    0    0    0  501 -0.00000000000E+00 -0.00000000000E+00 -0.58493571839E+03  0.58493571839E+03  0.00000000000E+00 0.  1.
         24    2    1    2    0    0  0.34677712133E+03 -0.65622594005E+03  0.47028607700E+03  0.88241295699E+03  0.81220540297E+02 0.  0.
        254    2    1    2    0    0 -0.34677712133E+03  0.65622594005E+03  0.52460359641E+03  0.12823481532E+04  0.90461096411E+03 0.  0.
         23    2    4    4    0    0  0.24151023620E+03  0.47754452642E+03  0.30578397335E+03  0.62312510334E+03  0.91679262427E+02 0.  0.
         23    2    4    4    0    0 -0.58828735753E+03  0.17868141363E+03  0.21881962306E+03  0.65922304986E+03  0.93187657018E+02 0.  0.
          2    1    3    3  502    0  0.24005921920E+03 -0.38034975247E+03  0.30676490758E+03  0.54442545077E+03  0.00000000000E+00 0. -1.
         -1    1    3    3    0  502  0.10671790214E+03 -0.27587618758E+03  0.16352116942E+03  0.33798750621E+03  0.00000000000E+00 0.  1.
         13    1    5    5    0    0  0.20879442371E+03  0.42927980104E+03  0.30161980698E+03  0.56466872316E+03  0.00000000000E+00 0. -1.
        -13    1    5    5    0    0  0.32715812488E+02  0.48264725380E+02  0.41641663705E+01  0.58456380185E+02  0.00000000000E+00 0.  1.
          1    1    6    6  503    0 -0.47177281311E+03  0.17346165873E+03  0.15360729758E+03  0.52559845521E+03  0.00000000000E+00 0. -1.
         -1    1    6    6    0  503 -0.11651454442E+03  0.52197548987E+01  0.65212325481E+02  0.13362459466E+03  0.00000000000E+00 0.  1.
<mgrwt>
<rscale>  0 0.19225986E+04</rscale>
<asrwt>0</asrwt>
<pdfrwt beam="1">  1        2 0.24305006E+00 0.19225986E+04</pdfrwt>
<pdfrwt beam="2">  1       -1 0.89990111E-01 0.19225986E+04</pdfrwt>
<totfact> 0.14728821E+01</totfact>
</mgrwt>
</event>
<event>
12    7  0.1611233E-007  0.3317316E+04  0.7818608E-02  0.8158503E-01
         -1   -1    0    0    0  501 -0.00000000000E+00  0.00000000000E+00  0.12784549187E+04  0.12784549187E+04  0.00000000000E+00 0.  1.
          2   -1    0    0  501    0  0.00000000000E+00 -0.00000000000E+00 -0.21519302347E+04  0.21519302347E+04  0.00000000000E+00 0. -1.
         24    2    1    2    0    0 -0.75210402546E+03  0.19882187753E+03  0.96246692402E+03  0.12401266995E+04  0.79881455176E+02 0.  0.
        254    2    1    2    0    0  0.75210402546E+03 -0.19882187753E+03 -0.18359422401E+04  0.21902584539E+04  0.90628780295E+03 0.  0.
         23    2    4    4    0    0  0.38366011412E+03  0.22372846891E+03 -0.14086155051E+04  0.14797550886E+04  0.90708158736E+02 0.  0.
         23    2    4    4    0    0  0.36844391134E+03 -0.42255034643E+03 -0.42732673502E+03  0.71050336532E+03  0.88922340208E+02 0.  0.
          2    1    3    3  502    0 -0.10880392943E+03  0.51251958737E+01  0.11081540607E+03  0.15538538192E+03  0.00000000000E+00 0. -1.
         -1    1    3    3    0  502 -0.64330009603E+03  0.19369668165E+03  0.85165151795E+03  0.10847413176E+04  0.00000000000E+00 0.  1.
         13    1    5    5    0    0  0.38042782673E+03  0.22939149800E+03 -0.13602687872E+04  0.14309706371E+04  0.00000000000E+00 0. -1.
        -13    1    5    5    0    0  0.32322873924E+01 -0.56630290960E+01 -0.48346717823E+02  0.48784451464E+02  0.00000000000E+00 0.  1.
          3    1    6    6  503    0  0.21009705622E+03 -0.30508173733E+03 -0.28313954835E+03  0.46624418851E+03  0.00000000000E+00 0. -1.
         -3    1    6    6    0  503  0.15834685512E+03 -0.11746860910E+03 -0.14418718667E+03  0.24425917680E+03  0.00000000000E+00 0.  1.
<mgrwt>
<rscale>  0 0.33173157E+04</rscale>
<asrwt>0</asrwt>
<pdfrwt beam="1">  1        2 0.33106619E+00 0.33173157E+04</pdfrwt>
<pdfrwt beam="2">  1       -1 0.19668537E+00 0.33173157E+04</pdfrwt>
<totfact> 0.82694242E-01</totfact>
</mgrwt>
</event>
<event>
12    7  0.1611233E-007  0.1715280E+04  0.7818608E-02  0.8752697E-01
          2   -1    0    0  501    0  0.00000000000E+00  0.00000000000E+00  0.21053714743E+04  0.21053714743E+04  0.00000000000E+00 0. -1.
         -1   -1    0    0    0  501 -0.00000000000E+00 -0.00000000000E+00 -0.34936652443E+03  0.34936652443E+03  0.00000000000E+00 0.  1.
         24    2    1    2    0    0 -0.48426586418E+03  0.38762728054E+03  0.87425167084E+03  0.10750388737E+04  0.81389557843E+02 0.  0.
        254    2    1    2    0    0  0.48426586418E+03 -0.38762728054E+03  0.88175327901E+03  0.13796991250E+04  0.86099506082E+03 0.  0.
         23    2    4    4    0    0 -0.18983881588E+03 -0.27543875580E+03  0.16129970342E+03  0.38260655976E+03  0.92004896797E+02 0.  0.
         23    2    4    4    0    0  0.67410468006E+03 -0.11218852474E+03  0.72045357559E+03  0.99709256528E+03  0.90204458805E+02 0.  0.
          4    1    3    3  502    0 -0.38805295130E+03  0.28241520847E+03  0.71670173781E+03  0.86255714244E+03  0.00000000000E+00 0. -1.
         -3    1    3    3    0  502 -0.96212912879E+02  0.10521207207E+03  0.15754993303E+03  0.21248173124E+03  0.00000000000E+00 0.  1.
         13    1    5    5    0    0 -0.21751941963E+02  0.23954137310E+01  0.62038606473E+01  0.22745831992E+02  0.00000000000E+00 0.  1.
        -13    1    5    5    0    0 -0.16808687392E+03 -0.27783416953E+03  0.15509584277E+03  0.35986072776E+03  0.00000000000E+00 0. -1.
          4    1    6    6  503    0  0.38772152065E+03 -0.23922383267E+02  0.43531958786E+03  0.58344100093E+03  0.00000000000E+00 0. -1.
         -4    1    6    6    0  503  0.28638315942E+03 -0.88266141477E+02  0.28513398773E+03  0.41365156435E+03  0.00000000000E+00 0.  1.
<mgrwt>
<rscale>  0 0.17152799E+04</rscale>
<asrwt>0</asrwt>
<pdfrwt beam="1">  1        2 0.32390330E+00 0.17152799E+04</pdfrwt>
<pdfrwt beam="2">  1       -1 0.53748697E-01 0.17152799E+04</pdfrwt>
<totfact> 0.22071739E+01</totfact>
</mgrwt>
</event>
<event>
12    7  0.1611233E-007  0.1907162E+04  0.7818608E-02  0.8651300E-01
         -1   -1    0    0    0  501 -0.00000000000E+00  0.00000000000E+00  0.11814149842E+04  0.11814149842E+04  0.00000000000E+00 0.  1.
          2   -1    0    0  501    0  0.00000000000E+00 -0.00000000000E+00 -0.76968444942E+03  0.76968444942E+03  0.00000000000E+00 0. -1.
         24    2    1    2    0    0 -0.24442783887E+03  0.16295803512E+03 -0.53335524088E+03  0.61364247634E+03  0.76085387305E+02 0.  0.
        254    2    1    2    0    0  0.24442783887E+03 -0.16295803512E+03  0.94508577566E+03  0.13374569573E+04  0.89961308326E+03 0.  0.
         23    2    4    4    0    0  0.26174899292E+03  0.25522644063E+03  0.10002653493E+03  0.38998838988E+03  0.91829000090E+02 0.  0.
         23    2    4    4    0    0 -0.17321154051E+02 -0.41818447576E+03  0.84505924074E+03  0.94746856740E+03  0.91614888009E+02 0.  0.
          2    1    3    3  502    0 -0.22621633658E+03  0.11840526833E+03 -0.44833516573E+03  0.51594385289E+03  0.00000000000E+00 0. -1.
         -1    1    3    3    0  502 -0.18211502290E+02  0.44552766791E+02 -0.85020075150E+02  0.97698623444E+02  0.00000000000E+00 0.  1.
         13    1    5    5    0    0  0.82705037432E+02  0.30816571197E+02  0.38992424343E+02  0.96489343625E+02  0.00000000000E+00 0. -1.
        -13    1    5    5    0    0  0.17904395549E+03  0.22440986944E+03  0.61034110583E+02  0.29349904626E+03  0.00000000000E+00 0.  1.
          2    1    6    6  503    0 -0.37900734330E+02 -0.12776659616E+03  0.20798986257E+03  0.24702338288E+03  0.00000000000E+00 0. -1.
         -2    1    6    6    0  503  0.20579580279E+02 -0.29041787960E+03  0.63706937817E+03  0.70044518451E+03  0.00000000000E+00 0.  1.
<mgrwt>
<rscale>  0 0.19071620E+04</rscale>
<asrwt>0</asrwt>
<pdfrwt beam="1">  1        2 0.11841299E+00 0.19071620E+04</pdfrwt>
<pdfrwt beam="2">  1       -1 0.18175615E+00 0.19071620E+04</pdfrwt>
<totfact> 0.78297980E+00</totfact>
</mgrwt>
</event>
<event>
12    7  0.1611233E-007  0.1393098E+04  0.7818608E-02  0.8958830E-01
          2   -1    0    0  501    0  0.00000000000E+00  0.00000000000E+00  0.25294002307E+04  0.25294002307E+04  0.00000000000E+00 0. -1.
         -1   -1    0    0    0  501 -0.00000000000E+00 -0.00000000000E+00 -0.19181634133E+03  0.19181634133E+03  0.00000000000E+00 0.  1.
         24    2    1    2    0    0 -0.28782260007E+03 -0.28806178370E+03  0.54250629108E+03  0.68296356225E+03  0.79402211291E+02 0.  0.
        254    2    1    2    0    0  0.28782260007E+03  0.28806178370E+03  0.17950775983E+04  0.20382530098E+04  0.87541436341E+03 0.  0.
         23    2    4    4    0    0 -0.36386932364E+02  0.43544279196E+03  0.41197843104E+03  0.60730086945E+03  0.90297754564E+02 0.  0.
         23    2    4    4    0    0  0.32420953243E+03 -0.14738100826E+03  0.13830991673E+04  0.14309521404E+04  0.88474510065E+02 0.  0.
          2    1    3    3  502    0 -0.51675819156E+02 -0.24873497379E+02  0.46570127967E+02  0.73877317062E+02  0.00000000000E+00 0. -1.
         -1    1    3    3    0  502 -0.23614678091E+03 -0.26318828632E+03  0.49593616311E+03  0.60908624519E+03  0.00000000000E+00 0.  1.
         13    1    5    5    0    0  0.88329161336E+00  0.73241944886E+02  0.11995481199E+03  0.14055006089E+03  0.00000000000E+00 0. -1.
        -13    1    5    5    0    0 -0.37270223977E+02  0.36220084708E+03  0.29202361905E+03  0.46675080857E+03  0.00000000000E+00 0.  1.
          3    1    6    6  503    0  0.22143615349E+03 -0.58998283930E+02  0.79038513066E+03  0.82293585555E+03  0.00000000000E+00 0. -1.
         -3    1    6    6    0  503  0.10277337894E+03 -0.88382724334E+02  0.59271403664E+03  0.60801628483E+03  0.00000000000E+00 0.  1.
<mgrwt>
<rscale>  0 0.13930977E+04</rscale>
<asrwt>0</asrwt>
<pdfrwt beam="1">  1        2 0.38913847E+00 0.13930977E+04</pdfrwt>
<pdfrwt beam="2">  1       -1 0.29510208E-01 0.13930977E+04</pdfrwt>
<totfact> 0.39142002E+01</totfact>
</mgrwt>
</event>
<event>
12    7  0.1611233E-007  0.1253381E+04  0.7818608E-02  0.9067374E-01
          2   -1    0    0  501    0  0.00000000000E+00  0.00000000000E+00  0.36438113776E+04  0.36438113776E+04  0.00000000000E+00 0. -1.
         -1   -1    0    0    0  501 -0.00000000000E+00 -0.00000000000E+00 -0.10778302039E+03  0.10778302039E+03  0.00000000000E+00 0.  1.
         24    2    1    2    0    0 -0.75541023361E+02 -0.12582557951E+03  0.15987875781E+04  0.16073803478E+04  0.77532830746E+02 0.  0.
        254    2    1    2    0    0  0.75541023361E+02  0.12582557951E+03  0.19372407790E+04  0.21442140502E+04  0.90731115623E+03 0.  0.
         23    2    4    4    0    0  0.29495372661E+03 -0.10991980258E+03  0.17055996062E+04  0.17367134134E+04  0.89573431574E+02 0.  0.
         23    2    4    4    0    0 -0.21941270325E+03  0.23574538209E+03  0.23164117280E+03  0.40750063675E+03  0.93173582593E+02 0.  0.
          4    1    3    3  502    0 -0.64631927594E+02 -0.11756436549E+03  0.10649232146E+04  0.10733406352E+04  0.00000000000E+00 0. -1.
         -1    1    3    3    0  502 -0.10909095767E+02 -0.82612140235E+01  0.53386436352E+03  0.53403971263E+03  0.00000000000E+00 0.  1.
         13    1    5    5    0    0  0.24651047078E+03 -0.52323832753E+02  0.13095492825E+04  0.13335758392E+04  0.00000000000E+00 0.  1.
        -13    1    5    5    0    0  0.48443255828E+02 -0.57595969827E+02  0.39605032373E+03  0.40313757416E+03  0.00000000000E+00 0. -1.
          4    1    6    6  503    0 -0.10068484176E+03  0.17458684342E+03  0.14558662379E+03  0.24862314511E+03  0.00000000000E+00 0. -1.
         -4    1    6    6    0  503 -0.11872786149E+03  0.61158538665E+02  0.86054549015E+02  0.15887749165E+03  0.00000000000E+00 0.  1.
<mgrwt>
<rscale>  0 0.12533810E+04</rscale>
<asrwt>0</asrwt>
<pdfrwt beam="1">  1        2 0.56058627E+00 0.12533810E+04</pdfrwt>
<pdfrwt beam="2">  1       -1 0.16582006E-01 0.12533810E+04</pdfrwt>
<totfact> 0.20606767E+01</totfact>
</mgrwt>
</event>
<event>
12    7  0.1611233E-007  0.1280569E+04  0.7818608E-02  0.9045117E-01
          2   -1    0    0  501    0  0.00000000000E+00  0.00000000000E+00  0.10279097224E+04  0.10279097224E+04  0.00000000000E+00 0. -1.
         -1   -1    0    0    0  501 -0.00000000000E+00 -0.00000000000E+00 -0.39883302814E+03  0.39883302814E+03  0.00000000000E+00 0.  1.
         24    2    1    2    0    0  0.89035120542E+02  0.97329593721E+02 -0.16175045293E+03  0.22358733808E+03  0.80173475822E+02 0.  0.
        254    2    1    2    0    0 -0.89035120542E+02 -0.97329593721E+02  0.79082714718E+03  0.12031554124E+04  0.89709256339E+03 0.  0.
         23    2    4    4    0    0  0.73874539429E+02 -0.35337717622E+03  0.23999903608E+02  0.37344506835E+03  0.92478902740E+02 0.  0.
         23    2    4    4    0    0 -0.16290965997E+03  0.25604758250E+03  0.76682724357E+03  0.82971034410E+03  0.91078602408E+02 0.  0.
          4    1    3    3  502    0 -0.73092277549E+01  0.12499076218E+02  0.29430837295E+01  0.14775434292E+02  0.00000000000E+00 0. -1.
         -3    1    3    3    0  502  0.96344348296E+02  0.84830517503E+02 -0.16469353666E+03  0.20881190379E+03  0.00000000000E+00 0.  1.
         13    1    5    5    0    0 -0.16158472625E+02 -0.12988247369E+03  0.20445974051E+02  0.13247109520E+03  0.00000000000E+00 0.  1.
        -13    1    5    5    0    0  0.90033012054E+02 -0.22349470253E+03  0.35539295573E+01  0.24097397314E+03  0.00000000000E+00 0. -1.
          4    1    6    6  503    0 -0.13490737470E+03  0.22348490912E+03  0.55176206646E+03  0.61039895342E+03  0.00000000000E+00 0. -1.
         -4    1    6    6    0  503 -0.28002285272E+02  0.32562673377E+02  0.21506517711E+03  0.21931139068E+03  0.00000000000E+00 0.  1.
<mgrwt>
<rscale>  0 0.12805692E+04</rscale>
<asrwt>0</asrwt>
<pdfrwt beam="1">  1        2 0.15813996E+00 0.12805692E+04</pdfrwt>
<pdfrwt beam="2">  1       -1 0.61358928E-01 0.12805692E+04</pdfrwt>
<totfact> 0.72910380E+01</totfact>
</mgrwt>
</event>
<event>
12    7  0.1611233E-007  0.1861051E+04  0.7818608E-02  0.8674491E-01
          4   -1    0    0  501    0  0.00000000000E+00  0.00000000000E+00  0.24263974023E+04  0.24263974023E+04  0.00000000000E+00 0. -1.
         -3   -1    0    0    0  501 -0.00000000000E+00 -0.00000000000E+00 -0.35685723544E+03  0.35685723544E+03  0.00000000000E+00 0.  1.
         24    2    1    2    0    0 -0.32384274759E+03  0.60642218546E+03  0.11643632280E+04  0.13544026353E+04  0.77735316894E+02 0.  0.
        254    2    1    2    0    0  0.32384274759E+03 -0.60642218546E+03  0.90517693877E+03  0.14288520024E+04  0.86582374769E+03 0.  0.
         23    2    4    4    0    0  0.35194567186E+03 -0.79275854725E+03  0.59798755641E+03  0.10574109860E+04  0.90537315852E+02 0.  0.
         23    2    4    4    0    0 -0.28102924265E+02  0.18633636179E+03  0.30718938236E+03  0.37144101637E+03  0.89956088896E+02 0.  0.
          4    1    3    3  502    0 -0.11653074898E+03  0.27006972446E+03  0.43940959315E+03  0.52877014106E+03  0.00000000000E+00 0. -1.
         -3    1    3    3    0  502 -0.20731199862E+03  0.33635246101E+03  0.72495363490E+03  0.82563249424E+03  0.00000000000E+00 0.  1.
         13    1    5    5    0    0  0.63713760781E+02 -0.74260576031E+02  0.71669668257E+02  0.12128733575E+03  0.00000000000E+00 0. -1.
        -13    1    5    5    0    0  0.28823191108E+03 -0.71849797122E+03  0.52631788815E+03  0.93612365027E+03  0.00000000000E+00 0.  1.
          2    1    6    6  503    0  0.22146859044E+02  0.26424883068E+02  0.94798942224E+02  0.10087416546E+03  0.00000000000E+00 0. -1.
         -2    1    6    6    0  503 -0.50249783309E+02  0.15991147872E+03  0.21239044013E+03  0.27056685090E+03  0.00000000000E+00 0.  1.
<mgrwt>
<rscale>  0 0.18610507E+04</rscale>
<asrwt>0</asrwt>
<pdfrwt beam="1">  1        4 0.37329190E+00 0.18610507E+04</pdfrwt>
<pdfrwt beam="2">  1       -3 0.54901115E-01 0.18610507E+04</pdfrwt>
<totfact> 0.73293070E-02</totfact>
</mgrwt>
</event>
<event>
12    7  0.1611233E-007  0.1112334E+04  0.7818608E-02  0.9193253E-01
         -1   -1    0    0    0  501 -0.00000000000E+00  0.00000000000E+00  0.42275444917E+03  0.42275444917E+03  0.00000000000E+00 0.  1.
          2   -1    0    0  501    0  0.00000000000E+00 -0.00000000000E+00 -0.73168114991E+03  0.73168114991E+03  0.00000000000E+00 0. -1.
         24    2    1    2    0    0 -0.57374077217E+02 -0.14354448351E+03  0.21000986525E+02  0.17524076510E+03  0.79821556193E+02 0.  0.
        254    2    1    2    0    0  0.57374077217E+02  0.14354448351E+03 -0.32992768726E+03  0.97919483398E+03  0.90888582374E+03 0.  0.
         23    2    4    4    0    0  0.41874393680E+03 -0.42994178439E+02  0.24207719520E+02  0.43192916686E+03  0.93711298773E+02 0.  0.
         23    2    4    4    0    0 -0.36136985958E+03  0.18653866195E+03 -0.35413540678E+03  0.54726566712E+03  0.93289743585E+02 0.  0.
          4    1    3    3  502    0  0.25927324829E+01 -0.46335696235E+02 -0.24279192388E+02  0.52375549547E+02  0.00000000000E+00 0. -1.
         -3    1    3    3    0  502 -0.59966809699E+02 -0.97208787276E+02  0.45280178913E+02  0.12286521555E+03  0.00000000000E+00 0.  1.
         13    1    5    5    0    0  0.37992725587E+03 -0.53033503327E+02  0.45893487321E+02  0.38634632702E+03  0.00000000000E+00 0. -1.
        -13    1    5    5    0    0  0.38816680930E+02  0.10039324888E+02 -0.21685767802E+02  0.45582839839E+02  0.00000000000E+00 0.  1.
          1    1    6    6  503    0 -0.34598523645E+03  0.19574475260E+03 -0.32695686549E+03  0.51470630840E+03  0.00000000000E+00 0. -1.
         -1    1    6    6    0  503 -0.15384623132E+02 -0.92060906494E+01 -0.27178541290E+02  0.32559358725E+02  0.00000000000E+00 0.  1.
<mgrwt>
<rscale>  0 0.11123335E+04</rscale>
<asrwt>0</asrwt>
<pdfrwt beam="1">  1        2 0.11256633E+00 0.11123335E+04</pdfrwt>
<pdfrwt beam="2">  1       -1 0.65039146E-01 0.11123335E+04</pdfrwt>
<totfact> 0.10516381E+02</totfact>
</mgrwt>
</event>
<event>
12    7  0.1611233E-007  0.2138139E+04  0.7818608E-02  0.8544627E-01
          2   -1    0    0  501    0  0.00000000000E+00  0.00000000000E+00  0.11971663196E+04  0.11971663196E+04  0.00000000000E+00 0. -1.
         -1   -1    0    0    0  501 -0.00000000000E+00 -0.00000000000E+00 -0.95467894000E+03  0.95467894000E+03  0.00000000000E+00 0.  1.
         24    2    1    2    0    0  0.36274822587E+03 -0.57699175646E+03 -0.46374352120E+03  0.82814118129E+03  0.79082237598E+02 0.  0.
        254    2    1    2    0    0 -0.36274822587E+03  0.57699175646E+03  0.70623090085E+03  0.13237040783E+04  0.88821429809E+03 0.  0.
         23    2    4    4    0    0 -0.58979106390E+03  0.30559337934E+03  0.20071218878E+03  0.69998595484E+03  0.91946406634E+02 0.  0.
         23    2    4    4    0    0  0.22704283803E+03  0.27139837712E+03  0.50551871207E+03  0.62371812351E+03  0.90937340711E+02 0.  0.
          2    1    3    3  502    0  0.26908062029E+03 -0.39019990923E+03 -0.35771888645E+03  0.59382080723E+03  0.00000000000E+00 0. -1.
         -1    1    3    3    0  502  0.93667605578E+02 -0.18679184722E+03 -0.10602463476E+03  0.23432037406E+03  0.00000000000E+00 0.  1.
         13    1    5    5    0    0 -0.53975099818E+03  0.26943324984E+03  0.20732663521E+03  0.63789477959E+03  0.00000000000E+00 0.  1.
        -13    1    5    5    0    0 -0.50040065715E+02  0.36160129498E+02 -0.66144464279E+01  0.62091175248E+02  0.00000000000E+00 0. -1.
          1    1    6    6  503    0  0.61393204114E+02  0.32321873358E+02  0.60359700587E+02  0.91962614489E+02  0.00000000000E+00 0. -1.
         -1    1    6    6    0  503  0.16564963392E+03  0.23907650376E+03  0.44515901149E+03  0.53175550902E+03  0.00000000000E+00 0.  1.
<mgrwt>
<rscale>  0 0.21381389E+04</rscale>
<asrwt>0</asrwt>
<pdfrwt beam="1">  1        2 0.18417943E+00 0.21381389E+04</pdfrwt>
<pdfrwt beam="2">  1       -1 0.14687368E+00 0.21381389E+04</pdfrwt>
<totfact> 0.73535801E+00</totfact>
</mgrwt>
</event>
<event>
12    7  0.1611233E-007  0.2335249E+04  0.7818608E-02  0.8464151E-01
         -1   -1    0    0    0  501 -0.00000000000E+00  0.00000000000E+00  0.81744283289E+03  0.81744283289E+03  0.00000000000E+00 0.  1.
          2   -1    0    0  501    0  0.00000000000E+00 -0.00000000000E+00 -0.16678188050E+04  0.16678188050E+04  0.00000000000E+00 0. -1.
         24    2    1    2    0    0  0.92699373332E+03  0.18855400005E+03 -0.38764921145E+02  0.95006217753E+03  0.79028029897E+02 0.  0.
        254    2    1    2    0    0 -0.92699373332E+03 -0.18855400005E+03 -0.81161105098E+03  0.15351994604E+04  0.89624488423E+03 0.  0.
         23    2    4    4    0    0 -0.38003482285E+03 -0.28559085260E+03  0.70059187615E+02  0.48909887591E+03  0.91218523225E+02 0.  0.
         23    2    4    4    0    0 -0.54695891047E+03  0.97036852545E+02 -0.88167023859E+03  0.10461005845E+04  0.91672366110E+02 0.  0.
          4    1    3    3  502    0  0.41994364039E+03  0.48035686802E+02 -0.31451533939E+02  0.42385054831E+03  0.00000000000E+00 0. -1.
         -3    1    3    3    0  502  0.50705009293E+03  0.14051831325E+03 -0.73133872053E+01  0.52621162922E+03  0.00000000000E+00 0.  1.
         13    1    5    5    0    0 -0.35702985859E+03 -0.24286569718E+03  0.44053444963E+02  0.43404466683E+03  0.00000000000E+00 0.  1.
        -13    1    5    5    0    0 -0.23004964256E+02 -0.42725155416E+02  0.26005742653E+02  0.55054209074E+02  0.00000000000E+00 0. -1.
          3    1    6    6  503    0 -0.16949240404E+02  0.11863827581E+02 -0.69853621517E+02  0.72852972445E+02  0.00000000000E+00 0. -1.
         -3    1    6    6    0  503 -0.53000967007E+03  0.85173024964E+02 -0.81181661707E+03  0.97324761202E+03  0.00000000000E+00 0.  1.
<mgrwt>
<rscale>  0 0.23352486E+04</rscale>
<asrwt>0</asrwt>
<pdfrwt beam="1">  1        2 0.25658750E+00 0.23352486E+04</pdfrwt>
<pdfrwt beam="2">  1       -1 0.12576044E+00 0.23352486E+04</pdfrwt>
<totfact> 0.57993681E+00</totfact>
</mgrwt>
</event>
<event>
12    7  0.1611233E-007  0.1802406E+04  0.7818608E-02  0.8705021E-01
         -1   -1    0    0    0  501 -0.00000000000E+00  0.00000000000E+00  0.50784925098E+03  0.50784925098E+03  0.00000000000E+00 0.  1.
          2   -1    0    0  501    0  0.00000000000E+00 -0.00000000000E+00 -0.15992281409E+04  0.15992281409E+04  0.00000000000E+00 0. -1.
         24    2    1    2    0    0  0.11629056721E+03 -0.88617290615E+02 -0.11796780080E+04  0.11914498820E+04  0.80846140506E+02 0.  0.
        254    2    1    2    0    0 -0.11629056721E+03  0.88617290615E+02  0.88299118133E+02  0.91562750987E+03  0.89955571386E+03 0.  0.
         23    2    4    4    0    0 -0.46892601868E+03  0.62698900480E+02  0.21698100368E+03  0.52827067836E+03  0.90368083640E+02 0.  0.
         23    2    4    4    0    0  0.35263545146E+03  0.25918390135E+02 -0.12868188555E+03  0.38735683151E+03  0.91993275151E+02 0.  0.
          2    1    3    3  502    0  0.12344047540E+03 -0.67066140584E+02 -0.90543623270E+03  0.91626971447E+03  0.00000000000E+00 0. -1.
         -1    1    3    3    0  502 -0.71499081829E+01 -0.21551150031E+02 -0.27424177533E+03  0.27518016751E+03  0.00000000000E+00 0.  1.
         13    1    5    5    0    0 -0.24304982710E+02  0.11015105858E+02 -0.72226159701E+01  0.27644726858E+02  0.00000000000E+00 0. -1.
        -13    1    5    5    0    0 -0.44462103597E+03  0.51683794622E+02  0.22420361965E+03  0.50062595150E+03  0.00000000000E+00 0.  1.
          3    1    6    6  503    0  0.27524241615E+03  0.32726044585E+02 -0.13705648052E+03  0.30921490988E+03  0.00000000000E+00 0. -1.
         -3    1    6    6    0  503  0.77393035314E+02 -0.68076544495E+01  0.83745949746E+01  0.78141921625E+02  0.00000000000E+00 0.  1.
<mgrwt>
<rscale>  0 0.18024060E+04</rscale>
<asrwt>0</asrwt>
<pdfrwt beam="1">  1        2 0.24603509E+00 0.18024060E+04</pdfrwt>
<pdfrwt beam="2">  1       -1 0.78130655E-01 0.18024060E+04</pdfrwt>
<totfact> 0.19689732E+01</totfact>
</mgrwt>
</event>
<event>
12    7  0.1611233E-007  0.1298966E+04  0.7818608E-02  0.9030386E-01
          2   -1    0    0  501    0  0.00000000000E+00  0.00000000000E+00  0.25390315305E+04  0.25390315305E+04  0.00000000000E+00 0. -1.
         -1   -1    0    0    0  501 -0.00000000000E+00 -0.00000000000E+00 -0.16613732931E+03  0.16613732931E+03  0.00000000000E+00 0.  1.
         24    2    1    2    0    0  0.31529039592E+03  0.51767590642E+02  0.45257369695E+03  0.55959190715E+03  0.78944500617E+02 0.  0.
        254    2    1    2    0    0 -0.31529039592E+03 -0.51767590642E+02  0.19203205043E+04  0.21455769527E+04  0.90209849994E+03 0.  0.
         23    2    4    4    0    0 -0.19890003109E+03 -0.90858975671E+02  0.17379091285E+02  0.23664308198E+03  0.88776909212E+02 0.  0.
         23    2    4    4    0    0 -0.11639036483E+03  0.39091385028E+02  0.19029414130E+04  0.19089338707E+04  0.88134261706E+02 0.  0.
          2    1    3    3  502    0  0.51958005249E+02  0.19740601072E+02  0.13376245503E+03  0.14485068179E+03  0.00000000000E+00 0. -1.
         -1    1    3    3    0  502  0.26333239067E+03  0.32026989570E+02  0.31881124192E+03  0.41474122536E+03  0.00000000000E+00 0.  1.
         13    1    5    5    0    0 -0.19128656883E+03 -0.58996104296E+02  0.13735718428E+01  0.20018236295E+03  0.00000000000E+00 0. -1.
        -13    1    5    5    0    0 -0.76134622598E+01 -0.31862871374E+02  0.16005519442E+02  0.36460719033E+02  0.00000000000E+00 0.  1.
          4    1    6    6  503    0 -0.10870562087E+03 -0.17506833142E+01  0.14629009590E+04  0.14669353062E+04  0.00000000000E+00 0. -1.
         -4    1    6    6    0  503 -0.76847439623E+01  0.40842068342E+02  0.44004045399E+03  0.44199856446E+03  0.00000000000E+00 0.  1.
<mgrwt>
<rscale>  0 0.12989656E+04</rscale>
<asrwt>0</asrwt>
<pdfrwt beam="1">  1        2 0.39062021E+00 0.12989656E+04</pdfrwt>
<pdfrwt beam="2">  1       -1 0.25559591E-01 0.12989656E+04</pdfrwt>
<totfact> 0.49996567E+01</totfact>
</mgrwt>
</event>
<event>
12    7  0.1611233E-007  0.1595641E+04  0.7818608E-02  0.8823230E-01
          2   -1    0    0  501    0  0.00000000000E+00  0.00000000000E+00  0.62304035000E+03  0.62304035000E+03  0.00000000000E+00 0. -1.
         -1   -1    0    0    0  501 -0.00000000000E+00 -0.00000000000E+00 -0.10216313584E+04  0.10216313584E+04  0.00000000000E+00 0.  1.
         24    2    1    2    0    0 -0.12576577460E+03 -0.50839656728E+03 -0.20123615858E+00  0.52932840842E+03  0.76840248500E+02 0.  0.
        254    2    1    2    0    0  0.12576577460E+03  0.50839656728E+03 -0.39838977221E+03  0.11153433000E+04  0.90055103491E+03 0.  0.
         23    2    4    4    0    0  0.25708516527E+03  0.13271760117E+03  0.21966302576E+03  0.37485865501E+03  0.92522551235E+02 0.  0.
         23    2    4    4    0    0 -0.13131939067E+03  0.37567896611E+03 -0.61805279798E+03  0.74048464495E+03  0.89155932935E+02 0.  0.
          2    1    3    3  502    0 -0.75452409553E+02 -0.41698771435E+03 -0.14530638263E+02  0.42400820684E+03  0.00000000000E+00 0. -1.
         -3    1    3    3    0  502 -0.50313365042E+02 -0.91408852931E+02  0.14329402104E+02  0.10532020158E+03  0.00000000000E+00 0.  1.
         13    1    5    5    0    0  0.13921512159E+02  0.28879075454E+01 -0.88993247182E+01  0.16773386397E+02  0.00000000000E+00 0. -1.
        -13    1    5    5    0    0  0.24316365311E+03  0.12982969362E+03  0.22856235048E+03  0.35808526861E+03  0.00000000000E+00 0.  1.
          3    1    6    6  503    0  0.66793262731E+01  0.62594075619E+02 -0.67683638196E+02  0.92432172870E+02  0.00000000000E+00 0. -1.
         -3    1    6    6    0  503 -0.13799871694E+03  0.31308489049E+03 -0.55036915978E+03  0.64805247208E+03  0.00000000000E+00 0.  1.
<mgrwt>
<rscale>  0 0.15956410E+04</rscale>
<asrwt>0</asrwt>
<pdfrwt beam="1">  1        2 0.95852361E-01 0.15956410E+04</pdfrwt>
<pdfrwt beam="2">  1       -1 0.15717406E+00 0.15956410E+04</pdfrwt>
<totfact> 0.15942424E+01</totfact>
</mgrwt>
</event>
<event>
12    7  0.1611233E-007  0.1948102E+04  0.7818608E-02  0.8631277E-01
          2   -1    0    0  501    0  0.00000000000E+00  0.00000000000E+00  0.86014326635E+03  0.86014326635E+03  0.00000000000E+00 0. -1.
         -1   -1    0    0    0  501 -0.00000000000E+00 -0.00000000000E+00 -0.11030431205E+04  0.11030431205E+04  0.00000000000E+00 0.  1.
         24    2    1    2    0    0  0.72660527647E+03 -0.23181503782E+02  0.14483353050E+03  0.74573135512E+03  0.81522343795E+02 0.  0.
        254    2    1    2    0    0 -0.72660527647E+03  0.23181503782E+02 -0.38773338465E+03  0.12174550317E+04  0.89630740642E+03 0.  0.
         23    2    4    4    0    0 -0.23251044218E+03 -0.41519279465E+03 -0.12585825779E+03  0.50088961866E+03  0.92757461024E+02 0.  0.
         23    2    4    4    0    0 -0.49409483429E+03  0.43837429843E+03 -0.26187512686E+03  0.71656541307E+03  0.92658935606E+02 0.  0.
          4    1    3    3  502    0  0.24212176031E+03 -0.17111351720E+02  0.86651709351E+02  0.25772905135E+03  0.00000000000E+00 0. -1.
         -3    1    3    3    0  502  0.48448351616E+03 -0.60701520618E+01  0.58181821149E+02  0.48800230377E+03  0.00000000000E+00 0.  1.
         13    1    5    5    0    0 -0.99241537936E+02 -0.13525672091E+03 -0.85323869382E+02  0.18821112106E+03  0.00000000000E+00 0.  1.
        -13    1    5    5    0    0 -0.13326890425E+03 -0.27993607374E+03 -0.40534388403E+02  0.31267849761E+03  0.00000000000E+00 0. -1.
          2    1    6    6  503    0 -0.44775168662E+03  0.35736702231E+03 -0.23709084298E+03  0.62000389461E+03  0.00000000000E+00 0. -1.
         -2    1    6    6    0  503 -0.46343147670E+02  0.81007276123E+02 -0.24784283879E+02  0.96561518464E+02  0.00000000000E+00 0.  1.
<mgrwt>
<rscale>  0 0.19481018E+04</rscale>
<asrwt>0</asrwt>
<pdfrwt beam="1">  1        2 0.13232973E+00 0.19481018E+04</pdfrwt>
<pdfrwt beam="2">  1       -1 0.16969894E+00 0.19481018E+04</pdfrwt>
<totfact> 0.82221260E+00</totfact>
</mgrwt>
</event>
<event>
12    7  0.1611233E-007  0.1518389E+04  0.7818608E-02  0.8872315E-01
          2   -1    0    0  501    0  0.00000000000E+00  0.00000000000E+00  0.28170208580E+04  0.28170208580E+04  0.00000000000E+00 0. -1.
         -1   -1    0    0    0  501 -0.00000000000E+00 -0.00000000000E+00 -0.20460503265E+03  0.20460503265E+03  0.00000000000E+00 0.  1.
         24    2    1    2    0    0  0.30325495925E+03 -0.71935291406E+02  0.15723337812E+04  0.16049140246E+04  0.79857689676E+02 0.  0.
        254    2    1    2    0    0 -0.30325495925E+03  0.71935291406E+02  0.10400820442E+04  0.14167118661E+04  0.91003494233E+03 0.  0.
         23    2    4    4    0    0 -0.26599483758E+03 -0.14472802340E+03  0.11211258034E+04  0.11651378862E+04  0.94465720391E+02 0.  0.
         23    2    4    4    0    0 -0.37260121672E+02  0.21666331480E+03 -0.81043759198E+02  0.25157397988E+03  0.91597313279E+02 0.  0.
          2    1    3    3  502    0  0.16703586373E+03 -0.77003761628E+02  0.97837284825E+03  0.99551192322E+03  0.00000000000E+00 0. -1.
         -1    1    3    3    0  502  0.13621909553E+03  0.50684702221E+01  0.59396093291E+03  0.60940210140E+03  0.00000000000E+00 0.  1.
         13    1    5    5    0    0 -0.11423222110E+03 -0.56803166974E+02  0.30922300187E+03  0.33450630039E+03  0.00000000000E+00 0.  1.
        -13    1    5    5    0    0 -0.15176261649E+03 -0.87924856425E+02  0.81190280155E+03  0.83063158578E+03  0.00000000000E+00 0. -1.
          1    1    6    6  503    0 -0.42476052788E+02  0.16109008506E+03 -0.97943645824E+02  0.19325420648E+03  0.00000000000E+00 0. -1.
         -1    1    6    6    0  503  0.52159311155E+01  0.55573229747E+02  0.16899886626E+02  0.58319773404E+02  0.00000000000E+00 0.  1.
<mgrwt>
<rscale>  0 0.15183895E+04</rscale>
<asrwt>0</asrwt>
<pdfrwt beam="1">  1        2 0.43338780E+00 0.15183895E+04</pdfrwt>
<pdfrwt beam="2">  1       -1 0.31477699E-01 0.15183895E+04</pdfrwt>
<totfact> 0.23379623E+01</totfact>
</mgrwt>
</event>
<event>
12    7  0.1611233E-007  0.2788263E+04  0.7818608E-02  0.8306921E-01
         -1   -1    0    0    0  501 -0.00000000000E+00  0.00000000000E+00  0.16460207614E+04  0.16460207614E+04  0.00000000000E+00 0.  1.
          2   -1    0    0  501    0  0.00000000000E+00 -0.00000000000E+00 -0.11807889401E+04  0.11807889401E+04  0.00000000000E+00 0. -1.
         24    2    1    2    0    0  0.52248705803E+03  0.10202088996E+04 -0.29401156837E+03  0.11859493908E+04  0.78830391366E+02 0.  0.
        254    2    1    2    0    0 -0.52248705803E+03 -0.10202088996E+04  0.75924338967E+03  0.16408603106E+04  0.89563000706E+03 0.  0.
         23    2    4    4    0    0 -0.59259806791E+03 -0.83797638052E+03  0.21146248457E+03  0.10518993607E+04  0.91646049302E+02 0.  0.
         23    2    4    4    0    0  0.70111009876E+02 -0.18223251911E+03  0.54778090509E+03  0.58896094988E+03  0.93203196167E+02 0.  0.
          4    1    3    3  502    0  0.38263920154E+03  0.74884274572E+03 -0.17939792009E+03  0.85986151799E+03  0.00000000000E+00 0. -1.
         -3    1    3    3    0  502  0.13984785649E+03  0.27136615390E+03 -0.11461364828E+03  0.32608787285E+03  0.00000000000E+00 0.  1.
         13    1    5    5    0    0 -0.22532446926E+03 -0.39468163136E+03  0.10546395098E+03  0.46654833783E+03  0.00000000000E+00 0. -1.
        -13    1    5    5    0    0 -0.36727359865E+03 -0.44329474916E+03  0.10599853360E+03  0.58535102291E+03  0.00000000000E+00 0.  1.
          2    1    6    6  503    0 -0.90893646128E+01 -0.16367499830E+02  0.14524287852E+03  0.14644454705E+03  0.00000000000E+00 0. -1.
         -2    1    6    6    0  503  0.79200374488E+02 -0.16586501928E+03  0.40253802657E+03  0.44251640283E+03  0.00000000000E+00 0.  1.
<mgrwt>
<rscale>  0 0.27882633E+04</rscale>
<asrwt>0</asrwt>
<pdfrwt beam="1">  1        2 0.18165984E+00 0.27882633E+04</pdfrwt>
<pdfrwt beam="2">  1       -1 0.25323396E+00 0.27882633E+04</pdfrwt>
<totfact> 0.12819044E+00</totfact>
</mgrwt>
</event>
<event>
12    7  0.1611233E-007  0.2971586E+04  0.7818608E-02  0.8251892E-01
         -1   -1    0    0    0  501 -0.00000000000E+00  0.00000000000E+00  0.43162155255E+03  0.43162155255E+03  0.00000000000E+00 0.  1.
          2   -1    0    0  501    0  0.00000000000E+00 -0.00000000000E+00 -0.51146199019E+04  0.51146199019E+04  0.00000000000E+00 0. -1.
         24    2    1    2    0    0  0.38323995923E+03  0.42403277164E+03 -0.43915789080E+04  0.44293472891E+04  0.80470148320E+02 0.  0.
        254    2    1    2    0    0 -0.38323995923E+03 -0.42403277164E+03 -0.29141944130E+03  0.11168941653E+04  0.91424866850E+03 0.  0.
         23    2    4    4    0    0 -0.13008404706E+03 -0.27697926839E+03 -0.60138909687E+03  0.68105495139E+03  0.92345149108E+02 0.  0.
         23    2    4    4    0    0 -0.25315591217E+03 -0.14705350325E+03  0.30996965557E+03  0.43583921387E+03  0.90343700885E+02 0.  0.
          2    1    3    3  502    0  0.33612074362E+03  0.34641275251E+03 -0.34928898232E+04  0.35260825666E+04  0.00000000000E+00 0. -1.
         -1    1    3    3    0  502  0.47119215607E+02  0.77620019121E+02 -0.89868908482E+03  0.90326472256E+03  0.00000000000E+00 0.  1.
         13    1    5    5    0    0  0.11465909126E+02 -0.58231778008E+01 -0.35996273132E+02  0.38224444420E+02  0.00000000000E+00 0. -1.
        -13    1    5    5    0    0 -0.14154995619E+03 -0.27115609059E+03 -0.56539282374E+03  0.64283050697E+03  0.00000000000E+00 0.  1.
          4    1    6    6  503    0 -0.20293828294E+03 -0.82274471656E+02  0.18648388434E+03  0.28762697107E+03  0.00000000000E+00 0.  1.
         -4    1    6    6    0  503 -0.50217629231E+02 -0.64779031592E+02  0.12348577123E+03  0.14821224280E+03  0.00000000000E+00 0. -1.
<mgrwt>
<rscale>  0 0.29715856E+04</rscale>
<asrwt>0</asrwt>
<pdfrwt beam="1">  1        2 0.78686462E+00 0.29715856E+04</pdfrwt>
<pdfrwt beam="2">  1       -1 0.66403314E-01 0.29715856E+04</pdfrwt>
<totfact> 0.54424407E-02</totfact>
</mgrwt>
</event>
<event>
12    7  0.1611233E-007  0.1275637E+04  0.7818608E-02  0.9049111E-01
         -1   -1    0    0    0  501 -0.00000000000E+00  0.00000000000E+00  0.43324349745E+03  0.43324349745E+03  0.00000000000E+00 0.  1.
          2   -1    0    0  501    0  0.00000000000E+00 -0.00000000000E+00 -0.93899309416E+03  0.93899309416E+03  0.00000000000E+00 0. -1.
         24    2    1    2    0    0 -0.30603052749E+02 -0.31907419678E+03 -0.14594236932E+03  0.36108198064E+03  0.79599822162E+02 0.  0.
        254    2    1    2    0    0  0.30603052749E+02  0.31907419678E+03 -0.35980722739E+03  0.10111546110E+04  0.88894742056E+03 0.  0.
         23    2    4    4    0    0  0.22018196289E+03 -0.20529035063E+03 -0.31400892518E+03  0.44465808821E+03  0.92168245482E+02 0.  0.
         23    2    4    4    0    0 -0.18957891014E+03  0.52436454741E+03 -0.45798302209E+02  0.56649652277E+03  0.89008337128E+02 0.  0.
          2    1    3    3  502    0 -0.32579931541E+02 -0.27372341121E+03 -0.15280065191E+03  0.31517296364E+03  0.00000000000E+00 0. -1.
         -1    1    3    3    0  502  0.19768787921E+01 -0.45350785570E+02  0.68582825907E+01  0.45909016997E+02  0.00000000000E+00 0.  1.
         13    1    5    5    0    0  0.20037588559E+03 -0.13928425920E+03 -0.26401670434E+03  0.35952109891E+03  0.00000000000E+00 0. -1.
        -13    1    5    5    0    0  0.19806077292E+02 -0.66006091421E+02 -0.49992220840E+02  0.85136989299E+02  0.00000000000E+00 0.  1.
          3    1    6    6  503    0 -0.92549846975E+02  0.29383978053E+03  0.17272901768E+02  0.30855411832E+03  0.00000000000E+00 0. -1.
         -3    1    6    6    0  503 -0.97029063162E+02  0.23052476688E+03 -0.63071203977E+02  0.25794240445E+03  0.00000000000E+00 0.  1.
<mgrwt>
<rscale>  0 0.12756373E+04</rscale>
<asrwt>0</asrwt>
<pdfrwt beam="1">  1        2 0.14446048E+00 0.12756373E+04</pdfrwt>
<pdfrwt beam="2">  1       -1 0.66652846E-01 0.12756373E+04</pdfrwt>
<totfact> 0.70551336E+01</totfact>
</mgrwt>
</event>
<event>
12    7  0.1611233E-007  0.1144973E+04  0.7818608E-02  0.9162433E-01
         -1   -1    0    0    0  501 -0.00000000000E+00  0.00000000000E+00  0.22134338108E+03  0.22134338108E+03  0.00000000000E+00 0.  1.
          2   -1    0    0  501    0  0.00000000000E+00 -0.00000000000E+00 -0.14806903485E+04  0.14806903485E+04  0.00000000000E+00 0. -1.
         24    2    1    2    0    0 -0.40364772494E+02 -0.19317137767E+03 -0.28975055546E+03  0.35930892615E+03  0.78759278881E+02 0.  0.
        254    2    1    2    0    0  0.40364772494E+02  0.19317137767E+03 -0.96959641200E+03  0.13427248035E+04  0.90766083956E+03 0.  0.
         23    2    4    4    0    0  0.37805160539E+03  0.22708540193E+03 -0.19214075621E+03  0.48979506493E+03  0.92143037300E+02 0.  0.
         23    2    4    4    0    0 -0.33768683290E+03 -0.33914024266E+02 -0.77745565579E+03  0.85292973853E+03  0.88708984895E+02 0.  0.
          2    1    3    3  502    0 -0.23013655282E+02 -0.18842585396E+03 -0.28148844969E+03  0.33951388496E+03  0.00000000000E+00 0. -1.
         -1    1    3    3    0  502 -0.17351117213E+02 -0.47455237038E+01 -0.82621057672E+01  0.19795041184E+02  0.00000000000E+00 0.  1.
         13    1    5    5    0    0  0.98457677428E+02  0.55332991598E+02 -0.72884686724E+01  0.11317586306E+03  0.00000000000E+00 0.  1.
        -13    1    5    5    0    0  0.27959392796E+03  0.17175241033E+03 -0.18485228754E+03  0.37661920187E+03  0.00000000000E+00 0. -1.
          3    1    6    6  503    0 -0.29681141820E+03 -0.36969141302E+02 -0.59527961209E+03  0.66619933350E+03  0.00000000000E+00 0. -1.
         -3    1    6    6    0  503 -0.40875414698E+02  0.30551170363E+01 -0.18217604370E+03  0.18673040504E+03  0.00000000000E+00 0.  1.
<mgrwt>
<rscale>  0 0.11449734E+04</rscale>
<asrwt>0</asrwt>
<pdfrwt beam="1">  1        2 0.22779851E+00 0.11449734E+04</pdfrwt>
<pdfrwt beam="2">  1       -1 0.34052829E-01 0.11449734E+04</pdfrwt>
<totfact> 0.11962967E+02</totfact>
</mgrwt>
</event>
<event>
12    7  0.1611233E-007  0.2356834E+04  0.7818608E-02  0.8455843E-01
          2   -1    0    0  501    0  0.00000000000E+00  0.00000000000E+00  0.24305064438E+04  0.24305064438E+04  0.00000000000E+00 0. -1.
         -1   -1    0    0    0  501 -0.00000000000E+00 -0.00000000000E+00 -0.57134872089E+03  0.57134872089E+03  0.00000000000E+00 0.  1.
         24    2    1    2    0    0  0.75406833946E+03  0.58534767730E+03  0.44068487247E+03  0.10543781111E+04  0.79114350141E+02 0.  0.
        254    2    1    2    0    0 -0.75406833946E+03 -0.58534767730E+03  0.14184728505E+04  0.19474770536E+04  0.93238976991E+03 0.  0.
         23    2    4    4    0    0 -0.59541965562E+03 -0.78561600781E+03  0.80372712834E+03  0.12752526987E+04  0.92601677704E+02 0.  0.
         23    2    4    4    0    0 -0.15864868384E+03  0.20026833051E+03  0.61474572212E+03  0.67222435492E+03  0.93254873310E+02 0.  0.
          4    1    3    3  502    0  0.17213610026E+03  0.15128031034E+03  0.14028442215E+03  0.26869367020E+03  0.00000000000E+00 0. -1.
         -3    1    3    3    0  502  0.58193223919E+03  0.43406736696E+03  0.30040045032E+03  0.78568444087E+03  0.00000000000E+00 0.  1.
         13    1    5    5    0    0 -0.39165660556E+03 -0.58124584771E+03  0.54864493561E+03  0.89008589334E+03  0.00000000000E+00 0. -1.
        -13    1    5    5    0    0 -0.20376305006E+03 -0.20437016010E+03  0.25508219273E+03  0.38516680537E+03  0.00000000000E+00 0.  1.
          4    1    6    6  503    0 -0.10201628288E+03  0.79592555230E+02  0.39016506293E+03  0.41106091173E+03  0.00000000000E+00 0. -1.
         -4    1    6    6    0  503 -0.56632400964E+02  0.12067577528E+03  0.22458065919E+03  0.26116344319E+03  0.00000000000E+00 0.  1.
<mgrwt>
<rscale>  0 0.23568341E+04</rscale>
<asrwt>0</asrwt>
<pdfrwt beam="1">  1        2 0.37392406E+00 0.23568341E+04</pdfrwt>
<pdfrwt beam="2">  1       -1 0.87899804E-01 0.23568341E+04</pdfrwt>
<totfact> 0.49874288E+00</totfact>
</mgrwt>
</event>
<event>
12    7  0.1611233E-007  0.1672059E+04  0.7818608E-02  0.8777462E-01
          2   -1    0    0  501    0  0.00000000000E+00  0.00000000000E+00  0.20807280352E+04  0.20807280352E+04  0.00000000000E+00 0. -1.
         -1   -1    0    0    0  501 -0.00000000000E+00 -0.00000000000E+00 -0.33591388150E+03  0.33591388150E+03  0.00000000000E+00 0.  1.
         24    2    1    2    0    0 -0.24957799608E+03  0.17368507131E+02  0.13840866768E+04  0.14087500888E+04  0.79309788980E+02 0.  0.
        254    2    1    2    0    0  0.24957799608E+03 -0.17368507131E+02  0.36072747690E+03  0.10078918279E+04  0.90726555263E+03 0.  0.
         23    2    4    4    0    0  0.48730957631E+02 -0.43876262020E+02  0.64092468175E+03  0.65039364247E+03  0.89037126455E+02 0.  0.
         23    2    4    4    0    0  0.20084703845E+03  0.26507754889E+02 -0.28019720486E+03  0.35749818543E+03  0.90842088562E+02 0.  0.
          2    1    3    3  502    0 -0.25427103902E+03  0.12880420824E+02  0.13194973775E+04  0.13438351818E+04  0.00000000000E+00 0. -1.
         -1    1    3    3    0  502  0.46930429455E+01  0.44880863066E+01  0.64589299292E+02  0.64914907023E+02  0.00000000000E+00 0.  1.
         13    1    5    5    0    0  0.34442354600E+02 -0.12234296807E+02  0.57249260742E+03  0.57365820778E+03  0.00000000000E+00 0.  1.
        -13    1    5    5    0    0  0.14288603031E+02 -0.31641965213E+02  0.68432074335E+02  0.76735434689E+02  0.00000000000E+00 0. -1.
          4    1    6    6  503    0 -0.94970319472E+01 -0.21235885462E+01 -0.11658017537E+02  0.15185934842E+02  0.00000000000E+00 0. -1.
         -4    1    6    6    0  503  0.21034407039E+03  0.28631343435E+02 -0.26853918732E+03  0.34231225059E+03  0.00000000000E+00 0.  1.
<mgrwt>
<rscale>  0 0.16720591E+04</rscale>
<asrwt>0</asrwt>
<pdfrwt beam="1">  1        2 0.32011200E+00 0.16720591E+04</pdfrwt>
<pdfrwt beam="2">  1       -1 0.51679060E-01 0.16720591E+04</pdfrwt>
<totfact> 0.24658399E+01</totfact>
</mgrwt>
</event>
<event>
12    7  0.1611233E-007  0.1165450E+04  0.7818608E-02  0.9143647E-01
          2   -1    0    0  501    0  0.00000000000E+00  0.00000000000E+00  0.43340839630E+03  0.43340839630E+03  0.00000000000E+00 0. -1.
         -1   -1    0    0    0  501 -0.00000000000E+00 -0.00000000000E+00 -0.78348397408E+03  0.78348397408E+03  0.00000000000E+00 0.  1.
         24    2    1    2    0    0 -0.19782951985E+02  0.68490996355E+02  0.14933367547E+03  0.18411492198E+03  0.80717879665E+02 0.  0.
        254    2    1    2    0    0  0.19782951985E+02 -0.68490996355E+02 -0.49940925325E+03  0.10327774484E+04  0.90118659218E+03 0.  0.
         23    2    4    4    0    0 -0.34461443184E+03 -0.75474969672E+02 -0.54288165101E+03  0.65436738208E+03  0.94976871119E+02 0.  0.
         23    2    4    4    0    0  0.36439738382E+03  0.69839733174E+01  0.43472397755E+02  0.37841006632E+03  0.92033144611E+02 0.  0.
          4    1    3    3  502    0  0.31056037779E+02  0.33280242121E+02  0.70517728027E+02  0.83933318558E+02  0.00000000000E+00 0. -1.
         -3    1    3    3    0  502 -0.50838989764E+02  0.35210754234E+02  0.78815947442E+02  0.10018160343E+03  0.00000000000E+00 0.  1.
         13    1    5    5    0    0 -0.25325005276E+03 -0.13964858503E+02 -0.34974333721E+03  0.43203125862E+03  0.00000000000E+00 0.  1.
        -13    1    5    5    0    0 -0.91364379077E+02 -0.61510111170E+02 -0.19313831379E+03  0.22233612346E+03  0.00000000000E+00 0. -1.
          1    1    6    6  503    0  0.10080747940E+03 -0.28368929408E+01 -0.28867039677E+02  0.10489757788E+03  0.00000000000E+00 0. -1.
         -1    1    6    6    0  503  0.26358990442E+03  0.98208662583E+01  0.72339437433E+02  0.27351248845E+03  0.00000000000E+00 0.  1.
<mgrwt>
<rscale>  0 0.11654502E+04</rscale>
<asrwt>0</asrwt>
<pdfrwt beam="1">  1        2 0.66678216E-01 0.11654502E+04</pdfrwt>
<pdfrwt beam="2">  1       -1 0.12053599E+00 0.11654502E+04</pdfrwt>
<totfact> 0.50323189E+01</totfact>
</mgrwt>
</event>
<event>
12    7  0.1611233E-007  0.1498617E+04  0.7818608E-02  0.8885373E-01
          2   -1    0    0  501    0  0.00000000000E+00  0.00000000000E+00  0.33258401314E+04  0.33258401314E+04  0.00000000000E+00 0. -1.
         -1   -1    0    0    0  501 -0.00000000000E+00 -0.00000000000E+00 -0.16881840311E+03  0.16881840311E+03  0.00000000000E+00 0.  1.
         24    2    1    2    0    0  0.38692708930E+03  0.23427789733E+03  0.53523263022E+03  0.70550752833E+03  0.81659037833E+02 0.  0.
        254    2    1    2    0    0 -0.38692708930E+03 -0.23427789733E+03  0.26217890981E+04  0.27891510062E+04  0.83724939826E+03 0.  0.
         23    2    4    4    0    0 -0.30464302649E+02 -0.13953988538E+03  0.22540042783E+04  0.22603603175E+04  0.91071538785E+02 0.  0.
         23    2    4    4    0    0 -0.35646278665E+03 -0.94738011951E+02  0.36778481983E+03  0.52879068869E+03  0.91175158736E+02 0.  0.
          4    1    3    3  502    0  0.82210946046E+02  0.24813612670E+02  0.14027055985E+03  0.16446940440E+03  0.00000000000E+00 0. -1.
         -3    1    3    3    0  502  0.30471614326E+03  0.20946428466E+03  0.39496207037E+03  0.54103812392E+03  0.00000000000E+00 0.  1.
         13    1    5    5    0    0  0.66865950627E+01 -0.89647791087E+01  0.27034913160E+02  0.29256868383E+02  0.00000000000E+00 0.  1.
        -13    1    5    5    0    0 -0.37150897712E+02 -0.13057510627E+03  0.22269693651E+04  0.22311034492E+04  0.00000000000E+00 0. -1.
          2    1    6    6  503    0 -0.35970273958E+03 -0.99475063066E+02  0.35641847131E+03  0.51605762830E+03  0.00000000000E+00 0. -1.
         -2    1    6    6    0  503  0.32399529290E+01  0.47370511154E+01  0.11366348515E+02  0.12733060387E+02  0.00000000000E+00 0.  1.
<mgrwt>
<rscale>  0 0.14986167E+04</rscale>
<asrwt>0</asrwt>
<pdfrwt beam="1">  1        2 0.51166766E+00 0.14986167E+04</pdfrwt>
<pdfrwt beam="2">  1       -1 0.25972065E-01 0.14986167E+04</pdfrwt>
<totfact> 0.15628020E+01</totfact>
</mgrwt>
</event>
<event>
12    7  0.1611233E-007  0.2182945E+04  0.7818608E-02  0.8525561E-01
         -1   -1    0    0    0  501 -0.00000000000E+00  0.00000000000E+00  0.17666839187E+04  0.17666839187E+04  0.00000000000E+00 0.  1.
          2   -1    0    0  501    0  0.00000000000E+00 -0.00000000000E+00 -0.67432089054E+03  0.67432089054E+03  0.00000000000E+00 0. -1.
         24    2    1    2    0    0 -0.19647860751E+03  0.72379265240E+03 -0.95784918075E+02  0.76024859818E+03  0.79520649065E+02 0.  0.
        254    2    1    2    0    0  0.19647860751E+03 -0.72379265240E+03  0.11881479462E+04  0.16807562110E+04  0.92236991058E+03 0.  0.
         23    2    4    4    0    0 -0.20096016592E+03  0.59037784915E+02  0.37736731844E+02  0.23074706108E+03  0.89161072963E+02 0.  0.
         23    2    4    4    0    0  0.39743877344E+03 -0.78283043732E+03  0.11504112144E+04  0.14500091499E+04  0.91101594800E+02 0.  0.
          2    1    3    3  502    0 -0.18825938345E+03  0.57236413709E+03 -0.78019330770E+02  0.60756013435E+03  0.00000000000E+00 0. -1.
         -1    1    3    3    0  502 -0.82192240621E+01  0.15142851532E+03 -0.17765587305E+02  0.15268846383E+03  0.00000000000E+00 0.  1.
         13    1    5    5    0    0 -0.48660425799E+02 -0.23472894114E+02  0.14830812317E+02  0.56024698045E+02  0.00000000000E+00 0.  1.
        -13    1    5    5    0    0 -0.15229974012E+03  0.82510679029E+02  0.22905919528E+02  0.17472236304E+03  0.00000000000E+00 0. -1.
          3    1    6    6  503    0  0.35952784585E+03 -0.74597791352E+03  0.10580058849E+04  0.13435474580E+04  0.00000000000E+00 0. -1.
         -3    1    6    6    0  503  0.37910927580E+02 -0.36852523800E+02  0.92405329439E+02  0.10646169193E+03  0.00000000000E+00 0.  1.
<mgrwt>
<rscale>  0 0.21829447E+04</rscale>
<asrwt>0</asrwt>
<pdfrwt beam="1">  1        2 0.10374168E+00 0.21829447E+04</pdfrwt>
<pdfrwt beam="2">  1       -1 0.27179752E+00 0.21829447E+04</pdfrwt>
<totfact> 0.22572260E+00</totfact>
</mgrwt>
</event>
<event>
12    7  0.1611233E-007  0.1922158E+04  0.7818608E-02  0.8643905E-01
          2   -1    0    0  501    0  0.00000000000E+00  0.00000000000E+00  0.29313624547E+04  0.29313624547E+04  0.00000000000E+00 0. -1.
         -1   -1    0    0    0  501 -0.00000000000E+00 -0.00000000000E+00 -0.31510012219E+03  0.31510012219E+03  0.00000000000E+00 0.  1.
         24    2    1    2    0    0 -0.19604208502E+03  0.52341586113E+03  0.20383075418E+03  0.60075000435E+03  0.83408204579E+02 0.  0.
        254    2    1    2    0    0  0.19604208502E+03 -0.52341586113E+03  0.24124315784E+04  0.26457125726E+04  0.93143557673E+03 0.  0.
         23    2    4    4    0    0 -0.72492033154E+02  0.90995773619E+02  0.70475855105E+01  0.14697823830E+03  0.89541098852E+02 0.  0.
         23    2    4    4    0    0  0.26853411817E+03 -0.61441163475E+03  0.24053839929E+04  0.24987343343E+04  0.90492489603E+02 0.  0.
          4    1    3    3  502    0 -0.11902245228E+02  0.42938804036E+02  0.42297585133E+02  0.61436878514E+02  0.00000000000E+00 0. -1.
         -3    1    3    3    0  502 -0.18413983979E+03  0.48047705710E+03  0.16153316905E+03  0.53931312584E+03  0.00000000000E+00 0.  1.
         13    1    5    5    0    0 -0.62507003639E+02  0.10515817336E+03  0.21751882210E+02  0.12425180606E+03  0.00000000000E+00 0. -1.
        -13    1    5    5    0    0 -0.99850295148E+01 -0.14162399742E+02 -0.14704296700E+02  0.22726432239E+02  0.00000000000E+00 0.  1.
          1    1    6    6  503    0  0.16252996816E+02 -0.11202466000E+03  0.34953845491E+03  0.36741096311E+03  0.00000000000E+00 0.  1.
         -1    1    6    6    0  503  0.25228112136E+03 -0.50238697476E+03  0.20558455380E+04  0.21313233712E+04  0.00000000000E+00 0. -1.
<mgrwt>
<rscale>  0 0.19221578E+04</rscale>
<asrwt>0</asrwt>
<pdfrwt beam="1">  1        2 0.45097882E+00 0.19221578E+04</pdfrwt>
<pdfrwt beam="2">  1       -1 0.48476944E-01 0.19221578E+04</pdfrwt>
<totfact> 0.87270642E+00</totfact>
</mgrwt>
</event>
<event>
12    7  0.1611233E-007  0.2071855E+04  0.7818608E-02  0.8573744E-01
          2   -1    0    0  501    0  0.00000000000E+00  0.00000000000E+00  0.30013792784E+04  0.30013792784E+04  0.00000000000E+00 0. -1.
         -1   -1    0    0    0  501 -0.00000000000E+00 -0.00000000000E+00 -0.35755071659E+03  0.35755071659E+03  0.00000000000E+00 0.  1.
         24    2    1    2    0    0  0.15220811010E+03  0.64685896176E+03  0.19729289790E+04  0.20834881115E+04  0.82946545107E+02 0.  0.
        254    2    1    2    0    0 -0.15220811010E+03 -0.64685896176E+03  0.67089958274E+03  0.12754418834E+04  0.85735169137E+03 0.  0.
         23    2    4    4    0    0  0.31159155069E+03 -0.23427853090E+03  0.70766248235E+02  0.40722896910E+03  0.94084254167E+02 0.  0.
         23    2    4    4    0    0 -0.46379966079E+03 -0.41258043086E+03  0.60013333450E+03  0.86821291433E+03  0.91109319813E+02 0.  0.
          4    1    3    3  502    0  0.15336780945E+03  0.58827355854E+03  0.18495602592E+04  0.19469105313E+04  0.00000000000E+00 0. -1.
         -3    1    3    3    0  502 -0.11596993527E+01  0.58585403220E+02  0.12336871985E+03  0.13657758019E+03  0.00000000000E+00 0.  1.
         13    1    5    5    0    0  0.52757281184E+02 -0.52984409987E+01 -0.55753526263E+01  0.53314995563E+02  0.00000000000E+00 0.  1.
        -13    1    5    5    0    0  0.25883426950E+03 -0.22898008991E+03  0.76341600861E+02  0.35391397354E+03  0.00000000000E+00 0. -1.
          3    1    6    6  503    0 -0.43812472039E+03 -0.40020839105E+03  0.59283527454E+03  0.83879299569E+03  0.00000000000E+00 0. -1.
         -3    1    6    6    0  503 -0.25674940400E+02 -0.12372039809E+02  0.72980599619E+01  0.29419918640E+02  0.00000000000E+00 0.  1.
<mgrwt>
<rscale>  0 0.20718545E+04</rscale>
<asrwt>0</asrwt>
<pdfrwt beam="1">  1        2 0.46175064E+00 0.20718545E+04</pdfrwt>
<pdfrwt beam="2">  1       -1 0.55007805E-01 0.20718545E+04</pdfrwt>
<totfact> 0.61134155E+00</totfact>
</mgrwt>
</event>
<event>
12    7  0.1611233E-007  0.1549228E+04  0.7818608E-02  0.8852361E-01
         -1   -1    0    0    0  501 -0.00000000000E+00  0.00000000000E+00  0.70523064134E+03  0.70523064134E+03  0.00000000000E+00 0.  1.
          2   -1    0    0  501    0  0.00000000000E+00 -0.00000000000E+00 -0.85082309134E+03  0.85082309134E+03  0.00000000000E+00 0. -1.
         24    2    1    2    0    0  0.32787819806E+03 -0.86774810029E+02  0.32327815838E+03  0.47538419148E+03  0.80295587727E+02 0.  0.
        254    2    1    2    0    0 -0.32787819806E+03  0.86774810029E+02 -0.46887060838E+03  0.10806695412E+04  0.91267356127E+03 0.  0.
         23    2    4    4    0    0  0.57290303361E+02 -0.27323411033E+02 -0.62871872132E+03  0.63861325970E+03  0.92254632809E+02 0.  0.
         23    2    4    4    0    0 -0.38516850142E+03  0.11409822106E+03  0.15984811295E+03  0.44205628149E+03  0.92136628209E+02 0.  0.
          2    1    3    3  502    0  0.19979262603E+03 -0.60288777859E+02  0.24929341135E+03  0.32511388020E+03  0.00000000000E+00 0. -1.
         -1    1    3    3    0  502  0.12808557203E+03 -0.26486032170E+02  0.73984747029E+02  0.15027031129E+03  0.00000000000E+00 0.  1.
         13    1    5    5    0    0  0.62528053804E+02 -0.53429771218E+02 -0.40133226539E+03  0.40967314436E+03  0.00000000000E+00 0. -1.
        -13    1    5    5    0    0 -0.52377504430E+01  0.26106360185E+02 -0.22738645593E+03  0.22894011535E+03  0.00000000000E+00 0.  1.
          3    1    6    6  503    0 -0.90230927807E+02  0.36496809044E+02 -0.84332393978E+00  0.97336265588E+02  0.00000000000E+00 0. -1.
         -3    1    6    6    0  503 -0.29493757361E+03  0.77601412019E+02  0.16069143689E+03  0.34472001590E+03  0.00000000000E+00 0.  1.
<mgrwt>
<rscale>  0 0.15492276E+04</rscale>
<asrwt>0</asrwt>
<pdfrwt beam="1">  1        2 0.13089586E+00 0.15492276E+04</pdfrwt>
<pdfrwt beam="2">  1       -1 0.10849702E+00 0.15492276E+04</pdfrwt>
<totfact> 0.27467508E+01</totfact>
</mgrwt>
</event>
<event>
12    7  0.2280214E-007  0.1454635E+04  0.7818608E-02  0.8915194E-01
         -1   -1    0    0    0  501 -0.00000000000E+00  0.00000000000E+00  0.28526969835E+03  0.28526969835E+03  0.00000000000E+00 0.  1.
          2   -1    0    0  501    0  0.00000000000E+00 -0.00000000000E+00 -0.18543527346E+04  0.18543527346E+04  0.00000000000E+00 0. -1.
         24    2    1    2    0    0  0.14695358433E+02  0.61750766123E+01 -0.11423643480E+04  0.11452054959E+04  0.79026825477E+02 0.  0.
        254    2    1    2    0    0 -0.14695358433E+02 -0.61750766123E+01 -0.42671868826E+03  0.99441693706E+03  0.89806576634E+03 0.  0.
         23    2    4    4    0    0 -0.48880527805E+02 -0.43789772468E+03 -0.27170685576E+03  0.52548494936E+03  0.90366438746E+02 0.  0.
         23    2    4    4    0    0  0.34185169373E+02  0.43172264807E+03 -0.15501183249E+03  0.46893198770E+03  0.91189200120E+02 0.  0.
          2    1    3    3  502    0 -0.63303686322E+01 -0.12234934439E+02 -0.10015504661E+04  0.10016451983E+04  0.00000000000E+00 0. -1.
         -1    1    3    3    0  502  0.21025727065E+02  0.18410011052E+02 -0.14081388191E+03  0.14356029759E+03  0.00000000000E+00 0.  1.
         13    1    5    5    0    0 -0.42130102028E+02 -0.40213498120E+03 -0.21457118865E+03  0.45774259535E+03  0.00000000000E+00 0. -1.
        -13    1    5    5    0    0 -0.67504257773E+01 -0.35762743480E+02 -0.57135667112E+02  0.67742354002E+02  0.00000000000E+00 0.  1.
          3    1    6    6  503    0  0.23975147437E+02  0.43015912759E+03 -0.15675264504E+03  0.45845727661E+03  0.00000000000E+00 0. -1.
         -3    1    6    6    0  503  0.10210021936E+02  0.15635204735E+01  0.17408125470E+01  0.10474711096E+02  0.00000000000E+00 0.  1.
<mgrwt>
<rscale>  0 0.14546349E+04</rscale>
<asrwt>0</asrwt>
<pdfrwt beam="1">  1        2 0.28528505E+00 0.14546349E+04</pdfrwt>
<pdfrwt beam="2">  1       -1 0.43887644E-01 0.14546349E+04</pdfrwt>
<totfact> 0.45625246E+01</totfact>
</mgrwt>
</event>
<event>
12    7  0.1611233E-007  0.1956654E+04  0.7818608E-02  0.8627159E-01
         -1   -1    0    0    0  501 -0.00000000000E+00  0.00000000000E+00  0.95266948313E+03  0.95266948313E+03  0.00000000000E+00 0.  1.
          2   -1    0    0  501    0  0.00000000000E+00 -0.00000000000E+00 -0.10046755097E+04  0.10046755097E+04  0.00000000000E+00 0. -1.
         24    2    1    2    0    0  0.69624389550E+03 -0.33644724794E+03 -0.79100177857E+02  0.78129965607E+03  0.78866987904E+02 0.  0.
        254    2    1    2    0    0 -0.69624389550E+03  0.33644724794E+03  0.27094151318E+02  0.11760453367E+04  0.88566146373E+03 0.  0.
         23    2    4    4    0    0 -0.38045986111E+03  0.44116998105E+03 -0.33417163145E+03  0.67764650714E+03  0.90296463231E+02 0.  0.
         23    2    4    4    0    0 -0.31578403439E+03 -0.10472273312E+03  0.36126578276E+03  0.49839882959E+03  0.84864717837E+02 0.  0.
          2    1    3    3  502    0  0.65038374773E+03 -0.29076612246E+03 -0.76517309251E+02  0.71651856633E+03  0.00000000000E+00 0. -1.
         -1    1    3    3    0  502  0.45860147772E+02 -0.45681125476E+02 -0.25828686053E+01  0.64781089746E+02  0.00000000000E+00 0.  1.
         13    1    5    5    0    0 -0.22840278100E+03  0.31761482784E+03 -0.25091766248E+03  0.46476519080E+03  0.00000000000E+00 0.  1.
        -13    1    5    5    0    0 -0.15205708011E+03  0.12355515321E+03 -0.83253968966E+02  0.21288131634E+03  0.00000000000E+00 0. -1.
          1    1    6    6  503    0 -0.22089684665E+02 -0.17518095773E+02  0.51948253669E+01  0.28667473881E+02  0.00000000000E+00 0. -1.
         -1    1    6    6    0  503 -0.29369434972E+03 -0.87204637342E+02  0.35607095740E+03  0.46973135571E+03  0.00000000000E+00 0.  1.
<mgrwt>
<rscale>  0 0.19566540E+04</rscale>
<asrwt>0</asrwt>
<pdfrwt beam="1">  1        2 0.15456546E+00 0.19566540E+04</pdfrwt>
<pdfrwt beam="2">  1       -1 0.14656454E+00 0.19566540E+04</pdfrwt>
<totfact> 0.98786905E+00</totfact>
</mgrwt>
</event>
<event>
12    7  0.1611233E-007  0.2918704E+04  0.7818608E-02  0.8267334E-01
          4   -1    0    0  501    0  0.00000000000E+00  0.00000000000E+00  0.18109475510E+04  0.18109475510E+04  0.00000000000E+00 0. -1.
         -3   -1    0    0    0  501 -0.00000000000E+00 -0.00000000000E+00 -0.11760189509E+04  0.11760189509E+04  0.00000000000E+00 0.  1.
         24    2    1    2    0    0 -0.60339105218E+03 -0.20328143757E+03  0.14596224362E+04  0.15944538208E+04  0.79882574735E+02 0.  0.
        254    2    1    2    0    0  0.60339105218E+03  0.20328143757E+03 -0.82469383601E+03  0.13925126811E+04  0.92388718971E+03 0.  0.
         23    2    4    4    0    0 -0.12014357026E+03 -0.38318488737E+02 -0.55818511437E+03  0.57952948518E+03  0.91547901325E+02 0.  0.
         23    2    4    4    0    0  0.72353462243E+03  0.24159992631E+03 -0.26650872164E+03  0.81298319597E+03  0.89676663456E+02 0.  0.
          2    1    3    3  502    0 -0.60110940245E+03 -0.20737703213E+03  0.14549531291E+04  0.15878370052E+04  0.00000000000E+00 0. -1.
         -1    1    3    3    0  502 -0.22816497303E+01  0.40955945523E+01  0.46693070843E+01  0.66168156145E+01  0.00000000000E+00 0.  1.
         13    1    5    5    0    0 -0.93982682927E+02 -0.59035278412E+02 -0.31322412132E+03  0.33230597190E+03  0.00000000000E+00 0.  1.
        -13    1    5    5    0    0 -0.26160887329E+02  0.20716789675E+02 -0.24496099305E+03  0.24722351328E+03  0.00000000000E+00 0. -1.
          1    1    6    6  503    0  0.20436672789E+03  0.26445949184E+02 -0.72653432563E+02  0.21850324702E+03  0.00000000000E+00 0. -1.
         -1    1    6    6    0  503  0.51916789454E+03  0.21515397713E+03 -0.19385528908E+03  0.59447994895E+03  0.00000000000E+00 0.  1.
<mgrwt>
<rscale>  0 0.29187043E+04</rscale>
<asrwt>0</asrwt>
<pdfrwt beam="1">  1        4 0.27860731E+00 0.29187043E+04</pdfrwt>
<pdfrwt beam="2">  1       -3 0.18092599E+00 0.29187043E+04</pdfrwt>
<totfact> 0.15967592E-02</totfact>
</mgrwt>
</event>
<event>
12    7  0.1611233E-007  0.3353324E+04  0.7818608E-02  0.8149458E-01
         -1   -1    0    0    0  501 -0.00000000000E+00  0.00000000000E+00  0.89147597853E+03  0.89147597853E+03  0.00000000000E+00 0.  1.
          2   -1    0    0  501    0  0.00000000000E+00 -0.00000000000E+00 -0.31534168315E+04  0.31534168315E+04  0.00000000000E+00 0. -1.
         24    2    1    2    0    0 -0.59822441252E+03  0.73543266557E+01  0.67918850284E+03  0.90974722080E+03  0.91741209413E+02 0.  0.
        254    2    1    2    0    0  0.59822441252E+03 -0.73543266557E+01 -0.29411293558E+04  0.31351455892E+04  0.90607364168E+03 0.  0.
         23    2    4    4    0    0  0.53026955858E+03  0.33293081504E+03 -0.12002195719E+04  0.13575667022E+04  0.10213519306E+03 0.  0.
         23    2    4    4    0    0  0.67954853933E+02 -0.34028514169E+03 -0.17409097839E+04  0.17775788870E+04  0.92779222934E+02 0.  0.
          2    1    3    3  502    0 -0.10215463132E+03  0.29881694819E+02  0.91573969065E+02  0.14040753611E+03  0.00000000000E+00 0. -1.
         -1    1    3    3    0  502 -0.49606978119E+03 -0.22527368164E+02  0.58761453378E+03  0.76933968469E+03  0.00000000000E+00 0.  1.
         13    1    5    5    0    0  0.11191487228E+03  0.12239171478E+03 -0.32929142218E+03  0.36869704529E+03  0.00000000000E+00 0.  1.
        -13    1    5    5    0    0  0.41835468631E+03  0.21053910026E+03 -0.87092814972E+03  0.98886965687E+03  0.00000000000E+00 0. -1.
          3    1    6    6  503    0  0.26859840024E+02 -0.18356529973E+03 -0.70146957219E+03  0.72558750746E+03  0.00000000000E+00 0. -1.
         -3    1    6    6    0  503  0.41095013909E+02 -0.15671984196E+03 -0.10394402117E+04  0.10519913796E+04  0.00000000000E+00 0.  1.
<mgrwt>
<rscale>  0 0.33533239E+04</rscale>
<asrwt>0</asrwt>
<pdfrwt beam="1">  1        2 0.48514104E+00 0.33533239E+04</pdfrwt>
<pdfrwt beam="2">  1       -1 0.13715015E+00 0.33533239E+04</pdfrwt>
<totfact> 0.58012994E-01</totfact>
</mgrwt>
</event>
<event>
12    7  0.1611233E-007  0.1410871E+04  0.7818608E-02  0.8945987E-01
         -1   -1    0    0    0  501 -0.00000000000E+00  0.00000000000E+00  0.28430358868E+03  0.28430358868E+03  0.00000000000E+00 0.  1.
          2   -1    0    0  501    0  0.00000000000E+00 -0.00000000000E+00 -0.17503793631E+04  0.17503793631E+04  0.00000000000E+00 0. -1.
         24    2    1    2    0    0  0.37658105164E+03 -0.20734337144E+03 -0.41082626148E+03  0.59965125853E+03  0.77452260156E+02 0.  0.
        254    2    1    2    0    0 -0.37658105164E+03  0.20734337144E+03 -0.10552495129E+04  0.14350316932E+04  0.87233013471E+03 0.  0.
         23    2    4    4    0    0 -0.82811602373E+02  0.13385411348E+03 -0.11009625466E+04  0.11155765147E+04  0.87279699161E+02 0.  0.
         23    2    4    4    0    0 -0.29376944926E+03  0.73489257957E+02  0.45713033722E+02  0.31945517852E+03  0.90888774206E+02 0.  0.
          2    1    3    3  502    0  0.20457817114E+03 -0.11258543655E+03 -0.27556965064E+03  0.36120124721E+03  0.00000000000E+00 0. -1.
         -1    1    3    3    0  502  0.17200288049E+03 -0.94757934884E+02 -0.13525661083E+03  0.23845001131E+03  0.00000000000E+00 0.  1.
         13    1    5    5    0    0  0.17976978346E+02  0.24687683681E+02 -0.15004064553E+03  0.15311710808E+03  0.00000000000E+00 0. -1.
        -13    1    5    5    0    0 -0.10078858072E+03  0.10916642980E+03 -0.95092190110E+03  0.96245940662E+03  0.00000000000E+00 0.  1.
          4    1    6    6  503    0 -0.76520999647E+02  0.56367688032E+02 -0.68372666266E+01  0.95286556533E+02  0.00000000000E+00 0. -1.
         -4    1    6    6    0  503 -0.21724844962E+03  0.17121569925E+02  0.52550300348E+02  0.22416862199E+03  0.00000000000E+00 0.  1.
<mgrwt>
<rscale>  0 0.14108708E+04</rscale>
<asrwt>0</asrwt>
<pdfrwt beam="1">  1        2 0.26928914E+00 0.14108708E+04</pdfrwt>
<pdfrwt beam="2">  1       -1 0.43739012E-01 0.14108708E+04</pdfrwt>
<totfact> 0.52605927E+01</totfact>
</mgrwt>
</event>
<event>
12    7  0.1611233E-007  0.1934787E+04  0.7818608E-02  0.8637732E-01
         -1   -1    0    0    0  501 -0.00000000000E+00  0.00000000000E+00  0.63489643932E+03  0.63489643932E+03  0.00000000000E+00 0.  1.
          2   -1    0    0  501    0  0.00000000000E+00 -0.00000000000E+00 -0.14740204193E+04  0.14740204193E+04  0.00000000000E+00 0. -1.
         24    2    1    2    0    0  0.50442570322E+03  0.49031631197E+03 -0.35931019133E+02  0.70902173569E+03  0.81027203346E+02 0.  0.
        254    2    1    2    0    0 -0.50442570322E+03 -0.49031631197E+03 -0.80319296088E+03  0.13998951230E+04  0.90539054944E+03 0.  0.
         23    2    4    4    0    0 -0.68809741284E+03 -0.58903214768E+03 -0.71084295835E+03  0.11550975778E+04  0.92280996210E+02 0.  0.
         23    2    4    4    0    0  0.18367170962E+03  0.98715835712E+02 -0.92350002524E+02  0.24479754515E+03  0.88978660414E+02 0.  0.
          4    1    3    3  502    0  0.22526585339E+03  0.24393542916E+03 -0.53263844277E+02  0.33628296925E+03  0.00000000000E+00 0. -1.
         -3    1    3    3    0  502  0.27915984984E+03  0.24638088281E+03  0.17332825144E+02  0.37273876643E+03  0.00000000000E+00 0.  1.
         13    1    5    5    0    0 -0.38934801207E+03 -0.27450296540E+03 -0.38648313714E+03  0.61344353269E+03  0.00000000000E+00 0. -1.
        -13    1    5    5    0    0 -0.29874940077E+03 -0.31452918229E+03 -0.32435982121E+03  0.54165404512E+03  0.00000000000E+00 0.  1.
          3    1    6    6  503    0  0.17040877341E+03  0.59620476092E+02 -0.53976087495E+02  0.18843346106E+03  0.00000000000E+00 0. -1.
         -3    1    6    6    0  503  0.13262936209E+02  0.39095359619E+02 -0.38373915029E+02  0.56364084090E+02  0.00000000000E+00 0.  1.
<mgrwt>
<rscale>  0 0.19347871E+04</rscale>
<asrwt>0</asrwt>
<pdfrwt beam="1">  1        2 0.22677237E+00 0.19347871E+04</pdfrwt>
<pdfrwt beam="2">  1       -1 0.97676377E-01 0.19347871E+04</pdfrwt>
<totfact> 0.14052870E+01</totfact>
</mgrwt>
</event>
<event>
12    7  0.1611233E-007  0.1632710E+04  0.7818608E-02  0.8800701E-01
         -1   -1    0    0    0  501 -0.00000000000E+00  0.00000000000E+00  0.16450125146E+04  0.16450125146E+04  0.00000000000E+00 0.  1.
          2   -1    0    0  501    0  0.00000000000E+00 -0.00000000000E+00 -0.40512508608E+03  0.40512508608E+03  0.00000000000E+00 0. -1.
         24    2    1    2    0    0  0.31709636240E+02  0.52049124234E+03  0.71381287202E+03  0.88757949312E+03  0.79698845412E+02 0.  0.
        254    2    1    2    0    0 -0.31709636240E+02 -0.52049124234E+03  0.52607455655E+03  0.11625581076E+04  0.89603028974E+03 0.  0.
         23    2    4    4    0    0  0.21313999003E+03 -0.43644755330E+03  0.68505720246E+03  0.84542686225E+03  0.97611918555E+02 0.  0.
         23    2    4    4    0    0 -0.24484962627E+03 -0.84043689046E+02 -0.15898264591E+03  0.31713124536E+03  0.91005845580E+02 0.  0.
          2    1    3    3  502    0  0.85011986045E+00  0.81166987581E+02  0.67981679471E+02  0.10587875764E+03  0.00000000000E+00 0. -1.
         -1    1    3    3    0  502  0.30859516379E+02  0.43932425476E+03  0.64583119255E+03  0.78170073547E+03  0.00000000000E+00 0.  1.
         13    1    5    5    0    0  0.27690765812E+02 -0.12240161223E+02  0.63948416679E+02  0.70753092185E+02  0.00000000000E+00 0.  1.
        -13    1    5    5    0    0  0.18544922422E+03 -0.42420739207E+03  0.62110878578E+03  0.77467377007E+03  0.00000000000E+00 0. -1.
          2    1    6    6  503    0 -0.75461626426E+02  0.13694364247E+02 -0.27490720395E+02  0.81472279843E+02  0.00000000000E+00 0. -1.
         -2    1    6    6    0  503 -0.16938799984E+03 -0.97738053292E+02 -0.13149192552E+03  0.23565896552E+03  0.00000000000E+00 0.  1.
<mgrwt>
<rscale>  0 0.16327104E+04</rscale>
<asrwt>0</asrwt>
<pdfrwt beam="1">  1        2 0.62326937E-01 0.16327104E+04</pdfrwt>
<pdfrwt beam="2">  1       -1 0.25307884E+00 0.16327104E+04</pdfrwt>
<totfact> 0.57102952E+00</totfact>
</mgrwt>
</event>
<event>
12    7  0.1611233E-007  0.1172420E+04  0.7818608E-02  0.9137346E-01
          2   -1    0    0  501    0  0.00000000000E+00  0.00000000000E+00  0.35702792609E+03  0.35702792609E+03  0.00000000000E+00 0. -1.
         -1   -1    0    0    0  501 -0.00000000000E+00 -0.00000000000E+00 -0.96250790390E+03  0.96250790390E+03  0.00000000000E+00 0.  1.
         24    2    1    2    0    0 -0.15670340923E+03  0.16658638140E+03 -0.14618337020E+03  0.28308391138E+03  0.80373765792E+02 0.  0.
        254    2    1    2    0    0  0.15670340923E+03 -0.16658638140E+03 -0.45929660761E+03  0.10364519186E+04  0.90053996297E+03 0.  0.
         23    2    4    4    0    0  0.12700424895E+03  0.33749000451E+03 -0.35342988477E+03  0.51301095969E+03  0.90763312605E+02 0.  0.
         23    2    4    4    0    0  0.29699160278E+02 -0.50407638591E+03 -0.10586672284E+03  0.52344095892E+03  0.88360803095E+02 0.  0.
          2    1    3    3  502    0 -0.66895997035E+02  0.98411454353E+02 -0.33372834547E+02  0.12358654803E+03  0.00000000000E+00 0. -1.
         -1    1    3    3    0  502 -0.89807412193E+02  0.68174927043E+02 -0.11281053565E+03  0.15949736335E+03  0.00000000000E+00 0.  1.
         13    1    5    5    0    0  0.30349149312E+02  0.16485777296E+02 -0.50485511174E+02  0.61168934562E+02  0.00000000000E+00 0. -1.
        -13    1    5    5    0    0  0.96655099639E+02  0.32100422721E+03 -0.30294437360E+03  0.45184202513E+03  0.00000000000E+00 0.  1.
          2    1    6    6  503    0 -0.17469125076E+02 -0.57661424676E+02  0.67607516727E+01  0.60627699855E+02  0.00000000000E+00 0. -1.
         -2    1    6    6    0  503  0.47168285353E+02 -0.44641496123E+03 -0.11262747451E+03  0.46281325907E+03  0.00000000000E+00 0.  1.
<mgrwt>
<rscale>  0 0.11724201E+04</rscale>
<asrwt>0</asrwt>
<pdfrwt beam="1">  1        2 0.54927375E-01 0.11724201E+04</pdfrwt>
<pdfrwt beam="2">  1       -1 0.14807814E+00 0.11724201E+04</pdfrwt>
<totfact> 0.36953776E+01</totfact>
</mgrwt>
</event>
<event>
12    7  0.1611233E-007  0.1819688E+04  0.7818608E-02  0.8695899E-01
         -1   -1    0    0    0  501 -0.00000000000E+00  0.00000000000E+00  0.92819803442E+03  0.92819803442E+03  0.00000000000E+00 0.  1.
          2   -1    0    0  501    0  0.00000000000E+00 -0.00000000000E+00 -0.89185242636E+03  0.89185242636E+03  0.00000000000E+00 0. -1.
         24    2    1    2    0    0  0.10329760048E+03  0.66100817262E+03 -0.14161989335E+03  0.68869771603E+03  0.81523931013E+02 0.  0.
        254    2    1    2    0    0 -0.10329760048E+03 -0.66100817262E+03  0.17796550142E+03  0.11313527448E+04  0.89481009987E+03 0.  0.
         23    2    4    4    0    0  0.14457877414E+03  0.56715101933E+02  0.30697987523E+03  0.35580794810E+03  0.90791119684E+02 0.  0.
         23    2    4    4    0    0 -0.24787637462E+03 -0.71772327456E+03 -0.12901437381E+03  0.77554479666E+03  0.90860481174E+02 0.  0.
          4    1    3    3  502    0  0.11363630444E+03  0.62508632571E+03 -0.14325507519E+03  0.65128192117E+03  0.00000000000E+00 0. -1.
         -3    1    3    3    0  502 -0.10338703959E+02  0.35921846913E+02  0.16351818312E+01  0.37415794857E+02  0.00000000000E+00 0.  1.
         13    1    5    5    0    0  0.33142887601E+02  0.56383425603E+02  0.14645091466E+03  0.16039143395E+03  0.00000000000E+00 0. -1.
        -13    1    5    5    0    0  0.11143588654E+03  0.33167633022E+00  0.16052896057E+03  0.19541651414E+03  0.00000000000E+00 0.  1.
          3    1    6    6  503    0 -0.13281621138E+03 -0.50250108400E+03 -0.69870673311E+02  0.52443245172E+03  0.00000000000E+00 0. -1.
         -3    1    6    6    0  503 -0.11506016323E+03 -0.21522219055E+03 -0.59143700502E+02  0.25111234493E+03  0.00000000000E+00 0.  1.
<mgrwt>
<rscale>  0 0.18196875E+04</rscale>
<asrwt>0</asrwt>
<pdfrwt beam="1">  1        2 0.13720807E+00 0.18196875E+04</pdfrwt>
<pdfrwt beam="2">  1       -1 0.14279970E+00 0.18196875E+04</pdfrwt>
<totfact> 0.12711421E+01</totfact>
</mgrwt>
</event>
<event>
12    7  0.1611233E-007  0.1979219E+04  0.7818608E-02  0.8616399E-01
          2   -1    0    0  501    0  0.00000000000E+00  0.00000000000E+00  0.79420072430E+03  0.79420072430E+03  0.00000000000E+00 0. -1.
         -1   -1    0    0    0  501 -0.00000000000E+00 -0.00000000000E+00 -0.12330970878E+04  0.12330970878E+04  0.00000000000E+00 0.  1.
         24    2    1    2    0    0 -0.27084668082E+03 -0.67376511730E+03  0.10727418446E+03  0.73838194467E+03  0.79892351057E+02 0.  0.
        254    2    1    2    0    0  0.27084668082E+03  0.67376511730E+03 -0.54617054796E+03  0.12889158674E+04  0.91415780260E+03 0.  0.
         23    2    4    4    0    0 -0.16179631175E+03  0.21575838517E+03 -0.58589906718E+03  0.65116158232E+03  0.89464865166E+02 0.  0.
         23    2    4    4    0    0  0.43264299256E+03  0.45800673213E+03  0.39728519221E+02  0.63775428511E+03  0.90565154684E+02 0.  0.
          2    1    3    3  502    0 -0.60068949585E+01 -0.49294438321E+02  0.23434304360E+02  0.54910755388E+02  0.00000000000E+00 0. -1.
         -1    1    3    3    0  502 -0.26483978586E+03 -0.62447067898E+03  0.83839880100E+02  0.68347118928E+03  0.00000000000E+00 0.  1.
         13    1    5    5    0    0 -0.13109079418E+02  0.45173248132E+02 -0.46152019442E+02  0.65897490154E+02  0.00000000000E+00 0. -1.
        -13    1    5    5    0    0 -0.14868723233E+03  0.17058513704E+03 -0.53974704774E+03  0.58526409216E+03  0.00000000000E+00 0.  1.
          2    1    6    6  503    0  0.14392240900E+01  0.84583884697E+01 -0.96096302316E+01  0.12882573294E+02  0.00000000000E+00 0. -1.
         -2    1    6    6    0  503  0.43120376847E+03  0.44954834366E+03  0.49338149453E+02  0.62487171182E+03  0.00000000000E+00 0.  1.
<mgrwt>
<rscale>  0 0.19792186E+04</rscale>
<asrwt>0</asrwt>
<pdfrwt beam="1">  1        2 0.12218473E+00 0.19792186E+04</pdfrwt>
<pdfrwt beam="2">  1       -1 0.18970725E+00 0.19792186E+04</pdfrwt>
<totfact> 0.65580571E+00</totfact>
</mgrwt>
</event>
<event>
12    7  0.1611233E-007  0.2046793E+04  0.7818608E-02  0.8585051E-01
         -1   -1    0    0    0  501 -0.00000000000E+00  0.00000000000E+00  0.21766378767E+03  0.21766378767E+03  0.00000000000E+00 0.  1.
          2   -1    0    0  501    0  0.00000000000E+00 -0.00000000000E+00 -0.48117345776E+04  0.48117345776E+04  0.00000000000E+00 0. -1.
         24    2    1    2    0    0 -0.43607855801E+03  0.40825770023E+02 -0.14147469806E+03  0.46703165628E+03  0.79197383313E+02 0.  0.
        254    2    1    2    0    0  0.43607855801E+03 -0.40825770023E+02 -0.44525960919E+04  0.45623667090E+04  0.89316671336E+03 0.  0.
         23    2    4    4    0    0  0.39576401776E+02 -0.45419155309E+02 -0.37362333637E+04  0.37377280619E+04  0.86845407713E+02 0.  0.
         23    2    4    4    0    0  0.39650215623E+03  0.45933852863E+01 -0.71636272814E+03  0.82463864715E+03  0.98072835333E+02 0.  0.
          4    1    3    3  502    0 -0.17055865767E+03  0.11356306881E+02 -0.95967713192E+02  0.19603322011E+03  0.00000000000E+00 0. -1.
         -3    1    3    3    0  502 -0.26551990034E+03  0.29469463142E+02 -0.45506984872E+02  0.27099843617E+03  0.00000000000E+00 0.  1.
         13    1    5    5    0    0  0.60932232268E+02 -0.69401494876E+01 -0.23252493130E+04  0.23260578819E+04  0.00000000000E+00 0.  1.
        -13    1    5    5    0    0 -0.21355830492E+02 -0.38479005821E+02 -0.14109840507E+04  0.14116701799E+04  0.00000000000E+00 0. -1.
          4    1    6    6  503    0  0.21161638752E+03 -0.44423294938E+02 -0.35159507860E+03  0.41276388396E+03  0.00000000000E+00 0.  1.
         -4    1    6    6    0  503  0.18488576871E+03  0.49016680225E+02 -0.36476764953E+03  0.41187476319E+03  0.00000000000E+00 0. -1.
<mgrwt>
<rscale>  0 0.20467930E+04</rscale>
<asrwt>0</asrwt>
<pdfrwt beam="1">  1        2 0.74026683E+00 0.20467930E+04</pdfrwt>
<pdfrwt beam="2">  1       -1 0.33486738E-01 0.20467930E+04</pdfrwt>
<totfact> 0.52109236E-01</totfact>
</mgrwt>
</event>
<event>
12    7  0.1611233E-007  0.2201359E+04  0.7818608E-02  0.8517863E-01
          2   -1    0    0  501    0  0.00000000000E+00  0.00000000000E+00  0.11885489063E+04  0.11885489063E+04  0.00000000000E+00 0. -1.
         -1   -1    0    0    0  501 -0.00000000000E+00 -0.00000000000E+00 -0.10193060453E+04  0.10193060453E+04  0.00000000000E+00 0.  1.
         24    2    1    2    0    0 -0.17524323960E+03 -0.84719205794E+03 -0.22269204919E+03  0.89681955831E+03  0.79050587161E+02 0.  0.
        254    2    1    2    0    0  0.17524323960E+03  0.84719205794E+03  0.39193491015E+03  0.13110353933E+04  0.90374567919E+03 0.  0.
         23    2    4    4    0    0  0.91416552085E+02 -0.17493525612E+03  0.31745316705E+02  0.22022514805E+03  0.92368938889E+02 0.  0.
         23    2    4    4    0    0  0.83826687519E+02  0.10221273141E+04  0.36018959345E+03  0.10908102453E+04  0.91429143353E+02 0.  0.
          2    1    3    3  502    0  0.26799634565E+01 -0.10456025789E+03 -0.17129597122E+02  0.10598798437E+03  0.00000000000E+00 0. -1.
         -1    1    3    3    0  502 -0.17792320306E+03 -0.74263180005E+03 -0.20556245207E+03  0.79083157394E+03  0.00000000000E+00 0.  1.
         13    1    5    5    0    0  0.44552494608E+02 -0.11997284407E+03  0.61645662742E+02  0.14205138445E+03  0.00000000000E+00 0.  1.
        -13    1    5    5    0    0  0.46864057476E+02 -0.54962412049E+02 -0.29900346037E+02  0.78173763595E+02  0.00000000000E+00 0. -1.
          2    1    6    6  503    0 -0.61781398872E+01  0.18414741716E+03  0.35557390459E+02  0.18765065594E+03  0.00000000000E+00 0. -1.
         -2    1    6    6    0  503  0.90004827407E+02  0.83797989690E+03  0.32463220299E+03  0.90315958932E+03  0.00000000000E+00 0.  1.
<mgrwt>
<rscale>  0 0.22013587E+04</rscale>
<asrwt>0</asrwt>
<pdfrwt beam="1">  1        2 0.18285368E+00 0.22013587E+04</pdfrwt>
<pdfrwt beam="2">  1       -1 0.15681632E+00 0.22013587E+04</pdfrwt>
<totfact> 0.61961695E+00</totfact>
</mgrwt>
</event>
<event>
12    7  0.1611233E-007  0.1727980E+04  0.7818608E-02  0.8745566E-01
         -1   -1    0    0    0  501 -0.00000000000E+00  0.00000000000E+00  0.47211474572E+03  0.47211474572E+03  0.00000000000E+00 0.  1.
          2   -1    0    0  501    0  0.00000000000E+00 -0.00000000000E+00 -0.15811375389E+04  0.15811375389E+04  0.00000000000E+00 0. -1.
         24    2    1    2    0    0 -0.43720826490E+03 -0.10340739924E+03  0.11198592215E+03  0.47003238535E+03  0.80903889895E+02 0.  0.
        254    2    1    2    0    0  0.43720826490E+03  0.10340739924E+03 -0.12210087154E+04  0.15832198993E+04  0.90215232054E+03 0.  0.
         23    2    4    4    0    0  0.25053412426E+03 -0.26636103569E+03 -0.10750666479E+03  0.39195584446E+03  0.91411991969E+02 0.  0.
         23    2    4    4    0    0  0.18667414064E+03  0.36976843493E+03 -0.11135020506E+04  0.11912640549E+04  0.87448850720E+02 0.  0.
          2    1    3    3  502    0 -0.33841804857E+02  0.30999922136E+01 -0.99085218671E+01  0.35398538293E+02  0.00000000000E+00 0. -1.
         -1    1    3    3    0  502 -0.40336646004E+03 -0.10650739146E+03  0.12189444402E+03  0.43463384706E+03  0.00000000000E+00 0.  1.
         13    1    5    5    0    0  0.54783867113E+02 -0.27569256971E+02 -0.47105806793E+02  0.77332354544E+02  0.00000000000E+00 0. -1.
        -13    1    5    5    0    0  0.19575025715E+03 -0.23879177872E+03 -0.60400857999E+02  0.31462348991E+03  0.00000000000E+00 0.  1.
          4    1    6    6  503    0  0.75255190161E+02  0.77065539023E+02 -0.34392716726E+03  0.36040024602E+03  0.00000000000E+00 0. -1.
         -4    1    6    6    0  503  0.11141895048E+03  0.29270289591E+03 -0.76957488332E+03  0.83086380884E+03  0.00000000000E+00 0.  1.
<mgrwt>
<rscale>  0 0.17279796E+04</rscale>
<asrwt>0</asrwt>
<pdfrwt beam="1">  1        2 0.24325193E+00 0.17279796E+04</pdfrwt>
<pdfrwt beam="2">  1       -1 0.72633036E-01 0.17279796E+04</pdfrwt>
<totfact> 0.23628441E+01</totfact>
</mgrwt>
</event>
<event>
12    7  0.1611233E-007  0.2538199E+04  0.7818608E-02  0.8389502E-01
          2   -1    0    0  501    0  0.00000000000E+00  0.00000000000E+00  0.21842750631E+04  0.21842750631E+04  0.00000000000E+00 0. -1.
         -1   -1    0    0    0  501 -0.00000000000E+00 -0.00000000000E+00 -0.73736773072E+03  0.73736773072E+03  0.00000000000E+00 0.  1.
         24    2    1    2    0    0  0.10440622425E+04 -0.25706101935E+03  0.94878613960E+03  0.14362098679E+04  0.79732753711E+02 0.  0.
        254    2    1    2    0    0 -0.10440622425E+04  0.25706101935E+03  0.49812119281E+03  0.14854329260E+04  0.89567846959E+03 0.  0.
         23    2    4    4    0    0 -0.26173780063E+03  0.32216392908E+03  0.54815430768E+03  0.69353219955E+03  0.90650390502E+02 0.  0.
         23    2    4    4    0    0 -0.78232444188E+03 -0.65102909727E+02 -0.50033114878E+02  0.79190072641E+03  0.91288151924E+02 0.  0.
          2    1    3    3  502    0  0.99884395679E+03 -0.23803250477E+03  0.92351569818E+03  0.13810249701E+04  0.00000000000E+00 0. -1.
         -1    1    3    3    0  502  0.45218285720E+02 -0.19028514580E+02  0.25270441416E+02  0.55184897752E+02  0.00000000000E+00 0.  1.
         13    1    5    5    0    0 -0.21200528253E+03  0.22770461606E+03  0.45869025922E+03  0.55424938963E+03  0.00000000000E+00 0. -1.
        -13    1    5    5    0    0 -0.49732518096E+02  0.94459313019E+02  0.89464048466E+02  0.13928280992E+03  0.00000000000E+00 0.  1.
          2    1    6    6  503    0 -0.72778548824E+03 -0.36794752506E+02 -0.41923488465E+02  0.72991996109E+03  0.00000000000E+00 0. -1.
         -2    1    6    6    0  503 -0.54538953639E+02 -0.28308157220E+02 -0.81096264131E+01  0.61980765321E+02  0.00000000000E+00 0.  1.
<mgrwt>
<rscale>  0 0.25381993E+04</rscale>
<asrwt>0</asrwt>
<pdfrwt beam="1">  1        2 0.33604231E+00 0.25381993E+04</pdfrwt>
<pdfrwt beam="2">  1       -1 0.11344119E+00 0.25381993E+04</pdfrwt>
<totfact> 0.37798024E+00</totfact>
</mgrwt>
</event>
<event>
12    7  0.1611233E-007  0.1158489E+04  0.7818608E-02  0.9149988E-01
         -1   -1    0    0    0  501 -0.00000000000E+00  0.00000000000E+00  0.40562470062E+03  0.40562470062E+03  0.00000000000E+00 0.  1.
          2   -1    0    0  501    0  0.00000000000E+00 -0.00000000000E+00 -0.82717875994E+03  0.82717875994E+03  0.00000000000E+00 0. -1.
         24    2    1    2    0    0 -0.14963309228E+03  0.13851507398E+03 -0.69745258161E+01  0.21856624470E+03  0.78396883128E+02 0.  0.
        254    2    1    2    0    0  0.14963309228E+03 -0.13851507398E+03 -0.41457953350E+03  0.10142372159E+04  0.90289780840E+03 0.  0.
         23    2    4    4    0    0 -0.20747825723E+03  0.60761256780E+00 -0.55189384057E+03  0.59691402983E+03  0.93123312536E+02 0.  0.
         23    2    4    4    0    0  0.35711134951E+03 -0.13912268655E+03  0.13731430707E+03  0.41732318603E+03  0.91759385425E+02 0.  0.
          2    1    3    3  502    0 -0.60116589502E+02  0.47527708554E+02 -0.40387165301E+02  0.86625692117E+02  0.00000000000E+00 0. -1.
         -3    1    3    3    0  502 -0.89516502781E+02  0.90987365428E+02  0.33412639485E+02  0.13194055258E+03  0.00000000000E+00 0.  1.
         13    1    5    5    0    0 -0.42344991744E+01  0.27845936269E+01  0.30525591855E+01  0.59163386064E+01  0.00000000000E+00 0. -1.
        -13    1    5    5    0    0 -0.20324375805E+03 -0.21769810591E+01 -0.55494639975E+03  0.59099769122E+03  0.00000000000E+00 0.  1.
          3    1    6    6  503    0  0.61863623202E+02 -0.56443660156E+01  0.55103763045E+02  0.83038493755E+02  0.00000000000E+00 0. -1.
         -3    1    6    6    0  503  0.29524772631E+03 -0.13347832053E+03  0.82210544020E+02  0.33428469228E+03  0.00000000000E+00 0.  1.
<mgrwt>
<rscale>  0 0.11584889E+04</rscale>
<asrwt>0</asrwt>
<pdfrwt beam="1">  1        2 0.12725827E+00 0.11584889E+04</pdfrwt>
<pdfrwt beam="2">  1       -1 0.62403801E-01 0.11584889E+04</pdfrwt>
<totfact> 0.96886008E+01</totfact>
</mgrwt>
</event>
<event>
12    7  0.1611233E-007  0.1469501E+04  0.7818608E-02  0.8904992E-01
         -1   -1    0    0    0  501 -0.00000000000E+00  0.00000000000E+00  0.68744869742E+03  0.68744869742E+03  0.00000000000E+00 0.  1.
          2   -1    0    0  501    0  0.00000000000E+00 -0.00000000000E+00 -0.78530664997E+03  0.78530664997E+03  0.00000000000E+00 0. -1.
         24    2    1    2    0    0 -0.45997690363E+02 -0.23637446904E+03 -0.41810196950E+03  0.48943482095E+03  0.82149314791E+02 0.  0.
        254    2    1    2    0    0  0.45997690363E+02  0.23637446904E+03  0.32024401695E+03  0.98332052643E+03  0.89798349104E+03 0.  0.
         23    2    4    4    0    0  0.38870240882E+03  0.58047724505E+02  0.41182628921E+03  0.57592645318E+03  0.87357232403E+02 0.  0.
         23    2    4    4    0    0 -0.34270471845E+03  0.17832674454E+03 -0.91582272257E+02  0.40739407325E+03  0.91299871078E+02 0.  0.
          2    1    3    3  502    0 -0.69537208915E+02 -0.19144760637E+03 -0.33172228289E+03  0.38926505414E+03  0.00000000000E+00 0. -1.
         -1    1    3    3    0  502  0.23539518552E+02 -0.44926862677E+02 -0.86379686613E+02  0.10016976681E+03  0.00000000000E+00 0.  1.
         13    1    5    5    0    0  0.47481316289E+02  0.13311563138E+01  0.97876451444E+02  0.10879359871E+03  0.00000000000E+00 0.  1.
        -13    1    5    5    0    0  0.34122109253E+03  0.56716568191E+02  0.31394983776E+03  0.46713285447E+03  0.00000000000E+00 0. -1.
          1    1    6    6  503    0 -0.34653305742E+03  0.16648167125E+03 -0.90020947785E+02  0.39484817055E+03  0.00000000000E+00 0. -1.
         -1    1    6    6    0  503  0.38283389661E+01  0.11845073287E+02 -0.15613244720E+01  0.12545902698E+02  0.00000000000E+00 0.  1.
<mgrwt>
<rscale>  0 0.14695006E+04</rscale>
<asrwt>0</asrwt>
<pdfrwt beam="1">  1        2 0.12081641E+00 0.14695006E+04</pdfrwt>
<pdfrwt beam="2">  1       -1 0.10576134E+00 0.14695006E+04</pdfrwt>
<totfact> 0.32689806E+01</totfact>
</mgrwt>
</event>
<event>
12    7  0.1611233E-007  0.2081942E+04  0.7818608E-02  0.8569240E-01
         -1   -1    0    0    0  501 -0.00000000000E+00  0.00000000000E+00  0.15951508377E+04  0.15951508377E+04  0.00000000000E+00 0.  1.
          2   -1    0    0  501    0  0.00000000000E+00 -0.00000000000E+00 -0.67932200769E+03  0.67932200769E+03  0.00000000000E+00 0. -1.
         24    2    1    2    0    0 -0.18270118739E+03 -0.51121953029E+03  0.10813307317E+04  0.12121630172E+04  0.73060912082E+02 0.  0.
        254    2    1    2    0    0  0.18270118739E+03  0.51121953029E+03 -0.16550190168E+03  0.10623098282E+04  0.89799006656E+03 0.  0.
         23    2    4    4    0    0  0.83865503978E+02 -0.28904475198E+02 -0.42760915499E+03  0.44607957645E+03  0.90931334794E+02 0.  0.
         23    2    4    4    0    0  0.98835683414E+02  0.54012400549E+03  0.26210725331E+03  0.61623025177E+03  0.97657960952E+02 0.  0.
          2    1    3    3  502    0 -0.76099769075E+02 -0.22239799585E+03  0.38963006094E+03  0.45504244615E+03  0.00000000000E+00 0. -1.
         -1    1    3    3    0  502 -0.10660141832E+03 -0.28882153444E+03  0.69170067078E+03  0.75712057104E+03  0.00000000000E+00 0.  1.
         13    1    5    5    0    0  0.97756909717E+02 -0.67973270877E+01 -0.29272430477E+03  0.30869100352E+03  0.00000000000E+00 0.  1.
        -13    1    5    5    0    0 -0.13891405739E+02 -0.22107148110E+02 -0.13488485023E+03  0.13738857293E+03  0.00000000000E+00 0. -1.
          1    1    6    6  503    0  0.88761814933E+02  0.34304275649E+03  0.21090801745E+03  0.41235807788E+03  0.00000000000E+00 0.  1.
         -1    1    6    6    0  503  0.10073868482E+02  0.19708124900E+03  0.51199235863E+02  0.20387217389E+03  0.00000000000E+00 0. -1.
<mgrwt>
<rscale>  0 0.20819424E+04</rscale>
<asrwt>0</asrwt>
<pdfrwt beam="1">  1        2 0.10451108E+00 0.20819424E+04</pdfrwt>
<pdfrwt beam="2">  1       -1 0.24540782E+00 0.20819424E+04</pdfrwt>
<totfact> 0.33493401E+00</totfact>
</mgrwt>
</event>
<event>
12    7  0.1611233E-007  0.1768477E+04  0.7818608E-02  0.8723245E-01
          2   -1    0    0  501    0  0.00000000000E+00  0.00000000000E+00  0.36515496548E+04  0.36515496548E+04  0.00000000000E+00 0. -1.
         -1   -1    0    0    0  501 -0.00000000000E+00 -0.00000000000E+00 -0.21412220899E+03  0.21412220899E+03  0.00000000000E+00 0.  1.
         24    2    1    2    0    0 -0.15782110508E+03 -0.12994715720E+03 -0.78468326030E+02  0.23071530557E+03  0.72653349277E+02 0.  0.
        254    2    1    2    0    0  0.15782110508E+03  0.12994715720E+03  0.35158957718E+04  0.36349565582E+04  0.89977349194E+03 0.  0.
         23    2    4    4    0    0  0.23605940591E+03  0.85754337324E+02  0.24795323861E+03  0.36443816167E+03  0.90865371050E+02 0.  0.
         23    2    4    4    0    0 -0.78238300830E+02  0.44192819873E+02  0.32679425332E+04  0.32705183965E+04  0.93637303512E+02 0.  0.
          4    1    3    3  502    0 -0.89374042311E+02 -0.48672510232E+02 -0.71215392702E+02  0.12421096912E+03  0.00000000000E+00 0. -1.
         -3    1    3    3    0  502 -0.68447062771E+02 -0.81274646965E+02 -0.72529333274E+01  0.10650433645E+03  0.00000000000E+00 0.  1.
         13    1    5    5    0    0  0.21814267262E+03  0.10384464126E+03  0.22576290734E+03  0.33066421860E+03  0.00000000000E+00 0. -1.
        -13    1    5    5    0    0  0.17916733291E+02 -0.18090303935E+02  0.22190331276E+02  0.33773943069E+02  0.00000000000E+00 0.  1.
          4    1    6    6  503    0 -0.88432508756E+02  0.13683023167E+02  0.28214010414E+04  0.28228197551E+04  0.00000000000E+00 0. -1.
         -4    1    6    6    0  503  0.10194207926E+02  0.30509796706E+02  0.44654149182E+03  0.44769864137E+03  0.00000000000E+00 0.  1.
<mgrwt>
<rscale>  0 0.17684772E+04</rscale>
<asrwt>0</asrwt>
<pdfrwt beam="1">  1        2 0.56177682E+00 0.17684772E+04</pdfrwt>
<pdfrwt beam="2">  1       -1 0.32941881E-01 0.17684772E+04</pdfrwt>
<totfact> 0.59656994E+00</totfact>
</mgrwt>
</event>
<event>
12    7  0.1611233E-007  0.1624419E+04  0.7818608E-02  0.8805685E-01
          2   -1    0    0  501    0  0.00000000000E+00  0.00000000000E+00  0.10601230847E+04  0.10601230847E+04  0.00000000000E+00 0. -1.
         -1   -1    0    0    0  501 -0.00000000000E+00 -0.00000000000E+00 -0.62227132242E+03  0.62227132242E+03  0.00000000000E+00 0.  1.
         24    2    1    2    0    0 -0.42159995181E+03 -0.37375969319E+03  0.19879408760E+03  0.60274412340E+03  0.79615082793E+02 0.  0.
        254    2    1    2    0    0  0.42159995181E+03  0.37375969319E+03  0.23905767466E+03  0.10796502837E+04  0.88941179195E+03 0.  0.
         23    2    4    4    0    0  0.32747297188E+03  0.84145873845E+02 -0.29477653418E+03  0.45838155220E+03  0.94347055588E+02 0.  0.
         23    2    4    4    0    0  0.94126979933E+02  0.28961381935E+03  0.53383420884E+03  0.62126873150E+03  0.90883560139E+02 0.  0.
          4    1    3    3  502    0 -0.18320622765E+03 -0.14217939979E+03  0.12027379679E+03  0.26123799450E+03  0.00000000000E+00 0. -1.
         -3    1    3    3    0  502 -0.23839372416E+03 -0.23158029340E+03  0.78520290813E+02  0.34150612890E+03  0.00000000000E+00 0.  1.
         13    1    5    5    0    0  0.48671285253E+01  0.18068019684E+02 -0.41371307480E+01  0.19163979915E+02  0.00000000000E+00 0.  1.
        -13    1    5    5    0    0  0.32260584336E+03  0.66077854161E+02 -0.29063940343E+03  0.43921757229E+03  0.00000000000E+00 0. -1.
          2    1    6    6  503    0  0.60771852765E+02  0.27378536582E+03  0.46080994471E+03  0.53944179461E+03  0.00000000000E+00 0. -1.
         -2    1    6    6    0  503  0.33355127168E+02  0.15828453526E+02  0.73024264130E+02  0.81826936892E+02  0.00000000000E+00 0.  1.
<mgrwt>
<rscale>  0 0.16244189E+04</rscale>
<asrwt>0</asrwt>
<pdfrwt beam="1">  1        2 0.16309586E+00 0.16244189E+04</pdfrwt>
<pdfrwt beam="2">  1       -1 0.95734050E-01 0.16244189E+04</pdfrwt>
<totfact> 0.26509961E+01</totfact>
</mgrwt>
</event>
<event>
12    7  0.1611233E-007  0.1754711E+04  0.7818608E-02  0.8730761E-01
         -1   -1    0    0    0  501 -0.00000000000E+00  0.00000000000E+00  0.29190678965E+03  0.29190678965E+03  0.00000000000E+00 0.  1.
          2   -1    0    0  501    0  0.00000000000E+00 -0.00000000000E+00 -0.26369823541E+04  0.26369823541E+04  0.00000000000E+00 0. -1.
         24    2    1    2    0    0 -0.24575747975E+03 -0.54271125864E+03 -0.46444636312E+03  0.75952285180E+03  0.78944848310E+02 0.  0.
        254    2    1    2    0    0  0.24575747975E+03  0.54271125864E+03 -0.18806292013E+04  0.21693662920E+04  0.90246975944E+03 0.  0.
         23    2    4    4    0    0  0.31496654914E+03  0.72437898201E+03 -0.10842915400E+04  0.13446172252E+04  0.91534156112E+02 0.  0.
         23    2    4    4    0    0 -0.69209069393E+02 -0.18166772337E+03 -0.79633766129E+03  0.82474906680E+03  0.90908170171E+02 0.  0.
          4    1    3    3  502    0 -0.18530251385E+02 -0.95472913539E+02 -0.53235551312E+02  0.11087141814E+03  0.00000000000E+00 0. -1.
         -3    1    3    3    0  502 -0.22722722836E+03 -0.44723834510E+03 -0.41121081181E+03  0.64865143366E+03  0.00000000000E+00 0.  1.
         13    1    5    5    0    0  0.19376530011E+03  0.38330710807E+03 -0.65262587448E+03  0.78127451172E+03  0.00000000000E+00 0. -1.
        -13    1    5    5    0    0  0.12120124902E+03  0.34107187394E+03 -0.43166566556E+03  0.56334271344E+03  0.00000000000E+00 0.  1.
          1    1    6    6  503    0 -0.71588408962E+02 -0.14050294613E+03 -0.46844387405E+03  0.49427284095E+03  0.00000000000E+00 0. -1.
         -1    1    6    6    0  503  0.23793395688E+01 -0.41164777241E+02 -0.32789378724E+03  0.33047622585E+03  0.00000000000E+00 0.  1.
<mgrwt>
<rscale>  0 0.17547114E+04</rscale>
<asrwt>0</asrwt>
<pdfrwt beam="1">  1        2 0.40568959E+00 0.17547114E+04</pdfrwt>
<pdfrwt beam="2">  1       -1 0.44908738E-01 0.17547114E+04</pdfrwt>
<totfact> 0.15380727E+01</totfact>
</mgrwt>
</event>
<event>
12    7  0.1611233E-007  0.2815317E+04  0.7818608E-02  0.8298529E-01
         -1   -1    0    0    0  501 -0.00000000000E+00  0.00000000000E+00  0.76508413133E+03  0.76508413133E+03  0.00000000000E+00 0.  1.
          2   -1    0    0  501    0  0.00000000000E+00 -0.00000000000E+00 -0.25899135572E+04  0.25899135572E+04  0.00000000000E+00 0. -1.
         24    2    1    2    0    0 -0.42821005705E+03  0.36405559116E+03  0.52637698216E+03  0.77387080229E+03  0.76830754740E+02 0.  0.
        254    2    1    2    0    0  0.42821005705E+03 -0.36405559116E+03 -0.23512064080E+04  0.25811268862E+04  0.90451318580E+03 0.  0.
         23    2    4    4    0    0  0.50652204106E+03 -0.32086014747E+03 -0.23808497925E+04  0.24569843802E+04  0.93865316255E+02 0.  0.
         23    2    4    4    0    0 -0.78311984007E+02 -0.43195443699E+02  0.29643384473E+02  0.12414250608E+03  0.80833275181E+02 0.  0.
          2    1    3    3  502    0 -0.16467272821E+03  0.10714882832E+03  0.14754635598E+03  0.24569881154E+03  0.00000000000E+00 0. -1.
         -1    1    3    3    0  502 -0.26353732884E+03  0.25690676284E+03  0.37883062618E+03  0.52817199076E+03  0.00000000000E+00 0.  1.
         13    1    5    5    0    0  0.20044477988E+03 -0.17362715373E+03 -0.11453178365E+04  0.11756178992E+04  0.00000000000E+00 0.  1.
        -13    1    5    5    0    0  0.30607726118E+03 -0.14723299374E+03 -0.12355319560E+04  0.12813664810E+04  0.00000000000E+00 0. -1.
          2    1    6    6  503    0  0.35593824080E+01 -0.36288623107E+02  0.19520127514E+02  0.41359022574E+02  0.00000000000E+00 0.  1.
         -2    1    6    6    0  503 -0.81871366415E+02 -0.69068205920E+01  0.10123256960E+02  0.82783483503E+02  0.00000000000E+00 0. -1.
<mgrwt>
<rscale>  0 0.28153165E+04</rscale>
<asrwt>0</asrwt>
<pdfrwt beam="1">  1        2 0.39844824E+00 0.28153165E+04</pdfrwt>
<pdfrwt beam="2">  1       -1 0.11770525E+00 0.28153165E+04</pdfrwt>
<totfact> 0.19773013E+00</totfact>
</mgrwt>
</event>
<event>
12    7  0.1611233E-007  0.4014637E+04  0.7818608E-02  0.8001600E-01
          2   -1    0    0  501    0  0.00000000000E+00  0.00000000000E+00  0.22004789352E+04  0.22004789352E+04  0.00000000000E+00 0. -1.
         -1   -1    0    0    0  501 -0.00000000000E+00 -0.00000000000E+00 -0.18311143056E+04  0.18311143056E+04  0.00000000000E+00 0.  1.
         24    2    1    2    0    0 -0.12977097714E+04  0.92453198521E+03  0.11852690947E+04  0.19874833704E+04  0.80107914737E+02 0.  0.
        254    2    1    2    0    0  0.12977097714E+04 -0.92453198521E+03 -0.81590446512E+03  0.20441098704E+04  0.98685106452E+03 0.  0.
         23    2    4    4    0    0  0.14131305172E+04 -0.76119669822E+03 -0.54839826123E+03  0.16985744283E+04  0.89756132905E+02 0.  0.
         23    2    4    4    0    0 -0.11542074577E+03 -0.16333528700E+03 -0.26750620388E+03  0.34553544214E+03  0.88514451515E+02 0.  0.
          2    1    3    3  502    0 -0.10616325874E+04  0.76869443490E+03  0.10100565580E+04  0.16547414104E+04  0.00000000000E+00 0. -1.
         -1    1    3    3    0  502 -0.23607718401E+03  0.15583755031E+03  0.17521253675E+03  0.33274195998E+03  0.00000000000E+00 0.  1.
         13    1    5    5    0    0  0.91380898471E+03 -0.49093783066E+03 -0.39949868054E+03  0.11116051502E+04  0.00000000000E+00 0. -1.
        -13    1    5    5    0    0  0.49932153250E+03 -0.27025886756E+03 -0.14889958070E+03  0.58696927811E+03  0.00000000000E+00 0.  1.
          4    1    6    6  503    0  0.60508778898E+01 -0.30753442733E+02 -0.13037289110E+02  0.33946402910E+02  0.00000000000E+00 0. -1.
         -4    1    6    6    0  503 -0.12147162366E+03 -0.13258184427E+03 -0.25446891477E+03  0.31158903923E+03  0.00000000000E+00 0.  1.
<mgrwt>
<rscale>  0 0.40146374E+04</rscale>
<asrwt>0</asrwt>
<pdfrwt beam="1">  1        2 0.33853522E+00 0.40146374E+04</pdfrwt>
<pdfrwt beam="2">  1       -1 0.28170989E+00 0.40146374E+04</pdfrwt>
<totfact> 0.20065189E-01</totfact>
</mgrwt>
</event>
<event>
12    7  0.1611233E-007  0.2669442E+04  0.7818608E-02  0.8344988E-01
         -1   -1    0    0    0  501 -0.00000000000E+00  0.00000000000E+00  0.16563830562E+04  0.16563830562E+04  0.00000000000E+00 0.  1.
          2   -1    0    0  501    0  0.00000000000E+00 -0.00000000000E+00 -0.10755245239E+04  0.10755245239E+04  0.00000000000E+00 0. -1.
         24    2    1    2    0    0  0.88562223724E+03 -0.67751217536E+03 -0.14346526626E+03  0.11270839815E+04  0.79915730496E+02 0.  0.
        254    2    1    2    0    0 -0.88562223724E+03  0.67751217536E+03  0.72432379858E+03  0.16048235985E+04  0.89859018599E+03 0.  0.
         23    2    4    4    0    0 -0.10375431767E+04  0.50286463898E+03  0.70639254616E+03  0.13552800936E+04  0.91787876439E+02 0.  0.
         23    2    4    4    0    0  0.15192093946E+03  0.17464753638E+03  0.17931252428E+02  0.24954350491E+03  0.91480583820E+02 0.  0.
          4    1    3    3  502    0  0.87086881606E+03 -0.65173386255E+03 -0.14491654707E+03  0.10973469497E+04  0.00000000000E+00 0. -1.
         -3    1    3    3    0  502  0.14753421188E+02 -0.25778312807E+02  0.14512808066E+01  0.29737031861E+02  0.00000000000E+00 0.  1.
         13    1    5    5    0    0 -0.22367560853E+03  0.14317938162E+03  0.18927557490E+03  0.32612322277E+03  0.00000000000E+00 0. -1.
        -13    1    5    5    0    0 -0.81386756817E+03  0.35968525736E+03  0.51711697126E+03  0.10291568709E+04  0.00000000000E+00 0.  1.
          1    1    6    6  503    0  0.37574812934E+02  0.96006428622E+02  0.36841906822E+02  0.10948254200E+03  0.00000000000E+00 0. -1.
         -1    1    6    6    0  503  0.11434612653E+03  0.78641107758E+02 -0.18910654394E+02  0.14006096291E+03  0.00000000000E+00 0.  1.
<mgrwt>
<rscale>  0 0.26694423E+04</rscale>
<asrwt>0</asrwt>
<pdfrwt beam="1">  1        2 0.16546531E+00 0.26694423E+04</pdfrwt>
<pdfrwt beam="2">  1       -1 0.25482816E+00 0.26694423E+04</pdfrwt>
<totfact> 0.14663617E+00</totfact>
</mgrwt>
</event>
<event>
12    7  0.1611233E-007  0.2395848E+04  0.7818608E-02  0.8441060E-01
          2   -1    0    0  501    0  0.00000000000E+00  0.00000000000E+00  0.57962615741E+03  0.57962615741E+03  0.00000000000E+00 0. -1.
         -1   -1    0    0    0  501 -0.00000000000E+00 -0.00000000000E+00 -0.24757718115E+04  0.24757718115E+04  0.00000000000E+00 0.  1.
         24    2    1    2    0    0  0.42647158610E+03  0.53962060197E+03  0.15657574511E+03  0.70982911446E+03  0.79202272420E+02 0.  0.
        254    2    1    2    0    0 -0.42647158610E+03 -0.53962060197E+03 -0.20527213992E+04  0.23455688544E+04  0.90275118409E+03 0.  0.
         23    2    4    4    0    0 -0.22626622129E+03 -0.26984021839E+02 -0.32281994830E+02  0.24963847736E+03  0.96709368006E+02 0.  0.
         23    2    4    4    0    0 -0.20020536481E+03 -0.51263658013E+03 -0.20204394043E+04  0.20959303771E+04  0.88714753272E+02 0.  0.
          2    1    3    3  502    0  0.34022383611E+03  0.45554701949E+03  0.15520597387E+03  0.58937614470E+03  0.00000000000E+00 0. -1.
         -1    1    3    3    0  502  0.86247749991E+02  0.84073582484E+02  0.13697712428E+01  0.12045296976E+03  0.00000000000E+00 0.  1.
         13    1    5    5    0    0 -0.18047195723E+03 -0.22803983551E+02  0.16433205086E+02  0.18264774634E+03  0.00000000000E+00 0.  1.
        -13    1    5    5    0    0 -0.45794264054E+02 -0.41800382888E+01 -0.48715199916E+02  0.66990731025E+02  0.00000000000E+00 0. -1.
          3    1    6    6  503    0 -0.36297963468E+01  0.15730951668E+00 -0.20706501691E+01  0.41818369081E+01  0.00000000000E+00 0. -1.
         -3    1    6    6    0  503 -0.19657556847E+03 -0.51279388965E+03 -0.20183687542E+04  0.20917485402E+04  0.00000000000E+00 0.  1.
<mgrwt>
<rscale>  0 0.23958482E+04</rscale>
<asrwt>0</asrwt>
<pdfrwt beam="1">  1        2 0.89173254E-01 0.23958482E+04</pdfrwt>
<pdfrwt beam="2">  1       -1 0.38088798E+00 0.23958482E+04</pdfrwt>
<totfact> 0.51248719E-01</totfact>
</mgrwt>
</event>
<event>
12    7  0.1611233E-007  0.4245941E+04  0.7818608E-02  0.7956690E-01
          2   -1    0    0  501    0  0.00000000000E+00  0.00000000000E+00  0.30673123868E+04  0.30673123868E+04  0.00000000000E+00 0. -1.
         -1   -1    0    0    0  501 -0.00000000000E+00 -0.00000000000E+00 -0.14693657087E+04  0.14693657087E+04  0.00000000000E+00 0.  1.
         24    2    1    2    0    0  0.15479197907E+04  0.64363683489E+03  0.19791131421E+04  0.25948205933E+04  0.76687862941E+02 0.  0.
        254    2    1    2    0    0 -0.15479197907E+04 -0.64363683489E+03 -0.38116646395E+03  0.19418575022E+04  0.90288350960E+03 0.  0.
         23    2    4    4    0    0 -0.54227675729E+03 -0.70125330897E+03 -0.13442574433E+03  0.90073125841E+03  0.86175601513E+02 0.  0.
         23    2    4    4    0    0 -0.10056430334E+04  0.57616474080E+02 -0.24674071961E+03  0.10411262438E+04  0.91789454946E+02 0.  0.
          4    1    3    3  502    0  0.14160070868E+04  0.60439271956E+03  0.17920730194E+04  0.23626028731E+04  0.00000000000E+00 0. -1.
         -3    1    3    3    0  502  0.13191270392E+03  0.39244115328E+02  0.18704012269E+03  0.23221772013E+03  0.00000000000E+00 0.  1.
         13    1    5    5    0    0 -0.17135805549E+03 -0.21524198482E+03 -0.82113550316E+02  0.28711553486E+03  0.00000000000E+00 0.  1.
        -13    1    5    5    0    0 -0.37091870180E+03 -0.48601132415E+03 -0.52312194017E+02  0.61361572355E+03  0.00000000000E+00 0. -1.
          1    1    6    6  503    0 -0.56598127988E+03  0.28908526023E+02 -0.18542268515E+03  0.59628188319E+03  0.00000000000E+00 0. -1.
         -1    1    6    6    0  503 -0.43966175354E+03  0.28707948057E+02 -0.61318034467E+02  0.44484436061E+03  0.00000000000E+00 0.  1.
<mgrwt>
<rscale>  0 0.42459410E+04</rscale>
<asrwt>0</asrwt>
<pdfrwt beam="1">  1        2 0.47189421E+00 0.42459410E+04</pdfrwt>
<pdfrwt beam="2">  1       -1 0.22605626E+00 0.42459410E+04</pdfrwt>
<totfact> 0.13894397E-01</totfact>
</mgrwt>
</event>
<event>
12    7  0.1611233E-007  0.2263767E+04  0.7818608E-02  0.8492346E-01
          2   -1    0    0  501    0  0.00000000000E+00  0.00000000000E+00  0.63080974863E+03  0.63080974863E+03  0.00000000000E+00 0. -1.
         -1   -1    0    0    0  501 -0.00000000000E+00 -0.00000000000E+00 -0.20309776152E+04  0.20309776152E+04  0.00000000000E+00 0.  1.
         24    2    1    2    0    0 -0.48517758167E+03 -0.21739984332E+03  0.35084236672E+03  0.64180437403E+03  0.78501659850E+02 0.  0.
        254    2    1    2    0    0  0.48517758167E+03  0.21739984332E+03 -0.17510102333E+04  0.20199829898E+04  0.85535633764E+03 0.  0.
         23    2    4    4    0    0 -0.12584528446E+02 -0.13046667040E+01 -0.13112968076E+04  0.13147629893E+04  0.94563883909E+02 0.  0.
         23    2    4    4    0    0  0.49776211012E+03  0.21870451003E+03 -0.43971342572E+03  0.70522000044E+03  0.91589143883E+02 0.  0.
          2    1    3    3  502    0 -0.40784636495E+03 -0.16851427891E+03  0.32057869605E+03  0.54544149087E+03  0.00000000000E+00 0. -1.
         -1    1    3    3    0  502 -0.77331216723E+02 -0.48885564414E+02  0.30263670664E+02  0.96362883155E+02  0.00000000000E+00 0.  1.
         13    1    5    5    0    0  0.40472150756E+02 -0.61521408972E+01 -0.67461190114E+03  0.67585283974E+03  0.00000000000E+00 0.  1.
        -13    1    5    5    0    0 -0.53056679202E+02  0.48474741932E+01 -0.63668490642E+03  0.63891014961E+03  0.00000000000E+00 0. -1.
          2    1    6    6  503    0  0.18691076714E+03  0.12364898072E+03 -0.21056766415E+03  0.30751170139E+03  0.00000000000E+00 0.  1.
         -2    1    6    6    0  503  0.31085134298E+03  0.95055529306E+02 -0.22914576157E+03  0.39770829905E+03  0.00000000000E+00 0. -1.
<mgrwt>
<rscale>  0 0.22637672E+04</rscale>
<asrwt>0</asrwt>
<pdfrwt beam="1">  1        2 0.97047654E-01 0.22637672E+04</pdfrwt>
<pdfrwt beam="2">  1       -1 0.31245809E+00 0.22637672E+04</pdfrwt>
<totfact> 0.13276978E+00</totfact>
</mgrwt>
</event>
<event>
12    7  0.1611233E-007  0.1141124E+04  0.7818608E-02  0.9166011E-01
          2   -1    0    0  501    0  0.00000000000E+00  0.00000000000E+00  0.21520455680E+04  0.21520455680E+04  0.00000000000E+00 0. -1.
         -1   -1    0    0    0  501 -0.00000000000E+00 -0.00000000000E+00 -0.15127054888E+03  0.15127054888E+03  0.00000000000E+00 0.  1.
         24    2    1    2    0    0 -0.19189132578E+03 -0.48947458562E+01  0.54697540561E+03  0.58518268902E+03  0.80065259261E+02 0.  0.
        254    2    1    2    0    0  0.19189132578E+03  0.48947458562E+01  0.14537996135E+04  0.17181334279E+04  0.89532280224E+03 0.  0.
         23    2    4    4    0    0  0.38431086262E+03  0.46568209034E+02  0.20022425484E+03  0.44590577037E+03  0.94227207329E+02 0.  0.
         23    2    4    4    0    0 -0.19241953684E+03 -0.41673463178E+02  0.12535753587E+04  0.12722276575E+04  0.91378755269E+02 0.  0.
          4    1    3    3  502    0 -0.14740744836E+03  0.29857231976E+02  0.36915514102E+03  0.39861752129E+03  0.00000000000E+00 0. -1.
         -3    1    3    3    0  502 -0.44483877417E+02 -0.34751977832E+02  0.17782026458E+03  0.18656516773E+03  0.00000000000E+00 0.  1.
         13    1    5    5    0    0  0.35783415855E+03  0.37872063407E+02  0.20969142068E+03  0.41647337264E+03  0.00000000000E+00 0. -1.
        -13    1    5    5    0    0  0.26476704066E+02  0.86961456271E+01 -0.94671658353E+01  0.29432397726E+02  0.00000000000E+00 0.  1.
          4    1    6    6  503    0 -0.16266011683E+03 -0.24838995351E+02  0.11759457740E+04  0.11874021024E+04  0.00000000000E+00 0. -1.
         -4    1    6    6    0  503 -0.29759420008E+02 -0.16834467827E+02  0.77629584658E+02  0.84825555114E+02  0.00000000000E+00 0.  1.
<mgrwt>
<rscale>  0 0.11411242E+04</rscale>
<asrwt>0</asrwt>
<pdfrwt beam="1">  1        2 0.33108391E+00 0.11411242E+04</pdfrwt>
<pdfrwt beam="2">  1       -1 0.23272394E-01 0.11411242E+04</pdfrwt>
<totfact> 0.98461277E+01</totfact>
</mgrwt>
</event>
<event>
12    7  0.1611233E-007  0.2473478E+04  0.7818608E-02  0.8412496E-01
          2   -1    0    0  501    0  0.00000000000E+00  0.00000000000E+00  0.29200569023E+04  0.29200569023E+04  0.00000000000E+00 0. -1.
         -1   -1    0    0    0  501 -0.00000000000E+00 -0.00000000000E+00 -0.52379899345E+03  0.52379899345E+03  0.00000000000E+00 0.  1.
         24    2    1    2    0    0 -0.58587161087E+03  0.35703265274E+03  0.21936022981E+04  0.22997276060E+04  0.78346410620E+02 0.  0.
        254    2    1    2    0    0  0.58587161087E+03 -0.35703265274E+03  0.20265561073E+03  0.11441282897E+04  0.89288430787E+03 0.  0.
         23    2    4    4    0    0  0.85616189213E+02  0.10291605379E+03 -0.26600201599E+03  0.31285561224E+03  0.95915147983E+02 0.  0.
         23    2    4    4    0    0  0.50025542166E+03 -0.45994870653E+03  0.46865762672E+03  0.83127267749E+03  0.97805898165E+02 0.  0.
          2    1    3    3  502    0 -0.44298866596E+03  0.25216667042E+03  0.15196848482E+04  0.16028939533E+04  0.00000000000E+00 0. -1.
         -1    1    3    3    0  502 -0.14288294491E+03  0.10486598232E+03  0.67391744992E+03  0.69683365268E+03  0.00000000000E+00 0.  1.
         13    1    5    5    0    0 -0.19323007040E+02  0.33168445782E+02 -0.70304763112E+02  0.80101711049E+02  0.00000000000E+00 0. -1.
        -13    1    5    5    0    0  0.10493919625E+03  0.69747608008E+02 -0.19569725288E+03  0.23275390119E+03  0.00000000000E+00 0.  1.
          2    1    6    6  503    0  0.48326940747E+03 -0.43698016659E+03  0.42103605165E+03  0.77573986811E+03  0.00000000000E+00 0. -1.
         -2    1    6    6    0  503  0.16986014187E+02 -0.22968539946E+02  0.47621575069E+02  0.55532809377E+02  0.00000000000E+00 0.  1.
<mgrwt>
<rscale>  0 0.24734776E+04</rscale>
<asrwt>0</asrwt>
<pdfrwt beam="1">  1        2 0.44923951E+00 0.24734776E+04</pdfrwt>
<pdfrwt beam="2">  1       -1 0.80584463E-01 0.24734776E+04</pdfrwt>
<totfact> 0.30489325E+00</totfact>
</mgrwt>
</event>
<event>
12    7  0.1611233E-007  0.1663945E+04  0.7818608E-02  0.8782199E-01
         -1   -1    0    0    0  501 -0.00000000000E+00  0.00000000000E+00  0.15822133950E+03  0.15822133950E+03  0.00000000000E+00 0.  1.
          2   -1    0    0  501    0  0.00000000000E+00 -0.00000000000E+00 -0.43747486580E+04  0.43747486580E+04  0.00000000000E+00 0. -1.
         24    2    1    2    0    0 -0.22963130722E+03  0.46881663593E+03 -0.80765492849E+03  0.96603822815E+03  0.91672238751E+02 0.  0.
        254    2    1    2    0    0  0.22963130722E+03 -0.46881663593E+03 -0.34088723900E+04  0.35669317693E+04  0.91108270778E+03 0.  0.
         23    2    4    4    0    0  0.54458751905E+03 -0.14271995128E+03 -0.22008850343E+04  0.22736454209E+04  0.92865576251E+02 0.  0.
         23    2    4    4    0    0 -0.31495621183E+03 -0.32609668465E+03 -0.12079873557E+04  0.12932863484E+04  0.88428866785E+02 0.  0.
          2    1    3    3  502    0 -0.72466133090E+02  0.13454545845E+03 -0.16578303596E+03  0.22547247248E+03  0.00000000000E+00 0. -1.
         -1    1    3    3    0  502 -0.15716517413E+03  0.33427117748E+03 -0.64187189253E+03  0.74056575567E+03  0.00000000000E+00 0.  1.
         13    1    5    5    0    0  0.32529441664E+02 -0.32799987318E+02 -0.15045633138E+03  0.15738840934E+03  0.00000000000E+00 0. -1.
        -13    1    5    5    0    0  0.51205807739E+03 -0.10991996396E+03 -0.20504287030E+04  0.21162570116E+04  0.00000000000E+00 0.  1.
          2    1    6    6  503    0 -0.23079059024E+02 -0.27915157883E+02 -0.18432919416E+03  0.18785406789E+03  0.00000000000E+00 0. -1.
         -2    1    6    6    0  503 -0.29187715281E+03 -0.29818152676E+03 -0.10236581615E+04  0.11054322805E+04  0.00000000000E+00 0.  1.
<mgrwt>
<rscale>  0 0.16639454E+04</rscale>
<asrwt>0</asrwt>
<pdfrwt beam="1">  1        2 0.67303826E+00 0.16639454E+04</pdfrwt>
<pdfrwt beam="2">  1       -1 0.24341744E-01 0.16639454E+04</pdfrwt>
<totfact> 0.26474801E+00</totfact>
</mgrwt>
</event>
<event>
12    7  0.1611233E-007  0.1303350E+04  0.7818608E-02  0.9026913E-01
         -1   -1    0    0    0  501 -0.00000000000E+00  0.00000000000E+00  0.72780810647E+03  0.72780810647E+03  0.00000000000E+00 0.  1.
          2   -1    0    0  501    0  0.00000000000E+00 -0.00000000000E+00 -0.58350555204E+03  0.58350555204E+03  0.00000000000E+00 0. -1.
         24    2    1    2    0    0 -0.11326226164E+03  0.36700975041E+02  0.44827011320E+03  0.47090031531E+03  0.81398471091E+02 0.  0.
        254    2    1    2    0    0  0.11326226164E+03 -0.36700975041E+02 -0.30396755878E+03  0.84041334320E+03  0.77441785178E+03 0.  0.
         23    2    4    4    0    0 -0.25066082722E+03  0.18065135598E+03 -0.21032856954E+02  0.32288427560E+03  0.91357055750E+02 0.  0.
         23    2    4    4    0    0  0.36392308886E+03 -0.21735233102E+03 -0.28293470182E+03  0.51752906760E+03  0.90012443124E+02 0.  0.
          2    1    3    3  502    0  0.37399813042E+01 -0.10700227852E+02  0.11086542113E+02  0.15855401359E+02  0.00000000000E+00 0. -1.
         -1    1    3    3    0  502 -0.11700224294E+03  0.47401202893E+02  0.43718357108E+03  0.45504491395E+03  0.00000000000E+00 0.  1.
         13    1    5    5    0    0 -0.23283107702E+03  0.19076647085E+03 -0.14428678522E+02  0.30134754618E+03  0.00000000000E+00 0.  1.
        -13    1    5    5    0    0 -0.17829750197E+02 -0.10115114870E+02 -0.66041784318E+01  0.21536729410E+02  0.00000000000E+00 0. -1.
          2    1    6    6  503    0  0.23166042754E+02  0.16344875536E+01 -0.36916879291E+02  0.43614138338E+02  0.00000000000E+00 0. -1.
         -2    1    6    6    0  503  0.34075704610E+03 -0.21898681857E+03 -0.24601782253E+03  0.47391492926E+03  0.00000000000E+00 0.  1.
<mgrwt>
<rscale>  0 0.13033496E+04</rscale>
<asrwt>0</asrwt>
<pdfrwt beam="1">  1        2 0.89770085E-01 0.13033496E+04</pdfrwt>
<pdfrwt beam="2">  1       -1 0.11197048E+00 0.13033496E+04</pdfrwt>
<totfact> 0.42054360E+01</totfact>
</mgrwt>
</event>
<event>
12    7  0.1611233E-007  0.2292051E+04  0.7818608E-02  0.8481062E-01
         -1   -1    0    0    0  501 -0.00000000000E+00  0.00000000000E+00  0.76624999485E+03  0.76624999485E+03  0.00000000000E+00 0.  1.
          2   -1    0    0  501    0  0.00000000000E+00 -0.00000000000E+00 -0.17140292059E+04  0.17140292059E+04  0.00000000000E+00 0. -1.
         24    2    1    2    0    0  0.33859206945E+03 -0.18983093748E+03 -0.13519165738E+04  0.14088856933E+04  0.81240998399E+02 0.  0.
        254    2    1    2    0    0 -0.33859206945E+03  0.18983093748E+03  0.40413736280E+03  0.10713935074E+04  0.91316847594E+03 0.  0.
         23    2    4    4    0    0 -0.37783419737E+03 -0.72030107302E+02  0.60725764938E+03  0.72469901170E+03  0.92085763130E+02 0.  0.
         23    2    4    4    0    0  0.39242127922E+02  0.26186104478E+03 -0.20312028657E+03  0.34669449574E+03  0.93957815978E+02 0.  0.
          4    1    3    3  502    0  0.27809790588E+03 -0.15007525879E+03 -0.11950010073E+04  0.12360778438E+04  0.00000000000E+00 0. -1.
         -3    1    3    3    0  502  0.60494163562E+02 -0.39755678689E+02 -0.15691556654E+03  0.17280784946E+03  0.00000000000E+00 0.  1.
         13    1    5    5    0    0 -0.15705861728E+03 -0.13086425113E+01  0.18237565710E+03  0.24068652249E+03  0.00000000000E+00 0. -1.
        -13    1    5    5    0    0 -0.22077558009E+03 -0.70721464791E+02  0.42488199228E+03  0.48401248921E+03  0.00000000000E+00 0.  1.
          3    1    6    6  503    0  0.30911450139E+02  0.33189542842E+02 -0.65516275223E+02  0.79683409961E+02  0.00000000000E+00 0. -1.
         -3    1    6    6    0  503  0.83306777833E+01  0.22867150194E+03 -0.13760401135E+03  0.26701108578E+03  0.00000000000E+00 0.  1.
<mgrwt>
<rscale>  0 0.22920514E+04</rscale>
<asrwt>0</asrwt>
<pdfrwt beam="1">  1        2 0.26369680E+00 0.22920514E+04</pdfrwt>
<pdfrwt beam="2">  1       -1 0.11788461E+00 0.22920514E+04</pdfrwt>
<totfact> 0.64332666E+00</totfact>
</mgrwt>
</event>
<event>
12    7  0.1611233E-007  0.1115934E+04  0.7818608E-02  0.9189799E-01
         -1   -1    0    0    0  501 -0.00000000000E+00  0.00000000000E+00  0.55901354592E+03  0.55901354592E+03  0.00000000000E+00 0.  1.
          2   -1    0    0  501    0  0.00000000000E+00 -0.00000000000E+00 -0.55692277539E+03  0.55692277539E+03  0.00000000000E+00 0. -1.
         24    2    1    2    0    0  0.89106758138E+02 -0.17042636080E+03 -0.25612188822E+02  0.20949876801E+03  0.79048028323E+02 0.  0.
        254    2    1    2    0    0 -0.89106758138E+02  0.17042636080E+03  0.27702959354E+02  0.90643755330E+03  0.88536796038E+03 0.  0.
         23    2    4    4    0    0 -0.12712289626E+03  0.50352876542E+03  0.13205296752E+03  0.54364357206E+03  0.91700048237E+02 0.  0.
         23    2    4    4    0    0  0.38016138122E+02 -0.33310240462E+03 -0.10435000817E+03  0.36279398124E+03  0.91258478500E+02 0.  0.
          4    1    3    3  502    0  0.54639522537E+02 -0.14399533359E+03  0.85327955196E+01  0.15424960979E+03  0.00000000000E+00 0. -1.
         -3    1    3    3    0  502  0.34467235601E+02 -0.26431027205E+02 -0.34144984342E+02  0.55249158227E+02  0.00000000000E+00 0.  1.
         13    1    5    5    0    0 -0.54845848438E+02  0.86552999065E+02  0.86833072215E+01  0.10283427718E+03  0.00000000000E+00 0. -1.
        -13    1    5    5    0    0 -0.72277047822E+02  0.41697576636E+03  0.12336966030E+03  0.44080929488E+03  0.00000000000E+00 0.  1.
          1    1    6    6  503    0  0.27617465997E+02 -0.22503691794E+02 -0.19653247108E+02  0.40686492775E+02  0.00000000000E+00 0. -1.
         -1    1    6    6    0  503  0.10398672125E+02 -0.31059871283E+03 -0.84696761059E+02  0.32210748847E+03  0.00000000000E+00 0.  1.
<mgrwt>
<rscale>  0 0.11159344E+04</rscale>
<asrwt>0</asrwt>
<pdfrwt beam="1">  1        2 0.85680427E-01 0.11159344E+04</pdfrwt>
<pdfrwt beam="2">  1       -1 0.86002084E-01 0.11159344E+04</pdfrwt>
<totfact> 0.82130266E+01</totfact>
</mgrwt>
</event>
<event>
12    7  0.1611233E-007  0.1659461E+04  0.7818608E-02  0.8784829E-01
          2   -1    0    0  501    0  0.00000000000E+00  0.00000000000E+00  0.24433371003E+04  0.24433371003E+04  0.00000000000E+00 0. -1.
         -1   -1    0    0    0  501 -0.00000000000E+00 -0.00000000000E+00 -0.28176727977E+03  0.28176727977E+03  0.00000000000E+00 0.  1.
         24    2    1    2    0    0  0.23634158160E+03  0.75918977326E+02  0.16031656454E+04  0.16241827699E+04  0.78794347243E+02 0.  0.
        254    2    1    2    0    0 -0.23634158160E+03 -0.75918977326E+02  0.55840417513E+03  0.11009216102E+04  0.91574676338E+03 0.  0.
         23    2    4    4    0    0 -0.25955883439E+03  0.21132647480E+03 -0.11297009921E+03  0.36466461888E+03  0.90489631929E+02 0.  0.
         23    2    4    4    0    0  0.23217252792E+02 -0.28724545212E+03  0.67137427433E+03  0.73625699129E+03  0.91005221816E+02 0.  0.
          4    1    3    3  502    0  0.23547931666E+03  0.84155639633E+02  0.15015591325E+04  0.15222393073E+04  0.00000000000E+00 0. -1.
         -3    1    3    3    0  502  0.86226493396E+00 -0.82366623070E+01  0.10160651291E+03  0.10194346263E+03  0.00000000000E+00 0.  1.
         13    1    5    5    0    0 -0.23877221899E+03  0.15046873429E+03 -0.96615619690E+02  0.29830787875E+03  0.00000000000E+00 0. -1.
        -13    1    5    5    0    0 -0.20786615402E+02  0.60857740508E+02 -0.16354479517E+02  0.66356740124E+02  0.00000000000E+00 0.  1.
          1    1    6    6  503    0  0.25468767313E+02 -0.28591989155E+03  0.60305573753E+03  0.66788851245E+03  0.00000000000E+00 0. -1.
         -1    1    6    6    0  503 -0.22515145210E+01 -0.13255605726E+01  0.68318536805E+02  0.68368478845E+02  0.00000000000E+00 0.  1.
<mgrwt>
<rscale>  0 0.16594607E+04</rscale>
<asrwt>0</asrwt>
<pdfrwt beam="1">  1        2 0.37589800E+00 0.16594607E+04</pdfrwt>
<pdfrwt beam="2">  1       -1 0.43348814E-01 0.16594607E+04</pdfrwt>
<totfact> 0.21459789E+01</totfact>
</mgrwt>
</event>
<event>
12    7  0.1611233E-007  0.1976084E+04  0.7818608E-02  0.8617884E-01
          2   -1    0    0  501    0  0.00000000000E+00  0.00000000000E+00  0.16511729326E+04  0.16511729326E+04  0.00000000000E+00 0. -1.
         -1   -1    0    0    0  501 -0.00000000000E+00 -0.00000000000E+00 -0.59123259819E+03  0.59123259819E+03  0.00000000000E+00 0.  1.
         24    2    1    2    0    0 -0.40023662313E+03  0.21230603917E+03 -0.30241467539E+03  0.55066165856E+03  0.80687158587E+02 0.  0.
        254    2    1    2    0    0  0.40023662313E+03 -0.21230603917E+03  0.13623550098E+04  0.16917438722E+04  0.89483123979E+03 0.  0.
         23    2    4    4    0    0 -0.11839538657E+03 -0.40527370149E+03  0.47660337717E+03  0.64343347166E+03  0.92690952266E+02 0.  0.
         23    2    4    4    0    0  0.51863200970E+03  0.19296766232E+03  0.88575163261E+03  0.10483104006E+04  0.90460273286E+02 0.  0.
          4    1    3    3  502    0 -0.44777628315E+02  0.56386999720E+02 -0.49738227678E+02  0.87512404992E+02  0.00000000000E+00 0. -1.
         -3    1    3    3    0  502 -0.35545899481E+03  0.15591903945E+03 -0.25267644771E+03  0.46314925357E+03  0.00000000000E+00 0.  1.
         13    1    5    5    0    0 -0.78952883884E+02 -0.11602164463E+03  0.15565339876E+03  0.20957709904E+03  0.00000000000E+00 0.  1.
        -13    1    5    5    0    0 -0.39442502690E+02 -0.28925205686E+03  0.32094997841E+03  0.43385637261E+03  0.00000000000E+00 0. -1.
          4    1    6    6  503    0  0.17543685254E+03  0.37371976082E+02  0.35034651138E+03  0.39359551809E+03  0.00000000000E+00 0.  1.
         -4    1    6    6    0  503  0.34319515716E+03  0.15559568624E+03  0.53540512123E+03  0.65471488246E+03  0.00000000000E+00 0. -1.
<mgrwt>
<rscale>  0 0.19760843E+04</rscale>
<asrwt>0</asrwt>
<pdfrwt beam="1">  1        2 0.25402660E+00 0.19760843E+04</pdfrwt>
<pdfrwt beam="2">  1       -1 0.90958862E-01 0.19760843E+04</pdfrwt>
<totfact> 0.13062346E+01</totfact>
</mgrwt>
</event>
<event>
12    7  0.1611233E-007  0.2423264E+04  0.7818608E-02  0.8430845E-01
         -1   -1    0    0    0  501 -0.00000000000E+00  0.00000000000E+00  0.28892036413E+04  0.28892036413E+04  0.00000000000E+00 0.  1.
          2   -1    0    0  501    0  0.00000000000E+00 -0.00000000000E+00 -0.50811645399E+03  0.50811645399E+03  0.00000000000E+00 0. -1.
         24    2    1    2    0    0  0.57117315898E+02  0.95425923947E+03  0.42553591822E+03  0.10493165359E+04  0.78174745790E+02 0.  0.
        254    2    1    2    0    0 -0.57117315898E+02 -0.95425923947E+03  0.19555512691E+04  0.23480035594E+04  0.88037881903E+03 0.  0.
         23    2    4    4    0    0 -0.13399176613E+03 -0.91047012813E+02  0.11373022327E+04  0.11526754257E+04  0.94662117906E+02 0.  0.
         23    2    4    4    0    0  0.76874450231E+02 -0.86321222666E+03  0.81824903637E+03  0.11953281337E+04  0.90734956337E+02 0.  0.
          2    1    3    3  502    0  0.54390773505E+02  0.94068096187E+03  0.42857075431E+03  0.10351385993E+04  0.00000000000E+00 0. -1.
         -1    1    3    3    0  502  0.27265423937E+01  0.13578277598E+02 -0.30348360940E+01  0.14177936595E+02  0.00000000000E+00 0.  1.
         13    1    5    5    0    0 -0.72066273510E+02 -0.94235384619E+02  0.58532679006E+03  0.59722801898E+03  0.00000000000E+00 0. -1.
        -13    1    5    5    0    0 -0.61925492619E+02  0.31883718065E+01  0.55197544262E+03  0.55544740670E+03  0.00000000000E+00 0.  1.
          3    1    6    6  503    0  0.82576064412E+02 -0.42148395725E+03  0.39414936627E+03  0.58294189724E+03  0.00000000000E+00 0. -1.
         -3    1    6    6    0  503 -0.57016141810E+01 -0.44172826941E+03  0.42409967010E+03  0.61238623644E+03  0.00000000000E+00 0.  1.
<mgrwt>
<rscale>  0 0.24232638E+04</rscale>
<asrwt>0</asrwt>
<pdfrwt beam="1">  1        2 0.78171764E-01 0.24232638E+04</pdfrwt>
<pdfrwt beam="2">  1       -1 0.44449286E+00 0.24232638E+04</pdfrwt>
<totfact> 0.21853802E-01</totfact>
</mgrwt>
</event>
<event>
12    7  0.1881075E-007  0.1447662E+04  0.7818608E-02  0.8920023E-01
          2   -1    0    0  501    0  0.00000000000E+00  0.00000000000E+00  0.14725999125E+04  0.14725999125E+04  0.00000000000E+00 0. -1.
         -1   -1    0    0    0  501 -0.00000000000E+00 -0.00000000000E+00 -0.35578658869E+03  0.35578658869E+03  0.00000000000E+00 0.  1.
         24    2    1    2    0    0 -0.16240901333E+03 -0.63600411537E+02 -0.16451275676E+03  0.25360216753E+03  0.82631182249E+02 0.  0.
        254    2    1    2    0    0  0.16240901333E+03  0.63600411537E+02  0.12813260805E+04  0.15747843336E+04  0.89873659811E+03 0.  0.
         23    2    4    4    0    0  0.17203127694E+01 -0.34171208016E+03  0.20356627235E+03  0.40856889082E+03  0.93376689306E+02 0.  0.
         23    2    4    4    0    0  0.16068870056E+03  0.40531249170E+03  0.10777598082E+04  0.11662154428E+04  0.91614302707E+02 0.  0.
          2    1    3    3  502    0 -0.32115723002E+02 -0.29236213519E+01  0.35711246589E+01  0.32445649278E+02  0.00000000000E+00 0. -1.
         -1    1    3    3    0  502 -0.13029329033E+03 -0.60676790185E+02 -0.16808388142E+03  0.22115651825E+03  0.00000000000E+00 0.  1.
         13    1    5    5    0    0  0.19479009822E+02 -0.32864425068E+03  0.20245997403E+03  0.38649258261E+03  0.00000000000E+00 0.  1.
        -13    1    5    5    0    0 -0.17758697053E+02 -0.13067829476E+02  0.11062983241E+01  0.22076308210E+02  0.00000000000E+00 0. -1.
          1    1    6    6  503    0  0.34640045969E+02  0.26080653669E+02  0.73123835479E+02  0.85013108376E+02  0.00000000000E+00 0. -1.
         -1    1    6    6    0  503  0.12604865459E+03  0.37923183803E+03  0.10046359727E+04  0.10812023344E+04  0.00000000000E+00 0.  1.
<mgrwt>
<rscale>  0 0.14476620E+04</rscale>
<asrwt>0</asrwt>
<pdfrwt beam="1">  1        2 0.22655383E+00 0.14476620E+04</pdfrwt>
<pdfrwt beam="2">  1       -1 0.54736399E-01 0.14476620E+04</pdfrwt>
<totfact> 0.49032860E+01</totfact>
</mgrwt>
</event>
<event>
12    7  0.1611233E-007  0.1953239E+04  0.7818608E-02  0.8628800E-01
         -1   -1    0    0    0  501 -0.00000000000E+00  0.00000000000E+00  0.73316300995E+03  0.73316300995E+03  0.00000000000E+00 0.  1.
          2   -1    0    0  501    0  0.00000000000E+00 -0.00000000000E+00 -0.13009195624E+04  0.13009195624E+04  0.00000000000E+00 0. -1.
         24    2    1    2    0    0 -0.15903320300E+03  0.70231942315E+02 -0.10105061098E+04  0.10286131546E+04  0.81843377142E+02 0.  0.
        254    2    1    2    0    0  0.15903320300E+03 -0.70231942315E+02  0.44274955735E+03  0.10054694178E+04  0.88584281576E+03 0.  0.
         23    2    4    4    0    0  0.47428045033E+03  0.10391493279E+03  0.38732721140E+03  0.62795471798E+03  0.92544585542E+02 0.  0.
         23    2    4    4    0    0 -0.31524724733E+03 -0.17414687510E+03  0.55422345944E+02  0.37751469983E+03  0.98680044090E+02 0.  0.
          4    1    3    3  502    0 -0.15850887003E+03  0.59912122585E+02 -0.99848211417E+03  0.10127591306E+04  0.00000000000E+00 0. -1.
         -1    1    3    3    0  502 -0.52433296634E+00  0.10319819730E+02 -0.12023995661E+02  0.15854023967E+02  0.00000000000E+00 0.  1.
         13    1    5    5    0    0  0.11690730275E+03  0.67425644657E+02  0.10066947244E+03  0.16836827990E+03  0.00000000000E+00 0. -1.
        -13    1    5    5    0    0  0.35737314758E+03  0.36489288129E+02  0.28665773896E+03  0.45958643808E+03  0.00000000000E+00 0.  1.
          4    1    6    6  503    0 -0.27433858647E+03 -0.16907005318E+03  0.76512126503E+02  0.33121058016E+03  0.00000000000E+00 0. -1.
         -4    1    6    6    0  503 -0.40908660861E+02 -0.50768219160E+01 -0.21089780558E+02  0.46304119668E+02  0.00000000000E+00 0.  1.
<mgrwt>
<rscale>  0 0.19532395E+04</rscale>
<asrwt>0</asrwt>
<pdfrwt beam="1">  1        2 0.20014147E+00 0.19532395E+04</pdfrwt>
<pdfrwt beam="2">  1       -1 0.11279431E+00 0.19532395E+04</pdfrwt>
<totfact> 0.12620621E+01</totfact>
</mgrwt>
</event>
<event>
12    7  0.1611233E-007  0.1471651E+04  0.7818608E-02  0.8903527E-01
          2   -1    0    0  501    0  0.00000000000E+00  0.00000000000E+00  0.10568788174E+04  0.10568788174E+04  0.00000000000E+00 0. -1.
         -1   -1    0    0    0  501 -0.00000000000E+00 -0.00000000000E+00 -0.51230005710E+03  0.51230005710E+03  0.00000000000E+00 0.  1.
         24    2    1    2    0    0  0.17191544479E+03  0.32959053847E+03  0.45318673834E+03  0.59198053636E+03  0.82933059850E+02 0.  0.
        254    2    1    2    0    0 -0.17191544479E+03 -0.32959053847E+03  0.91392021968E+02  0.97719833815E+03  0.89909913091E+03 0.  0.
         23    2    4    4    0    0 -0.42840081080E+03 -0.29080878969E+03  0.32305720951E+03  0.61671303509E+03  0.88724293072E+02 0.  0.
         23    2    4    4    0    0  0.25648536601E+03 -0.38781748780E+02 -0.23166518755E+03  0.36048530306E+03  0.94826829433E+02 0.  0.
          4    1    3    3  502    0  0.12560754728E+03  0.18920377922E+03  0.32395957047E+03  0.39563256856E+03  0.00000000000E+00 0. -1.
         -3    1    3    3    0  502  0.46307897509E+02  0.14038675925E+03  0.12922716787E+03  0.19634796780E+03  0.00000000000E+00 0.  1.
         13    1    5    5    0    0 -0.89649314070E+02 -0.58029741223E+02  0.26954631969E+02  0.11014083060E+03  0.00000000000E+00 0.  1.
        -13    1    5    5    0    0 -0.33875149673E+03 -0.23277904846E+03  0.29610257754E+03  0.50657220450E+03  0.00000000000E+00 0. -1.
          2    1    6    6  503    0  0.17886513829E+03 -0.60295956510E+02 -0.12327617485E+03  0.22544479447E+03  0.00000000000E+00 0. -1.
         -2    1    6    6    0  503  0.77620227724E+02  0.21514207730E+02 -0.10838901270E+03  0.13504050859E+03  0.00000000000E+00 0.  1.
<mgrwt>
<rscale>  0 0.14716509E+04</rscale>
<asrwt>0</asrwt>
<pdfrwt beam="1">  1        2 0.16259674E+00 0.14716509E+04</pdfrwt>
<pdfrwt beam="2">  1       -1 0.78815394E-01 0.14716509E+04</pdfrwt>
<totfact> 0.41225893E+01</totfact>
</mgrwt>
</event>
<event>
12    7  0.1611233E-007  0.1486250E+04  0.7818608E-02  0.8893649E-01
         -1   -1    0    0    0  501 -0.00000000000E+00  0.00000000000E+00  0.84496306419E+03  0.84496306419E+03  0.00000000000E+00 0.  1.
          2   -1    0    0  501    0  0.00000000000E+00 -0.00000000000E+00 -0.65356046442E+03  0.65356046442E+03  0.00000000000E+00 0. -1.
         24    2    1    2    0    0  0.31007635484E+03 -0.79933549079E+02 -0.26916878088E+03  0.42584995592E+03  0.79747315013E+02 0.  0.
        254    2    1    2    0    0 -0.31007635484E+03  0.79933549079E+02  0.46057138065E+03  0.10726735727E+04  0.91431169673E+03 0.  0.
         23    2    4    4    0    0  0.30869547324E+03  0.36237049630E+00  0.25059644190E+03  0.40749015014E+03  0.89199883745E+02 0.  0.
         23    2    4    4    0    0 -0.61877182808E+03  0.79571178583E+02  0.20997493875E+03  0.66518342255E+03  0.95756791124E+02 0.  0.
          2    1    3    3  502    0  0.27751444564E+03 -0.48072705450E+02 -0.21075099203E+03  0.35176872117E+03  0.00000000000E+00 0. -1.
         -1    1    3    3    0  502  0.32561909198E+02 -0.31860843630E+02 -0.58417788856E+02  0.74081234751E+02  0.00000000000E+00 0.  1.
         13    1    5    5    0    0  0.10397636540E+03 -0.12034777195E+02  0.13899363909E+03  0.17399756358E+03  0.00000000000E+00 0. -1.
        -13    1    5    5    0    0  0.20471910784E+03  0.12397147692E+02  0.11160280281E+03  0.23349258657E+03  0.00000000000E+00 0.  1.
          1    1    6    6  503    0 -0.10247708385E+03  0.14125943559E+02 -0.14353136215E+01  0.10345605406E+03  0.00000000000E+00 0. -1.
         -1    1    6    6    0  503 -0.51629474423E+03  0.65445235024E+02  0.21141025237E+03  0.56172736849E+03  0.00000000000E+00 0.  1.
<mgrwt>
<rscale>  0 0.14862496E+04</rscale>
<asrwt>0</asrwt>
<pdfrwt beam="1">  1        2 0.10054776E+00 0.14862496E+04</pdfrwt>
<pdfrwt beam="2">  1       -1 0.12999432E+00 0.14862496E+04</pdfrwt>
<totfact> 0.25033551E+01</totfact>
</mgrwt>
</event>
<event>
12    7  0.1611233E-007  0.9987554E+03  0.7818608E-02  0.9309911E-01
         -1   -1    0    0    0  501 -0.00000000000E+00  0.00000000000E+00  0.12620561527E+03  0.12620561527E+03  0.00000000000E+00 0.  1.
          2   -1    0    0  501    0  0.00000000000E+00 -0.00000000000E+00 -0.19759666480E+04  0.19759666480E+04  0.00000000000E+00 0. -1.
         24    2    1    2    0    0 -0.46591327688E+01 -0.28903249890E+02 -0.11873980985E+03  0.14594196685E+03  0.79641759615E+02 0.  0.
        254    2    1    2    0    0  0.46591327688E+01  0.28903249890E+02 -0.17310212229E+04  0.19562302964E+04  0.91079382581E+03 0.  0.
         23    2    4    4    0    0 -0.28649490451E+03  0.16329753344E+03 -0.21333441424E+03  0.40231863567E+03  0.87196889697E+02 0.  0.
         23    2    4    4    0    0  0.29115403728E+03 -0.13439428355E+03 -0.15176868086E+04  0.15539116607E+04  0.91846085180E+02 0.  0.
          4    1    3    3  502    0 -0.62900878317E+01  0.19289280160E+02 -0.84245609067E+02  0.86654279647E+02  0.00000000000E+00 0. -1.
         -3    1    3    3    0  502  0.16309550629E+01 -0.48192530050E+02 -0.34494200779E+02  0.59287687207E+02  0.00000000000E+00 0.  1.
         13    1    5    5    0    0 -0.29050391279E+03  0.15484326996E+03 -0.19740904411E+03  0.38384800677E+03  0.00000000000E+00 0.  1.
        -13    1    5    5    0    0  0.40090082870E+01  0.84542634845E+01 -0.15925370128E+02  0.18470628907E+02  0.00000000000E+00 0. -1.
          3    1    6    6  503    0  0.17128322852E+02  0.13775770344E+02 -0.10812356095E+03  0.11033519712E+03  0.00000000000E+00 0. -1.
         -3    1    6    6    0  503  0.27402571442E+03 -0.14817005390E+03 -0.14095632477E+04  0.14435764636E+04  0.00000000000E+00 0.  1.
<mgrwt>
<rscale>  0 0.99875540E+03</rscale>
<asrwt>0</asrwt>
<pdfrwt beam="1">  1        2 0.30399484E+00 0.99875540E+03</pdfrwt>
<pdfrwt beam="2">  1       -1 0.19416250E-01 0.99875540E+03</pdfrwt>
<totfact> 0.16902912E+02</totfact>
</mgrwt>
</event>
<event>
12    7  0.1611233E-007  0.1084236E+04  0.7818608E-02  0.9220694E-01
          2   -1    0    0  501    0  0.00000000000E+00  0.00000000000E+00  0.41188139902E+04  0.41188139902E+04  0.00000000000E+00 0. -1.
         -1   -1    0    0    0  501 -0.00000000000E+00 -0.00000000000E+00 -0.71353538282E+02  0.71353538282E+02  0.00000000000E+00 0.  1.
         24    2    1    2    0    0 -0.17061573855E+02  0.68009072215E+02  0.89579814962E+03  0.90207363304E+03  0.79788366069E+02 0.  0.
        254    2    1    2    0    0  0.17061573855E+02 -0.68009072215E+02  0.31516623023E+04  0.32880938954E+04  0.93470308992E+03 0.  0.
         23    2    4    4    0    0  0.69510963647E+02 -0.47638660112E+03  0.13035526847E+04  0.13926166064E+04  0.91408112340E+02 0.  0.
         23    2    4    4    0    0 -0.52449389792E+02  0.40837752891E+03  0.18481096176E+04  0.18954772890E+04  0.88328080312E+02 0.  0.
          2    1    3    3  502    0 -0.13792447965E+01  0.11871484156E+02  0.62315828704E+03  0.62327288178E+03  0.00000000000E+00 0. -1.
         -1    1    3    3    0  502 -0.15682329058E+02  0.56137588059E+02  0.27263986257E+03  0.27880075126E+03  0.00000000000E+00 0.  1.
         13    1    5    5    0    0 -0.68882390672E+01 -0.21531096529E+03  0.64785563988E+03  0.68273215080E+03  0.00000000000E+00 0.  1.
        -13    1    5    5    0    0  0.76399202714E+02 -0.26107563583E+03  0.65569704478E+03  0.70988445563E+03  0.00000000000E+00 0. -1.
          1    1    6    6  503    0 -0.41219849634E+02  0.67608207193E+02  0.30077763980E+03  0.31102593829E+03  0.00000000000E+00 0. -1.
         -1    1    6    6    0  503 -0.11229540159E+02  0.34076932172E+03  0.15473319778E+04  0.15844513507E+04  0.00000000000E+00 0.  1.
<mgrwt>
<rscale>  0 0.10842360E+04</rscale>
<asrwt>0</asrwt>
<pdfrwt beam="1">  1        2 0.63366350E+00 0.10842360E+04</pdfrwt>
<pdfrwt beam="2">  1       -1 0.10977471E-01 0.10842360E+04</pdfrwt>
<totfact> 0.17731257E+01</totfact>
</mgrwt>
</event>
<event>
12    7  0.1611233E-007  0.1409212E+04  0.7818608E-02  0.8947177E-01
         -1   -1    0    0    0  501 -0.00000000000E+00  0.00000000000E+00  0.11700792528E+04  0.11700792528E+04  0.00000000000E+00 0.  1.
          2   -1    0    0  501    0  0.00000000000E+00 -0.00000000000E+00 -0.42430440699E+03  0.42430440699E+03  0.00000000000E+00 0. -1.
         24    2    1    2    0    0  0.20488070112E+03 -0.35662281078E+03  0.27193132327E+03  0.49967331891E+03  0.81060780900E+02 0.  0.
        254    2    1    2    0    0 -0.20488070112E+03  0.35662281078E+03  0.47384352254E+03  0.10947103409E+04  0.89705468938E+03 0.  0.
         23    2    4    4    0    0 -0.38268928277E+03 -0.10464827753E+03  0.42758871256E+03  0.59004499165E+03  0.88986717730E+02 0.  0.
         23    2    4    4    0    0  0.17780858165E+03  0.46127108831E+03  0.46254809985E+02  0.50466534924E+03  0.90336585377E+02 0.  0.
          2    1    3    3  502    0  0.19433125297E+03 -0.35425278799E+03  0.24978542858E+03  0.47502887702E+03  0.00000000000E+00 0. -1.
         -1    1    3    3    0  502  0.10549448149E+02 -0.23700227889E+01  0.22145894689E+02  0.24644441885E+02  0.00000000000E+00 0.  1.
         13    1    5    5    0    0 -0.24552968885E+03 -0.10295102003E+03  0.31608704105E+03  0.41327322458E+03  0.00000000000E+00 0. -1.
        -13    1    5    5    0    0 -0.13715959391E+03 -0.16972574981E+01  0.11150167151E+03  0.17677176707E+03  0.00000000000E+00 0.  1.
          4    1    6    6  503    0  0.93818947042E+01  0.13350453537E+03  0.18609512918E+02  0.13512140794E+03  0.00000000000E+00 0. -1.
         -4    1    6    6    0  503  0.16842668695E+03  0.32776655294E+03  0.27645297066E+02  0.36954394130E+03  0.00000000000E+00 0.  1.
<mgrwt>
<rscale>  0 0.14092122E+04</rscale>
<asrwt>0</asrwt>
<pdfrwt beam="1">  1        2 0.65277602E-01 0.14092122E+04</pdfrwt>
<pdfrwt beam="2">  1       -1 0.18001219E+00 0.14092122E+04</pdfrwt>
<totfact> 0.17217767E+01</totfact>
</mgrwt>
</event>
<event>
12    7  0.1611233E-007  0.2922742E+04  0.7818608E-02  0.8266143E-01
          2   -1    0    0  501    0  0.00000000000E+00  0.00000000000E+00  0.17013442591E+04  0.17013442591E+04  0.00000000000E+00 0. -1.
         -1   -1    0    0    0  501 -0.00000000000E+00 -0.00000000000E+00 -0.12552461323E+04  0.12552461323E+04  0.00000000000E+00 0.  1.
         24    2    1    2    0    0 -0.12619047500E+04 -0.19240564311E+03  0.13261779105E+03  0.12856935057E+04  0.77438895009E+02 0.  0.
        254    2    1    2    0    0  0.12619047500E+04  0.19240564311E+03  0.31348033578E+03  0.16708968857E+04  0.10316021288E+04 0.  0.
         23    2    4    4    0    0  0.41274327420E+03 -0.29531079399E+03 -0.20925001042E+03  0.55723191000E+03  0.95688866761E+02 0.  0.
         23    2    4    4    0    0  0.84916147583E+03  0.48771643710E+03  0.52273034620E+03  0.11136649757E+04  0.89778217163E+02 0.  0.
          2    1    3    3  502    0 -0.41172810799E+03 -0.43423454339E+02  0.12096982186E+02  0.41418832465E+03  0.00000000000E+00 0. -1.
         -1    1    3    3    0  502 -0.85017664203E+03 -0.14898218878E+03  0.12052080887E+03  0.87150518105E+03  0.00000000000E+00 0.  1.
         13    1    5    5    0    0  0.43303421179E+02 -0.69653949256E+02 -0.18033295900E+02  0.83976536567E+02  0.00000000000E+00 0.  1.
        -13    1    5    5    0    0  0.36943985302E+03 -0.22565684473E+03 -0.19121671452E+03  0.47325537344E+03  0.00000000000E+00 0. -1.
          2    1    6    6  503    0  0.78882736284E+03  0.43429092832E+03  0.45776341443E+03  0.10101507622E+04  0.00000000000E+00 0. -1.
         -2    1    6    6    0  503  0.60334112992E+02  0.53425508784E+02  0.64966931770E+02  0.10351421353E+03  0.00000000000E+00 0.  1.
<mgrwt>
<rscale>  0 0.29227424E+04</rscale>
<asrwt>0</asrwt>
<pdfrwt beam="1">  1        2 0.26174527E+00 0.29227424E+04</pdfrwt>
<pdfrwt beam="2">  1       -1 0.19311479E+00 0.29227424E+04</pdfrwt>
<totfact> 0.16131311E+00</totfact>
</mgrwt>
</event>
<event>
12    7  0.1611233E-007  0.1188759E+04  0.7818608E-02  0.9122753E-01
          2   -1    0    0  501    0  0.00000000000E+00  0.00000000000E+00  0.33722406031E+04  0.33722406031E+04  0.00000000000E+00 0. -1.
         -1   -1    0    0    0  501 -0.00000000000E+00 -0.00000000000E+00 -0.10476321509E+03  0.10476321509E+03  0.00000000000E+00 0.  1.
         24    2    1    2    0    0  0.88392659826E+02 -0.10571812204E+02  0.38866194473E+02  0.12608200659E+03  0.80380755095E+02 0.  0.
        254    2    1    2    0    0 -0.88392659826E+02  0.10571812204E+02  0.32286111935E+04  0.33509218116E+04  0.89264871191E+03 0.  0.
         23    2    4    4    0    0  0.37089052056E+03 -0.94925478535E+02  0.18333523539E+04  0.18753979253E+04  0.96777580088E+02 0.  0.
         23    2    4    4    0    0 -0.45928318039E+03  0.10549729074E+03  0.13952588396E+04  0.14755238863E+04  0.91393606271E+02 0.  0.
          4    1    3    3  502    0  0.59269542529E+02  0.32173484130E+02  0.29077014096E+02  0.73440346550E+02  0.00000000000E+00 0. -1.
         -3    1    3    3    0  502  0.29123117297E+02 -0.42745296334E+02  0.97891803769E+01  0.52641660044E+02  0.00000000000E+00 0.  1.
         13    1    5    5    0    0  0.34179425145E+03 -0.67020358505E+02  0.17244396111E+04  0.17592632012E+04  0.00000000000E+00 0.  1.
        -13    1    5    5    0    0  0.29096269112E+02 -0.27905120030E+02  0.10891274279E+03  0.11613472410E+03  0.00000000000E+00 0. -1.
          3    1    6    6  503    0 -0.63290687999E+02  0.13035658795E+02  0.30808201476E+03  0.31478590725E+03  0.00000000000E+00 0. -1.
         -3    1    6    6    0  503 -0.39599249239E+03  0.92461631944E+02  0.10871768249E+04  0.11607379790E+04  0.00000000000E+00 0.  1.
<mgrwt>
<rscale>  0 0.11887586E+04</rscale>
<asrwt>0</asrwt>
<pdfrwt beam="1">  1        2 0.51880616E+00 0.11887586E+04</pdfrwt>
<pdfrwt beam="2">  1       -1 0.16117420E-01 0.11887586E+04</pdfrwt>
<totfact> 0.33533806E+01</totfact>
</mgrwt>
</event>
<event>
12    7  0.1611233E-007  0.1809577E+04  0.7818608E-02  0.8701223E-01
         -1   -1    0    0    0  501 -0.00000000000E+00  0.00000000000E+00  0.44020572622E+03  0.44020572622E+03  0.00000000000E+00 0.  1.
          2   -1    0    0  501    0  0.00000000000E+00 -0.00000000000E+00 -0.18596813471E+04  0.18596813471E+04  0.00000000000E+00 0. -1.
         24    2    1    2    0    0  0.18092967584E+02  0.18981672412E+03 -0.13582731414E+04  0.13739463782E+04  0.80405095198E+02 0.  0.
        254    2    1    2    0    0 -0.18092967584E+02 -0.18981672412E+03 -0.61202479473E+02  0.92594069510E+03  0.90402581994E+03 0.  0.
         23    2    4    4    0    0  0.29712466297E+03 -0.13968320881E+03  0.28668142385E+03  0.44508066179E+03  0.90089358706E+02 0.  0.
         23    2    4    4    0    0 -0.31521763055E+03 -0.50133515305E+02 -0.34788390332E+03  0.48086003331E+03  0.91255890121E+02 0.  0.
          2    1    3    3  502    0 -0.14655451030E+02  0.16050452083E+03 -0.11352567538E+04  0.11466404757E+04  0.00000000000E+00 0. -1.
         -1    1    3    3    0  502  0.32748418614E+02  0.29312203289E+02 -0.22301638764E+03  0.22730590256E+03  0.00000000000E+00 0.  1.
         13    1    5    5    0    0  0.25636052047E+03 -0.12391931382E+03  0.19986440942E+03  0.34788287533E+03  0.00000000000E+00 0.  1.
        -13    1    5    5    0    0  0.40764142497E+02 -0.15763894987E+02  0.86817014425E+02  0.97197786458E+02  0.00000000000E+00 0. -1.
          1    1    6    6  503    0 -0.40568901126E+02  0.31079112021E+01 -0.94598332463E+01  0.41772997207E+02  0.00000000000E+00 0. -1.
         -1    1    6    6    0  503 -0.27464872943E+03 -0.53241426507E+02 -0.33842407007E+03  0.43908703611E+03  0.00000000000E+00 0.  1.
<mgrwt>
<rscale>  0 0.18095772E+04</rscale>
<asrwt>0</asrwt>
<pdfrwt beam="1">  1        2 0.28610482E+00 0.18095772E+04</pdfrwt>
<pdfrwt beam="2">  1       -1 0.67723958E-01 0.18095772E+04</pdfrwt>
<totfact> 0.18963725E+01</totfact>
</mgrwt>
</event>
<event>
12    7  0.1611233E-007  0.1196987E+04  0.7818608E-02  0.9115498E-01
         -3   -1    0    0    0  501 -0.00000000000E+00  0.00000000000E+00  0.13414456037E+03  0.13414456037E+03  0.00000000000E+00 0.  1.
          2   -1    0    0  501    0  0.00000000000E+00 -0.00000000000E+00 -0.26702135923E+04  0.26702135923E+04  0.00000000000E+00 0. -1.
         24    2    1    2    0    0  0.23975819995E+03 -0.20305144734E+02 -0.41174259064E+03  0.48374743439E+03  0.81137697673E+02 0.  0.
        254    2    1    2    0    0 -0.23975819995E+03  0.20305144734E+02 -0.21243264413E+04  0.23206107183E+04  0.90253807860E+03 0.  0.
         23    2    4    4    0    0  0.73217477531E+02 -0.37202777141E+03 -0.62183436597E+03  0.73377347869E+03  0.89331280166E+02 0.  0.
         23    2    4    4    0    0 -0.31297567748E+03  0.39233291614E+03 -0.15024920754E+04  0.15868372396E+04  0.93226052065E+02 0.  0.
          4    1    3    3  502    0  0.32214002737E+02  0.11254070630E+02 -0.20681620726E+02  0.39901447517E+02  0.00000000000E+00 0. -1.
         -3    1    3    3    0  502  0.20754419721E+03 -0.31559215364E+02 -0.39106096991E+03  0.44384598687E+03  0.00000000000E+00 0.  1.
         13    1    5    5    0    0  0.59110995124E+02 -0.10181437270E+03 -0.21614692351E+03  0.24612957720E+03  0.00000000000E+00 0. -1.
        -13    1    5    5    0    0  0.14106482407E+02 -0.27021339871E+03 -0.40568744246E+03  0.48764390149E+03  0.00000000000E+00 0.  1.
          4    1    6    6  503    0 -0.32071103193E+02  0.62205624606E+02 -0.13165723882E+03  0.14910306478E+03  0.00000000000E+00 0. -1.
         -4    1    6    6    0  503 -0.28090457429E+03  0.33012729154E+03 -0.13708348365E+04  0.14377341749E+04  0.00000000000E+00 0.  1.
<mgrwt>
<rscale>  0 0.11969873E+04</rscale>
<asrwt>0</asrwt>
<pdfrwt beam="1">  1        2 0.41080206E+00 0.11969873E+04</pdfrwt>
<pdfrwt beam="2">  1       -3 0.20637626E-01 0.11969873E+04</pdfrwt>
<totfact> 0.38952286E+01</totfact>
</mgrwt>
</event>
<event>
12    7  0.1611233E-007  0.1011349E+04  0.7818608E-02  0.9296184E-01
          2   -1    0    0  501    0  0.00000000000E+00  0.00000000000E+00  0.25125977385E+04  0.25125977385E+04  0.00000000000E+00 0. -1.
         -1   -1    0    0    0  501 -0.00000000000E+00 -0.00000000000E+00 -0.10176981846E+03  0.10176981846E+03  0.00000000000E+00 0.  1.
         24    2    1    2    0    0  0.18544228480E+02 -0.22025172470E+02  0.93186090191E+02  0.12622491147E+03  0.80125428155E+02 0.  0.
        254    2    1    2    0    0 -0.18544228480E+02  0.22025172470E+02  0.23176418299E+04  0.24881426455E+04  0.90474370746E+03 0.  0.
         23    2    4    4    0    0 -0.21842409480E+03  0.39063631774E+03  0.93011189794E+03  0.10361489355E+04  0.90502242309E+02 0.  0.
         23    2    4    4    0    0  0.19987986632E+03 -0.36861114527E+03  0.13875299319E+04  0.14519937100E+04  0.84972257818E+02 0.  0.
          4    1    3    3  502    0 -0.64201410378E+01 -0.22935894889E+02  0.97941027972E+02  0.10079542869E+03  0.00000000000E+00 0. -1.
         -3    1    3    3    0  502  0.24964369518E+02  0.91072241880E+00 -0.47549377806E+01  0.25429482772E+02  0.00000000000E+00 0.  1.
         13    1    5    5    0    0 -0.15775053604E+03  0.20198397941E+03  0.47406161978E+03  0.53890368240E+03  0.00000000000E+00 0. -1.
        -13    1    5    5    0    0 -0.60673558764E+02  0.18865233833E+03  0.45605027816E+03  0.49724525307E+03  0.00000000000E+00 0.  1.
          2    1    6    6  503    0  0.19677359444E+03 -0.34218562681E+03  0.12173632933E+04  0.12797594456E+04  0.00000000000E+00 0. -1.
         -2    1    6    6    0  503  0.31062718821E+01 -0.26425518454E+02  0.17016663863E+03  0.17223426446E+03  0.00000000000E+00 0.  1.
<mgrwt>
<rscale>  0 0.10113488E+04</rscale>
<asrwt>0</asrwt>
<pdfrwt beam="1">  1        2 0.38655345E+00 0.10113488E+04</pdfrwt>
<pdfrwt beam="2">  1       -1 0.15656897E-01 0.10113488E+04</pdfrwt>
<totfact> 0.12081441E+02</totfact>
</mgrwt>
</event>
<event>
12    7  0.1611233E-007  0.1261548E+04  0.7818608E-02  0.9060626E-01
          2   -1    0    0  501    0  0.00000000000E+00  0.00000000000E+00  0.14128643584E+04  0.14128643584E+04  0.00000000000E+00 0. -1.
         -1   -1    0    0    0  501 -0.00000000000E+00 -0.00000000000E+00 -0.28160947152E+03  0.28160947152E+03  0.00000000000E+00 0.  1.
         24    2    1    2    0    0 -0.23788077991E+03 -0.18118003450E+03  0.34214273098E+03  0.46157838303E+03  0.81114024453E+02 0.  0.
        254    2    1    2    0    0  0.23788077991E+03  0.18118003450E+03  0.78911215591E+03  0.12328954469E+04  0.89884354481E+03 0.  0.
         23    2    4    4    0    0  0.35585612062E+03  0.91879912612E+02 -0.45660209980E+02  0.38015313051E+03  0.85767423522E+02 0.  0.
         23    2    4    4    0    0 -0.11797534071E+03  0.89300121890E+02  0.83477236589E+03  0.85274231639E+03  0.91825173775E+02 0.  0.
          4    1    3    3  502    0 -0.10565878698E+03 -0.63878586399E+02  0.19873063310E+03  0.23396178662E+03  0.00000000000E+00 0. -1.
         -3    1    3    3    0  502 -0.13222199293E+03 -0.11730144810E+03  0.14341209788E+03  0.22761659641E+03  0.00000000000E+00 0.  1.
         13    1    5    5    0    0  0.31488389014E+03  0.10321022528E+03 -0.56818334799E+02  0.33620312021E+03  0.00000000000E+00 0. -1.
        -13    1    5    5    0    0  0.40972230479E+02 -0.11330312668E+02  0.11158124819E+02  0.43950010297E+02  0.00000000000E+00 0.  1.
          4    1    6    6  503    0 -0.13025510398E+03  0.85441982435E+02  0.80980895174E+03  0.82465584506E+03  0.00000000000E+00 0. -1.
         -4    1    6    6    0  503  0.12279763274E+02  0.38581394558E+01  0.24963414144E+02  0.28086471331E+02  0.00000000000E+00 0.  1.
<mgrwt>
<rscale>  0 0.12615482E+04</rscale>
<asrwt>0</asrwt>
<pdfrwt beam="1">  1        2 0.21736374E+00 0.12615482E+04</pdfrwt>
<pdfrwt beam="2">  1       -1 0.43324535E-01 0.12615482E+04</pdfrwt>
<totfact> 0.83719465E+01</totfact>
</mgrwt>
</event>
<event>
12    7  0.1611233E-007  0.2937978E+04  0.7818608E-02  0.8261667E-01
          2   -1    0    0  501    0  0.00000000000E+00  0.00000000000E+00  0.14832921451E+04  0.14832921451E+04  0.00000000000E+00 0. -1.
         -1   -1    0    0    0  501 -0.00000000000E+00 -0.00000000000E+00 -0.14548238722E+04  0.14548238722E+04  0.00000000000E+00 0.  1.
         24    2    1    2    0    0  0.20724392495E+03  0.21533374866E+03  0.12984057231E+04  0.13347798299E+04  0.80380997982E+02 0.  0.
        254    2    1    2    0    0 -0.20724392495E+03 -0.21533374866E+03 -0.12699374502E+04  0.16033361873E+04  0.93200168158E+03 0.  0.
         23    2    4    4    0    0 -0.21185743858E+03 -0.52257726990E+03 -0.11028418070E+04  0.12419580580E+04  0.90714878618E+02 0.  0.
         23    2    4    4    0    0  0.46135136243E+01  0.30724352124E+03 -0.16709564317E+03  0.36137812935E+03  0.90847853854E+02 0.  0.
          4    1    3    3  502    0  0.20310505132E+03  0.18021096212E+03  0.11961314122E+04  0.12265634953E+04  0.00000000000E+00 0. -1.
         -3    1    3    3    0  502  0.41388736350E+01  0.35122786534E+02  0.10227431087E+03  0.10821633460E+03  0.00000000000E+00 0.  1.
         13    1    5    5    0    0 -0.12521600625E+03 -0.38227046331E+03 -0.71241148508E+03  0.81813194499E+03  0.00000000000E+00 0. -1.
        -13    1    5    5    0    0 -0.86641432324E+02 -0.14030680658E+03 -0.39043032193E+03  0.42382611299E+03  0.00000000000E+00 0.  1.
          4    1    6    6  503    0 -0.29129647172E+02  0.56740659819E+02 -0.57508094945E+02  0.85879099933E+02  0.00000000000E+00 0.  1.
         -4    1    6    6    0  503  0.33743160797E+02  0.25050286142E+03 -0.10958754823E+03  0.27549902941E+03  0.00000000000E+00 0. -1.
<mgrwt>
<rscale>  0 0.29379781E+04</rscale>
<asrwt>0</asrwt>
<pdfrwt beam="1">  1        2 0.22819879E+00 0.29379781E+04</pdfrwt>
<pdfrwt beam="2">  1       -1 0.22381906E+00 0.29379781E+04</pdfrwt>
<totfact> 0.13188874E+00</totfact>
</mgrwt>
</event>
<event>
12    7  0.1611233E-007  0.9711644E+03  0.7818608E-02  0.9340749E-01
         -1   -1    0    0    0  501 -0.00000000000E+00  0.00000000000E+00  0.19728740244E+03  0.19728740244E+03  0.00000000000E+00 0.  1.
          2   -1    0    0  501    0  0.00000000000E+00 -0.00000000000E+00 -0.11951602735E+04  0.11951602735E+04  0.00000000000E+00 0. -1.
         24    2    1    2    0    0 -0.22369367493E+02 -0.39971990691E+02 -0.67967512613E+02  0.11285071516E+03  0.77572885082E+02 0.  0.
        254    2    1    2    0    0  0.22369367493E+02  0.39971990691E+02 -0.92990535848E+03  0.12795969608E+04  0.87780764280E+03 0.  0.
         23    2    4    4    0    0 -0.16820633915E+03 -0.36676352747E+03 -0.35846272564E+03  0.54721029619E+03  0.90192710141E+02 0.  0.
         23    2    4    4    0    0  0.19057570664E+03  0.40673551816E+03 -0.57144263284E+03  0.73238666464E+03  0.89948108457E+02 0.  0.
          2    1    3    3  502    0 -0.19009016818E+02  0.61587886159E+01 -0.63281078777E+02  0.66360894575E+02  0.00000000000E+00 0. -1.
         -1    1    3    3    0  502 -0.33603506753E+01 -0.46130779307E+02 -0.46864338358E+01  0.46489820587E+02  0.00000000000E+00 0.  1.
         13    1    5    5    0    0 -0.86652475189E+02 -0.22474010215E+03 -0.15673319994E+03  0.28737094657E+03  0.00000000000E+00 0.  1.
        -13    1    5    5    0    0 -0.81553863961E+02 -0.14202342532E+03 -0.20172952571E+03  0.25983934962E+03  0.00000000000E+00 0. -1.
          4    1    6    6  503    0  0.46424929857E+02  0.76322076972E+02 -0.63832633345E+02  0.10979498452E+03  0.00000000000E+00 0. -1.
         -4    1    6    6    0  503  0.14415077679E+03  0.33041344119E+03 -0.50760999949E+03  0.62259168012E+03  0.00000000000E+00 0.  1.
<mgrwt>
<rscale>  0 0.97116439E+03</rscale>
<asrwt>0</asrwt>
<pdfrwt beam="1">  1        2 0.18387081E+00 0.97116439E+03</pdfrwt>
<pdfrwt beam="2">  1       -1 0.30351908E-01 0.97116439E+03</pdfrwt>
<totfact> 0.21685973E+02</totfact>
</mgrwt>
</event>
<event>
12    7  0.1611233E-007  0.1882555E+04  0.7818608E-02  0.8663589E-01
          2   -1    0    0  501    0  0.00000000000E+00  0.00000000000E+00  0.21791907021E+04  0.21791907021E+04  0.00000000000E+00 0. -1.
         -1   -1    0    0    0  501 -0.00000000000E+00 -0.00000000000E+00 -0.40657452999E+03  0.40657452999E+03  0.00000000000E+00 0.  1.
         24    2    1    2    0    0  0.44216269808E+02 -0.63755760976E+03  0.11607310470E+04  0.13274996083E+04  0.80770430075E+02 0.  0.
        254    2    1    2    0    0 -0.44216269808E+02  0.63755760976E+03  0.61188512512E+03  0.12582656238E+04  0.89464752239E+03 0.  0.
         23    2    4    4    0    0  0.75189400008E+02 -0.16193338857E+03 -0.53081722217E+02  0.20711038414E+03  0.90560332246E+02 0.  0.
         23    2    4    4    0    0 -0.11940566982E+03  0.79949099833E+03  0.66496684734E+03  0.10511552396E+04  0.96451331455E+02 0.  0.
          2    1    3    3  502    0  0.94418082250E+01 -0.36507574849E+03  0.73702098950E+03  0.82253838138E+03  0.00000000000E+00 0. -1.
         -1    1    3    3    0  502  0.34774461583E+02 -0.27248186127E+03  0.42371005750E+03  0.50496122695E+03  0.00000000000E+00 0.  1.
         13    1    5    5    0    0  0.85878957085E+02 -0.14571462782E+03 -0.22146921727E+02  0.17058263151E+03  0.00000000000E+00 0. -1.
        -13    1    5    5    0    0 -0.10689557077E+02 -0.16218760754E+02 -0.30934800490E+02  0.36527752631E+02  0.00000000000E+00 0.  1.
          3    1    6    6  503    0 -0.47718986474E+02  0.57965279337E+03  0.50161853423E+03  0.76804662385E+03  0.00000000000E+00 0. -1.
         -3    1    6    6    0  503 -0.71686683342E+02  0.21983820496E+03  0.16334831311E+03  0.28310861577E+03  0.00000000000E+00 0.  1.
<mgrwt>
<rscale>  0 0.18825551E+04</rscale>
<asrwt>0</asrwt>
<pdfrwt beam="1">  1        2 0.33526010E+00 0.18825551E+04</pdfrwt>
<pdfrwt beam="2">  1       -1 0.62549929E-01 0.18825551E+04</pdfrwt>
<totfact> 0.14688143E+01</totfact>
</mgrwt>
</event>
<event>
12    7  0.1611233E-007  0.3845615E+04  0.7818608E-02  0.8036436E-01
         -1   -1    0    0    0  501 -0.00000000000E+00  0.00000000000E+00  0.19181428158E+04  0.19181428158E+04  0.00000000000E+00 0.  1.
          2   -1    0    0  501    0  0.00000000000E+00 -0.00000000000E+00 -0.19274831879E+04  0.19274831879E+04  0.00000000000E+00 0. -1.
         24    2    1    2    0    0  0.23749199843E+03  0.18620918992E+03  0.17960446030E+04  0.18229795659E+04  0.80012310287E+02 0.  0.
        254    2    1    2    0    0 -0.23749199843E+03 -0.18620918992E+03 -0.18053849751E+04  0.20226464379E+04  0.86058549401E+03 0.  0.
         23    2    4    4    0    0 -0.22107793956E+03 -0.15041827808E+03 -0.18761064773E+04  0.18970538363E+04  0.86813766791E+02 0.  0.
         23    2    4    4    0    0 -0.16414058865E+02 -0.35790911843E+02  0.70721502160E+02  0.12559260153E+03  0.96028953931E+02 0.  0.
          2    1    3    3  502    0  0.34615575528E+01  0.29232997423E+02  0.13200054182E+03  0.13524309062E+03  0.00000000000E+00 0. -1.
         -1    1    3    3    0  502  0.23403044088E+03  0.15697619250E+03  0.16640440612E+04  0.16877364752E+04  0.00000000000E+00 0.  1.
         13    1    5    5    0    0 -0.15219664667E+03 -0.95131101097E+02 -0.95477667914E+03  0.97150000138E+03  0.00000000000E+00 0. -1.
        -13    1    5    5    0    0 -0.68881292891E+02 -0.55287176978E+02 -0.92132979816E+03  0.92555383497E+03  0.00000000000E+00 0.  1.
          2    1    6    6  503    0 -0.22724637964E+01  0.24962778097E+02 -0.69140322279E+01  0.26002081141E+02  0.00000000000E+00 0. -1.
         -2    1    6    6    0  503 -0.14141595069E+02 -0.60753689940E+02  0.77635534388E+02  0.99590520393E+02  0.00000000000E+00 0.  1.
<mgrwt>
<rscale>  0 0.38456147E+04</rscale>
<asrwt>0</asrwt>
<pdfrwt beam="1">  1        2 0.29653587E+00 0.38456147E+04</pdfrwt>
<pdfrwt beam="2">  1       -1 0.29509890E+00 0.38456147E+04</pdfrwt>
<totfact> 0.23674883E-01</totfact>
</mgrwt>
</event>
<event>
12    7  0.1611233E-007  0.1581164E+04  0.7818608E-02  0.8832204E-01
         -1   -1    0    0    0  501 -0.00000000000E+00  0.00000000000E+00  0.26535359909E+03  0.26535359909E+03  0.00000000000E+00 0.  1.
          2   -1    0    0  501    0  0.00000000000E+00 -0.00000000000E+00 -0.23554234334E+04  0.23554234334E+04  0.00000000000E+00 0. -1.
         24    2    1    2    0    0  0.72762481752E+02  0.24867865934E+03 -0.14321339557E+04  0.14575773122E+04  0.79928090066E+02 0.  0.
        254    2    1    2    0    0 -0.72762481752E+02 -0.24867865934E+03 -0.65793587862E+03  0.11631997203E+04  0.92359001434E+03 0.  0.
         23    2    4    4    0    0 -0.82013861989E+02  0.19559290481E+03  0.11956148032E+03  0.26306757256E+03  0.99633037609E+02 0.  0.
         23    2    4    4    0    0  0.92513802371E+01 -0.44427156415E+03 -0.77749735894E+03  0.90013214775E+03  0.90955645832E+02 0.  0.
          4    1    3    3  502    0  0.33992591156E+02  0.18925841657E+03 -0.11834773350E+04  0.11989966001E+04  0.00000000000E+00 0. -1.
         -3    1    3    3    0  502  0.38769890595E+02  0.59420242772E+02 -0.24865662067E+03  0.25858071210E+03  0.00000000000E+00 0.  1.
         13    1    5    5    0    0 -0.92083545675E+02  0.12042584882E+03  0.10850524886E+03  0.18642734101E+03  0.00000000000E+00 0.  1.
        -13    1    5    5    0    0  0.10069683686E+02  0.75167055997E+02  0.11056231455E+02  0.76640231542E+02  0.00000000000E+00 0. -1.
          1    1    6    6  503    0 -0.13899953922E+02 -0.27903495626E+02 -0.98383584387E+02  0.10320437716E+03  0.00000000000E+00 0. -1.
         -1    1    6    6    0  503  0.23151334160E+02 -0.41636806853E+03 -0.67911377455E+03  0.79692777059E+03  0.00000000000E+00 0.  1.
<mgrwt>
<rscale>  0 0.15811642E+04</rscale>
<asrwt>0</asrwt>
<pdfrwt beam="1">  1        2 0.36237282E+00 0.15811642E+04</pdfrwt>
<pdfrwt beam="2">  1       -1 0.40823632E-01 0.15811642E+04</pdfrwt>
<totfact> 0.27092174E+01</totfact>
</mgrwt>
</event>
<event>
12    7  0.1611233E-007  0.1374082E+04  0.7818608E-02  0.8972796E-01
         -1   -1    0    0    0  501 -0.00000000000E+00  0.00000000000E+00  0.41570426975E+03  0.41570426975E+03  0.00000000000E+00 0.  1.
          2   -1    0    0  501    0  0.00000000000E+00 -0.00000000000E+00 -0.11354837855E+04  0.11354837855E+04  0.00000000000E+00 0. -1.
         24    2    1    2    0    0  0.34511368396E+03  0.74758226862E+02 -0.39395462199E+03  0.53519595314E+03  0.80883970782E+02 0.  0.
        254    2    1    2    0    0 -0.34511368396E+03 -0.74758226862E+02 -0.32582489375E+03  0.10159921021E+04  0.89520156547E+03 0.  0.
         23    2    4    4    0    0  0.14080059681E+03 -0.31737794341E+02  0.22019755670E+03  0.27820159089E+03  0.89872496061E+02 0.  0.
         23    2    4    4    0    0 -0.48591428076E+03 -0.43020432521E+02 -0.54602245045E+03  0.73779051122E+03  0.90724176446E+02 0.  0.
          4    1    3    3  502    0  0.27651380515E+03  0.91918267475E+02 -0.32318671458E+03  0.43515342675E+03  0.00000000000E+00 0. -1.
         -3    1    3    3    0  502  0.68599878807E+02 -0.17160040613E+02 -0.70767907418E+02  0.10004252639E+03  0.00000000000E+00 0.  1.
         13    1    5    5    0    0  0.63091850395E+02  0.16082063900E+02  0.14854152076E+03  0.16218445596E+03  0.00000000000E+00 0. -1.
        -13    1    5    5    0    0  0.77708746411E+02 -0.47819858241E+02  0.71656035934E+02  0.11601713493E+03  0.00000000000E+00 0.  1.
          4    1    6    6  503    0 -0.21665376080E+03 -0.39424696373E+02 -0.30642207682E+03  0.37734287845E+03  0.00000000000E+00 0. -1.
         -4    1    6    6    0  503 -0.26926051996E+03 -0.35957361473E+01 -0.23960037362E+03  0.36044763277E+03  0.00000000000E+00 0.  1.
<mgrwt>
<rscale>  0 0.13740822E+04</rscale>
<asrwt>0</asrwt>
<pdfrwt beam="1">  1        2 0.17468981E+00 0.13740822E+04</pdfrwt>
<pdfrwt beam="2">  1       -1 0.63954504E-01 0.13740822E+04</pdfrwt>
<totfact> 0.57130370E+01</totfact>
</mgrwt>
</event>
<event>
12    7  0.1611233E-007  0.2414846E+04  0.7818608E-02  0.8433966E-01
         -1   -1    0    0    0  501 -0.00000000000E+00  0.00000000000E+00  0.11782399390E+04  0.11782399390E+04  0.00000000000E+00 0.  1.
          2   -1    0    0  501    0  0.00000000000E+00 -0.00000000000E+00 -0.12373286482E+04  0.12373286482E+04  0.00000000000E+00 0. -1.
         24    2    1    2    0    0 -0.41609419611E+03 -0.49130735095E+03  0.79070587334E+03  0.10228690375E+04  0.80796017999E+02 0.  0.
        254    2    1    2    0    0  0.41609419611E+03  0.49130735095E+03 -0.84979458258E+03  0.13926995498E+04  0.89607137567E+03 0.  0.
         23    2    4    4    0    0  0.57829633238E+03  0.63546335770E+03 -0.61485912007E+03  0.10604688951E+04  0.91116480109E+02 0.  0.
         23    2    4    4    0    0 -0.16220213627E+03 -0.14415600674E+03 -0.23493546251E+03  0.33223065469E+03  0.89955817359E+02 0.  0.
          2    1    3    3  502    0 -0.83539599735E+02 -0.11780156273E+03  0.13056854548E+03  0.19469005618E+03  0.00000000000E+00 0. -1.
         -1    1    3    3    0  502 -0.33255459638E+03 -0.37350578822E+03  0.66013732786E+03  0.82817898129E+03  0.00000000000E+00 0.  1.
         13    1    5    5    0    0  0.11373214433E+03  0.15057335935E+03 -0.95153179611E+02  0.21133259282E+03  0.00000000000E+00 0.  1.
        -13    1    5    5    0    0  0.46456418806E+03  0.48488999835E+03 -0.51970594045E+03  0.84913630229E+03  0.00000000000E+00 0. -1.
          4    1    6    6  503    0 -0.10021426200E+03 -0.11926790606E+03 -0.11047389448E+03  0.19097699622E+03  0.00000000000E+00 0. -1.
         -4    1    6    6    0  503 -0.61987874266E+02 -0.24888100681E+02 -0.12446156803E+03  0.14125365846E+03  0.00000000000E+00 0.  1.
<mgrwt>
<rscale>  0 0.24148458E+04</rscale>
<asrwt>0</asrwt>
<pdfrwt beam="1">  1        2 0.19035825E+00 0.24148458E+04</pdfrwt>
<pdfrwt beam="2">  1       -1 0.18126768E+00 0.24148458E+04</pdfrwt>
<totfact> 0.37540845E+00</totfact>
</mgrwt>
</event>
<event>
12    7  0.1611233E-007  0.1688104E+04  0.7818608E-02  0.8768178E-01
         -1   -1    0    0    0  501 -0.00000000000E+00  0.00000000000E+00  0.11710288567E+04  0.11710288567E+04  0.00000000000E+00 0.  1.
          2   -1    0    0  501    0  0.00000000000E+00 -0.00000000000E+00 -0.60837453649E+03  0.60837453649E+03  0.00000000000E+00 0. -1.
         24    2    1    2    0    0 -0.52076732383E+03 -0.17124675548E+03  0.45921843686E+03  0.72090039172E+03  0.91059020423E+02 0.  0.
        254    2    1    2    0    0  0.52076732383E+03  0.17124675548E+03  0.10343588330E+03  0.10585030014E+04  0.89955853910E+03 0.  0.
         23    2    4    4    0    0  0.60808554593E+03  0.36816779440E+03  0.27618401309E+03  0.76815057536E+03  0.91989897992E+02 0.  0.
         23    2    4    4    0    0 -0.87318222108E+02 -0.19692103892E+03 -0.17274812979E+03  0.29035242607E+03  0.89778881154E+02 0.  0.
          4    1    3    3  502    0 -0.40709348727E+02  0.81023599696E+01  0.20507376301E+02  0.46297427505E+02  0.00000000000E+00 0. -1.
         -3    1    3    3    0  502 -0.48005797510E+03 -0.17934911545E+03  0.43871106056E+03  0.67460296421E+03  0.00000000000E+00 0.  1.
         13    1    5    5    0    0  0.32466083996E+03  0.14289204377E+03  0.13953564358E+03  0.38117317981E+03  0.00000000000E+00 0.  1.
        -13    1    5    5    0    0  0.28342470597E+03  0.22527575063E+03  0.13664836951E+03  0.38697739555E+03  0.00000000000E+00 0. -1.
          1    1    6    6  503    0  0.53408551364E+01 -0.93104132258E+02 -0.82366464557E+02  0.12442322396E+03  0.00000000000E+00 0. -1.
         -1    1    6    6    0  503 -0.92659077244E+02 -0.10381690666E+03 -0.90381665229E+02  0.16592920211E+03  0.00000000000E+00 0.  1.
<mgrwt>
<rscale>  0 0.16881044E+04</rscale>
<asrwt>0</asrwt>
<pdfrwt beam="1">  1        2 0.93596083E-01 0.16881044E+04</pdfrwt>
<pdfrwt beam="2">  1       -1 0.18015829E+00 0.16881044E+04</pdfrwt>
<totfact> 0.11012677E+01</totfact>
</mgrwt>
</event>
<event>
12    7  0.1949135E-007  0.1244055E+04  0.7818608E-02  0.9075146E-01
         -1   -1    0    0    0  501 -0.00000000000E+00  0.00000000000E+00  0.33662200714E+03  0.33662200714E+03  0.00000000000E+00 0.  1.
          2   -1    0    0  501    0  0.00000000000E+00 -0.00000000000E+00 -0.11494148594E+04  0.11494148594E+04  0.00000000000E+00 0. -1.
         24    2    1    2    0    0 -0.58899848559E+02 -0.25857553477E+03 -0.53602210625E+02  0.28130412668E+03  0.76995554173E+02 0.  0.
        254    2    1    2    0    0  0.58899848559E+02  0.25857553477E+03 -0.75919064166E+03  0.12047327399E+04  0.89703960047E+03 0.  0.
         23    2    4    4    0    0  0.43335874936E+03  0.13805813191E+03 -0.17737940972E+03  0.49662222891E+03  0.91161010429E+02 0.  0.
         23    2    4    4    0    0 -0.37445890080E+03  0.12051740286E+03 -0.58181123193E+03  0.70811051096E+03  0.90400626931E+02 0.  0.
          4    1    3    3  502    0  0.38938000089E+01 -0.69130846492E+00 -0.12011978174E+02  0.12646232860E+02  0.00000000000E+00 0. -1.
         -3    1    3    3    0  502 -0.62793648568E+02 -0.25788422630E+03 -0.41590232451E+02  0.26865789382E+03  0.00000000000E+00 0.  1.
         13    1    5    5    0    0  0.12045600307E+03  0.47726086607E+02 -0.95062697174E+02  0.16069954702E+03  0.00000000000E+00 0. -1.
        -13    1    5    5    0    0  0.31290274629E+03  0.90332045306E+02 -0.82316712549E+02  0.33592268189E+03  0.00000000000E+00 0.  1.
          4    1    6    6  503    0 -0.37962482522E+02  0.26550686586E+01 -0.20744803110E+02  0.43342200277E+02  0.00000000000E+00 0. -1.
         -4    1    6    6    0  503 -0.33649641828E+03  0.11786233420E+03 -0.56106642882E+03  0.66476831069E+03  0.00000000000E+00 0.  1.
<mgrwt>
<rscale>  0 0.12440552E+04</rscale>
<asrwt>0</asrwt>
<pdfrwt beam="1">  1        2 0.17683305E+00 0.12440552E+04</pdfrwt>
<pdfrwt beam="2">  1       -1 0.51788001E-01 0.12440552E+04</pdfrwt>
<totfact> 0.85527098E+01</totfact>
</mgrwt>
</event>
<event>
12    7  0.1611233E-007  0.1057228E+04  0.7818608E-02  0.9247913E-01
          2   -1    0    0  501    0  0.00000000000E+00  0.00000000000E+00  0.15444591173E+04  0.15444591173E+04  0.00000000000E+00 0. -1.
         -3   -1    0    0    0  501 -0.00000000000E+00 -0.00000000000E+00 -0.18092596619E+03  0.18092596619E+03  0.00000000000E+00 0.  1.
         24    2    1    2    0    0 -0.13756410492E+03  0.25910454205E+02  0.23463473175E+03  0.28481592043E+03  0.80445115380E+02 0.  0.
        254    2    1    2    0    0  0.13756410492E+03 -0.25910454205E+02  0.11288984194E+04  0.14405691631E+04  0.88387365485E+03 0.  0.
         23    2    4    4    0    0  0.48158343835E+03 -0.75773293520E+02  0.43772592674E+03  0.66270539479E+03  0.99550254888E+02 0.  0.
         23    2    4    4    0    0 -0.34401933343E+03  0.49862839316E+02  0.69117249264E+03  0.77786376829E+03  0.80728080022E+02 0.  0.
          2    1    3    3  502    0 -0.13203168030E+03  0.21090090518E+02  0.24066894881E+03  0.27531563603E+03  0.00000000000E+00 0. -1.
         -1    1    3    3    0  502 -0.55324246149E+01  0.48203636866E+01 -0.60342170588E+01  0.95002844012E+01  0.00000000000E+00 0.  1.
         13    1    5    5    0    0  0.38176356705E+03 -0.97985789380E+02  0.32856104787E+03  0.51312473944E+03  0.00000000000E+00 0. -1.
        -13    1    5    5    0    0  0.99819871303E+02  0.22212495860E+02  0.10916487886E+03  0.14958065535E+03  0.00000000000E+00 0.  1.
          3    1    6    6  503    0 -0.22695315866E+03  0.36180302798E+01  0.38661738148E+03  0.44832334986E+03  0.00000000000E+00 0. -1.
         -3    1    6    6    0  503 -0.11706617477E+03  0.46244809036E+02  0.30455511116E+03  0.32954041842E+03  0.00000000000E+00 0.  1.
<mgrwt>
<rscale>  0 0.10572280E+04</rscale>
<asrwt>0</asrwt>
<pdfrwt beam="1">  1        2 0.23760909E+00 0.10572280E+04</pdfrwt>
<pdfrwt beam="2">  1       -3 0.27834765E-01 0.10572280E+04</pdfrwt>
<totfact> 0.96081904E+01</totfact>
</mgrwt>
</event>
<event>
12    7  0.1611233E-007  0.1702228E+04  0.7818608E-02  0.8760095E-01
         -1   -1    0    0    0  501 -0.00000000000E+00  0.00000000000E+00  0.52256237382E+03  0.52256237382E+03  0.00000000000E+00 0.  1.
          2   -1    0    0  501    0  0.00000000000E+00 -0.00000000000E+00 -0.13862363272E+04  0.13862363272E+04  0.00000000000E+00 0. -1.
         24    2    1    2    0    0  0.15476489158E+03 -0.36893866704E+03 -0.82917782133E+03  0.92416456591E+03  0.80475920592E+02 0.  0.
        254    2    1    2    0    0 -0.15476489158E+03  0.36893866704E+03 -0.34496132027E+02  0.98463413508E+03  0.89902529728E+03 0.  0.
         23    2    4    4    0    0  0.10649952722E+02 -0.12171739449E+03  0.31734768774E+03  0.35203355084E+03  0.91046803316E+02 0.  0.
         23    2    4    4    0    0 -0.16541484430E+03  0.49065606152E+03 -0.35184381976E+03  0.63260058424E+03  0.91016395479E+02 0.  0.
          2    1    3    3  502    0  0.74886406615E+02 -0.24817752612E+03 -0.59224734983E+03  0.64649592554E+03  0.00000000000E+00 0. -1.
         -1    1    3    3    0  502  0.79878484965E+02 -0.12076114092E+03 -0.23693047150E+03  0.27766864036E+03  0.00000000000E+00 0.  1.
         13    1    5    5    0    0 -0.61213068227E+01 -0.13187560961E+03  0.26338419002E+03  0.29461819082E+03  0.00000000000E+00 0. -1.
        -13    1    5    5    0    0  0.16771259545E+02  0.10158215124E+02  0.53963497716E+02  0.57415360026E+02  0.00000000000E+00 0.  1.
          1    1    6    6  503    0 -0.98079263436E+02  0.29611792888E+03 -0.26447836362E+03  0.40896720473E+03  0.00000000000E+00 0. -1.
         -1    1    6    6    0  503 -0.67335580867E+02  0.19453813264E+03 -0.87365456140E+02  0.22363337950E+03  0.00000000000E+00 0.  1.
<mgrwt>
<rscale>  0 0.17022279E+04</rscale>
<asrwt>0</asrwt>
<pdfrwt beam="1">  1        2 0.21326713E+00 0.17022279E+04</pdfrwt>
<pdfrwt beam="2">  1       -1 0.80394211E-01 0.17022279E+04</pdfrwt>
<totfact> 0.24666543E+01</totfact>
</mgrwt>
</event>
<event>
12    7  0.1611233E-007  0.3127868E+04  0.7818608E-02  0.8208131E-01
          2   -1    0    0  501    0  0.00000000000E+00  0.00000000000E+00  0.18632119260E+04  0.18632119260E+04  0.00000000000E+00 0. -1.
         -1   -1    0    0    0  501 -0.00000000000E+00 -0.00000000000E+00 -0.13127273200E+04  0.13127273200E+04  0.00000000000E+00 0.  1.
         24    2    1    2    0    0  0.90092907592E+03  0.11110253955E+04  0.35466070115E+03  0.14753860750E+04  0.70208461869E+02 0.  0.
        254    2    1    2    0    0 -0.90092907592E+03 -0.11110253955E+04  0.19582390486E+03  0.17005531709E+04  0.89860083249E+03 0.  0.
         23    2    4    4    0    0 -0.98079630449E+03 -0.85018820758E+03  0.38248519963E+03  0.13562042321E+04  0.90628979593E+02 0.  0.
         23    2    4    4    0    0  0.79867228571E+02 -0.26083718795E+03 -0.18666129478E+03  0.34434893887E+03  0.96534656559E+02 0.  0.
          4    1    3    3  502    0  0.68021144799E+03  0.85713758262E+03  0.29936466660E+03  0.11344565453E+04  0.00000000000E+00 0. -1.
         -1    1    3    3    0  502  0.22071762794E+03  0.25388781291E+03  0.55296034548E+02  0.34092952976E+03  0.00000000000E+00 0.  1.
         13    1    5    5    0    0 -0.44252482723E+02 -0.66889743747E+02  0.25302378460E+02  0.84099526761E+02  0.00000000000E+00 0.  1.
        -13    1    5    5    0    0 -0.93654382177E+03 -0.78329846384E+03  0.35718282117E+03  0.12721047053E+04  0.00000000000E+00 0. -1.
          3    1    6    6  503    0  0.85365202133E+02 -0.12960700851E+03 -0.77014719971E+02  0.17325259445E+03  0.00000000000E+00 0. -1.
         -3    1    6    6    0  503 -0.54979735623E+01 -0.13123017944E+03 -0.10964657481E+03  0.17109634442E+03  0.00000000000E+00 0.  1.
<mgrwt>
<rscale>  0 0.31278678E+04</rscale>
<asrwt>0</asrwt>
<pdfrwt beam="1">  1        2 0.28664799E+00 0.31278678E+04</pdfrwt>
<pdfrwt beam="2">  1       -1 0.20195805E+00 0.31278678E+04</pdfrwt>
<totfact> 0.11192059E+00</totfact>
</mgrwt>
</event>
<event>
12    7  0.1611233E-007  0.1327432E+04  0.7818608E-02  0.9008090E-01
         -1   -1    0    0    0  501 -0.00000000000E+00  0.00000000000E+00  0.38688922431E+03  0.38688922431E+03  0.00000000000E+00 0.  1.
          2   -1    0    0  501    0  0.00000000000E+00 -0.00000000000E+00 -0.11386181456E+04  0.11386181456E+04  0.00000000000E+00 0. -1.
         24    2    1    2    0    0  0.22892796331E+03  0.27688858893E+03 -0.21437863781E+03  0.42605920442E+03  0.80578795333E+02 0.  0.
        254    2    1    2    0    0 -0.22892796331E+03 -0.27688858893E+03 -0.53735028347E+03  0.10994481655E+04  0.88936248986E+03 0.  0.
         23    2    4    4    0    0  0.31882200292E+03 -0.10847269043E+03 -0.73837866473E+02  0.35674901043E+03  0.91673506552E+02 0.  0.
         23    2    4    4    0    0 -0.54774996624E+03 -0.16841589850E+03 -0.46351241700E+03  0.74269915505E+03  0.91456731955E+02 0.  0.
          2    1    3    3  502    0  0.14973207955E+03  0.19935978104E+03 -0.18765580593E+03  0.31205563517E+03  0.00000000000E+00 0. -1.
         -1    1    3    3    0  502  0.79195883766E+02  0.77528807893E+02 -0.26722831877E+02  0.11400356925E+03  0.00000000000E+00 0.  1.
         13    1    5    5    0    0  0.58503745816E+02 -0.18372205091E+02  0.21903955621E+02  0.65115355073E+02  0.00000000000E+00 0.  1.
        -13    1    5    5    0    0  0.26031825711E+03 -0.90100485335E+02 -0.95741822094E+02  0.29163365536E+03  0.00000000000E+00 0. -1.
          2    1    6    6  503    0 -0.53563451757E+03 -0.15567102576E+03 -0.46330512123E+03  0.72511339805E+03  0.00000000000E+00 0. -1.
         -2    1    6    6    0  503 -0.12115448661E+02 -0.12744872747E+02 -0.20729576675E+00  0.17585756996E+02  0.00000000000E+00 0.  1.
<mgrwt>
<rscale>  0 0.13274322E+04</rscale>
<asrwt>0</asrwt>
<pdfrwt beam="1">  1        2 0.17517202E+00 0.13274322E+04</pdfrwt>
<pdfrwt beam="2">  1       -1 0.59521419E-01 0.13274322E+04</pdfrwt>
<totfact> 0.65853848E+01</totfact>
</mgrwt>
</event>
<event>
12    7  0.1611233E-007  0.1313670E+04  0.7818608E-02  0.9018795E-01
         -1   -1    0    0    0  501 -0.00000000000E+00  0.00000000000E+00  0.50602555212E+03  0.50602555212E+03  0.00000000000E+00 0.  1.
          2   -1    0    0  501    0  0.00000000000E+00 -0.00000000000E+00 -0.85258945577E+03  0.85258945577E+03  0.00000000000E+00 0. -1.
         24    2    1    2    0    0  0.89785148136E+02 -0.24972753464E+03 -0.31777951681E+03  0.41917332958E+03  0.65553371754E+02 0.  0.
        254    2    1    2    0    0 -0.89785148136E+02  0.24972753464E+03 -0.28784386847E+02  0.93944167830E+03  0.90072021828E+03 0.  0.
         23    2    4    4    0    0  0.24079201843E+03  0.44100144670E+03 -0.14535953407E+03  0.53144659250E+03  0.94037303286E+02 0.  0.
         23    2    4    4    0    0 -0.33057716656E+03 -0.19127391205E+03  0.11657514723E+03  0.40799508580E+03  0.83685438392E+02 0.  0.
          4    1    3    3  502    0  0.92679848940E+02 -0.22998680559E+03 -0.26582486874E+03  0.36351938874E+03  0.00000000000E+00 0. -1.
         -3    1    3    3    0  502 -0.28947008042E+01 -0.19740729049E+02 -0.51954648066E+02  0.55653940847E+02  0.00000000000E+00 0.  1.
         13    1    5    5    0    0  0.12156081541E+03  0.27521950923E+03 -0.12646838719E+03  0.32636951920E+03  0.00000000000E+00 0. -1.
        -13    1    5    5    0    0  0.11923120302E+03  0.16578193747E+03 -0.18891146881E+02  0.20507707331E+03  0.00000000000E+00 0.  1.
          4    1    6    6  503    0 -0.15062120741E+03 -0.59283047266E+02  0.14283271041E+02  0.16249689119E+03  0.00000000000E+00 0. -1.
         -4    1    6    6    0  503 -0.17995595915E+03 -0.13199086479E+03  0.10229187619E+03  0.24549819461E+03  0.00000000000E+00 0.  1.
<mgrwt>
<rscale>  0 0.13136697E+04</rscale>
<asrwt>0</asrwt>
<pdfrwt beam="1">  1        2 0.13116761E+00 0.13136697E+04</pdfrwt>
<pdfrwt beam="2">  1       -1 0.77850086E-01 0.13136697E+04</pdfrwt>
<totfact> 0.58414767E+01</totfact>
</mgrwt>
</event>
<event>
12    7  0.1611233E-007  0.1812569E+04  0.7818608E-02  0.8699644E-01
         -1   -1    0    0    0  501 -0.00000000000E+00  0.00000000000E+00  0.45249543895E+03  0.45249543895E+03  0.00000000000E+00 0.  1.
          2   -1    0    0  501    0  0.00000000000E+00 -0.00000000000E+00 -0.18151598505E+04  0.18151598505E+04  0.00000000000E+00 0. -1.
         24    2    1    2    0    0 -0.56528953508E+03  0.11148185825E+03 -0.71124495802E+02  0.58554992555E+03  0.76351543633E+02 0.  0.
        254    2    1    2    0    0  0.56528953508E+03 -0.11148185825E+03 -0.12915399158E+04  0.16821053639E+04  0.91072643429E+03 0.  0.
         23    2    4    4    0    0 -0.17786565973E+03  0.36448040866E+00 -0.19517932364E+02  0.20169970499E+03  0.93088643513E+02 0.  0.
         23    2    4    4    0    0  0.74315519481E+03 -0.11184633865E+03 -0.12720219834E+04  0.14804056589E+04  0.93657576784E+02 0.  0.
          2    1    3    3  502    0 -0.18722856169E+03  0.85455862169E+01 -0.56954683733E+00  0.18742434671E+03  0.00000000000E+00 0. -1.
         -1    1    3    3    0  502 -0.37806097340E+03  0.10293627203E+03 -0.70554948965E+02  0.39812557884E+03  0.00000000000E+00 0.  1.
         13    1    5    5    0    0 -0.79090650680E+02 -0.44131825099E+02  0.46963045815E+01  0.90691809378E+02  0.00000000000E+00 0. -1.
        -13    1    5    5    0    0 -0.98775009049E+02  0.44496305508E+02 -0.24214236945E+02  0.11100789561E+03  0.00000000000E+00 0.  1.
          3    1    6    6  503    0  0.31097974458E+02 -0.20283869598E+02 -0.91209041637E+02  0.98476437068E+02  0.00000000000E+00 0. -1.
         -3    1    6    6    0  503  0.71205722036E+03 -0.91562469057E+02 -0.11808129418E+04  0.13819292219E+04  0.00000000000E+00 0.  1.
<mgrwt>
<rscale>  0 0.18125690E+04</rscale>
<asrwt>0</asrwt>
<pdfrwt beam="1">  1        2 0.27925536E+00 0.18125690E+04</pdfrwt>
<pdfrwt beam="2">  1       -1 0.69614683E-01 0.18125690E+04</pdfrwt>
<totfact> 0.18969707E+01</totfact>
</mgrwt>
</event>
<event>
12    7  0.1611233E-007  0.1913462E+04  0.7818608E-02  0.8648184E-01
         -1   -1    0    0    0  501 -0.00000000000E+00  0.00000000000E+00  0.14438970304E+04  0.14438970304E+04  0.00000000000E+00 0.  1.
          2   -1    0    0  501    0  0.00000000000E+00 -0.00000000000E+00 -0.63393317150E+03  0.63393317150E+03  0.00000000000E+00 0. -1.
         24    2    1    2    0    0  0.60283083477E+03 -0.21617981642E+03  0.72891835381E+03  0.97363616773E+03  0.80664070150E+02 0.  0.
        254    2    1    2    0    0 -0.60283083477E+03  0.21617981642E+03  0.81045505074E+02  0.11041940342E+04  0.89584449700E+03 0.  0.
         23    2    4    4    0    0 -0.80452606511E+02  0.48431666513E+03 -0.26439584800E+02  0.50010698267E+03  0.91502395871E+02 0.  0.
         23    2    4    4    0    0 -0.52237822826E+03 -0.26813684871E+03  0.10748508987E+03  0.60408705149E+03  0.92691629815E+02 0.  0.
          4    1    3    3  502    0  0.13418340846E+03 -0.61603836342E+02  0.12286530205E+03  0.19208358131E+03  0.00000000000E+00 0. -1.
         -3    1    3    3    0  502  0.46864742631E+03 -0.15457598008E+03  0.60605305175E+03  0.78155258642E+03  0.00000000000E+00 0.  1.
         13    1    5    5    0    0 -0.82850903311E+02  0.47820175716E+03 -0.37999578956E+02  0.48681121673E+03  0.00000000000E+00 0. -1.
        -13    1    5    5    0    0  0.23982968005E+01  0.61149079701E+01  0.11559994156E+02  0.13295765939E+02  0.00000000000E+00 0.  1.
          4    1    6    6  503    0 -0.78076189314E+02 -0.69020856075E+02  0.43875756079E+02  0.11307011932E+03  0.00000000000E+00 0.  1.
         -4    1    6    6    0  503 -0.44430203895E+03 -0.19911599263E+03  0.63609333795E+02  0.49101693217E+03  0.00000000000E+00 0. -1.
<mgrwt>
<rscale>  0 0.19134620E+04</rscale>
<asrwt>0</asrwt>
<pdfrwt beam="1">  1        2 0.97528180E-01 0.19134620E+04</pdfrwt>
<pdfrwt beam="2">  1       -1 0.22213801E+00 0.19134620E+04</pdfrwt>
<totfact> 0.52747872E+00</totfact>
</mgrwt>
</event>
<event>
12    7  0.1611233E-007  0.1345284E+04  0.7818608E-02  0.8994406E-01
          2   -1    0    0  501    0  0.00000000000E+00  0.00000000000E+00  0.13650854680E+04  0.13650854680E+04  0.00000000000E+00 0. -1.
         -1   -1    0    0    0  501 -0.00000000000E+00 -0.00000000000E+00 -0.33144220450E+03  0.33144220450E+03  0.00000000000E+00 0.  1.
         24    2    1    2    0    0 -0.20529664940E+03 -0.76833315228E+02 -0.79867202568E+02  0.24689932542E+03  0.80811102342E+02 0.  0.
        254    2    1    2    0    0  0.20529664940E+03  0.76833315228E+02  0.11135104660E+04  0.14496283470E+04  0.90192389590E+03 0.  0.
         23    2    4    4    0    0  0.38493517805E+03 -0.38305871140E+02  0.99215042341E+02  0.40914072148E+03  0.88938598375E+02 0.  0.
         23    2    4    4    0    0 -0.17963852865E+03  0.11513918637E+03  0.10142954237E+04  0.10404876256E+04  0.91061842835E+02 0.  0.
          4    1    3    3  502    0 -0.10415514762E+03 -0.55929478764E+02 -0.31841394296E+01  0.11826470359E+03  0.00000000000E+00 0. -1.
         -3    1    3    3    0  502 -0.10114150178E+03 -0.20903836464E+02 -0.76683063138E+02  0.12863462183E+03  0.00000000000E+00 0.  1.
         13    1    5    5    0    0  0.29034656450E+03 -0.67202552933E+02  0.73878226340E+02  0.30704283571E+03  0.00000000000E+00 0.  1.
        -13    1    5    5    0    0  0.94588613551E+02  0.28896681793E+02  0.25336816001E+02  0.10209788576E+03  0.00000000000E+00 0. -1.
          2    1    6    6  503    0 -0.92492234908E+01 -0.12603938079E+02  0.12876198964E+03  0.12970758407E+03  0.00000000000E+00 0. -1.
         -2    1    6    6    0  503 -0.17038930516E+03  0.12774312445E+03  0.88553343404E+03  0.91078004148E+03  0.00000000000E+00 0.  1.
<mgrwt>
<rscale>  0 0.13452835E+04</rscale>
<asrwt>0</asrwt>
<pdfrwt beam="1">  1        2 0.21001315E+00 0.13452835E+04</pdfrwt>
<pdfrwt beam="2">  1       -1 0.50991109E-01 0.13452835E+04</pdfrwt>
<totfact> 0.65236970E+01</totfact>
</mgrwt>
</event>
<event>
12    7  0.1611233E-007  0.1475750E+04  0.7818608E-02  0.8900741E-01
         -1   -1    0    0    0  501 -0.00000000000E+00  0.00000000000E+00  0.24663792250E+03  0.24663792250E+03  0.00000000000E+00 0.  1.
          2   -1    0    0  501    0  0.00000000000E+00 -0.00000000000E+00 -0.22075265972E+04  0.22075265972E+04  0.00000000000E+00 0. -1.
         24    2    1    2    0    0  0.23003016030E+03 -0.30464854315E+03 -0.18828523687E+03  0.43293846833E+03  0.79118755335E+02 0.  0.
        254    2    1    2    0    0 -0.23003016030E+03  0.30464854315E+03 -0.17726034378E+04  0.20212260514E+04  0.89303258251E+03 0.  0.
         23    2    4    4    0    0 -0.70640640740E+02  0.28837696681E+03 -0.82228815618E+02  0.32075953282E+03  0.89295714715E+02 0.  0.
         23    2    4    4    0    0 -0.15938951956E+03  0.16271576339E+02 -0.16903746222E+04  0.17004665186E+04  0.92467476158E+02 0.  0.
          4    1    3    3  502    0  0.74754898073E+02 -0.13777494767E+03 -0.11169649219E+03  0.19247425115E+03  0.00000000000E+00 0. -1.
         -1    1    3    3    0  502  0.15527526223E+03 -0.16687359548E+03 -0.76588744677E+02  0.24046421717E+03  0.00000000000E+00 0.  1.
         13    1    5    5    0    0 -0.51953057613E+02  0.25700402759E+03 -0.40505241668E+02  0.26531276824E+03  0.00000000000E+00 0.  1.
        -13    1    5    5    0    0 -0.18687583127E+02  0.31372939221E+02 -0.41723573950E+02  0.55446764574E+02  0.00000000000E+00 0. -1.
          4    1    6    6  503    0 -0.46587868550E+02  0.92125394118E+01 -0.19015281321E+03  0.19599334874E+03  0.00000000000E+00 0. -1.
         -4    1    6    6    0  503 -0.11280165101E+03  0.70590369274E+01 -0.15002218090E+04  0.15044731698E+04  0.00000000000E+00 0.  1.
<mgrwt>
<rscale>  0 0.14757503E+04</rscale>
<asrwt>0</asrwt>
<pdfrwt beam="1">  1        2 0.33961948E+00 0.14757503E+04</pdfrwt>
<pdfrwt beam="2">  1       -1 0.37944295E-01 0.14757503E+04</pdfrwt>
<totfact> 0.37855318E+01</totfact>
</mgrwt>
</event>
<event>
12    7  0.1611233E-007  0.2423570E+04  0.7818608E-02  0.8430732E-01
          2   -1    0    0  501    0  0.00000000000E+00  0.00000000000E+00  0.75244302508E+03  0.75244302508E+03  0.00000000000E+00 0. -1.
         -1   -1    0    0    0  501 -0.00000000000E+00 -0.00000000000E+00 -0.19515406754E+04  0.19515406754E+04  0.00000000000E+00 0.  1.
         24    2    1    2    0    0 -0.32258421246E+03  0.39305064158E+02 -0.16197187754E+04  0.16539761840E+04  0.80887845664E+02 0.  0.
        254    2    1    2    0    0  0.32258421246E+03 -0.39305064158E+02  0.42062112505E+03  0.10500075165E+04  0.90553199377E+03 0.  0.
         23    2    4    4    0    0 -0.13165454811E+03  0.11194887455E+03 -0.18735087759E+03  0.27080885143E+03  0.91496514302E+02 0.  0.
         23    2    4    4    0    0  0.45423876057E+03 -0.15125393871E+03  0.60797200265E+03  0.77919866510E+03  0.91159191004E+02 0.  0.
          2    1    3    3  502    0  0.98651956545E+00 -0.64462725969E+01 -0.62402519653E+02  0.62742347026E+02  0.00000000000E+00 0. -1.
         -1    1    3    3    0  502 -0.32357073203E+03  0.45751336755E+02 -0.15573162557E+04  0.15912338369E+04  0.00000000000E+00 0.  1.
         13    1    5    5    0    0  0.33449842587E+01  0.31723349775E+02 -0.89373722241E+01  0.33127578585E+02  0.00000000000E+00 0.  1.
        -13    1    5    5    0    0 -0.13499953237E+03  0.80225524773E+02 -0.17841350537E+03  0.23768127285E+03  0.00000000000E+00 0. -1.
          4    1    6    6  503    0  0.34953611469E+03 -0.12706242373E+03  0.52523108668E+03  0.64357443191E+03  0.00000000000E+00 0. -1.
         -4    1    6    6    0  503  0.10470264588E+03 -0.24191514979E+02  0.82740915967E+02  0.13562423318E+03  0.00000000000E+00 0.  1.
<mgrwt>
<rscale>  0 0.24235702E+04</rscale>
<asrwt>0</asrwt>
<pdfrwt beam="1">  1        2 0.11576046E+00 0.24235702E+04</pdfrwt>
<pdfrwt beam="2">  1       -1 0.30023703E+00 0.24235702E+04</pdfrwt>
<totfact> 0.12583481E+00</totfact>
</mgrwt>
</event>
<event>
12    7  0.1611233E-007  0.1671904E+04  0.7818608E-02  0.8777552E-01
          2   -1    0    0  501    0  0.00000000000E+00  0.00000000000E+00  0.82187628726E+03  0.82187628726E+03  0.00000000000E+00 0. -1.
         -1   -1    0    0    0  501 -0.00000000000E+00 -0.00000000000E+00 -0.85026928232E+03  0.85026928232E+03  0.00000000000E+00 0.  1.
         24    2    1    2    0    0 -0.21803413923E+03 -0.12156099897E+03  0.52535222750E+03  0.58713710012E+03  0.80118968170E+02 0.  0.
        254    2    1    2    0    0  0.21803413923E+03  0.12156099897E+03 -0.55374522255E+03  0.10850084695E+04  0.89905152520E+03 0.  0.
         23    2    4    4    0    0  0.82028557560E+02  0.46844446857E+03 -0.50223327778E+03  0.69749170744E+03  0.89930596845E+02 0.  0.
         23    2    4    4    0    0  0.13600558167E+03 -0.34688346960E+03 -0.51511944770E+02  0.38751676202E+03  0.93220709422E+02 0.  0.
          2    1    3    3  502    0 -0.16437806735E+03 -0.11331351160E+03  0.46450304060E+03  0.50559190625E+03  0.00000000000E+00 0. -1.
         -1    1    3    3    0  502 -0.53656071883E+02 -0.82474873775E+01  0.60849186895E+02  0.81545193872E+02  0.00000000000E+00 0.  1.
         13    1    5    5    0    0  0.56180811169E+02  0.13858897645E+03 -0.19705014005E+03  0.24737005808E+03  0.00000000000E+00 0. -1.
        -13    1    5    5    0    0  0.25847746391E+02  0.32985549212E+03 -0.30518313773E+03  0.45012164937E+03  0.00000000000E+00 0.  1.
          3    1    6    6  503    0  0.14573753181E+03 -0.33730364401E+03 -0.58674268093E+02  0.37209655491E+03  0.00000000000E+00 0. -1.
         -3    1    6    6    0  503 -0.97319501406E+01 -0.95798255893E+01  0.71623233229E+01  0.15420207108E+02  0.00000000000E+00 0.  1.
<mgrwt>
<rscale>  0 0.16719045E+04</rscale>
<asrwt>0</asrwt>
<pdfrwt beam="1">  1        2 0.12644251E+00 0.16719045E+04</pdfrwt>
<pdfrwt beam="2">  1       -1 0.13081066E+00 0.16719045E+04</pdfrwt>
<totfact> 0.18058205E+01</totfact>
</mgrwt>
</event>
<event>
12    7  0.1611233E-007  0.1576997E+04  0.7818608E-02  0.8834806E-01
          2   -1    0    0  501    0  0.00000000000E+00  0.00000000000E+00  0.14919063112E+04  0.14919063112E+04  0.00000000000E+00 0. -1.
         -1   -1    0    0    0  501 -0.00000000000E+00 -0.00000000000E+00 -0.41673521514E+03  0.41673521514E+03  0.00000000000E+00 0.  1.
         24    2    1    2    0    0 -0.12269006169E+03 -0.42069596721E+03  0.15267957552E+02  0.44682157750E+03  0.85897983264E+02 0.  0.
        254    2    1    2    0    0  0.12269006169E+03  0.42069596721E+03  0.10599031385E+04  0.14618199489E+04  0.90635807038E+03 0.  0.
         23    2    4    4    0    0  0.37051103707E+03 -0.12256387997E+03  0.45909102168E+03  0.60956643881E+03  0.92229842616E+02 0.  0.
         23    2    4    4    0    0 -0.24782097538E+03  0.54325984718E+03  0.60081211686E+03  0.85225351006E+03  0.93884760436E+02 0.  0.
          4    1    3    3  502    0  0.11421435928E+01 -0.35311558168E+02  0.22643663317E+02  0.41963628545E+02  0.00000000000E+00 0. -1.
         -3    1    3    3    0  502 -0.12383220528E+03 -0.38538440905E+03 -0.73757057652E+01  0.40485794896E+03  0.00000000000E+00 0.  1.
         13    1    5    5    0    0  0.11694915054E+02 -0.27344927193E+02  0.32096480818E+02  0.43757286962E+02  0.00000000000E+00 0. -1.
        -13    1    5    5    0    0  0.35881612201E+03 -0.95218952774E+02  0.42699454087E+03  0.56580915185E+03  0.00000000000E+00 0.  1.
          2    1    6    6  503    0 -0.12246454302E+03  0.34792109521E+03  0.41259821009E+03  0.55342925091E+03  0.00000000000E+00 0. -1.
         -2    1    6    6    0  503 -0.12535643236E+03  0.19533875197E+03  0.18821390676E+03  0.29882425914E+03  0.00000000000E+00 0.  1.
<mgrwt>
<rscale>  0 0.15769970E+04</rscale>
<asrwt>0</asrwt>
<pdfrwt beam="1">  1        2 0.22952404E+00 0.15769970E+04</pdfrwt>
<pdfrwt beam="2">  1       -1 0.64113111E-01 0.15769970E+04</pdfrwt>
<totfact> 0.34642938E+01</totfact>
</mgrwt>
</event>
<event>
12    7  0.1611233E-007  0.2557054E+04  0.7818608E-02  0.8382937E-01
          2   -1    0    0  501    0  0.00000000000E+00  0.00000000000E+00  0.27341009677E+04  0.27341009677E+04  0.00000000000E+00 0. -1.
         -1   -1    0    0    0  501 -0.00000000000E+00 -0.00000000000E+00 -0.59786786563E+03  0.59786786563E+03  0.00000000000E+00 0.  1.
         24    2    1    2    0    0 -0.76096653665E+01  0.82838003795E+03 -0.45648692263E+02  0.83335552214E+03  0.78270229902E+02 0.  0.
        254    2    1    2    0    0  0.76096653665E+01 -0.82838003795E+03  0.21818817943E+04  0.24986133112E+04  0.89229418924E+03 0.  0.
         23    2    4    4    0    0 -0.40071460958E+03 -0.47424563332E+03  0.14804701597E+04  0.16084261528E+04  0.98801195593E+02 0.  0.
         23    2    4    4    0    0  0.40832427495E+03 -0.35413440463E+03  0.70141163469E+03  0.89018715843E+03  0.91186653073E+02 0.  0.
          4    1    3    3  502    0 -0.12445426701E+02  0.21314002819E+02  0.26964146560E+01  0.24828330873E+02  0.00000000000E+00 0. -1.
         -3    1    3    3    0  502  0.48357613341E+01  0.80706603513E+03 -0.48345106919E+02  0.80852719127E+03  0.00000000000E+00 0.  1.
         13    1    5    5    0    0 -0.40088260890E+03 -0.44805368415E+03  0.13952072823E+04  0.15192308351E+04  0.00000000000E+00 0. -1.
        -13    1    5    5    0    0  0.16799931250E+00 -0.26191949171E+02  0.85262877393E+02  0.89195317627E+02  0.00000000000E+00 0.  1.
          4    1    6    6  503    0  0.30714512064E+03 -0.30476572383E+03  0.51753822221E+03  0.67458586036E+03  0.00000000000E+00 0. -1.
         -4    1    6    6    0  503  0.10117915431E+03 -0.49368680801E+02  0.18387341248E+03  0.21560129806E+03  0.00000000000E+00 0.  1.
<mgrwt>
<rscale>  0 0.25570539E+04</rscale>
<asrwt>0</asrwt>
<pdfrwt beam="1">  1        2 0.42063091E+00 0.25570539E+04</pdfrwt>
<pdfrwt beam="2">  1       -1 0.91979673E-01 0.25570539E+04</pdfrwt>
<totfact> 0.29435038E+00</totfact>
</mgrwt>
</event>
<event>
12    7  0.1611233E-007  0.3744601E+04  0.7818608E-02  0.8058149E-01
         -1   -1    0    0    0  501 -0.00000000000E+00  0.00000000000E+00  0.10511066898E+04  0.10511066898E+04  0.00000000000E+00 0.  1.
          2   -1    0    0  501    0  0.00000000000E+00 -0.00000000000E+00 -0.33350653547E+04  0.33350653547E+04  0.00000000000E+00 0. -1.
         24    2    1    2    0    0  0.15033909703E+04  0.28215276288E+03 -0.21149517210E+04  0.26112020169E+04  0.74569429084E+02 0.  0.
        254    2    1    2    0    0 -0.15033909703E+04 -0.28215276288E+03 -0.16900694388E+03  0.17749700276E+04  0.88439847383E+03 0.  0.
         23    2    4    4    0    0 -0.12333018558E+03  0.22247527951E+03  0.80920153833E+02  0.28185526725E+03  0.90491633387E+02 0.  0.
         23    2    4    4    0    0 -0.13800607848E+04 -0.50462804239E+03 -0.24992709771E+03  0.14931147604E+04  0.87811745302E+02 0.  0.
          4    1    3    3  502    0  0.12598889962E+04  0.21836609611E+03 -0.18022053645E+04  0.22097393988E+04  0.00000000000E+00 0. -1.
         -3    1    3    3    0  502  0.24350197417E+03  0.63786666772E+02 -0.31274635648E+03  0.40146261815E+03  0.00000000000E+00 0.  1.
         13    1    5    5    0    0 -0.28112885339E+01 -0.75807311801E+01 -0.34381335687E+01  0.87858745087E+01  0.00000000000E+00 0.  1.
        -13    1    5    5    0    0 -0.12051889704E+03  0.23005601069E+03  0.84358287402E+02  0.27306939274E+03  0.00000000000E+00 0. -1.
          2    1    6    6  503    0 -0.26064040702E+03 -0.10778085930E+03 -0.81235694854E+02  0.29351213522E+03  0.00000000000E+00 0.  1.
         -2    1    6    6    0  503 -0.11194203778E+04 -0.39684718309E+03 -0.16869140286E+03  0.11996026251E+04  0.00000000000E+00 0. -1.
<mgrwt>
<rscale>  0 0.37446012E+04</rscale>
<asrwt>0</asrwt>
<pdfrwt beam="1">  1        2 0.51308698E+00 0.37446012E+04</pdfrwt>
<pdfrwt beam="2">  1       -1 0.16170872E+00 0.37446012E+04</pdfrwt>
<totfact> 0.27329896E-01</totfact>
</mgrwt>
</event>
<event>
12    7  0.1611233E-007  0.1245149E+04  0.7818608E-02  0.9074230E-01
          4   -1    0    0  501    0  0.00000000000E+00  0.00000000000E+00  0.17959978003E+04  0.17959978003E+04  0.00000000000E+00 0. -1.
         -3   -1    0    0    0  501 -0.00000000000E+00 -0.00000000000E+00 -0.21581275624E+03  0.21581275624E+03  0.00000000000E+00 0.  1.
         24    2    1    2    0    0  0.41673629411E+02 -0.11705172670E+03 -0.47724262060E+02  0.15411185925E+03  0.77685660601E+02 0.  0.
        254    2    1    2    0    0 -0.41673629411E+02  0.11705172670E+03  0.16279093061E+04  0.18576986973E+04  0.88629450117E+03 0.  0.
         23    2    4    4    0    0 -0.38492178587E+03 -0.16942096418E+03  0.91973286928E+03  0.10152881886E+04  0.89628737904E+02 0.  0.
         23    2    4    4    0    0  0.34324815646E+03  0.28647269087E+03  0.70817643684E+03  0.84241050872E+03  0.90860882550E+02 0.  0.
          4    1    3    3  502    0 -0.10379534400E+02 -0.34806533795E+02  0.13922857211E+02  0.38898270939E+02  0.00000000000E+00 0. -1.
         -3    1    3    3    0  502  0.52053163811E+02 -0.82245192901E+02 -0.61647119271E+02  0.11521358832E+03  0.00000000000E+00 0.  1.
         13    1    5    5    0    0 -0.28680499560E+03 -0.91103362703E+02  0.58658990008E+03  0.65927584445E+03  0.00000000000E+00 0. -1.
        -13    1    5    5    0    0 -0.98116790267E+02 -0.78317601474E+02  0.33314296920E+03  0.35601234411E+03  0.00000000000E+00 0.  1.
          4    1    6    6  503    0  0.28938919693E+03  0.21898151588E+03  0.50709735165E+03  0.62357576576E+03  0.00000000000E+00 0. -1.
         -4    1    6    6    0  503  0.53858959524E+02  0.67491174988E+02  0.20107908519E+03  0.21883474295E+03  0.00000000000E+00 0.  1.
<mgrwt>
<rscale>  0 0.12451494E+04</rscale>
<asrwt>0</asrwt>
<pdfrwt beam="1">  1        4 0.27630734E+00 0.12451494E+04</pdfrwt>
<pdfrwt beam="2">  1       -3 0.33201964E-01 0.12451494E+04</pdfrwt>
<totfact> 0.87829571E-01</totfact>
</mgrwt>
</event>
<event>
12    7  0.1611233E-007  0.1812710E+04  0.7818608E-02  0.8699569E-01
         -1   -1    0    0    0  501 -0.00000000000E+00  0.00000000000E+00  0.19228010338E+04  0.19228010338E+04  0.00000000000E+00 0.  1.
          2   -1    0    0  501    0  0.00000000000E+00 -0.00000000000E+00 -0.42723057739E+03  0.42723057739E+03  0.00000000000E+00 0. -1.
         24    2    1    2    0    0 -0.65687500238E+03  0.17872438287E+03  0.52124973023E+03  0.86111483940E+03  0.79939424461E+02 0.  0.
        254    2    1    2    0    0  0.65687500238E+03 -0.17872438287E+03  0.97432072614E+03  0.14889167717E+04  0.89674137966E+03 0.  0.
         23    2    4    4    0    0  0.51081366570E+03  0.27887828833E+03  0.74568300990E+03  0.94931279267E+03  0.80298980711E+02 0.  0.
         23    2    4    4    0    0  0.14606133668E+03 -0.45760267120E+03  0.22863771625E+03  0.53960397908E+03  0.90350042509E+02 0.  0.
          4    1    3    3  502    0 -0.26091248686E+03  0.67099041800E+02  0.25589703583E+03  0.37156547224E+03  0.00000000000E+00 0. -1.
         -3    1    3    3    0  502 -0.39596251552E+03  0.11162534107E+03  0.26535269440E+03  0.48954936717E+03  0.00000000000E+00 0.  1.
         13    1    5    5    0    0  0.51373871566E+03  0.27606250194E+03  0.73805605250E+03  0.94067247731E+03  0.00000000000E+00 0.  1.
        -13    1    5    5    0    0 -0.29250499583E+01  0.28157863849E+01  0.76269574021E+01  0.86403153552E+01  0.00000000000E+00 0. -1.
          3    1    6    6  503    0  0.21314323220E+02 -0.91483818351E+02  0.85992342454E+02  0.12735098097E+03  0.00000000000E+00 0. -1.
         -3    1    6    6    0  503  0.12474701346E+03 -0.36611885285E+03  0.14264537379E+03  0.41225299810E+03  0.00000000000E+00 0.  1.
<mgrwt>
<rscale>  0 0.18127100E+04</rscale>
<asrwt>0</asrwt>
<pdfrwt beam="1">  1        2 0.65727782E-01 0.18127100E+04</pdfrwt>
<pdfrwt beam="2">  1       -1 0.29581554E+00 0.18127100E+04</pdfrwt>
<totfact> 0.27997414E+00</totfact>
</mgrwt>
</event>
<event>
12    7  0.1611233E-007  0.1379747E+04  0.7818608E-02  0.8968611E-01
          2   -1    0    0  501    0  0.00000000000E+00  0.00000000000E+00  0.21172695096E+04  0.21172695096E+04  0.00000000000E+00 0. -1.
         -1   -1    0    0    0  501 -0.00000000000E+00 -0.00000000000E+00 -0.22478253180E+03  0.22478253180E+03  0.00000000000E+00 0.  1.
         24    2    1    2    0    0  0.28628861955E+03  0.21282645101E+03  0.81987485692E+03  0.89791249055E+03  0.82436567956E+02 0.  0.
        254    2    1    2    0    0 -0.28628861955E+03 -0.21282645101E+03  0.10726121208E+04  0.14441395508E+04  0.89876916310E+03 0.  0.
         23    2    4    4    0    0 -0.76726424446E+01 -0.41107373443E+02  0.10992026751E+04  0.11038527486E+04  0.92172035836E+02 0.  0.
         23    2    4    4    0    0 -0.27861597710E+03 -0.17171907757E+03 -0.26590554248E+02  0.34028680217E+03  0.89295833365E+02 0.  0.
          4    1    3    3  502    0  0.24860381418E+03  0.17875734685E+03  0.76015211666E+03  0.81950551306E+03  0.00000000000E+00 0. -1.
         -3    1    3    3    0  502  0.37684805373E+02  0.34069104161E+02  0.59722740268E+02  0.78406977492E+02  0.00000000000E+00 0.  1.
         13    1    5    5    0    0 -0.13288130947E+02  0.24048979487E+02  0.56407063535E+03  0.56473941734E+03  0.00000000000E+00 0.  1.
        -13    1    5    5    0    0  0.56154885020E+01 -0.65156352930E+02  0.53513203974E+03  0.53911333131E+03  0.00000000000E+00 0. -1.
          4    1    6    6  503    0 -0.66419999924E+02 -0.31337172030E+00 -0.75045330525E+01  0.66843343782E+02  0.00000000000E+00 0. -1.
         -4    1    6    6    0  503 -0.21219597718E+03 -0.17140570585E+03 -0.19086021195E+02  0.27344345839E+03  0.00000000000E+00 0.  1.
<mgrwt>
<rscale>  0 0.13797466E+04</rscale>
<asrwt>0</asrwt>
<pdfrwt beam="1">  1        2 0.32573376E+00 0.13797466E+04</pdfrwt>
<pdfrwt beam="2">  1       -1 0.34581929E-01 0.13797466E+04</pdfrwt>
<totfact> 0.50648421E+01</totfact>
</mgrwt>
</event>
<event>
12    7  0.1611233E-007  0.1960761E+04  0.7818608E-02  0.8625189E-01
          2   -1    0    0  501    0  0.00000000000E+00  0.00000000000E+00  0.20016254639E+04  0.20016254639E+04  0.00000000000E+00 0. -1.
         -1   -1    0    0    0  501 -0.00000000000E+00 -0.00000000000E+00 -0.48018283616E+03  0.48018283616E+03  0.00000000000E+00 0.  1.
         24    2    1    2    0    0 -0.38748864682E+03 -0.21848446766E+03 -0.19201307323E+03  0.49192338711E+03  0.85068704378E+02 0.  0.
        254    2    1    2    0    0  0.38748864682E+03  0.21848446766E+03  0.17134557009E+04  0.19898849129E+04  0.90875112850E+03 0.  0.
         23    2    4    4    0    0  0.45221967835E+03 -0.13346280761E+03  0.14731727452E+04  0.15494760397E+04  0.91231036590E+02 0.  0.
         23    2    4    4    0    0 -0.64731031521E+02  0.35194727528E+03  0.24028295573E+03  0.44040887316E+03  0.90371930007E+02 0.  0.
          2    1    3    3  502    0 -0.22854781823E+03 -0.13252179416E+03 -0.15866723408E+03  0.30817433754E+03  0.00000000000E+00 0. -1.
         -1    1    3    3    0  502 -0.15894082859E+03 -0.85962673505E+02 -0.33345839151E+02  0.18374904957E+03  0.00000000000E+00 0.  1.
         13    1    5    5    0    0  0.97661783660E+02 -0.30896559236E+02  0.45724619761E+03  0.46857924259E+03  0.00000000000E+00 0. -1.
        -13    1    5    5    0    0  0.35455789469E+03 -0.10256624838E+03  0.10159265476E+04  0.10808967971E+04  0.00000000000E+00 0.  1.
          3    1    6    6  503    0  0.77555830473E-01  0.74073003564E+02  0.94261523593E+02  0.11988348803E+03  0.00000000000E+00 0. -1.
         -3    1    6    6    0  503 -0.64808587351E+02  0.27787427171E+03  0.14602143214E+03  0.32052538514E+03  0.00000000000E+00 0.  1.
<mgrwt>
<rscale>  0 0.19607613E+04</rscale>
<asrwt>0</asrwt>
<pdfrwt beam="1">  1        2 0.30794238E+00 0.19607613E+04</pdfrwt>
<pdfrwt beam="2">  1       -1 0.73874283E-01 0.19607613E+04</pdfrwt>
<totfact> 0.13055873E+01</totfact>
</mgrwt>
</event>
<event>
12    7  0.1611233E-007  0.2074258E+04  0.7818608E-02  0.8572669E-01
          2   -1    0    0  501    0  0.00000000000E+00  0.00000000000E+00  0.14939239707E+04  0.14939239707E+04  0.00000000000E+00 0. -1.
         -1   -1    0    0    0  501 -0.00000000000E+00 -0.00000000000E+00 -0.72000738215E+03  0.72000738215E+03  0.00000000000E+00 0.  1.
         24    2    1    2    0    0 -0.45114155146E+03 -0.67247390625E+03  0.64484799549E+02  0.81613398140E+03  0.78527270390E+02 0.  0.
        254    2    1    2    0    0  0.45114155146E+03  0.67247390625E+03  0.70943178903E+03  0.13977973715E+04  0.89151229626E+03 0.  0.
         23    2    4    4    0    0  0.36944494575E+03  0.14652572654E+03 -0.10452729242E+03  0.42048105172E+03  0.88988783127E+02 0.  0.
         23    2    4    4    0    0  0.81696605712E+02  0.52594817971E+03  0.81395908145E+03  0.97731631975E+03  0.96550398523E+02 0.  0.
          4    1    3    3  502    0 -0.36259185460E+03 -0.50211902710E+03  0.74861282865E+02  0.62385942493E+03  0.00000000000E+00 0. -1.
         -1    1    3    3    0  502 -0.88549696862E+02 -0.17035487914E+03 -0.10376483315E+02  0.19227455648E+03  0.00000000000E+00 0.  1.
         13    1    5    5    0    0  0.35097557834E+03  0.15438728022E+03 -0.11136388721E+03  0.39927584984E+03  0.00000000000E+00 0.  1.
        -13    1    5    5    0    0  0.18469367406E+02 -0.78615536867E+01  0.68365947925E+01  0.21205201888E+02  0.00000000000E+00 0. -1.
          1    1    6    6  503    0  0.88490447723E+02  0.42325058042E+03  0.59658382175E+03  0.73680653467E+03  0.00000000000E+00 0. -1.
         -1    1    6    6    0  503 -0.67938420110E+01  0.10269759929E+03  0.21737525970E+03  0.24050978508E+03  0.00000000000E+00 0.  1.
<mgrwt>
<rscale>  0 0.20742577E+04</rscale>
<asrwt>0</asrwt>
<pdfrwt beam="1">  1        2 0.22983446E+00 0.20742577E+04</pdfrwt>
<pdfrwt beam="2">  1       -1 0.11077037E+00 0.20742577E+04</pdfrwt>
<totfact> 0.10105582E+01</totfact>
</mgrwt>
</event>
<event>
12    7  0.1611233E-007  0.1390835E+04  0.7818608E-02  0.8960479E-01
         -1   -1    0    0    0  501 -0.00000000000E+00  0.00000000000E+00  0.34912650348E+03  0.34912650348E+03  0.00000000000E+00 0.  1.
          2   -1    0    0  501    0  0.00000000000E+00 -0.00000000000E+00 -0.13851872073E+04  0.13851872073E+04  0.00000000000E+00 0. -1.
         24    2    1    2    0    0 -0.35967268617E+02  0.32113530607E+03 -0.59953659548E+03  0.68591252892E+03  0.81303990023E+02 0.  0.
        254    2    1    2    0    0  0.35967268617E+02 -0.32113530607E+03 -0.43652410837E+03  0.10484011819E+04  0.89675538013E+03 0.  0.
         23    2    4    4    0    0 -0.10419371783E+03  0.19463020952E+03 -0.44585816412E+03  0.50627027410E+03  0.93716800160E+02 0.  0.
         23    2    4    4    0    0  0.14016098645E+03 -0.51576551558E+03  0.93340557486E+01  0.54213090779E+03  0.90330655912E+02 0.  0.
          2    1    3    3  502    0 -0.50333835096E+02  0.22878322784E+03 -0.48056629359E+03  0.53462063450E+03  0.00000000000E+00 0. -1.
         -1    1    3    3    0  502  0.14366566479E+02  0.92352078230E+02 -0.11897030188E+03  0.15129189442E+03  0.00000000000E+00 0.  1.
         13    1    5    5    0    0 -0.97695553199E+02  0.90206683714E+02 -0.28327223841E+03  0.31292942967E+03  0.00000000000E+00 0. -1.
        -13    1    5    5    0    0 -0.64981646333E+01  0.10442352580E+03 -0.16258592571E+03  0.19334084443E+03  0.00000000000E+00 0.  1.
          3    1    6    6  503    0  0.68047128965E+02 -0.39704927608E+03 -0.10649166670E+01  0.40283951326E+03  0.00000000000E+00 0. -1.
         -3    1    6    6    0  503  0.72113857485E+02 -0.11871623951E+03  0.10398972416E+02  0.13929139454E+03  0.00000000000E+00 0.  1.
<mgrwt>
<rscale>  0 0.13908351E+04</rscale>
<asrwt>0</asrwt>
<pdfrwt beam="1">  1        2 0.21310572E+00 0.13908351E+04</pdfrwt>
<pdfrwt beam="2">  1       -1 0.53711770E-01 0.13908351E+04</pdfrwt>
<totfact> 0.57293684E+01</totfact>
</mgrwt>
</event>
<event>
12    7  0.1611233E-007  0.3110412E+04  0.7818608E-02  0.8212886E-01
         -1   -1    0    0    0  501 -0.00000000000E+00  0.00000000000E+00  0.19830798299E+04  0.19830798299E+04  0.00000000000E+00 0.  1.
          2   -1    0    0  501    0  0.00000000000E+00 -0.00000000000E+00 -0.12196513850E+04  0.12196513850E+04  0.00000000000E+00 0. -1.
         24    2    1    2    0    0 -0.93517058499E+03  0.15150733127E+02 -0.75611885920E+03  0.12054273911E+04  0.81030229962E+02 0.  0.
        254    2    1    2    0    0  0.93517058499E+03 -0.15150733127E+02  0.15195473041E+04  0.19973038238E+04  0.89745472737E+03 0.  0.
         23    2    4    4    0    0  0.51401462773E+03 -0.42300274876E+03  0.10221452579E+04  0.12231664536E+04  0.90624952423E+02 0.  0.
         23    2    4    4    0    0  0.42115595725E+03  0.40785201563E+03  0.49740204619E+03  0.77413737026E+03  0.90356325089E+02 0.  0.
          4    1    3    3  502    0 -0.73525745907E+03  0.76178630183E+01 -0.63519409078E+03  0.97166511511E+03  0.00000000000E+00 0. -1.
         -3    1    3    3    0  502 -0.19991312592E+03  0.75328701089E+01 -0.12092476841E+03  0.23376227596E+03  0.00000000000E+00 0.  1.
         13    1    5    5    0    0  0.71577324597E+02 -0.53696725054E+02  0.20042547117E+03  0.21949264491E+03  0.00000000000E+00 0. -1.
        -13    1    5    5    0    0  0.44243730314E+03 -0.36930602370E+03  0.82171978669E+03  0.10036738087E+04  0.00000000000E+00 0.  1.
          3    1    6    6  503    0  0.10451374265E+03  0.66705322604E+02  0.70875628858E+02  0.14281483548E+03  0.00000000000E+00 0. -1.
         -3    1    6    6    0  503  0.31664221460E+03  0.34114669303E+03  0.42652641734E+03  0.63132253478E+03  0.00000000000E+00 0.  1.
<mgrwt>
<rscale>  0 0.31104122E+04</rscale>
<asrwt>0</asrwt>
<pdfrwt beam="1">  1        2 0.18763868E+00 0.31104122E+04</pdfrwt>
<pdfrwt beam="2">  1       -1 0.30508920E+00 0.31104122E+04</pdfrwt>
<totfact> 0.54518422E-01</totfact>
</mgrwt>
</event>
<event>
12    7  0.1611233E-007  0.1578691E+04  0.7818608E-02  0.8833747E-01
         -1   -1    0    0    0  501 -0.00000000000E+00  0.00000000000E+00  0.41990475742E+03  0.41990475742E+03  0.00000000000E+00 0.  1.
          2   -1    0    0  501    0  0.00000000000E+00 -0.00000000000E+00 -0.14838276392E+04  0.14838276392E+04  0.00000000000E+00 0. -1.
         24    2    1    2    0    0 -0.24972011188E+03 -0.46504330203E+03 -0.29448330736E+03  0.60928336077E+03  0.76683690284E+02 0.  0.
        254    2    1    2    0    0  0.24972011188E+03  0.46504330203E+03 -0.76943957441E+03  0.12944490358E+04  0.89718205548E+03 0.  0.
         23    2    4    4    0    0 -0.22475721245E+03  0.21715376534E+03 -0.66592158474E+03  0.74149772237E+03  0.93251020996E+02 0.  0.
         23    2    4    4    0    0  0.47447732433E+03  0.24788953669E+03 -0.10351798967E+03  0.55295131346E+03  0.91984929033E+02 0.  0.
          2    1    3    3  502    0 -0.36558998316E+02 -0.24591095225E+02 -0.23351333006E+02  0.49865489824E+02  0.00000000000E+00 0. -1.
         -1    1    3    3    0  502 -0.21316111356E+03 -0.44045220681E+03 -0.27113197435E+03  0.55941787094E+03  0.00000000000E+00 0.  1.
         13    1    5    5    0    0  0.55925030948E+01  0.36450332769E+01 -0.18973163877E+01  0.69398968242E+01  0.00000000000E+00 0. -1.
        -13    1    5    5    0    0 -0.23034971555E+03  0.21350873207E+03 -0.66402426835E+03  0.73455782555E+03  0.00000000000E+00 0.  1.
          4    1    6    6  503    0  0.44596883446E+02  0.52533734994E+02 -0.29658988413E+02  0.75022202841E+02  0.00000000000E+00 0. -1.
         -4    1    6    6    0  503  0.42988044089E+03  0.19535580170E+03 -0.73859001261E+02  0.47792911062E+03  0.00000000000E+00 0.  1.
<mgrwt>
<rscale>  0 0.15786910E+04</rscale>
<asrwt>0</asrwt>
<pdfrwt beam="1">  1        2 0.22828117E+00 0.15786910E+04</pdfrwt>
<pdfrwt beam="2">  1       -1 0.64600732E-01 0.15786910E+04</pdfrwt>
<totfact> 0.34475321E+01</totfact>
</mgrwt>
</event>
<event>
12    7  0.1611233E-007  0.2279468E+04  0.7818608E-02  0.8486061E-01
          2   -1    0    0  501    0  0.00000000000E+00  0.00000000000E+00  0.19302125736E+04  0.19302125736E+04  0.00000000000E+00 0. -1.
         -1   -1    0    0    0  501 -0.00000000000E+00 -0.00000000000E+00 -0.67297979483E+03  0.67297979483E+03  0.00000000000E+00 0.  1.
         24    2    1    2    0    0 -0.31439483328E+03 -0.52741325812E+03  0.13503446975E+04  0.14854739051E+04  0.78696026924E+02 0.  0.
        254    2    1    2    0    0  0.31439483328E+03  0.52741325812E+03 -0.93111918667E+02  0.11177184634E+04  0.92930935534E+03 0.  0.
         23    2    4    4    0    0  0.31811252374E+03 -0.16781374769E+03 -0.17939809125E+03  0.41117745869E+03  0.86753649594E+02 0.  0.
         23    2    4    4    0    0 -0.37176904547E+01  0.69522700582E+03  0.86286172586E+02  0.70654100468E+03  0.91654115442E+02 0.  0.
          2    1    3    3  502    0 -0.30263181235E+03 -0.50022328117E+03  0.13165931231E+04  0.14405647492E+04  0.00000000000E+00 0. -1.
         -1    1    3    3    0  502 -0.11763020931E+02 -0.27189976956E+02  0.33751574339E+02  0.44909155844E+02  0.00000000000E+00 0.  1.
         13    1    5    5    0    0  0.76791405064E+02 -0.75767417962E+02 -0.80532964762E+02  0.13462236044E+03  0.00000000000E+00 0. -1.
        -13    1    5    5    0    0  0.24132111867E+03 -0.92046329732E+02 -0.98865126490E+02  0.27655509825E+03  0.00000000000E+00 0.  1.
          2    1    6    6  503    0  0.29036196932E+02  0.81622393207E+02  0.15338071433E+02  0.87980521937E+02  0.00000000000E+00 0. -1.
         -2    1    6    6    0  503 -0.32753887387E+02  0.61360461261E+03  0.70948101153E+02  0.61856048274E+03  0.00000000000E+00 0.  1.
<mgrwt>
<rscale>  0 0.22794684E+04</rscale>
<asrwt>0</asrwt>
<pdfrwt beam="1">  1        2 0.29695578E+00 0.22794684E+04</pdfrwt>
<pdfrwt beam="2">  1       -1 0.10353535E+00 0.22794684E+04</pdfrwt>
<totfact> 0.66424986E+00</totfact>
</mgrwt>
</event>
<event>
12    7  0.1611233E-007  0.1606150E+04  0.7818608E-02  0.8816779E-01
          2   -1    0    0  501    0  0.00000000000E+00  0.00000000000E+00  0.65842057585E+03  0.65842057585E+03  0.00000000000E+00 0. -1.
         -1   -1    0    0    0  501 -0.00000000000E+00 -0.00000000000E+00 -0.97951004144E+03  0.97951004144E+03  0.00000000000E+00 0.  1.
         24    2    1    2    0    0  0.30745354456E+03 -0.25290139794E+03 -0.49819750919E+03  0.64260909200E+03  0.79113132960E+02 0.  0.
        254    2    1    2    0    0 -0.30745354456E+03  0.25290139794E+03  0.17710804361E+03  0.99532152530E+03  0.89488037215E+03 0.  0.
         23    2    4    4    0    0  0.19148912249E+03 -0.18729056401E+03  0.15540335323E+03  0.32369927209E+03  0.94261217663E+02 0.  0.
         23    2    4    4    0    0 -0.49894266706E+03  0.44019196196E+03  0.21704690380E+02  0.67162225321E+03  0.88840357049E+02 0.  0.
          2    1    3    3  502    0  0.12681611384E+02 -0.26181452288E+02 -0.14566533854E+02  0.32534222286E+02  0.00000000000E+00 0. -1.
         -1    1    3    3    0  502  0.29477193318E+03 -0.22671994566E+03 -0.48363097534E+03  0.61007486971E+03  0.00000000000E+00 0.  1.
         13    1    5    5    0    0  0.18051244596E+03 -0.19839516847E+03  0.14468975810E+03  0.30476304257E+03  0.00000000000E+00 0.  1.
        -13    1    5    5    0    0  0.10976676530E+02  0.11104604455E+02  0.10713595131E+02  0.18936229518E+02  0.00000000000E+00 0. -1.
          1    1    6    6  503    0 -0.24231455958E+03  0.15777212080E+03  0.22445582756E+02  0.29002102005E+03  0.00000000000E+00 0. -1.
         -1    1    6    6    0  503 -0.25662810748E+03  0.28241984116E+03 -0.74089237623E+00  0.38160123316E+03  0.00000000000E+00 0.  1.
<mgrwt>
<rscale>  0 0.16061501E+04</rscale>
<asrwt>0</asrwt>
<pdfrwt beam="1">  1        2 0.10129547E+00 0.16061501E+04</pdfrwt>
<pdfrwt beam="2">  1       -1 0.15069385E+00 0.16061501E+04</pdfrwt>
<totfact> 0.16694389E+01</totfact>
</mgrwt>
</event>
<event>
12    7  0.1611233E-007  0.1583991E+04  0.7818608E-02  0.8830444E-01
          2   -1    0    0  501    0  0.00000000000E+00  0.00000000000E+00  0.52633502276E+03  0.52633502276E+03  0.00000000000E+00 0. -1.
         -1   -1    0    0    0  501 -0.00000000000E+00 -0.00000000000E+00 -0.11917442441E+04  0.11917442441E+04  0.00000000000E+00 0.  1.
         24    2    1    2    0    0  0.37998030640E+03 -0.35178207015E+03 -0.38116335955E+03  0.64766896882E+03  0.77806994388E+02 0.  0.
        254    2    1    2    0    0 -0.37998030640E+03  0.35178207015E+03 -0.28424586183E+03  0.10704102981E+04  0.89266277961E+03 0.  0.
         23    2    4    4    0    0  0.43898875179E+02  0.25678971110E+03  0.25230078401E+03  0.37411084659E+03  0.91843197657E+02 0.  0.
         23    2    4    4    0    0 -0.42387918158E+03  0.94992359053E+02 -0.53654664584E+03  0.69629945148E+03  0.90848853116E+02 0.  0.
          2    1    3    3  502    0  0.64120166078E+02 -0.84721534406E+02 -0.48181784814E+02  0.11666455536E+03  0.00000000000E+00 0. -1.
         -1    1    3    3    0  502  0.31586014033E+03 -0.26706053574E+03 -0.33298157474E+03  0.53100441346E+03  0.00000000000E+00 0.  1.
         13    1    5    5    0    0  0.38136950491E+02  0.24922009990E+03  0.25978030805E+03  0.36200952147E+03  0.00000000000E+00 0.  1.
        -13    1    5    5    0    0  0.57619246883E+01  0.75696111961E+01 -0.74795240366E+01  0.12101325117E+02  0.00000000000E+00 0. -1.
          3    1    6    6  503    0 -0.11496442393E+03 -0.99867418538E+01 -0.17138269253E+03  0.20661215134E+03  0.00000000000E+00 0. -1.
         -3    1    6    6    0  503 -0.30891475765E+03  0.10497910091E+03 -0.36516395331E+03  0.48968730014E+03  0.00000000000E+00 0.  1.
<mgrwt>
<rscale>  0 0.15839908E+04</rscale>
<asrwt>0</asrwt>
<pdfrwt beam="1">  1        2 0.80974620E-01 0.15839908E+04</pdfrwt>
<pdfrwt beam="2">  1       -1 0.18334526E+00 0.15839908E+04</pdfrwt>
<totfact> 0.12530641E+01</totfact>
</mgrwt>
</event>
<event>
12    7  0.1611233E-007  0.1490107E+04  0.7818608E-02  0.8891059E-01
         -1   -1    0    0    0  501 -0.00000000000E+00  0.00000000000E+00  0.88117811445E+03  0.88117811445E+03  0.00000000000E+00 0.  1.
          2   -1    0    0  501    0  0.00000000000E+00 -0.00000000000E+00 -0.62995709523E+03  0.62995709523E+03  0.00000000000E+00 0. -1.
         24    2    1    2    0    0 -0.39513402311E+03  0.20387237906E+03 -0.19836134268E+02  0.45216753357E+03  0.79794505028E+02 0.  0.
        254    2    1    2    0    0  0.39513402311E+03 -0.20387237906E+03  0.27105715350E+03  0.10589676761E+04  0.92208769400E+03 0.  0.
         23    2    4    4    0    0  0.55488478400E+03  0.43516734222E+02  0.43291505905E+03  0.71080924342E+03  0.89685575839E+02 0.  0.
         23    2    4    4    0    0 -0.15975076089E+03 -0.24738911328E+03 -0.16185790556E+03  0.34815843269E+03  0.91074879556E+02 0.  0.
          2    1    3    3  502    0 -0.30048320287E+03  0.14212413267E+03  0.18278444320E+02  0.33290167591E+03  0.00000000000E+00 0. -1.
         -1    1    3    3    0  502 -0.94650820237E+02  0.61748246384E+02 -0.38114578588E+02  0.11926585766E+03  0.00000000000E+00 0.  1.
         13    1    5    5    0    0  0.32246102700E+02 -0.18222082151E+02  0.21661317425E+02  0.42907669359E+02  0.00000000000E+00 0.  1.
        -13    1    5    5    0    0  0.52263868130E+03  0.61738816374E+02  0.41125374163E+03  0.66790157406E+03  0.00000000000E+00 0. -1.
          1    1    6    6  503    0 -0.13388480858E+03 -0.24683330151E+03 -0.13765725099E+03  0.31273205696E+03  0.00000000000E+00 0. -1.
         -1    1    6    6    0  503 -0.25865952311E+02 -0.55581177381E+00 -0.24200654569E+02  0.35426375728E+02  0.00000000000E+00 0.  1.
<mgrwt>
<rscale>  0 0.14901066E+04</rscale>
<asrwt>0</asrwt>
<pdfrwt beam="1">  1        2 0.96916476E-01 0.14901066E+04</pdfrwt>
<pdfrwt beam="2">  1       -1 0.13556586E+00 0.14901066E+04</pdfrwt>
<totfact> 0.23532189E+01</totfact>
</mgrwt>
</event>
<event>
12    7  0.1611233E-007  0.1740712E+04  0.7818608E-02  0.8738479E-01
          2   -1    0    0  501    0  0.00000000000E+00  0.00000000000E+00  0.87799107712E+03  0.87799107712E+03  0.00000000000E+00 0. -1.
         -1   -1    0    0    0  501 -0.00000000000E+00 -0.00000000000E+00 -0.86278745932E+03  0.86278745932E+03  0.00000000000E+00 0.  1.
         24    2    1    2    0    0  0.33797095660E+02 -0.39112587564E+03  0.50951235633E+03  0.64821492527E+03  0.80362017301E+02 0.  0.
        254    2    1    2    0    0 -0.33797095660E+02  0.39112587564E+03 -0.49430873853E+03  0.10925636112E+04  0.89175805082E+03 0.  0.
         23    2    4    4    0    0 -0.23733748314E+03 -0.20166722153E+03 -0.82265407312E+02  0.33682849784E+03  0.98423018514E+02 0.  0.
         23    2    4    4    0    0  0.20354038748E+03  0.59279309718E+03 -0.41204333122E+03  0.75573511333E+03  0.92322853726E+02 0.  0.
          4    1    3    3  502    0 -0.12460185136E+02 -0.22626307098E+03  0.32818168872E+03  0.39881506280E+03  0.00000000000E+00 0. -1.
         -3    1    3    3    0  502  0.46257280796E+02 -0.16486280466E+03  0.18133066760E+03  0.24939986247E+03  0.00000000000E+00 0.  1.
         13    1    5    5    0    0 -0.21776863379E+02  0.77667008913E+01 -0.18451944993E+02  0.29580867049E+02  0.00000000000E+00 0.  1.
        -13    1    5    5    0    0 -0.21556061976E+03 -0.20943392243E+03 -0.63813462319E+02  0.30724763079E+03  0.00000000000E+00 0. -1.
          3    1    6    6  503    0  0.18407091785E+03  0.53649719352E+03 -0.40228475972E+03  0.69537354663E+03  0.00000000000E+00 0. -1.
         -3    1    6    6    0  503  0.19469469627E+02  0.56295903660E+02 -0.97585714966E+01  0.60361566697E+02  0.00000000000E+00 0.  1.
<mgrwt>
<rscale>  0 0.17407121E+04</rscale>
<asrwt>0</asrwt>
<pdfrwt beam="1">  1        2 0.13507555E+00 0.17407121E+04</pdfrwt>
<pdfrwt beam="2">  1       -1 0.13273653E+00 0.17407121E+04</pdfrwt>
<totfact> 0.15807175E+01</totfact>
</mgrwt>
</event>
<event>
12    7  0.1611233E-007  0.1439374E+04  0.7818608E-02  0.8925801E-01
          4   -1    0    0  501    0  0.00000000000E+00  0.00000000000E+00  0.54894798096E+03  0.54894798096E+03  0.00000000000E+00 0. -1.
         -3   -1    0    0    0  501 -0.00000000000E+00 -0.00000000000E+00 -0.94353078894E+03  0.94353078894E+03  0.00000000000E+00 0.  1.
         24    2    1    2    0    0 -0.15539400626E+03 -0.12030950711E+03  0.26036811447E+03  0.33602812613E+03  0.80632945096E+02 0.  0.
        254    2    1    2    0    0  0.15539400626E+03  0.12030950711E+03 -0.65495092245E+03  0.11564506438E+04  0.93262838578E+03 0.  0.
         23    2    4    4    0    0 -0.38481783837E+03  0.60891491614E+02 -0.31066071376E+03  0.50677927879E+03  0.92318014780E+02 0.  0.
         23    2    4    4    0    0  0.54021184463E+03  0.59418015495E+02 -0.34429020869E+03  0.64967136498E+03  0.90431172860E+02 0.  0.
          4    1    3    3  502    0 -0.11065381662E+03 -0.48154130781E+02  0.10970184604E+03  0.16308765272E+03  0.00000000000E+00 0. -1.
         -3    1    3    3    0  502 -0.44740189642E+02 -0.72155376327E+02  0.15066626843E+03  0.17294047341E+03  0.00000000000E+00 0.  1.
         13    1    5    5    0    0 -0.27600530578E+01  0.37300530353E+01 -0.27289916452E+02  0.27681595483E+02  0.00000000000E+00 0.  1.
        -13    1    5    5    0    0 -0.38205778531E+03  0.57161438578E+02 -0.28337079731E+03  0.47909768330E+03  0.00000000000E+00 0. -1.
          3    1    6    6  503    0  0.54058362277E+03  0.58703848812E+02 -0.34819083423E+03  0.64568851013E+03  0.00000000000E+00 0. -1.
         -3    1    6    6    0  503 -0.37177813806E+00  0.71416668283E+00  0.39006255474E+01  0.39828548424E+01  0.00000000000E+00 0.  1.
<mgrwt>
<rscale>  0 0.14393739E+04</rscale>
<asrwt>0</asrwt>
<pdfrwt beam="1">  1        4 0.84453536E-01 0.14393739E+04</pdfrwt>
<pdfrwt beam="2">  1       -3 0.14515858E+00 0.14393739E+04</pdfrwt>
<totfact> 0.95590742E-01</totfact>
</mgrwt>
</event>
<event>
12    7  0.1611233E-007  0.1506730E+04  0.7818608E-02  0.8879990E-01
         -1   -1    0    0    0  501 -0.00000000000E+00  0.00000000000E+00  0.70741753038E+03  0.70741753038E+03  0.00000000000E+00 0.  1.
          2   -1    0    0  501    0  0.00000000000E+00 -0.00000000000E+00 -0.80229662613E+03  0.80229662613E+03  0.00000000000E+00 0. -1.
         24    2    1    2    0    0 -0.35646818871E+03 -0.30386124780E+03 -0.74554151152E+02  0.48064992356E+03  0.77876826392E+02 0.  0.
        254    2    1    2    0    0  0.35646818871E+03  0.30386124780E+03 -0.20324944595E+02  0.10290642329E+04  0.91605614712E+03 0.  0.
         23    2    4    4    0    0  0.94279360381E+02  0.40458848886E+03 -0.37483114944E+03  0.56758162379E+03  0.95236893882E+02 0.  0.
         23    2    4    4    0    0  0.26218882833E+03 -0.10072724106E+03  0.35450620484E+03  0.46148260916E+03  0.91665645111E+02 0.  0.
          4    1    3    3  502    0 -0.10734183274E+03 -0.58174797898E+02  0.35522678009E+01  0.12214415570E+03  0.00000000000E+00 0. -1.
         -3    1    3    3    0  502 -0.24912635597E+03 -0.24568644991E+03 -0.78106418953E+02  0.35850576786E+03  0.00000000000E+00 0.  1.
         13    1    5    5    0    0 -0.32200312676E+01  0.87152830324E+02 -0.12318177654E+03  0.15092956803E+03  0.00000000000E+00 0. -1.
        -13    1    5    5    0    0  0.97499391649E+02  0.31743565854E+03 -0.25164937290E+03  0.41665205575E+03  0.00000000000E+00 0.  1.
          1    1    6    6  503    0  0.27189157626E+02  0.16967497176E+02  0.48075849245E+02  0.57779179066E+02  0.00000000000E+00 0. -1.
         -1    1    6    6    0  503  0.23499967070E+03 -0.11769473824E+03  0.30643035560E+03  0.40370343010E+03  0.00000000000E+00 0.  1.
<mgrwt>
<rscale>  0 0.15067298E+04</rscale>
<asrwt>0</asrwt>
<pdfrwt beam="1">  1        2 0.12343025E+00 0.15067298E+04</pdfrwt>
<pdfrwt beam="2">  1       -1 0.10883347E+00 0.15067298E+04</pdfrwt>
<totfact> 0.29620716E+01</totfact>
</mgrwt>
</event>
<event>
12    7  0.1611233E-007  0.1176404E+04  0.7818608E-02  0.9133764E-01
         -1   -1    0    0    0  501 -0.00000000000E+00  0.00000000000E+00  0.72506355006E+03  0.72506355006E+03  0.00000000000E+00 0.  1.
          2   -1    0    0  501    0  0.00000000000E+00 -0.00000000000E+00 -0.47717439374E+03  0.47717439374E+03  0.00000000000E+00 0. -1.
         24    2    1    2    0    0  0.62734920386E+02  0.18757669503E+03 -0.85575030812E+02  0.22734420723E+03  0.72399004909E+02 0.  0.
        254    2    1    2    0    0 -0.62734920386E+02 -0.18757669503E+03  0.33346418713E+03  0.97489373656E+03  0.89448239040E+03 0.  0.
         23    2    4    4    0    0  0.39841585163E+03 -0.18012175569E+03  0.17787182744E+03  0.47951232543E+03  0.84348358297E+02 0.  0.
         23    2    4    4    0    0 -0.46115077201E+03 -0.74549393391E+01  0.15559235969E+03  0.49538141112E+03  0.92076867052E+02 0.  0.
          4    1    3    3  502    0  0.61719130335E+02  0.19055621800E+03 -0.71124808522E+02  0.21255507911E+03  0.00000000000E+00 0. -1.
         -3    1    3    3    0  502  0.10157900512E+01 -0.29795229708E+01 -0.14450222290E+02  0.14789128128E+02  0.00000000000E+00 0.  1.
         13    1    5    5    0    0  0.38753166241E+03 -0.18633282034E+03  0.18108499494E+03  0.46657527228E+03  0.00000000000E+00 0. -1.
        -13    1    5    5    0    0  0.10884189213E+02  0.62110646547E+01 -0.32131674999E+01  0.12937053156E+02  0.00000000000E+00 0.  1.
          3    1    6    6  503    0 -0.35783375533E+03 -0.22626584030E+02  0.82500023650E+02  0.36791739924E+03  0.00000000000E+00 0. -1.
         -3    1    6    6    0  503 -0.10331701668E+03  0.15171644690E+02  0.73092336041E+02  0.12746401188E+03  0.00000000000E+00 0.  1.
<mgrwt>
<rscale>  0 0.11764043E+04</rscale>
<asrwt>0</asrwt>
<pdfrwt beam="1">  1        2 0.73411445E-01 0.11764043E+04</pdfrwt>
<pdfrwt beam="2">  1       -1 0.11154824E+00 0.11764043E+04</pdfrwt>
<totfact> 0.54279128E+01</totfact>
</mgrwt>
</event>
<event>
12    7  0.1611233E-007  0.2279935E+04  0.7818608E-02  0.8485875E-01
          2   -1    0    0  501    0  0.00000000000E+00  0.00000000000E+00  0.67497820679E+03  0.67497820679E+03  0.00000000000E+00 0. -1.
         -1   -1    0    0    0  501 -0.00000000000E+00 -0.00000000000E+00 -0.19252851784E+04  0.19252851784E+04  0.00000000000E+00 0.  1.
         24    2    1    2    0    0 -0.17211360819E+03 -0.27078613354E+02 -0.15977220155E+04  0.16092270262E+04  0.80868026097E+02 0.  0.
        254    2    1    2    0    0  0.17211360819E+03  0.27078613354E+02  0.34741504385E+03  0.99103635902E+03  0.91164659094E+03 0.  0.
         23    2    4    4    0    0  0.53863813832E+03  0.28279814580E+02  0.24334728226E+03  0.59878710213E+03  0.91636793515E+02 0.  0.
         23    2    4    4    0    0 -0.36652453013E+03 -0.12012012266E+01  0.10406776159E+03  0.39224925689E+03  0.93207866950E+02 0.  0.
          4    1    3    3  502    0 -0.51723274203E+00  0.12396873289E+02 -0.21203369937E+03  0.21239642103E+03  0.00000000000E+00 0. -1.
         -3    1    3    3    0  502 -0.17159637545E+03 -0.39475486642E+02 -0.13856883161E+04  0.13968306052E+04  0.00000000000E+00 0.  1.
         13    1    5    5    0    0  0.17309638166E+02  0.13168216930E+02 -0.30558942542E+01  0.21962786714E+02  0.00000000000E+00 0. -1.
        -13    1    5    5    0    0  0.52132850015E+03  0.15111597651E+02  0.24640317652E+03  0.57682431541E+03  0.00000000000E+00 0.  1.
          2    1    6    6  503    0 -0.17297605969E+03 -0.45096612790E+02  0.35306501526E+02  0.18221133543E+03  0.00000000000E+00 0. -1.
         -2    1    6    6    0  503 -0.19354847044E+03  0.43895411563E+02  0.68761260065E+02  0.21003792146E+03  0.00000000000E+00 0.  1.
<mgrwt>
<rscale>  0 0.22799347E+04</rscale>
<asrwt>0</asrwt>
<pdfrwt beam="1">  1        2 0.10384280E+00 0.22799347E+04</pdfrwt>
<pdfrwt beam="2">  1       -1 0.29619772E+00 0.22799347E+04</pdfrwt>
<totfact> 0.15542755E+00</totfact>
</mgrwt>
</event>
<event>
12    7  0.1611233E-007  0.1851226E+04  0.7818608E-02  0.8679523E-01
          2   -1    0    0  501    0  0.00000000000E+00  0.00000000000E+00  0.90278153228E+03  0.90278153228E+03  0.00000000000E+00 0. -1.
         -1   -1    0    0    0  501 -0.00000000000E+00 -0.00000000000E+00 -0.94902183722E+03  0.94902183722E+03  0.00000000000E+00 0.  1.
         24    2    1    2    0    0  0.31297113981E+03  0.26543374237E+03 -0.58448814779E+03  0.71891716211E+03  0.82519604512E+02 0.  0.
        254    2    1    2    0    0 -0.31297113981E+03 -0.26543374237E+03  0.53824784285E+03  0.11328862074E+04  0.90846816820E+03 0.  0.
         23    2    4    4    0    0 -0.40860846159E+03 -0.37708412703E+03 -0.41681793296E+01  0.56360167860E+03  0.92066088517E+02 0.  0.
         23    2    4    4    0    0  0.95637321787E+02  0.11165038466E+03  0.54241602218E+03  0.56928452880E+03  0.90870390654E+02 0.  0.
          2    1    3    3  502    0  0.13946481584E+03  0.10712770799E+03 -0.32043239268E+03  0.36551839756E+03  0.00000000000E+00 0. -1.
         -1    1    3    3    0  502  0.17350632396E+03  0.15830603439E+03 -0.26405575510E+03  0.35339876454E+03  0.00000000000E+00 0.  1.
         13    1    5    5    0    0 -0.21855796517E+03 -0.15631927874E+03  0.29679047989E+02  0.27034079777E+03  0.00000000000E+00 0. -1.
        -13    1    5    5    0    0 -0.19005049642E+03 -0.22076484829E+03 -0.33847227319E+02  0.29326088083E+03  0.00000000000E+00 0.  1.
          1    1    6    6  503    0  0.12512001630E+02  0.32452632974E+02  0.36159450374E+02  0.50171998396E+02  0.00000000000E+00 0. -1.
         -1    1    6    6    0  503  0.83125320157E+02  0.79197751686E+02  0.50625657181E+03  0.51911253040E+03  0.00000000000E+00 0.  1.
<mgrwt>
<rscale>  0 0.18512260E+04</rscale>
<asrwt>0</asrwt>
<pdfrwt beam="1">  1        2 0.13888947E+00 0.18512260E+04</pdfrwt>
<pdfrwt beam="2">  1       -1 0.14600336E+00 0.18512260E+04</pdfrwt>
<totfact> 0.11750876E+01</totfact>
</mgrwt>
</event>
<event>
12    7  0.1611233E-007  0.1116834E+04  0.7818608E-02  0.9188938E-01
         -1   -1    0    0    0  501 -0.00000000000E+00  0.00000000000E+00  0.28882730289E+03  0.28882730289E+03  0.00000000000E+00 0.  1.
          2   -1    0    0  501    0  0.00000000000E+00 -0.00000000000E+00 -0.10796397453E+04  0.10796397453E+04  0.00000000000E+00 0. -1.
         24    2    1    2    0    0  0.14309294127E+03  0.14992893890E+02 -0.98893503084E+02  0.19249974568E+03  0.81091617496E+02 0.  0.
        254    2    1    2    0    0 -0.14309294127E+03 -0.14992893890E+02 -0.69191893936E+03  0.11759673025E+04  0.93991856100E+03 0.  0.
         23    2    4    4    0    0  0.26781077248E+03  0.29843836104E+03 -0.40564675944E+03  0.57776471210E+03  0.92058155008E+02 0.  0.
         23    2    4    4    0    0 -0.41090371375E+03 -0.31343125493E+03 -0.28627217992E+03  0.59820259045E+03  0.93880587400E+02 0.  0.
          4    1    3    3  502    0  0.35883226094E+02 -0.42507048880E+01 -0.71612240432E+02  0.80212139896E+02  0.00000000000E+00 0. -1.
         -3    1    3    3    0  502  0.10720971517E+03  0.19243598778E+02 -0.27281262651E+02  0.11228760579E+03  0.00000000000E+00 0.  1.
         13    1    5    5    0    0  0.27408082260E+03  0.28303205264E+03 -0.39563978038E+03  0.55835318210E+03  0.00000000000E+00 0. -1.
        -13    1    5    5    0    0 -0.62700501214E+01  0.15406308397E+02 -0.10006979062E+02  0.19411529999E+02  0.00000000000E+00 0.  1.
          1    1    6    6  503    0 -0.32132717358E+03 -0.26794427323E+03 -0.19163594441E+03  0.46018433396E+03  0.00000000000E+00 0. -1.
         -1    1    6    6    0  503 -0.89576540165E+02 -0.45486981702E+02 -0.94636235508E+02  0.13801825649E+03  0.00000000000E+00 0.  1.
<mgrwt>
<rscale>  0 0.11168338E+04</rscale>
<asrwt>0</asrwt>
<pdfrwt beam="1">  1        2 0.16609843E+00 0.11168338E+04</pdfrwt>
<pdfrwt beam="2">  1       -1 0.44434969E-01 0.11168338E+04</pdfrwt>
<totfact> 0.12712344E+02</totfact>
</mgrwt>
</event>
<event>
12    7  0.1611233E-007  0.1827838E+04  0.7818608E-02  0.8691634E-01
         -1   -1    0    0    0  501 -0.00000000000E+00  0.00000000000E+00  0.29925468348E+03  0.29925468348E+03  0.00000000000E+00 0.  1.
          2   -1    0    0  501    0  0.00000000000E+00 -0.00000000000E+00 -0.27910928743E+04  0.27910928743E+04  0.00000000000E+00 0. -1.
         24    2    1    2    0    0 -0.44524737465E+03  0.38764682984E+03 -0.35320133129E+03  0.69267098681E+03  0.80787537544E+02 0.  0.
        254    2    1    2    0    0  0.44524737465E+03 -0.38764682984E+03 -0.21386368596E+04  0.23976765710E+04  0.90915896997E+03 0.  0.
         23    2    4    4    0    0  0.20023806027E+03  0.26113880667E+03 -0.41878144721E+03  0.54094882065E+03  0.94651829915E+02 0.  0.
         23    2    4    4    0    0  0.24500931438E+03 -0.64878563651E+03 -0.17198554123E+04  0.18567277503E+04  0.92644121355E+02 0.  0.
          2    1    3    3  502    0 -0.91042815317E+02  0.10890166135E+03 -0.11611364708E+03  0.18338687277E+03  0.00000000000E+00 0. -1.
         -1    1    3    3    0  502 -0.35420455933E+03  0.27874516850E+03 -0.23708768421E+03  0.50928411404E+03  0.00000000000E+00 0.  1.
         13    1    5    5    0    0  0.26463088303E+02  0.94617005859E+01 -0.87846295879E+01  0.29444669085E+02  0.00000000000E+00 0. -1.
        -13    1    5    5    0    0  0.17377497197E+03  0.25167710608E+03 -0.40999681762E+03  0.51150415156E+03  0.00000000000E+00 0.  1.
          2    1    6    6  503    0  0.14505275509E+03 -0.25782894964E+03 -0.75466967025E+03  0.81058150746E+03  0.00000000000E+00 0. -1.
         -2    1    6    6    0  503  0.99956559294E+02 -0.39095668687E+03 -0.96518574210E+03  0.10461462429E+04  0.00000000000E+00 0.  1.
<mgrwt>
<rscale>  0 0.18278376E+04</rscale>
<asrwt>0</asrwt>
<pdfrwt beam="1">  1        2 0.42939893E+00 0.18278376E+04</pdfrwt>
<pdfrwt beam="2">  1       -1 0.46039179E-01 0.18278376E+04</pdfrwt>
<totfact> 0.11809547E+01</totfact>
</mgrwt>
</event>
<event>
12    7  0.1611233E-007  0.2325391E+04  0.7818608E-02  0.8467977E-01
          2   -1    0    0  501    0  0.00000000000E+00  0.00000000000E+00  0.17732812156E+04  0.17732812156E+04  0.00000000000E+00 0. -1.
         -1   -1    0    0    0  501 -0.00000000000E+00 -0.00000000000E+00 -0.76234975271E+03  0.76234975271E+03  0.00000000000E+00 0.  1.
         24    2    1    2    0    0  0.56139860979E+03  0.22254394459E+03 -0.41592190647E+03  0.73759259293E+03  0.79734525191E+02 0.  0.
        254    2    1    2    0    0 -0.56139860979E+03 -0.22254394459E+03  0.14268533694E+04  0.17980383754E+04  0.91232519167E+03 0.  0.
         23    2    4    4    0    0 -0.11427637428E+03  0.19083693196E+03 -0.39299590332E+01  0.23999776565E+03  0.90031431285E+02 0.  0.
         23    2    4    4    0    0 -0.44712223552E+03 -0.41338087655E+03  0.14307833284E+04  0.15580406097E+04  0.97711648186E+02 0.  0.
          4    1    3    3  502    0  0.11662159447E+03  0.13129918229E+02 -0.73324962726E+02  0.13838186734E+03  0.00000000000E+00 0. -1.
         -3    1    3    3    0  502  0.44477701532E+03  0.20941402636E+03 -0.34259694375E+03  0.59921072559E+03  0.00000000000E+00 0.  1.
         13    1    5    5    0    0 -0.59704976712E+02  0.43579562807E+02  0.29236545322E+02  0.79489861750E+02  0.00000000000E+00 0.  1.
        -13    1    5    5    0    0 -0.54571397566E+02  0.14725736915E+03 -0.33166504355E+02  0.16050790390E+03  0.00000000000E+00 0. -1.
          4    1    6    6  503    0 -0.28325869948E+03 -0.20667450728E+03  0.88239431648E+03  0.94951017506E+03  0.00000000000E+00 0. -1.
         -4    1    6    6    0  503 -0.16386353604E+03 -0.20670636927E+03  0.54838901192E+03  0.60853043468E+03  0.00000000000E+00 0.  1.
<mgrwt>
<rscale>  0 0.23253907E+04</rscale>
<asrwt>0</asrwt>
<pdfrwt beam="1">  1        2 0.27281249E+00 0.23253907E+04</pdfrwt>
<pdfrwt beam="2">  1       -1 0.11728458E+00 0.23253907E+04</pdfrwt>
<totfact> 0.60202754E+00</totfact>
</mgrwt>
</event>
<event>
12    7  0.1611233E-007  0.1854549E+04  0.7818608E-02  0.8677817E-01
         -1   -1    0    0    0  501 -0.00000000000E+00  0.00000000000E+00  0.61102948184E+03  0.61102948184E+03  0.00000000000E+00 0.  1.
          2   -1    0    0  501    0  0.00000000000E+00 -0.00000000000E+00 -0.14071952045E+04  0.14071952045E+04  0.00000000000E+00 0. -1.
         24    2    1    2    0    0  0.42093236300E+03 -0.12702289990E+01  0.31351665671E+03  0.53101154929E+03  0.80590965656E+02 0.  0.
        254    2    1    2    0    0 -0.42093236300E+03  0.12702289990E+01 -0.11096823794E+04  0.14872131371E+04  0.89622668128E+03 0.  0.
         23    2    4    4    0    0  0.13747310819E+02 -0.36375503020E+03 -0.24244593844E+03  0.44676017822E+03  0.91147754944E+02 0.  0.
         23    2    4    4    0    0 -0.43467967382E+03  0.36502525920E+03 -0.86723644098E+03  0.10404529589E+04  0.90848535316E+02 0.  0.
          2    1    3    3  502    0  0.15029925391E+03 -0.31442352885E+02  0.84916684073E+02  0.17546888760E+03  0.00000000000E+00 0. -1.
         -1    1    3    3    0  502  0.27063310909E+03  0.30172123886E+02  0.22859997264E+03  0.35554266169E+03  0.00000000000E+00 0.  1.
         13    1    5    5    0    0 -0.64750031358E+01  0.34408927330E+01 -0.29837389917E+01  0.79163190170E+01  0.00000000000E+00 0. -1.
        -13    1    5    5    0    0  0.20222313955E+02 -0.36719592293E+03 -0.23946219945E+03  0.43884385920E+03  0.00000000000E+00 0.  1.
          3    1    6    6  503    0 -0.75018650928E+02  0.81792327710E+02 -0.23485553563E+03  0.25975932221E+03  0.00000000000E+00 0. -1.
         -3    1    6    6    0  503 -0.35966102289E+03  0.28323293149E+03 -0.63238090535E+03  0.78069363666E+03  0.00000000000E+00 0.  1.
<mgrwt>
<rscale>  0 0.18545487E+04</rscale>
<asrwt>0</asrwt>
<pdfrwt beam="1">  1        2 0.21649157E+00 0.18545487E+04</pdfrwt>
<pdfrwt beam="2">  1       -1 0.94004535E-01 0.18545487E+04</pdfrwt>
<totfact> 0.16835896E+01</totfact>
</mgrwt>
</event>
<event>
12    7  0.1611233E-007  0.1220603E+04  0.7818608E-02  0.9095012E-01
          2   -1    0    0  501    0  0.00000000000E+00  0.00000000000E+00  0.12509370116E+04  0.12509370116E+04  0.00000000000E+00 0. -1.
         -1   -1    0    0    0  501 -0.00000000000E+00 -0.00000000000E+00 -0.29775096357E+03  0.29775096357E+03  0.00000000000E+00 0.  1.
         24    2    1    2    0    0 -0.22195710327E+03 -0.62982061185E+02  0.51900666753E+02  0.24896177898E+03  0.77824112312E+02 0.  0.
        254    2    1    2    0    0  0.22195710327E+03  0.62982061185E+02  0.90128538130E+03  0.12997261962E+04  0.90760186803E+03 0.  0.
         23    2    4    4    0    0 -0.13310724403E+03  0.23136208666E+03  0.84642059994E+03  0.89294072365E+03  0.98332855082E+02 0.  0.
         23    2    4    4    0    0  0.35506434731E+03 -0.16838002547E+03  0.54864781360E+02  0.40678547257E+03  0.89675820326E+02 0.  0.
          4    1    3    3  502    0 -0.13618427400E+02  0.11953514427E+02  0.16954621515E+02  0.24815464185E+02  0.00000000000E+00 0. -1.
         -3    1    3    3    0  502 -0.20833867587E+03 -0.74935575612E+02  0.34946045238E+02  0.22414631479E+03  0.00000000000E+00 0.  1.
         13    1    5    5    0    0  0.74820952856E+00  0.43945682588E+02  0.66390239609E+02  0.79620642744E+02  0.00000000000E+00 0.  1.
        -13    1    5    5    0    0 -0.13385545356E+03  0.18741640407E+03  0.78003036033E+03  0.81332008091E+03  0.00000000000E+00 0. -1.
          3    1    6    6  503    0  0.14743229812E+03 -0.59421933899E+02  0.65820425184E+02  0.17204527639E+03  0.00000000000E+00 0.  1.
         -3    1    6    6    0  503  0.20763204919E+03 -0.10895809157E+03 -0.10955643824E+02  0.23474019617E+03  0.00000000000E+00 0. -1.
<mgrwt>
<rscale>  0 0.12206026E+04</rscale>
<asrwt>0</asrwt>
<pdfrwt beam="1">  1        2 0.19245185E+00 0.12206026E+04</pdfrwt>
<pdfrwt beam="2">  1       -1 0.45807841E-01 0.12206026E+04</pdfrwt>
<totfact> 0.93954249E+01</totfact>
</mgrwt>
</event>
<event>
12    7  0.1611233E-007  0.1659263E+04  0.7818608E-02  0.8784945E-01
         -1   -1    0    0    0  501 -0.00000000000E+00  0.00000000000E+00  0.38845812355E+03  0.38845812355E+03  0.00000000000E+00 0.  1.
          2   -1    0    0  501    0  0.00000000000E+00 -0.00000000000E+00 -0.17718472794E+04  0.17718472794E+04  0.00000000000E+00 0. -1.
         24    2    1    2    0    0  0.47469384423E+03 -0.19571460424E+03 -0.12176710932E+03  0.53351513451E+03  0.78566645405E+02 0.  0.
        254    2    1    2    0    0 -0.47469384423E+03  0.19571460424E+03 -0.12616220465E+04  0.16267902684E+04  0.88944810817E+03 0.  0.
         23    2    4    4    0    0 -0.48935756208E+03  0.24003025891E+03 -0.13698319260E+04  0.14770121651E+04  0.89666501863E+02 0.  0.
         23    2    4    4    0    0  0.14663717844E+02 -0.44315654675E+02  0.10820987949E+03  0.14977810334E+03  0.92440252859E+02 0.  0.
          2    1    3    3  502    0  0.12071720439E+03 -0.32662510912E+02 -0.60785848992E+02  0.13904820204E+03  0.00000000000E+00 0. -1.
         -1    1    3    3    0  502  0.35397663985E+03 -0.16305209333E+03 -0.60981260327E+02  0.39446693246E+03  0.00000000000E+00 0.  1.
         13    1    5    5    0    0 -0.27205224536E+03  0.17586399070E+03 -0.86476716531E+03  0.92345157839E+03  0.00000000000E+00 0. -1.
        -13    1    5    5    0    0 -0.21730531672E+03  0.64166268212E+02 -0.50506476072E+03  0.55356058672E+03  0.00000000000E+00 0.  1.
          1    1    6    6  503    0 -0.31599181775E+02  0.47564154770E+01  0.16567146940E+02  0.35994473669E+02  0.00000000000E+00 0. -1.
         -1    1    6    6    0  503  0.46262899619E+02 -0.49072070152E+02  0.91642732553E+02  0.11378362967E+03  0.00000000000E+00 0.  1.
<mgrwt>
<rscale>  0 0.16592631E+04</rscale>
<asrwt>0</asrwt>
<pdfrwt beam="1">  1        2 0.27259189E+00 0.16592631E+04</pdfrwt>
<pdfrwt beam="2">  1       -1 0.59762788E-01 0.16592631E+04</pdfrwt>
<totfact> 0.27610476E+01</totfact>
</mgrwt>
</event>
<event>
12    7  0.1611233E-007  0.1559831E+04  0.7818608E-02  0.8845613E-01
          2   -1    0    0  501    0  0.00000000000E+00  0.00000000000E+00  0.18012685057E+04  0.18012685057E+04  0.00000000000E+00 0. -1.
         -1   -1    0    0    0  501 -0.00000000000E+00 -0.00000000000E+00 -0.33768868141E+03  0.33768868141E+03  0.00000000000E+00 0.  1.
         24    2    1    2    0    0 -0.45231911590E+03 -0.10204817497E+03  0.81859655408E+03  0.94409494540E+03  0.78794257082E+02 0.  0.
        254    2    1    2    0    0  0.45231911590E+03  0.10204817497E+03  0.64498327019E+03  0.11948622417E+04  0.89257265541E+03 0.  0.
         23    2    4    4    0    0  0.14495513916E+03 -0.37060116136E+03  0.13681152484E+03  0.43062544762E+03  0.91453100753E+02 0.  0.
         23    2    4    4    0    0  0.30736397674E+03  0.47264933633E+03  0.50817174535E+03  0.76423679407E+03  0.89159101168E+02 0.  0.
          4    1    3    3  502    0 -0.26111603088E+03 -0.24664610868E+02  0.49867995650E+03  0.56344620296E+03  0.00000000000E+00 0. -1.
         -3    1    3    3    0  502 -0.19120308502E+03 -0.77383564098E+02  0.31991659758E+03  0.38064874244E+03  0.00000000000E+00 0.  1.
         13    1    5    5    0    0  0.11061476731E+03 -0.34239418656E+03  0.10148835516E+03  0.37385731499E+03  0.00000000000E+00 0. -1.
        -13    1    5    5    0    0  0.34340371850E+02 -0.28206974798E+02  0.35323169676E+02  0.56768132627E+02  0.00000000000E+00 0.  1.
          4    1    6    6  503    0  0.13172204134E+03  0.28393521507E+03  0.27879714215E+03  0.41916315320E+03  0.00000000000E+00 0. -1.
         -4    1    6    6    0  503  0.17564193540E+03  0.18871412126E+03  0.22937460320E+03  0.34507364087E+03  0.00000000000E+00 0.  1.
<mgrwt>
<rscale>  0 0.15598307E+04</rscale>
<asrwt>0</asrwt>
<pdfrwt beam="1">  1        2 0.27711823E+00 0.15598307E+04</pdfrwt>
<pdfrwt beam="2">  1       -1 0.51952106E-01 0.15598307E+04</pdfrwt>
<totfact> 0.35210517E+01</totfact>
</mgrwt>
</event>
<event>
12    7  0.1611233E-007  0.1254393E+04  0.7818608E-02  0.9066535E-01
          2   -1    0    0  501    0  0.00000000000E+00  0.00000000000E+00  0.11476455838E+04  0.11476455838E+04  0.00000000000E+00 0. -1.
         -1   -1    0    0    0  501 -0.00000000000E+00 -0.00000000000E+00 -0.34276748846E+03  0.34276748846E+03  0.00000000000E+00 0.  1.
         24    2    1    2    0    0  0.27225217900E+03 -0.52668458039E+02  0.23598603119E+03  0.37196593766E+03  0.75987080603E+02 0.  0.
        254    2    1    2    0    0 -0.27225217900E+03  0.52668458039E+02  0.56889206412E+03  0.11184471346E+04  0.92216625223E+03 0.  0.
         23    2    4    4    0    0 -0.58275182156E+03  0.16073804859E+03  0.44279215751E+03  0.75480429445E+03  0.90709549524E+02 0.  0.
         23    2    4    4    0    0  0.31049964256E+03 -0.10806959055E+03  0.12609990662E+03  0.36364284012E+03  0.90806741433E+02 0.  0.
          4    1    3    3  502    0  0.26131252148E+03 -0.48210539120E+02  0.19577351001E+03  0.33005417311E+03  0.00000000000E+00 0. -1.
         -3    1    3    3    0  502  0.10939657514E+02 -0.44579189190E+01  0.40212521182E+02  0.41911764547E+02  0.00000000000E+00 0.  1.
         13    1    5    5    0    0 -0.20048451231E+03  0.99765031655E+02  0.15200338473E+03  0.27065130738E+03  0.00000000000E+00 0. -1.
        -13    1    5    5    0    0 -0.38226730925E+03  0.60973016932E+02  0.29078877277E+03  0.48415298707E+03  0.00000000000E+00 0.  1.
          2    1    6    6  503    0  0.27454165472E+03 -0.62745056552E+02  0.90931555882E+02  0.29593683474E+03  0.00000000000E+00 0. -1.
         -2    1    6    6    0  503  0.35957987839E+02 -0.45324533997E+02  0.35168350734E+02  0.67706005382E+02  0.00000000000E+00 0.  1.
<mgrwt>
<rscale>  0 0.12543932E+04</rscale>
<asrwt>0</asrwt>
<pdfrwt beam="1">  1        2 0.17656086E+00 0.12543932E+04</pdfrwt>
<pdfrwt beam="2">  1       -1 0.52733460E-01 0.12543932E+04</pdfrwt>
<totfact> 0.82753403E+01</totfact>
</mgrwt>
</event>
<event>
12    7  0.1611233E-007  0.9860758E+03  0.7818608E-02  0.9323950E-01
         -1   -1    0    0    0  501 -0.00000000000E+00  0.00000000000E+00  0.17537363029E+03  0.17537363029E+03  0.00000000000E+00 0.  1.
          2   -1    0    0  501    0  0.00000000000E+00 -0.00000000000E+00 -0.13861056053E+04  0.13861056053E+04  0.00000000000E+00 0. -1.
         24    2    1    2    0    0 -0.15771398388E+02  0.31132531004E+02 -0.61417047078E+02  0.10633285001E+03  0.79477354172E+02 0.  0.
        254    2    1    2    0    0  0.15771398388E+02 -0.31132531004E+02 -0.11493149279E+04  0.14551463856E+04  0.89180055415E+03 0.  0.
         23    2    4    4    0    0 -0.25448473515E+03 -0.17752293931E+03 -0.10799643362E+04  0.11273644346E+04  0.91382309559E+02 0.  0.
         23    2    4    4    0    0  0.27025613353E+03  0.14639040831E+03 -0.69350591666E+02  0.32778195092E+03  0.90349175032E+02 0.  0.
          4    1    3    3  502    0 -0.34076830400E+02 -0.11330139643E+02 -0.10202621991E+02  0.37332237141E+02  0.00000000000E+00 0. -1.
         -3    1    3    3    0  502  0.18305432012E+02  0.42462670647E+02 -0.51214425087E+02  0.69000612871E+02  0.00000000000E+00 0.  1.
         13    1    5    5    0    0 -0.92910865076E+02 -0.98303615693E+02 -0.34200522638E+03  0.36778200687E+03  0.00000000000E+00 0. -1.
        -13    1    5    5    0    0 -0.16157387007E+03 -0.79219323620E+02 -0.73795910987E+03  0.75958242776E+03  0.00000000000E+00 0.  1.
          3    1    6    6  503    0  0.20593668483E+03  0.14162508774E+03 -0.79971303973E+02  0.26241759296E+03  0.00000000000E+00 0. -1.
         -3    1    6    6    0  503  0.64319448703E+02  0.47653205648E+01  0.10620712307E+02  0.65364357959E+02  0.00000000000E+00 0.  1.
<mgrwt>
<rscale>  0 0.98607580E+03</rscale>
<asrwt>0</asrwt>
<pdfrwt beam="1">  1        2 0.21324701E+00 0.98607580E+03</pdfrwt>
<pdfrwt beam="2">  1       -1 0.26980559E-01 0.98607580E+03</pdfrwt>
<totfact> 0.20579218E+02</totfact>
</mgrwt>
</event>
<event>
12    7  0.1611233E-007  0.1709181E+04  0.7818608E-02  0.8756146E-01
         -1   -1    0    0    0  501 -0.00000000000E+00  0.00000000000E+00  0.33223458143E+03  0.33223458143E+03  0.00000000000E+00 0.  1.
          2   -1    0    0  501    0  0.00000000000E+00 -0.00000000000E+00 -0.21982196918E+04  0.21982196918E+04  0.00000000000E+00 0. -1.
         24    2    1    2    0    0  0.13323132867E+03 -0.39639785791E+03 -0.12539333757E+04  0.13241773827E+04  0.78835153453E+02 0.  0.
        254    2    1    2    0    0 -0.13323132867E+03  0.39639785791E+03 -0.61205173471E+03  0.12062768906E+04  0.95163793645E+03 0.  0.
         23    2    4    4    0    0 -0.20288749669E+03 -0.25131261703E+03 -0.45141252099E+02  0.33868337794E+03  0.91363723961E+02 0.  0.
         23    2    4    4    0    0  0.69656168019E+02  0.64771047494E+03 -0.56691048261E+03  0.86759351264E+03  0.83367660300E+02 0.  0.
          4    1    3    3  502    0  0.13985717718E+03 -0.36551586210E+03 -0.11928786648E+04  0.12554367306E+04  0.00000000000E+00 0. -1.
         -3    1    3    3    0  502 -0.66258485045E+01 -0.30881995807E+02 -0.61054710850E+02  0.68740652094E+02  0.00000000000E+00 0.  1.
         13    1    5    5    0    0 -0.20906554573E+03 -0.23609209439E+03 -0.54118801246E+02  0.31996362932E+03  0.00000000000E+00 0.  1.
        -13    1    5    5    0    0  0.61780490333E+01 -0.15220522648E+02  0.89775491471E+01  0.18719748615E+02  0.00000000000E+00 0. -1.
          4    1    6    6  503    0  0.67244877582E+02  0.42979895633E+03 -0.33260393028E+03  0.54760788057E+03  0.00000000000E+00 0. -1.
         -4    1    6    6    0  503  0.24112904370E+01  0.21791151862E+03 -0.23430655233E+03  0.31998563208E+03  0.00000000000E+00 0.  1.
<mgrwt>
<rscale>  0 0.17091806E+04</rscale>
<asrwt>0</asrwt>
<pdfrwt beam="1">  1        2 0.33818766E+00 0.17091806E+04</pdfrwt>
<pdfrwt beam="2">  1       -1 0.51113010E-01 0.17091806E+04</pdfrwt>
<totfact> 0.21580231E+01</totfact>
</mgrwt>
</event>
<event>
12    7  0.1611233E-007  0.1959165E+04  0.7818608E-02  0.8625954E-01
          2   -1    0    0  501    0  0.00000000000E+00  0.00000000000E+00  0.14958424609E+04  0.14958424609E+04  0.00000000000E+00 0. -1.
         -1   -1    0    0    0  501 -0.00000000000E+00 -0.00000000000E+00 -0.64149915853E+03  0.64149915853E+03  0.00000000000E+00 0.  1.
         24    2    1    2    0    0 -0.35079309496E+03  0.64030248839E+03  0.76932801270E+02  0.73859302049E+03  0.80980997099E+02 0.  0.
        254    2    1    2    0    0  0.35079309496E+03 -0.64030248839E+03  0.77741050113E+03  0.13987485990E+04  0.90503452075E+03 0.  0.
         23    2    4    4    0    0  0.54625269769E+03 -0.33148157410E+03  0.79223128283E+03  0.10216284372E+04  0.88443283898E+02 0.  0.
         23    2    4    4    0    0 -0.19545960273E+03 -0.30882091429E+03 -0.14820781702E+02  0.37712016179E+03  0.91788601980E+02 0.  0.
          4    1    3    3  502    0 -0.68613188735E+01  0.45329015734E+01  0.95805370769E+01  0.12625830034E+02  0.00000000000E+00 0. -1.
         -3    1    3    3    0  502 -0.34393177608E+03  0.63576958682E+03  0.67352264193E+02  0.72596719045E+03  0.00000000000E+00 0.  1.
         13    1    5    5    0    0  0.43189925178E+02 -0.30303957633E+02  0.32543495491E+02  0.61990149087E+02  0.00000000000E+00 0. -1.
        -13    1    5    5    0    0  0.50306277251E+03 -0.30117761647E+03  0.75968778734E+03  0.95963828810E+03  0.00000000000E+00 0.  1.
          1    1    6    6  503    0 -0.10394823675E+03 -0.96277863148E+02  0.20065741993E+02  0.14309890585E+03  0.00000000000E+00 0. -1.
         -1    1    6    6    0  503 -0.91511365988E+02 -0.21254305114E+03 -0.34886523694E+02  0.23402125593E+03  0.00000000000E+00 0.  1.
<mgrwt>
<rscale>  0 0.19591648E+04</rscale>
<asrwt>0</asrwt>
<pdfrwt beam="1">  1        2 0.23012961E+00 0.19591648E+04</pdfrwt>
<pdfrwt beam="2">  1       -1 0.98692178E-01 0.19591648E+04</pdfrwt>
<totfact> 0.13314068E+01</totfact>
</mgrwt>
</event>
<event>
12    7  0.1611233E-007  0.2320655E+04  0.7818608E-02  0.8469822E-01
          2   -1    0    0  501    0  0.00000000000E+00  0.00000000000E+00  0.32851662599E+04  0.32851662599E+04  0.00000000000E+00 0. -1.
         -1   -1    0    0    0  501 -0.00000000000E+00 -0.00000000000E+00 -0.40982992703E+03  0.40982992703E+03  0.00000000000E+00 0.  1.
         24    2    1    2    0    0  0.56428743786E+03  0.37401539127E+03  0.87332830507E+02  0.68781828238E+03  0.84611706384E+02 0.  0.
        254    2    1    2    0    0 -0.56428743786E+03 -0.37401539127E+03  0.27880035024E+04  0.30071779046E+04  0.90102585699E+03 0.  0.
         23    2    4    4    0    0  0.44443628123E+01 -0.12446997575E+02 -0.37631628634E+02  0.10085192394E+03  0.92629860082E+02 0.  0.
         23    2    4    4    0    0 -0.56873180068E+03 -0.36156839369E+03  0.28256351310E+04  0.29063259806E+04  0.91264711707E+02 0.  0.
          4    1    3    3  502    0  0.53490989511E+01  0.15041883079E+02  0.10492980563E+02  0.19104286096E+02  0.00000000000E+00 0. -1.
         -3    1    3    3    0  502  0.55893833891E+03  0.35897350819E+03  0.76839849944E+02  0.66871399628E+03  0.00000000000E+00 0.  1.
         13    1    5    5    0    0 -0.16531212598E+01  0.22525624365E+02  0.21950648345E+02  0.31495515962E+02  0.00000000000E+00 0. -1.
        -13    1    5    5    0    0  0.60974840721E+01 -0.34972621940E+02 -0.59582276979E+02  0.69356407976E+02  0.00000000000E+00 0.  1.
          4    1    6    6  503    0 -0.33302152627E+03 -0.25861420338E+03  0.16691298317E+04  0.17215629638E+04  0.00000000000E+00 0. -1.
         -4    1    6    6    0  503 -0.23571027441E+03 -0.10295419031E+03  0.11565052993E+04  0.11847630168E+04  0.00000000000E+00 0.  1.
<mgrwt>
<rscale>  0 0.23206546E+04</rscale>
<asrwt>0</asrwt>
<pdfrwt beam="1">  1        2 0.50541018E+00 0.23206546E+04</pdfrwt>
<pdfrwt beam="2">  1       -1 0.63050760E-01 0.23206546E+04</pdfrwt>
<totfact> 0.29982933E+00</totfact>
</mgrwt>
</event>
<event>
12    7  0.1756844E-007  0.1553669E+04  0.7818608E-02  0.8849528E-01
          2   -1    0    0  501    0  0.00000000000E+00  0.00000000000E+00  0.13836328927E+04  0.13836328927E+04  0.00000000000E+00 0. -1.
         -3   -1    0    0    0  501 -0.00000000000E+00 -0.00000000000E+00 -0.43615019380E+03  0.43615019380E+03  0.00000000000E+00 0.  1.
         24    2    1    2    0    0 -0.13217005465E+03  0.34234410807E+03  0.75025818325E+03  0.83898087124E+03  0.79581085081E+02 0.  0.
        254    2    1    2    0    0  0.13217005465E+03 -0.34234410807E+03  0.19722451568E+03  0.98080221529E+03  0.88792289319E+03 0.  0.
         23    2    4    4    0    0 -0.32827639614E+03 -0.14852381566E+03  0.28189976914E+03  0.46604987042E+03  0.88939787430E+02 0.  0.
         23    2    4    4    0    0  0.46044645080E+03 -0.19382029241E+03 -0.84675253459E+02  0.51475234487E+03  0.90679866602E+02 0.  0.
          2    1    3    3  502    0 -0.92835051818E+02  0.30300355411E+03  0.67186270728E+03  0.74285193551E+03  0.00000000000E+00 0. -1.
         -1    1    3    3    0  502 -0.39335002833E+02  0.39340553958E+02  0.78395475970E+02  0.96128935738E+02  0.00000000000E+00 0.  1.
         13    1    5    5    0    0 -0.31156900214E+03 -0.11265198822E+03  0.24643373496E+03  0.41291076430E+03  0.00000000000E+00 0. -1.
        -13    1    5    5    0    0 -0.16707394000E+02 -0.35871827443E+02  0.35466034186E+02  0.53139106120E+02  0.00000000000E+00 0.  1.
          4    1    6    6  503    0  0.40269497336E+03 -0.13442428822E+03 -0.77952273001E+02  0.43163605931E+03  0.00000000000E+00 0. -1.
         -4    1    6    6    0  503  0.57751477433E+02 -0.59396004186E+02 -0.67229804576E+01  0.83116285559E+02  0.00000000000E+00 0.  1.
<mgrwt>
<rscale>  0 0.15536689E+04</rscale>
<asrwt>0</asrwt>
<pdfrwt beam="1">  1        2 0.21286660E+00 0.15536689E+04</pdfrwt>
<pdfrwt beam="2">  1       -3 0.67100030E-01 0.15536689E+04</pdfrwt>
<totfact> 0.19416578E+01</totfact>
</mgrwt>
</event>
<event>
12    7  0.2403216E-007  0.1838227E+04  0.7818608E-02  0.8686231E-01
          2   -1    0    0  501    0  0.00000000000E+00  0.00000000000E+00  0.81540800600E+03  0.81540800600E+03  0.00000000000E+00 0. -1.
         -1   -1    0    0    0  501 -0.00000000000E+00 -0.00000000000E+00 -0.10360079428E+04  0.10360079428E+04  0.00000000000E+00 0.  1.
         24    2    1    2    0    0 -0.18762597259E+03 -0.45867381893E+03  0.42028484619E+03  0.65464059825E+03  0.79559934503E+02 0.  0.
        254    2    1    2    0    0  0.18762597259E+03  0.45867381893E+03 -0.64088478302E+03  0.11967753506E+04  0.88088180642E+03 0.  0.
         23    2    4    4    0    0  0.37639454041E+02  0.16045571272E+03  0.20791304399E+03  0.28015200745E+03  0.89969712530E+02 0.  0.
         23    2    4    4    0    0  0.14998651854E+03  0.29821810621E+03 -0.84879782701E+03  0.91662334312E+03  0.91162532887E+02 0.  0.
          4    1    3    3  502    0 -0.17136341534E+03 -0.32656852511E+03  0.31066268000E+03  0.48220713646E+03  0.00000000000E+00 0. -1.
         -3    1    3    3    0  502 -0.16262557242E+02 -0.13210529382E+03  0.10962216619E+03  0.17243346179E+03  0.00000000000E+00 0.  1.
         13    1    5    5    0    0 -0.27471018254E+02  0.26236982945E+02  0.33547947822E+02  0.50680380040E+02  0.00000000000E+00 0.  1.
        -13    1    5    5    0    0  0.65110472294E+02  0.13421872977E+03  0.17436509617E+03  0.22947162741E+03  0.00000000000E+00 0. -1.
          4    1    6    6  503    0  0.79560551755E+02  0.21975024523E+03 -0.66310003805E+03  0.70308016054E+03  0.00000000000E+00 0. -1.
         -4    1    6    6    0  503  0.70425966790E+02  0.78467860981E+02 -0.18569778895E+03  0.21354318258E+03  0.00000000000E+00 0.  1.
<mgrwt>
<rscale>  0 0.18382265E+04</rscale>
<asrwt>0</asrwt>
<pdfrwt beam="1">  1        2 0.12544739E+00 0.18382265E+04</pdfrwt>
<pdfrwt beam="2">  1       -1 0.15938584E+00 0.18382265E+04</pdfrwt>
<totfact> 0.10655576E+01</totfact>
</mgrwt>
</event>
<event>
12    7  0.1611233E-007  0.1833527E+04  0.7818608E-02  0.8688670E-01
          2   -1    0    0  501    0  0.00000000000E+00  0.00000000000E+00  0.28023424991E+04  0.28023424991E+04  0.00000000000E+00 0. -1.
         -1   -1    0    0    0  501 -0.00000000000E+00 -0.00000000000E+00 -0.29991183867E+03  0.29991183867E+03  0.00000000000E+00 0.  1.
         24    2    1    2    0    0  0.10035508162E+03  0.16123497763E+03 -0.17814476192E+03  0.27239169689E+03  0.79961365141E+02 0.  0.
        254    2    1    2    0    0 -0.10035508162E+03 -0.16123497763E+03  0.26805754223E+04  0.28298626409E+04  0.88688787958E+03 0.  0.
         23    2    4    4    0    0  0.27140315437E+03  0.14513652354E+03  0.49649506144E+03  0.59141915156E+03  0.92439083354E+02 0.  0.
         23    2    4    4    0    0 -0.37175823599E+03 -0.30637150117E+03  0.21840803609E+04  0.22384434893E+04  0.91403223309E+02 0.  0.
          2    1    3    3  502    0  0.62265858761E+01  0.33911019501E+01 -0.44738403441E+02  0.45296740352E+02  0.00000000000E+00 0. -1.
         -1    1    3    3    0  502  0.94128495748E+02  0.15784387568E+03 -0.13340635848E+03  0.22709495654E+03  0.00000000000E+00 0.  1.
         13    1    5    5    0    0  0.21336629361E+03  0.85516196531E+02  0.41798725107E+03  0.47702362329E+03  0.00000000000E+00 0. -1.
        -13    1    5    5    0    0  0.58036860759E+02  0.59620327012E+02  0.78507810372E+02  0.11439552827E+03  0.00000000000E+00 0.  1.
          1    1    6    6  503    0 -0.35999819649E+03 -0.27243564677E+03  0.19469094610E+04  0.19985685708E+04  0.00000000000E+00 0. -1.
         -1    1    6    6    0  503 -0.11760039497E+02 -0.33935854401E+02  0.23717089992E+03  0.23987491847E+03  0.00000000000E+00 0.  1.
<mgrwt>
<rscale>  0 0.18335274E+04</rscale>
<asrwt>0</asrwt>
<pdfrwt beam="1">  1        2 0.43112960E+00 0.18335274E+04</pdfrwt>
<pdfrwt beam="2">  1       -1 0.46140285E-01 0.18335274E+04</pdfrwt>
<totfact> 0.11572904E+01</totfact>
</mgrwt>
</event>
<event>
12    7  0.1870439E-007  0.1657876E+04  0.7818608E-02  0.8785761E-01
          2   -1    0    0  501    0  0.00000000000E+00  0.00000000000E+00  0.15095725326E+04  0.15095725326E+04  0.00000000000E+00 0. -1.
         -1   -1    0    0    0  501 -0.00000000000E+00 -0.00000000000E+00 -0.45518743169E+03  0.45518743169E+03  0.00000000000E+00 0.  1.
         24    2    1    2    0    0  0.52056351905E+03 -0.16580880095E+03  0.67896303210E+03  0.87521085681E+03  0.80773195362E+02 0.  0.
        254    2    1    2    0    0 -0.52056351905E+03  0.16580880095E+03  0.37542206880E+03  0.10895491075E+04  0.86469450791E+03 0.  0.
         23    2    4    4    0    0  0.13715341082E+03 -0.39730335728E+02 -0.14341631318E+03  0.22205630945E+03  0.91384944085E+02 0.  0.
         23    2    4    4    0    0 -0.65771692986E+03  0.20553913668E+03  0.51883838197E+03  0.86749279802E+03  0.92263706120E+02 0.  0.
          4    1    3    3  502    0  0.51131691937E+03 -0.17248302946E+03  0.67201117413E+03  0.86185521153E+03  0.00000000000E+00 0. -1.
         -3    1    3    3    0  502  0.92465996727E+01  0.66742285040E+01  0.69518579683E+01  0.13355645280E+02  0.00000000000E+00 0.  1.
         13    1    5    5    0    0  0.10810533384E+03 -0.26419149022E+02 -0.47575882021E+02  0.12102974506E+03  0.00000000000E+00 0.  1.
        -13    1    5    5    0    0  0.29048076974E+02 -0.13311186706E+02 -0.95840431156E+02  0.10102656439E+03  0.00000000000E+00 0. -1.
          2    1    6    6  503    0 -0.56471538948E+03  0.16835443857E+03  0.40067933332E+03  0.71259428587E+03  0.00000000000E+00 0.  1.
         -2    1    6    6    0  503 -0.93001540379E+02  0.37184698108E+02  0.11815904865E+03  0.15489851215E+03  0.00000000000E+00 0. -1.
<mgrwt>
<rscale>  0 0.16578763E+04</rscale>
<asrwt>0</asrwt>
<pdfrwt beam="1">  1        2 0.23224193E+00 0.16578763E+04</pdfrwt>
<pdfrwt beam="2">  1       -1 0.70028836E-01 0.16578763E+04</pdfrwt>
<totfact> 0.28113936E+01</totfact>
</mgrwt>
</event>
<event>
12    7  0.1611233E-007  0.2199030E+04  0.7818608E-02  0.8518832E-01
         -1   -1    0    0    0  501 -0.00000000000E+00  0.00000000000E+00  0.19658267757E+04  0.19658267757E+04  0.00000000000E+00 0.  1.
          2   -1    0    0  501    0  0.00000000000E+00 -0.00000000000E+00 -0.61497431025E+03  0.61497431025E+03  0.00000000000E+00 0. -1.
         24    2    1    2    0    0 -0.74309849935E+03 -0.33758994599E+03  0.10489319104E+04  0.13312090328E+04  0.75478373562E+02 0.  0.
        254    2    1    2    0    0  0.74309849935E+03  0.33758994599E+03  0.30192055499E+03  0.12495920531E+04  0.89675076047E+03 0.  0.
         23    2    4    4    0    0  0.44687264258E+03 -0.15918990110E+02 -0.25373144017E+03  0.52198184390E+03  0.90204371854E+02 0.  0.
         23    2    4    4    0    0  0.29622585677E+03  0.35350893610E+03  0.55565199516E+03  0.72761020924E+03  0.89158009997E+02 0.  0.
          4    1    3    3  502    0 -0.49650593968E+02 -0.12375840789E+02  0.42741207544E+02  0.66671986163E+02  0.00000000000E+00 0. -1.
         -3    1    3    3    0  502 -0.69344790538E+03 -0.32521410520E+03  0.10061907029E+04  0.12645370466E+04  0.00000000000E+00 0.  1.
         13    1    5    5    0    0  0.17218872029E+03  0.20125738536E+02 -0.58119149422E+02  0.18284374825E+03  0.00000000000E+00 0. -1.
        -13    1    5    5    0    0  0.27468392229E+03 -0.36044728646E+02 -0.19561229075E+03  0.33913809565E+03  0.00000000000E+00 0.  1.
          1    1    6    6  503    0  0.73561710479E+02  0.10497089334E+03  0.98649720657E+02  0.16174665710E+03  0.00000000000E+00 0. -1.
         -1    1    6    6    0  503  0.22266414629E+03  0.24853804276E+03  0.45700227450E+03  0.56586355214E+03  0.00000000000E+00 0.  1.
<mgrwt>
<rscale>  0 0.21990298E+04</rscale>
<asrwt>0</asrwt>
<pdfrwt beam="1">  1        2 0.94611433E-01 0.21990298E+04</pdfrwt>
<pdfrwt beam="2">  1       -1 0.30243489E+00 0.21990298E+04</pdfrwt>
<totfact> 0.16000506E+00</totfact>
</mgrwt>
</event>
<event>
12    7  0.1611233E-007  0.1528601E+04  0.7818608E-02  0.8865653E-01
         -3   -1    0    0    0  501 -0.00000000000E+00  0.00000000000E+00  0.32184770467E+03  0.32184770467E+03  0.00000000000E+00 0.  1.
          2   -1    0    0  501    0  0.00000000000E+00 -0.00000000000E+00 -0.18150046350E+04  0.18150046350E+04  0.00000000000E+00 0. -1.
         24    2    1    2    0    0  0.16122248817E+03  0.45057126835E+03 -0.28314812785E+03  0.56180561936E+03  0.80284077465E+02 0.  0.
        254    2    1    2    0    0 -0.16122248817E+03 -0.45057126835E+03 -0.12100088025E+04  0.15750467203E+04  0.88749293545E+03 0.  0.
         23    2    4    4    0    0 -0.51981437994E+03 -0.30959256033E+03 -0.72103725708E+03  0.94576969240E+03  0.92363639832E+02 0.  0.
         23    2    4    4    0    0  0.35859189177E+03 -0.14097870802E+03 -0.48897154537E+03  0.62927702787E+03  0.91832808236E+02 0.  0.
          2    1    3    3  502    0  0.27456993180E+01  0.54519779384E+02 -0.57245214895E+02  0.79100947132E+02  0.00000000000E+00 0. -1.
         -1    1    3    3    0  502  0.15847678885E+03  0.39605148896E+03 -0.22590291295E+03  0.48270467223E+03  0.00000000000E+00 0.  1.
         13    1    5    5    0    0 -0.22361034028E+03 -0.18436271715E+03 -0.32035006676E+03  0.43199000107E+03  0.00000000000E+00 0. -1.
        -13    1    5    5    0    0 -0.29620403966E+03 -0.12522984318E+03 -0.40068719032E+03  0.51377969133E+03  0.00000000000E+00 0.  1.
          3    1    6    6  503    0  0.90675738046E+02 -0.31550597934E+02 -0.64972543320E+02  0.11592653314E+03  0.00000000000E+00 0. -1.
         -3    1    6    6    0  503  0.26791615372E+03 -0.10942811008E+03 -0.42399900206E+03  0.51335049473E+03  0.00000000000E+00 0.  1.
<mgrwt>
<rscale>  0 0.15286008E+04</rscale>
<asrwt>0</asrwt>
<pdfrwt beam="1">  1        2 0.27923148E+00 0.15286008E+04</pdfrwt>
<pdfrwt beam="2">  1       -3 0.49515032E-01 0.15286008E+04</pdfrwt>
<totfact> 0.21204192E+01</totfact>
</mgrwt>
</event>
<event>
12    7  0.1611233E-007  0.2077008E+04  0.7818608E-02  0.8571440E-01
         -1   -1    0    0    0  501 -0.00000000000E+00  0.00000000000E+00  0.25644631211E+03  0.25644631211E+03  0.00000000000E+00 0.  1.
          2   -1    0    0  501    0  0.00000000000E+00 -0.00000000000E+00 -0.42055233462E+04  0.42055233462E+04  0.00000000000E+00 0. -1.
         24    2    1    2    0    0 -0.36511367399E+03  0.58042748614E+03 -0.26587654387E+04  0.27469191430E+04  0.79542810142E+02 0.  0.
        254    2    1    2    0    0  0.36511367399E+03 -0.58042748614E+03 -0.12903115954E+04  0.17150505153E+04  0.89793663207E+03 0.  0.
         23    2    4    4    0    0  0.12178113144E+03 -0.59225423233E+03 -0.28118512398E+03  0.67298026654E+03  0.90783509061E+02 0.  0.
         23    2    4    4    0    0  0.24333254255E+03  0.11826746191E+02 -0.10091264714E+04  0.10420702488E+04  0.90683900735E+02 0.  0.
          2    1    3    3  502    0 -0.32171511415E+03  0.47281967597E+03 -0.21184395856E+04  0.21942755840E+04  0.00000000000E+00 0. -1.
         -1    1    3    3    0  502 -0.43398559838E+02  0.10760781017E+03 -0.54032585308E+03  0.55264355901E+03  0.00000000000E+00 0.  1.
         13    1    5    5    0    0 -0.12861259182E+02 -0.22281223307E+02 -0.13304114835E+02  0.28963155411E+02  0.00000000000E+00 0.  1.
        -13    1    5    5    0    0  0.13464239062E+03 -0.56997300902E+03 -0.26788100915E+03  0.64401711113E+03  0.00000000000E+00 0. -1.
          2    1    6    6  503    0  0.67570575443E+02 -0.92547315370E+00 -0.47101845779E+03  0.47584138822E+03  0.00000000000E+00 0.  1.
         -2    1    6    6    0  503  0.17576196711E+03  0.12752219345E+02 -0.53810801363E+03  0.56622886055E+03  0.00000000000E+00 0. -1.
<mgrwt>
<rscale>  0 0.20770084E+04</rscale>
<asrwt>0</asrwt>
<pdfrwt beam="1">  1        2 0.64700353E+00 0.20770084E+04</pdfrwt>
<pdfrwt beam="2">  1       -1 0.39453282E-01 0.20770084E+04</pdfrwt>
<totfact> 0.15266038E+00</totfact>
</mgrwt>
</event>
<event>
12    7  0.1611233E-007  0.1125329E+04  0.7818608E-02  0.9180850E-01
         -1   -1    0    0    0  501 -0.00000000000E+00  0.00000000000E+00  0.70792860458E+03  0.70792860458E+03  0.00000000000E+00 0.  1.
          2   -1    0    0  501    0  0.00000000000E+00 -0.00000000000E+00 -0.44720836064E+03  0.44720836064E+03  0.00000000000E+00 0. -1.
         24    2    1    2    0    0  0.90132732949E+02  0.14766000448E+03 -0.45481327230E+02  0.19557660181E+03  0.79083940087E+02 0.  0.
        254    2    1    2    0    0 -0.90132732949E+02 -0.14766000448E+03  0.30620157117E+03  0.95956036341E+03  0.89278737803E+03 0.  0.
         23    2    4    4    0    0 -0.17376617777E+03 -0.48571071676E+03  0.75056498779E+02  0.53148679263E+03  0.10361055846E+03 0.  0.
         23    2    4    4    0    0  0.83633444818E+02  0.33805071229E+03  0.23114507239E+03  0.42807357078E+03  0.92445120693E+02 0.  0.
          2    1    3    3  502    0  0.51917307464E+02  0.14201980809E+03 -0.41110663920E+02  0.15670073195E+03  0.00000000000E+00 0. -1.
         -1    1    3    3    0  502  0.38215425485E+02  0.56401963860E+01 -0.43706633103E+01  0.38875869868E+02  0.00000000000E+00 0.  1.
         13    1    5    5    0    0 -0.15186632058E+03 -0.47935553532E+03  0.66896535826E+02  0.50726743940E+03  0.00000000000E+00 0. -1.
        -13    1    5    5    0    0 -0.21899857183E+02 -0.63551814431E+01  0.81599629537E+01  0.24219353237E+02  0.00000000000E+00 0.  1.
          2    1    6    6  503    0  0.78893172358E+02  0.25537667102E+03  0.21652466191E+03  0.34398300243E+03  0.00000000000E+00 0. -1.
         -2    1    6    6    0  503  0.47402724600E+01  0.82674041270E+02  0.14620410479E+02  0.84090568350E+02  0.00000000000E+00 0.  1.
<mgrwt>
<rscale>  0 0.11253294E+04</rscale>
<asrwt>0</asrwt>
<pdfrwt beam="1">  1        2 0.68801286E-01 0.11253294E+04</pdfrwt>
<pdfrwt beam="2">  1       -1 0.10891209E+00 0.11253294E+04</pdfrwt>
<totfact> 0.62107461E+01</totfact>
</mgrwt>
</event>
<event>
12    7  0.1611233E-007  0.1930572E+04  0.7818608E-02  0.8639787E-01
         -1   -1    0    0    0  501 -0.00000000000E+00  0.00000000000E+00  0.45036054354E+03  0.45036054354E+03  0.00000000000E+00 0.  1.
          2   -1    0    0  501    0  0.00000000000E+00 -0.00000000000E+00 -0.20689585589E+04  0.20689585589E+04  0.00000000000E+00 0. -1.
         24    2    1    2    0    0  0.34185139800E+03  0.52527444868E+03 -0.84123397296E+02  0.63758873458E+03  0.81651844686E+02 0.  0.
        254    2    1    2    0    0 -0.34185139800E+03 -0.52527444868E+03 -0.15344746181E+04  0.18817303679E+04  0.89079806864E+03 0.  0.
         23    2    4    4    0    0 -0.81771796191E+02  0.24098125922E+03 -0.46395823320E+03  0.53672948092E+03  0.89792536355E+02 0.  0.
         23    2    4    4    0    0 -0.26007960181E+03 -0.76625570790E+03 -0.10705163849E+04  0.13450008869E+04  0.90735034210E+02 0.  0.
          2    1    3    3  502    0  0.29992683198E+01  0.16049070664E+02  0.93660145090E+01  0.18822606287E+02  0.00000000000E+00 0. -1.
         -1    1    3    3    0  502  0.33885212968E+03  0.50922537802E+03 -0.93489411805E+02  0.61876612829E+03  0.00000000000E+00 0.  1.
         13    1    5    5    0    0 -0.67310848936E+02  0.24157171369E+03 -0.45549197474E+03  0.51996209698E+03  0.00000000000E+00 0.  1.
        -13    1    5    5    0    0 -0.14460947255E+02 -0.59045446993E+00 -0.84662584642E+01  0.16767383945E+02  0.00000000000E+00 0. -1.
          1    1    6    6  503    0 -0.25858328043E+02 -0.36830513219E+02 -0.90530641368E+02  0.10109864915E+03  0.00000000000E+00 0. -1.
         -1    1    6    6    0  503 -0.23422127376E+03 -0.72942519468E+03 -0.97998574349E+03  0.12439022378E+04  0.00000000000E+00 0.  1.
<mgrwt>
<rscale>  0 0.19305722E+04</rscale>
<asrwt>0</asrwt>
<pdfrwt beam="1">  1        2 0.31830132E+00 0.19305722E+04</pdfrwt>
<pdfrwt beam="2">  1       -1 0.69286238E-01 0.19305722E+04</pdfrwt>
<totfact> 0.13707521E+01</totfact>
</mgrwt>
</event>
<event>
12    7  0.1611233E-007  0.1139897E+04  0.7818608E-02  0.9167155E-01
          2   -1    0    0  501    0  0.00000000000E+00  0.00000000000E+00  0.14013410513E+04  0.14013410513E+04  0.00000000000E+00 0. -1.
         -1   -1    0    0    0  501 -0.00000000000E+00 -0.00000000000E+00 -0.23180728121E+03  0.23180728121E+03  0.00000000000E+00 0.  1.
         24    2    1    2    0    0  0.61841881255E+02  0.26760459275E+02 -0.47018751956E+02  0.11864246218E+03  0.85584638452E+02 0.  0.
        254    2    1    2    0    0 -0.61841881255E+02 -0.26760459275E+02  0.12165525221E+04  0.15145058703E+04  0.89954847115E+03 0.  0.
         23    2    4    4    0    0 -0.18623840714E+03  0.30766635893E+03  0.10465917214E+04  0.11104906044E+04  0.92151063592E+02 0.  0.
         23    2    4    4    0    0  0.12439652588E+03 -0.33442681821E+03  0.16996080066E+03  0.40401526591E+03  0.83820456602E+02 0.  0.
          4    1    3    3  502    0  0.35370868505E+02  0.21508231833E+02  0.20306939811E+02  0.46109371931E+02  0.00000000000E+00 0. -1.
         -3    1    3    3    0  502  0.26471012749E+02  0.52522274416E+01 -0.67325691767E+02  0.72533090249E+02  0.00000000000E+00 0.  1.
         13    1    5    5    0    0 -0.16875797274E+03  0.25104074463E+03  0.76301720868E+03  0.82078984495E+03  0.00000000000E+00 0.  1.
        -13    1    5    5    0    0 -0.17480434393E+02  0.56625614299E+02  0.28357451272E+03  0.28970075948E+03  0.00000000000E+00 0. -1.
          4    1    6    6  503    0  0.58992533686E+02 -0.25110835746E+03  0.97871447491E+02  0.27588828618E+03  0.00000000000E+00 0. -1.
         -4    1    6    6    0  503  0.65403992196E+02 -0.83318460747E+02  0.72089353164E+02  0.12812697974E+03  0.00000000000E+00 0.  1.
<mgrwt>
<rscale>  0 0.11398966E+04</rscale>
<asrwt>0</asrwt>
<pdfrwt beam="1">  1        2 0.21559093E+00 0.11398966E+04</pdfrwt>
<pdfrwt beam="2">  1       -1 0.35662659E-01 0.11398966E+04</pdfrwt>
<totfact> 0.12223022E+02</totfact>
</mgrwt>
</event>
<event>
12    7  0.1611233E-007  0.1569669E+04  0.7818608E-02  0.8839401E-01
          2   -1    0    0  501    0  0.00000000000E+00  0.00000000000E+00  0.14444075927E+04  0.14444075927E+04  0.00000000000E+00 0. -1.
         -1   -1    0    0    0  501 -0.00000000000E+00 -0.00000000000E+00 -0.42644812152E+03  0.42644812152E+03  0.00000000000E+00 0.  1.
         24    2    1    2    0    0 -0.43704813767E+03  0.43850564030E+02  0.67822422773E+03  0.81184316771E+03  0.78532027039E+02 0.  0.
        254    2    1    2    0    0  0.43704813767E+03 -0.43850564030E+02  0.33973524349E+03  0.10590125465E+04  0.90175029330E+03 0.  0.
         23    2    4    4    0    0  0.37113622950E+03 -0.30198419598E+03  0.52971553290E+03  0.72002097639E+03  0.94313865207E+02 0.  0.
         23    2    4    4    0    0  0.65911908164E+02  0.25813363195E+03 -0.18998028941E+03  0.33899157016E+03  0.88574390734E+02 0.  0.
          4    1    3    3  502    0 -0.32411910089E+03  0.32633458164E+01  0.52826663571E+03  0.61978179983E+03  0.00000000000E+00 0. -1.
         -3    1    3    3    0  502 -0.11292903677E+03  0.40587218213E+02  0.14995759202E+03  0.19206136788E+03  0.00000000000E+00 0.  1.
         13    1    5    5    0    0  0.90096914065E+01  0.62437029390E+01  0.20753947821E+02  0.23470933424E+02  0.00000000000E+00 0.  1.
        -13    1    5    5    0    0  0.36212653809E+03 -0.30822789892E+03  0.50896158508E+03  0.69655004296E+03  0.00000000000E+00 0. -1.
          3    1    6    6  503    0 -0.54044144348E+01  0.12026077119E+03 -0.11547194035E+03  0.16681016094E+03  0.00000000000E+00 0. -1.
         -3    1    6    6    0  503  0.71316322599E+02  0.13787286076E+03 -0.74508349053E+02  0.17218140922E+03  0.00000000000E+00 0.  1.
<mgrwt>
<rscale>  0 0.15696686E+04</rscale>
<asrwt>0</asrwt>
<pdfrwt beam="1">  1        2 0.22221655E+00 0.15696686E+04</pdfrwt>
<pdfrwt beam="2">  1       -1 0.65607404E-01 0.15696686E+04</pdfrwt>
<totfact> 0.35208949E+01</totfact>
</mgrwt>
</event>
<event>
12    7  0.1611233E-007  0.1722537E+04  0.7818608E-02  0.8748614E-01
         -1   -1    0    0    0  501 -0.00000000000E+00  0.00000000000E+00  0.24053272415E+03  0.24053272415E+03  0.00000000000E+00 0.  1.
          2   -1    0    0  501    0  0.00000000000E+00 -0.00000000000E+00 -0.30839193184E+04  0.30839193184E+04  0.00000000000E+00 0. -1.
         24    2    1    2    0    0 -0.17685190769E+03 -0.34039824785E+02 -0.22255645935E+04  0.22342907531E+04  0.80511506283E+02 0.  0.
        254    2    1    2    0    0  0.17685190769E+03  0.34039824785E+02 -0.61782200082E+03  0.10901612895E+04  0.87995017220E+03 0.  0.
         23    2    4    4    0    0 -0.65247457067E+02  0.25866681548E+03  0.96228413586E+02  0.29787679506E+03  0.91131363272E+02 0.  0.
         23    2    4    4    0    0  0.24209936476E+03 -0.22462699069E+03 -0.71405041441E+03  0.79228449446E+03  0.93687451055E+02 0.  0.
          4    1    3    3  502    0 -0.18083123179E+03 -0.27328252464E+02 -0.19354770973E+04  0.19440983416E+04  0.00000000000E+00 0. -1.
         -3    1    3    3    0  502  0.39793241015E+01 -0.67115723214E+01 -0.29008749617E+03  0.29019241144E+03  0.00000000000E+00 0.  1.
         13    1    5    5    0    0  0.61451721698E+01  0.15999273777E+03  0.54104998386E+02  0.16900529616E+03  0.00000000000E+00 0. -1.
        -13    1    5    5    0    0 -0.71392629237E+02  0.98674077709E+02  0.42123415200E+02  0.12887149890E+03  0.00000000000E+00 0.  1.
          4    1    6    6  503    0  0.32141301154E+02  0.43169309133E+01 -0.59606691095E+02  0.67857621205E+02  0.00000000000E+00 0.  1.
         -4    1    6    6    0  503  0.20995806360E+03 -0.22894392161E+03 -0.65444372331E+03  0.72442687326E+03  0.00000000000E+00 0. -1.
<mgrwt>
<rscale>  0 0.17225371E+04</rscale>
<asrwt>0</asrwt>
<pdfrwt beam="1">  1        2 0.47444910E+00 0.17225371E+04</pdfrwt>
<pdfrwt beam="2">  1       -1 0.37005036E-01 0.17225371E+04</pdfrwt>
<totfact> 0.11757873E+01</totfact>
</mgrwt>
</event>
<event>
12    7  0.1611233E-007  0.2169784E+04  0.7818608E-02  0.8531111E-01
          2   -1    0    0  501    0  0.00000000000E+00  0.00000000000E+00  0.21046811908E+04  0.21046811908E+04  0.00000000000E+00 0. -1.
         -1   -1    0    0    0  501 -0.00000000000E+00 -0.00000000000E+00 -0.55922512587E+03  0.55922512587E+03  0.00000000000E+00 0.  1.
         24    2    1    2    0    0 -0.21083379093E+03  0.23521952475E+03 -0.38881938831E+03  0.50738528020E+03  0.80499649833E+02 0.  0.
        254    2    1    2    0    0  0.21083379093E+03 -0.23521952475E+03  0.19342754533E+04  0.21565210365E+04  0.89965678987E+03 0.  0.
         23    2    4    4    0    0 -0.15797148614E+03  0.14675791397E+03  0.12234113319E+03  0.26618443697E+03  0.96922267135E+02 0.  0.
         23    2    4    4    0    0  0.36880527707E+03 -0.38197743871E+03  0.18119343201E+04  0.18903365995E+04  0.91336647627E+02 0.  0.
          4    1    3    3  502    0 -0.44142168254E+02  0.12967634012E+02 -0.77525397523E+02  0.90149197507E+02  0.00000000000E+00 0. -1.
         -3    1    3    3    0  502 -0.16669162268E+03  0.22225189073E+03 -0.31129399078E+03  0.41723608270E+03  0.00000000000E+00 0.  1.
         13    1    5    5    0    0 -0.12883624582E+03  0.14057639718E+03  0.64803463466E+02  0.20139511056E+03  0.00000000000E+00 0. -1.
        -13    1    5    5    0    0 -0.29135240319E+02  0.61815167871E+01  0.57537669726E+02  0.64789326403E+02  0.00000000000E+00 0.  1.
          2    1    6    6  503    0  0.31139405990E+03 -0.27796962569E+03  0.14821794648E+04  0.15398341922E+04  0.00000000000E+00 0. -1.
         -2    1    6    6    0  503  0.57411217171E+02 -0.10400781302E+03  0.32975485523E+03  0.35050240737E+03  0.00000000000E+00 0.  1.
<mgrwt>
<rscale>  0 0.21697840E+04</rscale>
<asrwt>0</asrwt>
<pdfrwt beam="1">  1        2 0.32379710E+00 0.21697840E+04</pdfrwt>
<pdfrwt beam="2">  1       -1 0.86034636E-01 0.21697840E+04</pdfrwt>
<totfact> 0.81222817E+00</totfact>
</mgrwt>
</event>
<event>
12    7  0.1611233E-007  0.1698023E+04  0.7818608E-02  0.8762493E-01
         -1   -1    0    0    0  501 -0.00000000000E+00  0.00000000000E+00  0.75099768174E+03  0.75099768174E+03  0.00000000000E+00 0.  1.
          2   -1    0    0  501    0  0.00000000000E+00 -0.00000000000E+00 -0.95981718167E+03  0.95981718167E+03  0.00000000000E+00 0. -1.
         24    2    1    2    0    0  0.16632548493E+03 -0.20630072685E+03  0.47711573192E+03  0.55226358289E+03  0.84448129114E+02 0.  0.
        254    2    1    2    0    0 -0.16632548493E+03  0.20630072685E+03 -0.68593523185E+03  0.11585512805E+04  0.89527078053E+03 0.  0.
         23    2    4    4    0    0  0.22179967164E+02  0.21466617081E+03 -0.85637842309E+03  0.88782129359E+03  0.90934756769E+02 0.  0.
         23    2    4    4    0    0 -0.18850545210E+03 -0.83654439586E+01  0.17044319125E+03  0.27072998693E+03  0.92949224078E+02 0.  0.
          2    1    3    3  502    0  0.42116580419E+02 -0.29575645783E+02  0.16386583892E+03  0.17175720752E+03  0.00000000000E+00 0. -1.
         -3    1    3    3    0  502  0.12420890451E+03 -0.17672508106E+03  0.31324989300E+03  0.38050637537E+03  0.00000000000E+00 0.  1.
         13    1    5    5    0    0  0.23475612596E+02  0.22148251149E+03 -0.78137686500E+03  0.81249948458E+03  0.00000000000E+00 0. -1.
        -13    1    5    5    0    0 -0.12956454323E+01 -0.68163406787E+01 -0.75001558088E+02  0.75321809013E+02  0.00000000000E+00 0.  1.
          2    1    6    6  503    0 -0.15645547708E+03 -0.29748087430E+02  0.16894028903E+03  0.23217253557E+03  0.00000000000E+00 0. -1.
         -2    1    6    6    0  503 -0.32049975015E+02  0.21382643471E+02  0.15029022166E+01  0.38557451360E+02  0.00000000000E+00 0.  1.
<mgrwt>
<rscale>  0 0.16980229E+04</rscale>
<asrwt>0</asrwt>
<pdfrwt beam="1">  1        2 0.14766418E+00 0.16980229E+04</pdfrwt>
<pdfrwt beam="2">  1       -1 0.11553811E+00 0.16980229E+04</pdfrwt>
<totfact> 0.19719508E+01</totfact>
</mgrwt>
</event>
<event>
12    7  0.1611233E-007  0.1811339E+04  0.7818608E-02  0.8700292E-01
          2   -1    0    0  501    0  0.00000000000E+00  0.00000000000E+00  0.54250211464E+03  0.54250211464E+03  0.00000000000E+00 0. -1.
         -1   -1    0    0    0  501 -0.00000000000E+00 -0.00000000000E+00 -0.15119527440E+04  0.15119527440E+04  0.00000000000E+00 0.  1.
         24    2    1    2    0    0 -0.40961798957E+03  0.49866794093E+03 -0.13804166597E+03  0.66484342635E+03  0.80651517768E+02 0.  0.
        254    2    1    2    0    0  0.40961798957E+03 -0.49866794093E+03 -0.83140896343E+03  0.13896114323E+04  0.90737117857E+03 0.  0.
         23    2    4    4    0    0  0.23203570151E+03 -0.12145443481E+03  0.15317852386E+03  0.31647627574E+03  0.90010146231E+02 0.  0.
         23    2    4    4    0    0  0.17758228806E+03 -0.37721350613E+03 -0.98458748729E+03  0.10731351566E+04  0.91548052641E+02 0.  0.
          2    1    3    3  502    0 -0.29118294438E+03  0.38155303190E+03 -0.70545658447E+02  0.48512566740E+03  0.00000000000E+00 0. -1.
         -1    1    3    3    0  502 -0.11843504519E+03  0.11711490904E+03 -0.67496007527E+02  0.17971775895E+03  0.00000000000E+00 0.  1.
         13    1    5    5    0    0  0.22463667920E+03 -0.92279131981E+02  0.15170453897E+03  0.28634130507E+03  0.00000000000E+00 0.  1.
        -13    1    5    5    0    0  0.73990223066E+01 -0.29175302826E+02  0.14739848909E+01  0.30134970674E+02  0.00000000000E+00 0. -1.
          3    1    6    6  503    0  0.94057803236E+02 -0.13303473208E+03 -0.47045378563E+03  0.49786732641E+03  0.00000000000E+00 0. -1.
         -3    1    6    6    0  503  0.83524484823E+02 -0.24417877405E+03 -0.51413370166E+03  0.57526783018E+03  0.00000000000E+00 0.  1.
<mgrwt>
<rscale>  0 0.18113394E+04</rscale>
<asrwt>0</asrwt>
<pdfrwt beam="1">  1        2 0.83461866E-01 0.18113394E+04</pdfrwt>
<pdfrwt beam="2">  1       -1 0.23260811E+00 0.18113394E+04</pdfrwt>
<totfact> 0.54692342E+00</totfact>
</mgrwt>
</event>
<event>
12    7  0.1611233E-007  0.2109745E+04  0.7818608E-02  0.8556963E-01
         -1   -1    0    0    0  501 -0.00000000000E+00  0.00000000000E+00  0.77907597311E+03  0.77907597311E+03  0.00000000000E+00 0.  1.
          2   -1    0    0  501    0  0.00000000000E+00 -0.00000000000E+00 -0.14283024282E+04  0.14283024282E+04  0.00000000000E+00 0. -1.
         24    2    1    2    0    0  0.18388312510E+03  0.22311449573E+02 -0.11448748395E+04  0.11626301637E+04  0.81606953897E+02 0.  0.
        254    2    1    2    0    0 -0.18388312510E+03 -0.22311449573E+02  0.49564838436E+03  0.10447482377E+04  0.90084446755E+03 0.  0.
         23    2    4    4    0    0 -0.48059711021E+03  0.32769499098E+02  0.53651428901E+03  0.72681270526E+03  0.91442352356E+02 0.  0.
         23    2    4    4    0    0  0.29671398511E+03 -0.55080948671E+02 -0.40865904648E+02  0.31793553241E+03  0.91322947491E+02 0.  0.
          2    1    3    3  502    0  0.19057077732E+03  0.20933614956E+02 -0.10393078785E+04  0.10568426107E+04  0.00000000000E+00 0. -1.
         -1    1    3    3    0  502 -0.66876522252E+01  0.13778346168E+01 -0.10556696094E+03  0.10578755297E+03  0.00000000000E+00 0.  1.
         13    1    5    5    0    0 -0.26772112026E+03 -0.13666667559E+02  0.34359318671E+03  0.43579542676E+03  0.00000000000E+00 0. -1.
        -13    1    5    5    0    0 -0.21287598995E+03  0.46436166657E+02  0.19292110230E+03  0.29101727850E+03  0.00000000000E+00 0.  1.
          2    1    6    6  503    0  0.68179290491E+02 -0.13701014046E+01 -0.47457806340E+02  0.83081503430E+02  0.00000000000E+00 0. -1.
         -2    1    6    6    0  503  0.22853469462E+03 -0.53710847267E+02  0.65919016922E+01  0.23485402898E+03  0.00000000000E+00 0.  1.
<mgrwt>
<rscale>  0 0.21097451E+04</rscale>
<asrwt>0</asrwt>
<pdfrwt beam="1">  1        2 0.21973883E+00 0.21097451E+04</pdfrwt>
<pdfrwt beam="2">  1       -1 0.11985784E+00 0.21097451E+04</pdfrwt>
<totfact> 0.90826809E+00</totfact>
</mgrwt>
</event>
<event>
12    7  0.1611233E-007  0.1683394E+04  0.7818608E-02  0.8770892E-01
         -1   -1    0    0    0  501 -0.00000000000E+00  0.00000000000E+00  0.41420249152E+03  0.41420249152E+03  0.00000000000E+00 0.  1.
          2   -1    0    0  501    0  0.00000000000E+00 -0.00000000000E+00 -0.17104053707E+04  0.17104053707E+04  0.00000000000E+00 0. -1.
         24    2    1    2    0    0  0.35378718877E+03 -0.48147688259E+03 -0.51877836933E+03  0.79523389896E+03  0.79250199778E+02 0.  0.
        254    2    1    2    0    0 -0.35378718877E+03  0.48147688259E+03 -0.77742450983E+03  0.13293739633E+04  0.89769755613E+03 0.  0.
         23    2    4    4    0    0  0.20041744863E+03  0.37593220977E+03 -0.10864034814E+03  0.44956285747E+03  0.93871494689E+02 0.  0.
         23    2    4    4    0    0 -0.55420463739E+03  0.10554467281E+03 -0.66878416170E+03  0.87981110578E+03  0.92265209312E+02 0.  0.
          2    1    3    3  502    0  0.26328585026E+01 -0.32713042914E+02 -0.31129140177E+02  0.45233820188E+02  0.00000000000E+00 0. -1.
         -1    1    3    3    0  502  0.35115433026E+03 -0.44876383968E+03 -0.48764922916E+03  0.75000007877E+03  0.00000000000E+00 0.  1.
         13    1    5    5    0    0  0.10011691262E+03  0.11942103502E+03 -0.70317301325E+01  0.15599431088E+03  0.00000000000E+00 0. -1.
        -13    1    5    5    0    0  0.10030053601E+03  0.25651117475E+03 -0.10160861800E+03  0.29356854659E+03  0.00000000000E+00 0.  1.
          4    1    6    6  503    0 -0.46149916499E+03  0.10981707421E+03 -0.59673975182E+03  0.76232512780E+03  0.00000000000E+00 0. -1.
         -4    1    6    6    0  503 -0.92705472402E+02 -0.42724013939E+01 -0.72044409875E+02  0.11748597798E+03  0.00000000000E+00 0.  1.
<mgrwt>
<rscale>  0 0.16833944E+04</rscale>
<asrwt>0</asrwt>
<pdfrwt beam="1">  1        2 0.26313928E+00 0.16833944E+04</pdfrwt>
<pdfrwt beam="2">  1       -1 0.63723461E-01 0.16833944E+04</pdfrwt>
<totfact> 0.26231170E+01</totfact>
</mgrwt>
</event>
<event>
12    7  0.1611233E-007  0.1383037E+04  0.7818608E-02  0.8966190E-01
          2   -1    0    0  501    0  0.00000000000E+00  0.00000000000E+00  0.26017103959E+04  0.26017103959E+04  0.00000000000E+00 0. -1.
         -1   -1    0    0    0  501 -0.00000000000E+00 -0.00000000000E+00 -0.18380123634E+03  0.18380123634E+03  0.00000000000E+00 0.  1.
         24    2    1    2    0    0 -0.93611396320E+02 -0.37444723507E+03  0.58093888832E+03  0.70511742233E+03  0.10357008228E+03 0.  0.
        254    2    1    2    0    0  0.93611396320E+02  0.37444723507E+03  0.18369702712E+04  0.20803942099E+04  0.89699858742E+03 0.  0.
         23    2    4    4    0    0 -0.73559504130E+02 -0.14126306455E+03  0.12966700543E+04  0.13096502173E+04  0.92001129705E+02 0.  0.
         23    2    4    4    0    0  0.16717090045E+03  0.51571029962E+03  0.54030021687E+03  0.77074399256E+03  0.90657347322E+02 0.  0.
          2    1    3    3  502    0 -0.92822571147E+02 -0.15855463664E+03  0.26876424647E+03  0.32556078188E+03  0.00000000000E+00 0. -1.
         -1    1    3    3    0  502 -0.78882517308E+00 -0.21589259843E+03  0.31217464185E+03  0.37955664046E+03  0.00000000000E+00 0.  1.
         13    1    5    5    0    0 -0.28663594228E+02  0.21116933961E+01  0.34487401161E+03  0.34606956637E+03  0.00000000000E+00 0.  1.
        -13    1    5    5    0    0 -0.44895909902E+02 -0.14337475795E+03  0.95179604271E+03  0.96358065093E+03  0.00000000000E+00 0. -1.
          3    1    6    6  503    0  0.14775045654E+03  0.42197226253E+03  0.48728734594E+03  0.66131667548E+03  0.00000000000E+00 0. -1.
         -3    1    6    6    0  503  0.19420443911E+02  0.93738037091E+02  0.53012870933E+02  0.10942731708E+03  0.00000000000E+00 0.  1.
<mgrwt>
<rscale>  0 0.13830366E+04</rscale>
<asrwt>0</asrwt>
<pdfrwt beam="1">  1        2 0.40026311E+00 0.13830366E+04</pdfrwt>
<pdfrwt beam="2">  1       -1 0.28277115E-01 0.13830366E+04</pdfrwt>
<totfact> 0.38319860E+01</totfact>
</mgrwt>
</event>
<event>
12    7  0.1611233E-007  0.1661569E+04  0.7818608E-02  0.8783592E-01
          2   -1    0    0  501    0  0.00000000000E+00  0.00000000000E+00  0.14100474203E+04  0.14100474203E+04  0.00000000000E+00 0. -1.
         -1   -1    0    0    0  501 -0.00000000000E+00 -0.00000000000E+00 -0.48948921563E+03  0.48948921563E+03  0.00000000000E+00 0.  1.
         24    2    1    2    0    0  0.20867287662E+03  0.11376298253E+03  0.93014483630E+03  0.96324207794E+03  0.78609786896E+02 0.  0.
        254    2    1    2    0    0 -0.20867287662E+03 -0.11376298253E+03 -0.95866315889E+01  0.93629455802E+03  0.90557672797E+03 0.  0.
         23    2    4    4    0    0  0.26435181946E+02 -0.37001797166E+03  0.28199144557E+03  0.47509557841E+03  0.92652658064E+02 0.  0.
         23    2    4    4    0    0 -0.23510805857E+03  0.25625498913E+03 -0.29157807716E+03  0.46119897962E+03  0.82123718008E+02 0.  0.
          4    1    3    3  502    0  0.17727967474E+03  0.12506606715E+03  0.80909110171E+03  0.83767417000E+03  0.00000000000E+00 0. -1.
         -3    1    3    3    0  502  0.31393201881E+02 -0.11303084615E+02  0.12105373459E+03  0.12556790794E+03  0.00000000000E+00 0.  1.
         13    1    5    5    0    0  0.33843574386E+02 -0.23627428554E+03  0.12744457502E+03  0.27057909239E+03  0.00000000000E+00 0. -1.
        -13    1    5    5    0    0 -0.74083924398E+01 -0.13374368612E+03  0.15454687055E+03  0.20451648602E+03  0.00000000000E+00 0.  1.
          3    1    6    6  503    0 -0.24004703747E+03  0.23774053013E+03 -0.27128106186E+03  0.43328576528E+03  0.00000000000E+00 0. -1.
         -3    1    6    6    0  503  0.49389789040E+01  0.18514458999E+02 -0.20297015305E+02  0.27913214343E+02  0.00000000000E+00 0.  1.
<mgrwt>
<rscale>  0 0.16615691E+04</rscale>
<asrwt>0</asrwt>
<pdfrwt beam="1">  1        2 0.21693037E+00 0.16615691E+04</pdfrwt>
<pdfrwt beam="2">  1       -1 0.75306034E-01 0.16615691E+04</pdfrwt>
<totfact> 0.27536143E+01</totfact>
</mgrwt>
</event>
<event>
12    7  0.1611233E-007  0.1294197E+04  0.7818608E-02  0.9034180E-01
          2   -1    0    0  501    0  0.00000000000E+00  0.00000000000E+00  0.44798082597E+03  0.44798082597E+03  0.00000000000E+00 0. -1.
         -1   -1    0    0    0  501 -0.00000000000E+00 -0.00000000000E+00 -0.93471946418E+03  0.93471946418E+03  0.00000000000E+00 0.  1.
         24    2    1    2    0    0 -0.31794148474E+03  0.30006743796E+02 -0.79118521587E+02  0.34355498856E+03  0.98909541087E+02 0.  0.
        254    2    1    2    0    0  0.31794148474E+03 -0.30006743796E+02 -0.40762011662E+03  0.10391453016E+04  0.90093374115E+03 0.  0.
         23    2    4    4    0    0  0.61183486852E+03 -0.10946902506E+03 -0.34403431969E+03  0.71550176062E+03  0.85192620222E+02 0.  0.
         23    2    4    4    0    0 -0.29389338378E+03  0.79462281263E+02 -0.63585796926E+02  0.32364354097E+03  0.89523253204E+02 0.  0.
          4    1    3    3  502    0 -0.17693422397E+03  0.27024757828E+02  0.55159162468E+01  0.17907116596E+03  0.00000000000E+00 0. -1.
         -3    1    3    3    0  502 -0.14100726077E+03  0.29819859672E+01 -0.84634437833E+02  0.16448382260E+03  0.00000000000E+00 0.  1.
         13    1    5    5    0    0  0.30169751796E+03 -0.96669485067E+02 -0.16584285251E+03  0.35758947609E+03  0.00000000000E+00 0. -1.
        -13    1    5    5    0    0  0.31013735056E+03 -0.12799539992E+02 -0.17819146718E+03  0.35791228453E+03  0.00000000000E+00 0.  1.
          4    1    6    6  503    0 -0.90812430180E+01  0.24917674257E+02 -0.11972547566E+02  0.29098133280E+02  0.00000000000E+00 0. -1.
         -4    1    6    6    0  503 -0.28481214076E+03  0.54544607006E+02 -0.51613249360E+02  0.29454540769E+03  0.00000000000E+00 0.  1.
<mgrwt>
<rscale>  0 0.12941969E+04</rscale>
<asrwt>0</asrwt>
<pdfrwt beam="1">  1        2 0.68920128E-01 0.12941969E+04</pdfrwt>
<pdfrwt beam="2">  1       -1 0.14380299E+00 0.12941969E+04</pdfrwt>
<totfact> 0.30632668E+01</totfact>
</mgrwt>
</event>
<event>
12    7  0.1611233E-007  0.3293286E+04  0.7818608E-02  0.8164606E-01
          2   -1    0    0  501    0  0.00000000000E+00  0.00000000000E+00  0.15250296081E+04  0.15250296081E+04  0.00000000000E+00 0. -1.
         -1   -1    0    0    0  501 -0.00000000000E+00 -0.00000000000E+00 -0.17779540287E+04  0.17779540287E+04  0.00000000000E+00 0.  1.
         24    2    1    2    0    0 -0.91484171481E+03  0.11887553616E+04 -0.29263368655E+03  0.15302528773E+04  0.77231606165E+02 0.  0.
        254    2    1    2    0    0  0.91484171481E+03 -0.11887553616E+04  0.39709265925E+02  0.17727307595E+04  0.94388709432E+03 0.  0.
         23    2    4    4    0    0  0.51394242783E+03 -0.99414102498E+03  0.40130898308E+03  0.11923250734E+04  0.90205233752E+02 0.  0.
         23    2    4    4    0    0  0.40089928698E+03 -0.19461433665E+03 -0.36159971715E+03  0.58040568603E+03  0.86726158686E+02 0.  0.
          2    1    3    3  502    0 -0.26125626490E+02  0.43158199695E+02  0.29281998101E+01  0.50534670421E+02  0.00000000000E+00 0. -1.
         -1    1    3    3    0  502 -0.88871608832E+03  0.11455971619E+04 -0.29556188636E+03  0.14797182069E+04  0.00000000000E+00 0.  1.
         13    1    5    5    0    0  0.25908756055E+02 -0.10270510282E+03  0.48985054788E+02  0.11670105989E+03  0.00000000000E+00 0.  1.
        -13    1    5    5    0    0  0.48803367178E+03 -0.89143592215E+03  0.35232392829E+03  0.10756240136E+04  0.00000000000E+00 0. -1.
          2    1    6    6  503    0  0.36841461728E+03 -0.20071869933E+03 -0.32227803411E+03  0.52903729335E+03  0.00000000000E+00 0. -1.
         -2    1    6    6    0  503  0.32484669697E+02  0.61043626768E+01 -0.39321683044E+02  0.51368392679E+02  0.00000000000E+00 0.  1.
<mgrwt>
<rscale>  0 0.32932856E+04</rscale>
<asrwt>0</asrwt>
<pdfrwt beam="1">  1        2 0.23461994E+00 0.32932856E+04</pdfrwt>
<pdfrwt beam="2">  1       -1 0.27353139E+00 0.32932856E+04</pdfrwt>
<totfact> 0.57296237E-01</totfact>
</mgrwt>
</event>
<event>
12    7  0.1611233E-007  0.1975802E+04  0.7818608E-02  0.8618018E-01
         -1   -1    0    0    0  501 -0.00000000000E+00  0.00000000000E+00  0.76934911056E+03  0.76934911056E+03  0.00000000000E+00 0.  1.
          2   -1    0    0  501    0  0.00000000000E+00 -0.00000000000E+00 -0.12685382092E+04  0.12685382092E+04  0.00000000000E+00 0. -1.
         24    2    1    2    0    0 -0.24576997362E+02 -0.50710829790E+03  0.41338255073E+03  0.65944527336E+03  0.78867488352E+02 0.  0.
        254    2    1    2    0    0  0.24576997362E+02  0.50710829790E+03 -0.91257164938E+03  0.13784420464E+04  0.89975141314E+03 0.  0.
         23    2    4    4    0    0  0.27631702864E+03 -0.11753382347E+03 -0.47716104356E+03  0.57116434701E+03  0.91546435376E+02 0.  0.
         23    2    4    4    0    0 -0.25174003128E+03  0.62464212137E+03 -0.43541060582E+03  0.80727769939E+03  0.92542234364E+02 0.  0.
          2    1    3    3  502    0 -0.34260241096E+02 -0.88945861654E+02  0.84014824239E+02  0.12705755041E+03  0.00000000000E+00 0. -1.
         -1    1    3    3    0  502  0.96832437341E+01 -0.41816243624E+03  0.32936772649E+03  0.53238772295E+03  0.00000000000E+00 0.  1.
         13    1    5    5    0    0  0.43373324724E+02  0.83795758665E+01 -0.37618864218E+02  0.58022767379E+02  0.00000000000E+00 0. -1.
        -13    1    5    5    0    0  0.23294370392E+03 -0.12591339934E+03 -0.43954217934E+03  0.51314157963E+03  0.00000000000E+00 0.  1.
          3    1    6    6  503    0 -0.25279193258E+02  0.42957516430E+02 -0.63296311368E+02  0.80565556303E+02  0.00000000000E+00 0. -1.
         -3    1    6    6    0  503 -0.22646083802E+03  0.58168460494E+03 -0.37211429445E+03  0.72671214309E+03  0.00000000000E+00 0.  1.
<mgrwt>
<rscale>  0 0.19758024E+04</rscale>
<asrwt>0</asrwt>
<pdfrwt beam="1">  1        2 0.19515972E+00 0.19758024E+04</pdfrwt>
<pdfrwt beam="2">  1       -1 0.11836140E+00 0.19758024E+04</pdfrwt>
<totfact> 0.11720249E+01</totfact>
</mgrwt>
</event>
<event>
12    7  0.1611233E-007  0.1102195E+04  0.7818608E-02  0.9203055E-01
         -1   -1    0    0    0  501 -0.00000000000E+00  0.00000000000E+00  0.80310507298E+03  0.80310507298E+03  0.00000000000E+00 0.  1.
          2   -1    0    0  501    0  0.00000000000E+00 -0.00000000000E+00 -0.37816804271E+03  0.37816804271E+03  0.00000000000E+00 0. -1.
         24    2    1    2    0    0 -0.50241999867E+02 -0.21906182714E+02 -0.10421557895E+03  0.14196677625E+03  0.79306615551E+02 0.  0.
        254    2    1    2    0    0  0.50241999867E+02  0.21906182714E+02  0.52915260923E+03  0.10393063394E+04  0.89283315572E+03 0.  0.
         23    2    4    4    0    0  0.43392789901E+03  0.42511117303E+02  0.45884537853E+03  0.63987936681E+03  0.93839789225E+02 0.  0.
         23    2    4    4    0    0 -0.38368589914E+03 -0.20604934589E+02  0.70307230692E+02  0.39942697263E+03  0.83422822104E+02 0.  0.
          2    1    3    3  502    0 -0.24322186313E+02 -0.76295686248E+01 -0.10904409344E+03  0.11198389786E+03  0.00000000000E+00 0. -1.
         -1    1    3    3    0  502 -0.25919813554E+02 -0.14276614089E+02  0.48285144889E+01  0.29982878392E+02  0.00000000000E+00 0.  1.
         13    1    5    5    0    0  0.69532314048E+02 -0.27491641910E+02  0.83484737359E+02  0.11207245176E+03  0.00000000000E+00 0. -1.
        -13    1    5    5    0    0  0.36439558496E+03  0.70002759214E+02  0.37536064118E+03  0.52780691505E+03  0.00000000000E+00 0.  1.
          3    1    6    6  503    0 -0.24417730951E+03  0.17199130658E+02  0.71049696048E+02  0.25488512684E+03  0.00000000000E+00 0. -1.
         -3    1    6    6    0  503 -0.13950858962E+03 -0.37804065247E+02 -0.74246535628E+00  0.14454184578E+03  0.00000000000E+00 0.  1.
<mgrwt>
<rscale>  0 0.11021954E+04</rscale>
<asrwt>0</asrwt>
<pdfrwt beam="1">  1        2 0.58179699E-01 0.11021954E+04</pdfrwt>
<pdfrwt beam="2">  1       -1 0.12355463E+00 0.11021954E+04</pdfrwt>
<totfact> 0.55483862E+01</totfact>
</mgrwt>
</event>
<event>
12    7  0.1611233E-007  0.1321035E+04  0.7818608E-02  0.9013049E-01
          2   -1    0    0  501    0  0.00000000000E+00  0.00000000000E+00  0.11216400369E+04  0.11216400369E+04  0.00000000000E+00 0. -1.
         -1   -1    0    0    0  501 -0.00000000000E+00 -0.00000000000E+00 -0.38896901075E+03  0.38896901075E+03  0.00000000000E+00 0.  1.
         24    2    1    2    0    0  0.18215808161E+03 -0.16147257098E+03 -0.77557856892E+02  0.26774459566E+03  0.80106113774E+02 0.  0.
        254    2    1    2    0    0 -0.18215808161E+03  0.16147257098E+03  0.81022888305E+03  0.12428644520E+04  0.91048681773E+03 0.  0.
         23    2    4    4    0    0  0.19715688049E+03  0.28105346609E+03  0.75135746836E+03  0.83079898297E+03  0.88470438676E+02 0.  0.
         23    2    4    4    0    0 -0.37931496210E+03 -0.11958089511E+03  0.58871414693E+02  0.41206546904E+03  0.90292172178E+02 0.  0.
          2    1    3    3  502    0  0.92033577039E+02 -0.71713070553E+02  0.38300337491E+01  0.11673736741E+03  0.00000000000E+00 0. -1.
         -1    1    3    3    0  502  0.90124504573E+02 -0.89759500422E+02 -0.81387890641E+02  0.15100722825E+03  0.00000000000E+00 0.  1.
         13    1    5    5    0    0  0.13200139342E+03  0.24858804742E+03  0.60971203542E+03  0.67154236748E+03  0.00000000000E+00 0. -1.
        -13    1    5    5    0    0  0.65155487067E+02  0.32465418664E+02  0.14164543294E+03  0.15925661549E+03  0.00000000000E+00 0.  1.
          2    1    6    6  503    0 -0.15949346837E+03 -0.93400094852E+02  0.84564081068E+01  0.18502230949E+03  0.00000000000E+00 0. -1.
         -2    1    6    6    0  503 -0.21982149374E+03 -0.26180800259E+02  0.50415006587E+02  0.22704315955E+03  0.00000000000E+00 0.  1.
<mgrwt>
<rscale>  0 0.13210348E+04</rscale>
<asrwt>0</asrwt>
<pdfrwt beam="1">  1        2 0.17256000E+00 0.13210348E+04</pdfrwt>
<pdfrwt beam="2">  1       -1 0.59841387E-01 0.13210348E+04</pdfrwt>
<totfact> 0.66768155E+01</totfact>
</mgrwt>
</event>
<event>
12    7  0.1611233E-007  0.1395034E+04  0.7818608E-02  0.8957421E-01
          2   -1    0    0  501    0  0.00000000000E+00  0.00000000000E+00  0.28647036520E+04  0.28647036520E+04  0.00000000000E+00 0. -1.
         -1   -1    0    0    0  501 -0.00000000000E+00 -0.00000000000E+00 -0.16983616750E+03  0.16983616750E+03  0.00000000000E+00 0.  1.
         24    2    1    2    0    0 -0.10782041834E+03  0.37633545388E+03  0.10051255351E+04  0.10816974293E+04  0.80860192315E+02 0.  0.
        254    2    1    2    0    0  0.10782041834E+03 -0.37633545388E+03  0.16897419494E+04  0.19528423902E+04  0.89728029571E+03 0.  0.
         23    2    4    4    0    0  0.16413779417E+03 -0.59344748375E+03  0.15566909058E+04  0.16767379960E+04  0.95092585404E+02 0.  0.
         23    2    4    4    0    0 -0.56317375826E+02  0.21711202987E+03  0.13305104364E+03  0.27610439421E+03  0.90674009258E+02 0.  0.
          2    1    3    3  502    0 -0.10784399394E+03  0.37919347118E+03  0.97868701854E+03  0.10551048743E+04  0.00000000000E+00 0. -1.
         -1    1    3    3    0  502  0.23575599250E-01 -0.28580173026E+01  0.26438516598E+02  0.26592554947E+02  0.00000000000E+00 0.  1.
         13    1    5    5    0    0  0.14321636071E+03 -0.56784548076E+03  0.15094754528E+04  0.16190971430E+04  0.00000000000E+00 0.  1.
        -13    1    5    5    0    0  0.20921433459E+02 -0.25602002986E+02  0.47215452980E+02  0.57640853004E+02  0.00000000000E+00 0. -1.
          4    1    6    6  503    0  0.22741629971E+02  0.82000483770E+02  0.53405198997E+02  0.10046579693E+03  0.00000000000E+00 0. -1.
         -4    1    6    6    0  503 -0.79059005797E+02  0.13511154610E+03  0.79645844648E+02  0.17563859729E+03  0.00000000000E+00 0.  1.
<mgrwt>
<rscale>  0 0.13950345E+04</rscale>
<asrwt>0</asrwt>
<pdfrwt beam="1">  1        2 0.44072360E+00 0.13950345E+04</pdfrwt>
<pdfrwt beam="2">  1       -1 0.26128643E-01 0.13950345E+04</pdfrwt>
<totfact> 0.30628254E+01</totfact>
</mgrwt>
</event>
<event>
12    7  0.1956775E-007  0.2687746E+04  0.7818608E-02  0.8338992E-01
         -1   -1    0    0    0  501 -0.00000000000E+00  0.00000000000E+00  0.59317647549E+03  0.59317647549E+03  0.00000000000E+00 0.  1.
          2   -1    0    0  501    0  0.00000000000E+00 -0.00000000000E+00 -0.30446156121E+04  0.30446156121E+04  0.00000000000E+00 0. -1.
         24    2    1    2    0    0 -0.62538264508E+03  0.86044954177E+03 -0.35877550250E+03  0.11247586935E+04  0.69895569720E+02 0.  0.
        254    2    1    2    0    0  0.62538264508E+03 -0.86044954177E+03 -0.20926636341E+04  0.25130333941E+04  0.89700551152E+03 0.  0.
         23    2    4    4    0    0  0.66552416548E+03 -0.10081197613E+04 -0.18452082465E+04  0.22072973267E+04  0.90222767496E+02 0.  0.
         23    2    4    4    0    0 -0.40141520403E+02  0.14767021948E+03 -0.24745538765E+03  0.30573606742E+03  0.93928369838E+02 0.  0.
          4    1    3    3  502    0 -0.97263787239E+02  0.14461063861E+03 -0.32755404193E+02  0.17732850197E+03  0.00000000000E+00 0. -1.
         -3    1    3    3    0  502 -0.52811885784E+03  0.71583890316E+03 -0.32602009831E+03  0.94743019151E+03  0.00000000000E+00 0.  1.
         13    1    5    5    0    0  0.24300090338E+03 -0.34741336106E+03 -0.72458592681E+03  0.83950595461E+03  0.00000000000E+00 0. -1.
        -13    1    5    5    0    0  0.42252326211E+03 -0.66070640019E+03 -0.11206223197E+04  0.13677913721E+04  0.00000000000E+00 0.  1.
          1    1    6    6  503    0 -0.32657964840E+02  0.53773087739E+02 -0.31986954457E+02  0.70577991527E+02  0.00000000000E+00 0. -1.
         -1    1    6    6    0  503 -0.74835555627E+01  0.93897131740E+02 -0.21546843320E+03  0.23515807589E+03  0.00000000000E+00 0.  1.
<mgrwt>
<rscale>  0 0.26877458E+04</rscale>
<asrwt>0</asrwt>
<pdfrwt beam="1">  1        2 0.46840240E+00 0.26877458E+04</pdfrwt>
<pdfrwt beam="2">  1       -1 0.91257920E-01 0.26877458E+04</pdfrwt>
<totfact> 0.19079850E+00</totfact>
</mgrwt>
</event>
<event>
12    7  0.1611233E-007  0.2550954E+04  0.7818608E-02  0.8385054E-01
          2   -1    0    0  501    0  0.00000000000E+00  0.00000000000E+00  0.27232051508E+04  0.27232051508E+04  0.00000000000E+00 0. -1.
         -1   -1    0    0    0  501 -0.00000000000E+00 -0.00000000000E+00 -0.59739973008E+03  0.59739973008E+03  0.00000000000E+00 0.  1.
         24    2    1    2    0    0  0.32773244973E+03  0.93274013689E+03  0.16008740541E+04  0.18832149789E+04  0.79298159215E+02 0.  0.
        254    2    1    2    0    0 -0.32773244973E+03 -0.93274013689E+03  0.52493136662E+03  0.14373899020E+04  0.90173392368E+03 0.  0.
         23    2    4    4    0    0  0.21118894318E+03 -0.29420898355E+03 -0.10195758502E+03  0.38875168523E+03  0.97840829435E+02 0.  0.
         23    2    4    4    0    0 -0.53892139290E+03 -0.63853115335E+03  0.62688895163E+03  0.10486382168E+04  0.92163172996E+02 0.  0.
          2    1    3    3  502    0  0.29737890152E+03  0.89070042099E+03  0.15340031146E+04  0.17985958430E+04  0.00000000000E+00 0. -1.
         -1    1    3    3    0  502  0.30353548209E+02  0.42039715901E+02  0.66870939547E+02  0.84619135885E+02  0.00000000000E+00 0.  1.
         13    1    5    5    0    0  0.18108357456E+03 -0.22949801527E+03 -0.41602159778E+02  0.29528179708E+03  0.00000000000E+00 0.  1.
        -13    1    5    5    0    0  0.30105368622E+02 -0.64710968273E+02 -0.60355425237E+02  0.93469888148E+02  0.00000000000E+00 0. -1.
          3    1    6    6  503    0 -0.20042051066E+01  0.32810437296E+01  0.29030463625E+01  0.48176513207E+01  0.00000000000E+00 0. -1.
         -3    1    6    6    0  503 -0.53691718780E+03 -0.64181219708E+03  0.62398590527E+03  0.10438205654E+04  0.00000000000E+00 0.  1.
<mgrwt>
<rscale>  0 0.25509543E+04</rscale>
<asrwt>0</asrwt>
<pdfrwt beam="1">  1        2 0.41895463E+00 0.25509543E+04</pdfrwt>
<pdfrwt beam="2">  1       -1 0.91907653E-01 0.25509543E+04</pdfrwt>
<totfact> 0.29948291E+00</totfact>
</mgrwt>
</event>
<event>
12    7  0.3398599E-007  0.2539034E+04  0.7818608E-02  0.8389210E-01
          2   -1    0    0  501    0  0.00000000000E+00  0.00000000000E+00  0.25316930753E+04  0.25316930753E+04  0.00000000000E+00 0. -1.
         -1   -1    0    0    0  501 -0.00000000000E+00 -0.00000000000E+00 -0.63659889265E+03  0.63659889265E+03  0.00000000000E+00 0.  1.
         24    2    1    2    0    0 -0.12403113849E+03  0.77240743397E+03  0.18029471052E+04  0.19668486042E+04  0.76669423691E+02 0.  0.
        254    2    1    2    0    0  0.12403113849E+03 -0.77240743397E+03  0.92147077512E+02  0.12014433637E+04  0.90718140691E+03 0.  0.
         23    2    4    4    0    0 -0.26808956882E+02 -0.59675773174E+03  0.45834859901E+03  0.75847465081E+03  0.91443136182E+02 0.  0.
         23    2    4    4    0    0  0.15084009538E+03 -0.17564970223E+03 -0.36620152149E+03  0.44296871294E+03  0.92261443908E+02 0.  0.
          4    1    3    3  502    0 -0.96814647009E+02  0.57543003293E+03  0.12576250057E+04  0.13864030632E+04  0.00000000000E+00 0. -1.
         -3    1    3    3    0  502 -0.27216491484E+02  0.19697740103E+03  0.54532209949E+03  0.58044554105E+03  0.00000000000E+00 0.  1.
         13    1    5    5    0    0  0.79066798038E+01 -0.51701715744E+03  0.38423666775E+03  0.64421042643E+03  0.00000000000E+00 0. -1.
        -13    1    5    5    0    0 -0.34715636686E+02 -0.79740574297E+02  0.74111931251E+02  0.11426422438E+03  0.00000000000E+00 0.  1.
          2    1    6    6  503    0  0.76991341234E+02 -0.12067919381E+03 -0.29021405116E+03  0.32359748134E+03  0.00000000000E+00 0. -1.
         -2    1    6    6    0  503  0.73848754141E+02 -0.54970508419E+02 -0.75987470336E+02  0.11937123159E+03  0.00000000000E+00 0.  1.
<mgrwt>
<rscale>  0 0.25390337E+04</rscale>
<asrwt>0</asrwt>
<pdfrwt beam="1">  1        2 0.38949124E+00 0.25390337E+04</pdfrwt>
<pdfrwt beam="2">  1       -1 0.97938292E-01 0.25390337E+04</pdfrwt>
<totfact> 0.33711163E+00</totfact>
</mgrwt>
</event>
<event>
12    7  0.1611233E-007  0.1631865E+04  0.7818608E-02  0.8801208E-01
          2   -1    0    0  501    0  0.00000000000E+00  0.00000000000E+00  0.26238760965E+04  0.26238760965E+04  0.00000000000E+00 0. -1.
         -1   -1    0    0    0  501 -0.00000000000E+00 -0.00000000000E+00 -0.25372623143E+03  0.25372623143E+03  0.00000000000E+00 0.  1.
         24    2    1    2    0    0  0.36532041555E+03  0.33797692719E+03  0.12788683952E+04  0.13746246863E+04  0.80007791061E+02 0.  0.
        254    2    1    2    0    0 -0.36532041555E+03 -0.33797692719E+03  0.10912814699E+04  0.15029776416E+04  0.90573679146E+03 0.  0.
         23    2    4    4    0    0  0.18489806366E+03 -0.10898161869E+03 -0.23590895119E+02  0.23553683896E+03  0.94110493664E+02 0.  0.
         23    2    4    4    0    0 -0.55021847921E+03 -0.22899530850E+03  0.11148723650E+04  0.12674408027E+04  0.91030609426E+02 0.  0.
          2    1    3    3  502    0  0.26692327052E+03  0.25733608288E+03  0.85145485995E+03  0.92867931517E+03  0.00000000000E+00 0. -1.
         -1    1    3    3    0  502  0.98397145032E+02  0.80640844304E+02  0.42741353521E+03  0.44594537110E+03  0.00000000000E+00 0.  1.
         13    1    5    5    0    0  0.10174226871E+03 -0.91466331591E+02  0.22830287216E+02  0.13870400524E+03  0.00000000000E+00 0. -1.
        -13    1    5    5    0    0  0.83155794954E+02 -0.17515287102E+02 -0.46421182335E+02  0.96832833719E+02  0.00000000000E+00 0.  1.
          2    1    6    6  503    0 -0.31732468038E+03 -0.10883634345E+03  0.54112151818E+03  0.63667322849E+03  0.00000000000E+00 0. -1.
         -2    1    6    6    0  503 -0.23289379883E+03 -0.12015896505E+03  0.57375084680E+03  0.63076757417E+03  0.00000000000E+00 0.  1.
<mgrwt>
<rscale>  0 0.16318654E+04</rscale>
<asrwt>0</asrwt>
<pdfrwt beam="1">  1        2 0.40367323E+00 0.16318654E+04</pdfrwt>
<pdfrwt beam="2">  1       -1 0.39034807E-01 0.16318654E+04</pdfrwt>
<totfact> 0.20497061E+01</totfact>
</mgrwt>
</event>
<event>
12    7  0.1611233E-007  0.1643042E+04  0.7818608E-02  0.8794533E-01
         -1   -1    0    0    0  501 -0.00000000000E+00  0.00000000000E+00  0.15596773880E+04  0.15596773880E+04  0.00000000000E+00 0.  1.
          2   -1    0    0  501    0  0.00000000000E+00 -0.00000000000E+00 -0.43271585402E+03  0.43271585402E+03  0.00000000000E+00 0. -1.
         24    2    1    2    0    0 -0.53379700920E+02 -0.94408262548E+02 -0.28602857419E+03  0.31656986007E+03  0.81497352999E+02 0.  0.
        254    2    1    2    0    0  0.53379700920E+02  0.94408262548E+02  0.14129901082E+04  0.16758233820E+04  0.89447227414E+03 0.  0.
         23    2    4    4    0    0  0.19865909109E+03 -0.27548964621E+03  0.22128083247E+03  0.41611487628E+03  0.93948942563E+02 0.  0.
         23    2    4    4    0    0 -0.14527939017E+03  0.36989790875E+03  0.11917092757E+04  0.12597085057E+04  0.93616010087E+02 0.  0.
          4    1    3    3  502    0 -0.44319648265E+02 -0.29692680898E+02 -0.20829748890E+03  0.21502030231E+03  0.00000000000E+00 0. -1.
         -3    1    3    3    0  502 -0.90600526544E+01 -0.64715581650E+02 -0.77731085285E+02  0.10154955776E+03  0.00000000000E+00 0.  1.
         13    1    5    5    0    0  0.30456109028E+02 -0.13409837000E+02  0.51806023882E+02  0.61573228078E+02  0.00000000000E+00 0.  1.
        -13    1    5    5    0    0  0.16820298206E+03 -0.26207980921E+03  0.16947480858E+03  0.35454164821E+03  0.00000000000E+00 0. -1.
          4    1    6    6  503    0 -0.15584936970E+03  0.30789471955E+03  0.10246439098E+04  0.10811953229E+04  0.00000000000E+00 0. -1.
         -4    1    6    6    0  503  0.10569979526E+02  0.62003189203E+02  0.16706536586E+03  0.17851318273E+03  0.00000000000E+00 0.  1.
<mgrwt>
<rscale>  0 0.16430425E+04</rscale>
<asrwt>0</asrwt>
<pdfrwt beam="1">  1        2 0.66571671E-01 0.16430425E+04</pdfrwt>
<pdfrwt beam="2">  1       -1 0.23995036E+00 0.16430425E+04</pdfrwt>
<totfact> 0.64503200E+00</totfact>
</mgrwt>
</event>
<event>
12    7  0.1611233E-007  0.2542938E+04  0.7818608E-02  0.8387846E-01
          2   -1    0    0  501    0  0.00000000000E+00  0.00000000000E+00  0.21122427093E+04  0.21122427093E+04  0.00000000000E+00 0. -1.
         -1   -1    0    0    0  501 -0.00000000000E+00 -0.00000000000E+00 -0.76536351465E+03  0.76536351465E+03  0.00000000000E+00 0.  1.
         24    2    1    2    0    0  0.62151326244E+03  0.91856675011E+03  0.54033005790E+03  0.12360160729E+04  0.75733422116E+02 0.  0.
        254    2    1    2    0    0 -0.62151326244E+03 -0.91856675011E+03  0.80654913673E+03  0.16415901510E+04  0.90235974212E+03 0.  0.
         23    2    4    4    0    0 -0.17173433153E+03 -0.85860833763E+03  0.78322232152E+03  0.11783647518E+04  0.91680561688E+02 0.  0.
         23    2    4    4    0    0 -0.44977893091E+03 -0.59958412482E+02  0.23326815206E+02  0.46322539918E+03  0.90208271363E+02 0.  0.
          2    1    3    3  502    0  0.38834756867E+03  0.55918752066E+03  0.37133155890E+03  0.77549445129E+03  0.00000000000E+00 0. -1.
         -1    1    3    3    0  502  0.23316569376E+03  0.35937922945E+03  0.16899849901E+03  0.46052162162E+03  0.00000000000E+00 0.  1.
         13    1    5    5    0    0 -0.16279662284E+03 -0.83009611752E+03  0.77529367073E+03  0.11474504698E+04  0.00000000000E+00 0. -1.
        -13    1    5    5    0    0 -0.89377086860E+01 -0.28512220109E+02  0.79286507917E+01  0.30914282064E+02  0.00000000000E+00 0.  1.
          4    1    6    6  503    0 -0.36835285709E+03 -0.83531738526E+02  0.23797585975E+02  0.37845436154E+03  0.00000000000E+00 0. -1.
         -4    1    6    6    0  503 -0.81426073817E+02  0.23573326044E+02 -0.47077076838E+00  0.84771037644E+02  0.00000000000E+00 0.  1.
<mgrwt>
<rscale>  0 0.25429381E+04</rscale>
<asrwt>0</asrwt>
<pdfrwt beam="1">  1        2 0.32496041E+00 0.25429381E+04</pdfrwt>
<pdfrwt beam="2">  1       -1 0.11774823E+00 0.25429381E+04</pdfrwt>
<totfact> 0.37914110E+00</totfact>
</mgrwt>
</event>
<event>
12    7  0.1611233E-007  0.2050676E+04  0.7818608E-02  0.8583288E-01
          2   -1    0    0  501    0  0.00000000000E+00  0.00000000000E+00  0.12872996171E+04  0.12872996171E+04  0.00000000000E+00 0. -1.
         -1   -1    0    0    0  501 -0.00000000000E+00 -0.00000000000E+00 -0.81668487452E+03  0.81668487452E+03  0.00000000000E+00 0.  1.
         24    2    1    2    0    0  0.19580056651E+03  0.46303518866E+03 -0.47502194689E+03  0.69611001369E+03  0.78637480532E+02 0.  0.
        254    2    1    2    0    0 -0.19580056651E+03 -0.46303518866E+03  0.94563668949E+03  0.14078744780E+04  0.91386123094E+03 0.  0.
         23    2    4    4    0    0  0.30505957471E+03 -0.27847799692E+03  0.68926703133E+03  0.80863909902E+03  0.90536252920E+02 0.  0.
         23    2    4    4    0    0 -0.50086014122E+03 -0.18455719173E+03  0.25636965816E+03  0.59923537895E+03  0.91844431895E+02 0.  0.
          2    1    3    3  502    0  0.91504464397E+02  0.16474986184E+03 -0.22268940779E+03  0.29172959453E+03  0.00000000000E+00 0. -1.
         -1    1    3    3    0  502  0.10429610212E+03  0.29828532682E+03 -0.25233253910E+03  0.40438041916E+03  0.00000000000E+00 0.  1.
         13    1    5    5    0    0  0.14570249286E+03 -0.73507554188E+02  0.27092939697E+03  0.31628359915E+03  0.00000000000E+00 0.  1.
        -13    1    5    5    0    0  0.15935708185E+03 -0.20497044274E+03  0.41833763436E+03  0.49235549987E+03  0.00000000000E+00 0. -1.
          2    1    6    6  503    0 -0.71865327293E+02 -0.51642838107E+02  0.16300864116E+02  0.89985144138E+02  0.00000000000E+00 0. -1.
         -2    1    6    6    0  503 -0.42899481393E+03 -0.13291435363E+03  0.24006879405E+03  0.50925023481E+03  0.00000000000E+00 0.  1.
<mgrwt>
<rscale>  0 0.20506761E+04</rscale>
<asrwt>0</asrwt>
<pdfrwt beam="1">  1        2 0.19804610E+00 0.20506761E+04</pdfrwt>
<pdfrwt beam="2">  1       -1 0.12564383E+00 0.20506761E+04</pdfrwt>
<totfact> 0.97999727E+00</totfact>
</mgrwt>
</event>
<event>
12    7  0.1611233E-007  0.2043529E+04  0.7818608E-02  0.8586536E-01
          2   -1    0    0  501    0  0.00000000000E+00  0.00000000000E+00  0.35745706164E+04  0.35745706164E+04  0.00000000000E+00 0. -1.
         -1   -1    0    0    0  501 -0.00000000000E+00 -0.00000000000E+00 -0.29206373799E+03  0.29206373799E+03  0.00000000000E+00 0.  1.
         24    2    1    2    0    0  0.19805661473E+03  0.75467270812E+03  0.18554819960E+04  0.20144604665E+04  0.80499780433E+02 0.  0.
        254    2    1    2    0    0 -0.19805661473E+03 -0.75467270812E+03  0.14270248824E+04  0.18521738879E+04  0.88622275805E+03 0.  0.
         23    2    4    4    0    0  0.17544404964E+03 -0.51674340329E+03  0.27906241756E+03  0.61835795962E+03  0.81770250876E+02 0.  0.
         23    2    4    4    0    0 -0.37350066437E+03 -0.23792930482E+03  0.11479624649E+04  0.12338159283E+04  0.91492205802E+02 0.  0.
          2    1    3    3  502    0  0.19140969970E+03  0.72072573656E+03  0.17212391400E+04  0.18758324652E+04  0.00000000000E+00 0. -1.
         -1    1    3    3    0  502  0.66469150319E+01  0.33946971559E+02  0.13424285602E+03  0.13862800132E+03  0.00000000000E+00 0.  1.
         13    1    5    5    0    0  0.45017844097E+02 -0.16268805405E+03  0.46345123748E+02  0.17504822110E+03  0.00000000000E+00 0.  1.
        -13    1    5    5    0    0  0.13042620554E+03 -0.35405534925E+03  0.23271729381E+03  0.44330973852E+03  0.00000000000E+00 0. -1.
          1    1    6    6  503    0 -0.32376138705E+03 -0.18257862806E+03  0.87020703511E+03  0.94626459044E+03  0.00000000000E+00 0. -1.
         -1    1    6    6    0  503 -0.49739277329E+02 -0.55350676767E+02  0.27775542975E+03  0.28755133782E+03  0.00000000000E+00 0.  1.
<mgrwt>
<rscale>  0 0.20435288E+04</rscale>
<asrwt>0</asrwt>
<pdfrwt beam="1">  1        2 0.54993391E+00 0.20435288E+04</pdfrwt>
<pdfrwt beam="2">  1       -1 0.44932885E-01 0.20435288E+04</pdfrwt>
<totfact> 0.37471080E+00</totfact>
</mgrwt>
</event>
<event>
12    7  0.1611233E-007  0.2571437E+04  0.7818608E-02  0.8377969E-01
         -1   -1    0    0    0  501 -0.00000000000E+00  0.00000000000E+00  0.72634828061E+03  0.72634828061E+03  0.00000000000E+00 0.  1.
          2   -1    0    0  501    0  0.00000000000E+00 -0.00000000000E+00 -0.22758670798E+04  0.22758670798E+04  0.00000000000E+00 0. -1.
         24    2    1    2    0    0 -0.61840926321E+03  0.55530990743E+03  0.19154600989E+03  0.85659584929E+03  0.79167322787E+02 0.  0.
        254    2    1    2    0    0  0.61840926321E+03 -0.55530990743E+03 -0.17410648091E+04  0.21456195112E+04  0.93892348302E+03 0.  0.
         23    2    4    4    0    0  0.43063698919E+03 -0.15862000156E+02 -0.17130135436E+03  0.47287173218E+03  0.92540270067E+02 0.  0.
         23    2    4    4    0    0  0.18777227403E+03 -0.53944790728E+03 -0.15697634548E+04  0.16727477790E+04  0.87552022334E+02 0.  0.
          2    1    3    3  502    0 -0.13126939451E+00 -0.17571901877E+01  0.26895926102E+01  0.32154093703E+01  0.00000000000E+00 0. -1.
         -1    1    3    3    0  502 -0.61827799382E+03  0.55706709762E+03  0.18885641728E+03  0.85338043992E+03  0.00000000000E+00 0.  1.
         13    1    5    5    0    0  0.12459640456E+03  0.93919540795E+01 -0.83356183746E+01  0.12522761422E+03  0.00000000000E+00 0. -1.
        -13    1    5    5    0    0  0.30604058463E+03 -0.25253954236E+02 -0.16296573599E+03  0.34764411796E+03  0.00000000000E+00 0.  1.
          3    1    6    6  503    0  0.19222033542E+03 -0.47538771387E+03 -0.13642734499E+04  0.14574581236E+04  0.00000000000E+00 0. -1.
         -3    1    6    6    0  503 -0.44480613967E+01 -0.64060193404E+02 -0.20549000484E+03  0.21528965539E+03  0.00000000000E+00 0.  1.
<mgrwt>
<rscale>  0 0.25714371E+04</rscale>
<asrwt>0</asrwt>
<pdfrwt beam="1">  1        2 0.35013340E+00 0.25714371E+04</pdfrwt>
<pdfrwt beam="2">  1       -1 0.11174589E+00 0.25714371E+04</pdfrwt>
<totfact> 0.34683295E+00</totfact>
</mgrwt>
</event>
<event>
12    7  0.1611233E-007  0.1510021E+04  0.7818608E-02  0.8877816E-01
          2   -1    0    0  501    0  0.00000000000E+00  0.00000000000E+00  0.29863993725E+03  0.29863993725E+03  0.00000000000E+00 0. -1.
         -1   -1    0    0    0  501 -0.00000000000E+00 -0.00000000000E+00 -0.19087906599E+04  0.19087906599E+04  0.00000000000E+00 0.  1.
         24    2    1    2    0    0 -0.35872978473E+03 -0.22438908154E+03 -0.84666079746E+03  0.94971475843E+03  0.78013447940E+02 0.  0.
        254    2    1    2    0    0  0.35872978473E+03  0.22438908154E+03 -0.76348992515E+03  0.12577158387E+04  0.90548039553E+03 0.  0.
         23    2    4    4    0    0  0.63339162402E+03  0.90604468482E+02 -0.65713551683E+03  0.92143061740E+03  0.88392172220E+02 0.  0.
         23    2    4    4    0    0 -0.27466183929E+03  0.13378461305E+03 -0.10635440832E+03  0.33628522128E+03  0.91864254352E+02 0.  0.
          2    1    3    3  502    0 -0.19121895848E+02 -0.70309420906E+01 -0.90536236992E+02  0.92800276165E+02  0.00000000000E+00 0. -1.
         -1    1    3    3    0  502 -0.33960788888E+03 -0.21735813945E+03 -0.75612456047E+03  0.85691448226E+03  0.00000000000E+00 0.  1.
         13    1    5    5    0    0  0.11587704439E+03  0.41022494156E+02 -0.92004182293E+02  0.15354186400E+03  0.00000000000E+00 0. -1.
        -13    1    5    5    0    0  0.51751457963E+03  0.49581974327E+02 -0.56513133454E+03  0.76788875339E+03  0.00000000000E+00 0.  1.
          2    1    6    6  503    0 -0.63206306283E+02 -0.33413188668E+01 -0.14858424517E+01  0.63311999601E+02  0.00000000000E+00 0. -1.
         -2    1    6    6    0  503 -0.21145553301E+03  0.13712593192E+03 -0.10486856587E+03  0.27297322168E+03  0.00000000000E+00 0.  1.
<mgrwt>
<rscale>  0 0.15100214E+04</rscale>
<asrwt>0</asrwt>
<pdfrwt beam="1">  1        2 0.45944604E-01 0.15100214E+04</pdfrwt>
<pdfrwt beam="2">  1       -1 0.29366011E+00 0.15100214E+04</pdfrwt>
<totfact> 0.44385080E+00</totfact>
</mgrwt>
</event>
<event>
12    7  0.1611233E-007  0.2106105E+04  0.7818608E-02  0.8558559E-01
         -3   -1    0    0    0  501 -0.00000000000E+00  0.00000000000E+00  0.15745352039E+04  0.15745352039E+04  0.00000000000E+00 0.  1.
          4   -1    0    0  501    0  0.00000000000E+00 -0.00000000000E+00 -0.70428378979E+03  0.70428378979E+03  0.00000000000E+00 0. -1.
         24    2    1    2    0    0  0.27826652638E+03 -0.20274303075E+03  0.12062052166E+04  0.12569938327E+04  0.81027617155E+02 0.  0.
        254    2    1    2    0    0 -0.27826652638E+03  0.20274303075E+03 -0.33595380244E+03  0.10218251610E+04  0.90151245476E+03 0.  0.
         23    2    4    4    0    0  0.27010909825E+03  0.26931448242E+03 -0.21621002786E+03  0.44895058740E+03  0.96543453325E+02 0.  0.
         23    2    4    4    0    0 -0.54837562463E+03 -0.66571451664E+02 -0.11974377458E+03  0.57287457362E+03  0.93269082174E+02 0.  0.
          2    1    3    3  502    0 -0.31356378669E+01  0.34388471733E+01  0.11751383454E+02  0.12639339690E+02  0.00000000000E+00 0. -1.
         -1    1    3    3    0  502  0.28140216425E+03 -0.20618187793E+03  0.11944538331E+04  0.12443544930E+04  0.00000000000E+00 0.  1.
         13    1    5    5    0    0  0.17411778092E+03  0.10560366891E+03 -0.11516923616E+03  0.23395104077E+03  0.00000000000E+00 0.  1.
        -13    1    5    5    0    0  0.95991317326E+02  0.16371081351E+03 -0.10104079170E+03  0.21499954663E+03  0.00000000000E+00 0. -1.
          3    1    6    6  503    0 -0.59410662136E+02  0.20036628228E+02 -0.24105708717E+02  0.67172750718E+02  0.00000000000E+00 0. -1.
         -3    1    6    6    0  503 -0.48896496249E+03 -0.86608079892E+02 -0.95638065860E+02  0.50570182290E+03  0.00000000000E+00 0.  1.
<mgrwt>
<rscale>  0 0.21061051E+04</rscale>
<asrwt>0</asrwt>
<pdfrwt beam="1">  1        4 0.10835135E+00 0.21061051E+04</pdfrwt>
<pdfrwt beam="2">  1       -3 0.24223618E+00 0.21061051E+04</pdfrwt>
<totfact> 0.11634129E-01</totfact>
</mgrwt>
</event>
<event>
12    7  0.1611233E-007  0.1223370E+04  0.7818608E-02  0.9092643E-01
          2   -1    0    0  501    0  0.00000000000E+00  0.00000000000E+00  0.13472113452E+04  0.13472113452E+04  0.00000000000E+00 0. -1.
         -1   -1    0    0    0  501 -0.00000000000E+00 -0.00000000000E+00 -0.27772802701E+03  0.27772802701E+03  0.00000000000E+00 0.  1.
         24    2    1    2    0    0  0.21354303919E+03 -0.14786087985E+03  0.27999144668E+03  0.39675922043E+03  0.10751371729E+03 0.  0.
        254    2    1    2    0    0 -0.21354303919E+03  0.14786087985E+03  0.78949187148E+03  0.12281801518E+04  0.90424863873E+03 0.  0.
         23    2    4    4    0    0  0.25193218372E+03  0.44203830998E+02  0.67777976264E+03  0.73004483680E+03  0.90311977202E+02 0.  0.
         23    2    4    4    0    0 -0.46547522290E+03  0.10365704886E+03  0.11171210884E+03  0.49813531495E+03  0.90814260033E+02 0.  0.
          2    1    3    3  502    0  0.10582364990E+03 -0.11011148722E+03  0.96467757317E+02  0.18063557982E+03  0.00000000000E+00 0. -1.
         -1    1    3    3    0  502  0.10771938928E+03 -0.37749392636E+02  0.18352368936E+03  0.21612364061E+03  0.00000000000E+00 0.  1.
         13    1    5    5    0    0  0.40050316751E+02 -0.19556375016E+02  0.67463306403E+02  0.80856523462E+02  0.00000000000E+00 0.  1.
        -13    1    5    5    0    0  0.21188186697E+03  0.63760206014E+02  0.61031645624E+03  0.64918831334E+03  0.00000000000E+00 0. -1.
          4    1    6    6  503    0 -0.28150605565E+03  0.22754383449E+02  0.87734348074E+02  0.29573761540E+03  0.00000000000E+00 0. -1.
         -4    1    6    6    0  503 -0.18396916726E+03  0.80902665407E+02  0.23977760762E+02  0.20239769955E+03  0.00000000000E+00 0.  1.
<mgrwt>
<rscale>  0 0.12233697E+04</rscale>
<asrwt>0</asrwt>
<pdfrwt beam="1">  1        2 0.20726328E+00 0.12233697E+04</pdfrwt>
<pdfrwt beam="2">  1       -1 0.42727390E-01 0.12233697E+04</pdfrwt>
<totfact> 0.93944277E+01</totfact>
</mgrwt>
</event>
<event>
12    7  0.1611233E-007  0.2198933E+04  0.7818608E-02  0.8518872E-01
          2   -1    0    0  501    0  0.00000000000E+00  0.00000000000E+00  0.22899625317E+04  0.22899625317E+04  0.00000000000E+00 0. -1.
         -1   -1    0    0    0  501 -0.00000000000E+00 -0.00000000000E+00 -0.52788040230E+03  0.52788040230E+03  0.00000000000E+00 0.  1.
         24    2    1    2    0    0 -0.39300130684E+03 -0.62296433805E+03  0.45100622545E+02  0.74237686900E+03  0.80961446427E+02 0.  0.
        254    2    1    2    0    0  0.39300130684E+03  0.62296433805E+03  0.17169815069E+04  0.20754660650E+04  0.90388013502E+03 0.  0.
         23    2    4    4    0    0 -0.12040076541E+03  0.26948608889E+03  0.12589963848E+04  0.12963365443E+04  0.91090299649E+02 0.  0.
         23    2    4    4    0    0  0.51340207225E+03  0.35347824916E+03  0.45798512210E+03  0.77912952077E+03  0.93615584409E+02 0.  0.
          2    1    3    3  502    0 -0.11401668167E+03 -0.18172148960E+03  0.50142761388E+02  0.22031068971E+03  0.00000000000E+00 0. -1.
         -1    1    3    3    0  502 -0.27898462517E+03 -0.44124284845E+03 -0.50421388437E+01  0.52206617929E+03  0.00000000000E+00 0.  1.
         13    1    5    5    0    0 -0.22014568548E+02  0.52412115532E+02  0.43065494706E+03  0.43439078548E+03  0.00000000000E+00 0.  1.
        -13    1    5    5    0    0 -0.98386196861E+02  0.21707397336E+03  0.82834143773E+03  0.86194575880E+03  0.00000000000E+00 0. -1.
          1    1    6    6  503    0  0.35694428214E+03  0.19449292855E+03  0.27726848372E+03  0.49205135085E+03  0.00000000000E+00 0. -1.
         -1    1    6    6    0  503  0.15645779011E+03  0.15898532061E+03  0.18071663838E+03  0.28707816992E+03  0.00000000000E+00 0.  1.
<mgrwt>
<rscale>  0 0.21989328E+04</rscale>
<asrwt>0</asrwt>
<pdfrwt beam="1">  1        2 0.35230192E+00 0.21989328E+04</pdfrwt>
<pdfrwt beam="2">  1       -1 0.81212371E-01 0.21989328E+04</pdfrwt>
<totfact> 0.72177969E+00</totfact>
</mgrwt>
</event>
<event>
12    7  0.1611233E-007  0.2220434E+04  0.7818608E-02  0.8509971E-01
         -3   -1    0    0    0  501 -0.00000000000E+00  0.00000000000E+00  0.12198872482E+04  0.12198872482E+04  0.00000000000E+00 0.  1.
          4   -1    0    0  501    0  0.00000000000E+00 -0.00000000000E+00 -0.10104060630E+04  0.10104060630E+04  0.00000000000E+00 0. -1.
         24    2    1    2    0    0  0.74664869461E+02 -0.76273429431E+03 -0.42306413379E+03  0.87902330416E+03  0.79751247683E+02 0.  0.
        254    2    1    2    0    0 -0.74664869461E+02  0.76273429431E+03  0.63254531902E+03  0.13512700071E+04  0.91568477377E+03 0.  0.
         23    2    4    4    0    0 -0.15592308197E+02  0.20953398413E+03 -0.22787507197E+03  0.32284466809E+03  0.90299616327E+02 0.  0.
         23    2    4    4    0    0 -0.59072561264E+02  0.55320031019E+03  0.86042039099E+03  0.10284253390E+04  0.88404060536E+02 0.  0.
          2    1    3    3  502    0  0.47315244311E+02 -0.43852216317E+03 -0.28782621838E+03  0.52667290790E+03  0.00000000000E+00 0. -1.
         -1    1    3    3    0  502  0.27349625151E+02 -0.32421213115E+03 -0.13523791541E+03  0.35235039626E+03  0.00000000000E+00 0.  1.
         13    1    5    5    0    0 -0.96579891430E+01  0.59278807982E+02 -0.14464198087E+02  0.61777559489E+02  0.00000000000E+00 0. -1.
        -13    1    5    5    0    0 -0.59343190544E+01  0.15025517614E+03 -0.21341087388E+03  0.26106710860E+03  0.00000000000E+00 0.  1.
          1    1    6    6  503    0  0.17850334378E+02  0.43615656719E+02  0.57545529445E+02  0.74380426911E+02  0.00000000000E+00 0. -1.
         -1    1    6    6    0  503 -0.76922895642E+02  0.50958465347E+03  0.80287486155E+03  0.95404491206E+03  0.00000000000E+00 0.  1.
<mgrwt>
<rscale>  0 0.22204337E+04</rscale>
<asrwt>0</asrwt>
<pdfrwt beam="1">  1        4 0.15544709E+00 0.22204337E+04</pdfrwt>
<pdfrwt beam="2">  1       -3 0.18767496E+00 0.22204337E+04</pdfrwt>
<totfact> 0.99160266E-02</totfact>
</mgrwt>
</event>
<event>
12    7  0.1611233E-007  0.2414173E+04  0.7818608E-02  0.8434217E-01
         -1   -1    0    0    0  501 -0.00000000000E+00  0.00000000000E+00  0.13188536692E+04  0.13188536692E+04  0.00000000000E+00 0.  1.
          2   -1    0    0  501    0  0.00000000000E+00 -0.00000000000E+00 -0.11047908193E+04  0.11047908193E+04  0.00000000000E+00 0. -1.
         24    2    1    2    0    0 -0.55175596286E+03 -0.56954082600E+03 -0.58085743889E+03  0.98648892887E+03  0.83388533016E+02 0.  0.
        254    2    1    2    0    0  0.55175596286E+03  0.56954082600E+03  0.79492028877E+03  0.14371555596E+04  0.89705431380E+03 0.  0.
         23    2    4    4    0    0  0.58048927518E+03  0.24837442006E+02  0.62791039492E+03  0.86041135634E+03  0.91932262744E+02 0.  0.
         23    2    4    4    0    0 -0.28733312320E+02  0.54470338399E+03  0.16700989385E+03  0.57674420324E+03  0.84936397161E+02 0.  0.
          4    1    3    3  502    0 -0.51105122119E+03 -0.54445048041E+03 -0.56400727511E+03  0.93579051218E+03  0.00000000000E+00 0. -1.
         -3    1    3    3    0  502 -0.40704741668E+02 -0.25090345586E+02 -0.16850163784E+02  0.50698416696E+02  0.00000000000E+00 0.  1.
         13    1    5    5    0    0  0.12909128809E+03  0.45139590573E+01  0.87653860112E+02  0.15610296499E+03  0.00000000000E+00 0.  1.
        -13    1    5    5    0    0  0.45139798709E+03  0.20323482948E+02  0.54025653481E+03  0.70430839134E+03  0.00000000000E+00 0. -1.
          2    1    6    6  503    0 -0.39463708998E+01  0.18305013329E+03  0.15148348458E+02  0.18371825604E+03  0.00000000000E+00 0. -1.
         -2    1    6    6    0  503 -0.24786941420E+02  0.36165325070E+03  0.15186154539E+03  0.39302594720E+03  0.00000000000E+00 0.  1.
<mgrwt>
<rscale>  0 0.24141727E+04</rscale>
<asrwt>0</asrwt>
<pdfrwt beam="1">  1        2 0.16996782E+00 0.24141727E+04</pdfrwt>
<pdfrwt beam="2">  1       -1 0.20290057E+00 0.24141727E+04</pdfrwt>
<totfact> 0.31846045E+00</totfact>
</mgrwt>
</event>
<event>
12    7  0.1611233E-007  0.2476773E+04  0.7818608E-02  0.8411307E-01
         -1   -1    0    0    0  501 -0.00000000000E+00  0.00000000000E+00  0.33247055827E+03  0.33247055827E+03  0.00000000000E+00 0.  1.
          2   -1    0    0  501    0  0.00000000000E+00 -0.00000000000E+00 -0.46127431064E+04  0.46127431064E+04  0.00000000000E+00 0. -1.
         24    2    1    2    0    0  0.75623788660E+03  0.75611946078E+03 -0.20913576217E+04  0.23509275813E+04  0.97321172294E+02 0.  0.
        254    2    1    2    0    0 -0.75623788660E+03 -0.75611946078E+03 -0.21889149264E+04  0.25942860833E+04  0.89182921407E+03 0.  0.
         23    2    4    4    0    0  0.13356951225E+03 -0.24389118000E+03 -0.88639377024E+03  0.93334486534E+03  0.90083291717E+02 0.  0.
         23    2    4    4    0    0 -0.88980739885E+03 -0.51222828078E+03 -0.13025211562E+04  0.16609412180E+04  0.89606633245E+02 0.  0.
          2    1    3    3  502    0  0.58705466751E+02  0.98013065008E+02 -0.19964446681E+03  0.23002348981E+03  0.00000000000E+00 0. -1.
         -1    1    3    3    0  502  0.69753241985E+03  0.65810639577E+03 -0.18917131549E+04  0.21209040915E+04  0.00000000000E+00 0.  1.
         13    1    5    5    0    0  0.88993152679E+02 -0.22836919694E+03 -0.74233167872E+03  0.78174714107E+03  0.00000000000E+00 0.  1.
        -13    1    5    5    0    0  0.44576359571E+02 -0.15521983058E+02 -0.14406209152E+03  0.15159772427E+03  0.00000000000E+00 0. -1.
          4    1    6    6  503    0 -0.27600149327E+03 -0.18939794749E+03 -0.47762168025E+03  0.58324169625E+03  0.00000000000E+00 0. -1.
         -4    1    6    6    0  503 -0.61380590559E+03 -0.32283033328E+03 -0.82489947592E+03  0.10776995218E+04  0.00000000000E+00 0.  1.
<mgrwt>
<rscale>  0 0.24767731E+04</rscale>
<asrwt>0</asrwt>
<pdfrwt beam="1">  1        2 0.70965278E+00 0.24767731E+04</pdfrwt>
<pdfrwt beam="2">  1       -1 0.51149317E-01 0.24767731E+04</pdfrwt>
<totfact> 0.37301739E-01</totfact>
</mgrwt>
</event>
<event>
12    7  0.1611233E-007  0.1970559E+04  0.7818608E-02  0.8620510E-01
          2   -1    0    0  501    0  0.00000000000E+00  0.00000000000E+00  0.18633379301E+04  0.18633379301E+04  0.00000000000E+00 0. -1.
         -1   -1    0    0    0  501 -0.00000000000E+00 -0.00000000000E+00 -0.52098737649E+03  0.52098737649E+03  0.00000000000E+00 0.  1.
         24    2    1    2    0    0  0.15169427460E+03  0.30137526409E+03 -0.31911340412E+03  0.47277746000E+03  0.88583064092E+02 0.  0.
        254    2    1    2    0    0 -0.15169427460E+03 -0.30137526409E+03  0.16614639577E+04  0.19115478466E+04  0.88301443035E+03 0.  0.
         23    2    4    4    0    0 -0.20547042890E+03 -0.35976874218E+03  0.24180855651E+03  0.48648158789E+03  0.80878380062E+02 0.  0.
         23    2    4    4    0    0  0.53776154297E+02  0.58393478084E+02  0.14196554012E+04  0.14250662587E+04  0.95345216981E+02 0.  0.
          2    1    3    3  502    0  0.21603326523E+02  0.44813736333E+01 -0.79461941940E+01  0.23450552844E+02  0.00000000000E+00 0. -1.
         -1    1    3    3    0  502  0.13009094808E+03  0.29689389046E+03 -0.31116720993E+03  0.44932690716E+03  0.00000000000E+00 0.  1.
         13    1    5    5    0    0 -0.17256558080E+03 -0.26392118388E+03  0.21501634451E+03  0.38166123642E+03  0.00000000000E+00 0. -1.
        -13    1    5    5    0    0 -0.32904848091E+02 -0.95847558300E+02  0.26792211998E+02  0.10482035148E+03  0.00000000000E+00 0.  1.
          3    1    6    6  503    0  0.78184665550E+02  0.46013142967E+02  0.86694501381E+03  0.87167867258E+03  0.00000000000E+00 0. -1.
         -3    1    6    6    0  503 -0.24408511253E+02  0.12380335117E+02  0.55271038740E+03  0.55338758611E+03  0.00000000000E+00 0.  1.
<mgrwt>
<rscale>  0 0.19705588E+04</rscale>
<asrwt>0</asrwt>
<pdfrwt beam="1">  1        2 0.28666737E+00 0.19705588E+04</pdfrwt>
<pdfrwt beam="2">  1       -1 0.80151905E-01 0.19705588E+04</pdfrwt>
<totfact> 0.13110059E+01</totfact>
</mgrwt>
</event>
<event>
12    7  0.1611233E-007  0.1993377E+04  0.7818608E-02  0.8609723E-01
          2   -1    0    0  501    0  0.00000000000E+00  0.00000000000E+00  0.15355710193E+04  0.15355710193E+04  0.00000000000E+00 0. -1.
         -1   -1    0    0    0  501 -0.00000000000E+00 -0.00000000000E+00 -0.64691757843E+03  0.64691757843E+03  0.00000000000E+00 0.  1.
         24    2    1    2    0    0  0.38983133026E+03 -0.30430089029E+03 -0.32041236542E+03  0.59449101672E+03  0.78663760135E+02 0.  0.
        254    2    1    2    0    0 -0.38983133026E+03  0.30430089029E+03  0.12090658063E+04  0.15879975810E+04  0.90295553349E+03 0.  0.
         23    2    4    4    0    0  0.20261628937E+03  0.24985262522E+03  0.78067696907E+03  0.84951551782E+03  0.93490052559E+02 0.  0.
         23    2    4    4    0    0 -0.59244761963E+03  0.54448265073E+02  0.42838883720E+03  0.73848206317E+03  0.88769173785E+02 0.  0.
          2    1    3    3  502    0 -0.17356698069E+01  0.24008320899E+01 -0.25203711015E+00  0.29732250348E+01  0.00000000000E+00 0. -1.
         -3    1    3    3    0  502  0.39156700007E+03 -0.30670172238E+03 -0.32016032831E+03  0.59151779168E+03  0.00000000000E+00 0.  1.
         13    1    5    5    0    0  0.34052770317E+02  0.39102023269E+02  0.23624025549E+03  0.24186363452E+03  0.00000000000E+00 0.  1.
        -13    1    5    5    0    0  0.16856351905E+03  0.21075060195E+03  0.54443671358E+03  0.60765188329E+03  0.00000000000E+00 0. -1.
          4    1    6    6  503    0 -0.55459377971E+03  0.29570502560E+02  0.40598096030E+03  0.68794564847E+03  0.00000000000E+00 0. -1.
         -4    1    6    6    0  503 -0.37853839918E+02  0.24877762513E+02  0.22407876900E+02  0.50536414706E+02  0.00000000000E+00 0.  1.
<mgrwt>
<rscale>  0 0.19933769E+04</rscale>
<asrwt>0</asrwt>
<pdfrwt beam="1">  1        2 0.23624169E+00 0.19933769E+04</pdfrwt>
<pdfrwt beam="2">  1       -1 0.99525781E-01 0.19933769E+04</pdfrwt>
<totfact> 0.12368391E+01</totfact>
</mgrwt>
</event>
<event>
12    7  0.1611233E-007  0.2662429E+04  0.7818608E-02  0.8347299E-01
         -1   -1    0    0    0  501 -0.00000000000E+00  0.00000000000E+00  0.65693601772E+03  0.65693601772E+03  0.00000000000E+00 0.  1.
          2   -1    0    0  501    0  0.00000000000E+00 -0.00000000000E+00 -0.26975712792E+04  0.26975712792E+04  0.00000000000E+00 0. -1.
         24    2    1    2    0    0  0.20458788994E+03  0.91047241951E+03  0.37405081026E+01  0.93661672948E+03  0.80129115373E+02 0.  0.
        254    2    1    2    0    0 -0.20458788994E+03 -0.91047241951E+03 -0.20443757696E+04  0.24178905675E+04  0.89213579541E+03 0.  0.
         23    2    4    4    0    0  0.11093115823E+03  0.81563374205E+02 -0.61868078181E+02  0.17664526018E+03  0.91747386707E+02 0.  0.
         23    2    4    4    0    0 -0.31551904817E+03 -0.99203579372E+03 -0.19825076914E+04  0.22412453073E+04  0.95689576624E+02 0.  0.
          4    1    3    3  502    0  0.10291576687E+03  0.38069188417E+03  0.37349064218E+02  0.39612235274E+03  0.00000000000E+00 0. -1.
         -3    1    3    3    0  502  0.10167212306E+03  0.52978053534E+03 -0.33608556116E+02  0.54049437674E+03  0.00000000000E+00 0.  1.
         13    1    5    5    0    0  0.79183247638E+02  0.73376253186E+01 -0.87392693761E+01  0.80001264246E+02  0.00000000000E+00 0. -1.
        -13    1    5    5    0    0  0.31747910594E+02  0.74225748887E+02 -0.53128808805E+02  0.96643995933E+02  0.00000000000E+00 0.  1.
          2    1    6    6  503    0 -0.58522147687E+02 -0.20042640162E+03 -0.32085887116E+03  0.38281326967E+03  0.00000000000E+00 0. -1.
         -2    1    6    6    0  503 -0.25699690048E+03 -0.79160939210E+03 -0.16616488203E+04  0.18584320376E+04  0.00000000000E+00 0.  1.
<mgrwt>
<rscale>  0 0.26624288E+04</rscale>
<asrwt>0</asrwt>
<pdfrwt beam="1">  1        2 0.41501096E+00 0.26624288E+04</pdfrwt>
<pdfrwt beam="2">  1       -1 0.10106708E+00 0.26624288E+04</pdfrwt>
<totfact> 0.24788651E+00</totfact>
</mgrwt>
</event>
<event>
12    7  0.1611233E-007  0.1646096E+04  0.7818608E-02  0.8792720E-01
         -1   -1    0    0    0  501 -0.00000000000E+00  0.00000000000E+00  0.55504656342E+03  0.55504656342E+03  0.00000000000E+00 0.  1.
          2   -1    0    0  501    0  0.00000000000E+00 -0.00000000000E+00 -0.12204519309E+04  0.12204519309E+04  0.00000000000E+00 0. -1.
         24    2    1    2    0    0 -0.42001065889E+03  0.18539151588E+03  0.13103431052E+03  0.48474551956E+03  0.83840684948E+02 0.  0.
        254    2    1    2    0    0  0.42001065889E+03 -0.18539151588E+03 -0.79643967796E+03  0.12907529747E+04  0.90606187062E+03 0.  0.
         23    2    4    4    0    0 -0.98662036621E+02 -0.28828815130E+03  0.14395185773E+02  0.31847643454E+03  0.91519191052E+02 0.  0.
         23    2    4    4    0    0  0.51867269551E+03  0.10289663542E+03 -0.81083486373E+03  0.97227654019E+03  0.90881305608E+02 0.  0.
          2    1    3    3  502    0 -0.14393349983E+03  0.88655142199E+02  0.13849360352E+02  0.16961247417E+03  0.00000000000E+00 0. -1.
         -1    1    3    3    0  502 -0.27607715906E+03  0.96736373684E+02  0.11718495017E+03  0.31513304539E+03  0.00000000000E+00 0.  1.
         13    1    5    5    0    0 -0.18266274245E+01 -0.16460527571E+02  0.24692163025E+02  0.29731943269E+02  0.00000000000E+00 0.  1.
        -13    1    5    5    0    0 -0.96835409196E+02 -0.27182762373E+03 -0.10296977252E+02  0.28874449127E+03  0.00000000000E+00 0. -1.
          1    1    6    6  503    0  0.27579514474E+03  0.84831811283E+02 -0.37695806799E+03  0.47471758246E+03  0.00000000000E+00 0. -1.
         -1    1    6    6    0  503  0.24287755077E+03  0.18064824138E+02 -0.43387679574E+03  0.49755895773E+03  0.00000000000E+00 0.  1.
<mgrwt>
<rscale>  0 0.16460956E+04</rscale>
<asrwt>0</asrwt>
<pdfrwt beam="1">  1        2 0.18776183E+00 0.16460956E+04</pdfrwt>
<pdfrwt beam="2">  1       -1 0.85391780E-01 0.16460956E+04</pdfrwt>
<totfact> 0.27200027E+01</totfact>
</mgrwt>
</event>
<event>
12    7  0.1611233E-007  0.1187151E+04  0.7818608E-02  0.9124178E-01
          2   -1    0    0  501    0  0.00000000000E+00  0.00000000000E+00  0.60915662445E+03  0.60915662445E+03  0.00000000000E+00 0. -1.
         -1   -1    0    0    0  501 -0.00000000000E+00 -0.00000000000E+00 -0.57839291833E+03  0.57839291833E+03  0.00000000000E+00 0.  1.
         24    2    1    2    0    0  0.10998139030E+03  0.54656514620E+02  0.21002627810E+03  0.25578248680E+03  0.78932897194E+02 0.  0.
        254    2    1    2    0    0 -0.10998139030E+03 -0.54656514620E+02 -0.17926257199E+03  0.93176705597E+03  0.90607479607E+03 0.  0.
         23    2    4    4    0    0  0.26372251593E+03 -0.19287843529E+03 -0.35062210769E+03  0.48878310950E+03  0.96028170479E+02 0.  0.
         23    2    4    4    0    0 -0.37370390622E+03  0.13822192067E+03  0.17135953570E+03  0.44298394647E+03  0.90059854986E+02 0.  0.
          4    1    3    3  502    0  0.10995011795E+02  0.26290621600E+02  0.10460431514E+03  0.10841655692E+03  0.00000000000E+00 0. -1.
         -3    1    3    3    0  502  0.98986378500E+02  0.28365893020E+02  0.10542196297E+03  0.14736592989E+03  0.00000000000E+00 0.  1.
         13    1    5    5    0    0  0.11049532318E+03 -0.30640435458E+02 -0.14915186040E+03  0.18813380927E+03  0.00000000000E+00 0. -1.
        -13    1    5    5    0    0  0.15322719275E+03 -0.16223799983E+03 -0.20147024729E+03  0.30064930023E+03  0.00000000000E+00 0.  1.
          1    1    6    6  503    0 -0.59560385070E+02  0.18187457803E+02  0.65597320101E+02  0.90450160284E+02  0.00000000000E+00 0. -1.
         -1    1    6    6    0  503 -0.31414352115E+03  0.12003446287E+03  0.10576221560E+03  0.35253378619E+03  0.00000000000E+00 0.  1.
<mgrwt>
<rscale>  0 0.11871510E+04</rscale>
<asrwt>0</asrwt>
<pdfrwt beam="1">  1        2 0.93716404E-01 0.11871510E+04</pdfrwt>
<pdfrwt beam="2">  1       -1 0.88983526E-01 0.11871510E+04</pdfrwt>
<totfact> 0.68101730E+01</totfact>
</mgrwt>
</event>
<event>
12    7  0.1611233E-007  0.1948436E+04  0.7818608E-02  0.8631115E-01
          2   -1    0    0  501    0  0.00000000000E+00  0.00000000000E+00  0.11070400519E+04  0.11070400519E+04  0.00000000000E+00 0. -1.
         -1   -1    0    0    0  501 -0.00000000000E+00 -0.00000000000E+00 -0.85733180776E+03  0.85733180776E+03  0.00000000000E+00 0.  1.
         24    2    1    2    0    0 -0.94921840382E+02 -0.44018539981E+03  0.69833596080E+03  0.83468404286E+03  0.79063235959E+02 0.  0.
        254    2    1    2    0    0  0.94921840382E+02  0.44018539981E+03 -0.44862771661E+03  0.11296878169E+04  0.93389206734E+03 0.  0.
         23    2    4    4    0    0  0.47455985358E+03  0.24347886213E+03 -0.43208860159E+03  0.69234846240E+03  0.90315130678E+02 0.  0.
         23    2    4    4    0    0 -0.37963801320E+03  0.19670653768E+03 -0.16539115018E+02  0.43733935445E+03  0.90408437629E+02 0.  0.
          4    1    3    3  502    0 -0.84505831262E+02 -0.20652149462E+03  0.35177984488E+03  0.41658303197E+03  0.00000000000E+00 0. -1.
         -3    1    3    3    0  502 -0.10416009120E+02 -0.23366390518E+03  0.34655611591E+03  0.41810101089E+03  0.00000000000E+00 0.  1.
         13    1    5    5    0    0  0.41389284283E+03  0.17474460626E+03 -0.36108132912E+03  0.57638762045E+03  0.00000000000E+00 0.  1.
        -13    1    5    5    0    0  0.60667010747E+02  0.68734255867E+02 -0.71007272473E+02  0.11596084195E+03  0.00000000000E+00 0. -1.
          3    1    6    6  503    0 -0.95634423158E+02  0.94748759521E+02 -0.16154634038E+02  0.13558850440E+03  0.00000000000E+00 0.  1.
         -3    1    6    6    0  503 -0.28400359004E+03  0.10195777816E+03 -0.38448098013E+00  0.30175085006E+03  0.00000000000E+00 0. -1.
<mgrwt>
<rscale>  0 0.19484359E+04</rscale>
<asrwt>0</asrwt>
<pdfrwt beam="1">  1        2 0.17031385E+00 0.19484359E+04</pdfrwt>
<pdfrwt beam="2">  1       -1 0.13189720E+00 0.19484359E+04</pdfrwt>
<totfact> 0.11219469E+01</totfact>
</mgrwt>
</event>
<event>
12    7  0.1611233E-007  0.1645058E+04  0.7818608E-02  0.8793335E-01
          2   -1    0    0  501    0  0.00000000000E+00  0.00000000000E+00  0.19165715328E+04  0.19165715328E+04  0.00000000000E+00 0. -1.
         -1   -1    0    0    0  501 -0.00000000000E+00 -0.00000000000E+00 -0.35300231441E+03  0.35300231441E+03  0.00000000000E+00 0.  1.
         24    2    1    2    0    0 -0.25716978484E+03  0.18084825382E+03  0.11654617373E+04  0.12098285525E+04  0.80880629020E+02 0.  0.
        254    2    1    2    0    0  0.25716978484E+03 -0.18084825382E+03  0.39810748106E+03  0.10597452947E+04  0.93044512682E+03 0.  0.
         23    2    4    4    0    0  0.24775566031E+03  0.23540814108E+03 -0.13432493205E+03  0.37828296742E+03  0.90856788216E+02 0.  0.
         23    2    4    4    0    0  0.94141245314E+01 -0.41625639490E+03  0.53243241312E+03  0.68146232728E+03  0.86882776958E+02 0.  0.
          4    1    3    3  502    0 -0.60488998292E+02  0.87977531198E+02  0.41088187191E+03  0.42452665119E+03  0.00000000000E+00 0. -1.
         -3    1    3    3    0  502 -0.19668078655E+03  0.92870722625E+02  0.75457986544E+03  0.78530190134E+03  0.00000000000E+00 0.  1.
         13    1    5    5    0    0  0.24800448258E+03  0.20180900755E+03 -0.12597545799E+03  0.34366104656E+03  0.00000000000E+00 0. -1.
        -13    1    5    5    0    0 -0.24882227285E+00  0.33599133529E+02 -0.83494740569E+01  0.34621920851E+02  0.00000000000E+00 0.  1.
          2    1    6    6  503    0 -0.48862009948E+01 -0.20307130107E+02  0.67246248211E+02  0.70415285214E+02  0.00000000000E+00 0.  1.
         -2    1    6    6    0  503  0.14300325526E+02 -0.39594926480E+03  0.46518616490E+03  0.61104704207E+03  0.00000000000E+00 0. -1.
<mgrwt>
<rscale>  0 0.16450583E+04</rscale>
<asrwt>0</asrwt>
<pdfrwt beam="1">  1        2 0.29485715E+00 0.16450583E+04</pdfrwt>
<pdfrwt beam="2">  1       -1 0.54308049E-01 0.16450583E+04</pdfrwt>
<totfact> 0.27710823E+01</totfact>
</mgrwt>
</event>
<event>
12    7  0.1611233E-007  0.1703198E+04  0.7818608E-02  0.8759543E-01
          2   -1    0    0  501    0  0.00000000000E+00  0.00000000000E+00  0.12858452705E+04  0.12858452705E+04  0.00000000000E+00 0. -1.
         -1   -1    0    0    0  501 -0.00000000000E+00 -0.00000000000E+00 -0.56400315655E+03  0.56400315655E+03  0.00000000000E+00 0.  1.
         24    2    1    2    0    0 -0.44211433695E+03  0.23543953212E+03 -0.12773512257E+03  0.52351436787E+03  0.82789924509E+02 0.  0.
        254    2    1    2    0    0  0.44211433695E+03 -0.23543953212E+03  0.84957723655E+03  0.13263340592E+04  0.88683915989E+03 0.  0.
         23    2    4    4    0    0  0.37269327662E+03  0.48531362774E+02  0.93179747854E+03  0.10084152621E+04  0.86018767026E+02 0.  0.
         23    2    4    4    0    0  0.69421060333E+02 -0.28397089490E+03 -0.82220241987E+02  0.31791879707E+03  0.94092723277E+02 0.  0.
          2    1    3    3  502    0 -0.16533974464E+02  0.25257993926E+02 -0.21655990855E+02  0.37152664893E+02  0.00000000000E+00 0. -1.
         -1    1    3    3    0  502 -0.42558036249E+03  0.21018153820E+03 -0.10607913172E+03  0.48636170298E+03  0.00000000000E+00 0.  1.
         13    1    5    5    0    0  0.21028579017E+03  0.33637971238E+02  0.41431665726E+03  0.46584323451E+03  0.00000000000E+00 0.  1.
        -13    1    5    5    0    0  0.16240748645E+03  0.14893391536E+02  0.51748082128E+03  0.54257202763E+03  0.00000000000E+00 0. -1.
          4    1    6    6  503    0  0.19668971185E+02 -0.23873326790E+03 -0.58173130111E+02  0.24650467480E+03  0.00000000000E+00 0.  1.
         -4    1    6    6    0  503  0.49752089148E+02 -0.45237626997E+02 -0.24047111877E+02  0.71414122276E+02  0.00000000000E+00 0. -1.
<mgrwt>
<rscale>  0 0.17031979E+04</rscale>
<asrwt>0</asrwt>
<pdfrwt beam="1">  1        2 0.19782235E+00 0.17031979E+04</pdfrwt>
<pdfrwt beam="2">  1       -1 0.86769717E-01 0.17031979E+04</pdfrwt>
<totfact> 0.23921953E+01</totfact>
</mgrwt>
</event>
<event>
12    7  0.1611233E-007  0.1104761E+04  0.7818608E-02  0.9200564E-01
         -1   -1    0    0    0  501 -0.00000000000E+00  0.00000000000E+00  0.46092323662E+03  0.46092323662E+03  0.00000000000E+00 0.  1.
          2   -1    0    0  501    0  0.00000000000E+00 -0.00000000000E+00 -0.66198492853E+03  0.66198492853E+03  0.00000000000E+00 0. -1.
         24    2    1    2    0    0 -0.12976730765E+03  0.73894472337E+02 -0.11749468622E+03  0.20659351431E+03  0.81092118538E+02 0.  0.
        254    2    1    2    0    0  0.12976730765E+03 -0.73894472337E+02 -0.83567005697E+02  0.91631465084E+03  0.90019395006E+03 0.  0.
         23    2    4    4    0    0 -0.23696190284E+03 -0.31534666734E+03 -0.20339544289E+03  0.45289560553E+03  0.90278786650E+02 0.  0.
         23    2    4    4    0    0  0.36672921049E+03  0.24145219500E+03  0.11982843720E+03  0.46341904531E+03  0.87228899468E+02 0.  0.
          4    1    3    3  502    0 -0.13218212521E+03  0.79924501980E+02 -0.90924602652E+02  0.17924096521E+03  0.00000000000E+00 0. -1.
         -3    1    3    3    0  502  0.24148175667E+01 -0.60300296428E+01 -0.26570083566E+02  0.27352549097E+02  0.00000000000E+00 0.  1.
         13    1    5    5    0    0 -0.22015829195E+03 -0.23292192760E+03 -0.15884491822E+03  0.35770659193E+03  0.00000000000E+00 0.  1.
        -13    1    5    5    0    0 -0.16803610890E+02 -0.82424739740E+02 -0.44550524674E+02  0.95189013594E+02  0.00000000000E+00 0. -1.
          1    1    6    6  503    0  0.77673607652E+02  0.77130196974E+02 -0.15071585833E+01  0.10947386966E+03  0.00000000000E+00 0. -1.
         -1    1    6    6    0  503  0.28905560283E+03  0.16432199803E+03  0.12133559578E+03  0.35394517565E+03  0.00000000000E+00 0.  1.
<mgrwt>
<rscale>  0 0.11047610E+04</rscale>
<asrwt>0</asrwt>
<pdfrwt beam="1">  1        2 0.10184384E+00 0.11047610E+04</pdfrwt>
<pdfrwt beam="2">  1       -1 0.70911267E-01 0.11047610E+04</pdfrwt>
<totfact> 0.10016264E+02</totfact>
</mgrwt>
</event>
<event>
12    7  0.1611233E-007  0.1271151E+04  0.7818608E-02  0.9052761E-01
         -1   -1    0    0    0  501 -0.00000000000E+00  0.00000000000E+00  0.93124003219E+03  0.93124003219E+03  0.00000000000E+00 0.  1.
          2   -1    0    0  501    0  0.00000000000E+00 -0.00000000000E+00 -0.43378294193E+03  0.43378294193E+03  0.00000000000E+00 0. -1.
         24    2    1    2    0    0  0.15477922269E+03  0.26636021737E+03  0.12085581557E+03  0.34088319300E+03  0.81797615734E+02 0.  0.
        254    2    1    2    0    0 -0.15477922269E+03 -0.26636021737E+03  0.37660127469E+03  0.10241397811E+04  0.90118222242E+03 0.  0.
         23    2    4    4    0    0 -0.32304130840E+03  0.37513050193E+02 -0.16386832751E+03  0.37565240191E+03  0.92189925871E+02 0.  0.
         23    2    4    4    0    0  0.16826208571E+03 -0.30387326757E+03  0.54046960220E+03  0.64848737921E+03  0.88189556420E+02 0.  0.
          2    1    3    3  502    0  0.14214654520E+03  0.26827536423E+03  0.12362146354E+03  0.32781027685E+03  0.00000000000E+00 0. -1.
         -1    1    3    3    0  502  0.12632677487E+02 -0.19151468564E+01 -0.27656479633E+01  0.13072916149E+02  0.00000000000E+00 0.  1.
         13    1    5    5    0    0  0.13560566385E+01 -0.89192746574E+01  0.50354478580E+00  0.90358124910E+01  0.00000000000E+00 0.  1.
        -13    1    5    5    0    0 -0.32439736504E+03  0.46432324851E+02 -0.16437187230E+03  0.36661658942E+03  0.00000000000E+00 0. -1.
          2    1    6    6  503    0  0.12573029399E+03 -0.24176111016E+03  0.47988631611E+03  0.55185814990E+03  0.00000000000E+00 0. -1.
         -2    1    6    6    0  503  0.42531791725E+02 -0.62112157403E+02  0.60583286086E+02  0.96629229313E+02  0.00000000000E+00 0.  1.
<mgrwt>
<rscale>  0 0.12711507E+04</rscale>
<asrwt>0</asrwt>
<pdfrwt beam="1">  1        2 0.66735837E-01 0.12711507E+04</pdfrwt>
<pdfrwt beam="2">  1       -1 0.14326770E+00 0.12711507E+04</pdfrwt>
<totfact> 0.32151021E+01</totfact>
</mgrwt>
</event>
<event>
12    7  0.1611233E-007  0.1604798E+04  0.7818608E-02  0.8817606E-01
         -1   -1    0    0    0  501 -0.00000000000E+00  0.00000000000E+00  0.16322012914E+03  0.16322012914E+03  0.00000000000E+00 0.  1.
          2   -1    0    0  501    0  0.00000000000E+00 -0.00000000000E+00 -0.39446348157E+04  0.39446348157E+04  0.00000000000E+00 0. -1.
         24    2    1    2    0    0 -0.41362994648E+03  0.24306411403E+03 -0.19557014876E+04  0.20153115926E+04  0.80886404854E+02 0.  0.
        254    2    1    2    0    0  0.41362994648E+03 -0.24306411403E+03 -0.18257131990E+04  0.20925433522E+04  0.90296129485E+03 0.  0.
         23    2    4    4    0    0  0.10865618158E+03 -0.25201076108E+03 -0.17358416426E+04  0.17597053453E+04  0.90006134837E+02 0.  0.
         23    2    4    4    0    0  0.30497376490E+03  0.89466470523E+01 -0.89871556315E+02  0.33283800698E+03  0.98057138878E+02 0.  0.
          4    1    3    3  502    0 -0.39266960155E+03  0.23422793072E+03 -0.17650699311E+04  0.18233277273E+04  0.00000000000E+00 0. -1.
         -3    1    3    3    0  502 -0.20960344930E+02  0.88361833042E+01 -0.19063155650E+03  0.19198386528E+03  0.00000000000E+00 0.  1.
         13    1    5    5    0    0 -0.49389461856E+01  0.54108345100E+01 -0.36662292819E+02  0.37387083789E+02  0.00000000000E+00 0.  1.
        -13    1    5    5    0    0  0.11359512776E+03 -0.25742159559E+03 -0.16991793498E+04  0.17223182615E+04  0.00000000000E+00 0. -1.
          3    1    6    6  503    0  0.24692151233E+03 -0.43158106269E+00 -0.29697051514E+02  0.24870129550E+03  0.00000000000E+00 0. -1.
         -3    1    6    6    0  503  0.58052252572E+02  0.93782281150E+01 -0.60174504801E+02  0.84136711484E+02  0.00000000000E+00 0.  1.
<mgrwt>
<rscale>  0 0.16047976E+04</rscale>
<asrwt>0</asrwt>
<pdfrwt beam="1">  1        2 0.60686692E+00 0.16047976E+04</pdfrwt>
<pdfrwt beam="2">  1       -1 0.25110788E-01 0.16047976E+04</pdfrwt>
<totfact> 0.58609853E+00</totfact>
</mgrwt>
</event>
<event>
12    7  0.1611233E-007  0.1095037E+04  0.7818608E-02  0.9210042E-01
         -1   -1    0    0    0  501 -0.00000000000E+00  0.00000000000E+00  0.50912457307E+03  0.50912457307E+03  0.00000000000E+00 0.  1.
          2   -1    0    0  501    0  0.00000000000E+00 -0.00000000000E+00 -0.58880816513E+03  0.58880816513E+03  0.00000000000E+00 0. -1.
         24    2    1    2    0    0  0.11297242531E+03  0.88282015568E+02  0.56529158753E+02  0.17362499815E+03  0.79960059022E+02 0.  0.
        254    2    1    2    0    0 -0.11297242531E+03 -0.88282015568E+02 -0.13621275082E+03  0.92430774006E+03  0.90290331802E+03 0.  0.
         23    2    4    4    0    0  0.29320007281E+03 -0.29634790929E+02 -0.33771195172E+03  0.45816805390E+03  0.94995261685E+02 0.  0.
         23    2    4    4    0    0 -0.40617249812E+03 -0.58647224639E+02  0.20149920091E+03  0.46613968616E+03  0.90932303693E+02 0.  0.
          2    1    3    3  502    0  0.96022421642E+01  0.53962706385E+02  0.24943696477E+02  0.60219305284E+02  0.00000000000E+00 0. -1.
         -1    1    3    3    0  502  0.10337018315E+03  0.34319309183E+02  0.31585462276E+02  0.11340569286E+03  0.00000000000E+00 0.  1.
         13    1    5    5    0    0  0.25153010739E+03 -0.22724289778E+02 -0.32947121707E+03  0.41513259466E+03  0.00000000000E+00 0. -1.
        -13    1    5    5    0    0  0.41669965422E+02 -0.69105011510E+01 -0.82407346591E+01  0.43035459242E+02  0.00000000000E+00 0.  1.
          1    1    6    6  503    0 -0.32804178725E+03 -0.75490442495E+02  0.13696827932E+03  0.36341509411E+03  0.00000000000E+00 0. -1.
         -1    1    6    6    0  503 -0.78130710874E+02  0.16843217856E+02  0.64530921590E+02  0.10272459204E+03  0.00000000000E+00 0.  1.
<mgrwt>
<rscale>  0 0.10950374E+04</rscale>
<asrwt>0</asrwt>
<pdfrwt beam="1">  1        2 0.90585871E-01 0.10950374E+04</pdfrwt>
<pdfrwt beam="2">  1       -1 0.78326858E-01 0.10950374E+04</pdfrwt>
<totfact> 0.94016553E+01</totfact>
</mgrwt>
</event>
<event>
12    7  0.1611233E-007  0.1679127E+04  0.7818608E-02  0.8773360E-01
         -1   -1    0    0    0  501 -0.00000000000E+00  0.00000000000E+00  0.45768373877E+03  0.45768373877E+03  0.00000000000E+00 0.  1.
          2   -1    0    0  501    0  0.00000000000E+00 -0.00000000000E+00 -0.15400732790E+04  0.15400732790E+04  0.00000000000E+00 0. -1.
         24    2    1    2    0    0  0.24256130539E+03  0.36564949688E+03 -0.86019730903E+03  0.96891297184E+03  0.79482042574E+02 0.  0.
        254    2    1    2    0    0 -0.24256130539E+03 -0.36564949688E+03 -0.22219223117E+03  0.10288440459E+04  0.90366760579E+03 0.  0.
         23    2    4    4    0    0 -0.13611245729E+03  0.28830924634E+03 -0.46693357922E+02  0.33776567178E+03  0.10127466024E+03 0.  0.
         23    2    4    4    0    0 -0.10644884810E+03 -0.65395874322E+03 -0.17549887325E+03  0.69107837412E+03  0.88295354227E+02 0.  0.
          4    1    3    3  502    0  0.19228308766E+03  0.23397117328E+03 -0.62960064884E+03  0.69865032222E+03  0.00000000000E+00 0. -1.
         -3    1    3    3    0  502  0.50278217723E+02  0.13167832360E+03 -0.23059666020E+03  0.27026264962E+03  0.00000000000E+00 0.  1.
         13    1    5    5    0    0 -0.10076064337E+03  0.99369929670E+02 -0.83700013766E+01  0.14176440702E+03  0.00000000000E+00 0.  1.
        -13    1    5    5    0    0 -0.35351813916E+02  0.18893931666E+03 -0.38323356546E+02  0.19600126476E+03  0.00000000000E+00 0. -1.
          4    1    6    6  503    0 -0.11974052888E+03 -0.55606155100E+03 -0.16154202267E+03  0.59130201068E+03  0.00000000000E+00 0. -1.
         -4    1    6    6    0  503  0.13291680782E+02 -0.97897192221E+02 -0.13956850578E+02  0.99776363438E+02  0.00000000000E+00 0.  1.
<mgrwt>
<rscale>  0 0.16791266E+04</rscale>
<asrwt>0</asrwt>
<pdfrwt beam="1">  1        2 0.23693435E+00 0.16791266E+04</pdfrwt>
<pdfrwt beam="2">  1       -1 0.70412884E-01 0.16791266E+04</pdfrwt>
<totfact> 0.26674345E+01</totfact>
</mgrwt>
</event>
<event>
12    7  0.1611233E-007  0.1660149E+04  0.7818608E-02  0.8784425E-01
          2   -1    0    0  501    0  0.00000000000E+00  0.00000000000E+00  0.85523924550E+03  0.85523924550E+03  0.00000000000E+00 0. -1.
         -1   -1    0    0    0  501 -0.00000000000E+00 -0.00000000000E+00 -0.80565061182E+03  0.80565061182E+03  0.00000000000E+00 0.  1.
         24    2    1    2    0    0 -0.32624899698E+03  0.19911408169E+03  0.46100025689E+03  0.60428020848E+03  0.80922851867E+02 0.  0.
        254    2    1    2    0    0  0.32624899698E+03 -0.19911408169E+03 -0.41141162321E+03  0.10566096488E+04  0.89503050269E+03 0.  0.
         23    2    4    4    0    0  0.13009496855E+03 -0.46388760799E+03  0.37867295645E+02  0.49176020347E+03  0.90982151829E+02 0.  0.
         23    2    4    4    0    0  0.19615402843E+03  0.26477352630E+03 -0.44927891885E+03  0.56484944537E+03  0.92854326286E+02 0.  0.
          2    1    3    3  502    0 -0.27632951397E+03  0.18676395663E+03  0.35881406409E+03  0.48988397440E+03  0.00000000000E+00 0. -1.
         -1    1    3    3    0  502 -0.49919483006E+02  0.12350125059E+02  0.10218619280E+03  0.11439623408E+03  0.00000000000E+00 0.  1.
         13    1    5    5    0    0  0.46001901878E+02 -0.21469824850E+03 -0.26042377741E+02  0.22111019498E+03  0.00000000000E+00 0.  1.
        -13    1    5    5    0    0  0.84093066667E+02 -0.24918935949E+03  0.63909673386E+02  0.27065000849E+03  0.00000000000E+00 0. -1.
          4    1    6    6  503    0  0.19252124041E+03  0.27066285326E+03 -0.42381781416E+03  0.53846480641E+03  0.00000000000E+00 0.  1.
         -4    1    6    6    0  503  0.36327880201E+01 -0.58893269605E+01 -0.25461104687E+02  0.26384638953E+02  0.00000000000E+00 0. -1.
<mgrwt>
<rscale>  0 0.16601494E+04</rscale>
<asrwt>0</asrwt>
<pdfrwt beam="1">  1        2 0.13157527E+00 0.16601494E+04</pdfrwt>
<pdfrwt beam="2">  1       -1 0.12394625E+00 0.16601494E+04</pdfrwt>
<totfact> 0.19601763E+01</totfact>
</mgrwt>
</event>
<event>
12    7  0.1611233E-007  0.1955892E+04  0.7818608E-02  0.8627525E-01
         -1   -1    0    0    0  501 -0.00000000000E+00  0.00000000000E+00  0.63447274600E+03  0.63447274600E+03  0.00000000000E+00 0.  1.
          2   -1    0    0  501    0  0.00000000000E+00 -0.00000000000E+00 -0.15073598291E+04  0.15073598291E+04  0.00000000000E+00 0. -1.
         24    2    1    2    0    0 -0.17380120433E+03  0.73991635294E+02 -0.11613434843E+04  0.11792996701E+04  0.79670587517E+02 0.  0.
        254    2    1    2    0    0  0.17380120433E+03 -0.73991635294E+02  0.28845640124E+03  0.96253290501E+03  0.89865503787E+03 0.  0.
         23    2    4    4    0    0  0.37751402276E+03  0.20057784013E+03  0.39952575226E+03  0.59181536755E+03  0.88748494168E+02 0.  0.
         23    2    4    4    0    0 -0.20371281843E+03 -0.27456947542E+03 -0.11106935102E+03  0.37071753747E+03  0.90596813534E+02 0.  0.
          2    1    3    3  502    0 -0.39980277373E+01  0.24180881224E+02 -0.22930611252E+03  0.23061221234E+03  0.00000000000E+00 0. -1.
         -1    1    3    3    0  502 -0.16980317659E+03  0.49810754070E+02 -0.93203737183E+03  0.94868745775E+03  0.00000000000E+00 0.  1.
         13    1    5    5    0    0  0.42578922971E+02 -0.54983875797E+01  0.47367247496E+02  0.63928499769E+02  0.00000000000E+00 0. -1.
        -13    1    5    5    0    0  0.33493509979E+03  0.20607622771E+03  0.35215850476E+03  0.52788686778E+03  0.00000000000E+00 0.  1.
          1    1    6    6  503    0 -0.70009184093E+02 -0.50117487829E+02  0.18089229023E+01  0.86118062250E+02  0.00000000000E+00 0. -1.
         -1    1    6    6    0  503 -0.13370363434E+03 -0.22445198759E+03 -0.11287827392E+03  0.28459947522E+03  0.00000000000E+00 0.  1.
<mgrwt>
<rscale>  0 0.19558924E+04</rscale>
<asrwt>0</asrwt>
<pdfrwt beam="1">  1        2 0.23190151E+00 0.19558924E+04</pdfrwt>
<pdfrwt beam="2">  1       -1 0.97611193E-01 0.19558924E+04</pdfrwt>
<totfact> 0.13451843E+01</totfact>
</mgrwt>
</event>
<event>
12    7  0.1611233E-007  0.3001582E+04  0.7818608E-02  0.8243279E-01
         -1   -1    0    0    0  501 -0.00000000000E+00  0.00000000000E+00  0.12901922653E+04  0.12901922653E+04  0.00000000000E+00 0.  1.
          2   -1    0    0  501    0  0.00000000000E+00 -0.00000000000E+00 -0.17457658832E+04  0.17457658832E+04  0.00000000000E+00 0. -1.
         24    2    1    2    0    0  0.11304989654E+04  0.67711175309E+03  0.52238955084E+02  0.13213343017E+04  0.81775250238E+02 0.  0.
        254    2    1    2    0    0 -0.11304989654E+04 -0.67711175309E+03 -0.50781257302E+03  0.17146238468E+04  0.97239554191E+03 0.  0.
         23    2    4    4    0    0 -0.83581507227E+03 -0.16604994129E+03 -0.67958508356E+03  0.10935883067E+04  0.89107130777E+02 0.  0.
         23    2    4    4    0    0 -0.29468389310E+03 -0.51106181181E+03  0.17177251055E+03  0.62103554011E+03  0.90313755119E+02 0.  0.
          2    1    3    3  502    0  0.58722966465E+03  0.39168054480E+03  0.58241284646E+01  0.70589393586E+03  0.00000000000E+00 0. -1.
         -1    1    3    3    0  502  0.54326930073E+03  0.28543120829E+03  0.46414826620E+02  0.61544036584E+03  0.00000000000E+00 0.  1.
         13    1    5    5    0    0 -0.72435794329E+03 -0.12222741024E+03 -0.55424040669E+03  0.92022627556E+03  0.00000000000E+00 0. -1.
        -13    1    5    5    0    0 -0.11145712899E+03 -0.43822531042E+02 -0.12534467688E+03  0.17336203117E+03  0.00000000000E+00 0.  1.
          2    1    6    6  503    0 -0.25089100719E+03 -0.37279941351E+03  0.15350601956E+03  0.47485766103E+03  0.00000000000E+00 0. -1.
         -2    1    6    6    0  503 -0.43792885917E+02 -0.13826239829E+03  0.18266490983E+02  0.14617787908E+03  0.00000000000E+00 0.  1.
<mgrwt>
<rscale>  0 0.30015820E+04</rscale>
<asrwt>0</asrwt>
<pdfrwt beam="1">  1        2 0.26857936E+00 0.30015820E+04</pdfrwt>
<pdfrwt beam="2">  1       -1 0.19849112E+00 0.30015820E+04</pdfrwt>
<totfact> 0.13889287E+00</totfact>
</mgrwt>
</event>
<event>
12    7  0.1611233E-007  0.3850289E+04  0.7818608E-02  0.8035448E-01
          2   -1    0    0  501    0  0.00000000000E+00  0.00000000000E+00  0.34575786588E+04  0.34575786588E+04  0.00000000000E+00 0. -1.
         -1   -1    0    0    0  501 -0.00000000000E+00 -0.00000000000E+00 -0.10719009342E+04  0.10719009342E+04  0.00000000000E+00 0.  1.
         24    2    1    2    0    0  0.12115614313E+04 -0.11982481213E+04  0.18733547664E+04  0.25339182544E+04  0.87200786584E+02 0.  0.
        254    2    1    2    0    0 -0.12115614313E+04  0.11982481213E+04  0.51232295828E+03  0.19955613386E+04  0.90338838857E+03 0.  0.
         23    2    4    4    0    0 -0.74737554647E+03  0.56652047315E+03  0.71304464930E+03  0.11813486228E+04  0.87385598044E+02 0.  0.
         23    2    4    4    0    0 -0.46418588484E+03  0.63172764813E+03 -0.20072169102E+03  0.81421271581E+03  0.90026619623E+02 0.  0.
          2    1    3    3  502    0  0.11911766773E+04 -0.11770400363E+04  0.18557924789E+04  0.24996581463E+04  0.00000000000E+00 0. -1.
         -1    1    3    3    0  502  0.20384754008E+02 -0.21208084975E+02  0.17562287474E+02  0.34260108079E+02  0.00000000000E+00 0.  1.
         13    1    5    5    0    0 -0.47946777789E+03  0.36107396889E+03  0.50807064373E+03  0.78638383761E+03  0.00000000000E+00 0. -1.
        -13    1    5    5    0    0 -0.26790776859E+03  0.20544650427E+03  0.20497400558E+03  0.39496478520E+03  0.00000000000E+00 0.  1.
          3    1    6    6  503    0 -0.25368845700E+03  0.31645430032E+03 -0.60756279452E+02  0.41011276852E+03  0.00000000000E+00 0. -1.
         -3    1    6    6    0  503 -0.21049742784E+03  0.31527334781E+03 -0.13996541157E+03  0.40409994730E+03  0.00000000000E+00 0.  1.
<mgrwt>
<rscale>  0 0.38502892E+04</rscale>
<asrwt>0</asrwt>
<pdfrwt beam="1">  1        2 0.53193517E+00 0.38502892E+04</pdfrwt>
<pdfrwt beam="2">  1       -1 0.16490784E+00 0.38502892E+04</pdfrwt>
<totfact> 0.21133779E-01</totfact>
</mgrwt>
</event>
<event>
12    7  0.1611233E-007  0.1825298E+04  0.7818608E-02  0.8692961E-01
         -1   -1    0    0    0  501 -0.00000000000E+00  0.00000000000E+00  0.43719901524E+03  0.43719901524E+03  0.00000000000E+00 0.  1.
          2   -1    0    0  501    0  0.00000000000E+00 -0.00000000000E+00 -0.19051458635E+04  0.19051458635E+04  0.00000000000E+00 0. -1.
         24    2    1    2    0    0 -0.31287022019E+03  0.22156979084E+03 -0.12921289429E+04  0.13502105275E+04  0.80562501019E+02 0.  0.
        254    2    1    2    0    0  0.31287022019E+03 -0.22156979084E+03 -0.17581790537E+03  0.99213435125E+03  0.89801875715E+03 0.  0.
         23    2    4    4    0    0  0.46998201071E+03 -0.32664267485E+03 -0.38483382526E+03  0.69575992190E+03  0.91685704685E+02 0.  0.
         23    2    4    4    0    0 -0.15711179052E+03  0.10507288401E+03  0.20901591989E+03  0.29637442935E+03  0.91791731275E+02 0.  0.
          4    1    3    3  502    0 -0.26870906142E+03  0.15294471918E+03 -0.98200306734E+03  0.10295274018E+04  0.00000000000E+00 0. -1.
         -3    1    3    3    0  502 -0.44161158773E+02  0.68625071652E+02 -0.31012587552E+03  0.32068312564E+03  0.00000000000E+00 0.  1.
         13    1    5    5    0    0  0.23239671604E+02 -0.34151341966E+02 -0.52534214467E+02  0.66829934790E+02  0.00000000000E+00 0. -1.
        -13    1    5    5    0    0  0.44674233910E+03 -0.29249133288E+03 -0.33229961079E+03  0.62892998711E+03  0.00000000000E+00 0.  1.
          3    1    6    6  503    0 -0.52474937630E+00  0.40839781689E+02  0.42520403480E+02  0.58958865681E+02  0.00000000000E+00 0. -1.
         -3    1    6    6    0  503 -0.15658704114E+03  0.64233102325E+02  0.16649551641E+03  0.23741556367E+03  0.00000000000E+00 0.  1.
<mgrwt>
<rscale>  0 0.18252977E+04</rscale>
<asrwt>0</asrwt>
<pdfrwt beam="1">  1        2 0.29309936E+00 0.18252977E+04</pdfrwt>
<pdfrwt beam="2">  1       -1 0.67261388E-01 0.18252977E+04</pdfrwt>
<totfact> 0.18121250E+01</totfact>
</mgrwt>
</event>
<event>
12    7  0.1611233E-007  0.3152407E+04  0.7818608E-02  0.8201501E-01
          2   -1    0    0  501    0  0.00000000000E+00  0.00000000000E+00  0.25398328486E+04  0.25398328486E+04  0.00000000000E+00 0. -1.
         -1   -1    0    0    0  501 -0.00000000000E+00 -0.00000000000E+00 -0.97818178360E+03  0.97818178360E+03  0.00000000000E+00 0.  1.
         24    2    1    2    0    0  0.96617161268E+03  0.40069045475E+03 -0.39304986118E+03  0.11202361166E+04  0.80002112375E+02 0.  0.
        254    2    1    2    0    0 -0.96617161268E+03 -0.40069045475E+03  0.19547009262E+04  0.23977785156E+04  0.91347997963E+03 0.  0.
         23    2    4    4    0    0 -0.99176581483E+03 -0.66605000916E+02  0.11596606658E+04  0.15301036211E+04  0.91479909917E+02 0.  0.
         23    2    4    4    0    0  0.25594202159E+02 -0.33408545384E+03  0.79504026034E+03  0.86767489442E+03  0.92209290119E+02 0.  0.
          2    1    3    3  502    0  0.46038096758E+03  0.14901346284E+03 -0.19155219679E+03  0.52043048672E+03  0.00000000000E+00 0. -1.
         -1    1    3    3    0  502  0.50579064510E+03  0.25167699192E+03 -0.20149766438E+03  0.59980562992E+03  0.00000000000E+00 0.  1.
         13    1    5    5    0    0 -0.79433600164E+03 -0.46875000936E+02  0.87008310915E+03  0.11790723328E+04  0.00000000000E+00 0. -1.
        -13    1    5    5    0    0 -0.19742981320E+03 -0.19729999980E+02  0.28957755669E+03  0.35103128832E+03  0.00000000000E+00 0.  1.
          2    1    6    6  503    0 -0.33476640012E+02 -0.16237945193E+03  0.39192645777E+03  0.42555154816E+03  0.00000000000E+00 0. -1.
         -2    1    6    6    0  503  0.59070842172E+02 -0.17170600190E+03  0.40311380257E+03  0.44212334626E+03  0.00000000000E+00 0.  1.
<mgrwt>
<rscale>  0 0.31524075E+04</rscale>
<asrwt>0</asrwt>
<pdfrwt beam="1">  1        2 0.39074351E+00 0.31524075E+04</pdfrwt>
<pdfrwt beam="2">  1       -1 0.15048951E+00 0.31524075E+04</pdfrwt>
<totfact> 0.10962675E+00</totfact>
</mgrwt>
</event>
<event>
12    7  0.1611233E-007  0.2435156E+04  0.7818608E-02  0.8426458E-01
          2   -1    0    0  501    0  0.00000000000E+00  0.00000000000E+00  0.11385831851E+04  0.11385831851E+04  0.00000000000E+00 0. -1.
         -1   -1    0    0    0  501 -0.00000000000E+00 -0.00000000000E+00 -0.13020536468E+04  0.13020536468E+04  0.00000000000E+00 0.  1.
         24    2    1    2    0    0 -0.77533702199E+03  0.68781066909E+03  0.10974361379E+03  0.10451933074E+04  0.78449824238E+02 0.  0.
        254    2    1    2    0    0  0.77533702199E+03 -0.68781066909E+03 -0.27321407555E+03  0.13954435245E+04  0.89352430565E+03 0.  0.
         23    2    4    4    0    0  0.71343987883E+01 -0.36223845679E+03  0.20818177594E+03  0.42782608973E+03  0.91803660070E+02 0.  0.
         23    2    4    4    0    0  0.76820262320E+03 -0.32557221230E+03 -0.48139585148E+03  0.96761743476E+03  0.91700591650E+02 0.  0.
          2    1    3    3  502    0 -0.69456660409E+03  0.59824234791E+03  0.75363226037E+02  0.91978056633E+03  0.00000000000E+00 0. -1.
         -1    1    3    3    0  502 -0.80770417896E+02  0.89568321178E+02  0.34380387750E+02  0.12541274109E+03  0.00000000000E+00 0.  1.
         13    1    5    5    0    0 -0.18643683937E+02 -0.28211032080E+03  0.12380833639E+03  0.30864595285E+03  0.00000000000E+00 0. -1.
        -13    1    5    5    0    0  0.25778082725E+02 -0.80128135992E+02  0.84373439552E+02  0.11918013689E+03  0.00000000000E+00 0.  1.
          2    1    6    6  503    0  0.22576224773E+03 -0.54743052820E+02 -0.15213860508E+03  0.27768966400E+03  0.00000000000E+00 0.  1.
         -2    1    6    6    0  503  0.54244037546E+03 -0.27082915948E+03 -0.32925724640E+03  0.68992777076E+03  0.00000000000E+00 0. -1.
<mgrwt>
<rscale>  0 0.24351562E+04</rscale>
<asrwt>0</asrwt>
<pdfrwt beam="1">  1        2 0.17516664E+00 0.24351562E+04</pdfrwt>
<pdfrwt beam="2">  1       -1 0.20031595E+00 0.24351562E+04</pdfrwt>
<totfact> 0.31575021E+00</totfact>
</mgrwt>
</event>
<event>
12    7  0.1611233E-007  0.3180929E+04  0.7818608E-02  0.8193872E-01
          2   -1    0    0  501    0  0.00000000000E+00  0.00000000000E+00  0.21293314481E+04  0.21293314481E+04  0.00000000000E+00 0. -1.
         -1   -1    0    0    0  501 -0.00000000000E+00 -0.00000000000E+00 -0.11879675440E+04  0.11879675440E+04  0.00000000000E+00 0.  1.
         24    2    1    2    0    0  0.24698599731E+03  0.87489746667E+03  0.16177147759E+04  0.18574857092E+04  0.82488808704E+02 0.  0.
        254    2    1    2    0    0 -0.24698599731E+03 -0.87489746667E+03 -0.67635087170E+03  0.14598132830E+04  0.92041113607E+03 0.  0.
         23    2    4    4    0    0 -0.30519475366E+03 -0.71446123103E+03 -0.88146443436E+03  0.11781614165E+04  0.86522170193E+02 0.  0.
         23    2    4    4    0    0  0.58208756355E+02 -0.16043623564E+03  0.20511356266E+03  0.28165186648E+03  0.90156282551E+02 0.  0.
          4    1    3    3  502    0  0.24609346106E+03  0.78404239824E+03  0.14682924986E+04  0.16826073027E+04  0.00000000000E+00 0. -1.
         -3    1    3    3    0  502  0.89253625126E+00  0.90855068425E+02  0.14942227731E+03  0.17487840643E+03  0.00000000000E+00 0.  1.
         13    1    5    5    0    0 -0.14779340405E+03 -0.29235523317E+03 -0.42777209107E+03  0.53879813896E+03  0.00000000000E+00 0.  1.
        -13    1    5    5    0    0 -0.15740134961E+03 -0.42210599786E+03 -0.45369234329E+03  0.63936327752E+03  0.00000000000E+00 0. -1.
          3    1    6    6  503    0  0.15442203457E+02 -0.56322284706E+02  0.13982599835E+03  0.15153207983E+03  0.00000000000E+00 0. -1.
         -3    1    6    6    0  503  0.42766552898E+02 -0.10411395093E+03  0.65287564308E+02  0.13011978665E+03  0.00000000000E+00 0.  1.
<mgrwt>
<rscale>  0 0.31809286E+04</rscale>
<asrwt>0</asrwt>
<pdfrwt beam="1">  1        2 0.32758945E+00 0.31809286E+04</pdfrwt>
<pdfrwt beam="2">  1       -1 0.18276424E+00 0.31809286E+04</pdfrwt>
<totfact> 0.10789140E+00</totfact>
</mgrwt>
</event>
<event>
12    7  0.1611233E-007  0.1188701E+04  0.7818608E-02  0.9122804E-01
         -1   -1    0    0    0  501 -0.00000000000E+00  0.00000000000E+00  0.18456949772E+03  0.18456949772E+03  0.00000000000E+00 0.  1.
          2   -1    0    0  501    0  0.00000000000E+00 -0.00000000000E+00 -0.19139267312E+04  0.19139267312E+04  0.00000000000E+00 0. -1.
         24    2    1    2    0    0 -0.24114364622E+03 -0.64603496381E+01 -0.34750554610E+03  0.43079776248E+03  0.81453135941E+02 0.  0.
        254    2    1    2    0    0  0.24114364622E+03  0.64603496381E+01 -0.13818516874E+04  0.16676984664E+04  0.90194905337E+03 0.  0.
         23    2    4    4    0    0  0.28216076647E+03 -0.25677440050E+03 -0.17832662346E+03  0.43157667465E+03  0.94394123632E+02 0.  0.
         23    2    4    4    0    0 -0.41017120255E+02  0.26323475014E+03 -0.12035250639E+04  0.12361217918E+04  0.92463867919E+02 0.  0.
          2    1    3    3  502    0 -0.23605563854E+03 -0.32833148717E+00 -0.35024924864E+03  0.42237058191E+03  0.00000000000E+00 0. -1.
         -1    1    3    3    0  502 -0.50880076716E+01 -0.61320181509E+01  0.27437025379E+01  0.84271805656E+01  0.00000000000E+00 0.  1.
         13    1    5    5    0    0  0.17554387425E+03 -0.21695671428E+03 -0.12177773092E+03  0.30449250140E+03  0.00000000000E+00 0. -1.
        -13    1    5    5    0    0  0.10661689222E+03 -0.39817686216E+02 -0.56548892546E+02  0.12708417325E+03  0.00000000000E+00 0.  1.
          3    1    6    6  503    0  0.10445549732E+02  0.97357903756E+02 -0.28581863945E+03  0.30212574466E+03  0.00000000000E+00 0. -1.
         -3    1    6    6    0  503 -0.51462669987E+02  0.16587684638E+03 -0.91770642446E+03  0.93399604713E+03  0.00000000000E+00 0.  1.
<mgrwt>
<rscale>  0 0.11887010E+04</rscale>
<asrwt>0</asrwt>
<pdfrwt beam="1">  1        2 0.29445028E+00 0.11887010E+04</pdfrwt>
<pdfrwt beam="2">  1       -1 0.28395306E-01 0.11887010E+04</pdfrwt>
<totfact> 0.94359004E+01</totfact>
</mgrwt>
</event>
<event>
12    7  0.1611233E-007  0.1789327E+04  0.7818608E-02  0.8711996E-01
          2   -1    0    0  501    0  0.00000000000E+00  0.00000000000E+00  0.73011841320E+03  0.73011841320E+03  0.00000000000E+00 0. -1.
         -1   -1    0    0    0  501 -0.00000000000E+00 -0.00000000000E+00 -0.10962918670E+04  0.10962918670E+04  0.00000000000E+00 0.  1.
         24    2    1    2    0    0  0.14237603107E+03  0.54169896842E+03  0.80146359893E+01  0.56826983246E+03  0.95695671164E+02 0.  0.
        254    2    1    2    0    0 -0.14237603107E+03 -0.54169896842E+03 -0.37418808982E+03  0.12581404478E+04  0.10626344400E+04 0.  0.
         23    2    4    4    0    0 -0.13272225477E+03 -0.49686289194E+03 -0.72452894291E+03  0.89313331063E+03  0.90867987466E+02 0.  0.
         23    2    4    4    0    0 -0.96537762980E+01 -0.44836076485E+02  0.35034085309E+03  0.36500713715E+03  0.91586176238E+02 0.  0.
          4    1    3    3  502    0  0.10828287342E+03  0.48688453530E+03  0.31012484188E+02  0.49974343974E+03  0.00000000000E+00 0. -1.
         -3    1    3    3    0  502  0.34093157647E+02  0.54814433126E+02 -0.22997848199E+02  0.68526392719E+02  0.00000000000E+00 0.  1.
         13    1    5    5    0    0 -0.13158422436E+03 -0.43274606068E+03 -0.58408229475E+03  0.73873925588E+03  0.00000000000E+00 0.  1.
        -13    1    5    5    0    0 -0.11380304136E+01 -0.64116831259E+02 -0.14044664815E+03  0.15439405475E+03  0.00000000000E+00 0. -1.
          3    1    6    6  503    0  0.25485499329E+01 -0.46574713822E+02  0.68362169158E+02  0.82759200373E+02  0.00000000000E+00 0. -1.
         -3    1    6    6    0  503 -0.12202326231E+02  0.17386373366E+01  0.28197868393E+03  0.28224793678E+03  0.00000000000E+00 0.  1.
<mgrwt>
<rscale>  0 0.17893271E+04</rscale>
<asrwt>0</asrwt>
<pdfrwt beam="1">  1        2 0.11232591E+00 0.17893271E+04</pdfrwt>
<pdfrwt beam="2">  1       -1 0.16866029E+00 0.17893271E+04</pdfrwt>
<totfact> 0.10543252E+01</totfact>
</mgrwt>
</event>
<event>
12    7  0.1611233E-007  0.2128242E+04  0.7818608E-02  0.8548904E-01
         -1   -1    0    0    0  501 -0.00000000000E+00  0.00000000000E+00  0.44192835772E+03  0.44192835772E+03  0.00000000000E+00 0.  1.
          2   -1    0    0  501    0  0.00000000000E+00 -0.00000000000E+00 -0.25623013341E+04  0.25623013341E+04  0.00000000000E+00 0. -1.
         24    2    1    2    0    0  0.21476306083E+03  0.78668690631E+03 -0.44776639533E+03  0.93533987441E+03  0.96780550813E+02 0.  0.
        254    2    1    2    0    0 -0.21476306083E+03 -0.78668690631E+03 -0.16726065810E+04  0.20688898174E+04  0.90426370090E+03 0.  0.
         23    2    4    4    0    0 -0.28493258127E+03 -0.80606458284E+03 -0.17344211007E+04  0.19358094320E+04  0.90636167174E+02 0.  0.
         23    2    4    4    0    0  0.70169520439E+02  0.19377676534E+02  0.61814519662E+02  0.13308038543E+03  0.92682782639E+02 0.  0.
          2    1    3    3  502    0  0.75262603862E+02  0.43574726531E+03 -0.26816823200E+03  0.51715987801E+03  0.00000000000E+00 0. -1.
         -1    1    3    3    0  502  0.13950045697E+03  0.35093964100E+03 -0.17959816333E+03  0.41817999640E+03  0.00000000000E+00 0.  1.
         13    1    5    5    0    0 -0.13657935419E+03 -0.26078689472E+03 -0.61627890954E+03  0.68298127265E+03  0.00000000000E+00 0.  1.
        -13    1    5    5    0    0 -0.14835322708E+03 -0.54527768813E+03 -0.11181421911E+04  0.12528281593E+04  0.00000000000E+00 0. -1.
          4    1    6    6  503    0  0.59495691154E+01  0.11119177994E+02  0.66950859415E+02  0.68128195839E+02  0.00000000000E+00 0. -1.
         -4    1    6    6    0  503  0.64219951323E+02  0.82584985404E+01 -0.51363397528E+01  0.64952189587E+02  0.00000000000E+00 0.  1.
<mgrwt>
<rscale>  0 0.21282421E+04</rscale>
<asrwt>0</asrwt>
<pdfrwt beam="1">  1        2 0.39420020E+00 0.21282421E+04</pdfrwt>
<pdfrwt beam="2">  1       -1 0.67988979E-01 0.21282421E+04</pdfrwt>
<totfact> 0.73414168E+00</totfact>
</mgrwt>
</event>
<event>
12    7  0.1611233E-007  0.1639846E+04  0.7818608E-02  0.8796436E-01
         -1   -1    0    0    0  501 -0.00000000000E+00  0.00000000000E+00  0.14070927759E+04  0.14070927759E+04  0.00000000000E+00 0.  1.
          2   -1    0    0  501    0  0.00000000000E+00 -0.00000000000E+00 -0.47777472649E+03  0.47777472649E+03  0.00000000000E+00 0. -1.
         24    2    1    2    0    0  0.16105696343E+03 -0.48556423144E+03  0.72801602636E+02  0.52307156401E+03  0.81190020394E+02 0.  0.
        254    2    1    2    0    0 -0.16105696343E+03  0.48556423144E+03  0.85651644675E+03  0.13617959384E+04  0.92690656803E+03 0.  0.
         23    2    4    4    0    0 -0.41484069232E+02  0.41982531615E+03  0.10336136228E+04  0.11201159668E+04  0.91260252746E+02 0.  0.
         23    2    4    4    0    0 -0.11957289420E+03  0.65738915289E+02 -0.17709717602E+03  0.24167997160E+03  0.91796061495E+02 0.  0.
          2    1    3    3  502    0  0.17070719011E+03 -0.46049836545E+03  0.69149841842E+02  0.49596510962E+03  0.00000000000E+00 0. -1.
         -1    1    3    3    0  502 -0.96502266790E+01 -0.25065865990E+02  0.36517607934E+01  0.27106454391E+02  0.00000000000E+00 0.  1.
         13    1    5    5    0    0 -0.28457853115E+02  0.13057525100E+03  0.43658761387E+03  0.45658349747E+03  0.00000000000E+00 0.  1.
        -13    1    5    5    0    0 -0.13026216116E+02  0.28925006515E+03  0.59702600890E+03  0.66353246929E+03  0.00000000000E+00 0. -1.
          4    1    6    6  503    0 -0.64840867914E+02 -0.12710371964E+02 -0.51331754310E+02  0.83671026693E+02  0.00000000000E+00 0. -1.
         -4    1    6    6    0  503 -0.54732026288E+02  0.78449287252E+02 -0.12576542171E+03  0.15800894491E+03  0.00000000000E+00 0.  1.
<mgrwt>
<rscale>  0 0.16398456E+04</rscale>
<asrwt>0</asrwt>
<pdfrwt beam="1">  1        2 0.73503805E-01 0.16398456E+04</pdfrwt>
<pdfrwt beam="2">  1       -1 0.21647581E+00 0.16398456E+04</pdfrwt>
<totfact> 0.82443986E+00</totfact>
</mgrwt>
</event>
<event>
12    7  0.1611233E-007  0.1302782E+04  0.7818608E-02  0.9027362E-01
         -1   -1    0    0    0  501 -0.00000000000E+00  0.00000000000E+00  0.18371656850E+04  0.18371656850E+04  0.00000000000E+00 0.  1.
          2   -1    0    0  501    0  0.00000000000E+00 -0.00000000000E+00 -0.23095903418E+03  0.23095903418E+03  0.00000000000E+00 0. -1.
         24    2    1    2    0    0 -0.83155207750E+02  0.19520306797E+03  0.82624565942E+03  0.85666376194E+03  0.78561345308E+02 0.  0.
        254    2    1    2    0    0  0.83155207750E+02 -0.19520306797E+03  0.77996099134E+03  0.12114609572E+04  0.90237435496E+03 0.  0.
         23    2    4    4    0    0  0.18808211214E+03  0.30263718961E+03  0.50652370550E+03  0.62695473325E+03  0.97682259778E+02 0.  0.
         23    2    4    4    0    0 -0.10492690439E+03 -0.49784025758E+03  0.27343728584E+03  0.58450622395E+03  0.89582359927E+02 0.  0.
          4    1    3    3  502    0  0.63924381033E+01 -0.15848015840E+01  0.64336584565E+02  0.64672799340E+02  0.00000000000E+00 0. -1.
         -3    1    3    3    0  502 -0.89547645853E+02  0.19678786956E+03  0.76190907486E+03  0.79199096260E+03  0.00000000000E+00 0.  1.
         13    1    5    5    0    0  0.16234163166E+03  0.17372689790E+03  0.33689910399E+03  0.41235524332E+03  0.00000000000E+00 0.  1.
        -13    1    5    5    0    0  0.25740480486E+02  0.12891029170E+03  0.16962460151E+03  0.21459948993E+03  0.00000000000E+00 0. -1.
          1    1    6    6  503    0 -0.10782911339E+03 -0.30081407258E+03  0.16903379370E+03  0.36150884826E+03  0.00000000000E+00 0. -1.
         -1    1    6    6    0  503  0.29022089912E+01 -0.19702618500E+03  0.10440349214E+03  0.22299737569E+03  0.00000000000E+00 0.  1.
<mgrwt>
<rscale>  0 0.13027817E+04</rscale>
<asrwt>0</asrwt>
<pdfrwt beam="1">  1        2 0.35532160E-01 0.13027817E+04</pdfrwt>
<pdfrwt beam="2">  1       -1 0.28264087E+00 0.13027817E+04</pdfrwt>
<totfact> 0.70969535E+00</totfact>
</mgrwt>
</event>
<event>
12    7  0.1611233E-007  0.1095792E+04  0.7818608E-02  0.9209303E-01
         -1   -1    0    0    0  501 -0.00000000000E+00  0.00000000000E+00  0.21324126126E+03  0.21324126126E+03  0.00000000000E+00 0.  1.
          2   -1    0    0  501    0  0.00000000000E+00 -0.00000000000E+00 -0.14077486287E+04  0.14077486287E+04  0.00000000000E+00 0. -1.
         24    2    1    2    0    0  0.90714277043E+02  0.97816603512E+02 -0.56180518007E+02  0.16531856269E+03  0.79854922105E+02 0.  0.
        254    2    1    2    0    0 -0.90714277043E+02 -0.97816603512E+02 -0.11383268495E+04  0.14556713273E+04  0.89743736769E+03 0.  0.
         23    2    4    4    0    0 -0.11482547261E+03 -0.34627039734E+03 -0.10774112890E+03  0.39145825669E+03  0.92430182506E+02 0.  0.
         23    2    4    4    0    0  0.24111195571E+02  0.24845379383E+03 -0.10305857206E+04  0.10642130706E+04  0.90177019275E+02 0.  0.
          4    1    3    3  502    0 -0.42140691775E+01 -0.64376141493E+01  0.73757876005E+01  0.10658494157E+02  0.00000000000E+00 0. -1.
         -3    1    3    3    0  502  0.94928346221E+02  0.10425421766E+03 -0.63556305607E+02  0.15466006853E+03  0.00000000000E+00 0.  1.
         13    1    5    5    0    0 -0.18449536293E+02 -0.18433361963E+03 -0.30279021262E+02  0.18771278018E+03  0.00000000000E+00 0. -1.
        -13    1    5    5    0    0 -0.96375936322E+02 -0.16193677771E+03 -0.77462107640E+02  0.20374547651E+03  0.00000000000E+00 0.  1.
          1    1    6    6  503    0 -0.51244416391E+01  0.30003461807E+01 -0.18846497115E+01  0.62300789603E+01  0.00000000000E+00 0. -1.
         -1    1    6    6    0  503  0.29235637211E+02  0.24545344765E+03 -0.10287010709E+04  0.10579829916E+04  0.00000000000E+00 0.  1.
<mgrwt>
<rscale>  0 0.10957921E+04</rscale>
<asrwt>0</asrwt>
<pdfrwt beam="1">  1        2 0.21657671E+00 0.10957921E+04</pdfrwt>
<pdfrwt beam="2">  1       -1 0.32806349E-01 0.10957921E+04</pdfrwt>
<totfact> 0.14107873E+02</totfact>
</mgrwt>
</event>
<event>
12    7  0.1611233E-007  0.1854845E+04  0.7818608E-02  0.8677665E-01
          2   -1    0    0  501    0  0.00000000000E+00  0.00000000000E+00  0.20920769895E+04  0.20920769895E+04  0.00000000000E+00 0. -1.
         -1   -1    0    0    0  501 -0.00000000000E+00 -0.00000000000E+00 -0.41112854584E+03  0.41112854584E+03  0.00000000000E+00 0.  1.
         24    2    1    2    0    0  0.54993810878E+03 -0.21889198168E+03  0.11746313555E+04  0.13177289491E+04  0.79404904339E+02 0.  0.
        254    2    1    2    0    0 -0.54993810878E+03  0.21889198168E+03  0.50631708814E+03  0.11854765862E+04  0.89367338531E+03 0.  0.
         23    2    4    4    0    0 -0.69304572399E+03  0.39905717239E+03  0.28606467775E+03  0.85443653318E+03  0.93111690964E+02 0.  0.
         23    2    4    4    0    0  0.14310761521E+03 -0.18016519071E+03  0.22025241040E+03  0.33104005305E+03  0.90205914215E+02 0.  0.
          4    1    3    3  502    0  0.48548624752E+03 -0.17331809286E+03  0.10579059214E+04  0.11768181662E+04  0.00000000000E+00 0. -1.
         -3    1    3    3    0  502  0.64451861264E+02 -0.45573888818E+02  0.11672543413E+03  0.14091078289E+03  0.00000000000E+00 0.  1.
         13    1    5    5    0    0 -0.45797252146E+03  0.30407730186E+03  0.22252839782E+03  0.59306047225E+03  0.00000000000E+00 0.  1.
        -13    1    5    5    0    0 -0.23507320254E+03  0.94979870535E+02  0.63536279924E+02  0.26137606092E+03  0.00000000000E+00 0. -1.
          2    1    6    6  503    0  0.10994854869E+03 -0.70926483486E+02  0.95832743765E+02  0.16218250274E+03  0.00000000000E+00 0. -1.
         -2    1    6    6    0  503  0.33159066521E+02 -0.10923870723E+03  0.12441966663E+03  0.16885755030E+03  0.00000000000E+00 0.  1.
<mgrwt>
<rscale>  0 0.18548451E+04</rscale>
<asrwt>0</asrwt>
<pdfrwt beam="1">  1        2 0.32185799E+00 0.18548451E+04</pdfrwt>
<pdfrwt beam="2">  1       -1 0.63250547E-01 0.18548451E+04</pdfrwt>
<totfact> 0.16108354E+01</totfact>
</mgrwt>
</event>
<event>
12    7  0.1611233E-007  0.1494423E+04  0.7818608E-02  0.8888170E-01
         -1   -1    0    0    0  501 -0.00000000000E+00  0.00000000000E+00  0.64486799561E+03  0.64486799561E+03  0.00000000000E+00 0.  1.
          2   -1    0    0  501    0  0.00000000000E+00 -0.00000000000E+00 -0.86579697946E+03  0.86579697946E+03  0.00000000000E+00 0. -1.
         24    2    1    2    0    0  0.17941137636E+03  0.14267324002E+03  0.33063081368E+03  0.41328873345E+03  0.94587244704E+02 0.  0.
        254    2    1    2    0    0 -0.17941137636E+03 -0.14267324002E+03 -0.55155979753E+03  0.10973762416E+04  0.92058259273E+03 0.  0.
         23    2    4    4    0    0 -0.44969929090E+03 -0.36439632257E+03 -0.30924138522E+03  0.66240661631E+03  0.90211744550E+02 0.  0.
         23    2    4    4    0    0  0.27028791455E+03  0.22172308255E+03 -0.24231841231E+03  0.43496962531E+03  0.90904784870E+02 0.  0.
          2    1    3    3  502    0  0.32262398498E+02  0.79032077773E+02  0.89106268384E+02  0.12339715855E+03  0.00000000000E+00 0. -1.
         -1    1    3    3    0  502  0.14714897786E+03  0.63641162247E+02  0.24152454530E+03  0.28989157490E+03  0.00000000000E+00 0.  1.
         13    1    5    5    0    0 -0.37409577376E+03 -0.29068135114E+03 -0.21261912390E+03  0.51927852612E+03  0.00000000000E+00 0.  1.
        -13    1    5    5    0    0 -0.75603517145E+02 -0.73714971430E+02 -0.96622261319E+02  0.14312809019E+03  0.00000000000E+00 0. -1.
          1    1    6    6  503    0  0.42970225652E+02  0.68188631571E+02 -0.23154542086E+02  0.83858586843E+02  0.00000000000E+00 0. -1.
         -1    1    6    6    0  503  0.22731768889E+03  0.15353445098E+03 -0.21916387022E+03  0.35111103847E+03  0.00000000000E+00 0.  1.
<mgrwt>
<rscale>  0 0.14944226E+04</rscale>
<asrwt>0</asrwt>
<pdfrwt beam="1">  1        2 0.13319953E+00 0.14944226E+04</pdfrwt>
<pdfrwt beam="2">  1       -1 0.99210462E-01 0.14944226E+04</pdfrwt>
<totfact> 0.33148569E+01</totfact>
</mgrwt>
</event>
<event>
12    7  0.1611233E-007  0.1757091E+04  0.7818608E-02  0.8729457E-01
          4   -1    0    0  501    0  0.00000000000E+00  0.00000000000E+00  0.76182060008E+03  0.76182060008E+03  0.00000000000E+00 0. -1.
         -3   -1    0    0    0  501 -0.00000000000E+00 -0.00000000000E+00 -0.10131552437E+04  0.10131552437E+04  0.00000000000E+00 0.  1.
         24    2    1    2    0    0 -0.18833761222E+03  0.33318067651E+03  0.43667401550E+03  0.58653648153E+03  0.82827706596E+02 0.  0.
        254    2    1    2    0    0  0.18833761222E+03 -0.33318067651E+03 -0.68800865909E+03  0.11884393622E+04  0.89025377465E+03 0.  0.
         23    2    4    4    0    0  0.47201258325E+01 -0.42246268347E+03 -0.81986948687E+03  0.92690019269E+03  0.91983657212E+02 0.  0.
         23    2    4    4    0    0  0.18361748639E+03  0.89282006969E+02  0.13186082778E+03  0.26153916951E+03  0.96585719483E+02 0.  0.
          4    1    3    3  502    0 -0.18765260971E+03  0.27246761583E+03  0.36608579340E+03  0.49342771683E+03  0.00000000000E+00 0. -1.
         -3    1    3    3    0  502 -0.68500251467E+00  0.60713060677E+02  0.70588222100E+02  0.93108764703E+02  0.00000000000E+00 0.  1.
         13    1    5    5    0    0  0.30433529111E+02 -0.52176630245E+02 -0.13549903179E+03  0.14835291724E+03  0.00000000000E+00 0. -1.
        -13    1    5    5    0    0 -0.25713403279E+02 -0.37028605323E+03 -0.68437045508E+03  0.77854727545E+03  0.00000000000E+00 0.  1.
          2    1    6    6  503    0  0.46215433271E+02  0.71764466234E+01 -0.98064716960E+01  0.47786342670E+02  0.00000000000E+00 0. -1.
         -2    1    6    6    0  503  0.13740205312E+03  0.82105560345E+02  0.14166729948E+03  0.21375282684E+03  0.00000000000E+00 0.  1.
<mgrwt>
<rscale>  0 0.17570914E+04</rscale>
<asrwt>0</asrwt>
<pdfrwt beam="1">  1        4 0.11720317E+00 0.17570914E+04</pdfrwt>
<pdfrwt beam="2">  1       -3 0.15587004E+00 0.17570914E+04</pdfrwt>
<totfact> 0.35495588E-01</totfact>
</mgrwt>
</event>
<event>
12    7  0.1611233E-007  0.1584534E+04  0.7818608E-02  0.8830106E-01
         -1   -1    0    0    0  501 -0.00000000000E+00  0.00000000000E+00  0.26600682586E+03  0.26600682586E+03  0.00000000000E+00 0.  1.
          2   -1    0    0  501    0  0.00000000000E+00 -0.00000000000E+00 -0.23596653863E+04  0.23596653863E+04  0.00000000000E+00 0. -1.
         24    2    1    2    0    0 -0.11918148089E+03 -0.31967361942E+03 -0.10036273488E+02  0.35063684091E+03  0.80312010806E+02 0.  0.
        254    2    1    2    0    0  0.11918148089E+03  0.31967361942E+03 -0.20836222870E+04  0.22750353713E+04  0.84729490583E+03 0.  0.
         23    2    4    4    0    0 -0.12917384494E+03  0.33315926750E+03 -0.19337617963E+04  0.19685654925E+04  0.90191094737E+02 0.  0.
         23    2    4    4    0    0  0.24835532584E+03 -0.13485648086E+02 -0.14986049068E+03  0.30646987881E+03  0.97996884525E+02 0.  0.
          2    1    3    3  502    0 -0.13761473621E+02 -0.73815478324E+02  0.28610423249E+02  0.80353340409E+02  0.00000000000E+00 0. -1.
         -1    1    3    3    0  502 -0.10542000727E+03 -0.24585814109E+03 -0.38646696738E+02  0.27028350050E+03  0.00000000000E+00 0.  1.
         13    1    5    5    0    0 -0.13774069171E+03  0.33185789370E+03 -0.18687648545E+04  0.19029934948E+04  0.00000000000E+00 0.  1.
        -13    1    5    5    0    0  0.85668467720E+01  0.13013737997E+01 -0.64996941768E+02  0.65571997656E+02  0.00000000000E+00 0. -1.
          4    1    6    6  503    0  0.19898634233E+02  0.28326654276E+01 -0.55011929938E+02  0.58568695335E+02  0.00000000000E+00 0. -1.
         -4    1    6    6    0  503  0.22845669160E+03 -0.16318313514E+02 -0.94848560740E+02  0.24790118347E+03  0.00000000000E+00 0.  1.
<mgrwt>
<rscale>  0 0.15845341E+04</rscale>
<asrwt>0</asrwt>
<pdfrwt beam="1">  1        2 0.36302543E+00 0.15845341E+04</pdfrwt>
<pdfrwt beam="2">  1       -1 0.40924129E-01 0.15845341E+04</pdfrwt>
<totfact> 0.26813118E+01</totfact>
</mgrwt>
</event>
<event>
12    7  0.1611233E-007  0.1469691E+04  0.7818608E-02  0.8904862E-01
         -1   -1    0    0    0  501 -0.00000000000E+00  0.00000000000E+00  0.20306054245E+03  0.20306054245E+03  0.00000000000E+00 0.  1.
          2   -1    0    0  501    0  0.00000000000E+00 -0.00000000000E+00 -0.26592954898E+04  0.26592954898E+04  0.00000000000E+00 0. -1.
         24    2    1    2    0    0  0.66764064601E+02 -0.35767221628E+03 -0.23920974112E+03  0.44394639615E+03  0.86488425747E+02 0.  0.
        254    2    1    2    0    0 -0.66764064601E+02  0.35767221628E+03 -0.22170252062E+04  0.24184096361E+04  0.89505170147E+03 0.  0.
         23    2    4    4    0    0 -0.25142363659E+03 -0.37178387162E+02 -0.16048815529E+03  0.31417999382E+03  0.91414129227E+02 0.  0.
         23    2    4    4    0    0  0.18465957199E+03  0.39485060344E+03 -0.20565370510E+04  0.21042296423E+04  0.91823684248E+02 0.  0.
          2    1    3    3  502    0 -0.20956785683E+02 -0.69916290885E+02 -0.52063669428E+02  0.89655453106E+02  0.00000000000E+00 0. -1.
         -1    1    3    3    0  502  0.87720850284E+02 -0.28775592540E+03 -0.18714607169E+03  0.35429094305E+03  0.00000000000E+00 0.  1.
         13    1    5    5    0    0 -0.25528141271E+03 -0.43480452572E+02 -0.14444970587E+03  0.29652127572E+03  0.00000000000E+00 0.  1.
        -13    1    5    5    0    0  0.38577761203E+01  0.63020654096E+01 -0.16038449426E+02  0.17658718102E+02  0.00000000000E+00 0. -1.
          3    1    6    6  503    0  0.17785267919E+02  0.36795332585E+02 -0.35981618006E+03  0.36212966695E+03  0.00000000000E+00 0. -1.
         -3    1    6    6    0  503  0.16687430407E+03  0.35805527086E+03 -0.16967208709E+04  0.17420999753E+04  0.00000000000E+00 0.  1.
<mgrwt>
<rscale>  0 0.14696911E+04</rscale>
<asrwt>0</asrwt>
<pdfrwt beam="1">  1        2 0.40912237E+00 0.14696911E+04</pdfrwt>
<pdfrwt beam="2">  1       -1 0.31240084E-01 0.14696911E+04</pdfrwt>
<totfact> 0.29545126E+01</totfact>
</mgrwt>
</event>
<event>
12    7  0.1611233E-007  0.3546492E+04  0.7818608E-02  0.8102859E-01
          2   -1    0    0  501    0  0.00000000000E+00  0.00000000000E+00  0.16653336487E+04  0.16653336487E+04  0.00000000000E+00 0. -1.
         -1   -1    0    0    0  501 -0.00000000000E+00 -0.00000000000E+00 -0.18881514378E+04  0.18881514378E+04  0.00000000000E+00 0.  1.
         24    2    1    2    0    0 -0.25354412621E+02 -0.81929970328E+03  0.13431231673E+04  0.15757270190E+04  0.83910343938E+02 0.  0.
        254    2    1    2    0    0  0.25354412621E+02  0.81929970328E+03 -0.15659409564E+04  0.19777580675E+04  0.88739001846E+03 0.  0.
         23    2    4    4    0    0  0.21604426127E+03  0.93607285856E+03 -0.12991670717E+04  0.16183902006E+04  0.91892556547E+02 0.  0.
         23    2    4    4    0    0 -0.19068984865E+03 -0.11677315528E+03 -0.26677388470E+03  0.35936786694E+03  0.89321722218E+02 0.  0.
          2    1    3    3  502    0 -0.42960471817E+02 -0.76607051710E+03  0.12663976128E+04  0.14807000213E+04  0.00000000000E+00 0. -1.
         -1    1    3    3    0  502  0.17606059196E+02 -0.53229186182E+02  0.76725554508E+02  0.95026997725E+02  0.00000000000E+00 0.  1.
         13    1    5    5    0    0  0.53129741655E+01  0.10679105346E+03 -0.11017196394E+03  0.15352660497E+03  0.00000000000E+00 0. -1.
        -13    1    5    5    0    0  0.21073128710E+03  0.82928180510E+03 -0.11889951077E+04  0.14648635956E+04  0.00000000000E+00 0.  1.
          3    1    6    6  503    0 -0.80393189771E+01 -0.42459138623E+02 -0.55989825909E+02  0.70726725554E+02  0.00000000000E+00 0. -1.
         -3    1    6    6    0  503 -0.18265052967E+03 -0.74314016656E+02 -0.21078405879E+03  0.28864114139E+03  0.00000000000E+00 0.  1.
<mgrwt>
<rscale>  0 0.35464924E+04</rscale>
<asrwt>0</asrwt>
<pdfrwt beam="1">  1        2 0.25620518E+00 0.35464924E+04</pdfrwt>
<pdfrwt beam="2">  1       -1 0.29048484E+00 0.35464924E+04</pdfrwt>
<totfact> 0.36359927E-01</totfact>
</mgrwt>
</event>
<event>
12    7  0.1611233E-007  0.2409526E+04  0.7818608E-02  0.8435946E-01
          2   -1    0    0  501    0  0.00000000000E+00  0.00000000000E+00  0.18957222179E+04  0.18957222179E+04  0.00000000000E+00 0. -1.
         -1   -1    0    0    0  501 -0.00000000000E+00 -0.00000000000E+00 -0.76564674856E+03  0.76564674856E+03  0.00000000000E+00 0.  1.
         24    2    1    2    0    0  0.91294005192E+03 -0.42583064723E+03  0.75912633049E+03  0.12639868080E+04  0.81231684573E+02 0.  0.
        254    2    1    2    0    0 -0.91294005192E+03  0.42583064723E+03  0.37094913882E+03  0.13973821585E+04  0.89458501812E+03 0.  0.
         23    2    4    4    0    0 -0.19191195483E+03  0.47126499161E+03  0.42194533525E+03  0.66745225177E+03  0.92378307716E+02 0.  0.
         23    2    4    4    0    0 -0.72102809709E+03 -0.45434344380E+02 -0.50996196428E+02  0.72992990668E+03  0.90836447389E+02 0.  0.
          2    1    3    3  502    0  0.67986527575E+03 -0.33089580489E+03  0.60962805488E+03  0.97126473846E+03  0.00000000000E+00 0. -1.
         -1    1    3    3    0  502  0.23307477616E+03 -0.94934842335E+02  0.14949827561E+03  0.29272206952E+03  0.00000000000E+00 0.  1.
         13    1    5    5    0    0 -0.14821747481E+03  0.24633537184E+03  0.21963860770E+03  0.36178813310E+03  0.00000000000E+00 0. -1.
        -13    1    5    5    0    0 -0.43694480020E+02  0.22492961977E+03  0.20230672755E+03  0.30566411868E+03  0.00000000000E+00 0.  1.
          3    1    6    6  503    0 -0.14542311438E+03 -0.19252869358E+02 -0.45906252417E+02  0.15370731663E+03  0.00000000000E+00 0. -1.
         -3    1    6    6    0  503 -0.57560498271E+03 -0.26181475022E+02 -0.50899440104E+01  0.57622259005E+03  0.00000000000E+00 0.  1.
<mgrwt>
<rscale>  0 0.24095257E+04</rscale>
<asrwt>0</asrwt>
<pdfrwt beam="1">  1        2 0.29164957E+00 0.24095257E+04</pdfrwt>
<pdfrwt beam="2">  1       -1 0.11779181E+00 0.24095257E+04</pdfrwt>
<totfact> 0.50580624E+00</totfact>
</mgrwt>
</event>
<event>
12    7  0.1611233E-007  0.2429273E+04  0.7818608E-02  0.8428625E-01
          2   -1    0    0  501    0  0.00000000000E+00  0.00000000000E+00  0.40030897353E+04  0.40030897353E+04  0.00000000000E+00 0. -1.
         -1   -1    0    0    0  501 -0.00000000000E+00 -0.00000000000E+00 -0.36855086100E+03  0.36855086100E+03  0.00000000000E+00 0.  1.
         24    2    1    2    0    0  0.21994302857E+03  0.72931731841E+03  0.28610901507E+04  0.29617927309E+04  0.78106615528E+02 0.  0.
        254    2    1    2    0    0 -0.21994302857E+03 -0.72931731841E+03  0.77344872355E+03  0.14098478654E+04  0.89953843100E+03 0.  0.
         23    2    4    4    0    0 -0.26441624018E+03  0.40865465364E+02 -0.39944548800E+02  0.28556855309E+03  0.91476211143E+02 0.  0.
         23    2    4    4    0    0  0.44473211610E+02 -0.77018278377E+03  0.81339327235E+03  0.11242793123E+04  0.85064502504E+02 0.  0.
          4    1    3    3  502    0  0.13886821085E+03  0.44991138714E+03  0.19112760586E+04  0.19684208921E+04  0.00000000000E+00 0. -1.
         -3    1    3    3    0  502  0.81074817727E+02  0.27940593126E+03  0.94981409213E+03  0.99337183879E+03  0.00000000000E+00 0.  1.
         13    1    5    5    0    0 -0.20889723043E+03  0.23050589831E+02  0.76473591302E+01  0.21030421934E+03  0.00000000000E+00 0.  1.
        -13    1    5    5    0    0 -0.55519009756E+02  0.17814875533E+02 -0.47591907930E+02  0.75264333750E+02  0.00000000000E+00 0. -1.
          2    1    6    6  503    0 -0.20118480912E+02 -0.84318503514E+02  0.77933327548E+02  0.11656743478E+03  0.00000000000E+00 0. -1.
         -2    1    6    6    0  503  0.64591692522E+02 -0.68586428026E+03  0.73545994481E+03  0.10077118775E+04  0.00000000000E+00 0.  1.
<mgrwt>
<rscale>  0 0.24292733E+04</rscale>
<asrwt>0</asrwt>
<pdfrwt beam="1">  1        2 0.61585993E+00 0.24292733E+04</pdfrwt>
<pdfrwt beam="2">  1       -1 0.56700135E-01 0.24292733E+04</pdfrwt>
<totfact> 0.10974660E+00</totfact>
</mgrwt>
</event>
<event>
12    7  0.1611233E-007  0.3401084E+04  0.7818608E-02  0.8137640E-01
         -1   -1    0    0    0  501 -0.00000000000E+00  0.00000000000E+00  0.73434976801E+03  0.73434976801E+03  0.00000000000E+00 0.  1.
          2   -1    0    0  501    0  0.00000000000E+00 -0.00000000000E+00 -0.39379639405E+04  0.39379639405E+04  0.00000000000E+00 0. -1.
         24    2    1    2    0    0 -0.10233267212E+04 -0.81158459133E+02 -0.31410967623E+04  0.33055427392E+04  0.79621962923E+02 0.  0.
        254    2    1    2    0    0  0.10233267212E+04  0.81158459133E+02 -0.62517410182E+02  0.13667709693E+04  0.90020563317E+03 0.  0.
         23    2    4    4    0    0  0.69958192166E+03  0.44576696148E+03 -0.18619860068E+03  0.85524336282E+03  0.92995922957E+02 0.  0.
         23    2    4    4    0    0  0.32374479956E+03 -0.36460850235E+03  0.12368119050E+03  0.51152760644E+03  0.92808404989E+02 0.  0.
          2    1    3    3  502    0 -0.10049039746E+04 -0.74740391442E+02 -0.30423936194E+04  0.32049301178E+04  0.00000000000E+00 0. -1.
         -1    1    3    3    0  502 -0.18422746611E+02 -0.64180676905E+01 -0.98703142856E+02  0.10061262145E+03  0.00000000000E+00 0.  1.
         13    1    5    5    0    0  0.55858187931E+03  0.35628596473E+03 -0.18636016099E+03  0.68824669571E+03  0.00000000000E+00 0. -1.
        -13    1    5    5    0    0  0.14100004235E+03  0.89480996759E+02  0.16156030542E+00  0.16699666711E+03  0.00000000000E+00 0.  1.
          4    1    6    6  503    0  0.15496606274E+03 -0.11730388079E+03  0.74293174040E+02  0.20807247958E+03  0.00000000000E+00 0. -1.
         -4    1    6    6    0  503  0.16877873683E+03 -0.24730462156E+03  0.49388016463E+02  0.30345512686E+03  0.00000000000E+00 0.  1.
<mgrwt>
<rscale>  0 0.34010839E+04</rscale>
<asrwt>0</asrwt>
<pdfrwt beam="1">  1        2 0.60584060E+00 0.34010839E+04</pdfrwt>
<pdfrwt beam="2">  1       -1 0.11297689E+00 0.34010839E+04</pdfrwt>
<totfact> 0.25779131E-01</totfact>
</mgrwt>
</event>
<event>
12    7  0.1611233E-007  0.1456865E+04  0.7818608E-02  0.8913655E-01
          2   -1    0    0  501    0  0.00000000000E+00  0.00000000000E+00  0.13162214472E+04  0.13162214472E+04  0.00000000000E+00 0. -1.
         -1   -1    0    0    0  501 -0.00000000000E+00 -0.00000000000E+00 -0.40313420253E+03  0.40313420253E+03  0.00000000000E+00 0.  1.
         24    2    1    2    0    0  0.75580323476E+02  0.20228277637E+03 -0.17230796116E+03  0.28642223022E+03  0.75610538771E+02 0.  0.
        254    2    1    2    0    0 -0.75580323476E+02 -0.20228277637E+03  0.10853952058E+04  0.14329334195E+04  0.91026629346E+03 0.  0.
         23    2    4    4    0    0  0.25958486556E+03 -0.43358102218E+03  0.53620071599E+03  0.74348483072E+03  0.99406641932E+02 0.  0.
         23    2    4    4    0    0 -0.33516518904E+03  0.23129824582E+03  0.54919448981E+03  0.68944858877E+03  0.88826721552E+02 0.  0.
          2    1    3    3  502    0  0.13414681497E+02  0.33173290276E+02  0.18566911744E+01  0.35831106172E+02  0.00000000000E+00 0. -1.
         -1    1    3    3    0  502  0.62165641979E+02  0.16910948609E+03 -0.17416465233E+03  0.25059112404E+03  0.00000000000E+00 0.  1.
         13    1    5    5    0    0  0.18255668559E+03 -0.37030820643E+03  0.40137136805E+03  0.57580733435E+03  0.00000000000E+00 0.  1.
        -13    1    5    5    0    0  0.77028179968E+02 -0.63272815751E+02  0.13482934794E+03  0.16767749637E+03  0.00000000000E+00 0. -1.
          3    1    6    6  503    0 -0.17384751959E+03  0.69779791153E+02  0.22174407942E+03  0.29028023715E+03  0.00000000000E+00 0. -1.
         -3    1    6    6    0  503 -0.16131766944E+03  0.16151845466E+03  0.32745041039E+03  0.39916835162E+03  0.00000000000E+00 0.  1.
<mgrwt>
<rscale>  0 0.14568650E+04</rscale>
<asrwt>0</asrwt>
<pdfrwt beam="1">  1        2 0.20249561E+00 0.14568650E+04</pdfrwt>
<pdfrwt beam="2">  1       -1 0.62020647E-01 0.14568650E+04</pdfrwt>
<totfact> 0.47125157E+01</totfact>
</mgrwt>
</event>
<event>
12    7  0.1611233E-007  0.2104293E+04  0.7818608E-02  0.8559355E-01
         -1   -1    0    0    0  501 -0.00000000000E+00  0.00000000000E+00  0.12066279079E+04  0.12066279079E+04  0.00000000000E+00 0.  1.
          2   -1    0    0  501    0  0.00000000000E+00 -0.00000000000E+00 -0.91744265965E+03  0.91744265965E+03  0.00000000000E+00 0. -1.
         24    2    1    2    0    0 -0.15284459928E+03  0.77959292044E+03 -0.21094127966E+03  0.82586927390E+03  0.80232418505E+02 0.  0.
        254    2    1    2    0    0  0.15284459928E+03 -0.77959292044E+03  0.50012652796E+03  0.12982012937E+04  0.89670143406E+03 0.  0.
         23    2    4    4    0    0  0.12254794994E+01  0.12267543980E+03 -0.11583673816E+03  0.19147481513E+03  0.90519001288E+02 0.  0.
         23    2    4    4    0    0  0.15161911978E+03 -0.90226836024E+03  0.61596326612E+03  0.11067264786E+04  0.91412262685E+02 0.  0.
          2    1    3    3  502    0 -0.76113230373E+02  0.43515206667E+03 -0.15731666250E+03  0.46893397965E+03  0.00000000000E+00 0. -1.
         -1    1    3    3    0  502 -0.76731368904E+02  0.34444085377E+03 -0.53624617159E+02  0.35693529425E+03  0.00000000000E+00 0.  1.
         13    1    5    5    0    0 -0.27746936703E+02  0.12569411780E+02 -0.20837730189E+01  0.30532355279E+02  0.00000000000E+00 0.  1.
        -13    1    5    5    0    0  0.28972416202E+02  0.11010602802E+03 -0.11375296514E+03  0.16094245986E+03  0.00000000000E+00 0. -1.
          1    1    6    6  503    0  0.58877903848E+02 -0.60964116420E+03  0.40647772769E+03  0.73508713753E+03  0.00000000000E+00 0. -1.
         -1    1    6    6    0  503  0.92741215929E+02 -0.29262719604E+03  0.20948553842E+03  0.37163934103E+03  0.00000000000E+00 0.  1.
<mgrwt>
<rscale>  0 0.21042927E+04</rscale>
<asrwt>0</asrwt>
<pdfrwt beam="1">  1        2 0.14114502E+00 0.21042927E+04</pdfrwt>
<pdfrwt beam="2">  1       -1 0.18563506E+00 0.21042927E+04</pdfrwt>
<totfact> 0.56889462E+00</totfact>
</mgrwt>
</event>
<event>
12    7  0.1611233E-007  0.1812300E+04  0.7818608E-02  0.8699786E-01
          2   -1    0    0  501    0  0.00000000000E+00  0.00000000000E+00  0.24182223260E+04  0.24182223260E+04  0.00000000000E+00 0. -1.
         -1   -1    0    0    0  501 -0.00000000000E+00 -0.00000000000E+00 -0.33955006357E+03  0.33955006357E+03  0.00000000000E+00 0.  1.
         24    2    1    2    0    0 -0.35045833032E+03  0.48745741689E+02  0.15851389232E+04  0.16259722617E+04  0.76962337005E+02 0.  0.
        254    2    1    2    0    0  0.35045833032E+03 -0.48745741689E+02  0.49353333924E+03  0.11318001279E+04  0.95509119141E+03 0.  0.
         23    2    4    4    0    0 -0.18517852371E+03  0.21417922590E+03  0.43271628065E+03  0.52514643435E+03  0.91496292398E+02 0.  0.
         23    2    4    4    0    0  0.53563685403E+03 -0.26292496758E+03  0.60817058592E+02  0.60665369353E+03  0.91069266395E+02 0.  0.
          2    1    3    3  502    0 -0.34382912907E+03  0.44579009080E+02  0.15770622794E+04  0.16147232553E+04  0.00000000000E+00 0. -1.
         -1    1    3    3    0  502 -0.66292012455E+01  0.41667326091E+01  0.80766437583E+01  0.11249006364E+02  0.00000000000E+00 0.  1.
         13    1    5    5    0    0 -0.11128320325E+03  0.70252725142E+02  0.23823248422E+03  0.27216559895E+03  0.00000000000E+00 0. -1.
        -13    1    5    5    0    0 -0.73895320464E+02  0.14392650075E+03  0.19448379643E+03  0.25298083540E+03  0.00000000000E+00 0.  1.
          2    1    6    6  503    0  0.49851101687E+03 -0.22270490286E+03  0.72196652045E+02  0.55074773197E+03  0.00000000000E+00 0.  1.
         -2    1    6    6    0  503  0.37125837159E+02 -0.40220064719E+02 -0.11379593453E+02  0.55905961560E+02  0.00000000000E+00 0. -1.
<mgrwt>
<rscale>  0 0.18122997E+04</rscale>
<asrwt>0</asrwt>
<pdfrwt beam="1">  1        2 0.37203419E+00 0.18122997E+04</pdfrwt>
<pdfrwt beam="2">  1       -1 0.52238473E-01 0.18122997E+04</pdfrwt>
<totfact> 0.15395369E+01</totfact>
</mgrwt>
</event>
<event>
12    7  0.1611233E-007  0.1361893E+04  0.7818608E-02  0.8981873E-01
          2   -1    0    0  501    0  0.00000000000E+00  0.00000000000E+00  0.13535197285E+04  0.13535197285E+04  0.00000000000E+00 0. -1.
         -1   -1    0    0    0  501 -0.00000000000E+00 -0.00000000000E+00 -0.34257975015E+03  0.34257975015E+03  0.00000000000E+00 0.  1.
         24    2    1    2    0    0  0.29831379964E+03 -0.13208255063E+02 -0.82485625598E+01  0.30809836170E+03  0.75438588533E+02 0.  0.
        254    2    1    2    0    0 -0.29831379964E+03  0.13208255063E+02  0.10191885409E+04  0.13880011170E+04  0.89366449951E+03 0.  0.
         23    2    4    4    0    0  0.42630894493E+02 -0.32928503556E+03  0.75270392195E+03  0.82768815934E+03  0.90876108915E+02 0.  0.
         23    2    4    4    0    0 -0.34094469414E+03  0.34249329063E+03  0.26648461897E+03  0.56031295763E+03  0.96910369687E+02 0.  0.
          2    1    3    3  502    0  0.29892960611E+02  0.15447242536E+02  0.15624060642E+02  0.37098755599E+02  0.00000000000E+00 0. -1.
         -1    1    3    3    0  502  0.26842083903E+03 -0.28655497600E+02 -0.23872623202E+02  0.27099960610E+03  0.00000000000E+00 0.  1.
         13    1    5    5    0    0  0.69569006041E+02 -0.19165352286E+03  0.45630214638E+03  0.49978252092E+03  0.00000000000E+00 0. -1.
        -13    1    5    5    0    0 -0.26938111548E+02 -0.13763151270E+03  0.29640177558E+03  0.32790563842E+03  0.00000000000E+00 0.  1.
          3    1    6    6  503    0 -0.30526619036E+03  0.25405887479E+03  0.20619706423E+03  0.44749367385E+03  0.00000000000E+00 0. -1.
         -3    1    6    6    0  503 -0.35678503777E+02  0.88434415834E+02  0.60287554741E+02  0.11281928378E+03  0.00000000000E+00 0.  1.
<mgrwt>
<rscale>  0 0.13618935E+04</rscale>
<asrwt>0</asrwt>
<pdfrwt beam="1">  1        2 0.20823380E+00 0.13618935E+04</pdfrwt>
<pdfrwt beam="2">  1       -1 0.52704578E-01 0.13618935E+04</pdfrwt>
<totfact> 0.62104564E+01</totfact>
</mgrwt>
</event>
<event>
12    7  0.1611233E-007  0.1037322E+04  0.7818608E-02  0.9268532E-01
         -1   -1    0    0    0  501 -0.00000000000E+00  0.00000000000E+00  0.35016425690E+03  0.35016425690E+03  0.00000000000E+00 0.  1.
          2   -1    0    0  501    0  0.00000000000E+00 -0.00000000000E+00 -0.76823714666E+03  0.76823714666E+03  0.00000000000E+00 0. -1.
         24    2    1    2    0    0 -0.19299826586E+02 -0.11438219582E+02 -0.15734824772E+03  0.17720941396E+03  0.78367015776E+02 0.  0.
        254    2    1    2    0    0  0.19299826586E+02  0.11438219582E+02 -0.26072464204E+03  0.94119198959E+03  0.90408058608E+03 0.  0.
         23    2    4    4    0    0 -0.26354424694E+03 -0.33229800809E+03 -0.21907141926E+03  0.48642514575E+03  0.93485824597E+02 0.  0.
         23    2    4    4    0    0  0.28284407353E+03  0.34373622767E+03 -0.41653222776E+02  0.45476684385E+03  0.83201725644E+02 0.  0.
          2    1    3    3  502    0 -0.32972414533E+02  0.71059660286E+01 -0.14889554208E+03  0.15266812806E+03  0.00000000000E+00 0. -1.
         -3    1    3    3    0  502  0.13672587946E+02 -0.18544185611E+02 -0.84527056419E+01  0.24541285903E+02  0.00000000000E+00 0.  1.
         13    1    5    5    0    0 -0.39739800794E+02 -0.15139123702E+02 -0.42008942148E+02  0.59776216458E+02  0.00000000000E+00 0. -1.
        -13    1    5    5    0    0 -0.22380444615E+03 -0.31715888439E+03 -0.17706247711E+03  0.42664892929E+03  0.00000000000E+00 0.  1.
          1    1    6    6  503    0  0.75730785407E+02  0.45591926440E+02  0.61520579518E+01  0.88609386816E+02  0.00000000000E+00 0. -1.
         -1    1    6    6    0  503  0.20711328812E+03  0.29814430123E+03 -0.47805280728E+02  0.36615745703E+03  0.00000000000E+00 0.  1.
<mgrwt>
<rscale>  0 0.10373219E+04</rscale>
<asrwt>0</asrwt>
<pdfrwt beam="1">  1        2 0.11819033E+00 0.10373219E+04</pdfrwt>
<pdfrwt beam="2">  1       -1 0.53871424E-01 0.10373219E+04</pdfrwt>
<totfact> 0.14375430E+02</totfact>
</mgrwt>
</event>
<event>
12    7  0.1611233E-007  0.2316821E+04  0.7818608E-02  0.8471318E-01
         -1   -1    0    0    0  501 -0.00000000000E+00  0.00000000000E+00  0.18644008259E+04  0.18644008259E+04  0.00000000000E+00 0.  1.
          2   -1    0    0  501    0  0.00000000000E+00 -0.00000000000E+00 -0.71975679378E+03  0.71975679378E+03  0.00000000000E+00 0. -1.
         24    2    1    2    0    0 -0.75252236471E+03  0.16849604311E+03 -0.18403925225E+03  0.79721011464E+03  0.83622333118E+02 0.  0.
        254    2    1    2    0    0  0.75252236471E+03 -0.16849604311E+03  0.13286832844E+04  0.17869475050E+04  0.91274382479E+03 0.  0.
         23    2    4    4    0    0 -0.10835179213E+02  0.28497484011E+03  0.32797345221E+03  0.44604400962E+03  0.10030260494E+03 0.  0.
         23    2    4    4    0    0  0.76335754392E+03 -0.45347088322E+03  0.10007098321E+04  0.13409034954E+04  0.90837404630E+02 0.  0.
          4    1    3    3  502    0 -0.11571243298E+03  0.26293346178E+02  0.21146313584E+01  0.11868099622E+03  0.00000000000E+00 0. -1.
         -3    1    3    3    0  502 -0.63680993173E+03  0.14220269693E+03 -0.18615388360E+03  0.67852911842E+03  0.00000000000E+00 0.  1.
         13    1    5    5    0    0  0.30075393256E+02  0.24936075878E+02  0.42425425222E+02  0.57673684337E+02  0.00000000000E+00 0. -1.
        -13    1    5    5    0    0 -0.40910572469E+02  0.26003876423E+03  0.28554802699E+03  0.38837032528E+03  0.00000000000E+00 0.  1.
          2    1    6    6  503    0  0.37165848754E+03 -0.17052625135E+03  0.47896702564E+03  0.62977666313E+03  0.00000000000E+00 0. -1.
         -2    1    6    6    0  503  0.39169905637E+03 -0.28294463186E+03  0.52174280650E+03  0.71112683229E+03  0.00000000000E+00 0.  1.
<mgrwt>
<rscale>  0 0.23168212E+04</rscale>
<asrwt>0</asrwt>
<pdfrwt beam="1">  1        2 0.11073182E+00 0.23168212E+04</pdfrwt>
<pdfrwt beam="2">  1       -1 0.28683089E+00 0.23168212E+04</pdfrwt>
<totfact> 0.16423291E+00</totfact>
</mgrwt>
</event>
<event>
12    7  0.1611233E-007  0.2045502E+04  0.7818608E-02  0.8585638E-01
         -3   -1    0    0    0  501 -0.00000000000E+00  0.00000000000E+00  0.54689451751E+03  0.54689451751E+03  0.00000000000E+00 0.  1.
          2   -1    0    0  501    0  0.00000000000E+00 -0.00000000000E+00 -0.19126529449E+04  0.19126529449E+04  0.00000000000E+00 0. -1.
         24    2    1    2    0    0  0.56267919425E+02 -0.35256479072E+03 -0.14520874180E+04  0.14974478191E+04  0.79524154549E+02 0.  0.
        254    2    1    2    0    0 -0.56267919425E+02  0.35256479072E+03  0.86328990549E+02  0.96209964331E+03  0.88922158017E+03 0.  0.
         23    2    4    4    0    0  0.36701126315E+03  0.68932530875E+02 -0.12020718990E+03  0.40455261710E+03  0.98813412078E+02 0.  0.
         23    2    4    4    0    0 -0.42327918257E+03  0.28363225985E+03  0.20653618045E+03  0.55754702621E+03  0.92676681922E+02 0.  0.
          4    1    3    3  502    0  0.34156985044E+02 -0.33590239399E+03 -0.13206792008E+04  0.13631546755E+04  0.00000000000E+00 0. -1.
         -3    1    3    3    0  502  0.22110934380E+02 -0.16662396729E+02 -0.13140821713E+03  0.13429314358E+03  0.00000000000E+00 0.  1.
         13    1    5    5    0    0  0.18178611930E+03  0.12359953985E+02 -0.10497539530E+03  0.21028265561E+03  0.00000000000E+00 0.  1.
        -13    1    5    5    0    0  0.18522514385E+03  0.56572576890E+02 -0.15231794604E+02  0.19426996149E+03  0.00000000000E+00 0. -1.
          2    1    6    6  503    0 -0.42093322677E+02  0.21240190523E+02 -0.73944006433E+01  0.47724948070E+02  0.00000000000E+00 0.  1.
         -2    1    6    6    0  503 -0.38118585990E+03  0.26239206932E+03  0.21393058110E+03  0.50982207814E+03  0.00000000000E+00 0. -1.
<mgrwt>
<rscale>  0 0.20455018E+04</rscale>
<asrwt>0</asrwt>
<pdfrwt beam="1">  1        2 0.29425430E+00 0.20455018E+04</pdfrwt>
<pdfrwt beam="2">  1       -3 0.84137618E-01 0.20455018E+04</pdfrwt>
<totfact> 0.57368841E+00</totfact>
</mgrwt>
</event>
<event>
12    7  0.1611233E-007  0.2309329E+04  0.7818608E-02  0.8474252E-01
          2   -1    0    0  501    0  0.00000000000E+00  0.00000000000E+00  0.19313042276E+04  0.19313042276E+04  0.00000000000E+00 0. -1.
         -1   -1    0    0    0  501 -0.00000000000E+00 -0.00000000000E+00 -0.69033650039E+03  0.69033650039E+03  0.00000000000E+00 0.  1.
         24    2    1    2    0    0 -0.79248616231E+03 -0.54101440266E+03  0.32084368749E+03  0.10148904044E+04  0.79567329331E+02 0.  0.
        254    2    1    2    0    0  0.79248616231E+03  0.54101440266E+03  0.92012403973E+03  0.16067503236E+04  0.90237877438E+03 0.  0.
         23    2    4    4    0    0  0.10451030068E+03  0.58082751329E+03  0.57899482160E+03  0.83177726679E+03  0.91298493830E+02 0.  0.
         23    2    4    4    0    0  0.68797586163E+03 -0.39813110630E+02  0.34112921813E+03  0.77497305677E+03  0.96530955096E+02 0.  0.
          4    1    3    3  502    0 -0.10814942467E+03 -0.43797941467E+02  0.31220749652E+02  0.12078614548E+03  0.00000000000E+00 0. -1.
         -3    1    3    3    0  502 -0.68433673764E+03 -0.49721646119E+03  0.28962293784E+03  0.89410425896E+03  0.00000000000E+00 0.  1.
         13    1    5    5    0    0  0.32235152190E+02  0.32972535087E+03  0.27210996867E+03  0.42872105977E+03  0.00000000000E+00 0.  1.
        -13    1    5    5    0    0  0.72275148487E+02  0.25110216241E+03  0.30688485293E+03  0.40305620702E+03  0.00000000000E+00 0. -1.
          2    1    6    6  503    0  0.32962771619E+03 -0.39719463226E+02  0.11559658298E+03  0.35156028934E+03  0.00000000000E+00 0. -1.
         -2    1    6    6    0  503  0.35834814544E+03 -0.93647404259E-01  0.22553263514E+03  0.42341276743E+03  0.00000000000E+00 0.  1.
<mgrwt>
<rscale>  0 0.23093287E+04</rscale>
<asrwt>0</asrwt>
<pdfrwt beam="1">  1        2 0.29712372E+00 0.23093287E+04</pdfrwt>
<pdfrwt beam="2">  1       -1 0.10620562E+00 0.23093287E+04</pdfrwt>
<totfact> 0.62354343E+00</totfact>
</mgrwt>
</event>
<event>
12    7  0.1611233E-007  0.1470260E+04  0.7818608E-02  0.8904474E-01
         -1   -1    0    0    0  501 -0.00000000000E+00  0.00000000000E+00  0.10355300981E+04  0.10355300981E+04  0.00000000000E+00 0.  1.
          2   -1    0    0  501    0  0.00000000000E+00 -0.00000000000E+00 -0.52187382915E+03  0.52187382915E+03  0.00000000000E+00 0. -1.
         24    2    1    2    0    0  0.32845638729E+03  0.23485179584E+03  0.31845105252E+03  0.52066808520E+03  0.81518204911E+02 0.  0.
        254    2    1    2    0    0 -0.32845638729E+03 -0.23485179584E+03  0.19520521646E+03  0.10367358421E+04  0.93470699438E+03 0.  0.
         23    2    4    4    0    0 -0.23849093946E+03 -0.40874242699E+03 -0.25029442746E+03  0.54292635809E+03  0.90407024429E+02 0.  0.
         23    2    4    4    0    0 -0.89965447836E+02  0.17389063116E+03  0.44549964392E+03  0.49380948398E+03  0.83941290983E+02 0.  0.
          2    1    3    3  502    0  0.15468423760E+03  0.81308231082E+02  0.96250462101E+02  0.19950537150E+03  0.00000000000E+00 0. -1.
         -1    1    3    3    0  502  0.17377214970E+03  0.15354356476E+03  0.22220059042E+03  0.32116271370E+03  0.00000000000E+00 0.  1.
         13    1    5    5    0    0  0.44287132148E+01 -0.33482519915E+02 -0.90715571087E+01  0.34971213719E+02  0.00000000000E+00 0.  1.
        -13    1    5    5    0    0 -0.24291965267E+03 -0.37525990708E+03 -0.24122287035E+03  0.50795514437E+03  0.00000000000E+00 0. -1.
          3    1    6    6  503    0  0.11442792157E+02 -0.19337272493E+00  0.20571812903E+02  0.23540908467E+02  0.00000000000E+00 0. -1.
         -3    1    6    6    0  503 -0.10140823999E+03  0.17408400388E+03  0.42492783102E+03  0.47026857552E+03  0.00000000000E+00 0.  1.
<mgrwt>
<rscale>  0 0.14702599E+04</rscale>
<asrwt>0</asrwt>
<pdfrwt beam="1">  1        2 0.80288282E-01 0.14702599E+04</pdfrwt>
<pdfrwt beam="2">  1       -1 0.15931232E+00 0.14702599E+04</pdfrwt>
<totfact> 0.19177175E+01</totfact>
</mgrwt>
</event>
<event>
12    7  0.1611233E-007  0.2487273E+04  0.7818608E-02  0.8407534E-01
         -1   -1    0    0    0  501 -0.00000000000E+00  0.00000000000E+00  0.66034602824E+03  0.66034602824E+03  0.00000000000E+00 0.  1.
          2   -1    0    0  501    0  0.00000000000E+00 -0.00000000000E+00 -0.23421541630E+04  0.23421541630E+04  0.00000000000E+00 0. -1.
         24    2    1    2    0    0  0.50975429233E+02  0.74275693549E+03  0.21240518142E+03  0.77823835023E+03  0.79073440986E+02 0.  0.
        254    2    1    2    0    0 -0.50975429233E+02 -0.74275693549E+03 -0.18942133162E+04  0.22242618410E+04  0.89722365692E+03 0.  0.
         23    2    4    4    0    0 -0.17302276127E+03 -0.21545570642E+03 -0.44200949175E+02  0.29460350470E+03  0.92084003648E+02 0.  0.
         23    2    4    4    0    0  0.12204733204E+03 -0.52730122907E+03 -0.18500123670E+04  0.19296583363E+04  0.89963322268E+02 0.  0.
          2    1    3    3  502    0  0.48625057385E+02  0.36369314330E+03  0.71528004975E+02  0.37383599905E+03  0.00000000000E+00 0. -1.
         -1    1    3    3    0  502  0.23503718483E+01  0.37906379219E+03  0.14087717644E+03  0.40440235118E+03  0.00000000000E+00 0.  1.
         13    1    5    5    0    0 -0.30170030691E+02 -0.48980542970E+02 -0.48429525700E+02  0.75198027242E+02  0.00000000000E+00 0. -1.
        -13    1    5    5    0    0 -0.14285273058E+03 -0.16647516345E+03  0.42285765249E+01  0.21940547746E+03  0.00000000000E+00 0.  1.
          4    1    6    6  503    0  0.34530053488E+02 -0.47516264167E+02 -0.25889948708E+03  0.26547893394E+03  0.00000000000E+00 0. -1.
         -4    1    6    6    0  503  0.87517278554E+02 -0.47978496491E+03 -0.15911128799E+04  0.16641794023E+04  0.00000000000E+00 0.  1.
<mgrwt>
<rscale>  0 0.24872734E+04</rscale>
<asrwt>0</asrwt>
<pdfrwt beam="1">  1        2 0.36033140E+00 0.24872734E+04</pdfrwt>
<pdfrwt beam="2">  1       -1 0.10159170E+00 0.24872734E+04</pdfrwt>
<totfact> 0.40037362E+00</totfact>
</mgrwt>
</event>
<event>
12    7  0.1611233E-007  0.1527055E+04  0.7818608E-02  0.8866658E-01
          2   -1    0    0  501    0  0.00000000000E+00  0.00000000000E+00  0.14311459737E+04  0.14311459737E+04  0.00000000000E+00 0. -1.
         -1   -1    0    0    0  501 -0.00000000000E+00 -0.00000000000E+00 -0.40734791867E+03  0.40734791867E+03  0.00000000000E+00 0.  1.
         24    2    1    2    0    0 -0.13514304173E+03  0.33950127836E+02 -0.23787215460E+03  0.28697990717E+03  0.79737395709E+02 0.  0.
        254    2    1    2    0    0  0.13514304173E+03 -0.33950127836E+02  0.12616702096E+04  0.15515139852E+04  0.89217020542E+03 0.  0.
         23    2    4    4    0    0  0.20254818308E+02  0.24806307314E+03  0.11983843035E+04  0.12273491718E+04  0.91189387991E+02 0.  0.
         23    2    4    4    0    0  0.11488822342E+03 -0.28201320098E+03  0.63285906042E+02  0.32416481340E+03  0.91361758610E+02 0.  0.
          4    1    3    3  502    0 -0.22338077027E+01  0.40246370665E+01 -0.72816128657E+02  0.72961470606E+02  0.00000000000E+00 0. -1.
         -3    1    3    3    0  502 -0.13290923403E+03  0.29925490770E+02 -0.16505602595E+03  0.21401843656E+03  0.00000000000E+00 0.  1.
         13    1    5    5    0    0 -0.39309344588E+01 -0.69780415130E+01  0.57520245240E+02  0.58075157525E+02  0.00000000000E+00 0. -1.
        -13    1    5    5    0    0  0.24185752767E+02  0.25504111466E+03  0.11408640583E+04  0.11692740142E+04  0.00000000000E+00 0.  1.
          1    1    6    6  503    0 -0.12197046227E+02 -0.26089265237E+02 -0.75541220708E+01  0.29773855268E+02  0.00000000000E+00 0. -1.
         -1    1    6    6    0  503  0.12708526965E+03 -0.25592393574E+03  0.70840028113E+02  0.29439095813E+03  0.00000000000E+00 0.  1.
<mgrwt>
<rscale>  0 0.15270551E+04</rscale>
<asrwt>0</asrwt>
<pdfrwt beam="1">  1        2 0.22017630E+00 0.15270551E+04</pdfrwt>
<pdfrwt beam="2">  1       -1 0.62668911E-01 0.15270551E+04</pdfrwt>
<totfact> 0.39415974E+01</totfact>
</mgrwt>
</event>
<event>
12    7  0.1611233E-007  0.1283369E+04  0.7818608E-02  0.9042859E-01
         -1   -1    0    0    0  501 -0.00000000000E+00  0.00000000000E+00  0.80970604619E+03  0.80970604619E+03  0.00000000000E+00 0.  1.
          2   -1    0    0  501    0  0.00000000000E+00 -0.00000000000E+00 -0.50852899764E+03  0.50852899764E+03  0.00000000000E+00 0. -1.
         24    2    1    2    0    0 -0.13640485903E+03  0.13010127250E+03  0.31178310486E+03  0.37277196175E+03  0.78851787045E+02 0.  0.
        254    2    1    2    0    0  0.13640485903E+03 -0.13010127250E+03 -0.10606056303E+02  0.94546308208E+03  0.92642070598E+03 0.  0.
         23    2    4    4    0    0  0.12140798172E+03 -0.34120723809E+03  0.35318939279E+03  0.51412885913E+03  0.91779405444E+02 0.  0.
         23    2    4    4    0    0  0.14996877311E+02  0.21110596559E+03 -0.36379544909E+03  0.43133422295E+03  0.94400466481E+02 0.  0.
          2    1    3    3  502    0 -0.33954201311E+01  0.45244400912E+02  0.53897516788E+02  0.70452303068E+02  0.00000000000E+00 0. -1.
         -1    1    3    3    0  502 -0.13300943890E+03  0.84856871584E+02  0.25788558807E+03  0.30231965869E+03  0.00000000000E+00 0.  1.
         13    1    5    5    0    0  0.39990682344E+02 -0.24089618869E+03  0.23940095879E+03  0.34196936627E+03  0.00000000000E+00 0. -1.
        -13    1    5    5    0    0  0.81417299377E+02 -0.10031104940E+03  0.11378843399E+03  0.17215949286E+03  0.00000000000E+00 0.  1.
          3    1    6    6  503    0 -0.27984109158E+02  0.12039061360E+03 -0.25455767013E+03  0.28297812218E+03  0.00000000000E+00 0. -1.
         -3    1    6    6    0  503  0.42980986469E+02  0.90715351988E+02 -0.10923777896E+03  0.14835610077E+03  0.00000000000E+00 0.  1.
<mgrwt>
<rscale>  0 0.12833690E+04</rscale>
<asrwt>0</asrwt>
<pdfrwt beam="1">  1        2 0.78235230E-01 0.12833690E+04</pdfrwt>
<pdfrwt beam="2">  1       -1 0.12457016E+00 0.12833690E+04</pdfrwt>
<totfact> 0.38253233E+01</totfact>
</mgrwt>
</event>
<event>
12    7  0.1611233E-007  0.1241934E+04  0.7818608E-02  0.9076923E-01
          2   -1    0    0  501    0  0.00000000000E+00  0.00000000000E+00  0.44949111273E+03  0.44949111273E+03  0.00000000000E+00 0. -1.
         -1   -1    0    0    0  501 -0.00000000000E+00 -0.00000000000E+00 -0.85785915154E+03  0.85785915154E+03  0.00000000000E+00 0.  1.
         24    2    1    2    0    0 -0.43654887239E+02  0.27595332624E+03 -0.25981213987E+02  0.29153593755E+03  0.79134012651E+02 0.  0.
        254    2    1    2    0    0  0.43654887239E+02 -0.27595332624E+03 -0.38238682482E+03  0.10158143267E+04  0.89866738848E+03 0.  0.
         23    2    4    4    0    0 -0.36081210330E+03 -0.72256044226E+02 -0.40283420572E+03  0.55319231604E+03  0.91323772436E+02 0.  0.
         23    2    4    4    0    0  0.40446699054E+03 -0.20369728202E+03  0.20447380897E+02  0.46262201068E+03  0.92276217060E+02 0.  0.
          2    1    3    3  502    0 -0.41740804023E+02  0.28026564848E+03 -0.30511704614E+02  0.28499489918E+03  0.00000000000E+00 0. -1.
         -1    1    3    3    0  502 -0.19140832158E+01 -0.43123222391E+01  0.45304906264E+01  0.65410383707E+01  0.00000000000E+00 0.  1.
         13    1    5    5    0    0 -0.27003595283E+03 -0.56126781642E+02 -0.35431001818E+03  0.44900469978E+03  0.00000000000E+00 0. -1.
        -13    1    5    5    0    0 -0.90776150477E+02 -0.16129262584E+02 -0.48524187537E+02  0.10418761626E+03  0.00000000000E+00 0.  1.
          4    1    6    6  503    0  0.27027556595E+03 -0.14881201768E+03  0.55441473394E+02  0.31347672183E+03  0.00000000000E+00 0. -1.
         -4    1    6    6    0  503  0.13419142459E+03 -0.54885264337E+02 -0.34994092497E+02  0.14914528885E+03  0.00000000000E+00 0.  1.
<mgrwt>
<rscale>  0 0.12419341E+04</rscale>
<asrwt>0</asrwt>
<pdfrwt beam="1">  1        2 0.69152480E-01 0.12419341E+04</pdfrwt>
<pdfrwt beam="2">  1       -1 0.13197833E+00 0.12419341E+04</pdfrwt>
<totfact> 0.38272936E+01</totfact>
</mgrwt>
</event>
<event>
12    7  0.1611233E-007  0.1635963E+04  0.7818608E-02  0.8798754E-01
          2   -1    0    0  501    0  0.00000000000E+00  0.00000000000E+00  0.11313581431E+04  0.11313581431E+04  0.00000000000E+00 0. -1.
         -1   -1    0    0    0  501 -0.00000000000E+00 -0.00000000000E+00 -0.59140718403E+03  0.59140718403E+03  0.00000000000E+00 0.  1.
         24    2    1    2    0    0  0.37981027440E+03 -0.39541712992E+03  0.32784016503E+03  0.64384293697E+03  0.80274544575E+02 0.  0.
        254    2    1    2    0    0 -0.37981027440E+03  0.39541712992E+03  0.21211079408E+03  0.10789223902E+04  0.90469441467E+03 0.  0.
         23    2    4    4    0    0 -0.47984755472E+02  0.62900329884E+03  0.80684249194E+02  0.64268912997E+03  0.92691331930E+02 0.  0.
         23    2    4    4    0    0 -0.33182551892E+03 -0.23358616892E+03  0.13142654489E+03  0.43623326023E+03  0.91410323855E+02 0.  0.
          4    1    3    3  502    0  0.18335393475E+03 -0.16794128803E+03  0.19129440739E+03  0.31371402887E+03  0.00000000000E+00 0. -1.
         -3    1    3    3    0  502  0.19645633965E+03 -0.22747584189E+03  0.13654575764E+03  0.33012890810E+03  0.00000000000E+00 0.  1.
         13    1    5    5    0    0 -0.39839533313E+02  0.62197971068E+03  0.69409684110E+02  0.62710736973E+03  0.00000000000E+00 0.  1.
        -13    1    5    5    0    0 -0.81452221598E+01  0.70235881512E+01  0.11274565085E+02  0.15581760247E+02  0.00000000000E+00 0. -1.
          4    1    6    6  503    0 -0.10003897807E+03 -0.11298307309E+03  0.76690295938E+02  0.16927602733E+03  0.00000000000E+00 0. -1.
         -4    1    6    6    0  503 -0.23178654086E+03 -0.12060309582E+03  0.54736248948E+02  0.26695723289E+03  0.00000000000E+00 0.  1.
<mgrwt>
<rscale>  0 0.16359625E+04</rscale>
<asrwt>0</asrwt>
<pdfrwt beam="1">  1        2 0.17405510E+00 0.16359625E+04</pdfrwt>
<pdfrwt beam="2">  1       -1 0.90985721E-01 0.16359625E+04</pdfrwt>
<totfact> 0.26805797E+01</totfact>
</mgrwt>
</event>
<event>
12    7  0.1611233E-007  0.1916508E+04  0.7818608E-02  0.8646683E-01
         -1   -1    0    0    0  501 -0.00000000000E+00  0.00000000000E+00  0.60582877200E+03  0.60582877200E+03  0.00000000000E+00 0.  1.
          2   -1    0    0  501    0  0.00000000000E+00 -0.00000000000E+00 -0.15156927658E+04  0.15156927658E+04  0.00000000000E+00 0. -1.
         24    2    1    2    0    0 -0.57195251264E+03  0.53106248540E+02 -0.87856066854E+03  0.10527146235E+04  0.79932970629E+02 0.  0.
        254    2    1    2    0    0  0.57195251264E+03 -0.53106248540E+02 -0.31303325234E+02  0.10688069143E+04  0.90078763955E+03 0.  0.
         23    2    4    4    0    0  0.44430548170E+03  0.35351734273E+03 -0.18970779886E+03  0.60479551300E+03  0.86062134000E+02 0.  0.
         23    2    4    4    0    0  0.12764703094E+03 -0.40662359127E+03  0.15840447363E+03  0.46401140132E+03  0.92617999374E+02 0.  0.
          4    1    3    3  502    0 -0.56296410453E+03  0.46065738021E+02 -0.87351859776E+03  0.10402333276E+04  0.00000000000E+00 0. -1.
         -3    1    3    3    0  502 -0.89884081124E+01  0.70405105190E+01 -0.50420707814E+01  0.12481295867E+02  0.00000000000E+00 0.  1.
         13    1    5    5    0    0  0.25117007848E+03  0.23751737734E+03 -0.83024265844E+02  0.35551925627E+03  0.00000000000E+00 0. -1.
        -13    1    5    5    0    0  0.19313540322E+03  0.11599996539E+03 -0.10668353302E+03  0.24927625672E+03  0.00000000000E+00 0.  1.
          3    1    6    6  503    0  0.12888233283E+03 -0.30433216881E+03  0.95905963957E+02  0.34413177507E+03  0.00000000000E+00 0. -1.
         -3    1    6    6    0  503 -0.12353018968E+01 -0.10229142245E+03  0.62498509674E+02  0.11987962625E+03  0.00000000000E+00 0.  1.
<mgrwt>
<rscale>  0 0.19165075E+04</rscale>
<asrwt>0</asrwt>
<pdfrwt beam="1">  1        2 0.23318350E+00 0.19165075E+04</pdfrwt>
<pdfrwt beam="2">  1       -1 0.93204427E-01 0.19165075E+04</pdfrwt>
<totfact> 0.14812849E+01</totfact>
</mgrwt>
</event>
<event>
12    7  0.1611233E-007  0.2229467E+04  0.7818608E-02  0.8506262E-01
          2   -1    0    0  501    0  0.00000000000E+00  0.00000000000E+00  0.12011491848E+04  0.12011491848E+04  0.00000000000E+00 0. -1.
         -1   -1    0    0    0  501 -0.00000000000E+00 -0.00000000000E+00 -0.10345349636E+04  0.10345349636E+04  0.00000000000E+00 0.  1.
         24    2    1    2    0    0 -0.25641056736E+03  0.63405093520E+03 -0.56819619853E+03  0.89268830585E+03  0.79237137082E+02 0.  0.
        254    2    1    2    0    0  0.25641056736E+03 -0.63405093520E+03  0.73481041973E+03  0.13429958425E+04  0.89214601530E+03 0.  0.
         23    2    4    4    0    0  0.57462298098E+02 -0.12419979504E+03 -0.19919556684E+03  0.25657502724E+03  0.86164760575E+02 0.  0.
         23    2    4    4    0    0  0.19894826926E+03 -0.50985114016E+03  0.93400598657E+03  0.10864208153E+04  0.91730071204E+02 0.  0.
          4    1    3    3  502    0 -0.22884837809E+03  0.52341722465E+03 -0.50419396523E+03  0.76193748154E+03  0.00000000000E+00 0. -1.
         -3    1    3    3    0  502 -0.27562189264E+02  0.11063371055E+03 -0.64002233301E+02  0.13075082430E+03  0.00000000000E+00 0.  1.
         13    1    5    5    0    0 -0.16597604114E+02 -0.36193090561E+02 -0.22484681137E+02  0.45727247375E+02  0.00000000000E+00 0.  1.
        -13    1    5    5    0    0  0.74059902212E+02 -0.88006704480E+02 -0.17671088571E+03  0.21084777987E+03  0.00000000000E+00 0. -1.
          3    1    6    6  503    0  0.19960743869E+03 -0.49409234936E+03  0.92680378291E+03  0.10690816766E+04  0.00000000000E+00 0. -1.
         -3    1    6    6    0  503 -0.65916942922E+00 -0.15758790797E+02  0.72022036564E+01  0.17339138653E+02  0.00000000000E+00 0.  1.
<mgrwt>
<rscale>  0 0.22294670E+04</rscale>
<asrwt>0</asrwt>
<pdfrwt beam="1">  1        2 0.18479218E+00 0.22294670E+04</pdfrwt>
<pdfrwt beam="2">  1       -1 0.15915923E+00 0.22294670E+04</pdfrwt>
<totfact> 0.58299223E+00</totfact>
</mgrwt>
</event>
<event>
12    7  0.1611233E-007  0.1750902E+04  0.7818608E-02  0.8732854E-01
         -1   -1    0    0    0  501 -0.00000000000E+00  0.00000000000E+00  0.66637060071E+03  0.66637060071E+03  0.00000000000E+00 0.  1.
          2   -1    0    0  501    0  0.00000000000E+00 -0.00000000000E+00 -0.11501323072E+04  0.11501323072E+04  0.00000000000E+00 0. -1.
         24    2    1    2    0    0  0.42066919986E+03  0.45882895791E+03 -0.20845732008E+02  0.62799484518E+03  0.80351681359E+02 0.  0.
        254    2    1    2    0    0 -0.42066919986E+03 -0.45882895791E+03 -0.46291597451E+03  0.11885080628E+04  0.90042969046E+03 0.  0.
         23    2    4    4    0    0  0.25701267372E+03 -0.24774213248E+03 -0.80824419683E+02  0.37735552839E+03  0.91830982417E+02 0.  0.
         23    2    4    4    0    0 -0.67768187359E+03 -0.21108682543E+03 -0.38209155483E+03  0.81115253437E+03  0.90355454099E+02 0.  0.
          2    1    3    3  502    0  0.12355808976E+03  0.98700567647E+02  0.19723309203E+02  0.15936565667E+03  0.00000000000E+00 0. -1.
         -1    1    3    3    0  502  0.29711111011E+03  0.36012839026E+03 -0.40569041211E+02  0.46862918851E+03  0.00000000000E+00 0.  1.
         13    1    5    5    0    0  0.24685800838E+03 -0.23080563434E+03 -0.51278779290E+02  0.34181812466E+03  0.00000000000E+00 0.  1.
        -13    1    5    5    0    0  0.10154665346E+02 -0.16936498136E+02 -0.29545640393E+02  0.35537403727E+02  0.00000000000E+00 0. -1.
          3    1    6    6  503    0 -0.14508621035E+03 -0.73541509718E+02 -0.57907725594E+02  0.17266055360E+03  0.00000000000E+00 0. -1.
         -3    1    6    6    0  503 -0.53259566324E+03 -0.13754531571E+03 -0.32418382923E+03  0.63849198077E+03  0.00000000000E+00 0.  1.
<mgrwt>
<rscale>  0 0.17509019E+04</rscale>
<asrwt>0</asrwt>
<pdfrwt beam="1">  1        2 0.17694343E+00 0.17509019E+04</pdfrwt>
<pdfrwt beam="2">  1       -1 0.10251856E+00 0.17509019E+04</pdfrwt>
<totfact> 0.19748473E+01</totfact>
</mgrwt>
</event>
<event>
12    7  0.1611233E-007  0.2542086E+04  0.7818608E-02  0.8388144E-01
         -1   -1    0    0    0  501 -0.00000000000E+00  0.00000000000E+00  0.13420192203E+04  0.13420192203E+04  0.00000000000E+00 0.  1.
          2   -1    0    0  501    0  0.00000000000E+00 -0.00000000000E+00 -0.12038200748E+04  0.12038200748E+04  0.00000000000E+00 0. -1.
         24    2    1    2    0    0 -0.84354397241E+02 -0.22823053739E+03 -0.10197154453E+04  0.10513482210E+04  0.79427009641E+02 0.  0.
        254    2    1    2    0    0  0.84354397241E+02  0.22823053739E+03  0.11579145908E+04  0.14944910740E+04  0.91298002615E+03 0.  0.
         23    2    4    4    0    0 -0.29796994214E+03  0.46208689994E+02  0.70711693375E+02  0.32424916629E+03  0.96000254213E+02 0.  0.
         23    2    4    4    0    0  0.38232433938E+03  0.18202184740E+03  0.10872028974E+04  0.11702419077E+04  0.90289140899E+02 0.  0.
          2    1    3    3  502    0 -0.67522638752E+02 -0.11571091693E+03 -0.41711979522E+03  0.43810643296E+03  0.00000000000E+00 0. -1.
         -1    1    3    3    0  502 -0.16831758489E+02 -0.11251962046E+03 -0.60259565010E+03  0.61324178804E+03  0.00000000000E+00 0.  1.
         13    1    5    5    0    0 -0.20207025188E+03  0.70999775222E+02  0.69550188228E+02  0.22519010516E+03  0.00000000000E+00 0. -1.
        -13    1    5    5    0    0 -0.95899690259E+02 -0.24791085229E+02  0.11615051477E+01  0.99059061134E+02  0.00000000000E+00 0.  1.
          4    1    6    6  503    0  0.31612799834E+03  0.10947243130E+03  0.82510986975E+03  0.89035241433E+03  0.00000000000E+00 0. -1.
         -4    1    6    6    0  503  0.66196341040E+02  0.72549416101E+02  0.26209302770E+03  0.27988949339E+03  0.00000000000E+00 0.  1.
<mgrwt>
<rscale>  0 0.25420855E+04</rscale>
<asrwt>0</asrwt>
<pdfrwt beam="1">  1        2 0.18520309E+00 0.25420855E+04</pdfrwt>
<pdfrwt beam="2">  1       -1 0.20646449E+00 0.25420855E+04</pdfrwt>
<totfact> 0.25933053E+00</totfact>
</mgrwt>
</event>
<event>
12    7  0.1611233E-007  0.1490260E+04  0.7818608E-02  0.8890956E-01
         -1   -1    0    0    0  501 -0.00000000000E+00  0.00000000000E+00  0.23102322950E+03  0.23102322950E+03  0.00000000000E+00 0.  1.
          2   -1    0    0  501    0  0.00000000000E+00 -0.00000000000E+00 -0.24033025675E+04  0.24033025675E+04  0.00000000000E+00 0. -1.
         24    2    1    2    0    0 -0.35137334933E+03  0.15415972853E+03 -0.21698007626E+03  0.44811382297E+03  0.80605163146E+02 0.  0.
        254    2    1    2    0    0  0.35137334933E+03 -0.15415972853E+03 -0.19552992617E+04  0.21862119740E+04  0.89949938292E+03 0.  0.
         23    2    4    4    0    0 -0.12450731562E+03  0.10677103569E+03 -0.38596778886E+02  0.19211621015E+03  0.92286516655E+02 0.  0.
         23    2    4    4    0    0  0.47588066495E+03 -0.26093076422E+03 -0.19167024828E+04  0.19940957638E+04  0.90123452682E+02 0.  0.
          2    1    3    3  502    0 -0.54357509453E+02  0.28315712417E+01 -0.55425714257E+02  0.77683759117E+02  0.00000000000E+00 0. -1.
         -1    1    3    3    0  502 -0.29701583988E+03  0.15132815729E+03 -0.16155436200E+03  0.37043006385E+03  0.00000000000E+00 0.  1.
         13    1    5    5    0    0  0.10270458203E+02  0.17502686305E+02 -0.21484075404E+02  0.29553203474E+02  0.00000000000E+00 0. -1.
        -13    1    5    5    0    0 -0.13477777382E+03  0.89268349388E+02 -0.17112703481E+02  0.16256300668E+03  0.00000000000E+00 0.  1.
          4    1    6    6  503    0  0.32970131144E+03 -0.22271073204E+03 -0.13287837295E+04  0.13870721772E+04  0.00000000000E+00 0.  1.
         -4    1    6    6    0  503  0.14617935351E+03 -0.38220032183E+02 -0.58791875329E+03  0.60702358663E+03  0.00000000000E+00 0. -1.
<mgrwt>
<rscale>  0 0.14902600E+04</rscale>
<asrwt>0</asrwt>
<pdfrwt beam="1">  1        2 0.36973886E+00 0.14902600E+04</pdfrwt>
<pdfrwt beam="2">  1       -1 0.35542035E-01 0.14902600E+04</pdfrwt>
<totfact> 0.32974756E+01</totfact>
</mgrwt>
</event>
<event>
12    7  0.1611233E-007  0.1446899E+04  0.7818608E-02  0.8920553E-01
         -1   -1    0    0    0  501 -0.00000000000E+00  0.00000000000E+00  0.39705722908E+03  0.39705722908E+03  0.00000000000E+00 0.  1.
          2   -1    0    0  501    0  0.00000000000E+00 -0.00000000000E+00 -0.13181446353E+04  0.13181446353E+04  0.00000000000E+00 0. -1.
         24    2    1    2    0    0  0.39877060443E+03 -0.17707500487E+03 -0.27916094601E+03  0.52405777170E+03  0.79574882973E+02 0.  0.
        254    2    1    2    0    0 -0.39877060443E+03  0.17707500487E+03 -0.64192646026E+03  0.11911440927E+04  0.90353811039E+03 0.  0.
         23    2    4    4    0    0  0.12552711576E+03 -0.23876073010E+03 -0.35940263198E+03  0.45901056656E+03  0.93577269234E+02 0.  0.
         23    2    4    4    0    0 -0.52429772018E+03  0.41583573497E+03 -0.28252382828E+03  0.73213352615E+03  0.91609654025E+02 0.  0.
          2    1    3    3  502    0  0.33543044895E+03 -0.11721261110E+03 -0.23808308065E+03  0.42771010694E+03  0.00000000000E+00 0. -1.
         -1    1    3    3    0  502  0.63340155477E+02 -0.59862393766E+02 -0.41077865361E+02  0.96347664766E+02  0.00000000000E+00 0.  1.
         13    1    5    5    0    0  0.87104659219E+02 -0.18481685011E+03 -0.32625355811E+03  0.38494918356E+03  0.00000000000E+00 0. -1.
        -13    1    5    5    0    0  0.38422456537E+02 -0.53943879987E+02 -0.33149073868E+02  0.74061383005E+02  0.00000000000E+00 0.  1.
          1    1    6    6  503    0 -0.45672885568E+03  0.34714310706E+03 -0.27295082617E+03  0.63530444505E+03  0.00000000000E+00 0.  1.
         -1    1    6    6    0  503 -0.67568864502E+02  0.68692627907E+02 -0.95730021114E+01  0.96829081108E+02  0.00000000000E+00 0. -1.
<mgrwt>
<rscale>  0 0.14468986E+04</rscale>
<asrwt>0</asrwt>
<pdfrwt beam="1">  1        2 0.20279148E+00 0.14468986E+04</pdfrwt>
<pdfrwt beam="2">  1       -1 0.61085728E-01 0.14468986E+04</pdfrwt>
<totfact> 0.48484067E+01</totfact>
</mgrwt>
</event>
<event>
12    7  0.1611233E-007  0.1036409E+04  0.7818608E-02  0.9269489E-01
          2   -1    0    0  501    0  0.00000000000E+00  0.00000000000E+00  0.13340933726E+04  0.13340933726E+04  0.00000000000E+00 0. -1.
         -1   -1    0    0    0  501 -0.00000000000E+00 -0.00000000000E+00 -0.20128722389E+03  0.20128722389E+03  0.00000000000E+00 0.  1.
         24    2    1    2    0    0  0.97511791600E+02  0.56745572799E+02  0.20490243000E+03  0.24777440224E+03  0.81722328976E+02 0.  0.
        254    2    1    2    0    0 -0.97511791600E+02 -0.56745572799E+02  0.92790371867E+03  0.12876061942E+04  0.88554829948E+03 0.  0.
         23    2    4    4    0    0 -0.28550784095E+03 -0.87946751712E+02  0.10140631823E+04  0.10611670424E+04  0.92206268588E+02 0.  0.
         23    2    4    4    0    0  0.18799604935E+03  0.31201178913E+02 -0.86159463577E+02  0.22643915178E+03  0.86805576749E+02 0.  0.
          2    1    3    3  502    0  0.74663548936E+02 -0.68512154085E+00  0.13647065037E+03  0.15556141341E+03  0.00000000000E+00 0. -1.
         -1    1    3    3    0  502  0.22848242664E+02  0.57430694340E+02  0.68431779634E+02  0.92212988831E+02  0.00000000000E+00 0.  1.
         13    1    5    5    0    0 -0.11106609150E+03  0.10786164024E+02  0.39520562471E+03  0.41065740444E+03  0.00000000000E+00 0.  1.
        -13    1    5    5    0    0 -0.17444174945E+03 -0.98732915736E+02  0.61885755754E+03  0.65050963799E+03  0.00000000000E+00 0. -1.
          3    1    6    6  503    0  0.19682851700E+03  0.25955987423E+02 -0.77941628998E+02  0.21328402640E+03  0.00000000000E+00 0. -1.
         -3    1    6    6    0  503 -0.88324676446E+01  0.52451914898E+01 -0.82178345785E+01  0.13155125374E+02  0.00000000000E+00 0.  1.
<mgrwt>
<rscale>  0 0.10364091E+04</rscale>
<asrwt>0</asrwt>
<pdfrwt beam="1">  1        2 0.20524513E+00 0.10364091E+04</pdfrwt>
<pdfrwt beam="2">  1       -1 0.30967266E-01 0.10364091E+04</pdfrwt>
<totfact> 0.17283585E+02</totfact>
</mgrwt>
</event>
<event>
12    7  0.1611233E-007  0.1652423E+04  0.7818608E-02  0.8788974E-01
         -1   -1    0    0    0  501 -0.00000000000E+00  0.00000000000E+00  0.45042114287E+03  0.45042114287E+03  0.00000000000E+00 0.  1.
          2   -1    0    0  501    0  0.00000000000E+00 -0.00000000000E+00 -0.15155270326E+04  0.15155270326E+04  0.00000000000E+00 0. -1.
         24    2    1    2    0    0 -0.53238377146E+03  0.15124474077E+03 -0.57035853893E+03  0.79861257469E+03  0.78522161179E+02 0.  0.
        254    2    1    2    0    0  0.53238377146E+03 -0.15124474077E+03 -0.49474735085E+03  0.11673356008E+04  0.90088290697E+03 0.  0.
         23    2    4    4    0    0 -0.63450196024E+02 -0.35627892967E+03 -0.21048648617E+02  0.37349445286E+03  0.89969203660E+02 0.  0.
         23    2    4    4    0    0  0.59583396748E+03  0.20503418891E+03 -0.47369870223E+03  0.79384114796E+03  0.93467493186E+02 0.  0.
          2    1    3    3  502    0 -0.52149948112E+03  0.13373361514E+03 -0.54902994047E+03  0.76894750416E+03  0.00000000000E+00 0. -1.
         -1    1    3    3    0  502 -0.10884290338E+02  0.17511125627E+02 -0.21328598464E+02  0.29665070526E+02  0.00000000000E+00 0.  1.
         13    1    5    5    0    0 -0.14487784716E+02 -0.27595042377E+03 -0.34452666579E+02  0.27846995982E+03  0.00000000000E+00 0. -1.
        -13    1    5    5    0    0 -0.48962411307E+02 -0.80328505898E+02  0.13404017962E+02  0.95024493045E+02  0.00000000000E+00 0.  1.
          4    1    6    6  503    0  0.13053738471E+03  0.70749182060E+01 -0.83281014835E+02  0.15500255064E+03  0.00000000000E+00 0.  1.
         -4    1    6    6    0  503  0.46529658277E+03  0.19795927070E+03 -0.39041768739E+03  0.63883859732E+03  0.00000000000E+00 0. -1.
<mgrwt>
<rscale>  0 0.16524230E+04</rscale>
<asrwt>0</asrwt>
<pdfrwt beam="1">  1        2 0.23315801E+00 0.16524230E+04</pdfrwt>
<pdfrwt beam="2">  1       -1 0.69295560E-01 0.16524230E+04</pdfrwt>
<totfact> 0.28518873E+01</totfact>
</mgrwt>
</event>
<event>
12    7  0.1611233E-007  0.2363135E+04  0.7818608E-02  0.8453436E-01
          2   -1    0    0  501    0  0.00000000000E+00  0.00000000000E+00  0.18778704754E+04  0.18778704754E+04  0.00000000000E+00 0. -1.
         -1   -1    0    0    0  501 -0.00000000000E+00 -0.00000000000E+00 -0.74344962922E+03  0.74344962922E+03  0.00000000000E+00 0.  1.
         24    2    1    2    0    0 -0.62883790312E+03 -0.34152245062E+03 -0.29832641830E+03  0.77949362452E+03  0.80851506722E+02 0.  0.
        254    2    1    2    0    0  0.62883790312E+03  0.34152245062E+03  0.14327472644E+04  0.18418264801E+04  0.90966222646E+03 0.  0.
         23    2    4    4    0    0  0.61498366860E+03  0.59202621535E+03  0.12586441365E+04  0.15233279146E+04  0.87423799416E+02 0.  0.
         23    2    4    4    0    0  0.13854234518E+02 -0.25050376473E+03  0.17410312791E+03  0.31849856546E+03  0.90472985439E+02 0.  0.
          4    1    3    3  502    0 -0.34279711510E+03 -0.18066253234E+03 -0.11808143601E+03  0.40508275480E+03  0.00000000000E+00 0. -1.
         -3    1    3    3    0  502 -0.28604078802E+03 -0.16085991828E+03 -0.18024498229E+03  0.37441086971E+03  0.00000000000E+00 0.  1.
         13    1    5    5    0    0  0.17016992289E+03  0.18795335097E+03  0.43948994877E+03  0.50738119779E+03  0.00000000000E+00 0. -1.
        -13    1    5    5    0    0  0.44481374571E+03  0.40407286437E+03  0.81915418776E+03  0.10159467168E+04  0.00000000000E+00 0.  1.
          4    1    6    6  503    0  0.15421541871E+02 -0.12270219389E+01  0.20538053894E+02  0.25712666028E+02  0.00000000000E+00 0. -1.
         -4    1    6    6    0  503 -0.15673073529E+01 -0.24927674279E+03  0.15356507401E+03  0.29278589943E+03  0.00000000000E+00 0.  1.
<mgrwt>
<rscale>  0 0.23631353E+04</rscale>
<asrwt>0</asrwt>
<pdfrwt beam="1">  1        2 0.28890315E+00 0.23631353E+04</pdfrwt>
<pdfrwt beam="2">  1       -1 0.11437687E+00 0.23631353E+04</pdfrwt>
<totfact> 0.55766265E+00</totfact>
</mgrwt>
</event>
<event>
12    7  0.1611233E-007  0.2374605E+04  0.7818608E-02  0.8449073E-01
         -1   -1    0    0    0  501 -0.00000000000E+00  0.00000000000E+00  0.23217465295E+04  0.23217465295E+04  0.00000000000E+00 0.  1.
          2   -1    0    0  501    0  0.00000000000E+00 -0.00000000000E+00 -0.60716687760E+03  0.60716687760E+03  0.00000000000E+00 0. -1.
         24    2    1    2    0    0 -0.51697230417E+03  0.14151636355E+03 -0.32563150113E+03  0.63392807583E+03  0.92421244140E+02 0.  0.
        254    2    1    2    0    0  0.51697230417E+03 -0.14151636355E+03  0.20402111530E+04  0.22949853312E+04  0.90399606044E+03 0.  0.
         23    2    4    4    0    0  0.23204051275E+03 -0.36369114419E+03  0.34933444496E+03  0.56352673651E+03  0.97024638156E+02 0.  0.
         23    2    4    4    0    0  0.28493179142E+03  0.22217478063E+03  0.16908767081E+04  0.17314585947E+04  0.91307527116E+02 0.  0.
          2    1    3    3  502    0 -0.50553878486E+03  0.14595143354E+03 -0.32977271881E+03  0.62098416246E+03  0.00000000000E+00 0. -1.
         -1    1    3    3    0  502 -0.11433519311E+02 -0.44350699898E+01  0.41412176787E+01  0.12943913377E+02  0.00000000000E+00 0.  1.
         13    1    5    5    0    0  0.18233554037E+03 -0.21791323138E+03  0.26187807519E+03  0.38640982384E+03  0.00000000000E+00 0.  1.
        -13    1    5    5    0    0  0.49704972382E+02 -0.14577791280E+03  0.87456369763E+02  0.17711691267E+03  0.00000000000E+00 0. -1.
          4    1    6    6  503    0  0.24798979479E+03  0.15677345638E+03  0.12303898404E+04  0.12648857712E+04  0.00000000000E+00 0. -1.
         -4    1    6    6    0  503  0.36941996637E+02  0.65401324249E+02  0.46048686770E+03  0.46657282353E+03  0.00000000000E+00 0.  1.
<mgrwt>
<rscale>  0 0.23746053E+04</rscale>
<asrwt>0</asrwt>
<pdfrwt beam="1">  1        2 0.93410291E-01 0.23746053E+04</pdfrwt>
<pdfrwt beam="2">  1       -1 0.35719177E+00 0.23746053E+04</pdfrwt>
<totfact> 0.70010446E-01</totfact>
</mgrwt>
</event>
<event>
12    7  0.1611233E-007  0.1692929E+04  0.7818608E-02  0.8765408E-01
         -1   -1    0    0    0  501 -0.00000000000E+00  0.00000000000E+00  0.51202060773E+03  0.51202060773E+03  0.00000000000E+00 0.  1.
          2   -1    0    0  501    0  0.00000000000E+00 -0.00000000000E+00 -0.13993615939E+04  0.13993615939E+04  0.00000000000E+00 0. -1.
         24    2    1    2    0    0  0.24339921686E+03  0.12839753538E+03 -0.91520261536E+03  0.95935079708E+03  0.83839244020E+02 0.  0.
        254    2    1    2    0    0 -0.24339921686E+03 -0.12839753538E+03  0.27861629153E+02  0.95203140459E+03  0.91096565198E+03 0.  0.
         23    2    4    4    0    0 -0.19093818524E+02  0.37099722179E+02  0.43724833974E+03  0.44891890782E+03  0.92742179693E+02 0.  0.
         23    2    4    4    0    0 -0.22430539834E+03 -0.16549725755E+03 -0.40938671059E+03  0.50311249678E+03  0.88444624614E+02 0.  0.
          4    1    3    3  502    0  0.23878567781E+03  0.13678619967E+03 -0.84967365133E+03  0.89312618264E+03  0.00000000000E+00 0. -1.
         -3    1    3    3    0  502  0.46135390449E+01 -0.83886642921E+01 -0.65528964035E+02  0.66224614447E+02  0.00000000000E+00 0.  1.
         13    1    5    5    0    0  0.24663881911E+02  0.39262070934E+02  0.11976407804E+03  0.12842605527E+03  0.00000000000E+00 0. -1.
        -13    1    5    5    0    0 -0.43757700435E+02 -0.21623487552E+01  0.31748426171E+03  0.32049285254E+03  0.00000000000E+00 0.  1.
          3    1    6    6  503    0 -0.50652819398E+01 -0.44363660440E+01  0.43025553135E+01  0.79906449697E+01  0.00000000000E+00 0. -1.
         -3    1    6    6    0  503 -0.21924011640E+03 -0.16106089151E+03 -0.41368926591E+03  0.49512185181E+03  0.00000000000E+00 0.  1.
<mgrwt>
<rscale>  0 0.16929288E+04</rscale>
<asrwt>0</asrwt>
<pdfrwt beam="1">  1        2 0.21528640E+00 0.16929288E+04</pdfrwt>
<pdfrwt beam="2">  1       -1 0.78772401E-01 0.16929288E+04</pdfrwt>
<totfact> 0.25335475E+01</totfact>
</mgrwt>
</event>
<event>
12    7  0.1611233E-007  0.3308571E+04  0.7818608E-02  0.8160718E-01
         -1   -1    0    0    0  501 -0.00000000000E+00  0.00000000000E+00  0.11964336070E+04  0.11964336070E+04  0.00000000000E+00 0.  1.
          2   -1    0    0  501    0  0.00000000000E+00 -0.00000000000E+00 -0.22873482239E+04  0.22873482239E+04  0.00000000000E+00 0. -1.
         24    2    1    2    0    0 -0.32850480595E+03 -0.84021810150E+02 -0.20821781177E+04  0.21111074732E+04  0.79586290368E+02 0.  0.
        254    2    1    2    0    0  0.32850480595E+03  0.84021810150E+02  0.99126350077E+03  0.13726743577E+04  0.88693657734E+03 0.  0.
         23    2    4    4    0    0  0.13590461575E+03  0.27989827168E+03 -0.16102511474E+02  0.32457017029E+03  0.90958218406E+02 0.  0.
         23    2    4    4    0    0  0.19260019020E+03 -0.19587646153E+03  0.10073660122E+04  0.10481041874E+04  0.90959791081E+02 0.  0.
          4    1    3    3  502    0 -0.18302231227E+03 -0.62106172323E+01 -0.10611479996E+04  0.10768336992E+04  0.00000000000E+00 0. -1.
         -1    1    3    3    0  502 -0.14548249368E+03 -0.77811192918E+02 -0.10210301181E+04  0.10342737741E+04  0.00000000000E+00 0.  1.
         13    1    5    5    0    0  0.85368554234E+02  0.23455405022E+03  0.14644725402E+02  0.25003571847E+03  0.00000000000E+00 0. -1.
        -13    1    5    5    0    0  0.50536061515E+02  0.45344221458E+02 -0.30747236876E+02  0.74534451823E+02  0.00000000000E+00 0.  1.
          2    1    6    6  503    0  0.20267998348E+03 -0.18460492266E+03  0.94822545491E+03  0.98706112603E+03  0.00000000000E+00 0. -1.
         -2    1    6    6    0  503 -0.10079793282E+02 -0.11271538871E+02  0.59140557333E+02  0.61043061382E+02  0.00000000000E+00 0.  1.
<mgrwt>
<rscale>  0 0.33085709E+04</rscale>
<asrwt>0</asrwt>
<pdfrwt beam="1">  1        2 0.35189972E+00 0.33085709E+04</pdfrwt>
<pdfrwt beam="2">  1       -1 0.18406671E+00 0.33085709E+04</pdfrwt>
<totfact> 0.85110004E-01</totfact>
</mgrwt>
</event>
<event>
12    7  0.1611233E-007  0.1279130E+04  0.7818608E-02  0.9046281E-01
          2   -1    0    0  501    0  0.00000000000E+00  0.00000000000E+00  0.22353306041E+03  0.22353306041E+03  0.00000000000E+00 0. -1.
         -1   -1    0    0    0  501 -0.00000000000E+00 -0.00000000000E+00 -0.18299014689E+04  0.18299014689E+04  0.00000000000E+00 0.  1.
         24    2    1    2    0    0 -0.17754980691E+02 -0.32034119119E+03 -0.48119038707E+03  0.58392162267E+03  0.80539150088E+02 0.  0.
        254    2    1    2    0    0  0.17754980691E+02  0.32034119119E+03 -0.11251780214E+04  0.14695129066E+04  0.88910566571E+03 0.  0.
         23    2    4    4    0    0 -0.11123796407E+03  0.53389458476E+03 -0.35824663679E+03  0.65832127683E+03  0.87343794708E+02 0.  0.
         23    2    4    4    0    0  0.12899294476E+03 -0.21355339357E+03 -0.76693138460E+03  0.81119162979E+03  0.87200228546E+02 0.  0.
          4    1    3    3  502    0  0.15518909115E+01 -0.19290242282E+03 -0.21958095574E+03  0.29228333722E+03  0.00000000000E+00 0. -1.
         -3    1    3    3    0  502 -0.19306871603E+02 -0.12743876837E+03 -0.26160943133E+03  0.29163828544E+03  0.00000000000E+00 0.  1.
         13    1    5    5    0    0 -0.21479982860E+02  0.19423212915E+03 -0.17381092730E+03  0.26152963141E+03  0.00000000000E+00 0. -1.
        -13    1    5    5    0    0 -0.89757981209E+02  0.33966245560E+03 -0.18443570949E+03  0.39679164542E+03  0.00000000000E+00 0.  1.
          3    1    6    6  503    0  0.33045341214E+02 -0.86963829251E+02 -0.17348047378E+03  0.19685064632E+03  0.00000000000E+00 0. -1.
         -3    1    6    6    0  503  0.95947603546E+02 -0.12658956432E+03 -0.59345091082E+03  0.61434098347E+03  0.00000000000E+00 0.  1.
<mgrwt>
<rscale>  0 0.12791301E+04</rscale>
<asrwt>0</asrwt>
<pdfrwt beam="1">  1        2 0.34389703E-01 0.12791301E+04</pdfrwt>
<pdfrwt beam="2">  1       -1 0.28152330E+00 0.12791301E+04</pdfrwt>
<totfact> 0.75012100E+00</totfact>
</mgrwt>
</event>
<event>
12    7  0.1611233E-007  0.3201864E+04  0.7818608E-02  0.8188325E-01
         -1   -1    0    0    0  501 -0.00000000000E+00  0.00000000000E+00  0.53784498109E+03  0.53784498109E+03  0.00000000000E+00 0.  1.
          2   -1    0    0  501    0  0.00000000000E+00 -0.00000000000E+00 -0.47652819817E+04  0.47652819817E+04  0.00000000000E+00 0. -1.
         24    2    1    2    0    0 -0.80567220236E+03 -0.29602419019E+03 -0.39291432264E+04  0.40225950205E+04  0.79788383419E+02 0.  0.
        254    2    1    2    0    0  0.80567220236E+03  0.29602419019E+03 -0.29829377416E+03  0.12805319423E+04  0.90224434647E+03 0.  0.
         23    2    4    4    0    0  0.92785191163E+03  0.44373187785E+03 -0.23570705848E+03  0.10592562802E+04  0.93053213199E+02 0.  0.
         23    2    4    4    0    0 -0.12217970927E+03 -0.14770768766E+03 -0.62586715686E+02  0.22127566206E+03  0.91106417383E+02 0.  0.
          4    1    3    3  502    0 -0.76192098770E+03 -0.26888123883E+03 -0.36089706153E+04  0.36983090209E+04  0.00000000000E+00 0. -1.
         -3    1    3    3    0  502 -0.43751214657E+02 -0.27142951358E+02 -0.32017261113E+03  0.32428599956E+03  0.00000000000E+00 0.  1.
         13    1    5    5    0    0  0.40450848443E+02  0.42169878359E+02 -0.81620082786E+01  0.59001594552E+02  0.00000000000E+00 0.  1.
        -13    1    5    5    0    0  0.88740106318E+03  0.40156199949E+03 -0.22754505020E+03  0.10002546857E+04  0.00000000000E+00 0. -1.
          4    1    6    6  503    0 -0.13448354202E+03 -0.12881855499E+03 -0.67718326823E+02  0.19815603693E+03  0.00000000000E+00 0. -1.
         -4    1    6    6    0  503  0.12303832748E+02 -0.18889132675E+02  0.51316111370E+01  0.23119625135E+02  0.00000000000E+00 0.  1.
<mgrwt>
<rscale>  0 0.32018638E+04</rscale>
<asrwt>0</asrwt>
<pdfrwt beam="1">  1        2 0.73312030E+00 0.32018638E+04</pdfrwt>
<pdfrwt beam="2">  1       -1 0.82745383E-01 0.32018638E+04</pdfrwt>
<totfact> 0.90035095E-02</totfact>
</mgrwt>
</event>
<event>
12    7  0.1611233E-007  0.2203418E+04  0.7818608E-02  0.8517007E-01
         -1   -1    0    0    0  501 -0.00000000000E+00  0.00000000000E+00  0.52473150659E+03  0.52473150659E+03  0.00000000000E+00 0.  1.
          2   -1    0    0  501    0  0.00000000000E+00 -0.00000000000E+00 -0.23131120814E+04  0.23131120814E+04  0.00000000000E+00 0. -1.
         24    2    1    2    0    0 -0.44928112492E+03 -0.13985429367E+03  0.26494435207E+03  0.54578799602E+03  0.79222940116E+02 0.  0.
        254    2    1    2    0    0  0.44928112492E+03  0.13985429367E+03 -0.20533249268E+04  0.22920555919E+04  0.90330660835E+03 0.  0.
         23    2    4    4    0    0  0.62383388390E+03 -0.11636051511E+03 -0.98151743549E+03  0.11723516426E+04  0.91232743434E+02 0.  0.
         23    2    4    4    0    0 -0.17455275898E+03  0.25621480877E+03 -0.10718074913E+04  0.11197039494E+04  0.94079444223E+02 0.  0.
          2    1    3    3  502    0 -0.88781133294E+02  0.19791771860E+01  0.36200365345E+02  0.95898244105E+02  0.00000000000E+00 0. -1.
         -1    1    3    3    0  502 -0.36049999162E+03 -0.14183347085E+03  0.22874398672E+03  0.44988975191E+03  0.00000000000E+00 0.  1.
         13    1    5    5    0    0  0.45424949307E+02  0.96867976704E+01 -0.46749842571E+02  0.65899983680E+02  0.00000000000E+00 0. -1.
        -13    1    5    5    0    0  0.57840893459E+03 -0.12604731278E+03 -0.93476759292E+03  0.11064516589E+04  0.00000000000E+00 0.  1.
          4    1    6    6  503    0 -0.14725709715E+03  0.24976828777E+03 -0.89801599425E+03  0.94366391060E+03  0.00000000000E+00 0.  1.
         -4    1    6    6    0  503 -0.27295661831E+02  0.64465210041E+01 -0.17379149709E+03  0.17604003876E+03  0.00000000000E+00 0. -1.
<mgrwt>
<rscale>  0 0.22034181E+04</rscale>
<asrwt>0</asrwt>
<pdfrwt beam="1">  1        2 0.35586339E+00 0.22034181E+04</pdfrwt>
<pdfrwt beam="2">  1       -1 0.80727925E-01 0.22034181E+04</pdfrwt>
<totfact> 0.70901764E+00</totfact>
</mgrwt>
</event>
<event>
12    7  0.1611233E-007  0.1078146E+04  0.7818608E-02  0.9226758E-01
          2   -1    0    0  501    0  0.00000000000E+00  0.00000000000E+00  0.14870086817E+04  0.14870086817E+04  0.00000000000E+00 0. -1.
         -1   -1    0    0    0  501 -0.00000000000E+00 -0.00000000000E+00 -0.19542556489E+03  0.19542556489E+03  0.00000000000E+00 0.  1.
         24    2    1    2    0    0  0.27960237316E+02  0.10680652128E+03  0.30734445795E+03  0.33573981664E+03  0.77917910576E+02 0.  0.
        254    2    1    2    0    0 -0.27960237316E+02 -0.10680652128E+03  0.98423865883E+03  0.13466944299E+04  0.91250794089E+03 0.  0.
         23    2    4    4    0    0 -0.44274905013E+02 -0.41835389051E+03  0.15512097207E+03  0.45693150362E+03  0.87997943722E+02 0.  0.
         23    2    4    4    0    0  0.16314667697E+02  0.31154736924E+03  0.82911768675E+03  0.88976292630E+03  0.83150435212E+02 0.  0.
          2    1    3    3  502    0  0.12927610940E+01  0.93953417369E+02  0.28034779915E+03  0.29567516696E+03  0.00000000000E+00 0. -1.
         -1    1    3    3    0  502  0.26667476222E+02  0.12853103907E+02  0.26996658801E+02  0.40064649687E+02  0.00000000000E+00 0.  1.
         13    1    5    5    0    0 -0.65674498807E+02 -0.23690801724E+03  0.10613877689E+03  0.26777600412E+03  0.00000000000E+00 0. -1.
        -13    1    5    5    0    0  0.21399593794E+02 -0.18144587328E+03  0.48982195179E+02  0.18915549949E+03  0.00000000000E+00 0.  1.
          1    1    6    6  503    0 -0.23083966766E+01  0.46238598437E+01 -0.30575321831E+00  0.51770899259E+01  0.00000000000E+00 0. -1.
         -1    1    6    6    0  503  0.18623064374E+02  0.30692350939E+03  0.82942343997E+03  0.88458583638E+03  0.00000000000E+00 0.  1.
<mgrwt>
<rscale>  0 0.10781457E+04</rscale>
<asrwt>0</asrwt>
<pdfrwt beam="1">  1        2 0.22877056E+00 0.10781457E+04</pdfrwt>
<pdfrwt beam="2">  1       -1 0.30065473E-01 0.10781457E+04</pdfrwt>
<totfact> 0.14853011E+02</totfact>
</mgrwt>
</event>
<event>
12    7  0.1611233E-007  0.2228609E+04  0.7818608E-02  0.8506614E-01
         -1   -1    0    0    0  501 -0.00000000000E+00  0.00000000000E+00  0.89481204409E+03  0.89481204409E+03  0.00000000000E+00 0.  1.
          2   -1    0    0  501    0  0.00000000000E+00 -0.00000000000E+00 -0.13876366312E+04  0.13876366312E+04  0.00000000000E+00 0. -1.
         24    2    1    2    0    0 -0.32411417621E+02  0.87842249774E+03  0.10821726208E+03  0.88915985928E+03  0.78852362084E+02 0.  0.
        254    2    1    2    0    0  0.32411417621E+02 -0.87842249774E+03 -0.60104184923E+03  0.13932888161E+04  0.89851312506E+03 0.  0.
         23    2    4    4    0    0  0.37310368301E+03 -0.18479197237E+03 -0.41284050854E+03  0.59258270514E+03  0.85805277266E+02 0.  0.
         23    2    4    4    0    0 -0.34069226539E+03 -0.69363052537E+03 -0.18820134069E+03  0.80070611092E+03  0.92282208513E+02 0.  0.
          2    1    3    3  502    0  0.33975501056E+00  0.94039494699E+02  0.36312287325E+02  0.10080736187E+03  0.00000000000E+00 0. -1.
         -1    1    3    3    0  502 -0.32751172631E+02  0.78438300304E+03  0.71904974755E+02  0.78835249741E+03  0.00000000000E+00 0.  1.
         13    1    5    5    0    0  0.14142489622E+03 -0.10514744179E+03 -0.21281402931E+03  0.27630924135E+03  0.00000000000E+00 0.  1.
        -13    1    5    5    0    0  0.23167878680E+03 -0.79644530585E+02 -0.20002647923E+03  0.31627346379E+03  0.00000000000E+00 0. -1.
          3    1    6    6  503    0 -0.22785645079E+01 -0.59055961771E+02 -0.13819481840E+02  0.60694122906E+02  0.00000000000E+00 0. -1.
         -3    1    6    6    0  503 -0.33841370089E+03 -0.63457456360E+03 -0.17438185885E+03  0.74001198802E+03  0.00000000000E+00 0.  1.
<mgrwt>
<rscale>  0 0.22286085E+04</rscale>
<asrwt>0</asrwt>
<pdfrwt beam="1">  1        2 0.21348256E+00 0.22286085E+04</pdfrwt>
<pdfrwt beam="2">  1       -1 0.13766339E+00 0.22286085E+04</pdfrwt>
<totfact> 0.66944539E+00</totfact>
</mgrwt>
</event>
<event>
12    7  0.1611233E-007  0.2401883E+04  0.7818608E-02  0.8438799E-01
          2   -1    0    0  501    0  0.00000000000E+00  0.00000000000E+00  0.17153100185E+04  0.17153100185E+04  0.00000000000E+00 0. -1.
         -3   -1    0    0    0  501 -0.00000000000E+00 -0.00000000000E+00 -0.84081588411E+03  0.84081588411E+03  0.00000000000E+00 0.  1.
         24    2    1    2    0    0 -0.44602174279E+03  0.22881648508E+03 -0.58177324390E+03  0.77137663992E+03  0.72590870024E+02 0.  0.
        254    2    1    2    0    0  0.44602174279E+03 -0.22881648508E+03  0.14562673783E+04  0.17847492627E+04  0.90184415212E+03 0.  0.
         23    2    4    4    0    0  0.19436969110E+03 -0.50073970961E+03  0.44585809298E+03  0.70412572697E+03  0.92107365141E+02 0.  0.
         23    2    4    4    0    0  0.25165205169E+03  0.27192322452E+03  0.10104092854E+04  0.10806235358E+04  0.97720555367E+02 0.  0.
          2    1    3    3  502    0 -0.19497714000E+03  0.67782064410E+02 -0.27066083936E+03  0.34039357124E+03  0.00000000000E+00 0. -1.
         -1    1    3    3    0  502 -0.25104460278E+03  0.16103442067E+03 -0.31111240454E+03  0.43098306868E+03  0.00000000000E+00 0.  1.
         13    1    5    5    0    0 -0.52884286907E+00 -0.93274298484E+02  0.78920558649E+02  0.12218358732E+03  0.00000000000E+00 0. -1.
        -13    1    5    5    0    0  0.19489853396E+03 -0.40746541112E+03  0.36693753434E+03  0.58194213966E+03  0.00000000000E+00 0.  1.
          1    1    6    6  503    0  0.11652005983E+03  0.70553228204E+02  0.28782779273E+03  0.31843291384E+03  0.00000000000E+00 0. -1.
         -1    1    6    6    0  503  0.13513199186E+03  0.20136999632E+03  0.72258149263E+03  0.76219062191E+03  0.00000000000E+00 0.  1.
<mgrwt>
<rscale>  0 0.24018825E+04</rscale>
<asrwt>0</asrwt>
<pdfrwt beam="1">  1        2 0.26389385E+00 0.24018825E+04</pdfrwt>
<pdfrwt beam="2">  1       -3 0.12935629E+00 0.24018825E+04</pdfrwt>
<totfact> 0.25808208E+00</totfact>
</mgrwt>
</event>
<event>
12    7  0.1611233E-007  0.1590162E+04  0.7818608E-02  0.8826615E-01
         -1   -1    0    0    0  501 -0.00000000000E+00  0.00000000000E+00  0.32203368563E+03  0.32203368563E+03  0.00000000000E+00 0.  1.
          2   -1    0    0  501    0  0.00000000000E+00 -0.00000000000E+00 -0.19630053141E+04  0.19630053141E+04  0.00000000000E+00 0. -1.
         24    2    1    2    0    0  0.14502852949E+03  0.48091435391E+03 -0.28431528891E+03  0.58254818969E+03  0.78837298519E+02 0.  0.
        254    2    1    2    0    0 -0.14502852949E+03 -0.48091435391E+03 -0.13566563396E+04  0.17024908101E+04  0.89757821078E+03 0.  0.
         23    2    4    4    0    0 -0.10347479143E+03 -0.72536554490E+03 -0.11497791530E+04  0.13667953601E+04  0.96308097225E+02 0.  0.
         23    2    4    4    0    0 -0.41553738057E+02  0.24445119099E+03 -0.20687718658E+03  0.33569544995E+03  0.91706961926E+02 0.  0.
          4    1    3    3  502    0 -0.64185556801E+01  0.15042678596E+02 -0.20278914675E+02  0.26052148026E+02  0.00000000000E+00 0. -1.
         -3    1    3    3    0  502  0.15144708517E+03  0.46587167531E+03 -0.26403637423E+03  0.55649604166E+03  0.00000000000E+00 0.  1.
         13    1    5    5    0    0  0.50839023160E+01 -0.10662223449E+03 -0.22225353119E+03  0.24655786152E+03  0.00000000000E+00 0. -1.
        -13    1    5    5    0    0 -0.10855869375E+03 -0.61874331041E+03 -0.92752562180E+03  0.11202374986E+04  0.00000000000E+00 0.  1.
          3    1    6    6  503    0 -0.20921762815E+02  0.20812080190E+03 -0.12473411503E+03  0.24353765170E+03  0.00000000000E+00 0. -1.
         -3    1    6    6    0  503 -0.20631975243E+02  0.36330389082E+02 -0.82143071551E+02  0.92157798244E+02  0.00000000000E+00 0.  1.
<mgrwt>
<rscale>  0 0.15901620E+04</rscale>
<asrwt>0</asrwt>
<pdfrwt beam="1">  1        2 0.30200082E+00 0.15901620E+04</pdfrwt>
<pdfrwt beam="2">  1       -1 0.49543643E-01 0.15901620E+04</pdfrwt>
<totfact> 0.31283861E+01</totfact>
</mgrwt>
</event>
<event>
12    7  0.1611233E-007  0.1356638E+04  0.7818608E-02  0.8985818E-01
          4   -1    0    0  501    0  0.00000000000E+00  0.00000000000E+00  0.11632400763E+04  0.11632400763E+04  0.00000000000E+00 0. -1.
         -3   -1    0    0    0  501 -0.00000000000E+00 -0.00000000000E+00 -0.39554757638E+03  0.39554757638E+03  0.00000000000E+00 0.  1.
         24    2    1    2    0    0 -0.11689212326E+03  0.23384931112E+03  0.50745344907E+03  0.57633869800E+03  0.79423063726E+02 0.  0.
        254    2    1    2    0    0  0.11689212326E+03 -0.23384931112E+03  0.26023905090E+03  0.98244895472E+03  0.91056703006E+03 0.  0.
         23    2    4    4    0    0 -0.37923965990E+03 -0.10222505882E+03  0.51070028133E+01  0.40322534955E+03  0.91059973367E+02 0.  0.
         23    2    4    4    0    0  0.49613178317E+03 -0.13162425230E+03  0.25513204809E+03  0.57922360517E+03  0.83282247577E+02 0.  0.
          4    1    3    3  502    0 -0.10654211266E+03  0.22622020092E+03  0.50461331466E+03  0.56317084300E+03  0.00000000000E+00 0. -1.
         -3    1    3    3    0  502 -0.10350010606E+02  0.76291101974E+01  0.28401344125E+01  0.13167855005E+02  0.00000000000E+00 0.  1.
         13    1    5    5    0    0 -0.40235901067E+02 -0.33816123677E+02  0.21995791495E+02  0.56976072159E+02  0.00000000000E+00 0. -1.
        -13    1    5    5    0    0 -0.33900375884E+03 -0.68408935148E+02 -0.16888788681E+02  0.34624927739E+03  0.00000000000E+00 0.  1.
          4    1    6    6  503    0  0.78422864575E+02 -0.35583690390E+01  0.68284864520E+02  0.10404628970E+03  0.00000000000E+00 0. -1.
         -4    1    6    6    0  503  0.41770891859E+03 -0.12806588326E+03  0.18684718357E+03  0.47517731546E+03  0.00000000000E+00 0.  1.
<mgrwt>
<rscale>  0 0.13566382E+04</rscale>
<asrwt>0</asrwt>
<pdfrwt beam="1">  1        4 0.17896001E+00 0.13566382E+04</pdfrwt>
<pdfrwt beam="2">  1       -3 0.60853474E-01 0.13566382E+04</pdfrwt>
<totfact> 0.10749261E+00</totfact>
</mgrwt>
</event>
<event>
12    7  0.1611233E-007  0.1584117E+04  0.7818608E-02  0.8830366E-01
          2   -1    0    0  501    0  0.00000000000E+00  0.00000000000E+00  0.18318328240E+04  0.18318328240E+04  0.00000000000E+00 0. -1.
         -1   -1    0    0    0  501 -0.00000000000E+00 -0.00000000000E+00 -0.34247467123E+03  0.34247467123E+03  0.00000000000E+00 0.  1.
         24    2    1    2    0    0 -0.10068938054E+03  0.29396050506E+03 -0.85751202097E+02  0.33020526708E+03  0.71631835505E+02 0.  0.
        254    2    1    2    0    0  0.10068938054E+03 -0.29396050506E+03  0.15751093549E+04  0.18441022281E+04  0.90729951954E+03 0.  0.
         23    2    4    4    0    0 -0.26773603390E+03 -0.19631482633E+03  0.13496731027E+04  0.13926666187E+04  0.87639784231E+02 0.  0.
         23    2    4    4    0    0  0.36842541445E+03 -0.97645678738E+02  0.22543625220E+03  0.45143560948E+03  0.87753296883E+02 0.  0.
          4    1    3    3  502    0 -0.98316108537E+02  0.18185374570E+03 -0.57161713208E+02  0.21448613820E+03  0.00000000000E+00 0. -1.
         -3    1    3    3    0  502 -0.23732720069E+01  0.11210675936E+03 -0.28589488888E+02  0.11571912888E+03  0.00000000000E+00 0.  1.
         13    1    5    5    0    0 -0.82696471904E+02 -0.11083784348E+03  0.60483927249E+03  0.62044683863E+03  0.00000000000E+00 0.  1.
        -13    1    5    5    0    0 -0.18503956200E+03 -0.85476982847E+02  0.74483383018E+03  0.77221978003E+03  0.00000000000E+00 0. -1.
          1    1    6    6  503    0  0.31442553834E+03 -0.59566872621E+02  0.21238882206E+03  0.38408416163E+03  0.00000000000E+00 0. -1.
         -1    1    6    6    0  503  0.53999876104E+02 -0.38078806116E+02  0.13047430135E+02  0.67351447851E+02  0.00000000000E+00 0.  1.
<mgrwt>
<rscale>  0 0.15841166E+04</rscale>
<asrwt>0</asrwt>
<pdfrwt beam="1">  1        2 0.28182043E+00 0.15841166E+04</pdfrwt>
<pdfrwt beam="2">  1       -1 0.52688412E-01 0.15841166E+04</pdfrwt>
<totfact> 0.32895995E+01</totfact>
</mgrwt>
</event>
<event>
12    7  0.1611233E-007  0.1419890E+04  0.7818608E-02  0.8939546E-01
         -1   -1    0    0    0  501 -0.00000000000E+00  0.00000000000E+00  0.41151001193E+03  0.41151001193E+03  0.00000000000E+00 0.  1.
          2   -1    0    0  501    0  0.00000000000E+00 -0.00000000000E+00 -0.12248104880E+04  0.12248104880E+04  0.00000000000E+00 0. -1.
         24    2    1    2    0    0  0.26430569010E+02  0.38551405779E+03 -0.43452639553E+03  0.58684791750E+03  0.79105158648E+02 0.  0.
        254    2    1    2    0    0 -0.26430569010E+02 -0.38551405779E+03 -0.37877408056E+03  0.10494725825E+04  0.89922368378E+03 0.  0.
         23    2    4    4    0    0 -0.26886565840E+03 -0.47755041269E+03 -0.50126631729E+03  0.74820506629E+03  0.90552534206E+02 0.  0.
         23    2    4    4    0    0  0.24243508939E+03  0.92036354897E+02  0.12249223672E+03  0.30126751616E+03  0.92262153933E+02 0.  0.
          2    1    3    3  502    0  0.25229262411E+02  0.25550263642E+03 -0.34024371678E+03  0.42624394390E+03  0.00000000000E+00 0. -1.
         -1    1    3    3    0  502  0.12013065988E+01  0.13001142137E+03 -0.94282678756E+02  0.16060397360E+03  0.00000000000E+00 0.  1.
         13    1    5    5    0    0 -0.19360853975E+03 -0.25661764618E+03 -0.30759055096E+03  0.44491440754E+03  0.00000000000E+00 0. -1.
        -13    1    5    5    0    0 -0.75257118648E+02 -0.22093276650E+03 -0.19367576633E+03  0.30329065875E+03  0.00000000000E+00 0.  1.
          2    1    6    6  503    0  0.24039620786E+03  0.68764646805E+02  0.12121845511E+03  0.27787196199E+03  0.00000000000E+00 0. -1.
         -2    1    6    6    0  503  0.20388815310E+01  0.23271708092E+02  0.12737816158E+01  0.23395554172E+02  0.00000000000E+00 0.  1.
<mgrwt>
<rscale>  0 0.14198898E+04</rscale>
<asrwt>0</asrwt>
<pdfrwt beam="1">  1        2 0.18843238E+00 0.14198898E+04</pdfrwt>
<pdfrwt beam="2">  1       -1 0.63309234E-01 0.14198898E+04</pdfrwt>
<totfact> 0.51332335E+01</totfact>
</mgrwt>
</event>
<event>
12    7  0.1611233E-007  0.2058685E+04  0.7818608E-02  0.8579664E-01
          2   -1    0    0  501    0  0.00000000000E+00  0.00000000000E+00  0.12279376703E+04  0.12279376703E+04  0.00000000000E+00 0. -1.
         -1   -1    0    0    0  501 -0.00000000000E+00 -0.00000000000E+00 -0.86286649573E+03  0.86286649573E+03  0.00000000000E+00 0.  1.
         24    2    1    2    0    0 -0.15136689938E+03  0.19284763655E+03 -0.66011644742E+03  0.70870645512E+03  0.80056019242E+02 0.  0.
        254    2    1    2    0    0  0.15136689938E+03 -0.19284763655E+03  0.10251876220E+04  0.13820977109E+04  0.89391401884E+03 0.  0.
         23    2    4    4    0    0 -0.72467253680E+02 -0.48630249859E+03  0.35910117124E+03  0.61558581267E+03  0.90832915746E+02 0.  0.
         23    2    4    4    0    0  0.22383415306E+03  0.29345486204E+03  0.66608645078E+03  0.76651189827E+03  0.87474831502E+02 0.  0.
          4    1    3    3  502    0  0.70378540131E+01  0.90739403931E+01 -0.11738855667E+02  0.16421586882E+02  0.00000000000E+00 0. -1.
         -3    1    3    3    0  502 -0.15840475339E+03  0.18377369615E+03 -0.64837759176E+03  0.69228486823E+03  0.00000000000E+00 0.  1.
         13    1    5    5    0    0 -0.71579320382E+02 -0.40489628462E+03  0.25654207261E+03  0.48464258524E+03  0.00000000000E+00 0.  1.
        -13    1    5    5    0    0 -0.88793329751E+00 -0.81406213964E+02  0.10255909863E+03  0.13094322743E+03  0.00000000000E+00 0. -1.
          4    1    6    6  503    0  0.31766039342E+02  0.46016102284E+02  0.48447301634E+02  0.73984484593E+02  0.00000000000E+00 0. -1.
         -4    1    6    6    0  503  0.19206811372E+03  0.24743875976E+03  0.61763914914E+03  0.69252741368E+03  0.00000000000E+00 0.  1.
<mgrwt>
<rscale>  0 0.20586853E+04</rscale>
<asrwt>0</asrwt>
<pdfrwt beam="1">  1        2 0.18891349E+00 0.20586853E+04</pdfrwt>
<pdfrwt beam="2">  1       -1 0.13274869E+00 0.20586853E+04</pdfrwt>
<totfact> 0.92411162E+00</totfact>
</mgrwt>
</event>
<event>
12    7  0.1611233E-007  0.1716899E+04  0.7818608E-02  0.8751785E-01
          2   -1    0    0  501    0  0.00000000000E+00  0.00000000000E+00  0.81463601999E+03  0.81463601999E+03  0.00000000000E+00 0. -1.
         -1   -1    0    0    0  501 -0.00000000000E+00 -0.00000000000E+00 -0.90461920074E+03  0.90461920074E+03  0.00000000000E+00 0.  1.
         24    2    1    2    0    0  0.58180124235E+03  0.63727553297E+02  0.16641458890E+03  0.61380545839E+03  0.80681092604E+02 0.  0.
        254    2    1    2    0    0 -0.58180124235E+03 -0.63727553297E+02 -0.25639776965E+03  0.11054497623E+04  0.90206733349E+03 0.  0.
         23    2    4    4    0    0 -0.38886033135E+03  0.21197111806E+03  0.22996402862E+03  0.50695682472E+03  0.89317722091E+02 0.  0.
         23    2    4    4    0    0 -0.19294091100E+03 -0.27569867136E+03 -0.48636179826E+03  0.59849293763E+03  0.91706297785E+02 0.  0.
          4    1    3    3  502    0  0.47777345457E+03  0.54012714088E+02  0.16797407536E+03  0.50931339779E+03  0.00000000000E+00 0. -1.
         -3    1    3    3    0  502  0.10402778778E+03  0.97148392084E+01 -0.15594864548E+01  0.10449206060E+03  0.00000000000E+00 0.  1.
         13    1    5    5    0    0 -0.11275353131E+03  0.58715709835E+02  0.11336355705E+03  0.17032964942E+03  0.00000000000E+00 0.  1.
        -13    1    5    5    0    0 -0.27610680004E+03  0.15325540823E+03  0.11660047157E+03  0.33662717530E+03  0.00000000000E+00 0. -1.
          2    1    6    6  503    0 -0.11362865595E+03 -0.23107552026E+03 -0.34879531589E+03  0.43354992781E+03  0.00000000000E+00 0. -1.
         -2    1    6    6    0  503 -0.79312255050E+02 -0.44623151097E+02 -0.13756648237E+03  0.16494300982E+03  0.00000000000E+00 0.  1.
<mgrwt>
<rscale>  0 0.17168988E+04</rscale>
<asrwt>0</asrwt>
<pdfrwt beam="1">  1        2 0.12532862E+00 0.17168988E+04</pdfrwt>
<pdfrwt beam="2">  1       -1 0.13917218E+00 0.17168988E+04</pdfrwt>
<totfact> 0.15528110E+01</totfact>
</mgrwt>
</event>
<event>
12    7  0.1611233E-007  0.1876055E+04  0.7818608E-02  0.8666868E-01
         -1   -1    0    0    0  501 -0.00000000000E+00  0.00000000000E+00  0.50922102163E+03  0.50922102163E+03  0.00000000000E+00 0.  1.
          2   -1    0    0  501    0  0.00000000000E+00 -0.00000000000E+00 -0.17279248875E+04  0.17279248875E+04  0.00000000000E+00 0. -1.
         24    2    1    2    0    0 -0.57847347665E+03  0.27003434382E+03 -0.68590720112E+02  0.64705943618E+03  0.80194245677E+02 0.  0.
        254    2    1    2    0    0  0.57847347665E+03 -0.27003434382E+03 -0.11501131457E+04  0.15900864729E+04  0.89334463302E+03 0.  0.
         23    2    4    4    0    0 -0.69532673778E+02 -0.27237908027E+03 -0.35693722668E+02  0.29753834086E+03  0.90718610833E+02 0.  0.
         23    2    4    4    0    0  0.64800615042E+03  0.23447364529E+01 -0.11144194230E+04  0.12925481320E+04  0.93981670608E+02 0.  0.
          4    1    3    3  502    0 -0.20678979281E+03  0.11122192446E+03 -0.61851335636E+02  0.24281252564E+03  0.00000000000E+00 0. -1.
         -3    1    3    3    0  502 -0.37168368384E+03  0.15881241936E+03 -0.67393844759E+01  0.40424691054E+03  0.00000000000E+00 0.  1.
         13    1    5    5    0    0  0.20425003507E+02 -0.25818069071E+02 -0.32001311914E+01  0.33075584627E+02  0.00000000000E+00 0. -1.
        -13    1    5    5    0    0 -0.89957677285E+02 -0.24656101120E+03 -0.32493591477E+02  0.26446275623E+03  0.00000000000E+00 0.  1.
          2    1    6    6  503    0  0.14310805510E+03 -0.38235775276E+02 -0.26330159376E+03  0.30210862156E+03  0.00000000000E+00 0. -1.
         -2    1    6    6    0  503  0.50489809533E+03  0.40580511729E+02 -0.85111782929E+03  0.99043951048E+03  0.00000000000E+00 0.  1.
<mgrwt>
<rscale>  0 0.18760551E+04</rscale>
<asrwt>0</asrwt>
<pdfrwt beam="1">  1        2 0.26583460E+00 0.18760551E+04</pdfrwt>
<pdfrwt beam="2">  1       -1 0.78341696E-01 0.18760551E+04</pdfrwt>
<totfact> 0.16493346E+01</totfact>
</mgrwt>
</event>
<event>
12    7  0.1611233E-007  0.1522212E+04  0.7818608E-02  0.8869815E-01
          2   -1    0    0  501    0  0.00000000000E+00  0.00000000000E+00  0.11845124831E+04  0.11845124831E+04  0.00000000000E+00 0. -1.
         -1   -1    0    0    0  501 -0.00000000000E+00 -0.00000000000E+00 -0.48904735242E+03  0.48904735242E+03  0.00000000000E+00 0.  1.
         24    2    1    2    0    0  0.97299631117E+02 -0.47945130398E+03  0.29798674825E+03  0.57832690741E+03  0.79530739934E+02 0.  0.
        254    2    1    2    0    0 -0.97299631117E+02  0.47945130398E+03  0.39747838243E+03  0.10952329281E+04  0.89565916019E+03 0.  0.
         23    2    4    4    0    0 -0.11560123131E+03  0.65033609522E+03  0.15039371840E+02  0.66673909461E+03  0.89521819402E+02 0.  0.
         23    2    4    4    0    0  0.18301600197E+02 -0.17088479123E+03  0.38243901059E+03  0.42849383351E+03  0.88378776270E+02 0.  0.
          2    1    3    3  502    0  0.53534032456E+02 -0.16914113820E+03  0.14734472678E+03  0.23061891894E+03  0.00000000000E+00 0. -1.
         -1    1    3    3    0  502  0.43765598661E+02 -0.31031016578E+03  0.15064202147E+03  0.34770798847E+03  0.00000000000E+00 0.  1.
         13    1    5    5    0    0 -0.67526895435E+02  0.40798061825E+03 -0.33692947848E+02  0.41490153194E+03  0.00000000000E+00 0.  1.
        -13    1    5    5    0    0 -0.48074335879E+02  0.24235547697E+03  0.48732319688E+02  0.25183756267E+03  0.00000000000E+00 0. -1.
          1    1    6    6  503    0  0.30144501367E+02 -0.35513505697E+02  0.45203116939E+02  0.64909335465E+02  0.00000000000E+00 0. -1.
         -1    1    6    6    0  503 -0.11842901170E+02 -0.13537128554E+03  0.33723589365E+03  0.36358449805E+03  0.00000000000E+00 0.  1.
<mgrwt>
<rscale>  0 0.15222125E+04</rscale>
<asrwt>0</asrwt>
<pdfrwt beam="1">  1        2 0.18223269E+00 0.15222125E+04</pdfrwt>
<pdfrwt beam="2">  1       -1 0.75238055E-01 0.15222125E+04</pdfrwt>
<totfact> 0.37805623E+01</totfact>
</mgrwt>
</event>
<event>
12    7  0.1611233E-007  0.1365964E+04  0.7818608E-02  0.8978831E-01
          2   -1    0    0  501    0  0.00000000000E+00  0.00000000000E+00  0.15907795100E+04  0.15907795100E+04  0.00000000000E+00 0. -1.
         -1   -1    0    0    0  501 -0.00000000000E+00 -0.00000000000E+00 -0.29323017599E+03  0.29323017599E+03  0.00000000000E+00 0.  1.
         24    2    1    2    0    0  0.59828674309E+02  0.36757584106E+03  0.45654623083E+03  0.59461850560E+03  0.80282234166E+02 0.  0.
        254    2    1    2    0    0 -0.59828674309E+02 -0.36757584106E+03  0.84100310315E+03  0.12893911803E+04  0.90363262848E+03 0.  0.
         23    2    4    4    0    0 -0.44682801377E+03 -0.67896743371E+02  0.28274314345E+03  0.54121381369E+03  0.93292364672E+02 0.  0.
         23    2    4    4    0    0  0.38699933947E+03 -0.29967909769E+03  0.55825995970E+03  0.74817736666E+03  0.92407462018E+02 0.  0.
          4    1    3    3  502    0  0.17267599797E+02  0.13952089660E+03  0.11446858445E+03  0.18129342905E+03  0.00000000000E+00 0. -1.
         -3    1    3    3    0  502  0.42561074512E+02  0.22805494446E+03  0.34207764638E+03  0.41332507655E+03  0.00000000000E+00 0.  1.
         13    1    5    5    0    0 -0.44688540670E+03 -0.76053660098E+02  0.27835387038E+03  0.53195075250E+03  0.00000000000E+00 0.  1.
        -13    1    5    5    0    0  0.57392923275E-01  0.81569167272E+01  0.43892730676E+01  0.92630611843E+01  0.00000000000E+00 0. -1.
          3    1    6    6  503    0  0.30648171549E+03 -0.18896974475E+03  0.38105886307E+03  0.52425801232E+03  0.00000000000E+00 0.  1.
         -3    1    6    6    0  503  0.80517623975E+02 -0.11070935294E+03  0.17720109663E+03  0.22391935434E+03  0.00000000000E+00 0. -1.
<mgrwt>
<rscale>  0 0.13659642E+04</rscale>
<asrwt>0</asrwt>
<pdfrwt beam="1">  1        2 0.24473530E+00 0.13659642E+04</pdfrwt>
<pdfrwt beam="2">  1       -1 0.45112336E-01 0.13659642E+04</pdfrwt>
<totfact> 0.61144808E+01</totfact>
</mgrwt>
</event>
<event>
12    7  0.1611233E-007  0.1149535E+04  0.7818608E-02  0.9158212E-01
         -1   -1    0    0    0  501 -0.00000000000E+00  0.00000000000E+00  0.21102076936E+03  0.21102076936E+03  0.00000000000E+00 0.  1.
          2   -1    0    0  501    0  0.00000000000E+00 -0.00000000000E+00 -0.15655231455E+04  0.15655231455E+04  0.00000000000E+00 0. -1.
         24    2    1    2    0    0  0.11096899006E+03 -0.54870520896E+02 -0.55778491652E+03  0.57696181129E+03  0.80224857547E+02 0.  0.
        254    2    1    2    0    0 -0.11096899006E+03  0.54870520896E+02 -0.79671745966E+03  0.11995821036E+04  0.88820809610E+03 0.  0.
         23    2    4    4    0    0 -0.31148744118E+02  0.21489386146E+03  0.11766194256E+03  0.26347022332E+03  0.91774778115E+02 0.  0.
         23    2    4    4    0    0 -0.79820245939E+02 -0.16002334056E+03 -0.91437940222E+03  0.93611188030E+03  0.90758030231E+02 0.  0.
          4    1    3    3  502    0  0.69782718181E+02 -0.41456602275E+02 -0.48888519546E+03  0.49557745305E+03  0.00000000000E+00 0. -1.
         -3    1    3    3    0  502  0.41186271877E+02 -0.13413918621E+02 -0.68899721058E+02  0.81384358237E+02  0.00000000000E+00 0.  1.
         13    1    5    5    0    0 -0.72004155422E+01  0.26160915812E+02 -0.15502062448E+02  0.31249855044E+02  0.00000000000E+00 0.  1.
        -13    1    5    5    0    0 -0.23948328576E+02  0.18873294564E+03  0.13316400501E+03  0.23222036828E+03  0.00000000000E+00 0. -1.
          3    1    6    6  503    0 -0.57030770088E+02 -0.38886105002E+02 -0.46654786045E+03  0.47162648779E+03  0.00000000000E+00 0. -1.
         -3    1    6    6    0  503 -0.22789475851E+02 -0.12113723556E+03 -0.44783154177E+03  0.46448539251E+03  0.00000000000E+00 0.  1.
<mgrwt>
<rscale>  0 0.11495354E+04</rscale>
<asrwt>0</asrwt>
<pdfrwt beam="1">  1        2 0.24084971E+00 0.11495354E+04</pdfrwt>
<pdfrwt beam="2">  1       -1 0.32464735E-01 0.11495354E+04</pdfrwt>
<totfact> 0.11665064E+02</totfact>
</mgrwt>
</event>
<event>
12    7  0.1611233E-007  0.1666068E+04  0.7818608E-02  0.8780957E-01
          2   -1    0    0  501    0  0.00000000000E+00  0.00000000000E+00  0.16046933829E+04  0.16046933829E+04  0.00000000000E+00 0. -1.
         -1   -1    0    0    0  501 -0.00000000000E+00 -0.00000000000E+00 -0.43244739228E+03  0.43244739228E+03  0.00000000000E+00 0.  1.
         24    2    1    2    0    0 -0.38026352549E+01  0.20804251472E+03 -0.23424285654E+03  0.32325310314E+03  0.79540586395E+02 0.  0.
        254    2    1    2    0    0  0.38026352549E+01 -0.20804251472E+03  0.14064888471E+04  0.17138876720E+04  0.95702869716E+03 0.  0.
         23    2    4    4    0    0 -0.19717434973E+03 -0.47775068148E+03  0.11990345220E+04  0.13089880743E+04  0.92965348663E+02 0.  0.
         23    2    4    4    0    0  0.20097698498E+03  0.26970816676E+03  0.20745432517E+03  0.40489959767E+03  0.88159760955E+02 0.  0.
          4    1    3    3  502    0 -0.92077084858E+01  0.82863032839E+01  0.33169557769E+01  0.12823685636E+02  0.00000000000E+00 0. -1.
         -3    1    3    3    0  502  0.54050732309E+01  0.19975621144E+03 -0.23755981232E+03  0.31042941751E+03  0.00000000000E+00 0.  1.
         13    1    5    5    0    0 -0.15100102223E+03 -0.31546664170E+03  0.90113363700E+03  0.96662419920E+03  0.00000000000E+00 0.  1.
        -13    1    5    5    0    0 -0.46173327492E+02 -0.16228403978E+03  0.29790088497E+03  0.34236387514E+03  0.00000000000E+00 0. -1.
          4    1    6    6  503    0  0.80238459449E+01 -0.39046803000E+01  0.18289283873E+02  0.20350099179E+02  0.00000000000E+00 0. -1.
         -4    1    6    6    0  503  0.19295313904E+03  0.27361284706E+03  0.18916504129E+03  0.38454949849E+03  0.00000000000E+00 0.  1.
<mgrwt>
<rscale>  0 0.16660678E+04</rscale>
<asrwt>0</asrwt>
<pdfrwt beam="1">  1        2 0.24687590E+00 0.16660678E+04</pdfrwt>
<pdfrwt beam="2">  1       -1 0.66530369E-01 0.16660678E+04</pdfrwt>
<totfact> 0.27581100E+01</totfact>
</mgrwt>
</event>
<event>
12    7  0.1611233E-007  0.1473123E+04  0.7818608E-02  0.8902525E-01
         -3   -1    0    0    0  501 -0.00000000000E+00  0.00000000000E+00  0.27595436529E+03  0.27595436529E+03  0.00000000000E+00 0.  1.
          2   -1    0    0  501    0  0.00000000000E+00 -0.00000000000E+00 -0.19659865703E+04  0.19659865703E+04  0.00000000000E+00 0. -1.
         24    2    1    2    0    0 -0.11080814769E+03  0.26698832761E+03  0.45748922111E+01  0.30206211461E+03  0.87517876863E+02 0.  0.
        254    2    1    2    0    0  0.11080814769E+03 -0.26698832761E+03 -0.16946070972E+04  0.19398788210E+04  0.89881889917E+03 0.  0.
         23    2    4    4    0    0 -0.52335590961E+02 -0.56214646389E+03 -0.83984700095E+03  0.10161068703E+04  0.91556135762E+02 0.  0.
         23    2    4    4    0    0  0.16314373865E+03  0.29515813629E+03 -0.85476009630E+03  0.92377195068E+03  0.94897785832E+02 0.  0.
          2    1    3    3  502    0 -0.62533720766E+02  0.52419401990E+02 -0.64570347854E+01  0.81853242062E+02  0.00000000000E+00 0. -1.
         -1    1    3    3    0  502 -0.48274426925E+02  0.21456892562E+03  0.11031926996E+02  0.22020887255E+03  0.00000000000E+00 0.  1.
         13    1    5    5    0    0 -0.12437309515E+02 -0.41224453620E+03 -0.55121276585E+03  0.68842992202E+03  0.00000000000E+00 0. -1.
        -13    1    5    5    0    0 -0.39898281445E+02 -0.14990192769E+03 -0.28863423509E+03  0.32767694831E+03  0.00000000000E+00 0.  1.
          3    1    6    6  503    0  0.67742628323E+02  0.20709890076E+03 -0.47948317633E+03  0.52667175240E+03  0.00000000000E+00 0. -1.
         -3    1    6    6    0  503  0.95401110329E+02  0.88059235523E+02 -0.37527691997E+03  0.39710019828E+03  0.00000000000E+00 0.  1.
<mgrwt>
<rscale>  0 0.14731226E+04</rscale>
<asrwt>0</asrwt>
<pdfrwt beam="1">  1        2 0.30245947E+00 0.14731226E+04</pdfrwt>
<pdfrwt beam="2">  1       -3 0.42454518E-01 0.14731226E+04</pdfrwt>
<totfact> 0.24023353E+01</totfact>
</mgrwt>
</event>
<event>
12    7  0.1611233E-007  0.2015060E+04  0.7818608E-02  0.8599612E-01
         -1   -1    0    0    0  501 -0.00000000000E+00  0.00000000000E+00  0.18262747496E+04  0.18262747496E+04  0.00000000000E+00 0.  1.
          2   -1    0    0  501    0  0.00000000000E+00 -0.00000000000E+00 -0.55584000754E+03  0.55584000754E+03  0.00000000000E+00 0. -1.
         24    2    1    2    0    0  0.50370481976E+03  0.16205051398E+02 -0.22756311385E+03  0.55766138761E+03  0.72250282388E+02 0.  0.
        254    2    1    2    0    0 -0.50370481976E+03 -0.16205051398E+02  0.14979978559E+04  0.18244533695E+04  0.91140077469E+03 0.  0.
         23    2    4    4    0    0 -0.13366105177E+03 -0.13062748626E+03 -0.59544785839E+02  0.21687359802E+03  0.92518966010E+02 0.  0.
         23    2    4    4    0    0 -0.37004376799E+03  0.11442243486E+03  0.15575426417E+04  0.16075797715E+04  0.91371533118E+02 0.  0.
          2    1    3    3  502    0  0.35766118840E+03 -0.19662657864E+02 -0.17182441216E+03  0.39728047324E+03  0.00000000000E+00 0. -1.
         -1    1    3    3    0  502  0.14604363136E+03  0.35867709262E+02 -0.55738701689E+02  0.16038091437E+03  0.00000000000E+00 0.  1.
         13    1    5    5    0    0 -0.62184783116E+02 -0.10811787254E+03 -0.61822846693E+01  0.12487850999E+03  0.00000000000E+00 0.  1.
        -13    1    5    5    0    0 -0.71476268650E+02 -0.22509613715E+02 -0.53362501170E+02  0.91995088026E+02  0.00000000000E+00 0. -1.
          3    1    6    6  503    0 -0.33369456494E+02 -0.67166812148E+01  0.73292582496E+02  0.80811119793E+02  0.00000000000E+00 0. -1.
         -3    1    6    6    0  503 -0.33667431150E+03  0.12113911607E+03  0.14842500592E+04  0.15267686517E+04  0.00000000000E+00 0.  1.
<mgrwt>
<rscale>  0 0.20150599E+04</rscale>
<asrwt>0</asrwt>
<pdfrwt beam="1">  1        2 0.85513848E-01 0.20150599E+04</pdfrwt>
<pdfrwt beam="2">  1       -1 0.28096534E+00 0.20150599E+04</pdfrwt>
<totfact> 0.25285403E+00</totfact>
</mgrwt>
</event>
<event>
12    7  0.1611233E-007  0.1415530E+04  0.7818608E-02  0.8942653E-01
          2   -1    0    0  501    0  0.00000000000E+00  0.00000000000E+00  0.25654700206E+04  0.25654700206E+04  0.00000000000E+00 0. -1.
         -1   -1    0    0    0  501 -0.00000000000E+00 -0.00000000000E+00 -0.19525898881E+03  0.19525898881E+03  0.00000000000E+00 0.  1.
         24    2    1    2    0    0  0.30777988345E+02  0.27356756767E+03  0.99013100091E+02  0.30324887290E+03  0.79810940851E+02 0.  0.
        254    2    1    2    0    0 -0.30777988345E+02 -0.27356756767E+03  0.22711979317E+04  0.24574801365E+04  0.89726366125E+03 0.  0.
         23    2    4    4    0    0  0.26462703387E+03  0.20948378747E+03  0.65195066420E+03  0.73979239856E+03  0.91335645582E+02 0.  0.
         23    2    4    4    0    0 -0.29540502222E+03 -0.48305135513E+03  0.16192472675E+04  0.17176877380E+04  0.88807167392E+02 0.  0.
          4    1    3    3  502    0 -0.30126710318E+01 -0.36846185808E+01 -0.33041872781E+01  0.57939843286E+01  0.00000000000E+00 0. -1.
         -3    1    3    3    0  502  0.33790659377E+02  0.27725218625E+03  0.10231728737E+03  0.29745488857E+03  0.00000000000E+00 0.  1.
         13    1    5    5    0    0  0.26048713328E+03  0.18845519953E+03  0.63737404155E+03  0.71387294225E+03  0.00000000000E+00 0.  1.
        -13    1    5    5    0    0  0.41399005862E+01  0.21028587937E+02  0.14576622643E+02  0.25919456306E+02  0.00000000000E+00 0. -1.
          2    1    6    6  503    0 -0.23867685704E+03 -0.37134344145E+03  0.13581412721E+04  0.14280792375E+04  0.00000000000E+00 0.  1.
         -2    1    6    6    0  503 -0.56728165180E+02 -0.11170791369E+03  0.26110599539E+03  0.28960850045E+03  0.00000000000E+00 0. -1.
<mgrwt>
<rscale>  0 0.14155297E+04</rscale>
<asrwt>0</asrwt>
<pdfrwt beam="1">  1        2 0.39468767E+00 0.14155297E+04</pdfrwt>
<pdfrwt beam="2">  1       -1 0.30039846E-01 0.14155297E+04</pdfrwt>
<totfact> 0.36087071E+01</totfact>
</mgrwt>
</event>
<event>
12    7  0.1611233E-007  0.1457762E+04  0.7818608E-02  0.8913037E-01
          4   -1    0    0  501    0  0.00000000000E+00  0.00000000000E+00  0.95962361458E+03  0.95962361458E+03  0.00000000000E+00 0. -1.
         -3   -1    0    0    0  501 -0.00000000000E+00 -0.00000000000E+00 -0.55362093183E+03  0.55362093183E+03  0.00000000000E+00 0.  1.
         24    2    1    2    0    0  0.26405814770E+03 -0.36533587632E+03  0.43061154372E+02  0.45990950136E+03  0.80408199363E+02 0.  0.
        254    2    1    2    0    0 -0.26405814770E+03  0.36533587632E+03  0.36294152838E+03  0.10533350451E+04  0.88010860479E+03 0.  0.
         23    2    4    4    0    0 -0.35229989152E+03  0.40587621073E+03  0.58424491323E+03  0.79905237375E+03  0.91059680226E+02 0.  0.
         23    2    4    4    0    0  0.88241743820E+02 -0.40540334407E+02 -0.22130338485E+03  0.25428267131E+03  0.79084541571E+02 0.  0.
          2    1    3    3  502    0  0.74931942439E+02 -0.49673749127E+02  0.93029526714E+01  0.90381537265E+02  0.00000000000E+00 0. -1.
         -1    1    3    3    0  502  0.18912620527E+03 -0.31566212719E+03  0.33758201701E+02  0.36952796409E+03  0.00000000000E+00 0.  1.
         13    1    5    5    0    0 -0.30884448795E+03  0.38729270872E+03  0.50945570075E+03  0.71058122054E+03  0.00000000000E+00 0.  1.
        -13    1    5    5    0    0 -0.43455403574E+02  0.18583502011E+02  0.74789212483E+02  0.88471153212E+02  0.00000000000E+00 0. -1.
          1    1    6    6  503    0  0.37151113798E+02 -0.75126409448E+01 -0.17156376473E+03  0.17570079795E+03  0.00000000000E+00 0. -1.
         -1    1    6    6    0  503  0.51090630022E+02 -0.33027693463E+02 -0.49739620119E+02  0.78581873362E+02  0.00000000000E+00 0.  1.
<mgrwt>
<rscale>  0 0.14577623E+04</rscale>
<asrwt>0</asrwt>
<pdfrwt beam="1">  1        4 0.14763440E+00 0.14577623E+04</pdfrwt>
<pdfrwt beam="2">  1       -3 0.85172451E-01 0.14577623E+04</pdfrwt>
<totfact> 0.86991282E-01</totfact>
</mgrwt>
</event>
<event>
12    7  0.1611233E-007  0.1305712E+04  0.7818608E-02  0.9025047E-01
          2   -1    0    0  501    0  0.00000000000E+00  0.00000000000E+00  0.83154132942E+03  0.83154132942E+03  0.00000000000E+00 0. -1.
         -1   -1    0    0    0  501 -0.00000000000E+00 -0.00000000000E+00 -0.51256775126E+03  0.51256775126E+03  0.00000000000E+00 0.  1.
         24    2    1    2    0    0  0.40881397171E+02  0.74655335054E+02 -0.25079609571E+03  0.27710200678E+03  0.81499281281E+02 0.  0.
        254    2    1    2    0    0 -0.40881397171E+02 -0.74655335054E+02  0.56976967387E+03  0.10670070739E+04  0.89812132076E+03 0.  0.
         23    2    4    4    0    0  0.37662769618E+03  0.15499902657E+03  0.27050197271E+03  0.49710121251E+03  0.89806338726E+02 0.  0.
         23    2    4    4    0    0 -0.41750909335E+03 -0.22965436162E+03  0.29926770116E+03  0.56990586139E+03  0.90424360893E+02 0.  0.
          2    1    3    3  502    0 -0.16723745453E+02 -0.66961810059E+00 -0.13311912113E+02  0.21385487006E+02  0.00000000000E+00 0. -1.
         -1    1    3    3    0  502  0.57605142624E+02  0.75324953155E+02 -0.23748418360E+03  0.25571651977E+03  0.00000000000E+00 0.  1.
         13    1    5    5    0    0  0.25962133919E+03  0.71929328277E+02  0.14228234985E+03  0.30466594018E+03  0.00000000000E+00 0. -1.
        -13    1    5    5    0    0  0.11700635699E+03  0.83069698291E+02  0.12821962286E+03  0.19243527233E+03  0.00000000000E+00 0.  1.
          3    1    6    6  503    0 -0.24191637163E+03 -0.99471794956E+02  0.20280510370E+03  0.33098048121E+03  0.00000000000E+00 0. -1.
         -3    1    6    6    0  503 -0.17559272172E+03 -0.13018256667E+03  0.96462597466E+02  0.23892538018E+03  0.00000000000E+00 0.  1.
<mgrwt>
<rscale>  0 0.13057125E+04</rscale>
<asrwt>0</asrwt>
<pdfrwt beam="1">  1        2 0.12792944E+00 0.13057125E+04</pdfrwt>
<pdfrwt beam="2">  1       -1 0.78856577E-01 0.13057125E+04</pdfrwt>
<totfact> 0.58852696E+01</totfact>
</mgrwt>
</event>
<event>
12    7  0.1611233E-007  0.1788027E+04  0.7818608E-02  0.8712693E-01
         -1   -1    0    0    0  501 -0.00000000000E+00  0.00000000000E+00  0.38959535338E+03  0.38959535338E+03  0.00000000000E+00 0.  1.
          2   -1    0    0  501    0  0.00000000000E+00 -0.00000000000E+00 -0.20515125075E+04  0.20515125075E+04  0.00000000000E+00 0. -1.
         24    2    1    2    0    0 -0.31879407627E+03  0.53859005498E+03 -0.92701553113E+03  0.11209114904E+04  0.73320283694E+02 0.  0.
        254    2    1    2    0    0  0.31879407627E+03 -0.53859005498E+03 -0.73490162298E+03  0.13201963705E+04  0.90062708750E+03 0.  0.
         23    2    4    4    0    0  0.49436215058E+03 -0.63944952679E+03 -0.73792880372E+03  0.10982006084E+04  0.90642284747E+02 0.  0.
         23    2    4    4    0    0 -0.17556807432E+03  0.10085947181E+03  0.30271807377E+01  0.22199576202E+03  0.90973472835E+02 0.  0.
          4    1    3    3  502    0 -0.49543123415E+02  0.12684430300E+03 -0.16577330013E+03  0.21453387918E+03  0.00000000000E+00 0. -1.
         -3    1    3    3    0  502 -0.26925095285E+03  0.41174575198E+03 -0.76124223100E+03  0.90637761123E+03  0.00000000000E+00 0.  1.
         13    1    5    5    0    0  0.18144912909E+02 -0.49792513507E+02 -0.71091266412E+02  0.88670741657E+02  0.00000000000E+00 0. -1.
        -13    1    5    5    0    0  0.47621723767E+03 -0.58965701328E+03 -0.66683753731E+03  0.10095298668E+04  0.00000000000E+00 0.  1.
          2    1    6    6  503    0 -0.20557107562E+02 -0.15928236276E+02  0.98121123904E+01  0.27795340108E+02  0.00000000000E+00 0. -1.
         -2    1    6    6    0  503 -0.15501096675E+03  0.11678770809E+03 -0.67849316528E+01  0.19420042191E+03  0.00000000000E+00 0.  1.
<mgrwt>
<rscale>  0 0.17880266E+04</rscale>
<asrwt>0</asrwt>
<pdfrwt beam="1">  1        2 0.31561731E+00 0.17880266E+04</pdfrwt>
<pdfrwt beam="2">  1       -1 0.59937747E-01 0.17880266E+04</pdfrwt>
<totfact> 0.18996259E+01</totfact>
</mgrwt>
</event>
<event>
12    7  0.1611233E-007  0.1402803E+04  0.7818608E-02  0.8951792E-01
          2   -1    0    0  501    0  0.00000000000E+00  0.00000000000E+00  0.23707191213E+04  0.23707191213E+04  0.00000000000E+00 0. -1.
         -1   -1    0    0    0  501 -0.00000000000E+00 -0.00000000000E+00 -0.20751684308E+03  0.20751684308E+03  0.00000000000E+00 0.  1.
         24    2    1    2    0    0  0.14209730807E+02 -0.28277509400E+03  0.10172659323E+03  0.31142457875E+03  0.80456809808E+02 0.  0.
        254    2    1    2    0    0 -0.14209730807E+02  0.28277509400E+03  0.20614756850E+04  0.22668113856E+04  0.89921531790E+03 0.  0.
         23    2    4    4    0    0  0.34516848082E+03  0.14034948091E+03  0.16544776971E+04  0.16981970491E+04  0.87963119254E+02 0.  0.
         23    2    4    4    0    0 -0.35937821163E+03  0.14242561309E+03  0.40699798782E+03  0.56861433647E+03  0.90758731246E+02 0.  0.
          4    1    3    3  502    0 -0.14004059201E+02 -0.46370427456E+01  0.42308971991E+01  0.15346541325E+02  0.00000000000E+00 0. -1.
         -3    1    3    3    0  502  0.28213790009E+02 -0.27813805125E+03  0.97495696031E+02  0.29607803742E+03  0.00000000000E+00 0.  1.
         13    1    5    5    0    0  0.28538279947E+03  0.14235351064E+03  0.14724879591E+04  0.15066282401E+04  0.00000000000E+00 0.  1.
        -13    1    5    5    0    0  0.59785681349E+02 -0.20040297311E+01  0.18198973808E+03  0.19156880904E+03  0.00000000000E+00 0. -1.
          2    1    6    6  503    0 -0.32680302149E+03  0.14380350147E+03  0.39822901576E+03  0.53485139139E+03  0.00000000000E+00 0.  1.
         -2    1    6    6    0  503 -0.32575190145E+02 -0.13778883780E+01  0.87689720595E+01  0.33762945078E+02  0.00000000000E+00 0. -1.
<mgrwt>
<rscale>  0 0.14028031E+04</rscale>
<asrwt>0</asrwt>
<pdfrwt beam="1">  1        2 0.36472600E+00 0.14028031E+04</pdfrwt>
<pdfrwt beam="2">  1       -1 0.31925670E-01 0.14028031E+04</pdfrwt>
<totfact> 0.41979489E+01</totfact>
</mgrwt>
</event>
<event>
12    7  0.1611233E-007  0.1420633E+04  0.7818608E-02  0.8939018E-01
         -3   -1    0    0    0  501 -0.00000000000E+00  0.00000000000E+00  0.56911715258E+03  0.56911715258E+03  0.00000000000E+00 0.  1.
          2   -1    0    0  501    0  0.00000000000E+00 -0.00000000000E+00 -0.88654729188E+03  0.88654729188E+03  0.00000000000E+00 0. -1.
         24    2    1    2    0    0  0.29667264167E+03  0.10038865141E+03  0.19088511195E+03  0.37520751799E+03  0.79063379299E+02 0.  0.
        254    2    1    2    0    0 -0.29667264167E+03 -0.10038865141E+03 -0.50831525125E+03  0.10804569265E+04  0.90050554559E+03 0.  0.
         23    2    4    4    0    0  0.10259975593E+03  0.42496236483E+02 -0.61708868136E+03  0.63325379776E+03  0.88765374302E+02 0.  0.
         23    2    4    4    0    0 -0.39927239760E+03 -0.14288488789E+03  0.10877343011E+03  0.44720312870E+03  0.91238372129E+02 0.  0.
          4    1    3    3  502    0  0.16332302502E+03  0.60811408377E+02  0.60291115540E+02  0.18441110732E+03  0.00000000000E+00 0. -1.
         -3    1    3    3    0  502  0.13334961666E+03  0.39577243029E+02  0.13059399641E+03  0.19079641067E+03  0.00000000000E+00 0.  1.
         13    1    5    5    0    0  0.87508364965E+02  0.67295026961E+02 -0.53250598334E+03  0.54382805820E+03  0.00000000000E+00 0. -1.
        -13    1    5    5    0    0  0.15091390966E+02 -0.24798790478E+02 -0.84582698022E+02  0.89425739556E+02  0.00000000000E+00 0.  1.
          2    1    6    6  503    0 -0.24656501501E+03 -0.13116858022E+03  0.86910613631E+02  0.29249437230E+03  0.00000000000E+00 0. -1.
         -2    1    6    6    0  503 -0.15270738260E+03 -0.11716307667E+02  0.21862816483E+02  0.15470875641E+03  0.00000000000E+00 0.  1.
<mgrwt>
<rscale>  0 0.14206326E+04</rscale>
<asrwt>0</asrwt>
<pdfrwt beam="1">  1        2 0.13639189E+00 0.14206326E+04</pdfrwt>
<pdfrwt beam="2">  1       -3 0.87556485E-01 0.14206326E+04</pdfrwt>
<totfact> 0.21896131E+01</totfact>
</mgrwt>
</event>
<event>
12    7  0.1611233E-007  0.1685745E+04  0.7818608E-02  0.8769537E-01
         -3   -1    0    0    0  501 -0.00000000000E+00  0.00000000000E+00  0.46315729457E+03  0.46315729457E+03  0.00000000000E+00 0.  1.
          2   -1    0    0  501    0  0.00000000000E+00 -0.00000000000E+00 -0.15338933051E+04  0.15338933051E+04  0.00000000000E+00 0. -1.
         24    2    1    2    0    0 -0.55282862622E+03  0.20502154990E+03 -0.53558279291E+03  0.80094131220E+03  0.83694274779E+02 0.  0.
        254    2    1    2    0    0  0.55282862622E+03 -0.20502154990E+03 -0.53515321765E+03  0.11961092875E+04  0.89254419241E+03 0.  0.
         23    2    4    4    0    0 -0.22082973422E+03  0.36271393013E+02 -0.48222153654E+02  0.24632996459E+03  0.90948831145E+02 0.  0.
         23    2    4    4    0    0  0.77365836044E+03 -0.24129294292E+03 -0.48693106399E+03  0.94977932292E+03  0.90605508522E+02 0.  0.
          4    1    3    3  502    0 -0.54893535623E+03  0.19369146104E+03 -0.53159577560E+03  0.78831495992E+03  0.00000000000E+00 0. -1.
         -3    1    3    3    0  502 -0.38932699936E+01  0.11330088865E+02 -0.39870173176E+01  0.12626352285E+02  0.00000000000E+00 0.  1.
         13    1    5    5    0    0 -0.66441517272E+02  0.54092261568E+02 -0.97800748764E+01  0.86232811873E+02  0.00000000000E+00 0. -1.
        -13    1    5    5    0    0 -0.15438821695E+03 -0.17820868555E+02 -0.38442078778E+02  0.16009715272E+03  0.00000000000E+00 0.  1.
          1    1    6    6  503    0  0.27122875283E+03 -0.12957390419E+03 -0.17015123058E+03  0.34540682431E+03  0.00000000000E+00 0. -1.
         -1    1    6    6    0  503  0.50242960762E+03 -0.11171903872E+03 -0.31677983341E+03  0.60437249861E+03  0.00000000000E+00 0.  1.
<mgrwt>
<rscale>  0 0.16857448E+04</rscale>
<asrwt>0</asrwt>
<pdfrwt beam="1">  1        2 0.23598359E+00 0.16857448E+04</pdfrwt>
<pdfrwt beam="2">  1       -3 0.71254968E-01 0.16857448E+04</pdfrwt>
<totfact> 0.13866565E+01</totfact>
</mgrwt>
</event>
<event>
12    7  0.1611233E-007  0.1171900E+04  0.7818608E-02  0.9137815E-01
         -1   -1    0    0    0  501 -0.00000000000E+00  0.00000000000E+00  0.14503853841E+04  0.14503853841E+04  0.00000000000E+00 0.  1.
          2   -1    0    0  501    0  0.00000000000E+00 -0.00000000000E+00 -0.23672133915E+03  0.23672133915E+03  0.00000000000E+00 0. -1.
         24    2    1    2    0    0  0.12119203952E+03  0.16371858829E+02  0.58144152506E+03  0.59966670349E+03  0.81057757180E+02 0.  0.
        254    2    1    2    0    0 -0.12119203952E+03 -0.16371858829E+02  0.63222251988E+03  0.10874400198E+04  0.87627902731E+03 0.  0.
         23    2    4    4    0    0 -0.19298121900E+03 -0.28057569182E+03  0.70629918826E+03  0.78945371461E+03  0.91728700314E+02 0.  0.
         23    2    4    4    0    0  0.71789179475E+02  0.26420383299E+03 -0.74076668375E+02  0.29798630514E+03  0.91384536969E+02 0.  0.
          2    1    3    3  502    0  0.76186016652E+01 -0.73748717786E+01  0.21572235159E+03  0.21598278820E+03  0.00000000000E+00 0. -1.
         -1    1    3    3    0  502  0.11357343786E+03  0.23746730607E+02  0.36571917347E+03  0.38368391528E+03  0.00000000000E+00 0.  1.
         13    1    5    5    0    0 -0.46609335691E+02 -0.88113417440E+02  0.30565182859E+03  0.32149563733E+03  0.00000000000E+00 0.  1.
        -13    1    5    5    0    0 -0.14637188331E+03 -0.19246227438E+03  0.40064735967E+03  0.46795807728E+03  0.00000000000E+00 0. -1.
          2    1    6    6  503    0  0.23672949690E+02  0.11512643921E+03  0.13847525949E+02  0.11834804404E+03  0.00000000000E+00 0. -1.
         -2    1    6    6    0  503  0.48116229786E+02  0.14907739378E+03 -0.87924194324E+02  0.17963826110E+03  0.00000000000E+00 0.  1.
<mgrwt>
<rscale>  0 0.11718996E+04</rscale>
<asrwt>0</asrwt>
<pdfrwt beam="1">  1        2 0.36418668E-01 0.11718996E+04</pdfrwt>
<pdfrwt beam="2">  1       -1 0.22313621E+00 0.11718996E+04</pdfrwt>
<totfact> 0.17031463E+01</totfact>
</mgrwt>
</event>
<event>
12    7  0.1611233E-007  0.1024620E+04  0.7818608E-02  0.9281946E-01
         -1   -1    0    0    0  501 -0.00000000000E+00  0.00000000000E+00  0.76318309685E+02  0.76318309685E+02  0.00000000000E+00 0.  1.
          2   -1    0    0  501    0  0.00000000000E+00 -0.00000000000E+00 -0.34390400962E+04  0.34390400962E+04  0.00000000000E+00 0. -1.
         24    2    1    2    0    0 -0.77963518116E+02  0.12440913518E+02 -0.33782206855E+03  0.35626746602E+03  0.81053506156E+02 0.  0.
        254    2    1    2    0    0  0.77963518116E+02 -0.12440913518E+02 -0.30248997180E+04  0.31590909399E+04  0.90752640518E+03 0.  0.
         23    2    4    4    0    0 -0.49150668359E+02  0.40380793703E+03 -0.95049303187E+03  0.10378175071E+04  0.90285858427E+02 0.  0.
         23    2    4    4    0    0  0.12711418647E+03 -0.41624885055E+03 -0.20744066861E+04  0.21212734328E+04  0.84951487275E+02 0.  0.
          4    1    3    3  502    0 -0.85832703485E+02  0.29603664370E+02 -0.23915155427E+03  0.25580675488E+03  0.00000000000E+00 0. -1.
         -3    1    3    3    0  502  0.78691853693E+01 -0.17162750852E+02 -0.98670514280E+02  0.10046071114E+03  0.00000000000E+00 0.  1.
         13    1    5    5    0    0  0.86865757352E+01  0.19418093281E+03 -0.52806509171E+03  0.56270279220E+03  0.00000000000E+00 0. -1.
        -13    1    5    5    0    0 -0.57837244094E+02  0.20962700422E+03 -0.42242794016E+03  0.47511471491E+03  0.00000000000E+00 0.  1.
          4    1    6    6  503    0  0.80045302016E+02 -0.16041709724E+03 -0.99017307403E+03  0.10062721361E+04  0.00000000000E+00 0.  1.
         -4    1    6    6    0  503  0.47068884459E+02 -0.25583175331E+03 -0.10842336121E+04  0.11150012967E+04  0.00000000000E+00 0. -1.
<mgrwt>
<rscale>  0 0.10246204E+04</rscale>
<asrwt>0</asrwt>
<pdfrwt beam="1">  1        2 0.52908303E+00 0.10246204E+04</pdfrwt>
<pdfrwt beam="2">  1       -1 0.11741280E-01 0.10246204E+04</pdfrwt>
<totfact> 0.51527718E+01</totfact>
</mgrwt>
</event>
<event>
12    7  0.1611233E-007  0.1331990E+04  0.7818608E-02  0.9004574E-01
          2   -1    0    0  501    0  0.00000000000E+00  0.00000000000E+00  0.51252989449E+03  0.51252989449E+03  0.00000000000E+00 0. -1.
         -1   -1    0    0    0  501 -0.00000000000E+00 -0.00000000000E+00 -0.86541197403E+03  0.86541197403E+03  0.00000000000E+00 0.  1.
         24    2    1    2    0    0 -0.21001048543E+03  0.19685566111E+03 -0.31426479793E+03  0.43264822348E+03  0.74602726204E+02 0.  0.
        254    2    1    2    0    0  0.21001048543E+03 -0.19685566111E+03 -0.38617281609E+02  0.94529364505E+03  0.89957335756E+03 0.  0.
         23    2    4    4    0    0 -0.85902716038E+02  0.31243561011E+03  0.57973133628E+02  0.34142168255E+03  0.90623363458E+02 0.  0.
         23    2    4    4    0    0  0.29591320147E+03 -0.50929127122E+03 -0.96590415237E+02  0.60387196250E+03  0.91593760895E+02 0.  0.
          4    1    3    3  502    0 -0.17911545808E+02  0.29527886540E+02 -0.77547655088E+02  0.84890272508E+02  0.00000000000E+00 0. -1.
         -3    1    3    3    0  502 -0.19209893962E+03  0.16732777457E+03 -0.23671714284E+03  0.34775795097E+03  0.00000000000E+00 0.  1.
         13    1    5    5    0    0 -0.13983622456E+02  0.24737302653E+02 -0.20050665933E+02  0.34777939041E+02  0.00000000000E+00 0. -1.
        -13    1    5    5    0    0 -0.71919093582E+02  0.28769830746E+03  0.78023799561E+02  0.30664374351E+03  0.00000000000E+00 0.  1.
          3    1    6    6  503    0  0.64111228532E+02 -0.19501150226E+03 -0.24193540555E+02  0.20670041858E+03  0.00000000000E+00 0. -1.
         -3    1    6    6    0  503  0.23180197294E+03 -0.31427976896E+03 -0.72396874682E+02  0.39717154392E+03  0.00000000000E+00 0.  1.
<mgrwt>
<rscale>  0 0.13319903E+04</rscale>
<asrwt>0</asrwt>
<pdfrwt beam="1">  1        2 0.78850754E-01 0.13319903E+04</pdfrwt>
<pdfrwt beam="2">  1       -1 0.13314030E+00 0.13319903E+04</pdfrwt>
<totfact> 0.31939405E+01</totfact>
</mgrwt>
</event>
<event>
12    7  0.1611233E-007  0.1952746E+04  0.7818608E-02  0.8629038E-01
         -1   -1    0    0    0  501 -0.00000000000E+00  0.00000000000E+00  0.39851615425E+03  0.39851615425E+03  0.00000000000E+00 0.  1.
          2   -1    0    0  501    0  0.00000000000E+00 -0.00000000000E+00 -0.23921336988E+04  0.23921336988E+04  0.00000000000E+00 0. -1.
         24    2    1    2    0    0  0.21227014875E+03  0.39316132759E+03  0.99503776390E+02  0.46467385312E+03  0.79914596254E+02 0.  0.
        254    2    1    2    0    0 -0.21227014875E+03 -0.39316132759E+03 -0.20931213209E+04  0.23259759999E+04  0.91069920529E+03 0.  0.
         23    2    4    4    0    0  0.89061249971E+02  0.22274312732E+03 -0.10032080717E+04  0.10348102582E+04  0.82821665956E+02 0.  0.
         23    2    4    4    0    0 -0.30133139872E+03 -0.61590445491E+03 -0.10899132493E+04  0.12911657417E+04  0.95179684334E+02 0.  0.
          4    1    3    3  502    0  0.17135464825E+01  0.57229016668E+02  0.82945524421E+01  0.57852365471E+02  0.00000000000E+00 0. -1.
         -3    1    3    3    0  502  0.21055660226E+03  0.33593231092E+03  0.91209223948E+02  0.40682148765E+03  0.00000000000E+00 0.  1.
         13    1    5    5    0    0  0.72353927886E+02  0.73565744153E+02 -0.44057289401E+03  0.45249473426E+03  0.00000000000E+00 0.  1.
        -13    1    5    5    0    0  0.16707322085E+02  0.14917738316E+03 -0.56263517766E+03  0.58231552392E+03  0.00000000000E+00 0. -1.
          4    1    6    6  503    0 -0.17959656472E+02 -0.59925878807E+02 -0.58395983201E+02  0.85578917178E+02  0.00000000000E+00 0. -1.
         -4    1    6    6    0  503 -0.28337174225E+03 -0.55597857610E+03 -0.10315172661E+04  0.12055868246E+04  0.00000000000E+00 0.  1.
<mgrwt>
<rscale>  0 0.19527457E+04</rscale>
<asrwt>0</asrwt>
<pdfrwt beam="1">  1        2 0.36802058E+00 0.19527457E+04</pdfrwt>
<pdfrwt beam="2">  1       -1 0.61310176E-01 0.19527457E+04</pdfrwt>
<totfact> 0.11512138E+01</totfact>
</mgrwt>
</event>
<event>
12    7  0.1611233E-007  0.1617746E+04  0.7818608E-02  0.8809720E-01
          2   -1    0    0  501    0  0.00000000000E+00  0.00000000000E+00  0.70054920011E+03  0.70054920011E+03  0.00000000000E+00 0. -1.
         -1   -1    0    0    0  501 -0.00000000000E+00 -0.00000000000E+00 -0.93394604738E+03  0.93394604738E+03  0.00000000000E+00 0.  1.
         24    2    1    2    0    0  0.45765653033E+03 -0.54978883016E+02  0.26428120304E+03  0.53728601325E+03  0.79746651489E+02 0.  0.
        254    2    1    2    0    0 -0.45765653033E+03  0.54978883016E+02 -0.49767805031E+03  0.10972092342E+04  0.86238766493E+03 0.  0.
         23    2    4    4    0    0 -0.69805451630E+03 -0.14538531585E+02 -0.41048927631E+03  0.81499210423E+03  0.90659844232E+02 0.  0.
         23    2    4    4    0    0  0.24039798598E+03  0.69517414601E+02 -0.87188774000E+02  0.28221713002E+03  0.97060618013E+02 0.  0.
          4    1    3    3  502    0  0.41358945331E+03 -0.66262038667E+02  0.25643093580E+03  0.49112495201E+03  0.00000000000E+00 0. -1.
         -3    1    3    3    0  502  0.44067077019E+02  0.11283155651E+02  0.78502672371E+01  0.46161061232E+02  0.00000000000E+00 0.  1.
         13    1    5    5    0    0 -0.14988496538E+03 -0.33919806099E+02 -0.11509124210E+03  0.19199492208E+03  0.00000000000E+00 0. -1.
        -13    1    5    5    0    0 -0.54816955092E+03  0.19381274514E+02 -0.29539803421E+03  0.62299718215E+03  0.00000000000E+00 0.  1.
          4    1    6    6  503    0 -0.91874396111E+01 -0.36184774074E+00 -0.21865559053E+01  0.94509791621E+01  0.00000000000E+00 0. -1.
         -4    1    6    6    0  503  0.24958542559E+03  0.69879262342E+02 -0.85002218094E+02  0.27276615085E+03  0.00000000000E+00 0.  1.
<mgrwt>
<rscale>  0 0.16177455E+04</rscale>
<asrwt>0</asrwt>
<pdfrwt beam="1">  1        2 0.10777680E+00 0.16177455E+04</pdfrwt>
<pdfrwt beam="2">  1       -1 0.14368401E+00 0.16177455E+04</pdfrwt>
<totfact> 0.17525457E+01</totfact>
</mgrwt>
</event>
<event>
12    7  0.1611233E-007  0.2571739E+04  0.7818608E-02  0.8377865E-01
         -1   -1    0    0    0  501 -0.00000000000E+00  0.00000000000E+00  0.14141903881E+04  0.14141903881E+04  0.00000000000E+00 0.  1.
          2   -1    0    0  501    0  0.00000000000E+00 -0.00000000000E+00 -0.11691918773E+04  0.11691918773E+04  0.00000000000E+00 0. -1.
         24    2    1    2    0    0  0.72672237233E+03 -0.12996705605E+03  0.96196905528E+03  0.12151159640E+04  0.78137702293E+02 0.  0.
        254    2    1    2    0    0 -0.72672237233E+03  0.12996705605E+03 -0.71697054445E+03  0.13682663015E+04  0.90171451582E+03 0.  0.
         23    2    4    4    0    0  0.17543932181E+03 -0.19570602442E+00  0.11061777100E+02  0.19821036221E+03  0.91575055769E+02 0.  0.
         23    2    4    4    0    0 -0.90216169414E+03  0.13016276208E+03 -0.72803232155E+03  0.11700559393E+04  0.90342530286E+02 0.  0.
          2    1    3    3  502    0  0.91266006668E+02 -0.33375061798E+02  0.95266353007E+02  0.13608474102E+03  0.00000000000E+00 0. -1.
         -1    1    3    3    0  502  0.63545636566E+03 -0.96591994256E+02  0.86670270227E+03  0.10790312230E+04  0.00000000000E+00 0.  1.
         13    1    5    5    0    0  0.13188831282E+03  0.27519533920E+01  0.48654082227E+02  0.14060341398E+03  0.00000000000E+00 0. -1.
        -13    1    5    5    0    0  0.43551008989E+02 -0.29476594164E+01 -0.37592305127E+02  0.57606948233E+02  0.00000000000E+00 0.  1.
          1    1    6    6  503    0 -0.80921718340E+03  0.11911380161E+03 -0.61529243179E+03  0.10235259275E+04  0.00000000000E+00 0. -1.
         -1    1    6    6    0  503 -0.92944510737E+02  0.11048960464E+02 -0.11273988977E+03  0.14653001177E+03  0.00000000000E+00 0.  1.
<mgrwt>
<rscale>  0 0.25717386E+04</rscale>
<asrwt>0</asrwt>
<pdfrwt beam="1">  1        2 0.17987567E+00 0.25717386E+04</pdfrwt>
<pdfrwt beam="2">  1       -1 0.21756775E+00 0.25717386E+04</pdfrwt>
<totfact> 0.22822665E+00</totfact>
</mgrwt>
</event>
<event>
12    7  0.1611233E-007  0.1680050E+04  0.7818608E-02  0.8772825E-01
          2   -1    0    0  501    0  0.00000000000E+00  0.00000000000E+00  0.12866910316E+04  0.12866910316E+04  0.00000000000E+00 0. -1.
         -1   -1    0    0    0  501 -0.00000000000E+00 -0.00000000000E+00 -0.54841608665E+03  0.54841608665E+03  0.00000000000E+00 0.  1.
         24    2    1    2    0    0 -0.36579960858E+03 -0.36240256880E+03 -0.53565518671E+02  0.52314027537E+03  0.75242989074E+02 0.  0.
        254    2    1    2    0    0  0.36579960858E+03  0.36240256880E+03  0.79184046360E+03  0.13119668429E+04  0.91054966997E+03 0.  0.
         23    2    4    4    0    0  0.64218446947E+03  0.18837099442E+03  0.67161211793E+03  0.95255971408E+03  0.91774983432E+02 0.  0.
         23    2    4    4    0    0 -0.27638486088E+03  0.17403157438E+03  0.12022834567E+03  0.35940712879E+03  0.89683046951E+02 0.  0.
          4    1    3    3  502    0 -0.27327607608E+03 -0.27318110954E+03 -0.72719018891E+02  0.39318670892E+03  0.00000000000E+00 0. -1.
         -3    1    3    3    0  502 -0.92523532504E+02 -0.89221459267E+02  0.19153500220E+02  0.12995356644E+03  0.00000000000E+00 0.  1.
         13    1    5    5    0    0  0.30243058121E+03  0.86146345769E+02  0.38043747207E+03  0.49357686281E+03  0.00000000000E+00 0.  1.
        -13    1    5    5    0    0  0.33975388826E+03  0.10222464865E+03  0.29117464585E+03  0.45898285127E+03  0.00000000000E+00 0. -1.
          2    1    6    6  503    0 -0.13512238717E+03  0.71540770241E+02  0.10230423916E+03  0.18396276436E+03  0.00000000000E+00 0. -1.
         -2    1    6    6    0  503 -0.14126247371E+03  0.10249080414E+03  0.17924106509E+02  0.17544436442E+03  0.00000000000E+00 0.  1.
<mgrwt>
<rscale>  0 0.16800501E+04</rscale>
<asrwt>0</asrwt>
<pdfrwt beam="1">  1        2 0.19795247E+00 0.16800501E+04</pdfrwt>
<pdfrwt beam="2">  1       -1 0.84371706E-01 0.16800501E+04</pdfrwt>
<totfact> 0.25443178E+01</totfact>
</mgrwt>
</event>
<event>
12    7  0.1611233E-007  0.1871704E+04  0.7818608E-02  0.8669071E-01
         -1   -1    0    0    0  501 -0.00000000000E+00  0.00000000000E+00  0.71645884569E+03  0.71645884569E+03  0.00000000000E+00 0.  1.
          2   -1    0    0  501    0  0.00000000000E+00 -0.00000000000E+00 -0.12224269040E+04  0.12224269040E+04  0.00000000000E+00 0. -1.
         24    2    1    2    0    0 -0.57383928036E+02 -0.38419140110E+03 -0.81632020196E+03  0.90756403139E+03  0.79986568080E+02 0.  0.
        254    2    1    2    0    0  0.57383928036E+02  0.38419140110E+03  0.31035214364E+03  0.10313217183E+04  0.90355414100E+03 0.  0.
         23    2    4    4    0    0  0.30941143168E+03  0.54888808042E+03  0.32763019199E+03  0.71590761294E+03  0.90380355648E+02 0.  0.
         23    2    4    4    0    0 -0.25202750364E+03 -0.16469667932E+03 -0.17278048344E+02  0.31541410537E+03  0.92437374146E+02 0.  0.
          4    1    3    3  502    0  0.55806322471E+01 -0.22970481937E+03 -0.47520103044E+03  0.52783659103E+03  0.00000000000E+00 0. -1.
         -3    1    3    3    0  502 -0.62964560283E+02 -0.15448658173E+03 -0.34111917152E+03  0.37972744036E+03  0.00000000000E+00 0.  1.
         13    1    5    5    0    0  0.20245434116E+03  0.27826767438E+03  0.15359432929E+03  0.37684463225E+03  0.00000000000E+00 0. -1.
        -13    1    5    5    0    0  0.10695709052E+03  0.27062040603E+03  0.17403586269E+03  0.33906298069E+03  0.00000000000E+00 0.  1.
          3    1    6    6  503    0 -0.53784454342E+02  0.37856860395E+01  0.57869351897E+01  0.54227184756E+02  0.00000000000E+00 0. -1.
         -3    1    6    6    0  503 -0.19824304930E+03 -0.16848236536E+03 -0.23064983533E+02  0.26118692061E+03  0.00000000000E+00 0.  1.
<mgrwt>
<rscale>  0 0.18717036E+04</rscale>
<asrwt>0</asrwt>
<pdfrwt beam="1">  1        2 0.18806568E+00 0.18717036E+04</pdfrwt>
<pdfrwt beam="2">  1       -1 0.11022444E+00 0.18717036E+04</pdfrwt>
<totfact> 0.14930497E+01</totfact>
</mgrwt>
</event>
<event>
12    7  0.1611233E-007  0.2060130E+04  0.7818608E-02  0.8579013E-01
          2   -1    0    0  501    0  0.00000000000E+00  0.00000000000E+00  0.35211011495E+04  0.35211011495E+04  0.00000000000E+00 0. -1.
         -1   -1    0    0    0  501 -0.00000000000E+00 -0.00000000000E+00 -0.30133588478E+03  0.30133588478E+03  0.00000000000E+00 0.  1.
         24    2    1    2    0    0 -0.27569952490E+03 -0.27609982489E+03 -0.59786708427E+02  0.40270236905E+03  0.79708256760E+02 0.  0.
        254    2    1    2    0    0  0.27569952490E+03  0.27609982489E+03  0.32795519731E+04  0.34197346652E+04  0.88706408712E+03 0.  0.
         23    2    4    4    0    0 -0.29348726543E+03  0.20006082316E+03  0.94133902665E+03  0.10103053460E+04  0.91861967304E+02 0.  0.
         23    2    4    4    0    0  0.56918679033E+03  0.76039001733E+02  0.23382129465E+04  0.24094293193E+04  0.91402020469E+02 0.  0.
          2    1    3    3  502    0 -0.54830633964E+02 -0.35722321258E+02 -0.37678372676E+02  0.75512531573E+02  0.00000000000E+00 0. -1.
         -1    1    3    3    0  502 -0.22086889094E+03 -0.24037750363E+03 -0.22108335750E+02  0.32718983747E+03  0.00000000000E+00 0.  1.
         13    1    5    5    0    0 -0.22158654896E+02  0.17708983287E+02  0.26529559206E+02  0.38838532252E+02  0.00000000000E+00 0.  1.
        -13    1    5    5    0    0 -0.27132861053E+03  0.18235183987E+03  0.91480946744E+03  0.97146681370E+03  0.00000000000E+00 0. -1.
          1    1    6    6  503    0  0.48983412928E+03  0.81885962503E+02  0.18872547026E+04  0.19515053414E+04  0.00000000000E+00 0. -1.
         -1    1    6    6    0  503  0.79352661046E+02 -0.58469607702E+01  0.45095824388E+03  0.45792397785E+03  0.00000000000E+00 0.  1.
<mgrwt>
<rscale>  0 0.20601302E+04</rscale>
<asrwt>0</asrwt>
<pdfrwt beam="1">  1        2 0.54170784E+00 0.20601302E+04</pdfrwt>
<pdfrwt beam="2">  1       -1 0.46359369E-01 0.20601302E+04</pdfrwt>
<totfact> 0.38487104E+00</totfact>
</mgrwt>
</event>
<event>
12    7  0.1611233E-007  0.2101390E+04  0.7818608E-02  0.8560631E-01
          2   -1    0    0  501    0  0.00000000000E+00  0.00000000000E+00  0.59085251296E+03  0.59085251296E+03  0.00000000000E+00 0. -1.
         -3   -1    0    0    0  501 -0.00000000000E+00 -0.00000000000E+00 -0.18684188573E+04  0.18684188573E+04  0.00000000000E+00 0.  1.
         24    2    1    2    0    0 -0.33601477200E+03 -0.17641151522E+03 -0.14278960037E+04  0.14796241220E+04  0.79834801338E+02 0.  0.
        254    2    1    2    0    0  0.33601477200E+03  0.17641151522E+03  0.15032965929E+03  0.97964724826E+03  0.89055194955E+03 0.  0.
         23    2    4    4    0    0  0.46373596758E+03 -0.14406310800E+03  0.31468898757E+03  0.58576210207E+03  0.91010189555E+02 0.  0.
         23    2    4    4    0    0 -0.12772119557E+03  0.32047462322E+03 -0.16435932828E+03  0.39388514619E+03  0.95471627553E+02 0.  0.
          4    1    3    3  502    0 -0.12900739436E+03 -0.43171415519E+02 -0.63416666748E+03  0.64859389533E+03  0.00000000000E+00 0. -1.
         -3    1    3    3    0  502 -0.20700737765E+03 -0.13324009970E+03 -0.79372933618E+03  0.83103022669E+03  0.00000000000E+00 0.  1.
         13    1    5    5    0    0  0.16268329506E+03 -0.63773499924E+01  0.95941643798E+02  0.18897440065E+03  0.00000000000E+00 0.  1.
        -13    1    5    5    0    0  0.30105267252E+03 -0.13768575801E+03  0.21874734377E+03  0.39678770142E+03  0.00000000000E+00 0. -1.
          3    1    6    6  503    0 -0.91239345882E+01  0.13524191253E+03 -0.85330903196E+02  0.16017173323E+03  0.00000000000E+00 0. -1.
         -3    1    6    6    0  503 -0.11859726099E+03  0.18523271069E+03 -0.79028425086E+02  0.23371341296E+03  0.00000000000E+00 0.  1.
<mgrwt>
<rscale>  0 0.21013900E+04</rscale>
<asrwt>0</asrwt>
<pdfrwt beam="1">  1        2 0.90900388E-01 0.21013900E+04</pdfrwt>
<pdfrwt beam="2">  1       -3 0.28744905E+00 0.21013900E+04</pdfrwt>
<totfact> 0.12995763E+00</totfact>
</mgrwt>
</event>
<event>
12    7  0.1611233E-007  0.2728923E+04  0.7818608E-02  0.8325681E-01
         -1   -1    0    0    0  501 -0.00000000000E+00  0.00000000000E+00  0.64670082780E+03  0.64670082780E+03  0.00000000000E+00 0.  1.
          2   -1    0    0  501    0  0.00000000000E+00 -0.00000000000E+00 -0.28788502519E+04  0.28788502519E+04  0.00000000000E+00 0. -1.
         24    2    1    2    0    0 -0.46955625848E+03  0.10140923607E+04 -0.37636133766E+03  0.11815761701E+04  0.74886536134E+02 0.  0.
        254    2    1    2    0    0  0.46955625848E+03 -0.10140923607E+04 -0.18557880864E+04  0.23439749096E+04  0.89521090202E+03 0.  0.
         23    2    4    4    0    0  0.41398434125E+03 -0.11607612828E+04 -0.14936448041E+04  0.19385677060E+04  0.91214907490E+02 0.  0.
         23    2    4    4    0    0  0.55571917229E+02  0.14666892209E+03 -0.36214328232E+03  0.40540720360E+03  0.92775175088E+02 0.  0.
          4    1    3    3  502    0 -0.26264108310E+02  0.62913656343E+02 -0.42526984872E+02  0.80352199610E+02  0.00000000000E+00 0. -1.
         -3    1    3    3    0  502 -0.44329215017E+03  0.95117870438E+03 -0.33383435279E+03  0.11012239705E+04  0.00000000000E+00 0.  1.
         13    1    5    5    0    0  0.41888368825E+03 -0.11502480587E+04 -0.14799294580E+04  0.19206054623E+04  0.00000000000E+00 0. -1.
        -13    1    5    5    0    0 -0.48993469978E+01 -0.10513224091E+02 -0.13715346051E+02  0.17962243710E+02  0.00000000000E+00 0.  1.
          3    1    6    6  503    0  0.28462425724E+02  0.14461227153E+03 -0.25179792958E+03  0.29176191680E+03  0.00000000000E+00 0. -1.
         -3    1    6    6    0  503  0.27109491505E+02  0.20566505631E+01 -0.11034535274E+03  0.11364528680E+03  0.00000000000E+00 0.  1.
<mgrwt>
<rscale>  0 0.27289227E+04</rscale>
<asrwt>0</asrwt>
<pdfrwt beam="1">  1        2 0.44290003E+00 0.27289227E+04</pdfrwt>
<pdfrwt beam="2">  1       -1 0.99492437E-01 0.27289227E+04</pdfrwt>
<totfact> 0.19853600E+00</totfact>
</mgrwt>
</event>
<event>
12    7  0.1611233E-007  0.1767316E+04  0.7818608E-02  0.8723876E-01
         -1   -1    0    0    0  501 -0.00000000000E+00  0.00000000000E+00  0.35590336112E+03  0.35590336112E+03  0.00000000000E+00 0.  1.
          2   -1    0    0  501    0  0.00000000000E+00 -0.00000000000E+00 -0.21939975740E+04  0.21939975740E+04  0.00000000000E+00 0. -1.
         24    2    1    2    0    0  0.40973288336E+03  0.49224501662E+02 -0.13824430321E+04  0.14448791459E+04  0.78885498017E+02 0.  0.
        254    2    1    2    0    0 -0.40973288336E+03 -0.49224501662E+02 -0.45565118079E+03  0.11050217893E+04  0.91823257892E+03 0.  0.
         23    2    4    4    0    0 -0.64135969181E+03  0.17601591888E+03 -0.31636058713E+03  0.74212201505E+03  0.91308302785E+02 0.  0.
         23    2    4    4    0    0  0.23162680845E+03 -0.22524042055E+03 -0.13929059366E+03  0.36289977424E+03  0.88939030902E+02 0.  0.
          4    1    3    3  502    0  0.40680006471E+03  0.56745417847E+02 -0.13351066110E+04  0.13968593336E+04  0.00000000000E+00 0. -1.
         -3    1    3    3    0  502  0.29328186484E+01 -0.75209161852E+01 -0.47336421177E+02  0.48019812321E+02  0.00000000000E+00 0.  1.
         13    1    5    5    0    0 -0.12902329016E+03  0.72724686118E+02 -0.57422786726E+02  0.15884982156E+03  0.00000000000E+00 0. -1.
        -13    1    5    5    0    0 -0.51233640165E+03  0.10329123277E+03 -0.25893780041E+03  0.58327219349E+03  0.00000000000E+00 0.  1.
          1    1    6    6  503    0  0.63341400441E+02 -0.85461221734E+02 -0.56093203511E+01  0.10652332094E+03  0.00000000000E+00 0. -1.
         -1    1    6    6    0  503  0.16828540801E+03 -0.13977919881E+03 -0.13368127331E+03  0.25637645329E+03  0.00000000000E+00 0.  1.
<mgrwt>
<rscale>  0 0.17673156E+04</rscale>
<asrwt>0</asrwt>
<pdfrwt beam="1">  1        2 0.33753808E+00 0.17673156E+04</pdfrwt>
<pdfrwt beam="2">  1       -1 0.54754365E-01 0.17673156E+04</pdfrwt>
<totfact> 0.18911731E+01</totfact>
</mgrwt>
</event>
<event>
12    7  0.1611233E-007  0.2542377E+04  0.7818608E-02  0.8388042E-01
         -1   -1    0    0    0  501 -0.00000000000E+00  0.00000000000E+00  0.91549205840E+03  0.91549205840E+03  0.00000000000E+00 0.  1.
          2   -1    0    0  501    0  0.00000000000E+00 -0.00000000000E+00 -0.17650831976E+04  0.17650831976E+04  0.00000000000E+00 0. -1.
         24    2    1    2    0    0  0.94782691964E+03  0.52758568045E+03 -0.62487531399E+03  0.12544524705E+04  0.80369913182E+02 0.  0.
        254    2    1    2    0    0 -0.94782691964E+03 -0.52758568045E+03 -0.22471582522E+03  0.14261227855E+04  0.89811273091E+03 0.  0.
         23    2    4    4    0    0 -0.87315401822E+03 -0.72141492201E+03 -0.31763737898E+03  0.11803562445E+04  0.97518870515E+02 0.  0.
         23    2    4    4    0    0 -0.74672901417E+02  0.19382924156E+03  0.92921553764E+02  0.24576654103E+03  0.92849127325E+02 0.  0.
          2    1    3    3  502    0  0.60024008341E+03  0.32979484322E+03 -0.34955085250E+03  0.76892040864E+03  0.00000000000E+00 0. -1.
         -1    1    3    3    0  502  0.34758683623E+03  0.19779083723E+03 -0.27532446149E+03  0.48553206187E+03  0.00000000000E+00 0.  1.
         13    1    5    5    0    0 -0.45288379223E+03 -0.32160413033E+03 -0.12726338452E+03  0.56984990563E+03  0.00000000000E+00 0. -1.
        -13    1    5    5    0    0 -0.42027022599E+03 -0.39981079167E+03 -0.19037399446E+03  0.61050633884E+03  0.00000000000E+00 0.  1.
          3    1    6    6  503    0 -0.11784930166E+02  0.14802066063E+03  0.48683303773E+02  0.15626600596E+03  0.00000000000E+00 0. -1.
         -3    1    6    6    0  503 -0.62887971252E+02  0.45808580927E+02  0.44238249991E+02  0.89500535065E+02  0.00000000000E+00 0.  1.
<mgrwt>
<rscale>  0 0.25423766E+04</rscale>
<asrwt>0</asrwt>
<pdfrwt beam="1">  1        2 0.27155126E+00 0.25423766E+04</pdfrwt>
<pdfrwt beam="2">  1       -1 0.14084493E+00 0.25423766E+04</pdfrwt>
<totfact> 0.37664606E+00</totfact>
</mgrwt>
</event>
<event>
12    7  0.1611233E-007  0.3116503E+04  0.7818608E-02  0.8211223E-01
         -1   -1    0    0    0  501 -0.00000000000E+00  0.00000000000E+00  0.78523261249E+03  0.78523261249E+03  0.00000000000E+00 0.  1.
          2   -1    0    0  501    0  0.00000000000E+00 -0.00000000000E+00 -0.30922661369E+04  0.30922661369E+04  0.00000000000E+00 0. -1.
         24    2    1    2    0    0 -0.41905606922E+03 -0.37420171610E+03  0.57338665779E+03  0.80653054602E+03  0.78002236170E+02 0.  0.
        254    2    1    2    0    0  0.41905606922E+03  0.37420171610E+03 -0.28804201822E+04  0.30709682034E+04  0.90464930587E+03 0.  0.
         23    2    4    4    0    0 -0.26033931393E+03  0.11050435581E+03 -0.12149277712E+04  0.12507053465E+04  0.90700624625E+02 0.  0.
         23    2    4    4    0    0  0.67939538315E+03  0.26369736029E+03 -0.16654924110E+04  0.18202628569E+04  0.91528753978E+02 0.  0.
          2    1    3    3  502    0 -0.10558684687E+03 -0.69130629746E+02  0.92545600931E+02  0.15650020592E+03  0.00000000000E+00 0. -1.
         -1    1    3    3    0  502 -0.31346922235E+03 -0.30507108635E+03  0.48084105686E+03  0.65003034010E+03  0.00000000000E+00 0.  1.
         13    1    5    5    0    0 -0.26022590555E+03  0.12034910373E+03 -0.11853904167E+04  0.12195703623E+04  0.00000000000E+00 0.  1.
        -13    1    5    5    0    0 -0.11340838114E+00 -0.98447479253E+01 -0.29537354538E+02  0.31134984122E+02  0.00000000000E+00 0. -1.
          3    1    6    6  503    0  0.90353824485E+02  0.64813896938E+02 -0.29828344445E+03  0.31833577881E+03  0.00000000000E+00 0. -1.
         -3    1    6    6    0  503  0.58904155867E+03  0.19888346335E+03 -0.13672089665E+04  0.15019270781E+04  0.00000000000E+00 0.  1.
<mgrwt>
<rscale>  0 0.31165033E+04</rscale>
<asrwt>0</asrwt>
<pdfrwt beam="1">  1        2 0.47573324E+00 0.31165033E+04</pdfrwt>
<pdfrwt beam="2">  1       -1 0.12080502E+00 0.31165033E+04</pdfrwt>
<totfact> 0.89207406E-01</totfact>
</mgrwt>
</event>
<event>
12    7  0.1611233E-007  0.1565772E+04  0.7818608E-02  0.8841856E-01
          2   -1    0    0  501    0  0.00000000000E+00  0.00000000000E+00  0.75007291394E+03  0.75007291394E+03  0.00000000000E+00 0. -1.
         -1   -1    0    0    0  501 -0.00000000000E+00 -0.00000000000E+00 -0.81713426604E+03  0.81713426604E+03  0.00000000000E+00 0.  1.
         24    2    1    2    0    0  0.30100330179E+01  0.49276655465E+03 -0.24711139541E+03  0.55673211519E+03  0.77837450283E+02 0.  0.
        254    2    1    2    0    0 -0.30100330179E+01 -0.49276655465E+03  0.18005004331E+03  0.10104750648E+04  0.86360517645E+03 0.  0.
         23    2    4    4    0    0 -0.18588555873E+03 -0.68311218101E+03  0.15092753815E+03  0.72969983774E+03  0.92125124911E+02 0.  0.
         23    2    4    4    0    0  0.18287552571E+03  0.19034562636E+03  0.29122505155E+02  0.28077522705E+03  0.91168483793E+02 0.  0.
          2    1    3    3  502    0 -0.24566186274E+02  0.15497736998E+03 -0.50094541277E+02  0.16471474062E+03  0.00000000000E+00 0. -1.
         -1    1    3    3    0  502  0.27576219292E+02  0.33778918467E+03 -0.19701685413E+03  0.39201737457E+03  0.00000000000E+00 0.  1.
         13    1    5    5    0    0 -0.63563792170E+02 -0.24811323140E+03  0.10005278802E+03  0.27497471095E+03  0.00000000000E+00 0. -1.
        -13    1    5    5    0    0 -0.12232176656E+03 -0.43499894961E+03  0.50874750133E+02  0.45472512680E+03  0.00000000000E+00 0.  1.
          1    1    6    6  503    0  0.64883075209E+02  0.44818851016E+02  0.48254591848E+02  0.92450248725E+02  0.00000000000E+00 0. -1.
         -1    1    6    6    0  503  0.11799245050E+03  0.14552677535E+03 -0.19132086693E+02  0.18832497832E+03  0.00000000000E+00 0.  1.
<mgrwt>
<rscale>  0 0.15657717E+04</rscale>
<asrwt>0</asrwt>
<pdfrwt beam="1">  1        2 0.11539583E+00 0.15657717E+04</pdfrwt>
<pdfrwt beam="2">  1       -1 0.12571296E+00 0.15657717E+04</pdfrwt>
<totfact> 0.22717535E+01</totfact>
</mgrwt>
</event>
<event>
12    7  0.1611233E-007  0.2591032E+04  0.7818608E-02  0.8371254E-01
         -1   -1    0    0    0  501 -0.00000000000E+00  0.00000000000E+00  0.18353982023E+04  0.18353982023E+04  0.00000000000E+00 0.  1.
          2   -1    0    0  501    0  0.00000000000E+00 -0.00000000000E+00 -0.91444044191E+03  0.91444044191E+03  0.00000000000E+00 0. -1.
         24    2    1    2    0    0 -0.12151820435E+02 -0.22751312250E+03 -0.77711965306E+03  0.81336523179E+03  0.75750626788E+02 0.  0.
        254    2    1    2    0    0  0.12151820435E+02  0.22751312250E+03  0.16980774135E+04  0.19364734125E+04  0.90252561587E+03 0.  0.
         23    2    4    4    0    0  0.73568434044E+02 -0.20554676072E+03  0.13484705036E+04  0.13690168426E+04  0.90402605498E+02 0.  0.
         23    2    4    4    0    0 -0.61416613609E+02  0.43305988322E+03  0.34960690994E+03  0.56745656984E+03  0.92027736573E+02 0.  0.
          2    1    3    3  502    0  0.31619309320E+01 -0.22442446057E+03 -0.72969801600E+03  0.76343665806E+03  0.00000000000E+00 0. -1.
         -3    1    3    3    0  502 -0.15313751367E+02 -0.30886619327E+01 -0.47421637062E+02  0.49928573734E+02  0.00000000000E+00 0.  1.
         13    1    5    5    0    0 -0.10757696940E+02 -0.10263049817E+03  0.60288078064E+03  0.61164857791E+03  0.00000000000E+00 0. -1.
        -13    1    5    5    0    0  0.84326130984E+02 -0.10291626255E+03  0.74558972291E+03  0.75736826470E+03  0.00000000000E+00 0.  1.
          3    1    6    6  503    0  0.17979198143E+02  0.67147490687E+02  0.32249518718E+02  0.76629423390E+02  0.00000000000E+00 0. -1.
         -3    1    6    6    0  503 -0.79395811752E+02  0.36591239253E+03  0.31735739122E+03  0.49082714645E+03  0.00000000000E+00 0.  1.
<mgrwt>
<rscale>  0 0.25910325E+04</rscale>
<asrwt>0</asrwt>
<pdfrwt beam="1">  1        2 0.14068315E+00 0.25910325E+04</pdfrwt>
<pdfrwt beam="2">  1       -1 0.28236895E+00 0.25910325E+04</pdfrwt>
<totfact> 0.12432368E+00</totfact>
</mgrwt>
</event>
<event>
12    7  0.1611233E-007  0.2154536E+04  0.7818608E-02  0.8537593E-01
          2   -1    0    0  501    0  0.00000000000E+00  0.00000000000E+00  0.34344767142E+04  0.34344767142E+04  0.00000000000E+00 0. -1.
         -1   -1    0    0    0  501 -0.00000000000E+00 -0.00000000000E+00 -0.33789902819E+03  0.33789902819E+03  0.00000000000E+00 0.  1.
         24    2    1    2    0    0  0.39625705369E+03 -0.34321833584E+02  0.26657418029E+04  0.26963762073E+04  0.77895127256E+02 0.  0.
        254    2    1    2    0    0 -0.39625705369E+03  0.34321833584E+02  0.43083588306E+03  0.10759995350E+04  0.90219609862E+03 0.  0.
         23    2    4    4    0    0  0.77859809871E+02 -0.15088943422E+03 -0.18842177364E+03  0.26953452801E+03  0.91193890449E+02 0.  0.
         23    2    4    4    0    0 -0.47411686356E+03  0.18521126780E+03  0.61925765671E+03  0.80646500700E+03  0.88406719732E+02 0.  0.
          2    1    3    3  502    0  0.38884410139E+03 -0.31351832350E+02  0.24828308690E+04  0.25132910291E+04  0.00000000000E+00 0. -1.
         -1    1    3    3    0  502  0.74129522911E+01 -0.29700012345E+01  0.18291093386E+03  0.18308517825E+03  0.00000000000E+00 0.  1.
         13    1    5    5    0    0  0.43011833820E+02 -0.12533709433E+03 -0.18306481305E+03  0.22599143975E+03  0.00000000000E+00 0.  1.
        -13    1    5    5    0    0  0.34847976051E+02 -0.25552339886E+02 -0.53569605971E+01  0.43543088262E+02  0.00000000000E+00 0. -1.
          3    1    6    6  503    0 -0.45783010819E+03  0.15695753150E+03  0.57803032262E+03  0.75389861953E+03  0.00000000000E+00 0.  1.
         -3    1    6    6    0  503 -0.16286755364E+02  0.28253736308E+02  0.41227334084E+02  0.52566387467E+02  0.00000000000E+00 0. -1.
<mgrwt>
<rscale>  0 0.21545360E+04</rscale>
<asrwt>0</asrwt>
<pdfrwt beam="1">  1        2 0.52838101E+00 0.21545360E+04</pdfrwt>
<pdfrwt beam="2">  1       -1 0.51984468E-01 0.21545360E+04</pdfrwt>
<totfact> 0.35242900E+00</totfact>
</mgrwt>
</event>
<event>
12    7  0.1611233E-007  0.1243971E+04  0.7818608E-02  0.9075216E-01
          2   -1    0    0  501    0  0.00000000000E+00  0.00000000000E+00  0.16157856113E+03  0.16157856113E+03  0.00000000000E+00 0. -1.
         -1   -1    0    0    0  501 -0.00000000000E+00 -0.00000000000E+00 -0.23942908974E+04  0.23942908974E+04  0.00000000000E+00 0.  1.
         24    2    1    2    0    0 -0.25643115698E+03  0.14613442712E+03 -0.64185850190E+03  0.71092334898E+03  0.79482467296E+02 0.  0.
        254    2    1    2    0    0  0.25643115698E+03 -0.14613442712E+03 -0.15908538344E+04  0.18449461096E+04  0.88650889210E+03 0.  0.
         23    2    4    4    0    0 -0.88560902511E+02 -0.11106351220E+03 -0.14494496810E+04  0.14589283430E+04  0.85961591833E+02 0.  0.
         23    2    4    4    0    0  0.34499205949E+03 -0.35070914911E+02 -0.14140415341E+03  0.38601776652E+03  0.93622066227E+02 0.  0.
          2    1    3    3  502    0 -0.21368250547E+03  0.12847184013E+03 -0.45945513561E+03  0.52274683020E+03  0.00000000000E+00 0. -1.
         -1    1    3    3    0  502 -0.42748651508E+02  0.17662586982E+02 -0.18240336629E+03  0.18817651878E+03  0.00000000000E+00 0.  1.
         13    1    5    5    0    0 -0.88909014189E+02 -0.56132540657E+02 -0.75146956470E+03  0.75878994563E+03  0.00000000000E+00 0.  1.
        -13    1    5    5    0    0  0.34811167796E+00 -0.54930971548E+02 -0.69798011627E+03  0.70013839740E+03  0.00000000000E+00 0. -1.
          2    1    6    6  503    0  0.14885078458E+03 -0.54001830248E+02 -0.35363481413E+02  0.16224465956E+03  0.00000000000E+00 0. -1.
         -2    1    6    6    0  503  0.19614127491E+03  0.18930915337E+02 -0.10604067199E+03  0.22377310695E+03  0.00000000000E+00 0.  1.
<mgrwt>
<rscale>  0 0.12439712E+04</rscale>
<asrwt>0</asrwt>
<pdfrwt beam="1">  1        2 0.24858245E-01 0.12439712E+04</pdfrwt>
<pdfrwt beam="2">  1       -1 0.36835237E+00 0.12439712E+04</pdfrwt>
<totfact> 0.29573625E+00</totfact>
</mgrwt>
</event>
<event>
12    7  0.1611233E-007  0.1627175E+04  0.7818608E-02  0.8804025E-01
          2   -1    0    0  501    0  0.00000000000E+00  0.00000000000E+00  0.95604406174E+03  0.95604406174E+03  0.00000000000E+00 0. -1.
         -1   -1    0    0    0  501 -0.00000000000E+00 -0.00000000000E+00 -0.69235759191E+03  0.69235759191E+03  0.00000000000E+00 0.  1.
         24    2    1    2    0    0 -0.40947339037E+03 -0.28282320322E+03  0.35420357185E+03  0.61601073000E+03  0.79697098197E+02 0.  0.
        254    2    1    2    0    0  0.40947339037E+03  0.28282320322E+03 -0.90517102030E+02  0.10323909237E+04  0.89998902870E+03 0.  0.
         23    2    4    4    0    0  0.49571156784E+03  0.20556143082E+03  0.29515716452E+03  0.61937405762E+03  0.92309323183E+02 0.  0.
         23    2    4    4    0    0 -0.86238177476E+02  0.77261772395E+02 -0.38567426655E+03  0.41301686603E+03  0.91825307075E+02 0.  0.
          2    1    3    3  502    0 -0.25888979659E+03 -0.18299013668E+03  0.27112059377E+03  0.41715188273E+03  0.00000000000E+00 0. -1.
         -1    1    3    3    0  502 -0.15058359377E+03 -0.99833066533E+02  0.83082978088E+02  0.19885884727E+03  0.00000000000E+00 0.  1.
         13    1    5    5    0    0  0.48625378546E+03  0.19233870310E+03  0.26766857569E+03  0.58743798566E+03  0.00000000000E+00 0.  1.
        -13    1    5    5    0    0  0.94577823803E+01  0.13222727718E+02  0.27488588834E+02  0.31936071955E+02  0.00000000000E+00 0. -1.
          2    1    6    6  503    0 -0.43972622472E+02 -0.88564821709E+01 -0.18824030133E+03  0.19351082618E+03  0.00000000000E+00 0. -1.
         -2    1    6    6    0  503 -0.42265555005E+02  0.86118254566E+02 -0.19743396522E+03  0.21950603985E+03  0.00000000000E+00 0.  1.
<mgrwt>
<rscale>  0 0.16271747E+04</rscale>
<asrwt>0</asrwt>
<pdfrwt beam="1">  1        2 0.14708370E+00 0.16271747E+04</pdfrwt>
<pdfrwt beam="2">  1       -1 0.10651655E+00 0.16271747E+04</pdfrwt>
<totfact> 0.24190141E+01</totfact>
</mgrwt>
</event>
<event>
12    7  0.1611233E-007  0.1497737E+04  0.7818608E-02  0.8885959E-01
         -1   -1    0    0    0  501 -0.00000000000E+00  0.00000000000E+00  0.40499452143E+03  0.40499452143E+03  0.00000000000E+00 0.  1.
          2   -1    0    0  501    0  0.00000000000E+00 -0.00000000000E+00 -0.13847193247E+04  0.13847193247E+04  0.00000000000E+00 0. -1.
         24    2    1    2    0    0  0.62218224892E+02 -0.38555648644E+03 -0.38386247310E+02  0.40078520692E+03  0.81427061587E+02 0.  0.
        254    2    1    2    0    0 -0.62218224892E+02  0.38555648644E+03 -0.94133855598E+03  0.13889286392E+04  0.94365225385E+03 0.  0.
         23    2    4    4    0    0  0.35944189696E+03 -0.38941655277E+02 -0.56480085340E+03  0.67642818038E+03  0.88544618146E+02 0.  0.
         23    2    4    4    0    0 -0.42166012186E+03  0.42449814171E+03 -0.37653770257E+03  0.71250045885E+03  0.88771232548E+02 0.  0.
          4    1    3    3  502    0  0.30393778225E+02 -0.74869459305E+02 -0.36007831650E+02  0.88463447997E+02  0.00000000000E+00 0. -1.
         -3    1    3    3    0  502  0.31824446667E+02 -0.31068702713E+03 -0.23784156600E+01  0.31232175892E+03  0.00000000000E+00 0.  1.
         13    1    5    5    0    0  0.26989469065E+03 -0.58754657534E+02 -0.37623537384E+03  0.46674223117E+03  0.00000000000E+00 0. -1.
        -13    1    5    5    0    0  0.89547206310E+02  0.19813002257E+02 -0.18856547956E+03  0.20968594921E+03  0.00000000000E+00 0.  1.
          4    1    6    6  503    0 -0.13907046289E+02 -0.22641771233E+01 -0.45082193479E+01  0.14793798573E+02  0.00000000000E+00 0.  1.
         -4    1    6    6    0  503 -0.40775307557E+03  0.42676231884E+03 -0.37202948322E+03  0.69770666028E+03  0.00000000000E+00 0. -1.
<mgrwt>
<rscale>  0 0.14977366E+04</rscale>
<asrwt>0</asrwt>
<pdfrwt beam="1">  1        2 0.21303375E+00 0.14977366E+04</pdfrwt>
<pdfrwt beam="2">  1       -1 0.62306848E-01 0.14977366E+04</pdfrwt>
<totfact> 0.42489101E+01</totfact>
</mgrwt>
</event>
<event>
12    7  0.1611233E-007  0.2050389E+04  0.7818608E-02  0.8583418E-01
         -1   -1    0    0    0  501 -0.00000000000E+00  0.00000000000E+00  0.29249338825E+03  0.29249338825E+03  0.00000000000E+00 0.  1.
          2   -1    0    0  501    0  0.00000000000E+00 -0.00000000000E+00 -0.35933234459E+04  0.35933234459E+04  0.00000000000E+00 0. -1.
         24    2    1    2    0    0 -0.71776614787E+03  0.19949701236E+01 -0.56131802015E+03  0.91485653478E+03  0.81806702386E+02 0.  0.
        254    2    1    2    0    0  0.71776614787E+03 -0.19949701236E+01 -0.27395120375E+04  0.29709602993E+04  0.89804603103E+03 0.  0.
         23    2    4    4    0    0  0.80413637311E+03  0.26659417822E+03 -0.20027848903E+04  0.21765979674E+04  0.93400388157E+02 0.  0.
         23    2    4    4    0    0 -0.86370225235E+02 -0.26858914834E+03 -0.73672714713E+03  0.79436233189E+03  0.92976763712E+02 0.  0.
          2    1    3    3  502    0 -0.68127797697E+03 -0.14153521600E+02 -0.54105911792E+03  0.87010629992E+03  0.00000000000E+00 0. -1.
         -3    1    3    3    0  502 -0.36488170897E+02  0.16148491724E+02 -0.20258902228E+02  0.44750234858E+02  0.00000000000E+00 0.  1.
         13    1    5    5    0    0  0.67614964764E+03  0.18853976747E+03 -0.16225492883E+04  0.17678777624E+04  0.00000000000E+00 0.  1.
        -13    1    5    5    0    0  0.12798672546E+03  0.78054410748E+02 -0.38023560201E+03  0.40872020499E+03  0.00000000000E+00 0. -1.
          4    1    6    6  503    0 -0.19051546603E+02 -0.88349392979E+02 -0.36219446699E+03  0.37330069460E+03  0.00000000000E+00 0. -1.
         -4    1    6    6    0  503 -0.67318678632E+02 -0.18023975536E+03 -0.37453268014E+03  0.42106163729E+03  0.00000000000E+00 0.  1.
<mgrwt>
<rscale>  0 0.20503886E+04</rscale>
<asrwt>0</asrwt>
<pdfrwt beam="1">  1        2 0.55281901E+00 0.20503886E+04</pdfrwt>
<pdfrwt beam="2">  1       -1 0.44998981E-01 0.20503886E+04</pdfrwt>
<totfact> 0.36212370E+00</totfact>
</mgrwt>
</event>
<event>
12    7  0.1611233E-007  0.2730549E+04  0.7818608E-02  0.8325160E-01
          2   -1    0    0  501    0  0.00000000000E+00  0.00000000000E+00  0.37574388548E+04  0.37574388548E+04  0.00000000000E+00 0. -1.
         -1   -1    0    0    0  501 -0.00000000000E+00 -0.00000000000E+00 -0.49607579223E+03  0.49607579223E+03  0.00000000000E+00 0.  1.
         24    2    1    2    0    0  0.53751724154E+03 -0.52118263269E+03  0.29081871331E+04  0.30040267638E+04  0.77899131922E+02 0.  0.
        254    2    1    2    0    0 -0.53751724154E+03  0.52118263269E+03  0.35317592952E+03  0.12494878833E+04  0.93591164743E+03 0.  0.
         23    2    4    4    0    0 -0.23298370771E+03  0.66428457845E+02  0.59190267582E+03  0.64534771973E+03  0.86201819291E+02 0.  0.
         23    2    4    4    0    0 -0.30453353383E+03  0.45475417485E+03 -0.23872674630E+03  0.60414016359E+03  0.91939355523E+02 0.  0.
          2    1    3    3  502    0  0.46594291771E+03 -0.48366393678E+03  0.26228698794E+04  0.27074859206E+04  0.00000000000E+00 0. -1.
         -1    1    3    3    0  502  0.71574323830E+02 -0.37518695912E+02  0.28531725371E+03  0.29654084312E+03  0.00000000000E+00 0.  1.
         13    1    5    5    0    0 -0.20679940010E+02 -0.15094432055E+02  0.31727705136E+02  0.40769462482E+02  0.00000000000E+00 0.  1.
        -13    1    5    5    0    0 -0.21230376770E+03  0.81522889900E+02  0.56017497068E+03  0.60457825725E+03  0.00000000000E+00 0. -1.
          3    1    6    6  503    0 -0.24367919259E+03  0.30108302667E+03 -0.19238770578E+03  0.43248533754E+03  0.00000000000E+00 0. -1.
         -3    1    6    6    0  503 -0.60854341239E+02  0.15367114817E+03 -0.46339040513E+02  0.17165482604E+03  0.00000000000E+00 0.  1.
<mgrwt>
<rscale>  0 0.27305490E+04</rscale>
<asrwt>0</asrwt>
<pdfrwt beam="1">  1        2 0.57806750E+00 0.27305490E+04</pdfrwt>
<pdfrwt beam="2">  1       -1 0.76319355E-01 0.27305490E+04</pdfrwt>
<totfact> 0.90735932E-01</totfact>
</mgrwt>
</event>
<event>
12    7  0.1611233E-007  0.2353577E+04  0.7818608E-02  0.8457091E-01
          2   -1    0    0  501    0  0.00000000000E+00  0.00000000000E+00  0.25599426393E+04  0.25599426393E+04  0.00000000000E+00 0. -1.
         -3   -1    0    0    0  501 -0.00000000000E+00 -0.00000000000E+00 -0.54096195871E+03  0.54096195871E+03  0.00000000000E+00 0.  1.
         24    2    1    2    0    0 -0.12327103132E+03 -0.45244455253E+03 -0.30340965360E+03  0.56434761182E+03  0.80802158336E+02 0.  0.
        254    2    1    2    0    0  0.12327103132E+03  0.45244455253E+03  0.23223903342E+04  0.25365569862E+04  0.90593744793E+03 0.  0.
         23    2    4    4    0    0  0.43807664335E+03  0.47322516167E+03  0.18498026426E+04  0.19608526376E+04  0.85557295091E+02 0.  0.
         23    2    4    4    0    0 -0.31480561203E+03 -0.20780609137E+02  0.47258769166E+03  0.57570434865E+03  0.92530879533E+02 0.  0.
          2    1    3    3  502    0 -0.15620177002E+02 -0.13599971797E+03 -0.12540088112E+03  0.18564830784E+03  0.00000000000E+00 0. -1.
         -1    1    3    3    0  502 -0.10765085432E+03 -0.31644483456E+03 -0.17800877248E+03  0.37869930398E+03  0.00000000000E+00 0.  1.
         13    1    5    5    0    0  0.18004663408E+03  0.25737353493E+03  0.89847474031E+03  0.95179555888E+03  0.00000000000E+00 0. -1.
        -13    1    5    5    0    0  0.25803000927E+03  0.21585162674E+03  0.95132790227E+03  0.10090570787E+04  0.00000000000E+00 0.  1.
          4    1    6    6  503    0 -0.23581045765E+03  0.12735321246E+02  0.29025421664E+03  0.37418748058E+03  0.00000000000E+00 0. -1.
         -4    1    6    6    0  503 -0.78995154376E+02 -0.33515930383E+02  0.18233347503E+03  0.20151686808E+03  0.00000000000E+00 0.  1.
<mgrwt>
<rscale>  0 0.23535773E+04</rscale>
<asrwt>0</asrwt>
<pdfrwt beam="1">  1        2 0.39383732E+00 0.23535773E+04</pdfrwt>
<pdfrwt beam="2">  1       -3 0.83224918E-01 0.23535773E+04</pdfrwt>
<totfact> 0.24720985E+00</totfact>
</mgrwt>
</event>
<event>
12    7  0.1611233E-007  0.3831075E+04  0.7818608E-02  0.8039519E-01
          2   -1    0    0  501    0  0.00000000000E+00  0.00000000000E+00  0.35500445337E+04  0.35500445337E+04  0.00000000000E+00 0. -1.
         -1   -1    0    0    0  501 -0.00000000000E+00 -0.00000000000E+00 -0.10335881270E+04  0.10335881270E+04  0.00000000000E+00 0.  1.
         24    2    1    2    0    0  0.11086984247E+04 -0.10563516368E+04  0.42981048722E+02  0.15352028390E+04  0.99546014273E+02 0.  0.
        254    2    1    2    0    0 -0.11086984247E+04  0.10563516368E+04  0.24734753579E+04  0.30484298216E+04  0.91090781838E+03 0.  0.
         23    2    4    4    0    0  0.80842117119E+02 -0.58689665528E+02  0.12302592583E+03  0.18649602643E+03  0.98313095294E+02 0.  0.
         23    2    4    4    0    0 -0.11895405418E+04  0.11150413023E+04  0.23504494321E+04  0.28619337952E+04  0.87913074825E+02 0.  0.
          4    1    3    3  502    0  0.16358429246E+03 -0.11077564200E+03 -0.85112677390E+00  0.19756464263E+03  0.00000000000E+00 0. -1.
         -3    1    3    3    0  502  0.94511413225E+03 -0.94557599477E+03  0.43832175495E+02  0.13376381964E+04  0.00000000000E+00 0.  1.
         13    1    5    5    0    0  0.26385182029E+02  0.18566588862E+02  0.72419085674E+02  0.79280640906E+02  0.00000000000E+00 0. -1.
        -13    1    5    5    0    0  0.54456935090E+02 -0.77256254389E+02  0.50606840160E+02  0.10721538552E+03  0.00000000000E+00 0.  1.
          2    1    6    6  503    0 -0.77621450003E+03  0.68227030382E+03  0.14417375401E+04  0.17738683300E+04  0.00000000000E+00 0. -1.
         -2    1    6    6    0  503 -0.41332604180E+03  0.43277099847E+03  0.90871189201E+03  0.10880654652E+04  0.00000000000E+00 0.  1.
<mgrwt>
<rscale>  0 0.38310750E+04</rscale>
<asrwt>0</asrwt>
<pdfrwt beam="1">  1        2 0.54616069E+00 0.38310750E+04</pdfrwt>
<pdfrwt beam="2">  1       -1 0.15901356E+00 0.38310750E+04</pdfrwt>
<totfact> 0.20188039E-01</totfact>
</mgrwt>
</event>
<event>
12    7  0.1611233E-007  0.2087041E+04  0.7818608E-02  0.8566973E-01
          2   -1    0    0  501    0  0.00000000000E+00  0.00000000000E+00  0.81025407569E+03  0.81025407569E+03  0.00000000000E+00 0. -1.
         -1   -1    0    0    0  501 -0.00000000000E+00 -0.00000000000E+00 -0.13439428640E+04  0.13439428640E+04  0.00000000000E+00 0.  1.
         24    2    1    2    0    0 -0.52709118557E+03 -0.63757486814E+03 -0.40209835499E+03  0.92313707005E+03  0.78562921395E+02 0.  0.
        254    2    1    2    0    0  0.52709118557E+03  0.63757486814E+03 -0.13159043336E+03  0.12310598697E+04  0.90214496073E+03 0.  0.
         23    2    4    4    0    0 -0.57011853976E+02  0.62155334700E+03 -0.10383295895E+03  0.63908760673E+03  0.89848600716E+02 0.  0.
         23    2    4    4    0    0  0.58410303955E+03  0.16021521142E+02 -0.27757474408E+02  0.59197226294E+03  0.90706299464E+02 0.  0.
          4    1    3    3  502    0 -0.49732489095E+03 -0.56635334957E+03 -0.36164156066E+03  0.83598611360E+03  0.00000000000E+00 0. -1.
         -3    1    3    3    0  502 -0.29766294619E+02 -0.71221518566E+02 -0.40456794332E+02  0.87150956448E+02  0.00000000000E+00 0.  1.
         13    1    5    5    0    0 -0.76077646043E+02  0.57605766922E+03 -0.10008635128E+03  0.58961642125E+03  0.00000000000E+00 0. -1.
        -13    1    5    5    0    0  0.19065792067E+02  0.45495677779E+02 -0.37466076705E+01  0.49471185480E+02  0.00000000000E+00 0.  1.
          2    1    6    6  503    0  0.23929823485E+03  0.51197688956E+02 -0.13411114880E+02  0.24508102040E+03  0.00000000000E+00 0. -1.
         -2    1    6    6    0  503  0.34480480469E+03 -0.35176167813E+02 -0.14346359528E+02  0.34689124254E+03  0.00000000000E+00 0.  1.
<mgrwt>
<rscale>  0 0.20870411E+04</rscale>
<asrwt>0</asrwt>
<pdfrwt beam="1">  1        2 0.12465447E+00 0.20870411E+04</pdfrwt>
<pdfrwt beam="2">  1       -1 0.20676044E+00 0.20870411E+04</pdfrwt>
<totfact> 0.48212390E+00</totfact>
</mgrwt>
</event>
<event>
12    7  0.1611233E-007  0.3836042E+04  0.7818608E-02  0.8038464E-01
          2   -1    0    0  501    0  0.00000000000E+00  0.00000000000E+00  0.43020744441E+04  0.43020744441E+04  0.00000000000E+00 0. -1.
         -1   -1    0    0    0  501 -0.00000000000E+00 -0.00000000000E+00 -0.85512338954E+03  0.85512338954E+03  0.00000000000E+00 0.  1.
         24    2    1    2    0    0  0.31508041595E+03  0.74359612063E+02  0.40356913324E+04  0.40494472338E+04  0.80083384061E+02 0.  0.
        254    2    1    2    0    0 -0.31508041595E+03 -0.74359612063E+02 -0.58874027780E+03  0.11077505999E+04  0.88073336286E+03 0.  0.
         23    2    4    4    0    0 -0.55239807916E+03 -0.75416827649E+02 -0.12310732584E+03  0.57729072995E+03  0.85310242387E+02 0.  0.
         23    2    4    4    0    0  0.23731766321E+03  0.10572155857E+01 -0.46563295196E+03  0.53045986995E+03  0.90845124803E+02 0.  0.
          4    1    3    3  502    0  0.28475145018E+03  0.74446281339E+02  0.32898027364E+04  0.33029422764E+04  0.00000000000E+00 0. -1.
         -3    1    3    3    0  502  0.30328965773E+02 -0.86669276329E-01  0.74588859601E+03  0.74650495735E+03  0.00000000000E+00 0.  1.
         13    1    5    5    0    0 -0.82757752320E+02 -0.28649246814E+02 -0.46483313701E+02  0.99147987194E+02  0.00000000000E+00 0. -1.
        -13    1    5    5    0    0 -0.46964032684E+03 -0.46767580835E+02 -0.76624012135E+02  0.47814274275E+03  0.00000000000E+00 0.  1.
          1    1    6    6  503    0  0.13315209731E+03 -0.23521085427E+02 -0.33706878368E+03  0.36317776282E+03  0.00000000000E+00 0. -1.
         -1    1    6    6    0  503  0.10416556590E+03  0.24578301013E+02 -0.12856416829E+03  0.16728210713E+03  0.00000000000E+00 0.  1.
<mgrwt>
<rscale>  0 0.38360420E+04</rscale>
<asrwt>0</asrwt>
<pdfrwt beam="1">  1        2 0.66185759E+00 0.38360420E+04</pdfrwt>
<pdfrwt beam="2">  1       -1 0.13155745E+00 0.38360420E+04</pdfrwt>
<totfact> 0.83844975E-02</totfact>
</mgrwt>
</event>
<event>
12    7  0.1611233E-007  0.1490781E+04  0.7818608E-02  0.8890607E-01
         -1   -1    0    0    0  501 -0.00000000000E+00  0.00000000000E+00  0.23876917027E+03  0.23876917027E+03  0.00000000000E+00 0.  1.
          2   -1    0    0  501    0  0.00000000000E+00 -0.00000000000E+00 -0.23269628884E+04  0.23269628884E+04  0.00000000000E+00 0. -1.
         24    2    1    2    0    0 -0.21291826840E+03 -0.33688638710E+03 -0.10644452698E+04  0.11393955211E+04  0.79698144484E+02 0.  0.
        254    2    1    2    0    0  0.21291826840E+03  0.33688638710E+03 -0.10237484483E+04  0.14263365375E+04  0.90969687597E+03 0.  0.
         23    2    4    4    0    0  0.27100098602E+03  0.39208442705E+03 -0.10156381688E+03  0.49618275628E+03  0.93329450729E+02 0.  0.
         23    2    4    4    0    0 -0.58082717623E+02 -0.55198039950E+02 -0.92218463137E+03  0.93015378124E+03  0.91329823836E+02 0.  0.
          2    1    3    3  502    0 -0.20936187641E+03 -0.28141320553E+03 -0.92663537093E+03  0.99079710243E+03  0.00000000000E+00 0. -1.
         -1    1    3    3    0  502 -0.35563919870E+01 -0.55473181568E+02 -0.13780989891E+03  0.14859841868E+03  0.00000000000E+00 0.  1.
         13    1    5    5    0    0 -0.66287972354E+01  0.20621186048E+02 -0.11745703579E+01  0.21692253971E+02  0.00000000000E+00 0. -1.
        -13    1    5    5    0    0  0.27762978325E+03  0.37146324100E+03 -0.10038924652E+03  0.47449050231E+03  0.00000000000E+00 0.  1.
          3    1    6    6  503    0 -0.29767529841E+02 -0.33346666942E+01 -0.72870938818E+02  0.78787051975E+02  0.00000000000E+00 0. -1.
         -3    1    6    6    0  503 -0.28315187782E+02 -0.51863373256E+02 -0.84931369255E+03  0.85136672927E+03  0.00000000000E+00 0.  1.
<mgrwt>
<rscale>  0 0.14907810E+04</rscale>
<asrwt>0</asrwt>
<pdfrwt beam="1">  1        2 0.35799431E+00 0.14907810E+04</pdfrwt>
<pdfrwt beam="2">  1       -1 0.36733717E-01 0.14907810E+04</pdfrwt>
<totfact> 0.34336996E+01</totfact>
</mgrwt>
</event>
<event>
12    7  0.1611233E-007  0.1110342E+04  0.7818608E-02  0.9195170E-01
          2   -1    0    0  501    0  0.00000000000E+00  0.00000000000E+00  0.14858886327E+04  0.14858886327E+04  0.00000000000E+00 0. -1.
         -1   -1    0    0    0  501 -0.00000000000E+00 -0.00000000000E+00 -0.20742791053E+03  0.20742791053E+03  0.00000000000E+00 0.  1.
         24    2    1    2    0    0  0.53998853239E+02 -0.39216974968E+02  0.46382245178E+03  0.47518030774E+03  0.78811235358E+02 0.  0.
        254    2    1    2    0    0 -0.53998853239E+02  0.39216974968E+02  0.81463827036E+03  0.12181362355E+04  0.90319794580E+03 0.  0.
         23    2    4    4    0    0  0.35901941167E+03  0.74464690999E+00  0.68048227311E+03  0.77481433386E+03  0.91573115572E+02 0.  0.
         23    2    4    4    0    0 -0.41301826491E+03  0.38472328058E+02  0.13415599726E+03  0.44332190159E+03  0.80450417367E+02 0.  0.
          4    1    3    3  502    0  0.46306150892E+02  0.10635158904E+02  0.30089775127E+03  0.30462570958E+03  0.00000000000E+00 0. -1.
         -3    1    3    3    0  502  0.76927023479E+01 -0.49852133873E+02  0.16292470051E+03  0.17055459817E+03  0.00000000000E+00 0.  1.
         13    1    5    5    0    0  0.30802554969E+03  0.18270563890E+02  0.62727135234E+03  0.69905858284E+03  0.00000000000E+00 0.  1.
        -13    1    5    5    0    0  0.50993861975E+02 -0.17525916980E+02  0.53210920764E+02  0.75755751027E+02  0.00000000000E+00 0. -1.
          1    1    6    6  503    0 -0.24724275177E+03  0.18686955281E+02  0.38532076692E+02  0.25092409517E+03  0.00000000000E+00 0. -1.
         -1    1    6    6    0  503 -0.16577551314E+03  0.19785372777E+02  0.95623920566E+02  0.19239780642E+03  0.00000000000E+00 0.  1.
<mgrwt>
<rscale>  0 0.11103419E+04</rscale>
<asrwt>0</asrwt>
<pdfrwt beam="1">  1        2 0.22859824E+00 0.11103419E+04</pdfrwt>
<pdfrwt beam="2">  1       -1 0.31911987E-01 0.11103419E+04</pdfrwt>
<totfact> 0.13364966E+02</totfact>
</mgrwt>
</event>
<event>
12    7  0.1611233E-007  0.1994846E+04  0.7818608E-02  0.8609034E-01
          2   -1    0    0  501    0  0.00000000000E+00  0.00000000000E+00  0.19945157211E+04  0.19945157211E+04  0.00000000000E+00 0. -1.
         -1   -1    0    0    0  501 -0.00000000000E+00 -0.00000000000E+00 -0.49879426034E+03  0.49879426034E+03  0.00000000000E+00 0.  1.
         24    2    1    2    0    0  0.60607598271E+02  0.62575080177E+03  0.12106463095E+04  0.13664394464E+04  0.79088097501E+02 0.  0.
        254    2    1    2    0    0 -0.60607598271E+02 -0.62575080177E+03  0.28507515129E+03  0.11268705350E+04  0.89069187375E+03 0.  0.
         23    2    4    4    0    0 -0.22294204804E+03 -0.34732288076E+03 -0.25307953728E+03  0.49277171673E+03  0.91860613645E+02 0.  0.
         23    2    4    4    0    0  0.16233444977E+03 -0.27842792101E+03  0.53815468857E+03  0.63409881830E+03  0.92716027586E+02 0.  0.
          4    1    3    3  502    0 -0.13713438176E+02  0.10130506080E+03  0.16094450393E+03  0.19066700574E+03  0.00000000000E+00 0. -1.
         -3    1    3    3    0  502  0.74321036447E+02  0.52444574097E+03  0.10497018056E+04  0.11757724407E+04  0.00000000000E+00 0.  1.
         13    1    5    5    0    0 -0.17338187882E+03 -0.19205746752E+03 -0.13788415527E+03  0.29318831322E+03  0.00000000000E+00 0. -1.
        -13    1    5    5    0    0 -0.49560169215E+02 -0.15526541324E+03 -0.11519538201E+03  0.19958340351E+03  0.00000000000E+00 0.  1.
          2    1    6    6  503    0  0.13721217367E+03 -0.15011711011E+03  0.35375331409E+03  0.40804869143E+03  0.00000000000E+00 0. -1.
         -2    1    6    6    0  503  0.25122276099E+02 -0.12831081090E+03  0.18440137447E+03  0.22605012687E+03  0.00000000000E+00 0.  1.
<mgrwt>
<rscale>  0 0.19948464E+04</rscale>
<asrwt>0</asrwt>
<pdfrwt beam="1">  1        2 0.30684857E+00 0.19948464E+04</pdfrwt>
<pdfrwt beam="2">  1       -1 0.76737580E-01 0.19948464E+04</pdfrwt>
<totfact> 0.12131425E+01</totfact>
</mgrwt>
</event>
<event>
12    7  0.1876094E-007  0.1666396E+04  0.7818608E-02  0.8780765E-01
         -1   -1    0    0    0  501 -0.00000000000E+00  0.00000000000E+00  0.31169383722E+03  0.31169383722E+03  0.00000000000E+00 0.  1.
          2   -1    0    0  501    0  0.00000000000E+00 -0.00000000000E+00 -0.22272467031E+04  0.22272467031E+04  0.00000000000E+00 0. -1.
         24    2    1    2    0    0 -0.22311974801E+03 -0.38793974892E+03 -0.96066131124E+02  0.46436004481E+03  0.78242436822E+02 0.  0.
        254    2    1    2    0    0  0.22311974801E+03  0.38793974892E+03 -0.18194867347E+04  0.20745804955E+04  0.89054622767E+03 0.  0.
         23    2    4    4    0    0 -0.29750756530E+03  0.34414904987E+03 -0.92261523467E+03  0.10326239965E+04  0.90244817092E+02 0.  0.
         23    2    4    4    0    0  0.52062731331E+03  0.43790699055E+02 -0.89687150007E+03  0.10419564990E+04  0.91238333058E+02 0.  0.
          2    1    3    3  502    0  0.33553858725E+00 -0.34187512820E+01 -0.11051339460E+02  0.11572923154E+02  0.00000000000E+00 0. -1.
         -1    1    3    3    0  502 -0.22345528660E+03 -0.38452099764E+03 -0.85014791664E+02  0.45278712166E+03  0.00000000000E+00 0.  1.
         13    1    5    5    0    0 -0.67922440242E+01  0.23051602730E+02 -0.19282463700E+02  0.30811107959E+02  0.00000000000E+00 0.  1.
        -13    1    5    5    0    0 -0.29071532127E+03  0.32109744714E+03 -0.90333277097E+03  0.10018128886E+04  0.00000000000E+00 0. -1.
          1    1    6    6  503    0  0.35836647100E+03  0.27185621118E+02 -0.52888118804E+03  0.63943795367E+03  0.00000000000E+00 0. -1.
         -1    1    6    6    0  503  0.16226084230E+03  0.16605077937E+02 -0.36799031203E+03  0.40251854530E+03  0.00000000000E+00 0.  1.
<mgrwt>
<rscale>  0 0.16663962E+04</rscale>
<asrwt>0</asrwt>
<pdfrwt beam="1">  1        2 0.34265334E+00 0.16663962E+04</pdfrwt>
<pdfrwt beam="2">  1       -1 0.47952898E-01 0.16663962E+04</pdfrwt>
<totfact> 0.23550176E+01</totfact>
</mgrwt>
</event>
<event>
12    7  0.1611233E-007  0.1653771E+04  0.7818608E-02  0.8788179E-01
         -1   -1    0    0    0  501 -0.00000000000E+00  0.00000000000E+00  0.19932972406E+03  0.19932972406E+03  0.00000000000E+00 0.  1.
          2   -1    0    0  501    0  0.00000000000E+00 -0.00000000000E+00 -0.34301924819E+04  0.34301924819E+04  0.00000000000E+00 0. -1.
         24    2    1    2    0    0 -0.27220892378E+03 -0.27454323105E+03 -0.18061370603E+04  0.18488035965E+04  0.80448577983E+02 0.  0.
        254    2    1    2    0    0  0.27220892378E+03  0.27454323105E+03 -0.14247256975E+04  0.17807186094E+04  0.99581311956E+03 0.  0.
         23    2    4    4    0    0  0.58598196724E+02 -0.68106174832E+02 -0.13555319809E+04  0.13613942268E+04  0.88628943613E+02 0.  0.
         23    2    4    4    0    0  0.21361072706E+03  0.34264940588E+03 -0.69193716554E+02  0.41932438269E+03  0.89481894498E+02 0.  0.
          4    1    3    3  502    0 -0.27249478778E+03 -0.25023333651E+03 -0.17174174917E+04  0.17568133006E+04  0.00000000000E+00 0. -1.
         -3    1    3    3    0  502  0.28586399707E+00 -0.24309894547E+02 -0.88719568597E+02  0.91990295919E+02  0.00000000000E+00 0.  1.
         13    1    5    5    0    0  0.36126957807E+02 -0.88663971347E+02 -0.10338286671E+04  0.10382524596E+04  0.00000000000E+00 0. -1.
        -13    1    5    5    0    0  0.22471238918E+02  0.20557796516E+02 -0.32170331378E+03  0.32314176714E+03  0.00000000000E+00 0.  1.
          3    1    6    6  503    0  0.44229875808E+02  0.91590776505E+02 -0.56170953175E+02  0.11619091288E+03  0.00000000000E+00 0. -1.
         -3    1    6    6    0  503  0.16938085125E+03  0.25105862938E+03 -0.13022763379E+02  0.30313346982E+03  0.00000000000E+00 0.  1.
<mgrwt>
<rscale>  0 0.16537706E+04</rscale>
<asrwt>0</asrwt>
<pdfrwt beam="1">  1        2 0.52772195E+00 0.16537706E+04</pdfrwt>
<pdfrwt beam="2">  1       -1 0.30666110E-01 0.16537706E+04</pdfrwt>
<totfact> 0.97995431E+00</totfact>
</mgrwt>
</event>
<event>
12    7  0.1611233E-007  0.1776413E+04  0.7818608E-02  0.8718944E-01
         -1   -1    0    0    0  501 -0.00000000000E+00  0.00000000000E+00  0.30523473792E+03  0.30523473792E+03  0.00000000000E+00 0.  1.
          2   -1    0    0  501    0  0.00000000000E+00 -0.00000000000E+00 -0.25846043658E+04  0.25846043658E+04  0.00000000000E+00 0. -1.
         24    2    1    2    0    0 -0.22093086820E+03 -0.40643508290E+03 -0.93847845461E+02  0.47864785284E+03  0.79350008125E+02 0.  0.
        254    2    1    2    0    0  0.22093086820E+03  0.40643508290E+03 -0.21855217824E+04  0.24111912509E+04  0.90737966794E+03 0.  0.
         23    2    4    4    0    0  0.48411092826E+03  0.84285762032E+02 -0.66362223345E+03  0.83081026961E+03  0.91562846250E+02 0.  0.
         23    2    4    4    0    0 -0.26318006006E+03  0.32214932087E+03 -0.15218995490E+04  0.15803809813E+04  0.91552607283E+02 0.  0.
          2    1    3    3  502    0 -0.25167036354E+02 -0.32477292073E+02  0.13255026388E+02  0.43172328450E+02  0.00000000000E+00 0. -1.
         -1    1    3    3    0  502 -0.19576383184E+03 -0.37395779083E+03 -0.10710287185E+03  0.43547552439E+03  0.00000000000E+00 0.  1.
         13    1    5    5    0    0  0.55230930938E+02  0.26260587674E+02 -0.13061511424E+03  0.14422337628E+03  0.00000000000E+00 0.  1.
        -13    1    5    5    0    0  0.42887999732E+03  0.58025174358E+02 -0.53300711921E+03  0.68658689333E+03  0.00000000000E+00 0. -1.
          2    1    6    6  503    0 -0.21560107528E+03  0.19977112015E+03 -0.10087384285E+04  0.10506881275E+04  0.00000000000E+00 0. -1.
         -2    1    6    6    0  503 -0.47578984785E+02  0.12237820072E+03 -0.51316112040E+03  0.52969285373E+03  0.00000000000E+00 0.  1.
<mgrwt>
<rscale>  0 0.17764133E+04</rscale>
<asrwt>0</asrwt>
<pdfrwt beam="1">  1        2 0.39763144E+00 0.17764133E+04</pdfrwt>
<pdfrwt beam="2">  1       -1 0.46959191E-01 0.17764133E+04</pdfrwt>
<totfact> 0.15152973E+01</totfact>
</mgrwt>
</event>
<event>
12    7  0.1611233E-007  0.1547790E+04  0.7818608E-02  0.8853280E-01
          2   -1    0    0  501    0  0.00000000000E+00  0.00000000000E+00  0.58910045852E+03  0.58910045852E+03  0.00000000000E+00 0. -1.
         -1   -1    0    0    0  501 -0.00000000000E+00 -0.00000000000E+00 -0.10166579637E+04  0.10166579637E+04  0.00000000000E+00 0.  1.
         24    2    1    2    0    0  0.86991384789E+02  0.12905883951E+02  0.38818568563E+03  0.40591027173E+03  0.79630140665E+02 0.  0.
        254    2    1    2    0    0 -0.86991384789E+02 -0.12905883951E+02 -0.81574319077E+03  0.11998481505E+04  0.87547962170E+03 0.  0.
         23    2    4    4    0    0  0.36593890511E+03 -0.12556047758E+03 -0.30252324740E+03  0.50024056492E+03  0.95097801062E+02 0.  0.
         23    2    4    4    0    0 -0.45293028990E+03  0.11265459363E+03 -0.51321994337E+03  0.69960758554E+03  0.90659574754E+02 0.  0.
          2    1    3    3  502    0  0.92311995418E+02  0.10205287769E+02  0.23613801239E+03  0.25374556803E+03  0.00000000000E+00 0. -1.
         -1    1    3    3    0  502 -0.53206106290E+01  0.27005961823E+01  0.15204767323E+03  0.15216470370E+03  0.00000000000E+00 0.  1.
         13    1    5    5    0    0  0.23021176013E+03 -0.10949925827E+03 -0.15146324238E+03  0.29652766457E+03  0.00000000000E+00 0. -1.
        -13    1    5    5    0    0  0.13572714499E+03 -0.16061219309E+02 -0.15106000502E+03  0.20371290035E+03  0.00000000000E+00 0.  1.
          4    1    6    6  503    0 -0.11675516278E+03  0.17958029972E+02 -0.77908525500E+02  0.14150617379E+03  0.00000000000E+00 0.  1.
         -4    1    6    6    0  503 -0.33617512712E+03  0.94696563658E+02 -0.43531141787E+03  0.55810141174E+03  0.00000000000E+00 0. -1.
<mgrwt>
<rscale>  0 0.15477903E+04</rscale>
<asrwt>0</asrwt>
<pdfrwt beam="1">  1        2 0.90630840E-01 0.15477903E+04</pdfrwt>
<pdfrwt beam="2">  1       -1 0.15640892E+00 0.15477903E+04</pdfrwt>
<totfact> 0.17363850E+01</totfact>
</mgrwt>
</event>
<event>
12    7  0.1611233E-007  0.3882657E+04  0.7818608E-02  0.8028646E-01
          2   -1    0    0  501    0  0.00000000000E+00  0.00000000000E+00  0.23045333297E+04  0.23045333297E+04  0.00000000000E+00 0. -1.
         -1   -1    0    0    0  501 -0.00000000000E+00 -0.00000000000E+00 -0.16353660112E+04  0.16353660112E+04  0.00000000000E+00 0.  1.
         24    2    1    2    0    0  0.17669454482E+04 -0.48597327611E+03  0.26142808930E+03  0.18531935001E+04  0.87836557688E+02 0.  0.
        254    2    1    2    0    0 -0.17669454482E+04  0.48597327611E+03  0.40773922926E+03  0.20867058408E+04  0.91094662026E+03 0.  0.
         23    2    4    4    0    0 -0.44247598347E+03 -0.20245761731E+03 -0.10390655894E+03  0.50605705238E+03  0.92320553043E+02 0.  0.
         23    2    4    4    0    0 -0.13244694647E+04  0.68843089342E+03  0.51164578820E+03  0.15806487884E+04  0.92264412219E+02 0.  0.
          2    1    3    3  502    0  0.34231535082E+02  0.14879926224E+01  0.10329179791E+02  0.35786925982E+02  0.00000000000E+00 0. -1.
         -1    1    3    3    0  502  0.17327139131E+04 -0.48746126874E+03  0.25109890951E+03  0.18174065741E+04  0.00000000000E+00 0.  1.
         13    1    5    5    0    0 -0.26973519155E+03 -0.12012143179E+03 -0.10867670643E+03  0.31463766218E+03  0.00000000000E+00 0.  1.
        -13    1    5    5    0    0 -0.17274079192E+03 -0.82336185516E+02  0.47701474944E+01  0.19141939020E+03  0.00000000000E+00 0. -1.
          1    1    6    6  503    0 -0.84247304797E+03  0.46771393200E+03  0.29252258013E+03  0.10070186784E+04  0.00000000000E+00 0. -1.
         -1    1    6    6    0  503 -0.48199641678E+03  0.22071696143E+03  0.21912320806E+03  0.57363011005E+03  0.00000000000E+00 0.  1.
<mgrwt>
<rscale>  0 0.38826566E+04</rscale>
<asrwt>0</asrwt>
<pdfrwt beam="1">  1        2 0.35454359E+00 0.38826566E+04</pdfrwt>
<pdfrwt beam="2">  1       -1 0.25159477E+00 0.38826566E+04</pdfrwt>
<totfact> 0.27777652E-01</totfact>
</mgrwt>
</event>
<event>
12    7  0.1611233E-007  0.1706973E+04  0.7818608E-02  0.8757397E-01
         -1   -1    0    0    0  501 -0.00000000000E+00  0.00000000000E+00  0.23405841754E+03  0.23405841754E+03  0.00000000000E+00 0.  1.
          2   -1    0    0  501    0  0.00000000000E+00 -0.00000000000E+00 -0.31122104720E+04  0.31122104720E+04  0.00000000000E+00 0. -1.
         24    2    1    2    0    0  0.26923348264E+03  0.21534176937E+03 -0.20142112099E+04  0.20449999160E+04  0.78224757378E+02 0.  0.
        254    2    1    2    0    0 -0.26923348264E+03 -0.21534176937E+03 -0.86394084465E+03  0.13012689736E+04  0.90997165495E+03 0.  0.
         23    2    4    4    0    0 -0.40290384876E+03 -0.22529658783E+02 -0.11149053970E+02  0.41206090282E+03  0.82648589546E+02 0.  0.
         23    2    4    4    0    0  0.13367036612E+03 -0.19281211059E+03 -0.85279179068E+03  0.88920807079E+03  0.91612652740E+02 0.  0.
          4    1    3    3  502    0  0.11565610362E+03  0.66081030276E+02 -0.96546610787E+03  0.97461163666E+03  0.00000000000E+00 0. -1.
         -3    1    3    3    0  502  0.15357737901E+03  0.14926073909E+03 -0.10487451020E+04  0.10703882793E+04  0.00000000000E+00 0.  1.
         13    1    5    5    0    0 -0.47528576539E+02 -0.16097035284E+02 -0.25600960548E+02  0.56333731580E+02  0.00000000000E+00 0.  1.
        -13    1    5    5    0    0 -0.35537527222E+03 -0.64326234993E+01  0.14451906578E+02  0.35572717124E+03  0.00000000000E+00 0. -1.
          2    1    6    6  503    0  0.11697414445E+03 -0.13853632310E+03 -0.49967910454E+03  0.53155852998E+03  0.00000000000E+00 0. -1.
         -2    1    6    6    0  503  0.16696221675E+02 -0.54275787488E+02 -0.35311268614E+03  0.35764954080E+03  0.00000000000E+00 0.  1.
<mgrwt>
<rscale>  0 0.17069728E+04</rscale>
<asrwt>0</asrwt>
<pdfrwt beam="1">  1        2 0.47880160E+00 0.17069728E+04</pdfrwt>
<pdfrwt beam="2">  1       -1 0.36008988E-01 0.17069728E+04</pdfrwt>
<totfact> 0.11867637E+01</totfact>
</mgrwt>
</event>
<event>
12    7  0.1611233E-007  0.1489222E+04  0.7818608E-02  0.8891652E-01
          2   -1    0    0  501    0  0.00000000000E+00  0.00000000000E+00  0.33943245223E+04  0.33943245223E+04  0.00000000000E+00 0. -1.
         -1   -1    0    0    0  501 -0.00000000000E+00 -0.00000000000E+00 -0.16334493320E+03  0.16334493320E+03  0.00000000000E+00 0.  1.
         24    2    1    2    0    0  0.21737235376E+02 -0.23794128179E+03  0.74101714068E+02  0.26269955063E+03  0.80196189996E+02 0.  0.
        254    2    1    2    0    0 -0.21737235376E+02  0.23794128179E+03  0.31568778750E+04  0.32949699049E+04  0.91315945765E+03 0.  0.
         23    2    4    4    0    0 -0.96677270573E+02 -0.30544931131E+03  0.17655123021E+04  0.17966096176E+04  0.90147948569E+02 0.  0.
         23    2    4    4    0    0  0.74940035197E+02  0.54339059310E+03  0.13913655729E+04  0.14983602873E+04  0.91082640854E+02 0.  0.
          2    1    3    3  502    0  0.33975252843E+01 -0.54320495332E+02  0.54672862569E+02  0.77145196173E+02  0.00000000000E+00 0. -1.
         -1    1    3    3    0  502  0.18339710091E+02 -0.18362078646E+03  0.19428851499E+02  0.18555435446E+03  0.00000000000E+00 0.  1.
         13    1    5    5    0    0 -0.47054246924E+02 -0.13919950013E+03  0.57288731548E+03  0.59143087443E+03  0.00000000000E+00 0.  1.
        -13    1    5    5    0    0 -0.49623023650E+02 -0.16624981118E+03  0.11926249866E+04  0.12051787431E+04  0.00000000000E+00 0. -1.
          1    1    6    6  503    0  0.73908607691E+02  0.26463121243E+03  0.61938715062E+03  0.67759324320E+03  0.00000000000E+00 0. -1.
         -1    1    6    6    0  503  0.10314275060E+01  0.27875938067E+03  0.77197842231E+03  0.82076704410E+03  0.00000000000E+00 0.  1.
<mgrwt>
<rscale>  0 0.14892222E+04</rscale>
<asrwt>0</asrwt>
<pdfrwt beam="1">  1        2 0.52220372E+00 0.14892222E+04</pdfrwt>
<pdfrwt beam="2">  1       -1 0.25129992E-01 0.14892222E+04</pdfrwt>
<totfact> 0.14894948E+01</totfact>
</mgrwt>
</event>
<event>
12    7  0.1611233E-007  0.1890072E+04  0.7818608E-02  0.8659814E-01
         -1   -1    0    0    0  501 -0.00000000000E+00  0.00000000000E+00  0.92078513667E+03  0.92078513667E+03  0.00000000000E+00 0.  1.
          2   -1    0    0  501    0  0.00000000000E+00 -0.00000000000E+00 -0.96992566285E+03  0.96992566285E+03  0.00000000000E+00 0. -1.
         24    2    1    2    0    0  0.61206322790E+03 -0.34569851977E+03  0.16115490030E+03  0.72545513610E+03  0.78647257299E+02 0.  0.
        254    2    1    2    0    0 -0.61206322790E+03  0.34569851977E+03 -0.21029542648E+03  0.11652556634E+04  0.90524457093E+03 0.  0.
         23    2    4    4    0    0  0.21071453119E+03  0.66510427110E+02  0.67938300404E+02  0.24842821479E+03  0.90976451200E+02 0.  0.
         23    2    4    4    0    0 -0.82277775909E+03  0.27918809266E+03 -0.27823372689E+03  0.91682744862E+03  0.90825832341E+02 0.  0.
          2    1    3    3  502    0  0.80657667114E+02 -0.58188827365E+02 -0.24953146086E+01  0.99487815784E+02  0.00000000000E+00 0. -1.
         -1    1    3    3    0  502  0.53140556079E+03 -0.28750969241E+03  0.16365021491E+03  0.62596732032E+03  0.00000000000E+00 0.  1.
         13    1    5    5    0    0  0.11715351719E+03  0.24106503304E+02 -0.92096456827E+01  0.11996202593E+03  0.00000000000E+00 0. -1.
        -13    1    5    5    0    0  0.93561014001E+02  0.42403923806E+02  0.77147946086E+02  0.12846618886E+03  0.00000000000E+00 0.  1.
          2    1    6    6  503    0 -0.11365744056E+02  0.17634442656E+02 -0.86577100529E+01  0.22696027165E+02  0.00000000000E+00 0.  1.
         -2    1    6    6    0  503 -0.81141201504E+03  0.26155365001E+03 -0.26957601683E+03  0.89413142145E+03  0.00000000000E+00 0. -1.
<mgrwt>
<rscale>  0 0.18900721E+04</rscale>
<asrwt>0</asrwt>
<pdfrwt beam="1">  1        2 0.14921933E+00 0.18900721E+04</pdfrwt>
<pdfrwt beam="2">  1       -1 0.14165925E+00 0.18900721E+04</pdfrwt>
<totfact> 0.11449793E+01</totfact>
</mgrwt>
</event>
<event>
12    7  0.1611233E-007  0.1752010E+04  0.7818608E-02  0.8732245E-01
         -1   -1    0    0    0  501 -0.00000000000E+00  0.00000000000E+00  0.43370186387E+03  0.43370186387E+03  0.00000000000E+00 0.  1.
          2   -1    0    0  501    0  0.00000000000E+00 -0.00000000000E+00 -0.17693833570E+04  0.17693833570E+04  0.00000000000E+00 0. -1.
         24    2    1    2    0    0 -0.30174073631E+03 -0.49749482558E+03 -0.15256011122E+03  0.60649415847E+03  0.77537109162E+02 0.  0.
        254    2    1    2    0    0  0.30174073631E+03  0.49749482558E+03 -0.11831213819E+04  0.15965910624E+04  0.90043225330E+03 0.  0.
         23    2    4    4    0    0 -0.15358055560E+02  0.41997438577E+03 -0.74436216110E+02  0.43643906155E+03  0.91235681635E+02 0.  0.
         23    2    4    4    0    0  0.31709879187E+03  0.77520439816E+02 -0.11086851658E+04  0.11601520009E+04  0.10103863526E+03 0.  0.
          2    1    3    3  502    0 -0.55058834853E+02 -0.44789091890E+02 -0.10675632502E+02  0.71774000703E+02  0.00000000000E+00 0. -1.
         -1    1    3    3    0  502 -0.24668190145E+03 -0.45270573369E+03 -0.14188447872E+03  0.53472015777E+03  0.00000000000E+00 0.  1.
         13    1    5    5    0    0 -0.27364900070E+01  0.37870868734E+03 -0.92188474994E+02  0.38977746621E+03  0.00000000000E+00 0. -1.
        -13    1    5    5    0    0 -0.12621565553E+02  0.41265698425E+02  0.17752258884E+02  0.46661595333E+02  0.00000000000E+00 0.  1.
          3    1    6    6  503    0  0.32311791063E+03  0.75356358137E+02 -0.11021498856E+04  0.11510074436E+04  0.00000000000E+00 0. -1.
         -3    1    6    6    0  503 -0.60191187596E+01  0.21640816799E+01 -0.65352802135E+01  0.91445572681E+01  0.00000000000E+00 0.  1.
<mgrwt>
<rscale>  0 0.17520101E+04</rscale>
<asrwt>0</asrwt>
<pdfrwt beam="1">  1        2 0.27221282E+00 0.17520101E+04</pdfrwt>
<pdfrwt beam="2">  1       -1 0.66723364E-01 0.17520101E+04</pdfrwt>
<totfact> 0.22042482E+01</totfact>
</mgrwt>
</event>
<event>
12    7  0.1611233E-007  0.1300257E+04  0.7818608E-02  0.9029361E-01
          2   -1    0    0  501    0  0.00000000000E+00  0.00000000000E+00  0.68000662205E+03  0.68000662205E+03  0.00000000000E+00 0. -1.
         -1   -1    0    0    0  501 -0.00000000000E+00 -0.00000000000E+00 -0.62156306191E+03  0.62156306191E+03  0.00000000000E+00 0.  1.
         24    2    1    2    0    0 -0.91759564622E+02 -0.33934893781E+03  0.32009316601E+02  0.36182678679E+03  0.79476461906E+02 0.  0.
        254    2    1    2    0    0  0.91759564622E+02  0.33934893781E+03  0.26434243535E+02  0.93974289717E+03  0.87111447253E+03 0.  0.
         23    2    4    4    0    0  0.30088441840E+02  0.62180536649E+03 -0.34979256525E+02  0.63003437300E+03  0.90402072116E+02 0.  0.
         23    2    4    4    0    0  0.61671122783E+02 -0.28245642868E+03  0.61413500060E+02  0.30970852417E+03  0.92535347111E+02 0.  0.
          4    1    3    3  502    0 -0.63958985028E+02 -0.18526917209E+03 -0.19591074367E+02  0.19697519663E+03  0.00000000000E+00 0. -1.
         -3    1    3    3    0  502 -0.27800579595E+02 -0.15407976572E+03  0.51600390968E+02  0.16485159016E+03  0.00000000000E+00 0.  1.
         13    1    5    5    0    0  0.54270408635E+02  0.40177752107E+03  0.30551053402E+01  0.40543777248E+03  0.00000000000E+00 0.  1.
        -13    1    5    5    0    0 -0.24181966796E+02  0.22002784543E+03 -0.38034361865E+02  0.22459660052E+03  0.00000000000E+00 0. -1.
          1    1    6    6  503    0  0.19356681419E+02 -0.47240142245E+02 -0.23338636488E+02  0.56133805394E+02  0.00000000000E+00 0. -1.
         -1    1    6    6    0  503  0.42314441364E+02 -0.23521628643E+03  0.84752136547E+02  0.25357471877E+03  0.00000000000E+00 0.  1.
<mgrwt>
<rscale>  0 0.13002569E+04</rscale>
<asrwt>0</asrwt>
<pdfrwt beam="1">  1        2 0.10461640E+00 0.13002569E+04</pdfrwt>
<pdfrwt beam="2">  1       -1 0.95625086E-01 0.13002569E+04</pdfrwt>
<totfact> 0.50231624E+01</totfact>
</mgrwt>
</event>
<event>
12    7  0.1611233E-007  0.1291466E+04  0.7818608E-02  0.9036360E-01
          2   -1    0    0  501    0  0.00000000000E+00  0.00000000000E+00  0.75081682407E+03  0.75081682407E+03  0.00000000000E+00 0. -1.
         -1   -1    0    0    0  501 -0.00000000000E+00 -0.00000000000E+00 -0.55535687835E+03  0.55535687835E+03  0.00000000000E+00 0.  1.
         24    2    1    2    0    0 -0.20574158815E+03  0.12406904268E+03  0.27245827693E+03  0.37327369229E+03  0.85889511817E+02 0.  0.
        254    2    1    2    0    0  0.20574158815E+03 -0.12406904268E+03 -0.76998331209E+02  0.93290001014E+03  0.89813749363E+03 0.  0.
         23    2    4    4    0    0 -0.34501957778E+02 -0.44805180175E+03  0.12127406519E+03  0.47439581404E+03  0.91668900640E+02 0.  0.
         23    2    4    4    0    0  0.24024354593E+03  0.32398275907E+03 -0.19827239640E+03  0.45850419611E+03  0.90732381964E+02 0.  0.
          2    1    3    3  502    0 -0.82281220348E+02  0.47440921755E+01  0.10443453198E+03  0.13303863012E+03  0.00000000000E+00 0. -1.
         -1    1    3    3    0  502 -0.12346036780E+03  0.11932495050E+03  0.16802374495E+03  0.24023506217E+03  0.00000000000E+00 0.  1.
         13    1    5    5    0    0 -0.55638977794E+02 -0.30807565826E+03  0.54085012519E+02  0.31769717601E+03  0.00000000000E+00 0. -1.
        -13    1    5    5    0    0  0.21137020017E+02 -0.13997614349E+03  0.67189052673E+02  0.15669863803E+03  0.00000000000E+00 0.  1.
          2    1    6    6  503    0  0.18090686170E+03  0.25813758200E+03 -0.11120728767E+03  0.33425942722E+03  0.00000000000E+00 0. -1.
         -2    1    6    6    0  503  0.59336684229E+02  0.65845177069E+02 -0.87065108727E+02  0.12424476889E+03  0.00000000000E+00 0.  1.
<mgrwt>
<rscale>  0 0.12914663E+04</rscale>
<asrwt>0</asrwt>
<pdfrwt beam="1">  1        2 0.11551028E+00 0.12914663E+04</pdfrwt>
<pdfrwt beam="2">  1       -1 0.85439520E-01 0.12914663E+04</pdfrwt>
<totfact> 0.56804790E+01</totfact>
</mgrwt>
</event>
<event>
12    7  0.1611233E-007  0.4147510E+04  0.7818608E-02  0.7975433E-01
          2   -1    0    0  501    0  0.00000000000E+00  0.00000000000E+00  0.26003894455E+04  0.26003894455E+04  0.00000000000E+00 0. -1.
         -1   -1    0    0    0  501 -0.00000000000E+00 -0.00000000000E+00 -0.16537756343E+04  0.16537756343E+04  0.00000000000E+00 0.  1.
         24    2    1    2    0    0  0.63394498951E+02 -0.96912836469E+03 -0.13072414101E+04  0.16302070872E+04  0.73935060366E+02 0.  0.
        254    2    1    2    0    0 -0.63394498951E+02  0.96912836469E+03  0.22538552213E+04  0.26239579926E+04  0.92847376851E+03 0.  0.
         23    2    4    4    0    0 -0.87996511145E+02  0.35638359933E+03  0.11250706151E+03  0.39460399409E+03  0.91114309575E+02 0.  0.
         23    2    4    4    0    0  0.24602012195E+02  0.61274476536E+03  0.21413481598E+04  0.22293539986E+04  0.92660147666E+02 0.  0.
          4    1    3    3  502    0  0.47749322358E+02 -0.44867876108E+03 -0.66062198472E+03  0.80000877190E+03  0.00000000000E+00 0. -1.
         -3    1    3    3    0  502  0.15645176592E+02 -0.52044960361E+03 -0.64661942537E+03  0.83019831529E+03  0.00000000000E+00 0.  1.
         13    1    5    5    0    0 -0.17390201628E+02  0.40913913045E+02  0.47122689930E+02  0.64783603632E+02  0.00000000000E+00 0. -1.
        -13    1    5    5    0    0 -0.70606309517E+02  0.31546968629E+03  0.65384371582E+02  0.32982039045E+03  0.00000000000E+00 0.  1.
          3    1    6    6  503    0 -0.17316685063E+02  0.33374074692E+02  0.95415312495E+02  0.10255622020E+03  0.00000000000E+00 0. -1.
         -3    1    6    6    0  503  0.41918697257E+02  0.57937069067E+03  0.20459328473E+04  0.21267977784E+04  0.00000000000E+00 0.  1.
<mgrwt>
<rscale>  0 0.41475104E+04</rscale>
<asrwt>0</asrwt>
<pdfrwt beam="1">  1        2 0.40005991E+00 0.41475104E+04</pdfrwt>
<pdfrwt beam="2">  1       -1 0.25442702E+00 0.41475104E+04</pdfrwt>
<totfact> 0.17577509E-01</totfact>
</mgrwt>
</event>
<event>
12    7  0.1611233E-007  0.1827304E+04  0.7818608E-02  0.8691913E-01
          2   -1    0    0  501    0  0.00000000000E+00  0.00000000000E+00  0.86016167715E+03  0.86016167715E+03  0.00000000000E+00 0. -1.
         -1   -1    0    0    0  501 -0.00000000000E+00 -0.00000000000E+00 -0.97046849884E+03  0.97046849884E+03  0.00000000000E+00 0.  1.
         24    2    1    2    0    0  0.22174506100E+02 -0.22943573534E+03 -0.69326571358E+03  0.73490183348E+03  0.79566889191E+02 0.  0.
        254    2    1    2    0    0 -0.22174506100E+02  0.22943573534E+03  0.58295889190E+03  0.10957283425E+04  0.89869186352E+03 0.  0.
         23    2    4    4    0    0 -0.15589699630E+03 -0.31328497507E+03  0.20736653680E+03  0.41709462935E+03  0.92280551538E+02 0.  0.
         23    2    4    4    0    0  0.13372249020E+03  0.54272071041E+03  0.37559235510E+03  0.67863371316E+03  0.83944181018E+02 0.  0.
          4    1    3    3  502    0 -0.21121878168E+02 -0.97606362084E+02 -0.21782085232E+03  0.23962274383E+03  0.00000000000E+00 0. -1.
         -3    1    3    3    0  502  0.43296384267E+02 -0.13182937326E+03 -0.47544486126E+03  0.49527908965E+03  0.00000000000E+00 0.  1.
         13    1    5    5    0    0 -0.14913037892E+03 -0.21813584624E+03  0.13115820935E+03  0.29500100544E+03  0.00000000000E+00 0.  1.
        -13    1    5    5    0    0 -0.67666173810E+01 -0.95149128827E+02  0.76208327445E+02  0.12209362391E+03  0.00000000000E+00 0. -1.
          1    1    6    6  503    0  0.38071181666E+02  0.53680256853E+02  0.30735412743E+02  0.72633672947E+02  0.00000000000E+00 0. -1.
         -1    1    6    6    0  503  0.95651308531E+02  0.48904045356E+03  0.34485694236E+03  0.60600004021E+03  0.00000000000E+00 0.  1.
<mgrwt>
<rscale>  0 0.18273038E+04</rscale>
<asrwt>0</asrwt>
<pdfrwt beam="1">  1        2 0.13233257E+00 0.18273038E+04</pdfrwt>
<pdfrwt beam="2">  1       -1 0.14930284E+00 0.18273038E+04</pdfrwt>
<totfact> 0.11861575E+01</totfact>
</mgrwt>
</event>
<event>
12    7  0.1611233E-007  0.2282658E+04  0.7818608E-02  0.8484790E-01
          2   -1    0    0  501    0  0.00000000000E+00  0.00000000000E+00  0.18478093207E+04  0.18478093207E+04  0.00000000000E+00 0. -1.
         -1   -1    0    0    0  501 -0.00000000000E+00 -0.00000000000E+00 -0.70496038584E+03  0.70496038584E+03  0.00000000000E+00 0.  1.
         24    2    1    2    0    0  0.56910398724E+03 -0.26599976114E+03 -0.33256687939E+03  0.71519090583E+03  0.79133313368E+02 0.  0.
        254    2    1    2    0    0 -0.56910398724E+03  0.26599976114E+03  0.14754158143E+04  0.18375788007E+04  0.89733427588E+03 0.  0.
         23    2    4    4    0    0 -0.44814378857E+03 -0.20896367519E+03  0.36773434320E+03  0.62289464439E+03  0.90942388701E+02 0.  0.
         23    2    4    4    0    0 -0.12096019867E+03  0.47496343633E+03  0.11076814711E+04  0.12146841563E+04  0.90981991514E+02 0.  0.
          4    1    3    3  502    0  0.15804564976E+03 -0.54839197911E+02 -0.54911966291E+02  0.17607126136E+03  0.00000000000E+00 0. -1.
         -1    1    3    3    0  502  0.41105833748E+03 -0.21116056323E+03 -0.27765491310E+03  0.53911964446E+03  0.00000000000E+00 0.  1.
         13    1    5    5    0    0 -0.11310401069E+03 -0.78850818156E+02  0.62608408980E+02  0.15142582882E+03  0.00000000000E+00 0.  1.
        -13    1    5    5    0    0 -0.33503977788E+03 -0.13011285704E+03  0.30512593422E+03  0.47146881558E+03  0.00000000000E+00 0. -1.
          3    1    6    6  503    0 -0.38874949541E+02  0.30506651157E+03  0.62897718493E+03  0.70013508507E+03  0.00000000000E+00 0. -1.
         -3    1    6    6    0  503 -0.82085249133E+02  0.16989692476E+03  0.47870428614E+03  0.51454907126E+03  0.00000000000E+00 0.  1.
<mgrwt>
<rscale>  0 0.22826584E+04</rscale>
<asrwt>0</asrwt>
<pdfrwt beam="1">  1        2 0.28427836E+00 0.22826584E+04</pdfrwt>
<pdfrwt beam="2">  1       -1 0.10845544E+00 0.22826584E+04</pdfrwt>
<totfact> 0.66199367E+00</totfact>
</mgrwt>
</event>
<event>
12    7  0.1611233E-007  0.1210165E+04  0.7818608E-02  0.9104005E-01
         -1   -1    0    0    0  501 -0.00000000000E+00  0.00000000000E+00  0.91891050509E+03  0.91891050509E+03  0.00000000000E+00 0.  1.
          2   -1    0    0  501    0  0.00000000000E+00 -0.00000000000E+00 -0.39843377840E+03  0.39843377840E+03  0.00000000000E+00 0. -1.
         24    2    1    2    0    0  0.82307400352E+02 -0.25029990758E+03  0.13984435679E+03  0.30871521551E+03  0.79524136449E+02 0.  0.
        254    2    1    2    0    0 -0.82307400352E+02  0.25029990758E+03  0.38063236990E+03  0.10086290680E+04  0.89611776227E+03 0.  0.
         23    2    4    4    0    0 -0.41163133686E+03  0.33099340736E+03  0.72529167086E+02  0.54168831555E+03  0.95753631426E+02 0.  0.
         23    2    4    4    0    0  0.32932393651E+03 -0.80693499779E+02  0.30810320281E+03  0.46694075242E+03  0.90224091125E+02 0.  0.
          4    1    3    3  502    0  0.51519317211E+02 -0.54749962478E+02  0.55948104252E+02  0.93712266041E+02  0.00000000000E+00 0. -1.
         -3    1    3    3    0  502  0.30788083141E+02 -0.19554994510E+03  0.83896252535E+02  0.21500294947E+03  0.00000000000E+00 0.  1.
         13    1    5    5    0    0 -0.49337940526E+02  0.83796266618E+02  0.25849159751E+02  0.10061921156E+03  0.00000000000E+00 0. -1.
        -13    1    5    5    0    0 -0.36229339633E+03  0.24719714074E+03  0.46680007335E+02  0.44106910400E+03  0.00000000000E+00 0.  1.
          1    1    6    6  503    0  0.60787735331E+01  0.63833290013E+01 -0.36038211594E+01  0.95229146670E+01  0.00000000000E+00 0. -1.
         -1    1    6    6    0  503  0.32324516297E+03 -0.87076828780E+02  0.31170702397E+03  0.45741783775E+03  0.00000000000E+00 0.  1.
<mgrwt>
<rscale>  0 0.12101653E+04</rscale>
<asrwt>0</asrwt>
<pdfrwt beam="1">  1        2 0.61297505E-01 0.12101653E+04</pdfrwt>
<pdfrwt beam="2">  1       -1 0.14137085E+00 0.12101653E+04</pdfrwt>
<totfact> 0.36837422E+01</totfact>
</mgrwt>
</event>
<event>
12    7  0.1611233E-007  0.1870450E+04  0.7818608E-02  0.8669707E-01
          2   -1    0    0  501    0  0.00000000000E+00  0.00000000000E+00  0.18704837550E+04  0.18704837550E+04  0.00000000000E+00 0. -1.
         -1   -1    0    0    0  501 -0.00000000000E+00 -0.00000000000E+00 -0.46760402555E+03  0.46760402555E+03  0.00000000000E+00 0.  1.
         24    2    1    2    0    0 -0.17209174896E+03  0.32553558274E+03  0.13087731255E+04  0.13617735951E+04  0.77144310298E+02 0.  0.
        254    2    1    2    0    0  0.17209174896E+03 -0.32553558274E+03  0.94106603936E+02  0.97631418542E+03  0.89930214614E+03 0.  0.
         23    2    4    4    0    0  0.33324029652E+03 -0.34057784205E+01  0.37445818533E+03  0.51058731692E+03  0.97055556676E+02 0.  0.
         23    2    4    4    0    0 -0.16114854757E+03 -0.32212980432E+03 -0.28035158139E+03  0.46572686851E+03  0.92563716670E+02 0.  0.
          4    1    3    3  502    0 -0.66902055015E+02  0.12362695218E+03  0.64183877466E+03  0.65705138378E+03  0.00000000000E+00 0. -1.
         -3    1    3    3    0  502 -0.10518969394E+03  0.20190863056E+03  0.66693435081E+03  0.70472221129E+03  0.00000000000E+00 0.  1.
         13    1    5    5    0    0  0.29445051061E+03 -0.33896256995E+02  0.30405561133E+03  0.42461732680E+03  0.00000000000E+00 0. -1.
        -13    1    5    5    0    0  0.38789785912E+02  0.30490478574E+02  0.70402573999E+02  0.85969990116E+02  0.00000000000E+00 0.  1.
          1    1    6    6  503    0 -0.10262045743E+03 -0.18094082599E+03 -0.21604542174E+03  0.29991026166E+03  0.00000000000E+00 0. -1.
         -1    1    6    6    0  503 -0.58528090141E+02 -0.14118897833E+03 -0.64306159654E+02  0.16581660685E+03  0.00000000000E+00 0.  1.
<mgrwt>
<rscale>  0 0.18704499E+04</rscale>
<asrwt>0</asrwt>
<pdfrwt beam="1">  1        2 0.28776673E+00 0.18704499E+04</pdfrwt>
<pdfrwt beam="2">  1       -1 0.71939082E-01 0.18704499E+04</pdfrwt>
<totfact> 0.16438870E+01</totfact>
</mgrwt>
</event>
<event>
12    7  0.1611233E-007  0.1451880E+04  0.7818608E-02  0.8917098E-01
         -1   -1    0    0    0  501 -0.00000000000E+00  0.00000000000E+00  0.31077167575E+03  0.31077167575E+03  0.00000000000E+00 0.  1.
          2   -1    0    0  501    0  0.00000000000E+00 -0.00000000000E+00 -0.16957434174E+04  0.16957434174E+04  0.00000000000E+00 0. -1.
         24    2    1    2    0    0 -0.15276130979E+03 -0.39305496012E+02  0.15002300185E+03  0.23048569263E+03  0.75735154561E+02 0.  0.
        254    2    1    2    0    0  0.15276130979E+03  0.39305496012E+02 -0.15349947435E+04  0.17760294005E+04  0.87931258898E+03 0.  0.
         23    2    4    4    0    0 -0.34445459355E+03  0.57176156104E+02 -0.43684659085E+03  0.56656024527E+03  0.90760606778E+02 0.  0.
         23    2    4    4    0    0  0.49721590335E+03 -0.17870660092E+02 -0.10981481527E+04  0.12094691552E+04  0.96660525920E+02 0.  0.
          4    1    3    3  502    0 -0.88883155419E+02 -0.20509057291E+02  0.13382654714E+03  0.16195796204E+03  0.00000000000E+00 0. -1.
         -3    1    3    3    0  502 -0.63878154372E+02 -0.18796438721E+02  0.16196454710E+02  0.68527730590E+02  0.00000000000E+00 0.  1.
         13    1    5    5    0    0 -0.34421622444E+03  0.66915182944E+02 -0.42042647696E+03  0.54746769166E+03  0.00000000000E+00 0. -1.
        -13    1    5    5    0    0 -0.23836911221E+00 -0.97390268400E+01 -0.16420113883E+02  0.19092553615E+02  0.00000000000E+00 0.  1.
          3    1    6    6  503    0  0.36588918949E+03 -0.41401656272E+02 -0.87738899988E+03  0.95152532979E+03  0.00000000000E+00 0. -1.
         -3    1    6    6    0  503  0.13132671386E+03  0.23530996179E+02 -0.22075915278E+03  0.25794382545E+03  0.00000000000E+00 0.  1.
<mgrwt>
<rscale>  0 0.14518802E+04</rscale>
<asrwt>0</asrwt>
<pdfrwt beam="1">  1        2 0.26088360E+00 0.14518802E+04</pdfrwt>
<pdfrwt beam="2">  1       -1 0.47811027E-01 0.14518802E+04</pdfrwt>
<totfact> 0.47599282E+01</totfact>
</mgrwt>
</event>
<event>
12    7  0.1611233E-007  0.2772806E+04  0.7818608E-02  0.8311761E-01
         -1   -1    0    0    0  501 -0.00000000000E+00  0.00000000000E+00  0.15010385512E+04  0.15010385512E+04  0.00000000000E+00 0.  1.
          2   -1    0    0  501    0  0.00000000000E+00 -0.00000000000E+00 -0.12805222105E+04  0.12805222105E+04  0.00000000000E+00 0. -1.
         24    2    1    2    0    0  0.58048820680E+02  0.10763364230E+04  0.71288994432E+03  0.12946595443E+04  0.77855646410E+02 0.  0.
        254    2    1    2    0    0 -0.58048820680E+02 -0.10763364230E+04 -0.49237360362E+03  0.14869012174E+04  0.89809448481E+03 0.  0.
         23    2    4    4    0    0 -0.59172459726E+01 -0.97948219504E+03 -0.71877047788E+03  0.12183652555E+04  0.91446770306E+02 0.  0.
         23    2    4    4    0    0 -0.52131574708E+02 -0.96854228000E+02  0.22639687426E+03  0.26853596189E+03  0.93581919146E+02 0.  0.
          2    1    3    3  502    0  0.19030331371E+02  0.76402287152E+03  0.53755036620E+03  0.93437331828E+03  0.00000000000E+00 0. -1.
         -1    1    3    3    0  502  0.39018489309E+02  0.31231355152E+03  0.17533957812E+03  0.36028622597E+03  0.00000000000E+00 0.  1.
         13    1    5    5    0    0  0.14263525398E+02 -0.59285951467E+03 -0.48509407353E+03  0.76616063097E+03  0.00000000000E+00 0.  1.
        -13    1    5    5    0    0 -0.20180771370E+02 -0.38662268037E+03 -0.23367640435E+03  0.45220462455E+03  0.00000000000E+00 0. -1.
          2    1    6    6  503    0 -0.24450182768E+02  0.12797950466E+02  0.72338185129E+02  0.77423588145E+02  0.00000000000E+00 0. -1.
         -2    1    6    6    0  503 -0.27681391939E+02 -0.10965217847E+03  0.15405868913E+03  0.19111237374E+03  0.00000000000E+00 0.  1.
<mgrwt>
<rscale>  0 0.27728059E+04</rscale>
<asrwt>0</asrwt>
<pdfrwt beam="1">  1        2 0.19700342E+00 0.27728059E+04</pdfrwt>
<pdfrwt beam="2">  1       -1 0.23092901E+00 0.27728059E+04</pdfrwt>
<totfact> 0.15691561E+00</totfact>
</mgrwt>
</event>
<event>
12    7  0.1611233E-007  0.2175118E+04  0.7818608E-02  0.8528857E-01
         -1   -1    0    0    0  501 -0.00000000000E+00  0.00000000000E+00  0.44681269383E+03  0.44681269383E+03  0.00000000000E+00 0.  1.
          2   -1    0    0  501    0  0.00000000000E+00 -0.00000000000E+00 -0.26471592823E+04  0.26471592823E+04  0.00000000000E+00 0. -1.
         24    2    1    2    0    0  0.30324373561E+03 -0.18781445132E+03  0.27217695486E+03  0.45574033184E+03  0.79924489342E+02 0.  0.
        254    2    1    2    0    0 -0.30324373561E+03  0.18781445132E+03 -0.24725235433E+04  0.26382316443E+04  0.84832924347E+03 0.  0.
         23    2    4    4    0    0 -0.15388928636E+03  0.31036989835E+03 -0.23768837266E+04  0.24038599740E+04  0.94631593770E+02 0.  0.
         23    2    4    4    0    0 -0.14935444925E+03 -0.12255544702E+03 -0.95639816691E+02  0.23437167026E+03  0.91959318054E+02 0.  0.
          4    1    3    3  502    0  0.39269252932E+02 -0.16916191982E+02  0.69563153346E+02  0.81653316408E+02  0.00000000000E+00 0. -1.
         -3    1    3    3    0  502  0.26397448268E+03 -0.17089825934E+03  0.20261380151E+03  0.37408701543E+03  0.00000000000E+00 0.  1.
         13    1    5    5    0    0 -0.14380231073E+03  0.30153293619E+03 -0.20785305353E+04  0.21052055487E+04  0.00000000000E+00 0. -1.
        -13    1    5    5    0    0 -0.10086975622E+02  0.88369621541E+01 -0.29835319135E+03  0.29865442532E+03  0.00000000000E+00 0.  1.
          3    1    6    6  503    0 -0.96059693639E+02 -0.12364854765E+03 -0.50495957649E+02  0.16451829630E+03  0.00000000000E+00 0. -1.
         -3    1    6    6    0  503 -0.53294755616E+02  0.10931006233E+01 -0.45143859042E+02  0.69853373965E+02  0.00000000000E+00 0.  1.
<mgrwt>
<rscale>  0 0.21751178E+04</rscale>
<asrwt>0</asrwt>
<pdfrwt beam="1">  1        2 0.40725527E+00 0.21751178E+04</pdfrwt>
<pdfrwt beam="2">  1       -1 0.68740415E-01 0.21751178E+04</pdfrwt>
<totfact> 0.63741343E+00</totfact>
</mgrwt>
</event>
<event>
12    7  0.1611233E-007  0.2101005E+04  0.7818608E-02  0.8560801E-01
          2   -1    0    0  501    0  0.00000000000E+00  0.00000000000E+00  0.31890496843E+04  0.31890496843E+04  0.00000000000E+00 0. -1.
         -1   -1    0    0    0  501 -0.00000000000E+00 -0.00000000000E+00 -0.34604515604E+03  0.34604515604E+03  0.00000000000E+00 0.  1.
         24    2    1    2    0    0  0.16434923377E+03 -0.64293533924E+03  0.25648455337E+03  0.71610272295E+03  0.81500077425E+02 0.  0.
        254    2    1    2    0    0 -0.16434923377E+03  0.64293533924E+03  0.25865199749E+04  0.28189921174E+04  0.90346801624E+03 0.  0.
         23    2    4    4    0    0 -0.16749073951E+03 -0.54811379849E+02  0.15696233152E+04  0.15820511451E+04  0.90061305364E+02 0.  0.
         23    2    4    4    0    0  0.31415057384E+01  0.69774671909E+03  0.10168966596E+04  0.12369409723E+04  0.95308968793E+02 0.  0.
          4    1    3    3  502    0  0.67231262857E+01 -0.16659859031E+03  0.58107397229E+02  0.17656942072E+03  0.00000000000E+00 0. -1.
         -3    1    3    3    0  502  0.15762610748E+03 -0.47633674892E+03  0.19837715614E+03  0.53953330223E+03  0.00000000000E+00 0.  1.
         13    1    5    5    0    0 -0.19936079282E+02 -0.16330314185E+01  0.55645608297E+03  0.55681548679E+03  0.00000000000E+00 0. -1.
        -13    1    5    5    0    0 -0.14755466022E+03 -0.53178348431E+02  0.10131672323E+04  0.10252356583E+04  0.00000000000E+00 0.  1.
          1    1    6    6  503    0 -0.32060025595E+02  0.21071369172E+03  0.25993633538E+03  0.33614729446E+03  0.00000000000E+00 0. -1.
         -1    1    6    6    0  503  0.35201531333E+02  0.48703302737E+03  0.75696032426E+03  0.90079367786E+03  0.00000000000E+00 0.  1.
<mgrwt>
<rscale>  0 0.21010047E+04</rscale>
<asrwt>0</asrwt>
<pdfrwt beam="1">  1        2 0.49062301E+00 0.21010047E+04</pdfrwt>
<pdfrwt beam="2">  1       -1 0.53237719E-01 0.21010047E+04</pdfrwt>
<totfact> 0.49326600E+00</totfact>
</mgrwt>
</event>
<event>
12    7  0.1611233E-007  0.2826042E+04  0.7818608E-02  0.8295229E-01
          2   -1    0    0  501    0  0.00000000000E+00  0.00000000000E+00  0.18257226577E+04  0.18257226577E+04  0.00000000000E+00 0. -1.
         -1   -1    0    0    0  501 -0.00000000000E+00 -0.00000000000E+00 -0.10936096413E+04  0.10936096413E+04  0.00000000000E+00 0.  1.
         24    2    1    2    0    0  0.25475779486E+03 -0.60230785362E+03 -0.79689339482E+03  0.10337516802E+04  0.76988109820E+02 0.  0.
        254    2    1    2    0    0 -0.25475779486E+03  0.60230785362E+03  0.15290064112E+04  0.18855806188E+04  0.88875045990E+03 0.  0.
         23    2    4    4    0    0 -0.10580603571E+03  0.77222335104E+03  0.14022412209E+04  0.16068843995E+04  0.90957192053E+02 0.  0.
         23    2    4    4    0    0 -0.14895175914E+03 -0.16991549742E+03  0.12676519029E+03  0.27869621927E+03  0.10268527816E+03 0.  0.
          4    1    3    3  502    0  0.11408626055E+02 -0.27385707729E+02 -0.67060636502E+02  0.73329821385E+02  0.00000000000E+00 0. -1.
         -3    1    3    3    0  502  0.24334916880E+03 -0.57492214589E+03 -0.72983275832E+03  0.96042185882E+03  0.00000000000E+00 0.  1.
         13    1    5    5    0    0 -0.59681960873E+00  0.28977764346E+03  0.47686359330E+03  0.55800566795E+03  0.00000000000E+00 0. -1.
        -13    1    5    5    0    0 -0.10520921610E+03  0.48244570757E+03  0.92537762761E+03  0.10488787316E+04  0.00000000000E+00 0.  1.
          1    1    6    6  503    0 -0.31319652692E+01 -0.12784591449E+01 -0.14420040797E+02  0.14811523920E+02  0.00000000000E+00 0. -1.
         -1    1    6    6    0  503 -0.14581979388E+03 -0.16863703827E+03  0.14118523108E+03  0.26388469535E+03  0.00000000000E+00 0.  1.
<mgrwt>
<rscale>  0 0.28260417E+04</rscale>
<asrwt>0</asrwt>
<pdfrwt beam="1">  1        2 0.28088041E+00 0.28260417E+04</pdfrwt>
<pdfrwt beam="2">  1       -1 0.16824764E+00 0.28260417E+04</pdfrwt>
<totfact> 0.20915823E+00</totfact>
</mgrwt>
</event>
<event>
12    7  0.1611233E-007  0.1272143E+04  0.7818608E-02  0.9051952E-01
         -1   -1    0    0    0  501 -0.00000000000E+00  0.00000000000E+00  0.13226038134E+04  0.13226038134E+04  0.00000000000E+00 0.  1.
          2   -1    0    0  501    0  0.00000000000E+00 -0.00000000000E+00 -0.30590208813E+03  0.30590208813E+03  0.00000000000E+00 0. -1.
         24    2    1    2    0    0 -0.18507464623E+03  0.17437054680E+03  0.53932106757E+03  0.60173861028E+03  0.81021163364E+02 0.  0.
        254    2    1    2    0    0  0.18507464623E+03 -0.17437054680E+03  0.47738065770E+03  0.10267672912E+04  0.87275487152E+03 0.  0.
         23    2    4    4    0    0 -0.11635330898E+03  0.19576566057E+03 -0.10405650633E+03  0.26902355736E+03  0.98405444623E+02 0.  0.
         23    2    4    4    0    0  0.30142795521E+03 -0.37013620738E+03  0.58143716402E+03  0.75774373389E+03  0.90811708186E+02 0.  0.
          4    1    3    3  502    0 -0.19502132826E+01  0.18035110338E+02  0.91600607900E+02  0.93379547570E+02  0.00000000000E+00 0. -1.
         -3    1    3    3    0  502 -0.18312443294E+03  0.15633543646E+03  0.44772045967E+03  0.50835906271E+03  0.00000000000E+00 0.  1.
         13    1    5    5    0    0  0.16496577126E+01  0.46537259646E+02 -0.55941856826E+02  0.72786875541E+02  0.00000000000E+00 0.  1.
        -13    1    5    5    0    0 -0.11800296670E+03  0.14922840093E+03 -0.48114649502E+02  0.19623668181E+03  0.00000000000E+00 0. -1.
          4    1    6    6  503    0  0.93553038878E+02 -0.16006859616E+03  0.27815036653E+03  0.33427795764E+03  0.00000000000E+00 0.  1.
         -4    1    6    6    0  503  0.20787491633E+03 -0.21006761121E+03  0.30328679749E+03  0.42346577625E+03  0.00000000000E+00 0. -1.
<mgrwt>
<rscale>  0 0.12721435E+04</rscale>
<asrwt>0</asrwt>
<pdfrwt beam="1">  1        2 0.47061860E-01 0.12721435E+04</pdfrwt>
<pdfrwt beam="2">  1       -1 0.20347751E+00 0.12721435E+04</pdfrwt>
<totfact> 0.17216696E+01</totfact>
</mgrwt>
</event>
<event>
12    7  0.1611233E-007  0.2134868E+04  0.7818608E-02  0.8546037E-01
          2   -1    0    0  501    0  0.00000000000E+00  0.00000000000E+00  0.10668631490E+04  0.10668631490E+04  0.00000000000E+00 0. -1.
         -1   -1    0    0    0  501 -0.00000000000E+00 -0.00000000000E+00 -0.10680054390E+04  0.10680054390E+04  0.00000000000E+00 0.  1.
         24    2    1    2    0    0 -0.61865819428E+03  0.10077958975E+03 -0.61188441238E+03  0.87941495377E+03  0.77933559768E+02 0.  0.
        254    2    1    2    0    0  0.61865819428E+03 -0.10077958975E+03  0.61074212235E+03  0.12554536343E+04  0.90014632188E+03 0.  0.
         23    2    4    4    0    0  0.10764658467E+03 -0.34955702463E+03 -0.49142006668E+02  0.37975689645E+03  0.89568202630E+02 0.  0.
         23    2    4    4    0    0  0.51101160961E+03  0.24877743489E+03  0.65988412902E+03  0.87569673784E+03  0.91513035525E+02 0.  0.
          4    1    3    3  502    0 -0.14003383813E+03  0.47039110483E+02 -0.11308136316E+03  0.18603641695E+03  0.00000000000E+00 0. -1.
         -3    1    3    3    0  502 -0.47862435614E+03  0.53740479263E+02 -0.49880304923E+03  0.69337853682E+03  0.00000000000E+00 0.  1.
         13    1    5    5    0    0 -0.11632047834E+02 -0.82248584510E+01  0.26587187003E+01  0.14492122636E+02  0.00000000000E+00 0. -1.
        -13    1    5    5    0    0  0.11927863250E+03 -0.34133216618E+03 -0.51800725369E+02  0.36526477382E+03  0.00000000000E+00 0.  1.
          3    1    6    6  503    0  0.11376473618E+03  0.16358485912E+02  0.14670639318E+03  0.18636732830E+03  0.00000000000E+00 0. -1.
         -3    1    6    6    0  503  0.39724687342E+03  0.23241894898E+03  0.51317773584E+03  0.68932940954E+03  0.00000000000E+00 0.  1.
<mgrwt>
<rscale>  0 0.21348683E+04</rscale>
<asrwt>0</asrwt>
<pdfrwt beam="1">  1        2 0.16413279E+00 0.21348683E+04</pdfrwt>
<pdfrwt beam="2">  1       -1 0.16430853E+00 0.21348683E+04</pdfrwt>
<totfact> 0.64925417E+00</totfact>
</mgrwt>
</event>
<event>
12    7  0.1611233E-007  0.2272164E+04  0.7818608E-02  0.8488978E-01
          2   -1    0    0  501    0  0.00000000000E+00  0.00000000000E+00  0.27040761386E+04  0.27040761386E+04  0.00000000000E+00 0. -1.
         -1   -1    0    0    0  501 -0.00000000000E+00 -0.00000000000E+00 -0.47730971161E+03  0.47730971161E+03  0.00000000000E+00 0.  1.
         24    2    1    2    0    0  0.34023248738E+03 -0.58329627211E+03  0.18769156974E+04  0.19962988634E+04  0.80024562090E+02 0.  0.
        254    2    1    2    0    0 -0.34023248738E+03  0.58329627211E+03  0.34985072966E+03  0.11850869868E+04  0.90886904820E+03 0.  0.
         23    2    4    4    0    0  0.21533689882E+03  0.97397904112E+02 -0.14275038670E+03  0.29251868285E+03  0.96608359887E+02 0.  0.
         23    2    4    4    0    0 -0.55556938619E+03  0.48589836800E+03  0.49260111636E+03  0.89256830397E+03  0.96269156650E+02 0.  0.
          2    1    3    3  502    0  0.18612446152E+03 -0.27996999750E+03  0.10351360289E+04  0.10883621240E+04  0.00000000000E+00 0. -1.
         -1    1    3    3    0  502  0.15410802585E+03 -0.30332627461E+03  0.84177966846E+03  0.90793673939E+03  0.00000000000E+00 0.  1.
         13    1    5    5    0    0  0.12276753890E+02  0.75641260453E+01 -0.49728330656E+02  0.51776843846E+02  0.00000000000E+00 0. -1.
        -13    1    5    5    0    0  0.20306014493E+03  0.89833778067E+02 -0.93022056041E+02  0.24074183901E+03  0.00000000000E+00 0.  1.
          2    1    6    6  503    0 -0.14314297315E+03  0.72930120961E+02  0.10982460363E+03  0.19460256131E+03  0.00000000000E+00 0. -1.
         -2    1    6    6    0  503 -0.41242641304E+03  0.41296824704E+03  0.38277651273E+03  0.69796574266E+03  0.00000000000E+00 0.  1.
<mgrwt>
<rscale>  0 0.22721636E+04</rscale>
<asrwt>0</asrwt>
<pdfrwt beam="1">  1        2 0.41601170E+00 0.22721636E+04</pdfrwt>
<pdfrwt beam="2">  1       -1 0.73432265E-01 0.22721636E+04</pdfrwt>
<totfact> 0.51027466E+00</totfact>
</mgrwt>
</event>
<event>
12    7  0.1611233E-007  0.1628228E+04  0.7818608E-02  0.8803392E-01
         -1   -1    0    0    0  501 -0.00000000000E+00  0.00000000000E+00  0.30961696093E+03  0.30961696093E+03  0.00000000000E+00 0.  1.
          2   -1    0    0  501    0  0.00000000000E+00 -0.00000000000E+00 -0.21406490621E+04  0.21406490621E+04  0.00000000000E+00 0. -1.
         24    2    1    2    0    0  0.17677258179E+03 -0.52585329595E+03 -0.72666160546E+03  0.91743949821E+03  0.76732714651E+02 0.  0.
        254    2    1    2    0    0 -0.17677258179E+03  0.52585329595E+03 -0.11043704957E+04  0.15328265248E+04  0.90672638036E+03 0.  0.
         23    2    4    4    0    0 -0.46078193693E+03  0.25578447944E+02 -0.59785576803E+03  0.76112681978E+03  0.94383610990E+02 0.  0.
         23    2    4    4    0    0  0.28400935515E+03  0.50027484800E+03 -0.50651472763E+03  0.77169970499E+03  0.89593682947E+02 0.  0.
          2    1    3    3  502    0  0.78541464772E+02 -0.16344506613E+03 -0.28424870242E+03  0.33716520603E+03  0.00000000000E+00 0. -1.
         -1    1    3    3    0  502  0.98231117015E+02 -0.36240822981E+03 -0.44241290305E+03  0.58027429218E+03  0.00000000000E+00 0.  1.
         13    1    5    5    0    0 -0.13432488927E+03 -0.31896287452E+02 -0.14884777042E+03  0.20301775240E+03  0.00000000000E+00 0. -1.
        -13    1    5    5    0    0 -0.32645704767E+03  0.57474735396E+02 -0.44900799761E+03  0.55810906739E+03  0.00000000000E+00 0.  1.
          2    1    6    6  503    0  0.12791924404E+03  0.14308287985E+03 -0.15266515644E+03  0.24524007318E+03  0.00000000000E+00 0. -1.
         -2    1    6    6    0  503  0.15609011111E+03  0.35719196815E+03 -0.35384957120E+03  0.52645963182E+03  0.00000000000E+00 0.  1.
<mgrwt>
<rscale>  0 0.16282276E+04</rscale>
<asrwt>0</asrwt>
<pdfrwt beam="1">  1        2 0.32933061E+00 0.16282276E+04</pdfrwt>
<pdfrwt beam="2">  1       -1 0.47633380E-01 0.16282276E+04</pdfrwt>
<totfact> 0.26755851E+01</totfact>
</mgrwt>
</event>
<event>
12    7  0.2416953E-007  0.2576878E+04  0.7818608E-02  0.8376098E-01
         -1   -1    0    0    0  501 -0.00000000000E+00  0.00000000000E+00  0.11230642563E+04  0.11230642563E+04  0.00000000000E+00 0.  1.
          2   -1    0    0  501    0  0.00000000000E+00 -0.00000000000E+00 -0.14781656477E+04  0.14781656477E+04  0.00000000000E+00 0. -1.
         24    2    1    2    0    0 -0.32570097347E+03  0.65689290726E+03 -0.10290256883E+04  0.12660315102E+04  0.79702585393E+02 0.  0.
        254    2    1    2    0    0  0.32570097347E+03 -0.65689290726E+03  0.67392429688E+03  0.13351983938E+04  0.88937696005E+03 0.  0.
         23    2    4    4    0    0 -0.27140258527E+03 -0.92344769424E+02  0.62544855879E+02  0.30693110998E+03  0.90044031157E+02 0.  0.
         23    2    4    4    0    0  0.59710355875E+03 -0.56454813783E+03  0.61137944100E+03  0.10282672838E+04  0.91112711628E+02 0.  0.
          4    1    3    3  502    0 -0.32300097927E+03  0.65078163774E+03 -0.99888338604E+03  0.12351576383E+04  0.00000000000E+00 0. -1.
         -3    1    3    3    0  502 -0.26999942079E+01  0.61112695128E+01 -0.30142302224E+02  0.30873871916E+02  0.00000000000E+00 0.  1.
         13    1    5    5    0    0 -0.16178723887E+03 -0.25174060110E+02  0.70190872636E+02  0.17814489205E+03  0.00000000000E+00 0.  1.
        -13    1    5    5    0    0 -0.10961534641E+03 -0.67170709314E+02 -0.76460167567E+01  0.12878621793E+03  0.00000000000E+00 0. -1.
          1    1    6    6  503    0  0.33390353406E+03 -0.29671498347E+03  0.38563996197E+03  0.59012670821E+03  0.00000000000E+00 0. -1.
         -1    1    6    6    0  503  0.26320002469E+03 -0.26783315436E+03  0.22573947903E+03  0.43814057557E+03  0.00000000000E+00 0.  1.
<mgrwt>
<rscale>  0 0.25768780E+04</rscale>
<asrwt>0</asrwt>
<pdfrwt beam="1">  1        2 0.22741010E+00 0.25768780E+04</pdfrwt>
<pdfrwt beam="2">  1       -1 0.17277912E+00 0.25768780E+04</pdfrwt>
<totfact> 0.30954006E+00</totfact>
</mgrwt>
</event>
<event>
12    7  0.1611233E-007  0.1700197E+04  0.7818608E-02  0.8761252E-01
         -1   -1    0    0    0  501 -0.00000000000E+00  0.00000000000E+00  0.31286265655E+03  0.31286265655E+03  0.00000000000E+00 0.  1.
          2   -1    0    0  501    0  0.00000000000E+00 -0.00000000000E+00 -0.23098559792E+04  0.23098559792E+04  0.00000000000E+00 0. -1.
         24    2    1    2    0    0  0.36933889063E+03  0.68037137838E+02 -0.14723246899E+04  0.15216542526E+04  0.81556139005E+02 0.  0.
        254    2    1    2    0    0 -0.36933889063E+03 -0.68037137838E+02 -0.52466863271E+03  0.11010643831E+04  0.89220251809E+03 0.  0.
         23    2    4    4    0    0 -0.62037272191E+03 -0.35066173430E+02 -0.54495694921E+03  0.83155510052E+03  0.91727084854E+02 0.  0.
         23    2    4    4    0    0  0.25103383129E+03 -0.32970964408E+02  0.20288316503E+02  0.26950928256E+03  0.90103100145E+02 0.  0.
          4    1    3    3  502    0  0.17937959141E+03 -0.80573536289E+01 -0.70653165166E+03  0.72899172393E+03  0.00000000000E+00 0. -1.
         -3    1    3    3    0  502  0.18995929922E+03  0.76094491467E+02 -0.76579303825E+03  0.79266252871E+03  0.00000000000E+00 0.  1.
         13    1    5    5    0    0 -0.52059855229E+03  0.43893945316E+01 -0.44407932355E+03  0.68428690258E+03  0.00000000000E+00 0. -1.
        -13    1    5    5    0    0 -0.99774169619E+02 -0.39455567962E+02 -0.10087762566E+03  0.14726819794E+03  0.00000000000E+00 0.  1.
          4    1    6    6  503    0  0.18219897775E+03 -0.40452432932E+02 -0.22697693378E+02  0.18801077658E+03  0.00000000000E+00 0. -1.
         -4    1    6    6    0  503  0.68834853535E+02  0.74814685242E+01  0.42986009880E+02  0.81498505985E+02  0.00000000000E+00 0.  1.
<mgrwt>
<rscale>  0 0.17001973E+04</rscale>
<asrwt>0</asrwt>
<pdfrwt beam="1">  1        2 0.35536244E+00 0.17001973E+04</pdfrwt>
<pdfrwt beam="2">  1       -1 0.48132719E-01 0.17001973E+04</pdfrwt>
<totfact> 0.20943680E+01</totfact>
</mgrwt>
</event>
<event>
12    7  0.1611233E-007  0.1512667E+04  0.7818608E-02  0.8876073E-01
          2   -1    0    0  501    0  0.00000000000E+00  0.00000000000E+00  0.22243592344E+04  0.22243592344E+04  0.00000000000E+00 0. -1.
         -1   -1    0    0    0  501 -0.00000000000E+00 -0.00000000000E+00 -0.25717093167E+03  0.25717093167E+03  0.00000000000E+00 0.  1.
         24    2    1    2    0    0 -0.39090882225E+03 -0.10396531092E+03  0.10714760672E+04  0.11479591310E+04  0.78298854695E+02 0.  0.
        254    2    1    2    0    0  0.39090882225E+03  0.10396531092E+03  0.89571223548E+03  0.13335710350E+04  0.90138382697E+03 0.  0.
         23    2    4    4    0    0  0.33116046733E+03  0.29914418247E+03  0.99236479675E+03  0.10919559742E+04  0.91790319981E+02 0.  0.
         23    2    4    4    0    0  0.59748354919E+02 -0.19517887155E+03 -0.96652561269E+02  0.24161506079E+03  0.85857219782E+02 0.  0.
          2    1    3    3  502    0 -0.35923231629E+03 -0.73364471885E+02  0.98239542726E+03  0.10485852270E+04  0.00000000000E+00 0. -1.
         -1    1    3    3    0  502 -0.31676505955E+02 -0.30600839037E+02  0.89080639948E+02  0.99373903983E+02  0.00000000000E+00 0.  1.
         13    1    5    5    0    0  0.14217667065E+03  0.18263356672E+03  0.55933699168E+03  0.60533221922E+03  0.00000000000E+00 0. -1.
        -13    1    5    5    0    0  0.18898379668E+03  0.11651061574E+03  0.43302780507E+03  0.48662375502E+03  0.00000000000E+00 0.  1.
          2    1    6    6  503    0  0.19986809528E+02 -0.37934373177E+01  0.54807549658E+01  0.21068967625E+02  0.00000000000E+00 0. -1.
         -2    1    6    6    0  503  0.39761545391E+02 -0.19138543423E+03 -0.10213331623E+03  0.22054609317E+03  0.00000000000E+00 0.  1.
<mgrwt>
<rscale>  0 0.15126672E+04</rscale>
<asrwt>0</asrwt>
<pdfrwt beam="1">  1        2 0.34220910E+00 0.15126672E+04</pdfrwt>
<pdfrwt beam="2">  1       -1 0.39564760E-01 0.15126672E+04</pdfrwt>
<totfact> 0.34220554E+01</totfact>
</mgrwt>
</event>
<event>
12    7  0.1611233E-007  0.2370973E+04  0.7818608E-02  0.8450451E-01
         -1   -1    0    0    0  501 -0.00000000000E+00  0.00000000000E+00  0.11886662886E+04  0.11886662886E+04  0.00000000000E+00 0.  1.
          2   -1    0    0  501    0  0.00000000000E+00 -0.00000000000E+00 -0.11823154129E+04  0.11823154129E+04  0.00000000000E+00 0. -1.
         24    2    1    2    0    0 -0.90243909462E+03  0.28768475086E+03 -0.34200626353E+03  0.10101443055E+04  0.79147951153E+02 0.  0.
        254    2    1    2    0    0  0.90243909462E+03 -0.28768475086E+03  0.34835713927E+03  0.13608373960E+04  0.91288930679E+03 0.  0.
         23    2    4    4    0    0  0.96834430341E+03 -0.39870834109E+02  0.77579839006E+02  0.97649694904E+03  0.90814573182E+02 0.  0.
         23    2    4    4    0    0 -0.65905208789E+02 -0.24781391675E+03  0.27077730026E+03  0.38434044695E+03  0.92962352283E+02 0.  0.
          4    1    3    3  502    0 -0.68487980010E+03  0.20582564275E+03 -0.22363895200E+03  0.74929227718E+03  0.00000000000E+00 0. -1.
         -3    1    3    3    0  502 -0.21755929452E+03  0.81859108111E+02 -0.11836731154E+03  0.26085202827E+03  0.00000000000E+00 0.  1.
         13    1    5    5    0    0  0.34464344360E+03  0.25958002053E+02  0.10825169652E+02  0.34578910536E+03  0.00000000000E+00 0. -1.
        -13    1    5    5    0    0  0.62370085981E+03 -0.65828836162E+02  0.66754669354E+02  0.63070784368E+03  0.00000000000E+00 0.  1.
          2    1    6    6  503    0  0.12048761462E+02 -0.13534156207E+03  0.13180074731E+03  0.18929856858E+03  0.00000000000E+00 0. -1.
         -2    1    6    6    0  503 -0.77953970251E+02 -0.11247235468E+03  0.13897655295E+03  0.19504187836E+03  0.00000000000E+00 0.  1.
<mgrwt>
<rscale>  0 0.23709732E+04</rscale>
<asrwt>0</asrwt>
<pdfrwt beam="1">  1        2 0.18189468E+00 0.23709732E+04</pdfrwt>
<pdfrwt beam="2">  1       -1 0.18287174E+00 0.23709732E+04</pdfrwt>
<totfact> 0.39581533E+00</totfact>
</mgrwt>
</event>
<event>
12    7  0.1611233E-007  0.1531576E+04  0.7818608E-02  0.8863723E-01
          2   -1    0    0  501    0  0.00000000000E+00  0.00000000000E+00  0.17354799215E+04  0.17354799215E+04  0.00000000000E+00 0. -1.
         -1   -1    0    0    0  501 -0.00000000000E+00 -0.00000000000E+00 -0.33790718909E+03  0.33790718909E+03  0.00000000000E+00 0.  1.
         24    2    1    2    0    0  0.29942712480E+03 -0.14766286933E+02  0.97231784050E+03  0.10205362685E+04  0.78852052254E+02 0.  0.
        254    2    1    2    0    0 -0.29942712480E+03  0.14766286933E+02  0.42525489195E+03  0.10528508421E+04  0.91530242340E+03 0.  0.
         23    2    4    4    0    0 -0.12653281374E+03 -0.43240859284E+03  0.11638625573E+03  0.47440335069E+03  0.92331113418E+02 0.  0.
         23    2    4    4    0    0 -0.17289431105E+03  0.44717487977E+03  0.30886863622E+03  0.57844749142E+03  0.96663591853E+02 0.  0.
          4    1    3    3  502    0  0.13491987323E+03 -0.45022926720E+02  0.47546731937E+03  0.49628581273E+03  0.00000000000E+00 0. -1.
         -3    1    3    3    0  502  0.16450725156E+03  0.30256639787E+02  0.49685052112E+03  0.52425045580E+03  0.00000000000E+00 0.  1.
         13    1    5    5    0    0 -0.61527084123E+02 -0.78200120467E+02  0.32031352638E+02  0.10453156688E+03  0.00000000000E+00 0.  1.
        -13    1    5    5    0    0 -0.65005729619E+02 -0.35420847237E+03  0.84354903091E+02  0.36987178381E+03  0.00000000000E+00 0. -1.
          3    1    6    6  503    0 -0.17519743518E+03  0.43609692747E+03  0.31480986538E+03  0.56566767875E+03  0.00000000000E+00 0. -1.
         -3    1    6    6    0  503  0.23031241306E+01  0.11077952300E+02 -0.59412291527E+01  0.12779812666E+02  0.00000000000E+00 0.  1.
<mgrwt>
<rscale>  0 0.15315758E+04</rscale>
<asrwt>0</asrwt>
<pdfrwt beam="1">  1        2 0.26699691E+00 0.15315758E+04</pdfrwt>
<pdfrwt beam="2">  1       -1 0.51985722E-01 0.15315758E+04</pdfrwt>
<totfact> 0.38336021E+01</totfact>
</mgrwt>
</event>
<event>
12    7  0.1611233E-007  0.2359314E+04  0.7818608E-02  0.8454895E-01
          2   -1    0    0  501    0  0.00000000000E+00  0.00000000000E+00  0.48320428371E+04  0.48320428371E+04  0.00000000000E+00 0. -1.
         -1   -1    0    0    0  501 -0.00000000000E+00 -0.00000000000E+00 -0.28799223146E+03  0.28799223146E+03  0.00000000000E+00 0.  1.
         24    2    1    2    0    0  0.19319397035E+03 -0.97082382428E+03  0.23314548651E+04  0.25339923468E+04  0.74917404387E+02 0.  0.
        254    2    1    2    0    0 -0.19319397035E+03  0.97082382428E+03  0.22125957405E+04  0.25860427218E+04  0.90122929375E+03 0.  0.
         23    2    4    4    0    0  0.19169626889E+03  0.34629196342E+01  0.80669298892E+03  0.83414444159E+03  0.91016041116E+02 0.  0.
         23    2    4    4    0    0 -0.38489023925E+03  0.96736090464E+03  0.14059027516E+04  0.17518982802E+04  0.93045263527E+02 0.  0.
          4    1    3    3  502    0  0.49606969530E+02 -0.42004959818E+03  0.10354160268E+04  0.11184761351E+04  0.00000000000E+00 0. -1.
         -3    1    3    3    0  502  0.14358700082E+03 -0.55077422610E+03  0.12960388384E+04  0.14155162117E+04  0.00000000000E+00 0.  1.
         13    1    5    5    0    0  0.14459813577E+03  0.32583256934E+02  0.67852666792E+03  0.69452770181E+03  0.00000000000E+00 0. -1.
        -13    1    5    5    0    0  0.47098133121E+02 -0.29120337300E+02  0.12816632099E+03  0.13961673977E+03  0.00000000000E+00 0.  1.
          3    1    6    6  503    0 -0.27913495862E+03  0.66391553738E+03  0.90204796543E+03  0.11542922931E+04  0.00000000000E+00 0. -1.
         -3    1    6    6    0  503 -0.10575528062E+03  0.30344536726E+03  0.50385478617E+03  0.59760598712E+03  0.00000000000E+00 0.  1.
<mgrwt>
<rscale>  0 0.23593141E+04</rscale>
<asrwt>0</asrwt>
<pdfrwt beam="1">  1        2 0.74339115E+00 0.23593141E+04</pdfrwt>
<pdfrwt beam="2">  1       -1 0.44306501E-01 0.23593141E+04</pdfrwt>
<totfact> 0.28644931E-01</totfact>
</mgrwt>
</event>
<event>
12    7  0.1611233E-007  0.1717722E+04  0.7818608E-02  0.8751321E-01
          2   -1    0    0  501    0  0.00000000000E+00  0.00000000000E+00  0.57342059194E+04  0.57342059194E+04  0.00000000000E+00 0. -1.
         -1   -1    0    0    0  501 -0.00000000000E+00 -0.00000000000E+00 -0.12863894730E+03  0.12863894730E+03  0.00000000000E+00 0.  1.
         24    2    1    2    0    0 -0.53986243429E+03 -0.19745594138E+03  0.29450637462E+04  0.30017546545E+04  0.81793888424E+02 0.  0.
        254    2    1    2    0    0  0.53986243429E+03  0.19745594138E+03  0.26605032259E+04  0.28610902122E+04  0.88154381076E+03 0.  0.
         23    2    4    4    0    0 -0.23300529773E+03  0.45330488709E+02  0.50757062481E+03  0.56697322592E+03  0.86512298307E+02 0.  0.
         23    2    4    4    0    0  0.77286773202E+03  0.15212545267E+03  0.21529326011E+04  0.22941169862E+04  0.85949270755E+02 0.  0.
          4    1    3    3  502    0 -0.45044051399E+03 -0.13198056623E+03  0.23362062516E+04  0.23828921873E+04  0.00000000000E+00 0. -1.
         -3    1    3    3    0  502 -0.89421920304E+02 -0.65475375148E+02  0.60885749459E+03  0.61886246719E+03  0.00000000000E+00 0.  1.
         13    1    5    5    0    0 -0.14033726063E+03 -0.15300310643E+02  0.30575629323E+03  0.33677226293E+03  0.00000000000E+00 0.  1.
        -13    1    5    5    0    0 -0.92668037097E+02  0.60630799352E+02  0.20181433158E+03  0.23020096299E+03  0.00000000000E+00 0. -1.
          4    1    6    6  503    0  0.39039794404E+03  0.49303381867E+02  0.97626405157E+03  0.10525839048E+04  0.00000000000E+00 0. -1.
         -4    1    6    6    0  503  0.38246978798E+03  0.10282207080E+03  0.11766685495E+04  0.12415330815E+04  0.00000000000E+00 0.  1.
<mgrwt>
<rscale>  0 0.17177220E+04</rscale>
<asrwt>0</asrwt>
<pdfrwt beam="1">  1        2 0.88218533E+00 0.17177220E+04</pdfrwt>
<pdfrwt beam="2">  1       -1 0.19790612E-01 0.17177220E+04</pdfrwt>
<totfact> 0.46900491E-02</totfact>
</mgrwt>
</event>
<event>
12    7  0.1611233E-007  0.3024522E+04  0.7818608E-02  0.8236763E-01
          2   -1    0    0  501    0  0.00000000000E+00  0.00000000000E+00  0.30349717695E+04  0.30349717695E+04  0.00000000000E+00 0. -1.
         -1   -1    0    0    0  501 -0.00000000000E+00 -0.00000000000E+00 -0.75352688036E+03  0.75352688036E+03  0.00000000000E+00 0.  1.
         24    2    1    2    0    0 -0.24117336796E+03  0.63680023806E+03 -0.45723158474E+03  0.82407383657E+03  0.79735998369E+02 0.  0.
        254    2    1    2    0    0  0.24117336796E+03 -0.63680023806E+03  0.27386764739E+04  0.29644248133E+04  0.90762685528E+03 0.  0.
         23    2    4    4    0    0 -0.13804556639E+03 -0.46290240301E+03  0.55765896836E+03  0.74208011128E+03  0.79775644488E+02 0.  0.
         23    2    4    4    0    0  0.37921893434E+03 -0.17389783505E+03  0.21810175055E+04  0.22223447020E+04  0.89057048831E+02 0.  0.
          2    1    3    3  502    0 -0.89213770616E+02  0.14378963671E+03 -0.99841523778E+02  0.19647617251E+03  0.00000000000E+00 0. -1.
         -1    1    3    3    0  502 -0.15195959734E+03  0.49301060134E+03 -0.35739006097E+03  0.62759766406E+03  0.00000000000E+00 0.  1.
         13    1    5    5    0    0 -0.75429290898E+02 -0.27978951195E+03  0.27481977115E+03  0.39937157578E+03  0.00000000000E+00 0. -1.
        -13    1    5    5    0    0 -0.62616275488E+02 -0.18311289105E+03  0.28283919721E+03  0.34270853550E+03  0.00000000000E+00 0.  1.
          4    1    6    6  503    0  0.35788886797E+03 -0.18452591653E+03  0.20697190383E+04  0.21085234533E+04  0.00000000000E+00 0. -1.
         -4    1    6    6    0  503  0.21330066371E+02  0.10628081478E+02  0.11129846725E+03  0.11382124872E+03  0.00000000000E+00 0.  1.
<mgrwt>
<rscale>  0 0.30245217E+04</rscale>
<asrwt>0</asrwt>
<pdfrwt beam="1">  1        2 0.46691873E+00 0.30245217E+04</pdfrwt>
<pdfrwt beam="2">  1       -1 0.11592721E+00 0.30245217E+04</pdfrwt>
<totfact> 0.10808494E+00</totfact>
</mgrwt>
</event>
<event>
12    7  0.1611233E-007  0.1804742E+04  0.7818608E-02  0.8703782E-01
         -1   -1    0    0    0  501 -0.00000000000E+00  0.00000000000E+00  0.62016534892E+03  0.62016534892E+03  0.00000000000E+00 0.  1.
          2   -1    0    0  501    0  0.00000000000E+00 -0.00000000000E+00 -0.13129938525E+04  0.13129938525E+04  0.00000000000E+00 0. -1.
         24    2    1    2    0    0 -0.31696532964E+03  0.54874872959E+03 -0.20019737604E+01  0.63892726220E+03  0.81436171691E+02 0.  0.
        254    2    1    2    0    0  0.31696532964E+03 -0.54874872959E+03 -0.69082652977E+03  0.12942319392E+04  0.89230198349E+03 0.  0.
         23    2    4    4    0    0  0.80045225697E+02 -0.67001478781E+03 -0.17099119735E+03  0.70309354877E+03  0.98871101485E+02 0.  0.
         23    2    4    4    0    0  0.23692010395E+03  0.12126605822E+03 -0.51983533242E+03  0.59113839042E+03  0.91538141023E+02 0.  0.
          2    1    3    3  502    0 -0.18845404190E+03  0.40080954999E+03 -0.53861893667E+01  0.44293592347E+03  0.00000000000E+00 0. -1.
         -1    1    3    3    0  502 -0.12851128775E+03  0.14793917960E+03  0.33842156063E+01  0.19599133872E+03  0.00000000000E+00 0.  1.
         13    1    5    5    0    0  0.16961076917E+02 -0.21719880835E+02  0.58193278754E+01  0.28165509592E+02  0.00000000000E+00 0. -1.
        -13    1    5    5    0    0  0.63084148781E+02 -0.64829490697E+03 -0.17681052523E+03  0.67492803917E+03  0.00000000000E+00 0.  1.
          1    1    6    6  503    0  0.20677961672E+03  0.10598808112E+03 -0.50144947898E+03  0.55266885492E+03  0.00000000000E+00 0. -1.
         -1    1    6    6    0  503  0.30140487231E+02  0.15277977095E+02 -0.18385853442E+02  0.38469535498E+02  0.00000000000E+00 0.  1.
<mgrwt>
<rscale>  0 0.18047419E+04</rscale>
<asrwt>0</asrwt>
<pdfrwt beam="1">  1        2 0.20199905E+00 0.18047419E+04</pdfrwt>
<pdfrwt beam="2">  1       -1 0.95410054E-01 0.18047419E+04</pdfrwt>
<totfact> 0.18533738E+01</totfact>
</mgrwt>
</event>
<event>
12    7  0.1611233E-007  0.1785965E+04  0.7818608E-02  0.8713799E-01
         -1   -1    0    0    0  501 -0.00000000000E+00  0.00000000000E+00  0.34453919728E+03  0.34453919728E+03  0.00000000000E+00 0.  1.
          2   -1    0    0  501    0  0.00000000000E+00 -0.00000000000E+00 -0.23144460707E+04  0.23144460707E+04  0.00000000000E+00 0. -1.
         24    2    1    2    0    0  0.35137526074E+02  0.39720276884E+03 -0.15277338010E+04  0.15809407494E+04  0.79990005573E+02 0.  0.
        254    2    1    2    0    0 -0.35137526074E+02 -0.39720276884E+03 -0.44217307238E+03  0.10780445186E+04  0.89869809879E+03 0.  0.
         23    2    4    4    0    0 -0.10245341127E+03 -0.40789298196E+03  0.16358610728E+03  0.46156849669E+03  0.97013795035E+02 0.  0.
         23    2    4    4    0    0  0.67315885192E+02  0.10690213122E+02 -0.60575917966E+03  0.61647602188E+03  0.91939070874E+02 0.  0.
          4    1    3    3  502    0  0.57667131498E+02  0.26200847926E+03 -0.94837890355E+03  0.98559448353E+03  0.00000000000E+00 0. -1.
         -3    1    3    3    0  502 -0.22529605424E+02  0.13519428958E+03 -0.57935489747E+03  0.59534626586E+03  0.00000000000E+00 0.  1.
         13    1    5    5    0    0 -0.11668617811E+02  0.19467662435E+01  0.47792541587E+01  0.12758832656E+02  0.00000000000E+00 0.  1.
        -13    1    5    5    0    0 -0.90784793455E+02 -0.40983974820E+03  0.15880685312E+03  0.44880966403E+03  0.00000000000E+00 0. -1.
          4    1    6    6  503    0  0.58156442249E+02  0.33658970825E+02 -0.56366622953E+03  0.56765721734E+03  0.00000000000E+00 0. -1.
         -4    1    6    6    0  503  0.91594429428E+01 -0.22968757703E+02 -0.42092950135E+02  0.48818804538E+02  0.00000000000E+00 0.  1.
<mgrwt>
<rscale>  0 0.17859646E+04</rscale>
<asrwt>0</asrwt>
<pdfrwt beam="1">  1        2 0.35606862E+00 0.17859646E+04</pdfrwt>
<pdfrwt beam="2">  1       -1 0.53006031E-01 0.17859646E+04</pdfrwt>
<totfact> 0.17192238E+01</totfact>
</mgrwt>
</event>
<event>
12    7  0.1611233E-007  0.3231394E+04  0.7818608E-02  0.8180575E-01
          2   -1    0    0  501    0  0.00000000000E+00  0.00000000000E+00  0.21446058135E+04  0.21446058135E+04  0.00000000000E+00 0. -1.
         -1   -1    0    0    0  501 -0.00000000000E+00 -0.00000000000E+00 -0.12172291142E+04  0.12172291142E+04  0.00000000000E+00 0.  1.
         24    2    1    2    0    0 -0.54661555339E+03  0.12973790585E+04 -0.69687586145E+02  0.14117479645E+04  0.78708139068E+02 0.  0.
        254    2    1    2    0    0  0.54661555339E+03 -0.12973790585E+04  0.99706428543E+03  0.19500869631E+04  0.90924198639E+03 0.  0.
         23    2    4    4    0    0 -0.22373762894E+03 -0.46622299083E+03  0.20177926712E+03  0.56241179559E+03  0.90386677104E+02 0.  0.
         23    2    4    4    0    0  0.77035318233E+03 -0.83115606762E+03  0.79528501831E+03  0.13876751675E+04  0.94338093423E+02 0.  0.
          4    1    3    3  502    0 -0.17770787367E+03  0.37607235126E+03  0.10642409380E+02  0.41608143749E+03  0.00000000000E+00 0. -1.
         -3    1    3    3    0  502 -0.36890767972E+03  0.92130670719E+03 -0.80329995525E+02  0.99566652704E+03  0.00000000000E+00 0.  1.
         13    1    5    5    0    0 -0.12371788891E+02 -0.81577167290E+02  0.88425567309E+01  0.82982445089E+02  0.00000000000E+00 0. -1.
        -13    1    5    5    0    0 -0.21136584005E+03 -0.38464582354E+03  0.19293671039E+03  0.47942935050E+03  0.00000000000E+00 0.  1.
          4    1    6    6  503    0  0.16466864928E+03 -0.13195043634E+03  0.17190935932E+03  0.27217551236E+03  0.00000000000E+00 0. -1.
         -4    1    6    6    0  503  0.60568453305E+03 -0.69920563129E+03  0.62337565899E+03  0.11154996551E+04  0.00000000000E+00 0.  1.
<mgrwt>
<rscale>  0 0.32313939E+04</rscale>
<asrwt>0</asrwt>
<pdfrwt beam="1">  1        2 0.32993936E+00 0.32313939E+04</pdfrwt>
<pdfrwt beam="2">  1       -1 0.18726602E+00 0.32313939E+04</pdfrwt>
<totfact> 0.97863177E-01</totfact>
</mgrwt>
</event>
<event>
12    7  0.1611233E-007  0.2049108E+04  0.7818608E-02  0.8583999E-01
          2   -1    0    0  501    0  0.00000000000E+00  0.00000000000E+00  0.68418340142E+03  0.68418340142E+03  0.00000000000E+00 0. -1.
         -1   -1    0    0    0  501 -0.00000000000E+00 -0.00000000000E+00 -0.15342535662E+04  0.15342535662E+04  0.00000000000E+00 0.  1.
         24    2    1    2    0    0 -0.31323141864E+03  0.19384509813E+03  0.45069128073E+03  0.58752958976E+03  0.79865791349E+02 0.  0.
        254    2    1    2    0    0  0.31323141864E+03 -0.19384509813E+03 -0.13007614455E+04  0.16309073779E+04  0.91224376860E+03 0.  0.
         23    2    4    4    0    0 -0.28160818568E+03 -0.18084156759E+03 -0.28689270438E+03  0.45194853819E+03  0.99715668468E+02 0.  0.
         23    2    4    4    0    0  0.59483960432E+03 -0.13003530537E+02 -0.10138687411E+04  0.11789588397E+04  0.89503489986E+02 0.  0.
          2    1    3    3  502    0 -0.17566425221E+03  0.62846805758E+02  0.20995497496E+03  0.28087139763E+03  0.00000000000E+00 0. -1.
         -1    1    3    3    0  502 -0.13756716643E+03  0.13099829237E+03  0.24073630577E+03  0.30665819213E+03  0.00000000000E+00 0.  1.
         13    1    5    5    0    0 -0.20693443328E+03 -0.87281522649E+02 -0.22197038012E+03  0.31577012767E+03  0.00000000000E+00 0. -1.
        -13    1    5    5    0    0 -0.74673752393E+02 -0.93560044944E+02 -0.64922324254E+02  0.13617841052E+03  0.00000000000E+00 0.  1.
          1    1    6    6  503    0  0.37370975406E+03 -0.51118065177E+02 -0.64583022538E+03  0.74790956464E+03  0.00000000000E+00 0. -1.
         -1    1    6    6    0  503  0.22112985026E+03  0.38114534640E+02 -0.36803851574E+03  0.43104927502E+03  0.00000000000E+00 0.  1.
<mgrwt>
<rscale>  0 0.20491079E+04</rscale>
<asrwt>0</asrwt>
<pdfrwt beam="1">  1        2 0.10525899E+00 0.20491079E+04</pdfrwt>
<pdfrwt beam="2">  1       -1 0.23603901E+00 0.20491079E+04</pdfrwt>
<totfact> 0.38352250E+00</totfact>
</mgrwt>
</event>
<event>
12    7  0.1611233E-007  0.1562465E+04  0.7818608E-02  0.8843945E-01
          2   -1    0    0  501    0  0.00000000000E+00  0.00000000000E+00  0.56315253148E+03  0.56315253148E+03  0.00000000000E+00 0. -1.
         -1   -1    0    0    0  501 -0.00000000000E+00 -0.00000000000E+00 -0.10837640058E+04  0.10837640058E+04  0.00000000000E+00 0.  1.
         24    2    1    2    0    0  0.21708293336E+03 -0.17415973586E+03  0.29834703997E+03  0.41707656904E+03  0.86517597238E+02 0.  0.
        254    2    1    2    0    0 -0.21708293336E+03  0.17415973586E+03 -0.81895851425E+03  0.12298399682E+04  0.87427494861E+03 0.  0.
         23    2    4    4    0    0  0.12315920231E+03 -0.27080098015E+03 -0.12882390277E+03  0.33673175682E+03  0.91056675551E+02 0.  0.
         23    2    4    4    0    0 -0.34024213567E+03  0.44496071601E+03 -0.69013461148E+03  0.89310821138E+03  0.87187989985E+02 0.  0.
          2    1    3    3  502    0  0.16269937569E+03 -0.91266472255E+02  0.23237749366E+03  0.29799321363E+03  0.00000000000E+00 0. -1.
         -1    1    3    3    0  502  0.54383557669E+02 -0.82893263606E+02  0.65969546309E+02  0.11908335541E+03  0.00000000000E+00 0.  1.
         13    1    5    5    0    0  0.19684988662E+00 -0.55150279740E+02  0.38008046459E+01  0.55281445543E+02  0.00000000000E+00 0. -1.
        -13    1    5    5    0    0  0.12296235243E+03 -0.21565070041E+03 -0.13262470742E+03  0.28145031128E+03  0.00000000000E+00 0.  1.
          1    1    6    6  503    0 -0.17517089385E+03  0.16948248654E+03 -0.26104159553E+03  0.35714404642E+03  0.00000000000E+00 0. -1.
         -1    1    6    6    0  503 -0.16507124183E+03  0.27547822947E+03 -0.42909301595E+03  0.53596416496E+03  0.00000000000E+00 0.  1.
<mgrwt>
<rscale>  0 0.15624653E+04</rscale>
<asrwt>0</asrwt>
<pdfrwt beam="1">  1        2 0.86638851E-01 0.15624653E+04</pdfrwt>
<pdfrwt beam="2">  1       -1 0.16673292E+00 0.15624653E+04</pdfrwt>
<totfact> 0.15301310E+01</totfact>
</mgrwt>
</event>
<event>
12    7  0.1611233E-007  0.1164758E+04  0.7818608E-02  0.9144276E-01
         -1   -1    0    0    0  501 -0.00000000000E+00  0.00000000000E+00  0.87508073356E+03  0.87508073356E+03  0.00000000000E+00 0.  1.
          2   -1    0    0  501    0  0.00000000000E+00 -0.00000000000E+00 -0.38758171718E+03  0.38758171718E+03  0.00000000000E+00 0. -1.
         24    2    1    2    0    0  0.16157565702E+03  0.72285129749E+01  0.22519899355E+03  0.29196181772E+03  0.91477712974E+02 0.  0.
        254    2    1    2    0    0 -0.16157565702E+03 -0.72285129749E+01  0.26230002284E+03  0.97070063302E+03  0.92048871401E+03 0.  0.
         23    2    4    4    0    0 -0.15465568497E+03  0.43498733614E+03  0.55477576126E+02  0.47388300184E+03  0.91405549513E+02 0.  0.
         23    2    4    4    0    0 -0.69199720438E+01 -0.44221584911E+03  0.20682244671E+03  0.49681763118E+03  0.91921112743E+02 0.  0.
          2    1    3    3  502    0  0.99360223096E+01  0.81972652340E+01 -0.69785023141E+01  0.14649887071E+02  0.00000000000E+00 0. -1.
         -1    1    3    3    0  502  0.15163963471E+03 -0.96875225904E+00  0.23217749586E+03  0.27731193065E+03  0.00000000000E+00 0.  1.
         13    1    5    5    0    0 -0.14229954506E+03  0.39535551371E+03  0.76907129667E+02  0.42716489713E+03  0.00000000000E+00 0. -1.
        -13    1    5    5    0    0 -0.12356139912E+02  0.39631822427E+02 -0.21429553541E+02  0.46718104707E+02  0.00000000000E+00 0.  1.
          4    1    6    6  503    0 -0.12579240364E+02 -0.12384068477E+03  0.15766159688E+02  0.12547240447E+03  0.00000000000E+00 0. -1.
         -4    1    6    6    0  503  0.56592683204E+01 -0.31837516434E+03  0.19105628702E+03  0.37134522671E+03  0.00000000000E+00 0.  1.
<mgrwt>
<rscale>  0 0.11647580E+04</rscale>
<asrwt>0</asrwt>
<pdfrwt beam="1">  1        2 0.59627957E-01 0.11647580E+04</pdfrwt>
<pdfrwt beam="2">  1       -1 0.13462780E+00 0.11647580E+04</pdfrwt>
<totfact> 0.43285962E+01</totfact>
</mgrwt>
</event>
<event>
12    7  0.1611233E-007  0.2526191E+04  0.7818608E-02  0.8393714E-01
         -1   -1    0    0    0  501 -0.00000000000E+00  0.00000000000E+00  0.10343133937E+04  0.10343133937E+04  0.00000000000E+00 0.  1.
          2   -1    0    0  501    0  0.00000000000E+00 -0.00000000000E+00 -0.15424825834E+04  0.15424825834E+04  0.00000000000E+00 0. -1.
         24    2    1    2    0    0 -0.50026371917E+03 -0.82188035589E+03  0.32716110297E+03  0.10202984219E+04  0.90682823023E+02 0.  0.
        254    2    1    2    0    0  0.50026371917E+03  0.82188035589E+03 -0.83533029265E+03  0.15564975551E+04  0.89395572211E+03 0.  0.
         23    2    4    4    0    0  0.22164660898E+03  0.68045275665E+03 -0.96585162270E+03  0.12055353513E+04  0.91120540341E+02 0.  0.
         23    2    4    4    0    0  0.27861711018E+03  0.14142759924E+03  0.13052133005E+03  0.35096220379E+03  0.92246360256E+02 0.  0.
          2    1    3    3  502    0 -0.24507980562E+03 -0.35913871476E+03  0.10655469622E+03  0.44765905648E+03  0.00000000000E+00 0. -1.
         -1    1    3    3    0  502 -0.25518391355E+03 -0.46274164113E+03  0.22060640674E+03  0.57263936545E+03  0.00000000000E+00 0.  1.
         13    1    5    5    0    0  0.17521207978E+03  0.55037469745E+03 -0.71475814720E+03  0.91896179979E+03  0.00000000000E+00 0.  1.
        -13    1    5    5    0    0  0.46434529206E+02  0.13007805920E+03 -0.25109347550E+03  0.28657355151E+03  0.00000000000E+00 0. -1.
          2    1    6    6  503    0  0.11364286664E+03  0.10487604071E+03  0.42190001950E+02  0.16029248678E+03  0.00000000000E+00 0. -1.
         -2    1    6    6    0  503  0.16497424354E+03  0.36551558531E+02  0.88331328096E+02  0.19066971701E+03  0.00000000000E+00 0.  1.
<mgrwt>
<rscale>  0 0.25261911E+04</rscale>
<asrwt>0</asrwt>
<pdfrwt beam="1">  1        2 0.23730501E+00 0.25261911E+04</pdfrwt>
<pdfrwt beam="2">  1       -1 0.15912514E+00 0.25261911E+04</pdfrwt>
<totfact> 0.36131091E+00</totfact>
</mgrwt>
</event>
<event>
12    7  0.1611233E-007  0.1221781E+04  0.7818608E-02  0.9094002E-01
          2   -1    0    0  501    0  0.00000000000E+00  0.00000000000E+00  0.18890930637E+04  0.18890930637E+04  0.00000000000E+00 0. -1.
         -1   -1    0    0    0  501 -0.00000000000E+00 -0.00000000000E+00 -0.19754835135E+03  0.19754835135E+03  0.00000000000E+00 0.  1.
         24    2    1    2    0    0 -0.18145981452E+03 -0.18466513646E+02  0.72955692851E+03  0.75651273574E+03  0.82398610375E+02 0.  0.
        254    2    1    2    0    0  0.18145981452E+03  0.18466513646E+02  0.96198778386E+03  0.13301286793E+04  0.90030724248E+03 0.  0.
         23    2    4    4    0    0 -0.34589881071E+01 -0.14438813272E+03  0.10412527347E+04  0.10551321680E+04  0.90756471182E+02 0.  0.
         23    2    4    4    0    0  0.18491880263E+03  0.16285464636E+03 -0.79264950820E+02  0.27499651130E+03  0.92863067955E+02 0.  0.
          2    1    3    3  502    0 -0.14801554945E+03  0.15811952070E+02  0.60559076306E+03  0.62361750538E+03  0.00000000000E+00 0. -1.
         -3    1    3    3    0  502 -0.33444265067E+02 -0.34278465715E+02  0.12396616545E+03  0.13289523036E+03  0.00000000000E+00 0.  1.
         13    1    5    5    0    0  0.70065235964E+01 -0.60093494287E+02  0.18421867801E+03  0.19389904784E+03  0.00000000000E+00 0. -1.
        -13    1    5    5    0    0 -0.10465511704E+02 -0.84294638430E+02  0.85703405667E+03  0.86123312018E+03  0.00000000000E+00 0.  1.
          1    1    6    6  503    0 -0.42919634968E+01  0.35031392615E+01  0.10473911580E+02  0.11848871639E+02  0.00000000000E+00 0. -1.
         -1    1    6    6    0  503  0.18921076613E+03  0.15935150710E+03 -0.89738862399E+02  0.26314763966E+03  0.00000000000E+00 0.  1.
<mgrwt>
<rscale>  0 0.12217810E+04</rscale>
<asrwt>0</asrwt>
<pdfrwt beam="1">  1        2 0.29062969E+00 0.12217810E+04</pdfrwt>
<pdfrwt beam="2">  1       -1 0.30392055E-01 0.12217810E+04</pdfrwt>
<totfact> 0.86254809E+01</totfact>
</mgrwt>
</event>
<event>
12    7  0.1611233E-007  0.1513064E+04  0.7818608E-02  0.8875812E-01
          2   -1    0    0  501    0  0.00000000000E+00  0.00000000000E+00  0.13818529563E+04  0.13818529563E+04  0.00000000000E+00 0. -1.
         -1   -1    0    0    0  501 -0.00000000000E+00 -0.00000000000E+00 -0.41418351142E+03  0.41418351142E+03  0.00000000000E+00 0.  1.
         24    2    1    2    0    0  0.44746233216E+03 -0.94227628905E+02  0.48885906256E+03  0.67396585011E+03  0.78392597367E+02 0.  0.
        254    2    1    2    0    0 -0.44746233216E+03  0.94227628905E+02  0.47881038237E+03  0.11220706177E+04  0.90591484368E+03 0.  0.
         23    2    4    4    0    0 -0.15063470854E+03 -0.26277890575E+03 -0.13756073819E+03  0.34511111461E+03  0.91843105413E+02 0.  0.
         23    2    4    4    0    0 -0.29682762362E+03  0.35700653465E+03  0.61637112056E+03  0.77695950305E+03  0.90511917462E+02 0.  0.
          2    1    3    3  502    0  0.29625561801E+03 -0.80089584352E+02  0.27781397235E+03  0.41395934095E+03  0.00000000000E+00 0. -1.
         -3    1    3    3    0  502  0.15120671415E+03 -0.14138044554E+02  0.21104509020E+03  0.26000650916E+03  0.00000000000E+00 0.  1.
         13    1    5    5    0    0 -0.13394870315E+03 -0.26016156119E+03 -0.14509446978E+03  0.32661705123E+03  0.00000000000E+00 0.  1.
        -13    1    5    5    0    0 -0.16686005390E+02 -0.26173445589E+01  0.75337315908E+01  0.18494063375E+02  0.00000000000E+00 0. -1.
          3    1    6    6  503    0 -0.71270014607E+02  0.14390249350E+03  0.24605255376E+03  0.29381831432E+03  0.00000000000E+00 0. -1.
         -3    1    6    6    0  503 -0.22555760901E+03  0.21310404116E+03  0.37031856680E+03  0.48314118873E+03  0.00000000000E+00 0.  1.
<mgrwt>
<rscale>  0 0.15130641E+04</rscale>
<asrwt>0</asrwt>
<pdfrwt beam="1">  1        2 0.21259276E+00 0.15130641E+04</pdfrwt>
<pdfrwt beam="2">  1       -1 0.63720541E-01 0.15130641E+04</pdfrwt>
<totfact> 0.40728374E+01</totfact>
</mgrwt>
</event>
<event>
12    7  0.1611233E-007  0.1784696E+04  0.7818608E-02  0.8714480E-01
          2   -1    0    0  501    0  0.00000000000E+00  0.00000000000E+00  0.73532661580E+03  0.73532661580E+03  0.00000000000E+00 0. -1.
         -1   -1    0    0    0  501 -0.00000000000E+00 -0.00000000000E+00 -0.10828997790E+04  0.10828997790E+04  0.00000000000E+00 0.  1.
         24    2    1    2    0    0  0.50333913043E+03  0.34323515845E+03 -0.39688201554E+03  0.73120940286E+03  0.77402857489E+02 0.  0.
        254    2    1    2    0    0 -0.50333913043E+03 -0.34323515845E+03  0.49308852363E+02  0.10870169919E+04  0.89889594702E+03 0.  0.
         23    2    4    4    0    0  0.16165848846E+03 -0.36893204013E+03 -0.15292063263E+02  0.41373940614E+03  0.93285217837E+02 0.  0.
         23    2    4    4    0    0 -0.66499761889E+03  0.25696881673E+02  0.64600915626E+02  0.67327758577E+03  0.79039650454E+02 0.  0.
          4    1    3    3  502    0  0.76209104158E+02  0.54290095164E+02 -0.96517378439E+02  0.13442784805E+03  0.00000000000E+00 0. -1.
         -3    1    3    3    0  502  0.42713002627E+03  0.28894506329E+03 -0.30036463710E+03  0.59678155481E+03  0.00000000000E+00 0.  1.
         13    1    5    5    0    0 -0.18585639450E+01 -0.70765020059E+02 -0.20296763533E+02  0.73641706484E+02  0.00000000000E+00 0. -1.
        -13    1    5    5    0    0  0.16351705241E+03 -0.29816702007E+03  0.50047002703E+01  0.34009769965E+03  0.00000000000E+00 0.  1.
          3    1    6    6  503    0 -0.71878986017E+02 -0.65843042276E+01 -0.15729424176E+02  0.73873922854E+02  0.00000000000E+00 0. -1.
         -3    1    6    6    0  503 -0.59311863288E+03  0.32281185901E+02  0.80330339802E+02  0.59940366292E+03  0.00000000000E+00 0.  1.
<mgrwt>
<rscale>  0 0.17846961E+04</rscale>
<asrwt>0</asrwt>
<pdfrwt beam="1">  1        2 0.11312717E+00 0.17846961E+04</pdfrwt>
<pdfrwt beam="2">  1       -1 0.16659997E+00 0.17846961E+04</pdfrwt>
<totfact> 0.10824877E+01</totfact>
</mgrwt>
</event>
<event>
12    7  0.1611233E-007  0.1270417E+04  0.7818608E-02  0.9053360E-01
         -1   -1    0    0    0  501 -0.00000000000E+00  0.00000000000E+00  0.10570658286E+03  0.10570658286E+03  0.00000000000E+00 0.  1.
          2   -1    0    0  501    0  0.00000000000E+00 -0.00000000000E+00 -0.38170722935E+04  0.38170722935E+04  0.00000000000E+00 0. -1.
         24    2    1    2    0    0  0.78433799118E+02 -0.29678775719E+03 -0.11083937833E+04  0.11528919136E+04  0.79925915648E+02 0.  0.
        254    2    1    2    0    0 -0.78433799118E+02  0.29678775719E+03 -0.26029719273E+04  0.27698869627E+04  0.89586611615E+03 0.  0.
         23    2    4    4    0    0 -0.41010840903E+03  0.38936050782E+03 -0.18557433082E+04  0.19425013988E+04  0.98681030990E+02 0.  0.
         23    2    4    4    0    0  0.33167460991E+03 -0.92572750623E+02 -0.74722861906E+03  0.82738556393E+03  0.87398519679E+02 0.  0.
          4    1    3    3  502    0  0.78723279158E+02 -0.30137312934E+03 -0.11007576735E+04  0.11439801456E+04  0.00000000000E+00 0. -1.
         -3    1    3    3    0  502 -0.28948003975E+00  0.45853721437E+01 -0.76361097561E+01  0.89117679838E+01  0.00000000000E+00 0.  1.
         13    1    5    5    0    0 -0.48275929297E+01  0.32987853418E+02 -0.83542095925E+02  0.89948796090E+02  0.00000000000E+00 0.  1.
        -13    1    5    5    0    0 -0.40528081610E+03  0.35637265440E+03 -0.17722012123E+04  0.18525526027E+04  0.00000000000E+00 0. -1.
          2    1    6    6  503    0  0.31981445478E+03 -0.90515713597E+02 -0.65632092855E+03  0.73568440322E+03  0.00000000000E+00 0. -1.
         -2    1    6    6    0  503  0.11860155129E+02 -0.20570370259E+01 -0.90907690514E+02  0.91701160710E+02  0.00000000000E+00 0.  1.
<mgrwt>
<rscale>  0 0.12704167E+04</rscale>
<asrwt>0</asrwt>
<pdfrwt beam="1">  1        2 0.58724198E+00 0.12704167E+04</pdfrwt>
<pdfrwt beam="2">  1       -1 0.16262549E-01 0.12704167E+04</pdfrwt>
<totfact> 0.15838816E+01</totfact>
</mgrwt>
</event>
<event>
12    7  0.1611233E-007  0.1744854E+04  0.7818608E-02  0.8736188E-01
         -1   -1    0    0    0  501 -0.00000000000E+00  0.00000000000E+00  0.34500243555E+03  0.34500243555E+03  0.00000000000E+00 0.  1.
          2   -1    0    0  501    0  0.00000000000E+00 -0.00000000000E+00 -0.22061547171E+04  0.22061547171E+04  0.00000000000E+00 0. -1.
         24    2    1    2    0    0  0.62408542616E+03  0.87975470480E+02 -0.81831758037E+03  0.10357326067E+04  0.76655513235E+02 0.  0.
        254    2    1    2    0    0 -0.62408542616E+03 -0.87975470480E+02 -0.10428347012E+04  0.15154245459E+04  0.90099114195E+03 0.  0.
         23    2    4    4    0    0 -0.91954780245E+02  0.33711652184E+03 -0.59135152108E+03  0.69306287680E+03  0.92392092800E+02 0.  0.
         23    2    4    4    0    0 -0.53213064591E+03 -0.42509199232E+03 -0.45148318009E+03  0.82236166912E+03  0.92603599694E+02 0.  0.
          2    1    3    3  502    0  0.32974318057E+03  0.47694977741E+02 -0.49463971733E+03  0.59638395853E+03  0.00000000000E+00 0. -1.
         -1    1    3    3    0  502  0.29434224559E+03  0.40280492738E+02 -0.32367786304E+03  0.43934864817E+03  0.00000000000E+00 0.  1.
         13    1    5    5    0    0 -0.95635004733E+01  0.17007873452E+03 -0.33931095207E+03  0.37967111909E+03  0.00000000000E+00 0.  1.
        -13    1    5    5    0    0 -0.82391279772E+02  0.16703778732E+03 -0.25204056901E+03  0.31339175771E+03  0.00000000000E+00 0. -1.
          3    1    6    6  503    0 -0.14980097862E+03 -0.17485985072E+03 -0.15951173570E+03  0.28010764791E+03  0.00000000000E+00 0. -1.
         -3    1    6    6    0  503 -0.38232966729E+03 -0.25023214160E+03 -0.29197144438E+03  0.54225402121E+03  0.00000000000E+00 0.  1.
<mgrwt>
<rscale>  0 0.17448539E+04</rscale>
<asrwt>0</asrwt>
<pdfrwt beam="1">  1        2 0.33940843E+00 0.17448539E+04</pdfrwt>
<pdfrwt beam="2">  1       -1 0.53077296E-01 0.17448539E+04</pdfrwt>
<totfact> 0.19808333E+01</totfact>
</mgrwt>
</event>
<event>
12    7  0.1611233E-007  0.2942646E+04  0.7818608E-02  0.8260301E-01
          2   -1    0    0  501    0  0.00000000000E+00  0.00000000000E+00  0.30325959312E+04  0.30325959312E+04  0.00000000000E+00 0. -1.
         -1   -1    0    0    0  501 -0.00000000000E+00 -0.00000000000E+00 -0.71384080971E+03  0.71384080971E+03  0.00000000000E+00 0.  1.
         24    2    1    2    0    0 -0.30353172726E+03  0.11110541606E+04  0.19092046778E+04  0.22311610109E+04  0.80275135406E+02 0.  0.
        254    2    1    2    0    0  0.30353172726E+03 -0.11110541606E+04  0.40955044363E+03  0.15152757300E+04  0.89540835082E+03 0.  0.
         23    2    4    4    0    0 -0.24132834922E+03 -0.69464734834E+03  0.35444678015E+03  0.82127918182E+03  0.89959234373E+02 0.  0.
         23    2    4    4    0    0  0.54486007647E+03 -0.41640681229E+03  0.55103663478E+02  0.69399654816E+03  0.91256007356E+02 0.  0.
          4    1    3    3  502    0 -0.23887498581E+03  0.88067533055E+03  0.15728120970E+04  0.18183476536E+04  0.00000000000E+00 0. -1.
         -3    1    3    3    0  502 -0.64656741450E+02  0.23037883008E+03  0.33639258080E+03  0.41281335731E+03  0.00000000000E+00 0.  1.
         13    1    5    5    0    0 -0.21583846114E+03 -0.67500358629E+03  0.33860656805E+03  0.78541103299E+03  0.00000000000E+00 0. -1.
        -13    1    5    5    0    0 -0.25489888078E+02 -0.19643762050E+02  0.15840212097E+02  0.35868148837E+02  0.00000000000E+00 0.  1.
          4    1    6    6  503    0  0.44826706675E+03 -0.32522863534E+03  0.77746833505E+02  0.55925092624E+03  0.00000000000E+00 0. -1.
         -4    1    6    6    0  503  0.96593009722E+02 -0.91178176949E+02 -0.22643170027E+02  0.13474562192E+03  0.00000000000E+00 0.  1.
<mgrwt>
<rscale>  0 0.29426456E+04</rscale>
<asrwt>0</asrwt>
<pdfrwt beam="1">  1        2 0.46655321E+00 0.29426456E+04</pdfrwt>
<pdfrwt beam="2">  1       -1 0.10982166E+00 0.29426456E+04</pdfrwt>
<totfact> 0.12427202E+00</totfact>
</mgrwt>
</event>
<event>
12    7  0.1611233E-007  0.3027206E+04  0.7818608E-02  0.8236004E-01
         -1   -1    0    0    0  501 -0.00000000000E+00  0.00000000000E+00  0.18990140619E+04  0.18990140619E+04  0.00000000000E+00 0.  1.
          2   -1    0    0  501    0  0.00000000000E+00 -0.00000000000E+00 -0.12064126447E+04  0.12064126447E+04  0.00000000000E+00 0. -1.
         24    2    1    2    0    0  0.87209826596E+03 -0.10712836111E+04  0.38217794901E+03  0.14354304680E+04  0.78719011462E+02 0.  0.
        254    2    1    2    0    0 -0.87209826596E+03  0.10712836111E+04  0.31042346814E+03  0.16699962387E+04  0.88561884954E+03 0.  0.
         23    2    4    4    0    0 -0.21721084598E+03  0.69364137165E+03 -0.19265732659E+03  0.75735113884E+03  0.90249642315E+02 0.  0.
         23    2    4    4    0    0 -0.65488741998E+03  0.37764223944E+03  0.50308079473E+03  0.91264509981E+03  0.91321401241E+02 0.  0.
          2    1    3    3  502    0  0.34726313180E+03 -0.37771698017E+03  0.11878722493E+03  0.52666137566E+03  0.00000000000E+00 0. -1.
         -1    1    3    3    0  502  0.52483513417E+03 -0.69356663093E+03  0.26339072408E+03  0.90876909230E+03  0.00000000000E+00 0.  1.
         13    1    5    5    0    0 -0.19753900922E+03  0.52648751606E+03 -0.12563549453E+03  0.57619010944E+03  0.00000000000E+00 0.  1.
        -13    1    5    5    0    0 -0.19671836758E+02  0.16715385559E+03 -0.67021832069E+02  0.18116102940E+03  0.00000000000E+00 0. -1.
          3    1    6    6  503    0 -0.30574109569E+02  0.43962803814E+02  0.37343581082E+02  0.65284357569E+02  0.00000000000E+00 0. -1.
         -3    1    6    6    0  503 -0.62431331041E+03  0.33367943563E+03  0.46573721365E+03  0.84736074225E+03  0.00000000000E+00 0.  1.
<mgrwt>
<rscale>  0 0.30272064E+04</rscale>
<asrwt>0</asrwt>
<pdfrwt beam="1">  1        2 0.18560195E+00 0.30272064E+04</pdfrwt>
<pdfrwt beam="2">  1       -1 0.29215601E+00 0.30272064E+04</pdfrwt>
<totfact> 0.67816418E-01</totfact>
</mgrwt>
</event>
<event>
12    7  0.1611233E-007  0.1515142E+04  0.7818608E-02  0.8874446E-01
          2   -1    0    0  501    0  0.00000000000E+00  0.00000000000E+00  0.17200913516E+04  0.17200913516E+04  0.00000000000E+00 0. -1.
         -1   -1    0    0    0  501 -0.00000000000E+00 -0.00000000000E+00 -0.33365296066E+03  0.33365296066E+03  0.00000000000E+00 0.  1.
         24    2    1    2    0    0  0.49910758376E+03 -0.69400040853E+02  0.33040768854E+03  0.60791033216E+03  0.80380255409E+02 0.  0.
        254    2    1    2    0    0 -0.49910758376E+03  0.69400040853E+02  0.10560307024E+04  0.14458339801E+04  0.84929989272E+03 0.  0.
         23    2    4    4    0    0 -0.30156229332E+03  0.35676945591E+03  0.19810128509E+03  0.51513066559E+03  0.88832550648E+02 0.  0.
         23    2    4    4    0    0 -0.19754529044E+03 -0.28736941505E+03  0.85792941733E+03  0.93070331453E+03  0.92522711165E+02 0.  0.
          4    1    3    3  502    0  0.73618587206E+02 -0.27352366883E+02  0.81464973984E+02  0.11315648608E+03  0.00000000000E+00 0. -1.
         -3    1    3    3    0  502  0.42548899656E+03 -0.42047673970E+02  0.24894271456E+03  0.49475384608E+03  0.00000000000E+00 0.  1.
         13    1    5    5    0    0 -0.13116926880E+03  0.20859853647E+03  0.73058154188E+02  0.25701404706E+03  0.00000000000E+00 0. -1.
        -13    1    5    5    0    0 -0.17039302452E+03  0.14817091943E+03  0.12504313091E+03  0.25811661852E+03  0.00000000000E+00 0.  1.
          4    1    6    6  503    0 -0.16273406878E+03 -0.16652787027E+03  0.50661748880E+03  0.55756182498E+03  0.00000000000E+00 0. -1.
         -4    1    6    6    0  503 -0.34811221666E+02 -0.12084154479E+03  0.35131192852E+03  0.37314148955E+03  0.00000000000E+00 0.  1.
<mgrwt>
<rscale>  0 0.15151417E+04</rscale>
<asrwt>0</asrwt>
<pdfrwt beam="1">  1        2 0.26462943E+00 0.15151417E+04</pdfrwt>
<pdfrwt beam="2">  1       -1 0.51331226E-01 0.15151417E+04</pdfrwt>
<totfact> 0.40111126E+01</totfact>
</mgrwt>
</event>
<event>
12    7  0.1611233E-007  0.1563044E+04  0.7818608E-02  0.8843579E-01
         -3   -1    0    0    0  501 -0.00000000000E+00  0.00000000000E+00  0.11357104158E+04  0.11357104158E+04  0.00000000000E+00 0.  1.
          2   -1    0    0  501    0  0.00000000000E+00 -0.00000000000E+00 -0.53779238533E+03  0.53779238533E+03  0.00000000000E+00 0. -1.
         24    2    1    2    0    0 -0.23786141221E+03  0.26416566250E+03  0.59207927491E+03  0.69518141950E+03  0.79735748425E+02 0.  0.
        254    2    1    2    0    0  0.23786141221E+03 -0.26416566250E+03  0.58387555756E+01  0.97832138165E+03  0.91143682505E+03 0.  0.
         23    2    4    4    0    0 -0.15403526066E+02  0.85701447277E+02  0.37876326062E+03  0.40007914451E+03  0.94972141138E+02 0.  0.
         23    2    4    4    0    0  0.25326493828E+03 -0.34986710978E+03 -0.37292450505E+03  0.57824223714E+03  0.93494785324E+02 0.  0.
          2    1    3    3  502    0 -0.66977793245E+02  0.33597232750E+02  0.92558656321E+02  0.11908779827E+03  0.00000000000E+00 0. -1.
         -1    1    3    3    0  502 -0.17088361896E+03  0.23056842975E+03  0.49952061859E+03  0.57609362123E+03  0.00000000000E+00 0.  1.
         13    1    5    5    0    0  0.60452364828E+01  0.93474230790E+02  0.21211526543E+03  0.23187682621E+03  0.00000000000E+00 0.  1.
        -13    1    5    5    0    0 -0.21448762548E+02 -0.77727835127E+01  0.16664799519E+03  0.16820231829E+03  0.00000000000E+00 0. -1.
          3    1    6    6  503    0 -0.56909665054E+01 -0.53929378674E+01  0.70808298267E+00  0.78722461926E+01  0.00000000000E+00 0. -1.
         -3    1    6    6    0  503  0.25895590478E+03 -0.34447417191E+03 -0.37363258803E+03  0.57036999095E+03  0.00000000000E+00 0.  1.
<mgrwt>
<rscale>  0 0.15630437E+04</rscale>
<asrwt>0</asrwt>
<pdfrwt beam="1">  1        2 0.82737290E-01 0.15630437E+04</pdfrwt>
<pdfrwt beam="2">  1       -3 0.17472468E+00 0.15630437E+04</pdfrwt>
<totfact> 0.73146103E+00</totfact>
</mgrwt>
</event>
<event>
12    7  0.1611233E-007  0.1183928E+04  0.7818608E-02  0.9127042E-01
         -1   -1    0    0    0  501 -0.00000000000E+00  0.00000000000E+00  0.23009029497E+03  0.23009029497E+03  0.00000000000E+00 0.  1.
          2   -1    0    0  501    0  0.00000000000E+00 -0.00000000000E+00 -0.15229725789E+04  0.15229725789E+04  0.00000000000E+00 0. -1.
         24    2    1    2    0    0 -0.60317633301E+02 -0.25156604802E+02 -0.64690346961E+03  0.65511562648E+03  0.80133098120E+02 0.  0.
        254    2    1    2    0    0  0.60317633301E+02  0.25156604802E+02 -0.64597881435E+03  0.10979472474E+04  0.88539734464E+03 0.  0.
         23    2    4    4    0    0  0.44598634807E+03  0.13658711490E+03 -0.37052992502E+03  0.60255532734E+03  0.90667715013E+02 0.  0.
         23    2    4    4    0    0 -0.38566871477E+03 -0.11143051010E+03 -0.27544888933E+03  0.49539192009E+03  0.91563899666E+02 0.  0.
          2    1    3    3  502    0  0.15055874192E+02 -0.41393475456E+01 -0.25495113978E+03  0.25542884962E+03  0.00000000000E+00 0. -1.
         -1    1    3    3    0  502 -0.75373507493E+02 -0.21017257256E+02 -0.39195232984E+03  0.39968677686E+03  0.00000000000E+00 0.  1.
         13    1    5    5    0    0  0.21911514524E+03  0.31554003391E+02 -0.21206455575E+03  0.30655909350E+03  0.00000000000E+00 0. -1.
        -13    1    5    5    0    0  0.22687120283E+03  0.10503311151E+03 -0.15846536927E+03  0.29599623384E+03  0.00000000000E+00 0.  1.
          1    1    6    6  503    0 -0.66464977982E+02  0.14132973611E+02 -0.34480575317E+02  0.76198715970E+02  0.00000000000E+00 0. -1.
         -1    1    6    6    0  503 -0.31920373679E+03 -0.12556348371E+03 -0.24096831402E+03  0.41919320412E+03  0.00000000000E+00 0.  1.
<mgrwt>
<rscale>  0 0.11839277E+04</rscale>
<asrwt>0</asrwt>
<pdfrwt beam="1">  1        2 0.23430347E+00 0.11839277E+04</pdfrwt>
<pdfrwt beam="2">  1       -1 0.35398508E-01 0.11839277E+04</pdfrwt>
<totfact> 0.10537771E+02</totfact>
</mgrwt>
</event>
<event>
12    7  0.1611233E-007  0.1194054E+04  0.7818608E-02  0.9118077E-01
         -1   -1    0    0    0  501 -0.00000000000E+00  0.00000000000E+00  0.25166664369E+03  0.25166664369E+03  0.00000000000E+00 0.  1.
          2   -1    0    0  501    0  0.00000000000E+00 -0.00000000000E+00 -0.14163236664E+04  0.14163236664E+04  0.00000000000E+00 0. -1.
         24    2    1    2    0    0  0.78473672081E+02 -0.55047230925E+02  0.62834665062E+02  0.13944447667E+03  0.79424505650E+02 0.  0.
        254    2    1    2    0    0 -0.78473672081E+02  0.55047230925E+02 -0.12274916878E+04  0.15285458334E+04  0.90583012010E+03 0.  0.
         23    2    4    4    0    0  0.27989899327E+03 -0.27722969129E+03 -0.44570557461E+03  0.60201412368E+03  0.92562398972E+02 0.  0.
         23    2    4    4    0    0 -0.35837266535E+03  0.33227692221E+03 -0.78178611318E+03  0.92653170976E+03  0.91828982998E+02 0.  0.
          2    1    3    3  502    0  0.68165313219E+02 -0.42772948413E+02  0.63436231699E+01  0.80723457539E+02  0.00000000000E+00 0. -1.
         -1    1    3    3    0  502  0.10308358862E+02 -0.12274282512E+02  0.56491041892E+02  0.58721019130E+02  0.00000000000E+00 0.  1.
         13    1    5    5    0    0  0.76295571457E+02 -0.13592622662E+03 -0.15200332351E+03  0.21771992023E+03  0.00000000000E+00 0.  1.
        -13    1    5    5    0    0  0.20360342182E+03 -0.14130346466E+03 -0.29370225110E+03  0.38429420344E+03  0.00000000000E+00 0. -1.
          1    1    6    6  503    0 -0.19722398992E+03  0.12123199315E+03 -0.37802850267E+03  0.44328325842E+03  0.00000000000E+00 0. -1.
         -1    1    6    6    0  503 -0.16114867543E+03  0.21104492907E+03 -0.40375761051E+03  0.48324845134E+03  0.00000000000E+00 0.  1.
<mgrwt>
<rscale>  0 0.11940543E+04</rscale>
<asrwt>0</asrwt>
<pdfrwt beam="1">  1        2 0.21789595E+00 0.11940543E+04</pdfrwt>
<pdfrwt beam="2">  1       -1 0.38717946E-01 0.11940543E+04</pdfrwt>
<totfact> 0.10293094E+02</totfact>
</mgrwt>
</event>
<event>
12    7  0.1611233E-007  0.1664950E+04  0.7818608E-02  0.8781611E-01
         -1   -1    0    0    0  501 -0.00000000000E+00  0.00000000000E+00  0.10621158241E+04  0.10621158241E+04  0.00000000000E+00 0.  1.
          2   -1    0    0  501    0  0.00000000000E+00 -0.00000000000E+00 -0.65248478119E+03  0.65248478119E+03  0.00000000000E+00 0. -1.
         24    2    1    2    0    0 -0.34580088312E+03 -0.12552550710E+01 -0.33711954391E+03  0.48965039736E+03  0.80796647913E+02 0.  0.
        254    2    1    2    0    0  0.34580088312E+03  0.12552550710E+01  0.74675058682E+03  0.12249502079E+04  0.90735150110E+03 0.  0.
         23    2    4    4    0    0  0.43390563897E+03  0.36752959181E+03  0.52025136089E+03  0.77611406883E+03  0.91320670987E+02 0.  0.
         23    2    4    4    0    0 -0.88104755850E+02 -0.36627433674E+03  0.22649922593E+03  0.44883613910E+03  0.90733911268E+02 0.  0.
          4    1    3    3  502    0 -0.28498152739E+03 -0.26431040845E+02 -0.29751838986E+03  0.41283200358E+03  0.00000000000E+00 0. -1.
         -3    1    3    3    0  502 -0.60819355724E+02  0.25175785774E+02 -0.39601154051E+02  0.76818393775E+02  0.00000000000E+00 0.  1.
         13    1    5    5    0    0  0.15500245366E+03  0.17130485353E+03  0.16658396105E+03  0.28481806397E+03  0.00000000000E+00 0. -1.
        -13    1    5    5    0    0  0.27890318531E+03  0.19622473828E+03  0.35366739984E+03  0.49129600486E+03  0.00000000000E+00 0.  1.
          1    1    6    6  503    0 -0.13143985136E+02 -0.39798724339E+02  0.64068958246E+02  0.76560657095E+02  0.00000000000E+00 0. -1.
         -1    1    6    6    0  503 -0.74960770714E+02 -0.32647561240E+03  0.16243026769E+03  0.37227548200E+03  0.00000000000E+00 0.  1.
<mgrwt>
<rscale>  0 0.16649497E+04</rscale>
<asrwt>0</asrwt>
<pdfrwt beam="1">  1        2 0.10038227E+00 0.16649497E+04</pdfrwt>
<pdfrwt beam="2">  1       -1 0.16340243E+00 0.16649497E+04</pdfrwt>
<totfact> 0.13434579E+01</totfact>
</mgrwt>
</event>
<event>
12    7  0.1611233E-007  0.1727259E+04  0.7818608E-02  0.8745968E-01
          2   -1    0    0  501    0  0.00000000000E+00  0.00000000000E+00  0.12707697309E+04  0.12707697309E+04  0.00000000000E+00 0. -1.
         -1   -1    0    0    0  501 -0.00000000000E+00 -0.00000000000E+00 -0.58693240963E+03  0.58693240963E+03  0.00000000000E+00 0.  1.
         24    2    1    2    0    0  0.13284580578E+03  0.11396972338E+03 -0.41716800349E+03  0.45862488912E+03  0.75302986827E+02 0.  0.
        254    2    1    2    0    0 -0.13284580578E+03 -0.11396972338E+03  0.11010053248E+04  0.13990772514E+04  0.84532084106E+03 0.  0.
         23    2    4    4    0    0  0.51497953701E+02  0.13681930423E+03  0.10579969892E+04  0.10719130327E+04  0.90930518529E+02 0.  0.
         23    2    4    4    0    0 -0.18434375948E+03 -0.25078902761E+03  0.43008335581E+02  0.32716421877E+03  0.91153448023E+02 0.  0.
          4    1    3    3  502    0  0.71647389752E+01 -0.65709360943E+01 -0.44894984628E+01  0.10708234317E+02  0.00000000000E+00 0. -1.
         -3    1    3    3    0  502  0.12568106681E+03  0.12054065948E+03 -0.41267850502E+03  0.44791665480E+03  0.00000000000E+00 0.  1.
         13    1    5    5    0    0  0.30252407743E+02  0.73889168902E+02  0.28218417871E+03  0.29326221742E+03  0.00000000000E+00 0.  1.
        -13    1    5    5    0    0  0.21245545958E+02  0.62930135325E+02  0.77581281048E+03  0.77865081523E+03  0.00000000000E+00 0. -1.
          2    1    6    6  503    0 -0.11330399485E+03 -0.21292409805E+03  0.14012811896E+02  0.24160054982E+03  0.00000000000E+00 0. -1.
         -2    1    6    6    0  503 -0.71039764635E+02 -0.37864929559E+02  0.28995523684E+02  0.85563668947E+02  0.00000000000E+00 0.  1.
<mgrwt>
<rscale>  0 0.17272590E+04</rscale>
<asrwt>0</asrwt>
<pdfrwt beam="1">  1        2 0.19550304E+00 0.17272590E+04</pdfrwt>
<pdfrwt beam="2">  1       -1 0.90297294E-01 0.17272590E+04</pdfrwt>
<totfact> 0.22324646E+01</totfact>
</mgrwt>
</event>
<event>
12    7  0.1611233E-007  0.2235302E+04  0.7818608E-02  0.8503877E-01
         -1   -1    0    0    0  501 -0.00000000000E+00  0.00000000000E+00  0.33097203177E+03  0.33097203177E+03  0.00000000000E+00 0.  1.
          2   -1    0    0  501    0  0.00000000000E+00 -0.00000000000E+00 -0.37741665183E+04  0.37741665183E+04  0.00000000000E+00 0. -1.
         24    2    1    2    0    0  0.27012992196E+03  0.66256739983E+03 -0.25484490647E+04  0.26481164024E+04  0.77214706773E+02 0.  0.
        254    2    1    2    0    0 -0.27012992196E+03 -0.66256739983E+03 -0.89474542179E+03  0.14570221477E+04  0.90021021710E+03 0.  0.
         23    2    4    4    0    0  0.28008971303E+03 -0.31254611281E+03 -0.13224179660E+03  0.44949572254E+03  0.91777948512E+02 0.  0.
         23    2    4    4    0    0 -0.55021963499E+03 -0.35002128701E+03 -0.76250362519E+03  0.10075264251E+04  0.91875844738E+02 0.  0.
          4    1    3    3  502    0  0.14543864286E+03  0.37366867419E+03 -0.15652511179E+04  0.16157944606E+04  0.00000000000E+00 0. -1.
         -3    1    3    3    0  502  0.12469127910E+03  0.28889872563E+03 -0.98319794683E+03  0.10323219417E+04  0.00000000000E+00 0.  1.
         13    1    5    5    0    0  0.26987153999E+03 -0.30267567571E+03 -0.14474100133E+03  0.43057307188E+03  0.00000000000E+00 0.  1.
        -13    1    5    5    0    0  0.10218173041E+02 -0.98704371050E+01  0.12499204735E+02  0.18922650659E+02  0.00000000000E+00 0. -1.
          4    1    6    6  503    0 -0.74992320046E+02 -0.83805872757E+02 -0.10690474693E+03  0.15516409794E+03  0.00000000000E+00 0. -1.
         -4    1    6    6    0  503 -0.47522731494E+03 -0.26621541426E+03 -0.65559887826E+03  0.85236232720E+03  0.00000000000E+00 0.  1.
<mgrwt>
<rscale>  0 0.22353018E+04</rscale>
<asrwt>0</asrwt>
<pdfrwt beam="1">  1        2 0.58064096E+00 0.22353018E+04</pdfrwt>
<pdfrwt beam="2">  1       -1 0.50918778E-01 0.22353018E+04</pdfrwt>
<totfact> 0.20756084E+00</totfact>
</mgrwt>
</event>
<event>
12    7  0.1611233E-007  0.1780112E+04  0.7818608E-02  0.8716948E-01
          2   -1    0    0  501    0  0.00000000000E+00  0.00000000000E+00  0.16092757245E+04  0.16092757245E+04  0.00000000000E+00 0. -1.
         -1   -1    0    0    0  501 -0.00000000000E+00 -0.00000000000E+00 -0.49227106391E+03  0.49227106391E+03  0.00000000000E+00 0.  1.
         24    2    1    2    0    0  0.91165880421E+02 -0.60086964665E+03  0.12060485266E+03  0.62470977648E+03  0.79757283856E+02 0.  0.
        254    2    1    2    0    0 -0.91165880421E+02  0.60086964665E+03  0.99639980795E+03  0.14768370120E+04  0.90491957244E+03 0.  0.
         23    2    4    4    0    0  0.23448187814E+03  0.56510872262E+03  0.26685342827E+03  0.67231655245E+03  0.80431181540E+02 0.  0.
         23    2    4    4    0    0 -0.32564775856E+03  0.35760924028E+02  0.72954637968E+03  0.80452045951E+03  0.87692321885E+02 0.  0.
          4    1    3    3  502    0  0.68992506718E+02 -0.42094971865E+03  0.47345933381E+02  0.42918558808E+03  0.00000000000E+00 0. -1.
         -3    1    3    3    0  502  0.22173373703E+02 -0.17991992800E+03  0.73258919280E+02  0.19552418839E+03  0.00000000000E+00 0.  1.
         13    1    5    5    0    0  0.20728916607E+03  0.43194407925E+03  0.18452941933E+03  0.51341561387E+03  0.00000000000E+00 0. -1.
        -13    1    5    5    0    0  0.27192712066E+02  0.13316464337E+03  0.82324008938E+02  0.15890093858E+03  0.00000000000E+00 0.  1.
          1    1    6    6  503    0 -0.63409920578E+02  0.15933902423E+02  0.24072163386E+03  0.24944260319E+03  0.00000000000E+00 0. -1.
         -1    1    6    6    0  503 -0.26223783798E+03  0.19827021606E+02  0.48882474582E+03  0.55507785632E+03  0.00000000000E+00 0.  1.
<mgrwt>
<rscale>  0 0.17801122E+04</rscale>
<asrwt>0</asrwt>
<pdfrwt beam="1">  1        2 0.24758088E+00 0.17801122E+04</pdfrwt>
<pdfrwt beam="2">  1       -1 0.75734011E-01 0.17801122E+04</pdfrwt>
<totfact> 0.20793470E+01</totfact>
</mgrwt>
</event>
<event>
12    7  0.1611233E-007  0.1435166E+04  0.7818608E-02  0.8928750E-01
          2   -1    0    0  501    0  0.00000000000E+00  0.00000000000E+00  0.83371801654E+03  0.83371801654E+03  0.00000000000E+00 0. -1.
         -1   -1    0    0    0  501 -0.00000000000E+00 -0.00000000000E+00 -0.61762490344E+03  0.61762490344E+03  0.00000000000E+00 0.  1.
         24    2    1    2    0    0 -0.32535297790E+03 -0.60384156369E+02  0.37926756596E+03  0.50950424215E+03  0.79056180094E+02 0.  0.
        254    2    1    2    0    0  0.32535297790E+03  0.60384156369E+02 -0.16317445286E+03  0.94183867784E+03  0.86656412713E+03 0.  0.
         23    2    4    4    0    0  0.21919356285E+03  0.25255419142E+03 -0.45094593028E+03  0.56894181048E+03  0.92266538223E+02 0.  0.
         23    2    4    4    0    0  0.10615941505E+03 -0.19217003505E+03  0.28777147742E+03  0.37289686735E+03  0.89668872485E+02 0.  0.
          2    1    3    3  502    0 -0.14808232727E+03 -0.34229265613E+02  0.23303856977E+03  0.27822112299E+03  0.00000000000E+00 0. -1.
         -1    1    3    3    0  502 -0.17727065062E+03 -0.26154890756E+02  0.14622899619E+03  0.23128311917E+03  0.00000000000E+00 0.  1.
         13    1    5    5    0    0  0.17130636995E+02  0.71087500839E+02 -0.12349846904E+03  0.14352269282E+03  0.00000000000E+00 0.  1.
        -13    1    5    5    0    0  0.20206292586E+03  0.18146669058E+03 -0.32744746124E+03  0.42541911766E+03  0.00000000000E+00 0. -1.
          2    1    6    6  503    0  0.98574140242E+02 -0.86485616260E+02  0.16321790512E+03  0.20937217460E+03  0.00000000000E+00 0.  1.
         -2    1    6    6    0  503  0.75852748066E+01 -0.10568441879E+03  0.12455357230E+03  0.16352469276E+03  0.00000000000E+00 0. -1.
<mgrwt>
<rscale>  0 0.14351655E+04</rscale>
<asrwt>0</asrwt>
<pdfrwt beam="1">  1        2 0.12826431E+00 0.14351655E+04</pdfrwt>
<pdfrwt beam="2">  1       -1 0.95019215E-01 0.14351655E+04</pdfrwt>
<totfact> 0.38666746E+01</totfact>
</mgrwt>
</event>
<event>
12    7  0.1611233E-007  0.2547272E+04  0.7818608E-02  0.8386336E-01
         -1   -1    0    0    0  501 -0.00000000000E+00  0.00000000000E+00  0.55010522024E+03  0.55010522024E+03  0.00000000000E+00 0.  1.
          2   -1    0    0  501    0  0.00000000000E+00 -0.00000000000E+00 -0.29487967018E+04  0.29487967018E+04  0.00000000000E+00 0. -1.
         24    2    1    2    0    0  0.62521547371E+03 -0.57363282520E+03 -0.20413104970E+04  0.22120833764E+04  0.80095644504E+02 0.  0.
        254    2    1    2    0    0 -0.62521547371E+03  0.57363282520E+03 -0.35738098453E+03  0.12868185456E+04  0.89901712693E+03 0.  0.
         23    2    4    4    0    0 -0.81923716566E+03  0.55857593449E+03 -0.19653179814E+03  0.10149312399E+04  0.91126647395E+02 0.  0.
         23    2    4    4    0    0  0.19402169195E+03  0.15056890709E+02 -0.16084918640E+03  0.27188730571E+03  0.10089162174E+03 0.  0.
          2    1    3    3  502    0  0.40785214855E+03 -0.33501091467E+03 -0.13332111908E+04  0.14338855489E+04  0.00000000000E+00 0. -1.
         -1    1    3    3    0  502  0.21736332516E+03 -0.23862191053E+03 -0.70809930622E+03  0.77819782754E+03  0.00000000000E+00 0.  1.
         13    1    5    5    0    0 -0.55622680006E+03  0.42908304339E+03 -0.14395118665E+03  0.71709305907E+03  0.00000000000E+00 0.  1.
        -13    1    5    5    0    0 -0.26301036560E+03  0.12949289111E+03 -0.52580611483E+02  0.29783818083E+03  0.00000000000E+00 0. -1.
          3    1    6    6  503    0  0.48053785810E+02 -0.34757593409E+02 -0.18822732920E+02  0.62221796059E+02  0.00000000000E+00 0. -1.
         -3    1    6    6    0  503  0.14596790614E+03  0.49814484118E+02 -0.14202645348E+03  0.20966550965E+03  0.00000000000E+00 0.  1.
<mgrwt>
<rscale>  0 0.25472718E+04</rscale>
<asrwt>0</asrwt>
<pdfrwt beam="1">  1        2 0.45366102E+00 0.25472718E+04</pdfrwt>
<pdfrwt beam="2">  1       -1 0.84631574E-01 0.25472718E+04</pdfrwt>
<totfact> 0.26166967E+00</totfact>
</mgrwt>
</event>
<event>
12    7  0.1611233E-007  0.1719923E+04  0.7818608E-02  0.8750083E-01
          2   -1    0    0  501    0  0.00000000000E+00  0.00000000000E+00  0.47455702952E+03  0.47455702952E+03  0.00000000000E+00 0. -1.
         -1   -1    0    0    0  501 -0.00000000000E+00 -0.00000000000E+00 -0.15583659870E+04  0.15583659870E+04  0.00000000000E+00 0.  1.
         24    2    1    2    0    0  0.50868639764E+03 -0.30226193058E+03 -0.17266526302E+03  0.62121861737E+03  0.77299105361E+02 0.  0.
        254    2    1    2    0    0 -0.50868639764E+03  0.30226193058E+03 -0.91114369446E+03  0.14117043992E+04  0.90144459221E+03 0.  0.
         23    2    4    4    0    0 -0.62080055753E+03 -0.97058095739E+02 -0.67289245268E+03  0.92530641385E+03  0.92704371351E+02 0.  0.
         23    2    4    4    0    0  0.11211415989E+03  0.39932002632E+03 -0.23825124179E+03  0.48639798530E+03  0.88279542545E+02 0.  0.
          2    1    3    3  502    0  0.29020507951E+03 -0.18225769308E+03 -0.13849489621E+03  0.36961830465E+03  0.00000000000E+00 0. -1.
         -1    1    3    3    0  502  0.21848131814E+03 -0.12000423750E+03 -0.34170366817E+02  0.25160031272E+03  0.00000000000E+00 0.  1.
         13    1    5    5    0    0 -0.50851103627E+03 -0.85599612655E+02 -0.49613518164E+03  0.71558429703E+03  0.00000000000E+00 0. -1.
        -13    1    5    5    0    0 -0.11228952126E+03 -0.11458483084E+02 -0.17675727104E+03  0.20972211683E+03  0.00000000000E+00 0.  1.
          4    1    6    6  503    0  0.99783673613E+02  0.33833288979E+03 -0.16250674289E+03  0.38837400444E+03  0.00000000000E+00 0.  1.
         -4    1    6    6    0  503  0.12330486275E+02  0.60987136521E+02 -0.75744498892E+02  0.98023980868E+02  0.00000000000E+00 0. -1.
<mgrwt>
<rscale>  0 0.17199227E+04</rscale>
<asrwt>0</asrwt>
<pdfrwt beam="1">  1        2 0.73008774E-01 0.17199227E+04</pdfrwt>
<pdfrwt beam="2">  1       -1 0.23974861E+00 0.17199227E+04</pdfrwt>
<totfact> 0.57826841E+00</totfact>
</mgrwt>
</event>
<event>
12    7  0.1611233E-007  0.1929549E+04  0.7818608E-02  0.8640286E-01
         -1   -1    0    0    0  501 -0.00000000000E+00  0.00000000000E+00  0.22826146113E+03  0.22826146113E+03  0.00000000000E+00 0.  1.
          2   -1    0    0  501    0  0.00000000000E+00 -0.00000000000E+00 -0.40777354535E+04  0.40777354535E+04  0.00000000000E+00 0. -1.
         24    2    1    2    0    0 -0.60712169705E+03 -0.42750065765E+03 -0.12403725966E+04  0.14481336017E+04  0.84930458684E+02 0.  0.
        254    2    1    2    0    0  0.60712169705E+03  0.42750065765E+03 -0.26091013958E+04  0.28578633129E+04  0.89923248070E+03 0.  0.
         23    2    4    4    0    0  0.24718823215E+03  0.34582744426E+03 -0.23681257374E+04  0.24076191333E+04  0.88947959893E+02 0.  0.
         23    2    4    4    0    0  0.35993346490E+03  0.81673213398E+02 -0.24097565836E+03  0.45024417956E+03  0.91803814576E+02 0.  0.
          4    1    3    3  502    0 -0.48109323563E+03 -0.36226488068E+03 -0.94757104000E+03  0.11227543903E+04  0.00000000000E+00 0. -1.
         -3    1    3    3    0  502 -0.12602846143E+03 -0.65235776972E+02 -0.29280155658E+03  0.32537921142E+03  0.00000000000E+00 0.  1.
         13    1    5    5    0    0  0.84660825369E+02  0.19073830893E+03 -0.12205547180E+04  0.12382658751E+04  0.00000000000E+00 0.  1.
        -13    1    5    5    0    0  0.16252740679E+03  0.15508913532E+03 -0.11475710194E+04  0.11693532582E+04  0.00000000000E+00 0. -1.
          3    1    6    6  503    0  0.12221984142E+03  0.16071342762E+02 -0.32896226472E+02  0.12758581195E+03  0.00000000000E+00 0. -1.
         -3    1    6    6    0  503  0.23771362348E+03  0.65601870636E+02 -0.20807943188E+03  0.32265836761E+03  0.00000000000E+00 0.  1.
<mgrwt>
<rscale>  0 0.19295490E+04</rscale>
<asrwt>0</asrwt>
<pdfrwt beam="1">  1        2 0.62734385E+00 0.19295490E+04</pdfrwt>
<pdfrwt beam="2">  1       -1 0.35117151E-01 0.19295490E+04</pdfrwt>
<totfact> 0.24544169E+00</totfact>
</mgrwt>
</event>
<event>
12    7  0.1611233E-007  0.2893247E+04  0.7818608E-02  0.8274889E-01
          2   -1    0    0  501    0  0.00000000000E+00  0.00000000000E+00  0.17294786657E+04  0.17294786657E+04  0.00000000000E+00 0. -1.
         -1   -1    0    0    0  501 -0.00000000000E+00 -0.00000000000E+00 -0.12100293336E+04  0.12100293336E+04  0.00000000000E+00 0.  1.
         24    2    1    2    0    0 -0.13249005163E+03 -0.10918575121E+04  0.92456859347E+03  0.14390057009E+04  0.78764731027E+02 0.  0.
        254    2    1    2    0    0  0.13249005163E+03  0.10918575121E+04 -0.40511926134E+03  0.15005022983E+04  0.93684528656E+03 0.  0.
         23    2    4    4    0    0 -0.24041539349E+03  0.97502490947E+03 -0.43561374275E+03  0.10984607732E+04  0.91562011045E+02 0.  0.
         23    2    4    4    0    0  0.37290544512E+03  0.11683260262E+03  0.30494481406E+02  0.40204152515E+03  0.89437947829E+02 0.  0.
          2    1    3    3  502    0 -0.12908061954E+03 -0.10609734904E+04  0.91359864440E+03  0.14060544217E+04  0.00000000000E+00 0. -1.
         -1    1    3    3    0  502 -0.34094320919E+01 -0.30884021711E+02  0.10969949071E+02  0.32951279290E+02  0.00000000000E+00 0.  1.
         13    1    5    5    0    0 -0.24522970973E+03  0.92162392369E+03 -0.40053101445E+03  0.10343854991E+04  0.00000000000E+00 0.  1.
        -13    1    5    5    0    0  0.48143162440E+01  0.53400985777E+02 -0.35082728294E+02  0.64075274072E+02  0.00000000000E+00 0. -1.
          3    1    6    6  503    0  0.12284395683E+03 -0.15509416103E+01  0.24701677144E+02  0.12531247345E+03  0.00000000000E+00 0. -1.
         -3    1    6    6    0  503  0.25006148829E+03  0.11838354423E+03  0.57928042619E+01  0.27672905170E+03  0.00000000000E+00 0.  1.
<mgrwt>
<rscale>  0 0.28932473E+04</rscale>
<asrwt>0</asrwt>
<pdfrwt beam="1">  1        2 0.26607364E+00 0.28932473E+04</pdfrwt>
<pdfrwt beam="2">  1       -1 0.18615836E+00 0.28932473E+04</pdfrwt>
<totfact> 0.17457627E+00</totfact>
</mgrwt>
</event>
<event>
12    7  0.1611233E-007  0.3267695E+04  0.7818608E-02  0.8171164E-01
          2   -1    0    0  501    0  0.00000000000E+00  0.00000000000E+00  0.18605756457E+04  0.18605756457E+04  0.00000000000E+00 0. -1.
         -1   -1    0    0    0  501 -0.00000000000E+00 -0.00000000000E+00 -0.14347485483E+04  0.14347485483E+04  0.00000000000E+00 0.  1.
         24    2    1    2    0    0 -0.53193572293E+03 -0.11668658575E+04  0.98587251622E+03  0.16194444770E+04  0.78257606766E+02 0.  0.
        254    2    1    2    0    0  0.53193572293E+03  0.11668658575E+04 -0.56004541886E+03  0.16758797170E+04  0.92216615202E+03 0.  0.
         23    2    4    4    0    0 -0.35072857203E+02  0.83797479391E+03 -0.56390271736E+03  0.10145942873E+04  0.89350056755E+02 0.  0.
         23    2    4    4    0    0  0.56700858014E+03  0.32889106358E+03  0.38572984956E+01  0.66128542969E+03  0.87266712535E+02 0.  0.
          4    1    3    3  502    0 -0.50404566622E+03 -0.11130333546E+04  0.91691976286E+03  0.15276279434E+04  0.00000000000E+00 0. -1.
         -3    1    3    3    0  502 -0.27890056714E+02 -0.53832502916E+02  0.68952753359E+02  0.91816533530E+02  0.00000000000E+00 0.  1.
         13    1    5    5    0    0 -0.53801791816E+02  0.70078208804E+03 -0.49700166739E+03  0.86081404792E+03  0.00000000000E+00 0.  1.
        -13    1    5    5    0    0  0.18728934613E+02  0.13719270588E+03 -0.66901049975E+02  0.15378023938E+03  0.00000000000E+00 0. -1.
          1    1    6    6  503    0  0.84691924902E+02  0.70980632089E+02 -0.26024081321E+02  0.11352631890E+03  0.00000000000E+00 0. -1.
         -1    1    6    6    0  503  0.48231665524E+03  0.25791043149E+03  0.29881379816E+02  0.54775911079E+03  0.00000000000E+00 0.  1.
<mgrwt>
<rscale>  0 0.32676953E+04</rscale>
<asrwt>0</asrwt>
<pdfrwt beam="1">  1        2 0.28624240E+00 0.32676953E+04</pdfrwt>
<pdfrwt beam="2">  1       -1 0.22073055E+00 0.32676953E+04</pdfrwt>
<totfact> 0.82798032E-01</totfact>
</mgrwt>
</event>
<event>
12    7  0.1611233E-007  0.1344410E+04  0.7818608E-02  0.8995070E-01
          2   -1    0    0  501    0  0.00000000000E+00  0.00000000000E+00  0.33924451990E+03  0.33924451990E+03  0.00000000000E+00 0. -1.
         -3   -1    0    0    0  501 -0.00000000000E+00 -0.00000000000E+00 -0.13319583387E+04  0.13319583387E+04  0.00000000000E+00 0.  1.
         24    2    1    2    0    0  0.22090356454E+03  0.22528487278E+03 -0.47712552961E+02  0.32918588911E+03  0.80840603344E+02 0.  0.
        254    2    1    2    0    0 -0.22090356454E+03 -0.22528487278E+03 -0.94500126580E+03  0.13420169694E+04  0.89912763009E+03 0.  0.
         23    2    4    4    0    0 -0.53470226633E+03 -0.24377046132E+03 -0.76171707028E+03  0.96723425877E+03  0.99993323546E+02 0.  0.
         23    2    4    4    0    0  0.31379870180E+03  0.18485588543E+02 -0.18328419552E+03  0.37478271067E+03  0.89764367407E+02 0.  0.
          2    1    3    3  502    0  0.13506485705E+03  0.12742477775E+03  0.11785454530E+02  0.18606043785E+03  0.00000000000E+00 0. -1.
         -1    1    3    3    0  502  0.85838707486E+02  0.97860095031E+02 -0.59498007491E+02  0.14312545126E+03  0.00000000000E+00 0.  1.
         13    1    5    5    0    0 -0.32622281892E+03 -0.17645122961E+03 -0.54375226959E+03  0.65819669909E+03  0.00000000000E+00 0. -1.
        -13    1    5    5    0    0 -0.20847944742E+03 -0.67319231713E+02 -0.21796480069E+03  0.30903755968E+03  0.00000000000E+00 0.  1.
          3    1    6    6  503    0  0.30028812297E+02 -0.23019747778E+02 -0.80150444416E+01  0.38676598779E+02  0.00000000000E+00 0. -1.
         -3    1    6    6    0  503  0.28376988950E+03  0.41505336321E+02 -0.17526915108E+03  0.33610611189E+03  0.00000000000E+00 0.  1.
<mgrwt>
<rscale>  0 0.13444100E+04</rscale>
<asrwt>0</asrwt>
<pdfrwt beam="1">  1        2 0.52191465E-01 0.13444100E+04</pdfrwt>
<pdfrwt beam="2">  1       -3 0.20491666E+00 0.13444100E+04</pdfrwt>
<totfact> 0.79543741E+00</totfact>
</mgrwt>
</event>
<event>
12    7  0.1611233E-007  0.1114321E+04  0.7818608E-02  0.9191345E-01
         -1   -1    0    0    0  501 -0.00000000000E+00  0.00000000000E+00  0.62284964394E+03  0.62284964394E+03  0.00000000000E+00 0.  1.
          2   -1    0    0  501    0  0.00000000000E+00 -0.00000000000E+00 -0.49839938722E+03  0.49839938722E+03  0.00000000000E+00 0. -1.
         24    2    1    2    0    0 -0.24059384659E+02  0.56482284140E+02  0.20862424383E+03  0.23179603040E+03  0.80226069248E+02 0.  0.
        254    2    1    2    0    0  0.24059384659E+02 -0.56482284140E+02 -0.84173987112E+02  0.88945300076E+03  0.88333022027E+03 0.  0.
         23    2    4    4    0    0  0.31003763529E+02  0.37632739133E+03 -0.19277722564E+03  0.43375617273E+03  0.91639619392E+02 0.  0.
         23    2    4    4    0    0 -0.69443788699E+01 -0.43280967547E+03  0.10860323853E+03  0.45569682802E+03  0.92154739823E+02 0.  0.
          2    1    3    3  502    0 -0.78320652808E+01  0.71347220612E+02  0.11452877965E+03  0.13516141648E+03  0.00000000000E+00 0. -1.
         -1    1    3    3    0  502 -0.16227319378E+02 -0.14864936472E+02  0.94095464171E+02  0.96634613923E+02  0.00000000000E+00 0.  1.
         13    1    5    5    0    0 -0.13862682571E+02  0.27333823823E+03 -0.15865701560E+03  0.31635109458E+03  0.00000000000E+00 0.  1.
        -13    1    5    5    0    0  0.44866446100E+02  0.10298915310E+03 -0.34120210037E+02  0.11740507815E+03  0.00000000000E+00 0. -1.
          3    1    6    6  503    0 -0.17765367646E+02 -0.17209622222E+03 -0.12944047663E+00  0.17301079373E+03  0.00000000000E+00 0. -1.
         -3    1    6    6    0  503  0.10820988776E+02 -0.26071345325E+03  0.10873267900E+03  0.28268603429E+03  0.00000000000E+00 0.  1.
<mgrwt>
<rscale>  0 0.11143211E+04</rscale>
<asrwt>0</asrwt>
<pdfrwt beam="1">  1        2 0.76676829E-01 0.11143211E+04</pdfrwt>
<pdfrwt beam="2">  1       -1 0.95823022E-01 0.11143211E+04</pdfrwt>
<totfact> 0.73685031E+01</totfact>
</mgrwt>
</event>
<event>
12    7  0.1611233E-007  0.1831950E+04  0.7818608E-02  0.8689491E-01
          2   -1    0    0  501    0  0.00000000000E+00  0.00000000000E+00  0.99526796822E+03  0.99526796822E+03  0.00000000000E+00 0. -1.
         -1   -1    0    0    0  501 -0.00000000000E+00 -0.00000000000E+00 -0.84299973464E+03  0.84299973464E+03  0.00000000000E+00 0.  1.
         24    2    1    2    0    0 -0.53548263209E+03 -0.41202965253E+03  0.21408327561E+03  0.71320763929E+03  0.79519834121E+02 0.  0.
        254    2    1    2    0    0  0.53548263209E+03  0.41202965253E+03 -0.61815042025E+02  0.11250600636E+04  0.89745694235E+03 0.  0.
         23    2    4    4    0    0  0.61809695898E+02  0.54738436140E+03  0.15285798504E+03  0.57943911491E+03  0.94520086178E+02 0.  0.
         23    2    4    4    0    0  0.47367293619E+03 -0.13535470887E+03 -0.21467302707E+03  0.54562094865E+03  0.94502716161E+02 0.  0.
          4    1    3    3  502    0 -0.45380511229E+03 -0.33332901246E+03  0.20572957117E+03  0.59947641067E+03  0.00000000000E+00 0. -1.
         -3    1    3    3    0  502 -0.81677519797E+02 -0.78700640064E+02  0.83537044360E+01  0.11373122862E+03  0.00000000000E+00 0.  1.
         13    1    5    5    0    0  0.34221790424E+02  0.32549115241E+03  0.13847807429E+03  0.35537557358E+03  0.00000000000E+00 0. -1.
        -13    1    5    5    0    0  0.27587905475E+02  0.22189320898E+03  0.14379910757E+02  0.22406354133E+03  0.00000000000E+00 0.  1.
          1    1    6    6  503    0  0.20548479512E+03 -0.11449384625E+02 -0.98675327075E+02  0.22823652120E+03  0.00000000000E+00 0. -1.
         -1    1    6    6    0  503  0.26818814107E+03 -0.12390532424E+03 -0.11599769999E+03  0.31738442745E+03  0.00000000000E+00 0.  1.
<mgrwt>
<rscale>  0 0.18319505E+04</rscale>
<asrwt>0</asrwt>
<pdfrwt beam="1">  1        2 0.15311815E+00 0.18319505E+04</pdfrwt>
<pdfrwt beam="2">  1       -1 0.12969227E+00 0.18319505E+04</pdfrwt>
<totfact> 0.13904642E+01</totfact>
</mgrwt>
</event>
<event>
12    7  0.1611233E-007  0.1222525E+04  0.7818608E-02  0.9093366E-01
         -1   -1    0    0    0  501 -0.00000000000E+00  0.00000000000E+00  0.85273782265E+03  0.85273782265E+03  0.00000000000E+00 0.  1.
          2   -1    0    0  501    0  0.00000000000E+00 -0.00000000000E+00 -0.43816710134E+03  0.43816710134E+03  0.00000000000E+00 0. -1.
         24    2    1    2    0    0  0.14379488488E+03 -0.30471310190E+02  0.33586036011E+03  0.37517680936E+03  0.79686806511E+02 0.  0.
        254    2    1    2    0    0 -0.14379488488E+03  0.30471310190E+02  0.78710361204E+02  0.91572811463E+03  0.90042056246E+03 0.  0.
         23    2    4    4    0    0 -0.16487345683E+03  0.27634033778E+03 -0.30369441947E+03  0.45129515700E+03  0.88824429413E+02 0.  0.
         23    2    4    4    0    0  0.21078571948E+02 -0.24586902759E+03  0.38240478068E+03  0.46443295764E+03  0.92567115814E+02 0.  0.
          4    1    3    3  502    0  0.56622211027E+02  0.19229881050E+02  0.76618418105E+02  0.97191795434E+02  0.00000000000E+00 0. -1.
         -1    1    3    3    0  502  0.87172673853E+02 -0.49701191239E+02  0.25924194200E+03  0.27798501393E+03  0.00000000000E+00 0.  1.
         13    1    5    5    0    0 -0.23217587657E+02  0.19071431063E+02 -0.17794803461E+01  0.30098877217E+02  0.00000000000E+00 0.  1.
        -13    1    5    5    0    0 -0.14165586917E+03  0.25726890672E+03 -0.30191493913E+03  0.42119627978E+03  0.00000000000E+00 0. -1.
          2    1    6    6  503    0 -0.39443257531E+01 -0.23624613169E+03  0.33445292462E+03  0.40949548377E+03  0.00000000000E+00 0. -1.
         -2    1    6    6    0  503  0.25022897701E+02 -0.96228958970E+01  0.47951856062E+02  0.54937473864E+02  0.00000000000E+00 0.  1.
<mgrwt>
<rscale>  0 0.12225247E+04</rscale>
<asrwt>0</asrwt>
<pdfrwt beam="1">  1        2 0.67410323E-01 0.12225247E+04</pdfrwt>
<pdfrwt beam="2">  1       -1 0.13119043E+00 0.12225247E+04</pdfrwt>
<totfact> 0.40066649E+01</totfact>
</mgrwt>
</event>
<event>
12    7  0.1611233E-007  0.1697418E+04  0.7818608E-02  0.8762838E-01
          2   -1    0    0  501    0  0.00000000000E+00  0.00000000000E+00  0.89592001444E+03  0.89592001444E+03  0.00000000000E+00 0. -1.
         -1   -1    0    0    0  501 -0.00000000000E+00 -0.00000000000E+00 -0.80398618527E+03  0.80398618527E+03  0.00000000000E+00 0.  1.
         24    2    1    2    0    0 -0.18445695950E+03  0.24729108919E+03 -0.48759665258E+03  0.58243155881E+03  0.79364805687E+02 0.  0.
        254    2    1    2    0    0  0.18445695950E+03 -0.24729108919E+03  0.57953048175E+03  0.11174746409E+04  0.90427691614E+03 0.  0.
         23    2    4    4    0    0  0.33336670446E+03 -0.13538506592E+03 -0.11799470744E+03  0.38930820240E+03  0.90419299701E+02 0.  0.
         23    2    4    4    0    0 -0.14890974495E+03 -0.11190602327E+03  0.69752518920E+03  0.72816643849E+03  0.94804548394E+02 0.  0.
          4    1    3    3  502    0 -0.10459649136E+02  0.50198898229E+02 -0.48129127745E+02  0.70326002168E+02  0.00000000000E+00 0. -1.
         -3    1    3    3    0  502 -0.17399731037E+03  0.19709219096E+03 -0.43946752484E+03  0.51210555664E+03  0.00000000000E+00 0.  1.
         13    1    5    5    0    0  0.30905050159E+03 -0.94096036640E+02 -0.10135326948E+03  0.33858346368E+03  0.00000000000E+00 0.  1.
        -13    1    5    5    0    0  0.24316202867E+02 -0.41289029281E+02 -0.16641437965E+02  0.50724738721E+02  0.00000000000E+00 0. -1.
          3    1    6    6  503    0 -0.41582682974E+02 -0.37637218983E+02  0.39112494250E+03  0.39512580328E+03  0.00000000000E+00 0. -1.
         -3    1    6    6    0  503 -0.10732706198E+03 -0.74268804287E+02  0.30640024670E+03  0.33304063521E+03  0.00000000000E+00 0.  1.
<mgrwt>
<rscale>  0 0.16974184E+04</rscale>
<asrwt>0</asrwt>
<pdfrwt beam="1">  1        2 0.13783385E+00 0.16974184E+04</pdfrwt>
<pdfrwt beam="2">  1       -1 0.12369018E+00 0.16974184E+04</pdfrwt>
<totfact> 0.18416911E+01</totfact>
</mgrwt>
</event>
<event>
12    7  0.1611233E-007  0.1308352E+04  0.7818608E-02  0.9022968E-01
         -1   -1    0    0    0  501 -0.00000000000E+00  0.00000000000E+00  0.46682015267E+03  0.46682015267E+03  0.00000000000E+00 0.  1.
          2   -1    0    0  501    0  0.00000000000E+00 -0.00000000000E+00 -0.91672670205E+03  0.91672670205E+03  0.00000000000E+00 0. -1.
         24    2    1    2    0    0  0.88769281737E+02 -0.27070802808E+03 -0.31790007038E+03  0.43424762033E+03  0.79672574750E+02 0.  0.
        254    2    1    2    0    0 -0.88769281737E+02  0.27070802808E+03 -0.13200647900E+03  0.94929923438E+03  0.89586857521E+03 0.  0.
         23    2    4    4    0    0 -0.30684564928E+03  0.29568310054E+03 -0.39913328537E+03  0.59095383793E+03  0.91303398948E+02 0.  0.
         23    2    4    4    0    0  0.21807636754E+03 -0.24975072454E+02  0.26712680637E+03  0.35834539644E+03  0.94199979564E+02 0.  0.
          2    1    3    3  502    0  0.66285542836E+02 -0.24929328071E+03 -0.30779367954E+03  0.40159415106E+03  0.00000000000E+00 0. -1.
         -1    1    3    3    0  502  0.22483738901E+02 -0.21414747369E+02 -0.10106390839E+02  0.32653469274E+02  0.00000000000E+00 0.  1.
         13    1    5    5    0    0 -0.12280262353E+03  0.18055807347E+03 -0.18828924058E+03  0.28833060947E+03  0.00000000000E+00 0.  1.
        -13    1    5    5    0    0 -0.18404302574E+03  0.11512502707E+03 -0.21084404479E+03  0.30262322846E+03  0.00000000000E+00 0. -1.
          1    1    6    6  503    0  0.75674227886E+02  0.22752572762E+02  0.47246181407E+02  0.92067746746E+02  0.00000000000E+00 0. -1.
         -1    1    6    6    0  503  0.14240213965E+03 -0.47727645216E+02  0.21988062496E+03  0.26627764970E+03  0.00000000000E+00 0.  1.
<mgrwt>
<rscale>  0 0.13083524E+04</rscale>
<asrwt>0</asrwt>
<pdfrwt beam="1">  1        2 0.14103488E+00 0.13083524E+04</pdfrwt>
<pdfrwt beam="2">  1       -1 0.71818486E-01 0.13083524E+04</pdfrwt>
<totfact> 0.62513417E+01</totfact>
</mgrwt>
</event>
<event>
12    7  0.1611233E-007  0.2389976E+04  0.7818608E-02  0.8443266E-01
          2   -1    0    0  501    0  0.00000000000E+00  0.00000000000E+00  0.77777326606E+03  0.77777326606E+03  0.00000000000E+00 0. -1.
         -1   -1    0    0    0  501 -0.00000000000E+00 -0.00000000000E+00 -0.18360051884E+04  0.18360051884E+04  0.00000000000E+00 0.  1.
         24    2    1    2    0    0  0.68329398275E+03 -0.70066787088E+03 -0.12189618128E+03  0.98942205665E+03  0.79190877214E+02 0.  0.
        254    2    1    2    0    0 -0.68329398275E+03  0.70066787088E+03 -0.93633574108E+03  0.16243563978E+04  0.89665096609E+03 0.  0.
         23    2    4    4    0    0 -0.39288922718E+03  0.36290258696E+02 -0.77746843668E+03  0.87659044440E+03  0.90965430073E+02 0.  0.
         23    2    4    4    0    0 -0.29040475557E+03  0.66437761218E+03 -0.15886730440E+03  0.74776595343E+03  0.90457542914E+02 0.  0.
          4    1    3    3  502    0  0.66632684483E+03 -0.69105070537E+03 -0.10922448591E+03  0.96616382143E+03  0.00000000000E+00 0. -1.
         -3    1    3    3    0  502  0.16967137923E+02 -0.96171655117E+01 -0.12671695376E+02  0.23258235218E+02  0.00000000000E+00 0.  1.
         13    1    5    5    0    0 -0.23415097057E+03 -0.73501710770E+01 -0.38043514691E+03  0.44677914347E+03  0.00000000000E+00 0.  1.
        -13    1    5    5    0    0 -0.15873825661E+03  0.43640429773E+02 -0.39703328977E+03  0.42981130093E+03  0.00000000000E+00 0. -1.
          2    1    6    6  503    0 -0.28219989130E+03  0.62420317244E+03 -0.12908167336E+03  0.69708568880E+03  0.00000000000E+00 0. -1.
         -2    1    6    6    0  503 -0.82048642721E+01  0.40174439746E+02 -0.29785631036E+02  0.50680264629E+02  0.00000000000E+00 0.  1.
<mgrwt>
<rscale>  0 0.23899755E+04</rscale>
<asrwt>0</asrwt>
<pdfrwt beam="1">  1        2 0.11965743E+00 0.23899755E+04</pdfrwt>
<pdfrwt beam="2">  1       -1 0.28246233E+00 0.23899755E+04</pdfrwt>
<totfact> 0.15750898E+00</totfact>
</mgrwt>
</event>
<event>
12    7  0.1710202E-007  0.3578403E+04  0.7818608E-02  0.8095457E-01
         -1   -1    0    0    0  501 -0.00000000000E+00  0.00000000000E+00  0.19026564026E+04  0.19026564026E+04  0.00000000000E+00 0.  1.
          2   -1    0    0  501    0  0.00000000000E+00 -0.00000000000E+00 -0.16825115168E+04  0.16825115168E+04  0.00000000000E+00 0. -1.
         24    2    1    2    0    0  0.64928464131E+03  0.11501454602E+04  0.11347419836E+04  0.17431244449E+04  0.80239244260E+02 0.  0.
        254    2    1    2    0    0 -0.64928464131E+03 -0.11501454602E+04 -0.91459709787E+03  0.18420434745E+04  0.90123869504E+03 0.  0.
         23    2    4    4    0    0  0.11858863981E+03 -0.21788341352E+03  0.78890254942E+02  0.27563685467E+03  0.90639704060E+02 0.  0.
         23    2    4    4    0    0 -0.76787328112E+03 -0.93226204663E+03 -0.99348735281E+03  0.15664066198E+04  0.88716846651E+02 0.  0.
          2    1    3    3  502    0  0.11196243139E+02  0.79787930900E+01  0.20181925773E+02  0.24419810145E+02  0.00000000000E+00 0. -1.
         -1    1    3    3    0  502  0.63808839817E+03  0.11421666671E+04  0.11145600578E+04  0.17187046348E+04  0.00000000000E+00 0.  1.
         13    1    5    5    0    0  0.89888651988E+02 -0.91895386168E+02  0.69368395918E+02  0.14607089411E+03  0.00000000000E+00 0.  1.
        -13    1    5    5    0    0  0.28699987819E+02 -0.12598802735E+03  0.95218590239E+01  0.12956596056E+03  0.00000000000E+00 0. -1.
          1    1    6    6  503    0 -0.31447843946E+02 -0.63792322246E+02 -0.42522971647E+02  0.82865133706E+02  0.00000000000E+00 0. -1.
         -1    1    6    6    0  503 -0.73642543717E+03 -0.86846972439E+03 -0.95096438117E+03  0.14835414861E+04  0.00000000000E+00 0.  1.
<mgrwt>
<rscale>  0 0.35784026E+04</rscale>
<asrwt>0</asrwt>
<pdfrwt beam="1">  1        2 0.25884793E+00 0.35784026E+04</pdfrwt>
<pdfrwt beam="2">  1       -1 0.29271637E+00 0.35784026E+04</pdfrwt>
<totfact> 0.34311976E-01</totfact>
</mgrwt>
</event>
<event>
12    7  0.1611233E-007  0.1666678E+04  0.7818608E-02  0.8780601E-01
          2   -1    0    0  501    0  0.00000000000E+00  0.00000000000E+00  0.85774738988E+03  0.85774738988E+03  0.00000000000E+00 0. -1.
         -1   -1    0    0    0  501 -0.00000000000E+00 -0.00000000000E+00 -0.80962519394E+03  0.80962519394E+03  0.00000000000E+00 0.  1.
         24    2    1    2    0    0 -0.54686457961E+03  0.50253528286E+01  0.22241694344E+03  0.59431927334E+03  0.68264041223E+02 0.  0.
        254    2    1    2    0    0  0.54686457961E+03 -0.50253528286E+01 -0.17429474750E+03  0.10730533105E+04  0.90663036874E+03 0.  0.
         23    2    4    4    0    0 -0.16521226066E+03 -0.14735056428E+03  0.14018085350E+03  0.27653051638E+03  0.88380851615E+02 0.  0.
         23    2    4    4    0    0  0.71207684028E+03  0.14232521145E+03 -0.31447560100E+03  0.79652279411E+03  0.90795185094E+02 0.  0.
          4    1    3    3  502    0 -0.19503976818E+03  0.16902582416E+02  0.48565163373E+02  0.20170469394E+03  0.00000000000E+00 0. -1.
         -1    1    3    3    0  502 -0.35182481143E+03 -0.11877229587E+02  0.17385178006E+03  0.39261457940E+03  0.00000000000E+00 0.  1.
         13    1    5    5    0    0 -0.11191725889E+03 -0.10236250379E+03  0.44375664822E+02  0.15802770215E+03  0.00000000000E+00 0. -1.
        -13    1    5    5    0    0 -0.53295001771E+02 -0.44988060489E+02  0.95805188681E+02  0.11850281422E+03  0.00000000000E+00 0.  1.
          2    1    6    6  503    0  0.39294486591E+03  0.47581061997E+02 -0.13420802352E+03  0.41794906231E+03  0.00000000000E+00 0. -1.
         -2    1    6    6    0  503  0.31913197436E+03  0.94744149451E+02 -0.18026757749E+03  0.37857373180E+03  0.00000000000E+00 0.  1.
<mgrwt>
<rscale>  0 0.16666780E+04</rscale>
<asrwt>0</asrwt>
<pdfrwt beam="1">  1        2 0.13196114E+00 0.16666780E+04</pdfrwt>
<pdfrwt beam="2">  1       -1 0.12455772E+00 0.16666780E+04</pdfrwt>
<totfact> 0.19275598E+01</totfact>
</mgrwt>
</event>
<event>
12    7  0.1611233E-007  0.2385603E+04  0.7818608E-02  0.8444913E-01
          2   -1    0    0  501    0  0.00000000000E+00  0.00000000000E+00  0.18366438615E+04  0.18366438615E+04  0.00000000000E+00 0. -1.
         -1   -1    0    0    0  501 -0.00000000000E+00 -0.00000000000E+00 -0.77466072600E+03  0.77466072600E+03  0.00000000000E+00 0.  1.
         24    2    1    2    0    0  0.43717098891E+01  0.36262616903E+03  0.14320403210E+04  0.14794529976E+04  0.80776486810E+02 0.  0.
        254    2    1    2    0    0 -0.43717098891E+01 -0.36262616903E+03 -0.37005718553E+03  0.11318515899E+04  0.10062946142E+04 0.  0.
         23    2    4    4    0    0  0.92195318539E+02  0.23866868884E+03 -0.43434865664E+03  0.51191212620E+03  0.89064861927E+02 0.  0.
         23    2    4    4    0    0 -0.96567028428E+02 -0.60129485786E+03  0.64291471106E+02  0.61993946367E+03  0.96492736964E+02 0.  0.
          4    1    3    3  502    0 -0.18837290211E+02  0.29024739774E+03  0.12202770435E+04  0.12544618202E+04  0.00000000000E+00 0. -1.
         -3    1    3    3    0  502  0.23209000100E+02  0.72378771284E+02  0.21176327753E+03  0.22499117745E+03  0.00000000000E+00 0.  1.
         13    1    5    5    0    0  0.74374648552E+02  0.13045514923E+03 -0.17668022403E+03  0.23187504365E+03  0.00000000000E+00 0.  1.
        -13    1    5    5    0    0  0.17820669987E+02  0.10821353961E+03 -0.25766843261E+03  0.28003708254E+03  0.00000000000E+00 0. -1.
          2    1    6    6  503    0  0.89596390355E+01 -0.21247608594E+03  0.39423828832E+02  0.21628823479E+03  0.00000000000E+00 0. -1.
         -2    1    6    6    0  503 -0.10552666746E+03 -0.38881877192E+03  0.24867642274E+02  0.40365122888E+03  0.00000000000E+00 0.  1.
<mgrwt>
<rscale>  0 0.23856034E+04</rscale>
<asrwt>0</asrwt>
<pdfrwt beam="1">  1        2 0.28256059E+00 0.23856034E+04</pdfrwt>
<pdfrwt beam="2">  1       -1 0.11917857E+00 0.23856034E+04</pdfrwt>
<totfact> 0.53125414E+00</totfact>
</mgrwt>
</event>
<event>
12    7  0.1611233E-007  0.1382367E+04  0.7818608E-02  0.8966682E-01
          2   -1    0    0  501    0  0.00000000000E+00  0.00000000000E+00  0.35420546286E+03  0.35420546286E+03  0.00000000000E+00 0. -1.
         -1   -1    0    0    0  501 -0.00000000000E+00 -0.00000000000E+00 -0.13487503285E+04  0.13487503285E+04  0.00000000000E+00 0.  1.
         24    2    1    2    0    0  0.18189872075E+03 -0.30378047758E+03 -0.61278062888E+02  0.36811745916E+03  0.79910822670E+02 0.  0.
        254    2    1    2    0    0 -0.18189872075E+03  0.30378047758E+03 -0.93326680277E+03  0.13348383322E+04  0.88624868115E+03 0.  0.
         23    2    4    4    0    0  0.10674865868E+03  0.54245748977E+03 -0.46537798258E+03  0.72862990721E+03  0.93109992343E+02 0.  0.
         23    2    4    4    0    0 -0.28864737942E+03 -0.23867701220E+03 -0.46788882019E+03  0.60620842500E+03  0.91020221321E+02 0.  0.
          4    1    3    3  502    0  0.16698022931E+03 -0.30470412777E+03 -0.54503223027E+02  0.35170670136E+03  0.00000000000E+00 0. -1.
         -3    1    3    3    0  502  0.14918491436E+02  0.92365019295E+00 -0.67748398614E+01  0.16410757799E+02  0.00000000000E+00 0.  1.
         13    1    5    5    0    0  0.20925318029E+02  0.13812683542E+02 -0.20027939274E+02  0.32090146662E+02  0.00000000000E+00 0.  1.
        -13    1    5    5    0    0  0.85823340647E+02  0.52864480623E+03 -0.44535004331E+03  0.69653976055E+03  0.00000000000E+00 0. -1.
          2    1    6    6  503    0 -0.26789402591E+03 -0.19205474680E+03 -0.36801592122E+03  0.49405258137E+03  0.00000000000E+00 0. -1.
         -2    1    6    6    0  503 -0.20753353513E+02 -0.46622265400E+02 -0.99872898973E+02  0.11215584364E+03  0.00000000000E+00 0.  1.
<mgrwt>
<rscale>  0 0.13823672E+04</rscale>
<asrwt>0</asrwt>
<pdfrwt beam="1">  1        2 0.54493147E-01 0.13823672E+04</pdfrwt>
<pdfrwt beam="2">  1       -1 0.20750005E+00 0.13823672E+04</pdfrwt>
<totfact> 0.13599559E+01</totfact>
</mgrwt>
</event>
<event>
12    7  0.1611233E-007  0.2048435E+04  0.7818608E-02  0.8584305E-01
         -1   -1    0    0    0  501 -0.00000000000E+00  0.00000000000E+00  0.91328242978E+03  0.91328242978E+03  0.00000000000E+00 0.  1.
          2   -1    0    0  501    0  0.00000000000E+00 -0.00000000000E+00 -0.11486272668E+04  0.11486272668E+04  0.00000000000E+00 0. -1.
         24    2    1    2    0    0  0.36963491793E+02  0.20054119128E+03 -0.89588476511E+03  0.92214975377E+03  0.78533985657E+02 0.  0.
        254    2    1    2    0    0 -0.36963491793E+02 -0.20054119128E+03  0.66053992813E+03  0.11397599428E+04  0.90617694815E+03 0.  0.
         23    2    4    4    0    0  0.45253937486E+02 -0.28841558521E+03  0.84668920039E+03  0.90028960726E+03  0.91691364074E+02 0.  0.
         23    2    4    4    0    0 -0.82217429280E+02  0.87874393936E+02 -0.18614927225E+03  0.23947033551E+03  0.90624915124E+02 0.  0.
          4    1    3    3  502    0  0.60077804846E+02  0.15067861848E+03 -0.62193561783E+03  0.64274201779E+03  0.00000000000E+00 0. -1.
         -3    1    3    3    0  502 -0.23114313053E+02  0.49862572794E+02 -0.27394914728E+03  0.27940773599E+03  0.00000000000E+00 0.  1.
         13    1    5    5    0    0  0.64122625837E+02 -0.24203578601E+03  0.75995095309E+03  0.80013654082E+03  0.00000000000E+00 0.  1.
        -13    1    5    5    0    0 -0.18868688350E+02 -0.46379799200E+02  0.86738247296E+02  0.10015306644E+03  0.00000000000E+00 0. -1.
          4    1    6    6  503    0 -0.14279891594E+02  0.29018897827E+02  0.45538350248E+00  0.32345310467E+02  0.00000000000E+00 0. -1.
         -4    1    6    6    0  503 -0.67937537685E+02  0.58855496109E+02 -0.18660465576E+03  0.20712502504E+03  0.00000000000E+00 0.  1.
<mgrwt>
<rscale>  0 0.20484346E+04</rscale>
<asrwt>0</asrwt>
<pdfrwt beam="1">  1        2 0.17671189E+00 0.20484346E+04</pdfrwt>
<pdfrwt beam="2">  1       -1 0.14050499E+00 0.20484346E+04</pdfrwt>
<totfact> 0.89133228E+00</totfact>
</mgrwt>
</event>
<event>
12    7  0.1611233E-007  0.1746569E+04  0.7818608E-02  0.8735241E-01
          2   -1    0    0  501    0  0.00000000000E+00  0.00000000000E+00  0.12931509174E+04  0.12931509174E+04  0.00000000000E+00 0. -1.
         -1   -1    0    0    0  501 -0.00000000000E+00 -0.00000000000E+00 -0.58974213334E+03  0.58974213334E+03  0.00000000000E+00 0.  1.
         24    2    1    2    0    0 -0.19463901775E+03  0.15795435376E+03  0.89846473408E+03  0.93528616779E+03  0.68464678195E+02 0.  0.
        254    2    1    2    0    0  0.19463901775E+03 -0.15795435376E+03 -0.19505595002E+03  0.94760688296E+03  0.89279228037E+03 0.  0.
         23    2    4    4    0    0 -0.23049726286E+03 -0.18013864272E+02 -0.38005350105E+03  0.45480465693E+03  0.94620953348E+02 0.  0.
         23    2    4    4    0    0  0.42513628060E+03 -0.13994048949E+03  0.18499755103E+03  0.49280222603E+03  0.91135845908E+02 0.  0.
          4    1    3    3  502    0 -0.12504730014E+03  0.13347696117E+03  0.70174874522E+03  0.72519254536E+03  0.00000000000E+00 0. -1.
         -3    1    3    3    0  502 -0.69591717610E+02  0.24477392592E+02  0.19671598887E+03  0.21009362243E+03  0.00000000000E+00 0.  1.
         13    1    5    5    0    0 -0.49372950263E+02  0.21233659909E+02 -0.38169078501E+02  0.65919914171E+02  0.00000000000E+00 0. -1.
        -13    1    5    5    0    0 -0.18112431260E+03 -0.39247524181E+02 -0.34188442255E+03  0.38888474276E+03  0.00000000000E+00 0.  1.
          1    1    6    6  503    0  0.32827887764E+03 -0.14683456731E+03  0.14821041093E+03  0.38896495674E+03  0.00000000000E+00 0. -1.
         -1    1    6    6    0  503  0.96857402961E+02  0.68940778175E+01  0.36787140104E+02  0.10383726929E+03  0.00000000000E+00 0.  1.
<mgrwt>
<rscale>  0 0.17465687E+04</rscale>
<asrwt>0</asrwt>
<pdfrwt beam="1">  1        2 0.19894630E+00 0.17465687E+04</pdfrwt>
<pdfrwt beam="2">  1       -1 0.90729559E-01 0.17465687E+04</pdfrwt>
<totfact> 0.21398383E+01</totfact>
</mgrwt>
</event>
<event>
12    7  0.1611233E-007  0.1538253E+04  0.7818608E-02  0.8859406E-01
          2   -1    0    0  501    0  0.00000000000E+00  0.00000000000E+00  0.13661457663E+04  0.13661457663E+04  0.00000000000E+00 0. -1.
         -1   -1    0    0    0  501 -0.00000000000E+00 -0.00000000000E+00 -0.43301060246E+03  0.43301060246E+03  0.00000000000E+00 0.  1.
         24    2    1    2    0    0  0.19489856657E+03 -0.46110939663E+03  0.36285109871E+03  0.62277085134E+03  0.74667841391E+02 0.  0.
        254    2    1    2    0    0 -0.19489856657E+03  0.46110939663E+03  0.57028406518E+03  0.11763855175E+04  0.89891692819E+03 0.  0.
         23    2    4    4    0    0  0.88537370310E+01  0.12017862122E+03 -0.23363691521E+03  0.27503256343E+03  0.80841902124E+02 0.  0.
         23    2    4    4    0    0 -0.20375230360E+03  0.34093077541E+03  0.80392098039E+03  0.90135295403E+03  0.91648296161E+02 0.  0.
          4    1    3    3  502    0  0.13540841536E+03 -0.38674614538E+03  0.31033461552E+03  0.51401905948E+03  0.00000000000E+00 0. -1.
         -1    1    3    3    0  502  0.59490151210E+02 -0.74363251244E+02  0.52516483188E+02  0.10875179186E+03  0.00000000000E+00 0.  1.
         13    1    5    5    0    0 -0.11630020439E+01 -0.33968891593E+01 -0.68200417267E+02  0.68294863241E+02  0.00000000000E+00 0. -1.
        -13    1    5    5    0    0  0.10016739075E+02  0.12357551038E+03 -0.16543649794E+03  0.20673770019E+03  0.00000000000E+00 0.  1.
          3    1    6    6  503    0 -0.19134155650E+03  0.30706870147E+03  0.65662467625E+03  0.74970577171E+03  0.00000000000E+00 0. -1.
         -3    1    6    6    0  503 -0.12410747102E+02  0.33862073936E+02  0.14729630413E+03  0.15164718232E+03  0.00000000000E+00 0.  1.
<mgrwt>
<rscale>  0 0.15382530E+04</rscale>
<asrwt>0</asrwt>
<pdfrwt beam="1">  1        2 0.21017627E+00 0.15382530E+04</pdfrwt>
<pdfrwt beam="2">  1       -1 0.66617016E-01 0.15382530E+04</pdfrwt>
<totfact> 0.37942165E+01</totfact>
</mgrwt>
</event>
<event>
12    7  0.1611233E-007  0.1437443E+04  0.7818608E-02  0.8927153E-01
         -1   -1    0    0    0  501 -0.00000000000E+00  0.00000000000E+00  0.24394838680E+03  0.24394838680E+03  0.00000000000E+00 0.  1.
          2   -1    0    0  501    0  0.00000000000E+00 -0.00000000000E+00 -0.21174993590E+04  0.21174993590E+04  0.00000000000E+00 0. -1.
         24    2    1    2    0    0  0.30179146513E+03  0.14256482923E+03 -0.10241756784E+04  0.10801550375E+04  0.79976658811E+02 0.  0.
        254    2    1    2    0    0 -0.30179146513E+03 -0.14256482923E+03 -0.84937529378E+03  0.12812927082E+04  0.89937188946E+03 0.  0.
         23    2    4    4    0    0 -0.30027984762E+03 -0.50001847110E+03 -0.53140882670E+03  0.79467551884E+03  0.94484817916E+02 0.  0.
         23    2    4    4    0    0 -0.15116175110E+01  0.35745364188E+03 -0.31796646708E+03  0.48661718940E+03  0.88984401747E+02 0.  0.
          2    1    3    3  502    0  0.26614433649E+03  0.15124422761E+03 -0.93000685219E+03  0.97909160417E+03  0.00000000000E+00 0. -1.
         -1    1    3    3    0  502  0.35647128645E+02 -0.86793983842E+01 -0.94168826209E+02  0.10106343338E+03  0.00000000000E+00 0.  1.
         13    1    5    5    0    0 -0.14462169270E+03 -0.25818600883E+03 -0.33178969747E+03  0.44458953261E+03  0.00000000000E+00 0. -1.
        -13    1    5    5    0    0 -0.15565815492E+03 -0.24183246227E+03 -0.19961912923E+03  0.35008598623E+03  0.00000000000E+00 0.  1.
          1    1    6    6  503    0 -0.16649056328E+02  0.51543070095E+02 -0.15931585333E+02  0.56459672003E+02  0.00000000000E+00 0. -1.
         -1    1    6    6    0  503  0.15137438817E+02  0.30591057178E+03 -0.30203488175E+03  0.43015751740E+03  0.00000000000E+00 0.  1.
<mgrwt>
<rscale>  0 0.14374429E+04</rscale>
<asrwt>0</asrwt>
<pdfrwt beam="1">  1        2 0.32576913E+00 0.14374429E+04</pdfrwt>
<pdfrwt beam="2">  1       -1 0.37530521E-01 0.14374429E+04</pdfrwt>
<totfact> 0.43496770E+01</totfact>
</mgrwt>
</event>
<event>
12    7  0.1611233E-007  0.3978602E+04  0.7818608E-02  0.8008877E-01
         -1   -1    0    0    0  501 -0.00000000000E+00  0.00000000000E+00  0.14758873724E+04  0.14758873724E+04  0.00000000000E+00 0.  1.
          2   -1    0    0  501    0  0.00000000000E+00 -0.00000000000E+00 -0.26813142780E+04  0.26813142780E+04  0.00000000000E+00 0. -1.
         24    2    1    2    0    0 -0.19845262317E+03 -0.40818774536E+03 -0.24875795714E+04  0.25299074021E+04  0.79866511929E+02 0.  0.
        254    2    1    2    0    0  0.19845262317E+03  0.40818774536E+03  0.12821526658E+04  0.16272942484E+04  0.89340384666E+03 0.  0.
         23    2    4    4    0    0  0.48314352050E+03  0.47205080287E+03  0.74949869242E+03  0.10133382769E+04  0.94056108228E+02 0.  0.
         23    2    4    4    0    0 -0.28469089733E+03 -0.63863057514E+02  0.53265397337E+03  0.61395597150E+03  0.89968230295E+02 0.  0.
          4    1    3    3  502    0 -0.10912943829E+03 -0.18105258344E+03 -0.13488900890E+04  0.13653548054E+04  0.00000000000E+00 0. -1.
         -3    1    3    3    0  502 -0.89323184882E+02 -0.22713516191E+03 -0.11386894824E+04  0.11645525967E+04  0.00000000000E+00 0.  1.
         13    1    5    5    0    0  0.26556473646E+03  0.20778917114E+03  0.41514728287E+03  0.53483477390E+03  0.00000000000E+00 0. -1.
        -13    1    5    5    0    0  0.21757878405E+03  0.26426163173E+03  0.33435140955E+03  0.47850350296E+03  0.00000000000E+00 0.  1.
          3    1    6    6  503    0 -0.17911623214E+03 -0.80172586153E+02  0.37935147702E+03  0.42710398184E+03  0.00000000000E+00 0. -1.
         -3    1    6    6    0  503 -0.10557466519E+03  0.16309528639E+02  0.15330249635E+03  0.18685198967E+03  0.00000000000E+00 0.  1.
<mgrwt>
<rscale>  0 0.39786017E+04</rscale>
<asrwt>0</asrwt>
<pdfrwt beam="1">  1        2 0.41250989E+00 0.39786017E+04</pdfrwt>
<pdfrwt beam="2">  1       -1 0.22705960E+00 0.39786017E+04</pdfrwt>
<totfact> 0.24149234E-01</totfact>
</mgrwt>
</event>
<event>
12    7  0.1611233E-007  0.1179683E+04  0.7818608E-02  0.9130828E-01
          2   -1    0    0  501    0  0.00000000000E+00  0.00000000000E+00  0.55960968386E+03  0.55960968386E+03  0.00000000000E+00 0. -1.
         -3   -1    0    0    0  501 -0.00000000000E+00 -0.00000000000E+00 -0.62170645998E+03  0.62170645998E+03  0.00000000000E+00 0.  1.
         24    2    1    2    0    0  0.58135907343E+02 -0.18059350736E+03  0.13160802131E+03  0.24398881205E+03  0.78842060547E+02 0.  0.
        254    2    1    2    0    0 -0.58135907343E+02  0.18059350736E+03 -0.19370479743E+03  0.93732733180E+03  0.89725535928E+03 0.  0.
         23    2    4    4    0    0  0.29098197932E+03 -0.12267084836E+03 -0.31013100873E+03  0.45202775251E+03  0.91810659193E+02 0.  0.
         23    2    4    4    0    0 -0.34911788666E+03  0.30326435571E+03  0.11642621130E+03  0.48529957928E+03  0.90044715239E+02 0.  0.
          2    1    3    3  502    0  0.72149470561E+02 -0.12280216380E+03  0.11259012728E+03  0.18155565069E+03  0.00000000000E+00 0. -1.
         -1    1    3    3    0  502 -0.14013563218E+02 -0.57791343557E+02  0.19017894023E+02  0.62433161359E+02  0.00000000000E+00 0.  1.
         13    1    5    5    0    0  0.17923827557E+02 -0.38669792421E+02 -0.49445260761E+02  0.65279784405E+02  0.00000000000E+00 0.  1.
        -13    1    5    5    0    0  0.27305815176E+03 -0.84001055934E+02 -0.26068574797E+03  0.38674796811E+03  0.00000000000E+00 0. -1.
          2    1    6    6  503    0 -0.26617155382E+03  0.22460555281E+03  0.12651838975E+03  0.37054264715E+03  0.00000000000E+00 0. -1.
         -2    1    6    6    0  503 -0.82946332840E+02  0.78658802907E+02 -0.10092178446E+02  0.11475693213E+03  0.00000000000E+00 0.  1.
<mgrwt>
<rscale>  0 0.11796829E+04</rscale>
<asrwt>0</asrwt>
<pdfrwt beam="1">  1        2 0.86093798E-01 0.11796829E+04</pdfrwt>
<pdfrwt beam="2">  1       -3 0.95647148E-01 0.11796829E+04</pdfrwt>
<totfact> 0.32562397E+01</totfact>
</mgrwt>
</event>
<event>
12    7  0.1611233E-007  0.1664829E+04  0.7818608E-02  0.8781682E-01
         -1   -1    0    0    0  501 -0.00000000000E+00  0.00000000000E+00  0.33800696528E+03  0.33800696528E+03  0.00000000000E+00 0.  1.
          2   -1    0    0  501    0  0.00000000000E+00 -0.00000000000E+00 -0.20499998221E+04  0.20499998221E+04  0.00000000000E+00 0. -1.
         24    2    1    2    0    0  0.14886198091E+03  0.44128264994E+03 -0.10522235387E+04  0.11534959677E+04  0.80550019227E+02 0.  0.
        254    2    1    2    0    0 -0.14886198091E+03 -0.44128264994E+03 -0.65976931806E+03  0.12345108196E+04  0.93371898567E+03 0.  0.
         23    2    4    4    0    0  0.70421749481E+02 -0.66361673124E+03 -0.60225399000E+03  0.90347529219E+03  0.90616479445E+02 0.  0.
         23    2    4    4    0    0 -0.21928373040E+03  0.22233408130E+03 -0.57515328056E+02  0.33103552742E+03  0.93587976423E+02 0.  0.
          2    1    3    3  502    0  0.15724734659E+03  0.42389704164E+03 -0.99015678263E+03  0.10884970758E+04  0.00000000000E+00 0. -1.
         -1    1    3    3    0  502 -0.83853656796E+01  0.17385608301E+02 -0.62066756086E+02  0.64998891873E+02  0.00000000000E+00 0.  1.
         13    1    5    5    0    0  0.92211451242E+02 -0.54935732701E+03 -0.49210115476E+03  0.74327651046E+03  0.00000000000E+00 0. -1.
        -13    1    5    5    0    0 -0.21789701761E+02 -0.11425940423E+03 -0.11015283525E+03  0.16019878174E+03  0.00000000000E+00 0.  1.
          2    1    6    6  503    0 -0.18683775199E+03  0.17975292368E+03 -0.82336548332E+02  0.27202714264E+03  0.00000000000E+00 0. -1.
         -2    1    6    6    0  503 -0.32445978403E+02  0.42581157622E+02  0.24821220276E+02  0.59008384785E+02  0.00000000000E+00 0.  1.
<mgrwt>
<rscale>  0 0.16648294E+04</rscale>
<asrwt>0</asrwt>
<pdfrwt beam="1">  1        2 0.31538458E+00 0.16648294E+04</pdfrwt>
<pdfrwt beam="2">  1       -1 0.52001072E-01 0.16648294E+04</pdfrwt>
<totfact> 0.25361153E+01</totfact>
</mgrwt>
</event>
<event>
12    7  0.1611233E-007  0.1899173E+04  0.7818608E-02  0.8655268E-01
         -1   -1    0    0    0  501 -0.00000000000E+00  0.00000000000E+00  0.47344640917E+03  0.47344640917E+03  0.00000000000E+00 0.  1.
          2   -1    0    0  501    0  0.00000000000E+00 -0.00000000000E+00 -0.19045762865E+04  0.19045762865E+04  0.00000000000E+00 0. -1.
         24    2    1    2    0    0 -0.65277828789E+03  0.34382020810E+03 -0.60602227532E+03  0.95788011966E+03  0.77068131033E+02 0.  0.
        254    2    1    2    0    0  0.65277828789E+03 -0.34382020810E+03 -0.82510760202E+03  0.14201425760E+04  0.88975870476E+03 0.  0.
         23    2    4    4    0    0  0.21125548679E+02 -0.41656367343E+03 -0.60749987945E+03  0.74199562808E+03  0.86774568402E+02 0.  0.
         23    2    4    4    0    0  0.63165273921E+03  0.72743465323E+02 -0.21760772256E+03  0.67814694795E+03  0.90848045650E+02 0.  0.
          2    1    3    3  502    0 -0.14373405678E+03  0.47433405840E+02 -0.10080420920E+03  0.18185405044E+03  0.00000000000E+00 0. -1.
         -1    1    3    3    0  502 -0.50904423110E+03  0.29638680226E+03 -0.50521806613E+03  0.77602606922E+03  0.00000000000E+00 0.  1.
         13    1    5    5    0    0 -0.24040540593E+02 -0.24567793509E+03 -0.31445724570E+03  0.39977362939E+03  0.00000000000E+00 0. -1.
        -13    1    5    5    0    0  0.45166089272E+02 -0.17088573833E+03 -0.29304263375E+03  0.34222199868E+03  0.00000000000E+00 0.  1.
          1    1    6    6  503    0  0.10626618276E+03 -0.20040218182E+02 -0.48058391511E+02  0.11833731845E+03  0.00000000000E+00 0. -1.
         -1    1    6    6    0  503  0.52538655645E+03  0.92783683505E+02 -0.16954933105E+03  0.55980962950E+03  0.00000000000E+00 0.  1.
<mgrwt>
<rscale>  0 0.18991733E+04</rscale>
<asrwt>0</asrwt>
<pdfrwt beam="1">  1        2 0.29301174E+00 0.18991733E+04</pdfrwt>
<pdfrwt beam="2">  1       -1 0.72837909E-01 0.18991733E+04</pdfrwt>
<totfact> 0.15301523E+01</totfact>
</mgrwt>
</event>
<event>
12    7  0.1611233E-007  0.1577911E+04  0.7818608E-02  0.8834234E-01
          2   -1    0    0  501    0  0.00000000000E+00  0.00000000000E+00  0.93867319511E+03  0.93867319511E+03  0.00000000000E+00 0. -1.
         -1   -1    0    0    0  501 -0.00000000000E+00 -0.00000000000E+00 -0.66311758311E+03  0.66311758311E+03  0.00000000000E+00 0.  1.
         24    2    1    2    0    0  0.18665142963E+02 -0.11825009576E+03  0.60695439763E+03  0.62371444768E+03  0.79338507295E+02 0.  0.
        254    2    1    2    0    0 -0.18665142963E+02  0.11825009576E+03 -0.33139878562E+03  0.97807633054E+03  0.91240160047E+03 0.  0.
         23    2    4    4    0    0 -0.37232221799E+03 -0.83186852799E+02 -0.39475550188E+03  0.55634565687E+03  0.90247975972E+02 0.  0.
         23    2    4    4    0    0  0.35365707503E+03  0.20143694856E+03  0.63356716259E+02  0.42173067366E+03  0.90512522053E+02 0.  0.
          2    1    3    3  502    0 -0.15854900432E+02 -0.99376834916E+02  0.36659861586E+03  0.38016006936E+03  0.00000000000E+00 0. -1.
         -1    1    3    3    0  502  0.34520043395E+02 -0.18873260844E+02  0.24035578177E+03  0.24355437832E+03  0.00000000000E+00 0.  1.
         13    1    5    5    0    0 -0.19664058449E+03 -0.13507664695E+02 -0.24959665721E+03  0.31803846900E+03  0.00000000000E+00 0.  1.
        -13    1    5    5    0    0 -0.17568163351E+03 -0.69679188104E+02 -0.14515884467E+03  0.23830718787E+03  0.00000000000E+00 0. -1.
          1    1    6    6  503    0  0.19457434176E+03  0.15325942474E+03  0.12887361135E+02  0.24801957547E+03  0.00000000000E+00 0. -1.
         -1    1    6    6    0  503  0.15908273327E+03  0.48177523823E+02  0.50469355125E+02  0.17371109819E+03  0.00000000000E+00 0.  1.
<mgrwt>
<rscale>  0 0.15779109E+04</rscale>
<asrwt>0</asrwt>
<pdfrwt beam="1">  1        2 0.14441126E+00 0.15779109E+04</pdfrwt>
<pdfrwt beam="2">  1       -1 0.10201809E+00 0.15779109E+04</pdfrwt>
<totfact> 0.27567523E+01</totfact>
</mgrwt>
</event>
<event>
12    7  0.1611233E-007  0.1228176E+04  0.7818608E-02  0.9088545E-01
         -1   -1    0    0    0  501 -0.00000000000E+00  0.00000000000E+00  0.14514153258E+03  0.14514153258E+03  0.00000000000E+00 0.  1.
          2   -1    0    0  501    0  0.00000000000E+00 -0.00000000000E+00 -0.25981816787E+04  0.25981816787E+04  0.00000000000E+00 0. -1.
         24    2    1    2    0    0  0.64262151117E+02 -0.15232557561E+02  0.30406461258E+02  0.10808439444E+03  0.79975174640E+02 0.  0.
        254    2    1    2    0    0 -0.64262151117E+02  0.15232557561E+02 -0.24834466074E+04  0.26352388169E+04  0.87898516210E+03 0.  0.
         23    2    4    4    0    0  0.12881556299E+02 -0.22321258842E+03 -0.14487257123E+03  0.28169903186E+03  0.91523158468E+02 0.  0.
         23    2    4    4    0    0 -0.77143707415E+02  0.23844514598E+03 -0.23385740362E+04  0.23535397850E+04  0.86103180331E+02 0.  0.
          2    1    3    3  502    0 -0.10945290133E+02 -0.80277316804E+01 -0.14767011768E+02  0.20057629187E+02  0.00000000000E+00 0. -1.
         -1    1    3    3    0  502  0.75207441250E+02 -0.72048258809E+01  0.45173473026E+02  0.88026765251E+02  0.00000000000E+00 0.  1.
         13    1    5    5    0    0  0.27659011952E+02 -0.92520528269E+02 -0.16605077466E+02  0.97983660327E+02  0.00000000000E+00 0. -1.
        -13    1    5    5    0    0 -0.14777455654E+02 -0.13069206015E+03 -0.12826749377E+03  0.18371537154E+03  0.00000000000E+00 0.  1.
          4    1    6    6  503    0 -0.75704611785E+02  0.10770275859E+03 -0.13374770099E+04  0.13439404096E+04  0.00000000000E+00 0. -1.
         -4    1    6    6    0  503 -0.14390956300E+01  0.13074238739E+03 -0.10010970263E+04  0.10095993754E+04  0.00000000000E+00 0.  1.
<mgrwt>
<rscale>  0 0.12281760E+04</rscale>
<asrwt>0</asrwt>
<pdfrwt beam="1">  1        2 0.39972024E+00 0.12281760E+04</pdfrwt>
<pdfrwt beam="2">  1       -1 0.22329468E-01 0.12281760E+04</pdfrwt>
<totfact> 0.58551453E+01</totfact>
</mgrwt>
</event>
<event>
12    7  0.1611233E-007  0.1449619E+04  0.7818608E-02  0.8918665E-01
          2   -1    0    0  501    0  0.00000000000E+00  0.00000000000E+00  0.18114245248E+04  0.18114245248E+04  0.00000000000E+00 0. -1.
         -3   -1    0    0    0  501 -0.00000000000E+00 -0.00000000000E+00 -0.29001969843E+03  0.29001969843E+03  0.00000000000E+00 0.  1.
         24    2    1    2    0    0  0.16222964097E+03  0.40073997548E+03  0.35383167177E+03  0.56426873646E+03  0.79318160882E+02 0.  0.
        254    2    1    2    0    0 -0.16222964097E+03 -0.40073997548E+03  0.11675731546E+04  0.15371754867E+04  0.90153780918E+03 0.  0.
         23    2    4    4    0    0 -0.44901340530E+03  0.43481332241E+02  0.59762318777E+03  0.75456287628E+03  0.93316640062E+02 0.  0.
         23    2    4    4    0    0  0.28678376433E+03 -0.44422130772E+03  0.56994996680E+03  0.78261261045E+03  0.89788839295E+02 0.  0.
          4    1    3    3  502    0  0.22266215016E+02  0.14602686328E+02  0.36799479549E+02  0.45422730809E+02  0.00000000000E+00 0. -1.
         -3    1    3    3    0  502  0.13996342595E+03  0.38613728915E+03  0.31703219222E+03  0.51884600565E+03  0.00000000000E+00 0.  1.
         13    1    5    5    0    0 -0.43156944707E+03  0.47935610739E+02  0.53304668705E+03  0.68752365850E+03  0.00000000000E+00 0.  1.
        -13    1    5    5    0    0 -0.17443958225E+02 -0.44542784985E+01  0.64576500720E+02  0.67039217781E+02  0.00000000000E+00 0. -1.
          4    1    6    6  503    0  0.57513269727E+02 -0.16636910152E+03  0.18165569827E+03  0.25295305266E+03  0.00000000000E+00 0. -1.
         -4    1    6    6    0  503  0.22927049460E+03 -0.27785220620E+03  0.38829426853E+03  0.52965955779E+03  0.00000000000E+00 0.  1.
<mgrwt>
<rscale>  0 0.14496190E+04</rscale>
<asrwt>0</asrwt>
<pdfrwt beam="1">  1        2 0.27868069E+00 0.14496190E+04</pdfrwt>
<pdfrwt beam="2">  1       -3 0.44618416E-01 0.14496190E+04</pdfrwt>
<totfact> 0.26495679E+01</totfact>
</mgrwt>
</event>
<event>
12    7  0.1611233E-007  0.1559759E+04  0.7818608E-02  0.8845658E-01
          2   -1    0    0  501    0  0.00000000000E+00  0.00000000000E+00  0.10089168606E+04  0.10089168606E+04  0.00000000000E+00 0. -1.
         -1   -1    0    0    0  501 -0.00000000000E+00 -0.00000000000E+00 -0.60283666771E+03  0.60283666771E+03  0.00000000000E+00 0.  1.
         24    2    1    2    0    0  0.17036177699E+03  0.13936277172E+03 -0.34640796776E+03  0.41775302522E+03  0.77935824578E+02 0.  0.
        254    2    1    2    0    0 -0.17036177699E+03 -0.13936277172E+03  0.75248816067E+03  0.11940005031E+04  0.90052965095E+03 0.  0.
         23    2    4    4    0    0  0.35573134194E+03 -0.53220505100E+01  0.22225824210E+03  0.42935762573E+03  0.91521214626E+02 0.  0.
         23    2    4    4    0    0 -0.52609311893E+03 -0.13404072121E+03  0.53022991857E+03  0.76464287736E+03  0.93776748897E+02 0.  0.
          4    1    3    3  502    0  0.37629979397E+02  0.46169267690E+02 -0.15968147060E+03  0.17042825083E+03  0.00000000000E+00 0. -1.
         -3    1    3    3    0  502  0.13273179759E+03  0.93193504031E+02 -0.18672649717E+03  0.24732477440E+03  0.00000000000E+00 0.  1.
         13    1    5    5    0    0  0.24363534955E+02 -0.23753583795E+02  0.10235482463E+02  0.35532797242E+02  0.00000000000E+00 0.  1.
        -13    1    5    5    0    0  0.33136780698E+03  0.18431533285E+02  0.21202275964E+03  0.39382482848E+03  0.00000000000E+00 0. -1.
          3    1    6    6  503    0 -0.48056708581E+03 -0.14876910734E+03  0.48614038742E+03  0.69957804964E+03  0.00000000000E+00 0. -1.
         -3    1    6    6    0  503 -0.45526033122E+02  0.14728386130E+02  0.44089531149E+02  0.65064827724E+02  0.00000000000E+00 0.  1.
<mgrwt>
<rscale>  0 0.15597591E+04</rscale>
<asrwt>0</asrwt>
<pdfrwt beam="1">  1        2 0.15521798E+00 0.15597591E+04</pdfrwt>
<pdfrwt beam="2">  1       -1 0.92744103E-01 0.15597591E+04</pdfrwt>
<totfact> 0.30832658E+01</totfact>
</mgrwt>
</event>
<event>
12    7  0.1611233E-007  0.1115607E+04  0.7818608E-02  0.9190112E-01
         -1   -1    0    0    0  501 -0.00000000000E+00  0.00000000000E+00  0.61168140457E+03  0.61168140457E+03  0.00000000000E+00 0.  1.
          2   -1    0    0  501    0  0.00000000000E+00 -0.00000000000E+00 -0.50867170445E+03  0.50867170445E+03  0.00000000000E+00 0. -1.
         24    2    1    2    0    0  0.17159307080E+03  0.57726965147E+02  0.97402929647E+01  0.19777217957E+03  0.79008716303E+02 0.  0.
        254    2    1    2    0    0 -0.17159307080E+03 -0.57726965147E+02  0.93269407152E+02  0.92258092946E+03  0.89982209610E+03 0.  0.
         23    2    4    4    0    0 -0.11627038466E+03 -0.21038233124E+03  0.45077074810E+03  0.51938796385E+03  0.93755330526E+02 0.  0.
         23    2    4    4    0    0 -0.55322686143E+02  0.15265536609E+03 -0.35750134095E+03  0.40319296561E+03  0.91613854497E+02 0.  0.
          2    1    3    3  502    0  0.16766359642E+03  0.69700538282E+02 -0.43543139157E+00  0.18157487767E+03  0.00000000000E+00 0. -1.
         -3    1    3    3    0  502  0.39294743808E+01 -0.11973573134E+02  0.10175724356E+02  0.16197301895E+02  0.00000000000E+00 0.  1.
         13    1    5    5    0    0  0.13816559883E+02 -0.92538859151E+01  0.47700493007E+02  0.50516024830E+02  0.00000000000E+00 0. -1.
        -13    1    5    5    0    0 -0.13008694454E+03 -0.20112844532E+03  0.40307025510E+03  0.46887193902E+03  0.00000000000E+00 0.  1.
          2    1    6    6  503    0  0.14012962373E+02 -0.44164842706E+01 -0.30678571871E+02  0.34015338009E+02  0.00000000000E+00 0. -1.
         -2    1    6    6    0  503 -0.69335648516E+02  0.15707185036E+03 -0.32682276908E+03  0.36917762760E+03  0.00000000000E+00 0.  1.
<mgrwt>
<rscale>  0 0.11156075E+04</rscale>
<asrwt>0</asrwt>
<pdfrwt beam="1">  1        2 0.78257185E-01 0.11156075E+04</pdfrwt>
<pdfrwt beam="2">  1       -1 0.94104831E-01 0.11156075E+04</pdfrwt>
<totfact> 0.74929013E+01</totfact>
</mgrwt>
</event>
<event>
12    7  0.1611233E-007  0.1865595E+04  0.7818608E-02  0.8672174E-01
         -1   -1    0    0    0  501 -0.00000000000E+00  0.00000000000E+00  0.68737745071E+03  0.68737745071E+03  0.00000000000E+00 0.  1.
          2   -1    0    0  501    0  0.00000000000E+00 -0.00000000000E+00 -0.12658421179E+04  0.12658421179E+04  0.00000000000E+00 0. -1.
         24    2    1    2    0    0 -0.31599513942E+03 -0.21071441139E+03  0.40972986137E+03  0.56431374818E+03  0.79485569657E+02 0.  0.
        254    2    1    2    0    0  0.31599513942E+03  0.21071441139E+03 -0.98819452857E+03  0.13889058204E+04  0.89904252425E+03 0.  0.
         23    2    4    4    0    0 -0.63260733013E+02  0.44711775042E+03 -0.73745758348E+03  0.86943353839E+03  0.90303860147E+02 0.  0.
         23    2    4    4    0    0  0.37925587243E+03 -0.23640333902E+03 -0.25073694509E+03  0.51947228204E+03  0.85210801556E+02 0.  0.
          4    1    3    3  502    0 -0.10645392959E+03 -0.76745808525E+02  0.19877896617E+03  0.23819201423E+03  0.00000000000E+00 0. -1.
         -3    1    3    3    0  502 -0.20954120983E+03 -0.13396860287E+03  0.21095089521E+03  0.32612173396E+03  0.00000000000E+00 0.  1.
         13    1    5    5    0    0  0.12795988499E+02  0.14017231018E+03 -0.17964617325E+03  0.22822086107E+03  0.00000000000E+00 0.  1.
        -13    1    5    5    0    0 -0.76056721511E+02  0.30694544023E+03 -0.55781141024E+03  0.64121267732E+03  0.00000000000E+00 0. -1.
          2    1    6    6  503    0  0.14150023610E+03 -0.42821817889E+02 -0.70050617028E+02  0.16359435764E+03  0.00000000000E+00 0. -1.
         -2    1    6    6    0  503  0.23775563633E+03 -0.19358152114E+03 -0.18068632806E+03  0.35587792440E+03  0.00000000000E+00 0.  1.
<mgrwt>
<rscale>  0 0.18655952E+04</rscale>
<asrwt>0</asrwt>
<pdfrwt beam="1">  1        2 0.19474494E+00 0.18655952E+04</pdfrwt>
<pdfrwt beam="2">  1       -1 0.10575038E+00 0.18655952E+04</pdfrwt>
<totfact> 0.15520648E+01</totfact>
</mgrwt>
</event>
<event>
12    7  0.1611233E-007  0.1560609E+04  0.7818608E-02  0.8845120E-01
         -1   -1    0    0    0  501 -0.00000000000E+00  0.00000000000E+00  0.33409892187E+03  0.33409892187E+03  0.00000000000E+00 0.  1.
          2   -1    0    0  501    0  0.00000000000E+00 -0.00000000000E+00 -0.18224399395E+04  0.18224399395E+04  0.00000000000E+00 0. -1.
         24    2    1    2    0    0 -0.31467706969E+03 -0.22124007868E+03 -0.94087820761E+03  0.10188188753E+04  0.69074368829E+02 0.  0.
        254    2    1    2    0    0  0.31467706969E+03  0.22124007868E+03 -0.54746281002E+03  0.11377199861E+04  0.92017520497E+03 0.  0.
         23    2    4    4    0    0  0.26892714367E+03  0.51318369728E+03 -0.10196804451E+03  0.59523972035E+03  0.90738783458E+02 0.  0.
         23    2    4    4    0    0  0.45749926022E+02 -0.29194361860E+03 -0.44549476551E+03  0.54248026577E+03  0.92168977855E+02 0.  0.
          2    1    3    3  502    0 -0.30599539244E+03 -0.22302096069E+03 -0.93320436080E+03  0.10070957790E+04  0.00000000000E+00 0. -1.
         -1    1    3    3    0  502 -0.86816772522E+01  0.17808820054E+01 -0.76738468032E+01  0.11723096237E+02  0.00000000000E+00 0.  1.
         13    1    5    5    0    0  0.19977384120E+03  0.42065051114E+03 -0.49299126479E+02  0.46828073206E+03  0.00000000000E+00 0.  1.
        -13    1    5    5    0    0  0.69153302469E+02  0.92533186139E+02 -0.52668918035E+02  0.12695898829E+03  0.00000000000E+00 0. -1.
          1    1    6    6  503    0  0.44375156691E+02 -0.20840607706E+03 -0.24163514353E+03  0.32216422843E+03  0.00000000000E+00 0. -1.
         -1    1    6    6    0  503  0.13747693305E+01 -0.83537541534E+02 -0.20385962198E+03  0.22031603734E+03  0.00000000000E+00 0.  1.
<mgrwt>
<rscale>  0 0.15606091E+04</rscale>
<asrwt>0</asrwt>
<pdfrwt beam="1">  1        2 0.28037538E+00 0.15606091E+04</pdfrwt>
<pdfrwt beam="2">  1       -1 0.51399834E-01 0.15606091E+04</pdfrwt>
<totfact> 0.34978666E+01</totfact>
</mgrwt>
</event>
<event>
12    7  0.1611233E-007  0.1486578E+04  0.7818608E-02  0.8893428E-01
          2   -1    0    0  501    0  0.00000000000E+00  0.00000000000E+00  0.12343429586E+04  0.12343429586E+04  0.00000000000E+00 0. -1.
         -1   -1    0    0    0  501 -0.00000000000E+00 -0.00000000000E+00 -0.44758918636E+03  0.44758918636E+03  0.00000000000E+00 0.  1.
         24    2    1    2    0    0 -0.33060855187E+03 -0.33816997369E+03  0.26899687372E+03  0.55163441194E+03  0.90995937768E+02 0.  0.
        254    2    1    2    0    0  0.33060855187E+03  0.33816997369E+03  0.51775689855E+03  0.11302977331E+04  0.88647606493E+03 0.  0.
         23    2    4    4    0    0  0.88834923267E+02 -0.46521713820E+02  0.63775194004E+03  0.65198083676E+03  0.91079970493E+02 0.  0.
         23    2    4    4    0    0  0.24177362860E+03  0.38469168751E+03 -0.11999504150E+03  0.47831689629E+03  0.89140683040E+02 0.  0.
          2    1    3    3  502    0 -0.21477227702E+01 -0.20780712672E+02  0.28788228083E+02  0.35569830031E+02  0.00000000000E+00 0. -1.
         -1    1    3    3    0  502 -0.32846082910E+03 -0.31738926101E+03  0.24020864564E+03  0.51606458191E+03  0.00000000000E+00 0.  1.
         13    1    5    5    0    0  0.40160905609E+01 -0.11652519707E+02  0.34457874280E+03  0.34479910120E+03  0.00000000000E+00 0. -1.
        -13    1    5    5    0    0  0.84818832706E+02 -0.34869194114E+02  0.29317319724E+03  0.30718173556E+03  0.00000000000E+00 0.  1.
          4    1    6    6  503    0  0.16860305806E+03  0.33002686994E+03 -0.10914983017E+03  0.38633976173E+03  0.00000000000E+00 0.  1.
         -4    1    6    6    0  503  0.73170570545E+02  0.54664817562E+02 -0.10845211327E+02  0.91977134559E+02  0.00000000000E+00 0. -1.
<mgrwt>
<rscale>  0 0.14865780E+04</rscale>
<asrwt>0</asrwt>
<pdfrwt beam="1">  1        2 0.18989892E+00 0.14865780E+04</pdfrwt>
<pdfrwt beam="2">  1       -1 0.68859875E-01 0.14865780E+04</pdfrwt>
<totfact> 0.42521635E+01</totfact>
</mgrwt>
</event>
<event>
12    7  0.1611233E-007  0.1524010E+04  0.7818608E-02  0.8868642E-01
         -1   -1    0    0    0  501 -0.00000000000E+00  0.00000000000E+00  0.26410890323E+03  0.26410890323E+03  0.00000000000E+00 0.  1.
          2   -1    0    0  501    0  0.00000000000E+00 -0.00000000000E+00 -0.21985309934E+04  0.21985309934E+04  0.00000000000E+00 0. -1.
         24    2    1    2    0    0  0.32442273042E+03  0.30875925818E+03 -0.34794217660E+03  0.57279007308E+03  0.80264076875E+02 0.  0.
        254    2    1    2    0    0 -0.32442273042E+03 -0.30875925818E+03 -0.15864799135E+04  0.18898498235E+04  0.92413822118E+03 0.  0.
         23    2    4    4    0    0 -0.63021255526E+03 -0.14961509497E+03 -0.86119771775E+03  0.10817446108E+04  0.94643290966E+02 0.  0.
         23    2    4    4    0    0  0.30578982484E+03 -0.15914416322E+03 -0.72528219577E+03  0.80810521268E+03  0.90363098675E+02 0.  0.
          4    1    3    3  502    0  0.76952017384E+02  0.40072954597E+02 -0.42409509132E+02  0.96571326668E+02  0.00000000000E+00 0. -1.
         -1    1    3    3    0  502  0.24747071303E+03  0.26868630359E+03 -0.30553266747E+03  0.47621874641E+03  0.00000000000E+00 0.  1.
         13    1    5    5    0    0 -0.46928791862E+03 -0.73369117290E+02 -0.59235461020E+03  0.75927476065E+03  0.00000000000E+00 0.  1.
        -13    1    5    5    0    0 -0.16092463664E+03 -0.76245977678E+02 -0.26884310755E+03  0.32246985016E+03  0.00000000000E+00 0. -1.
          2    1    6    6  503    0  0.99974639638E+01 -0.28075563576E+02 -0.96099335333E+02  0.10061445625E+03  0.00000000000E+00 0. -1.
         -2    1    6    6    0  503  0.29579236087E+03 -0.13106859964E+03 -0.62918286044E+03  0.70749075643E+03  0.00000000000E+00 0.  1.
<mgrwt>
<rscale>  0 0.15240100E+04</rscale>
<asrwt>0</asrwt>
<pdfrwt beam="1">  1        2 0.33823555E+00 0.15240100E+04</pdfrwt>
<pdfrwt beam="2">  1       -1 0.40632137E-01 0.15240100E+04</pdfrwt>
<totfact> 0.33666430E+01</totfact>
</mgrwt>
</event>
<event>
12    7  0.1611233E-007  0.1255196E+04  0.7818608E-02  0.9065870E-01
          2   -1    0    0  501    0  0.00000000000E+00  0.00000000000E+00  0.60056490759E+03  0.60056490759E+03  0.00000000000E+00 0. -1.
         -1   -1    0    0    0  501 -0.00000000000E+00 -0.00000000000E+00 -0.65584774081E+03  0.65584774081E+03  0.00000000000E+00 0.  1.
         24    2    1    2    0    0  0.44896234697E+02  0.48999638295E+02 -0.29573344071E+03  0.31362610617E+03  0.80538376423E+02 0.  0.
        254    2    1    2    0    0 -0.44896234697E+02 -0.48999638295E+02  0.24045060749E+03  0.94278654223E+03  0.90918278312E+03 0.  0.
         23    2    4    4    0    0 -0.33656174115E+03  0.69983148093E+02 -0.18980985583E+03  0.40224477732E+03  0.87187343623E+02 0.  0.
         23    2    4    4    0    0  0.29166550645E+03 -0.11898278639E+03  0.43026046332E+03  0.54054176491E+03  0.88519275879E+02 0.  0.
          2    1    3    3  502    0 -0.94099366915E+01  0.37400585967E+01 -0.59959533637E+00  0.10143690719E+02  0.00000000000E+00 0. -1.
         -1    1    3    3    0  502  0.54306171388E+02  0.45259579698E+02 -0.29513384537E+03  0.30348241545E+03  0.00000000000E+00 0.  1.
         13    1    5    5    0    0 -0.29609074422E+03  0.89847402991E+02 -0.16937416012E+03  0.35274621295E+03  0.00000000000E+00 0. -1.
        -13    1    5    5    0    0 -0.40470996930E+02 -0.19864254898E+02 -0.20435695715E+02  0.49498564368E+02  0.00000000000E+00 0.  1.
          3    1    6    6  503    0  0.11308677045E+03 -0.87974851053E+02  0.15611215277E+03  0.21189430457E+03  0.00000000000E+00 0. -1.
         -3    1    6    6    0  503  0.17857873600E+03 -0.31007935335E+02  0.27414831055E+03  0.32864746033E+03  0.00000000000E+00 0.  1.
<mgrwt>
<rscale>  0 0.12551958E+04</rscale>
<asrwt>0</asrwt>
<pdfrwt beam="1">  1        2 0.92394601E-01 0.12551958E+04</pdfrwt>
<pdfrwt beam="2">  1       -1 0.10089965E+00 0.12551958E+04</pdfrwt>
<totfact> 0.51999433E+01</totfact>
</mgrwt>
</event>
<event>
12    7  0.1611233E-007  0.2832091E+04  0.7818608E-02  0.8293374E-01
          2   -1    0    0  501    0  0.00000000000E+00  0.00000000000E+00  0.20349142774E+04  0.20349142774E+04  0.00000000000E+00 0. -1.
         -1   -1    0    0    0  501 -0.00000000000E+00 -0.00000000000E+00 -0.98539036297E+03  0.98539036297E+03  0.00000000000E+00 0.  1.
         24    2    1    2    0    0 -0.67942079955E+03 -0.83673162955E+03  0.11864844305E+04  0.16048796361E+04  0.78491399420E+02 0.  0.
        254    2    1    2    0    0  0.67942079955E+03  0.83673162955E+03 -0.13696051606E+03  0.14154250043E+04  0.90715892600E+03 0.  0.
         23    2    4    4    0    0  0.51706968568E+03  0.89057940230E+03 -0.38270494029E+03  0.11023107581E+04  0.90184280742E+02 0.  0.
         23    2    4    4    0    0  0.16235111387E+03 -0.53847772750E+02  0.24574442423E+03  0.31311424616E+03  0.91611911362E+02 0.  0.
          2    1    3    3  502    0 -0.52083321736E+03 -0.60702442689E+03  0.91824594425E+03  0.12177526470E+04  0.00000000000E+00 0. -1.
         -1    1    3    3    0  502 -0.15858758219E+03 -0.22970720265E+03  0.26823848622E+03  0.38712698907E+03  0.00000000000E+00 0.  1.
         13    1    5    5    0    0  0.47227389443E+03  0.79538408049E+03 -0.37022036339E+03  0.99636418258E+03  0.00000000000E+00 0.  1.
        -13    1    5    5    0    0  0.44795791247E+02  0.95195321811E+02 -0.12484576898E+02  0.10594657554E+03  0.00000000000E+00 0. -1.
          4    1    6    6  503    0  0.73715028138E+01  0.20012757274E+02  0.38347361450E+02  0.43879034146E+02  0.00000000000E+00 0. -1.
         -4    1    6    6    0  503  0.15497961105E+03 -0.73860530023E+02  0.20739706278E+03  0.26923521201E+03  0.00000000000E+00 0.  1.
<mgrwt>
<rscale>  0 0.28320910E+04</rscale>
<asrwt>0</asrwt>
<pdfrwt beam="1">  1        2 0.31306373E+00 0.28320910E+04</pdfrwt>
<pdfrwt beam="2">  1       -1 0.15159852E+00 0.28320910E+04</pdfrwt>
<totfact> 0.21382805E+00</totfact>
</mgrwt>
</event>
<event>
12    7  0.1611233E-007  0.1642899E+04  0.7818608E-02  0.8794619E-01
          2   -1    0    0  501    0  0.00000000000E+00  0.00000000000E+00  0.30772160990E+04  0.30772160990E+04  0.00000000000E+00 0. -1.
         -1   -1    0    0    0  501 -0.00000000000E+00 -0.00000000000E+00 -0.21928235159E+03  0.21928235159E+03  0.00000000000E+00 0.  1.
         24    2    1    2    0    0  0.22156486588E+03  0.37348276063E+03  0.27162478826E+03  0.51819948453E+03  0.78551371003E+02 0.  0.
        254    2    1    2    0    0 -0.22156486588E+03 -0.37348276063E+03  0.25863089592E+04  0.27782989661E+04  0.91726263984E+03 0.  0.
         23    2    4    4    0    0  0.10153949444E+03 -0.77089440743E+02  0.79066801337E+01  0.16123594392E+03  0.98394426747E+02 0.  0.
         23    2    4    4    0    0 -0.32310436032E+03 -0.29639331988E+03  0.25784022790E+04  0.26170630222E+04  0.92817680430E+02 0.  0.
          2    1    3    3  502    0  0.19070958517E+02  0.86470676180E+02  0.38075183718E+02  0.96387752919E+02  0.00000000000E+00 0. -1.
         -1    1    3    3    0  502  0.20249390736E+03  0.28701208445E+03  0.23354960455E+03  0.42181173161E+03  0.00000000000E+00 0.  1.
         13    1    5    5    0    0  0.10597439857E+02 -0.67753827449E+02  0.12470074815E+02  0.69702149403E+02  0.00000000000E+00 0. -1.
        -13    1    5    5    0    0  0.90942054580E+02 -0.93356132942E+01 -0.45633946814E+01  0.91533794512E+02  0.00000000000E+00 0.  1.
          3    1    6    6  503    0 -0.12813166379E+03 -0.75825215613E+02  0.10577386991E+04  0.10681658776E+04  0.00000000000E+00 0. -1.
         -3    1    6    6    0  503 -0.19497269653E+03 -0.22056810427E+03  0.15206635800E+04  0.15488971446E+04  0.00000000000E+00 0.  1.
<mgrwt>
<rscale>  0 0.16428989E+04</rscale>
<asrwt>0</asrwt>
<pdfrwt beam="1">  1        2 0.47341783E+00 0.16428989E+04</pdfrwt>
<pdfrwt beam="2">  1       -1 0.33735749E-01 0.16428989E+04</pdfrwt>
<totfact> 0.14122969E+01</totfact>
</mgrwt>
</event>
<event>
12    7  0.1611233E-007  0.1706852E+04  0.7818608E-02  0.8757466E-01
         -1   -1    0    0    0  501 -0.00000000000E+00  0.00000000000E+00  0.20124805601E+03  0.20124805601E+03  0.00000000000E+00 0.  1.
          2   -1    0    0  501    0  0.00000000000E+00 -0.00000000000E+00 -0.36190950316E+04  0.36190950316E+04  0.00000000000E+00 0. -1.
         24    2    1    2    0    0 -0.58936503816E+03  0.93537786485E+02 -0.14555211616E+04  0.15763492033E+04  0.10116567161E+03 0.  0.
        254    2    1    2    0    0  0.58936503816E+03 -0.93537786485E+02 -0.19623258140E+04  0.22439938844E+04  0.91032163928E+03 0.  0.
         23    2    4    4    0    0 -0.37778242691E+02 -0.12536659083E+03  0.20226766651E+02  0.16236618093E+03  0.93859879097E+02 0.  0.
         23    2    4    4    0    0  0.62714328085E+03  0.31828804343E+02 -0.19825525807E+04  0.20816277034E+04  0.91309326122E+02 0.  0.
          2    1    3    3  502    0 -0.86383883788E+02  0.50830628178E+02 -0.25786518391E+03  0.27665932338E+03  0.00000000000E+00 0. -1.
         -1    1    3    3    0  502 -0.50298115437E+03  0.42707158307E+02 -0.11976559777E+04  0.12996898799E+04  0.00000000000E+00 0.  1.
         13    1    5    5    0    0 -0.32850292644E+02 -0.87091607695E+02  0.56928252228E+02  0.10910965017E+03  0.00000000000E+00 0. -1.
        -13    1    5    5    0    0 -0.49279500472E+01 -0.38274983132E+02 -0.36701485576E+02  0.53256530763E+02  0.00000000000E+00 0.  1.
          4    1    6    6  503    0  0.54165267150E+03  0.34509981201E+02 -0.17996790883E+04  0.18797402417E+04  0.00000000000E+00 0. -1.
         -4    1    6    6    0  503  0.85490609350E+02 -0.26811768588E+01 -0.18287349241E+03  0.20188746178E+03  0.00000000000E+00 0.  1.
<mgrwt>
<rscale>  0 0.17068519E+04</rscale>
<asrwt>0</asrwt>
<pdfrwt beam="1">  1        2 0.55678384E+00 0.17068519E+04</pdfrwt>
<pdfrwt beam="2">  1       -1 0.30961240E-01 0.17068519E+04</pdfrwt>
<totfact> 0.70702741E+00</totfact>
</mgrwt>
</event>
<event>
12    7  0.1611233E-007  0.1344064E+04  0.7818608E-02  0.8995334E-01
         -1   -1    0    0    0  501 -0.00000000000E+00  0.00000000000E+00  0.33797841467E+03  0.33797841467E+03  0.00000000000E+00 0.  1.
          2   -1    0    0  501    0  0.00000000000E+00 -0.00000000000E+00 -0.13362595521E+04  0.13362595521E+04  0.00000000000E+00 0. -1.
         24    2    1    2    0    0  0.55204120496E+02 -0.22674215815E+03  0.66215720751E+02  0.25559865684E+03  0.80539744852E+02 0.  0.
        254    2    1    2    0    0 -0.55204120496E+02  0.22674215815E+03 -0.10644968582E+04  0.14186393099E+04  0.90825350504E+03 0.  0.
         23    2    4    4    0    0  0.40671172056E+03  0.94672234385E+02 -0.34948155541E+03  0.55212889036E+03  0.91278137561E+02 0.  0.
         23    2    4    4    0    0 -0.46191584105E+03  0.13206992377E+03 -0.71501530278E+03  0.86651041958E+03  0.93726810766E+02 0.  0.
          4    1    3    3  502    0 -0.10954448665E+02 -0.44984136133E+01 -0.52499729690E+01  0.12953682363E+02  0.00000000000E+00 0. -1.
         -3    1    3    3    0  502  0.66158569161E+02 -0.22224374454E+03  0.71465693720E+02  0.24264497448E+03  0.00000000000E+00 0.  1.
         13    1    5    5    0    0  0.27310720065E+03  0.79513872527E+02 -0.18342549268E+03  0.33845961404E+03  0.00000000000E+00 0. -1.
        -13    1    5    5    0    0  0.13360451990E+03  0.15158361859E+02 -0.16605606273E+03  0.21366927631E+03  0.00000000000E+00 0.  1.
          3    1    6    6  503    0 -0.20888184133E+03  0.47942542669E+02 -0.39995452890E+03  0.45375515007E+03  0.00000000000E+00 0. -1.
         -3    1    6    6    0  503 -0.25303399972E+03  0.84127381098E+02 -0.31506077388E+03  0.41275526951E+03  0.00000000000E+00 0.  1.
<mgrwt>
<rscale>  0 0.13440638E+04</rscale>
<asrwt>0</asrwt>
<pdfrwt beam="1">  1        2 0.20557840E+00 0.13440638E+04</pdfrwt>
<pdfrwt beam="2">  1       -1 0.51996678E-01 0.13440638E+04</pdfrwt>
<totfact> 0.65306813E+01</totfact>
</mgrwt>
</event>
<event>
12    7  0.1611233E-007  0.1642984E+04  0.7818608E-02  0.8794568E-01
          2   -1    0    0  501    0  0.00000000000E+00  0.00000000000E+00  0.86788969719E+03  0.86788969719E+03  0.00000000000E+00 0. -1.
         -1   -1    0    0    0  501 -0.00000000000E+00 -0.00000000000E+00 -0.77757458035E+03  0.77757458035E+03  0.00000000000E+00 0.  1.
         24    2    1    2    0    0 -0.63308555083E+01 -0.37003575575E+03 -0.40178410590E+03  0.55193643630E+03  0.78973550671E+02 0.  0.
        254    2    1    2    0    0  0.63308555083E+01  0.37003575575E+03  0.49209922273E+03  0.10935278412E+04  0.90370069950E+03 0.  0.
         23    2    4    4    0    0  0.37631450978E+03  0.43673304940E+03  0.23895879183E+03  0.63124167378E+03  0.94954619787E+02 0.  0.
         23    2    4    4    0    0 -0.36998365427E+03 -0.66697293653E+02  0.25314043091E+03  0.46228616745E+03  0.91060361572E+02 0.  0.
          2    1    3    3  502    0  0.28474318995E+01 -0.14911017606E+03 -0.10751655967E+03  0.18385255798E+03  0.00000000000E+00 0. -1.
         -3    1    3    3    0  502 -0.91782874078E+01 -0.22092557969E+03 -0.29426754622E+03  0.36808387832E+03  0.00000000000E+00 0.  1.
         13    1    5    5    0    0  0.21335948065E+03  0.17517925267E+03  0.10926736756E+03  0.29689963989E+03  0.00000000000E+00 0.  1.
        -13    1    5    5    0    0  0.16295502912E+03  0.26155379673E+03  0.12969142426E+03  0.33434203390E+03  0.00000000000E+00 0. -1.
          1    1    6    6  503    0 -0.31393712627E+03 -0.76528457357E+02  0.18088216222E+03  0.37031267957E+03  0.00000000000E+00 0. -1.
         -1    1    6    6    0  503 -0.56046527995E+02  0.98311637038E+01  0.72258268683E+02  0.91973487882E+02  0.00000000000E+00 0.  1.
<mgrwt>
<rscale>  0 0.16429838E+04</rscale>
<asrwt>0</asrwt>
<pdfrwt beam="1">  1        2 0.13352149E+00 0.16429838E+04</pdfrwt>
<pdfrwt beam="2">  1       -1 0.11962686E+00 0.16429838E+04</pdfrwt>
<totfact> 0.20994506E+01</totfact>
</mgrwt>
</event>
