<event>
12    6  0.1540825E-007  0.1333283E+04  0.7818608E-02  0.9003580E-01
         -1   -1    0    0    0  501 -0.00000000000E+00  0.00000000000E+00  0.63142386663E+03  0.63142386663E+03  0.00000000000E+00 0.  1.
          2   -1    0    0  501    0  0.00000000000E+00 -0.00000000000E+00 -0.70382383133E+03  0.70382383133E+03  0.00000000000E+00 0. -1.
         24    2    1    2    0    0  0.10586776823E+03  0.29625929787E+03  0.13683181289E+03  0.35625294507E+03  0.95998228770E+02 0.  0.
        254    2    1    2    0    0 -0.10586776823E+03 -0.29625929787E+03 -0.20923177758E+03  0.97899475289E+03  0.90314740409E+03 0.  0.
         23    2    4    4    0    0  0.24787125424E+03  0.11174822350E+03  0.15098015310E+03  0.32359174983E+03  0.89380030168E+02 0.  0.
         23    2    4    4    0    0 -0.35373902247E+03 -0.40800752137E+03 -0.36021193069E+03  0.65540300307E+03  0.90548483728E+02 0.  0.
          2    1    3    3  502    0  0.79763317887E+02  0.14862652075E+03  0.27982192763E+02  0.17098255076E+03  0.00000000000E+00 0. -1.
         -1    1    3    3    0  502  0.26104450343E+02  0.14763277712E+03  0.10884962012E+03  0.18527039431E+03  0.00000000000E+00 0.  1.
         11    1    5    5    0    0  0.19720210040E+03  0.74387862886E+02  0.72290480352E+02  0.22281861703E+03  0.00000000000E+00 0.  1.
        -11    1    5    5    0    0  0.50669153842E+02  0.37360360613E+02  0.78689672753E+02  0.10077313280E+03  0.00000000000E+00 0. -1.
          3    1    6    6  503    0 -0.25494381193E+03 -0.32942060811E+03 -0.31129188230E+03  0.52001626924E+03  0.00000000000E+00 0. -1.
         -3    1    6    6    0  503 -0.98795210544E+02 -0.78586913264E+02 -0.48920048386E+02  0.13538673383E+03  0.00000000000E+00 0.  1.
<mgrwt>
<rscale>  0 0.13332834E+04</rscale>
<asrwt>0</asrwt>
<pdfrwt beam="1">  1        2 0.10828059E+00 0.13332834E+04</pdfrwt>
<pdfrwt beam="2">  1       -1 0.97142133E-01 0.13332834E+04</pdfrwt>
<totfact> 0.46299825E+01</totfact>
</mgrwt>
</event>
<event>
12    6  0.1540825E-007  0.1824486E+04  0.7818608E-02  0.8693386E-01
          4   -1    0    0  501    0  0.00000000000E+00  0.00000000000E+00  0.11145069663E+04  0.11145069663E+04  0.00000000000E+00 0. -1.
         -3   -1    0    0    0  501 -0.00000000000E+00 -0.00000000000E+00 -0.74668622777E+03  0.74668622777E+03  0.00000000000E+00 0.  1.
         24    2    1    2    0    0 -0.61375597837E+03 -0.27452600321E+03  0.30333146497E+03  0.74301895727E+03  0.89477739119E+02 0.  0.
        254    2    1    2    0    0  0.61375597837E+03  0.27452600321E+03  0.64489273520E+02  0.11181742368E+04  0.89111942519E+03 0.  0.
         23    2    4    4    0    0  0.31932359079E+03  0.15006447382E+03 -0.40331298823E+03  0.54360253087E+03  0.91408113198E+02 0.  0.
         23    2    4    4    0    0  0.29443238758E+03  0.12446152939E+03  0.46780226175E+03  0.57457170589E+03  0.95459865719E+02 0.  0.
          4    1    3    3  502    0 -0.71301690361E+02 -0.40322439912E+02  0.75356377627E+01  0.82259443502E+02  0.00000000000E+00 0. -1.
         -3    1    3    3    0  502 -0.54245428801E+03 -0.23420356330E+03  0.29579582721E+03  0.66075951377E+03  0.00000000000E+00 0.  1.
         11    1    5    5    0    0  0.15960146003E+02  0.36776257591E+02 -0.35468535868E+02  0.53527903186E+02  0.00000000000E+00 0.  1.
        -11    1    5    5    0    0  0.30336344479E+03  0.11328821623E+03 -0.36784445236E+03  0.49007462769E+03  0.00000000000E+00 0. -1.
          4    1    6    6  503    0  0.68510563136E+02  0.76396196125E+02  0.14621918797E+03  0.17863405883E+03  0.00000000000E+00 0.  1.
         -4    1    6    6    0  503  0.22592182444E+03  0.48065333265E+02  0.32158307378E+03  0.39593764706E+03  0.00000000000E+00 0. -1.
<mgrwt>
<rscale>  0 0.18244857E+04</rscale>
<asrwt>0</asrwt>
<pdfrwt beam="1">  1        4 0.17146261E+00 0.18244857E+04</pdfrwt>
<pdfrwt beam="2">  1       -3 0.11487480E+00 0.18244857E+04</pdfrwt>
<totfact> 0.27939119E-01</totfact>
</mgrwt>
</event>
<event>
12    6  0.1540825E-007  0.1769403E+04  0.7818608E-02  0.8722742E-01
         -1   -1    0    0    0  501 -0.00000000000E+00  0.00000000000E+00  0.94777636759E+03  0.94777636759E+03  0.00000000000E+00 0.  1.
          2   -1    0    0  501    0  0.00000000000E+00 -0.00000000000E+00 -0.82582414163E+03  0.82582414163E+03  0.00000000000E+00 0. -1.
         24    2    1    2    0    0 -0.60614022560E+03  0.17860360309E+02  0.28857683044E+03  0.67632505991E+03  0.80087664677E+02 0.  0.
        254    2    1    2    0    0  0.60614022560E+03 -0.17860360309E+02 -0.16662460448E+03  0.10972754493E+04  0.89918000827E+03 0.  0.
         23    2    4    4    0    0  0.30708268334E+03  0.52623776322E+02 -0.52433081575E+03  0.61705755076E+03  0.93638562369E+02 0.  0.
         23    2    4    4    0    0  0.29905754226E+03 -0.70484136631E+02  0.35770621126E+03  0.48021789855E+03  0.90840901636E+02 0.  0.
          4    1    3    3  502    0 -0.82327158455E+02  0.12356926934E+02  0.12489643623E+02  0.84181030288E+02  0.00000000000E+00 0. -1.
         -3    1    3    3    0  502 -0.52381306714E+03  0.55034333742E+01  0.27608718682E+03  0.59214402962E+03  0.00000000000E+00 0.  1.
         11    1    5    5    0    0  0.18786772687E+02  0.23118013352E+02 -0.90992646239E+02  0.95744697184E+02  0.00000000000E+00 0.  1.
        -11    1    5    5    0    0  0.28829591065E+03  0.29505762970E+02 -0.43333816951E+03  0.52131285357E+03  0.00000000000E+00 0. -1.
          4    1    6    6  503    0  0.35143744055E+02 -0.27654623715E+02  0.18716517839E+02  0.48478541635E+02  0.00000000000E+00 0.  1.
         -4    1    6    6    0  503  0.26391379820E+03 -0.42829512916E+02  0.33898969343E+03  0.43173935691E+03  0.00000000000E+00 0. -1.
<mgrwt>
<rscale>  0 0.17694028E+04</rscale>
<asrwt>0</asrwt>
<pdfrwt beam="1">  1        2 0.12704987E+00 0.17694028E+04</pdfrwt>
<pdfrwt beam="2">  1       -1 0.14581175E+00 0.17694028E+04</pdfrwt>
<totfact> 0.13423705E+01</totfact>
</mgrwt>
</event>
<event>
12    6  0.1540825E-007  0.1304195E+04  0.7818608E-02  0.9026245E-01
         -1   -1    0    0    0  501 -0.00000000000E+00  0.00000000000E+00  0.90985477040E+02  0.90985477040E+02  0.00000000000E+00 0.  1.
          2   -1    0    0  501    0  0.00000000000E+00 -0.00000000000E+00 -0.46736187122E+04  0.46736187122E+04  0.00000000000E+00 0. -1.
         24    2    1    2    0    0 -0.19763783091E+02  0.15585341158E+02  0.99894322146E+01  0.84011905831E+02  0.79527992457E+02 0.  0.
        254    2    1    2    0    0  0.19763783091E+02 -0.15585341158E+02 -0.45926226673E+04  0.46805922834E+04  0.90284419954E+03 0.  0.
         23    2    4    4    0    0 -0.11145322231E+03 -0.42388192802E+03 -0.27777594543E+04  0.28136031659E+04  0.91200216242E+02 0.  0.
         23    2    4    4    0    0  0.13121700540E+03  0.40829658687E+03 -0.18148632130E+04  0.18669891175E+04  0.89419670304E+02 0.  0.
          2    1    3    3  502    0 -0.39851713877E+02 -0.25233208719E+01 -0.19124009645E+02  0.44274755698E+02  0.00000000000E+00 0. -1.
         -1    1    3    3    0  502  0.20087930787E+02  0.18108662030E+02  0.29113441859E+02  0.39737150133E+02  0.00000000000E+00 0.  1.
         11    1    5    5    0    0 -0.34109659374E+02 -0.20852003612E+03 -0.15925856137E+04  0.16065406971E+04  0.00000000000E+00 0.  1.
        -11    1    5    5    0    0 -0.77343562932E+02 -0.21536189190E+03 -0.11851738406E+04  0.12070624688E+04  0.00000000000E+00 0. -1.
          4    1    6    6  503    0  0.93577354592E+02  0.31079861254E+03 -0.15166378930E+04  0.15509813014E+04  0.00000000000E+00 0. -1.
         -4    1    6    6    0  503  0.37639650805E+02  0.97497974321E+02 -0.29822532002E+03  0.31600781606E+03  0.00000000000E+00 0.  1.
<mgrwt>
<rscale>  0 0.13041954E+04</rscale>
<asrwt>0</asrwt>
<pdfrwt beam="1">  1        2 0.71901829E+00 0.13041954E+04</pdfrwt>
<pdfrwt beam="2">  1       -1 0.13997765E-01 0.13041954E+04</pdfrwt>
<totfact> 0.35549324E+00</totfact>
</mgrwt>
</event>
<event>
12    6  0.1540825E-007  0.2225641E+04  0.7818608E-02  0.8507831E-01
          2   -1    0    0  501    0  0.00000000000E+00  0.00000000000E+00  0.69019497009E+03  0.69019497009E+03  0.00000000000E+00 0. -1.
         -1   -1    0    0    0  501 -0.00000000000E+00 -0.00000000000E+00 -0.17942309737E+04  0.17942309737E+04  0.00000000000E+00 0.  1.
         24    2    1    2    0    0  0.57153852504E+03 -0.33214942538E+03 -0.11646028754E+04  0.13412612025E+04  0.75513109988E+02 0.  0.
        254    2    1    2    0    0 -0.57153852504E+03  0.33214942538E+03  0.60566871726E+02  0.11431647413E+04  0.93068671062E+03 0.  0.
         23    2    4    4    0    0 -0.51569656983E+03  0.24732626983E+03  0.44785080257E+03  0.73221776591E+03  0.91974341396E+02 0.  0.
         23    2    4    4    0    0 -0.55841955208E+02  0.84823155545E+02 -0.38728393084E+03  0.41094697535E+03  0.92602817353E+02 0.  0.
          4    1    3    3  502    0  0.12184772009E+03 -0.72691274364E+02 -0.19162295734E+03  0.23843289631E+03  0.00000000000E+00 0. -1.
         -3    1    3    3    0  502  0.44969080494E+03 -0.25945815101E+03 -0.97297991802E+03  0.11028283062E+04  0.00000000000E+00 0.  1.
         11    1    5    5    0    0 -0.37321433392E+03  0.19421285680E+03  0.37507866397E+03  0.56364135490E+03  0.00000000000E+00 0. -1.
        -11    1    5    5    0    0 -0.14248223591E+03  0.53113413037E+02  0.72772138602E+02  0.16857641102E+03  0.00000000000E+00 0.  1.
          2    1    6    6  503    0 -0.79676030508E+02  0.73466237026E+02 -0.33918267241E+03  0.35607645680E+03  0.00000000000E+00 0. -1.
         -2    1    6    6    0  503  0.23834075299E+02  0.11356918519E+02 -0.48101258428E+02  0.54870518550E+02  0.00000000000E+00 0.  1.
<mgrwt>
<rscale>  0 0.22256408E+04</rscale>
<asrwt>0</asrwt>
<pdfrwt beam="1">  1        2 0.10618384E+00 0.22256408E+04</pdfrwt>
<pdfrwt beam="2">  1       -1 0.27603554E+00 0.22256408E+04</pdfrwt>
<totfact> 0.20503504E+00</totfact>
</mgrwt>
</event>
<event>
12    6  0.1540825E-007  0.3496296E+04  0.7818608E-02  0.8114668E-01
         -1   -1    0    0    0  501 -0.00000000000E+00  0.00000000000E+00  0.12957575800E+04  0.12957575800E+04  0.00000000000E+00 0.  1.
          2   -1    0    0  501    0  0.00000000000E+00 -0.00000000000E+00 -0.23584827819E+04  0.23584827819E+04  0.00000000000E+00 0. -1.
         24    2    1    2    0    0 -0.87736136793E+03 -0.62063387315E+03  0.78441169602E+03  0.13329646996E+04  0.80893800565E+02 0.  0.
        254    2    1    2    0    0  0.87736136793E+03  0.62063387315E+03 -0.18471368980E+04  0.23212756623E+04  0.90634243319E+03 0.  0.
         23    2    4    4    0    0  0.98518499225E+03  0.50731915552E+03 -0.18263311873E+04  0.21381960324E+04  0.91839384655E+02 0.  0.
         23    2    4    4    0    0 -0.10782362432E+03  0.11331471763E+03 -0.20805710643E+02  0.18307962994E+03  0.92839184132E+02 0.  0.
          4    1    3    3  502    0 -0.64854433438E+02 -0.24733215404E+02  0.39086574086E+02  0.79659210106E+02  0.00000000000E+00 0. -1.
         -1    1    3    3    0  502 -0.81250693449E+03 -0.59590065774E+03  0.74532512193E+03  0.12533054894E+04  0.00000000000E+00 0.  1.
         11    1    5    5    0    0  0.74155908649E+03  0.33931632765E+03 -0.13114973035E+04  0.15443673870E+04  0.00000000000E+00 0. -1.
        -11    1    5    5    0    0  0.24362590576E+03  0.16800282787E+03 -0.51483388381E+03  0.59382864535E+03  0.00000000000E+00 0.  1.
          4    1    6    6  503    0 -0.82365152644E+01  0.62920216589E+02 -0.31705550555E+02  0.70936843567E+02  0.00000000000E+00 0. -1.
         -4    1    6    6    0  503 -0.99587109056E+02  0.50394501042E+02  0.10899839911E+02  0.11214278637E+03  0.00000000000E+00 0.  1.
<mgrwt>
<rscale>  0 0.34962963E+04</rscale>
<asrwt>0</asrwt>
<pdfrwt beam="1">  1        2 0.36284350E+00 0.34962963E+04</pdfrwt>
<pdfrwt beam="2">  1       -1 0.19934732E+00 0.34962963E+04</pdfrwt>
<totfact> 0.59659284E-01</totfact>
</mgrwt>
</event>
<event>
12    6  0.1540825E-007  0.2141104E+04  0.7818608E-02  0.8543350E-01
         -1   -1    0    0    0  501 -0.00000000000E+00  0.00000000000E+00  0.10863283867E+04  0.10863283867E+04  0.00000000000E+00 0.  1.
          2   -1    0    0  501    0  0.00000000000E+00 -0.00000000000E+00 -0.10550043204E+04  0.10550043204E+04  0.00000000000E+00 0. -1.
         24    2    1    2    0    0  0.24897894335E+03 -0.47817588436E+03 -0.69031652087E+03  0.87934856943E+03  0.77937904514E+02 0.  0.
        254    2    1    2    0    0 -0.24897894335E+03  0.47817588436E+03  0.72164058712E+03  0.12619841377E+04  0.88385300595E+03 0.  0.
         23    2    4    4    0    0 -0.93985336500E+02 -0.10722680304E+03 -0.13039886358E+03  0.21282665360E+03  0.89221578635E+02 0.  0.
         23    2    4    4    0    0 -0.15499360685E+03  0.58540268741E+03  0.85203945069E+03  0.10491574841E+04  0.89670933136E+02 0.  0.
          2    1    3    3  502    0  0.52182081850E+02 -0.17601980915E+03 -0.21472841212E+03  0.28251413036E+03  0.00000000000E+00 0. -1.
         -1    1    3    3    0  502  0.19679686150E+03 -0.30215607522E+03 -0.47558810875E+03  0.59683443908E+03  0.00000000000E+00 0.  1.
         11    1    5    5    0    0 -0.67804991513E+02 -0.92336691948E+02 -0.14029405571E+03  0.18112427673E+03  0.00000000000E+00 0.  1.
        -11    1    5    5    0    0 -0.26180344987E+02 -0.14890111095E+02  0.98951921323E+01  0.31702376873E+02  0.00000000000E+00 0. -1.
          4    1    6    6  503    0 -0.70269389477E+02  0.12095470042E+03  0.18422825978E+03  0.23131770004E+03  0.00000000000E+00 0. -1.
         -4    1    6    6    0  503 -0.84724217373E+02  0.46444798698E+03  0.66781119092E+03  0.81783978403E+03  0.00000000000E+00 0.  1.
<mgrwt>
<rscale>  0 0.21411036E+04</rscale>
<asrwt>0</asrwt>
<pdfrwt beam="1">  1        2 0.16230836E+00 0.21411036E+04</pdfrwt>
<pdfrwt beam="2">  1       -1 0.16712744E+00 0.21411036E+04</pdfrwt>
<totfact> 0.62896985E+00</totfact>
</mgrwt>
</event>
<event>
12    6  0.2376254E-007  0.1518014E+04  0.7818608E-02  0.8872561E-01
          2   -1    0    0  501    0  0.00000000000E+00  0.00000000000E+00  0.10151802802E+04  0.10151802802E+04  0.00000000000E+00 0. -1.
         -1   -1    0    0    0  501 -0.00000000000E+00 -0.00000000000E+00 -0.56747713196E+03  0.56747713196E+03  0.00000000000E+00 0.  1.
         24    2    1    2    0    0  0.13153273498E+03  0.28408783194E+03 -0.24590457767E+03  0.40616431387E+03  0.80583074604E+02 0.  0.
        254    2    1    2    0    0 -0.13153273498E+03 -0.28408783194E+03  0.69360772586E+03  0.11764930983E+04  0.89723886241E+03 0.  0.
         23    2    4    4    0    0  0.10317467431E+03  0.79247178823E+02  0.71645298652E+03  0.73355492793E+03  0.88728922158E+02 0.  0.
         23    2    4    4    0    0 -0.23470740929E+03 -0.36333501076E+03 -0.22845260653E+02  0.44293817032E+03  0.92587357529E+02 0.  0.
          2    1    3    3  502    0  0.60546665832E+01  0.14021278881E+02 -0.43484351591E+02  0.46088437619E+02  0.00000000000E+00 0. -1.
         -1    1    3    3    0  502  0.12547806839E+03  0.27006655306E+03 -0.20242022608E+03  0.36007587625E+03  0.00000000000E+00 0.  1.
         11    1    5    5    0    0  0.97291107251E+02  0.95119348627E+02  0.67834713110E+03  0.69185842504E+03  0.00000000000E+00 0. -1.
        -11    1    5    5    0    0  0.58835670585E+01 -0.15872169804E+02  0.38105855418E+02  0.41696502884E+02  0.00000000000E+00 0.  1.
          3    1    6    6  503    0 -0.22302715328E+03 -0.36031656778E+03 -0.80295898026E+01  0.42383205923E+03  0.00000000000E+00 0. -1.
         -3    1    6    6    0  503 -0.11680256006E+02 -0.30184429830E+01 -0.14815670850E+02  0.19106111094E+02  0.00000000000E+00 0.  1.
<mgrwt>
<rscale>  0 0.15180140E+04</rscale>
<asrwt>0</asrwt>
<pdfrwt beam="1">  1        2 0.15618158E+00 0.15180140E+04</pdfrwt>
<pdfrwt beam="2">  1       -1 0.87304174E-01 0.15180140E+04</pdfrwt>
<totfact> 0.35025148E+01</totfact>
</mgrwt>
</event>
<event>
12    6  0.1540825E-007  0.1389181E+04  0.7818608E-02  0.8961687E-01
         -3   -1    0    0    0  501 -0.00000000000E+00  0.00000000000E+00  0.12625157109E+04  0.12625157109E+04  0.00000000000E+00 0.  1.
          4   -1    0    0  501    0  0.00000000000E+00 -0.00000000000E+00 -0.38213867708E+03  0.38213867708E+03  0.00000000000E+00 0. -1.
         24    2    1    2    0    0  0.33659283832E+03  0.20818299889E+03  0.24576894270E+03  0.47273045921E+03  0.80229757779E+02 0.  0.
        254    2    1    2    0    0 -0.33659283832E+03 -0.20818299889E+03  0.63460809108E+03  0.11719239287E+04  0.90224351791E+03 0.  0.
         23    2    4    4    0    0 -0.53393378868E+03  0.74754722052E+01  0.95862771082E+02  0.55050630846E+03  0.93414942004E+02 0.  0.
         23    2    4    4    0    0  0.19734095036E+03 -0.21565847109E+03  0.53874532000E+03  0.62141762026E+03  0.10228055588E+03 0.  0.
          2    1    3    3  502    0  0.69760023214E+02  0.35136257037E+02  0.88165020895E+02  0.11778831991E+03  0.00000000000E+00 0. -1.
         -1    1    3    3    0  502  0.26683281511E+03  0.17304674185E+03  0.15760392181E+03  0.35494213930E+03  0.00000000000E+00 0.  1.
         11    1    5    5    0    0 -0.33377125103E+03 -0.40103627344E+00  0.10523910137E+03  0.34996953767E+03  0.00000000000E+00 0. -1.
        -11    1    5    5    0    0 -0.20016253766E+03  0.78765084787E+01 -0.93763302880E+01  0.20053677078E+03  0.00000000000E+00 0.  1.
          2    1    6    6  503    0  0.20754871057E+03 -0.20207186551E+03  0.48365353523E+03  0.56376435524E+03  0.00000000000E+00 0. -1.
         -2    1    6    6    0  503 -0.10207760212E+02 -0.13586605586E+02  0.55091784761E+02  0.57653265025E+02  0.00000000000E+00 0.  1.
<mgrwt>
<rscale>  0 0.13891812E+04</rscale>
<asrwt>0</asrwt>
<pdfrwt beam="1">  1        4 0.58790566E-01 0.13891812E+04</pdfrwt>
<pdfrwt beam="2">  1       -3 0.19423318E+00 0.13891812E+04</pdfrwt>
<totfact> 0.97409858E-01</totfact>
</mgrwt>
</event>
<event>
12    6  0.1540825E-007  0.1903781E+04  0.7818608E-02  0.8652976E-01
          2   -1    0    0  501    0  0.00000000000E+00  0.00000000000E+00  0.20161496566E+04  0.20161496566E+04  0.00000000000E+00 0. -1.
         -1   -1    0    0    0  501 -0.00000000000E+00 -0.00000000000E+00 -0.44941895635E+03  0.44941895635E+03  0.00000000000E+00 0.  1.
         24    2    1    2    0    0  0.66063656690E+03 -0.32403890321E+03  0.64515121080E+03  0.98143634615E+03  0.74534102466E+02 0.  0.
        254    2    1    2    0    0 -0.66063656690E+03  0.32403890321E+03  0.92157948945E+03  0.14841322668E+04  0.90105379733E+03 0.  0.
         23    2    4    4    0    0 -0.94943581376E+02 -0.67717884433E+02 -0.14725362223E+03  0.20967701455E+03  0.93170948569E+02 0.  0.
         23    2    4    4    0    0 -0.56569298552E+03  0.39175678764E+03  0.10688331117E+04  0.12744552523E+04  0.91378525041E+02 0.  0.
          4    1    3    3  502    0  0.44545062635E+03 -0.19447196305E+03  0.46182427237E+03  0.67046794366E+03  0.00000000000E+00 0. -1.
         -3    1    3    3    0  502  0.21518594054E+03 -0.12956694016E+03  0.18332693843E+03  0.31096840248E+03  0.00000000000E+00 0.  1.
         11    1    5    5    0    0  0.23579262342E+01 -0.37311263191E+02 -0.77822476166E+02  0.86336712780E+02  0.00000000000E+00 0.  1.
        -11    1    5    5    0    0 -0.97301507611E+02 -0.30406621242E+02 -0.69431146061E+02  0.12334030177E+03  0.00000000000E+00 0. -1.
          1    1    6    6  503    0 -0.41118360467E+02  0.37405125668E+02  0.48892630471E+02  0.74029401646E+02  0.00000000000E+00 0. -1.
         -1    1    6    6    0  503 -0.52457462505E+03  0.35435166198E+03  0.10199404812E+04  0.12004258506E+04  0.00000000000E+00 0.  1.
<mgrwt>
<rscale>  0 0.19037814E+04</rscale>
<asrwt>0</asrwt>
<pdfrwt beam="1">  1        2 0.31017687E+00 0.19037814E+04</pdfrwt>
<pdfrwt beam="2">  1       -1 0.69141379E-01 0.19037814E+04</pdfrwt>
<totfact> 0.14764626E+01</totfact>
</mgrwt>
</event>
<event>
12    6  0.1540825E-007  0.1429387E+04  0.7818608E-02  0.8932817E-01
          2   -1    0    0  501    0  0.00000000000E+00  0.00000000000E+00  0.66258494179E+03  0.66258494179E+03  0.00000000000E+00 0. -1.
         -1   -1    0    0    0  501 -0.00000000000E+00 -0.00000000000E+00 -0.77090039447E+03  0.77090039447E+03  0.00000000000E+00 0.  1.
         24    2    1    2    0    0 -0.30240753459E+03 -0.67590387873E+02 -0.32569012593E+03  0.45671695481E+03  0.80607327073E+02 0.  0.
        254    2    1    2    0    0  0.30240753459E+03  0.67590387873E+02  0.21737467325E+03  0.97676838145E+03  0.90044763586E+03 0.  0.
         23    2    4    4    0    0 -0.22804601829E+03 -0.23086952694E+03  0.73690070498E+02  0.34494131184E+03  0.90821567896E+02 0.  0.
         23    2    4    4    0    0  0.53045355288E+03  0.29845991481E+03  0.14368460275E+03  0.63182706962E+03  0.90004934967E+02 0.  0.
          4    1    3    3  502    0 -0.46731282042E+02 -0.31477269389E+02 -0.95052279557E+02  0.11049690972E+03  0.00000000000E+00 0. -1.
         -3    1    3    3    0  502 -0.25567625255E+03 -0.36113118484E+02 -0.23063784637E+03  0.34622004509E+03  0.00000000000E+00 0.  1.
         11    1    5    5    0    0 -0.23273164463E+03 -0.21829581349E+03  0.81611421425E+02  0.32935923352E+03  0.00000000000E+00 0. -1.
        -11    1    5    5    0    0  0.46856263397E+01 -0.12573713452E+02 -0.79213509273E+01  0.15582078317E+02  0.00000000000E+00 0.  1.
          3    1    6    6  503    0  0.43331113898E+03  0.23295733504E+03  0.79845424906E+02  0.49840039626E+03  0.00000000000E+00 0. -1.
         -3    1    6    6    0  503  0.97142413902E+02  0.65502579770E+02  0.63839177844E+02  0.13342667336E+03  0.00000000000E+00 0.  1.
<mgrwt>
<rscale>  0 0.14293873E+04</rscale>
<asrwt>0</asrwt>
<pdfrwt beam="1">  1        2 0.10193615E+00 0.14293873E+04</pdfrwt>
<pdfrwt beam="2">  1       -1 0.11860006E+00 0.14293873E+04</pdfrwt>
<totfact> 0.31047025E+01</totfact>
</mgrwt>
</event>
<event>
12    6  0.1540825E-007  0.2099201E+04  0.7818608E-02  0.8561595E-01
          2   -1    0    0  501    0  0.00000000000E+00  0.00000000000E+00  0.18336405368E+04  0.18336405368E+04  0.00000000000E+00 0. -1.
         -1   -1    0    0    0  501 -0.00000000000E+00 -0.00000000000E+00 -0.60080569237E+03  0.60080569237E+03  0.00000000000E+00 0.  1.
         24    2    1    2    0    0 -0.62553207817E+03 -0.17279473956E+03  0.11494304262E+04  0.13222658175E+04  0.77770074690E+02 0.  0.
        254    2    1    2    0    0  0.62553207817E+03  0.17279473956E+03  0.83404418216E+02  0.11121804117E+04  0.89935564063E+03 0.  0.
         23    2    4    4    0    0  0.19483232400E+02  0.43085811645E+03  0.73347484338E+02  0.44716456926E+03  0.92509381639E+02 0.  0.
         23    2    4    4    0    0  0.60604884577E+03 -0.25806337688E+03  0.10056933878E+02  0.66501584243E+03  0.90846127130E+02 0.  0.
          4    1    3    3  502    0 -0.59133514308E+03 -0.17040141091E+03  0.11157381371E+04  0.12741999383E+04  0.00000000000E+00 0. -1.
         -3    1    3    3    0  502 -0.34196935095E+02 -0.23933286515E+01  0.33692289127E+02  0.48065879150E+02  0.00000000000E+00 0.  1.
         11    1    5    5    0    0 -0.14248184692E+01  0.38007472728E+03  0.38270163077E+02  0.38199925891E+03  0.00000000000E+00 0. -1.
        -11    1    5    5    0    0  0.20908050869E+02  0.50783389161E+02  0.35077321261E+02  0.65165310348E+02  0.00000000000E+00 0.  1.
          1    1    6    6  503    0  0.39355827713E+03 -0.11986685145E+03  0.20545626277E+01  0.41141268916E+03  0.00000000000E+00 0. -1.
         -1    1    6    6    0  503  0.21249056865E+03 -0.13819652543E+03  0.80023712500E+01  0.25360315328E+03  0.00000000000E+00 0.  1.
<mgrwt>
<rscale>  0 0.20992014E+04</rscale>
<asrwt>0</asrwt>
<pdfrwt beam="1">  1        2 0.28209854E+00 0.20992014E+04</pdfrwt>
<pdfrwt beam="2">  1       -1 0.92431646E-01 0.20992014E+04</pdfrwt>
<totfact> 0.98747285E+00</totfact>
</mgrwt>
</event>
<event>
12    6  0.1540825E-007  0.1083606E+04  0.7818608E-02  0.9221320E-01
         -1   -1    0    0    0  501 -0.00000000000E+00  0.00000000000E+00  0.27834615114E+03  0.27834615114E+03  0.00000000000E+00 0.  1.
          2   -1    0    0  501    0  0.00000000000E+00 -0.00000000000E+00 -0.10546237169E+04  0.10546237169E+04  0.00000000000E+00 0. -1.
         24    2    1    2    0    0 -0.99018232876E+02  0.58939183158E+02 -0.27132394127E+03  0.30481398420E+03  0.77565753423E+02 0.  0.
        254    2    1    2    0    0  0.99018232876E+02 -0.58939183158E+02 -0.50495362448E+03  0.10281558838E+04  0.88817111010E+03 0.  0.
         23    2    4    4    0    0  0.24851869212E+03  0.28134218899E+03  0.70313209050E+01  0.38898595456E+03  0.10171364574E+03 0.  0.
         23    2    4    4    0    0 -0.14950045925E+03 -0.34028137215E+03 -0.51198494538E+03  0.63916992926E+03  0.90927524081E+02 0.  0.
          2    1    3    3  502    0 -0.37945048577E+02  0.40702916061E+02 -0.20664867276E+03  0.21400987838E+03  0.00000000000E+00 0. -1.
         -1    1    3    3    0  502 -0.61073184300E+02  0.18236267097E+02 -0.64675268507E+02  0.90804105824E+02  0.00000000000E+00 0.  1.
         11    1    5    5    0    0  0.22093029741E+03  0.25751567663E+03 -0.25325546069E+02  0.34024388798E+03  0.00000000000E+00 0.  1.
        -11    1    5    5    0    0  0.27588394712E+02  0.23826512361E+02  0.32356866974E+02  0.48742066579E+02  0.00000000000E+00 0. -1.
          2    1    6    6  503    0 -0.11812681771E+03 -0.16836558739E+03 -0.24238508055E+03  0.31788589675E+03  0.00000000000E+00 0.  1.
         -2    1    6    6    0  503 -0.31373641533E+02 -0.17191578475E+03 -0.26959986483E+03  0.32128403251E+03  0.00000000000E+00 0. -1.
<mgrwt>
<rscale>  0 0.10836059E+04</rscale>
<asrwt>0</asrwt>
<pdfrwt beam="1">  1        2 0.16224980E+00 0.10836059E+04</pdfrwt>
<pdfrwt beam="2">  1       -1 0.42822485E-01 0.10836059E+04</pdfrwt>
<totfact> 0.14143086E+02</totfact>
</mgrwt>
</event>
<event>
12    6  0.1540825E-007  0.1807309E+04  0.7818608E-02  0.8702422E-01
         -1   -1    0    0    0  501 -0.00000000000E+00  0.00000000000E+00  0.10027042431E+04  0.10027042431E+04  0.00000000000E+00 0.  1.
          2   -1    0    0  501    0  0.00000000000E+00 -0.00000000000E+00 -0.81438950836E+03  0.81438950836E+03  0.00000000000E+00 0. -1.
         24    2    1    2    0    0 -0.10331401189E+03  0.35864354498E+03  0.63657926424E+03  0.74235374875E+03  0.80975003631E+02 0.  0.
        254    2    1    2    0    0  0.10331401189E+03 -0.35864354498E+03 -0.44826452945E+03  0.10747400028E+04  0.90267713373E+03 0.  0.
         23    2    4    4    0    0  0.13454175385E+03  0.21565313608E+03  0.86253003062E+02  0.28413875035E+03  0.93206707284E+02 0.  0.
         23    2    4    4    0    0 -0.31227741960E+02 -0.57429668106E+03 -0.53451753252E+03  0.79060125241E+03  0.92463495451E+02 0.  0.
          2    1    3    3  502    0  0.13346322649E+02  0.26943648845E+02  0.43576574086E+02  0.52943388165E+02  0.00000000000E+00 0. -1.
         -1    1    3    3    0  502 -0.11666033454E+03  0.33169989613E+03  0.59300269015E+03  0.68941036058E+03  0.00000000000E+00 0.  1.
         11    1    5    5    0    0  0.11962529332E+03  0.14953332493E+03  0.25631360667E+02  0.19320298320E+03  0.00000000000E+00 0.  1.
        -11    1    5    5    0    0  0.14916460533E+02  0.66119811149E+02  0.60621642395E+02  0.90935767154E+02  0.00000000000E+00 0. -1.
          3    1    6    6  503    0 -0.16171199615E+02 -0.51251842280E+03 -0.50769439857E+03  0.72158869431E+03  0.00000000000E+00 0. -1.
         -3    1    6    6    0  503 -0.15056542345E+02 -0.61778258258E+02 -0.26823133946E+02  0.69012558100E+02  0.00000000000E+00 0.  1.
<mgrwt>
<rscale>  0 0.18073094E+04</rscale>
<asrwt>0</asrwt>
<pdfrwt beam="1">  1        2 0.12529069E+00 0.18073094E+04</pdfrwt>
<pdfrwt beam="2">  1       -1 0.15426219E+00 0.18073094E+04</pdfrwt>
<totfact> 0.11712205E+01</totfact>
</mgrwt>
</event>
<event>
12    6  0.1540825E-007  0.1791509E+04  0.7818608E-02  0.8710828E-01
         -1   -1    0    0    0  501 -0.00000000000E+00  0.00000000000E+00  0.46755492105E+03  0.46755492105E+03  0.00000000000E+00 0.  1.
          2   -1    0    0  501    0  0.00000000000E+00 -0.00000000000E+00 -0.17161104707E+04  0.17161104707E+04  0.00000000000E+00 0. -1.
         24    2    1    2    0    0  0.22444593991E+03 -0.48779901573E+03  0.84501114189E+01  0.54266277224E+03  0.78023203601E+02 0.  0.
        254    2    1    2    0    0 -0.22444593991E+03  0.48779901573E+03 -0.12570056610E+04  0.16410026195E+04  0.90802120324E+03 0.  0.
         23    2    4    4    0    0  0.14801581461E+03 -0.14551824297E+03 -0.63594270960E+03  0.67500470713E+03  0.90133147869E+02 0.  0.
         23    2    4    4    0    0 -0.37246175452E+03  0.63331725870E+03 -0.62106295142E+03  0.96599791233E+03  0.87259774468E+02 0.  0.
          4    1    3    3  502    0  0.39029198033E+02 -0.16494658181E+03 -0.10910474054E+02  0.16985196965E+03  0.00000000000E+00 0. -1.
         -3    1    3    3    0  502  0.18541674187E+03 -0.32285243392E+03  0.19360585473E+02  0.37281080259E+03  0.00000000000E+00 0.  1.
         11    1    5    5    0    0  0.13650491165E+03 -0.15728462038E+03 -0.60667894394E+03  0.64142917281E+03  0.00000000000E+00 0.  1.
        -11    1    5    5    0    0  0.11510902956E+02  0.11766377411E+02 -0.29263765658E+02  0.33575534318E+02  0.00000000000E+00 0. -1.
          1    1    6    6  503    0  0.29559347784E+01  0.24130611145E+02 -0.20054883938E+02  0.31515429782E+02  0.00000000000E+00 0. -1.
         -1    1    6    6    0  503 -0.37541768929E+03  0.60918664756E+03 -0.60100806749E+03  0.93448248254E+03  0.00000000000E+00 0.  1.
<mgrwt>
<rscale>  0 0.17915087E+04</rscale>
<asrwt>0</asrwt>
<pdfrwt beam="1">  1        2 0.26401699E+00 0.17915087E+04</pdfrwt>
<pdfrwt beam="2">  1       -1 0.71931528E-01 0.17915087E+04</pdfrwt>
<totfact> 0.20162293E+01</totfact>
</mgrwt>
</event>
<event>
12    6  0.1680066E-007  0.2694014E+04  0.7818608E-02  0.8336950E-01
          2   -1    0    0  501    0  0.00000000000E+00  0.00000000000E+00  0.27507082576E+04  0.27507082576E+04  0.00000000000E+00 0. -1.
         -1   -1    0    0    0  501 -0.00000000000E+00 -0.00000000000E+00 -0.65962188670E+03  0.65962188670E+03  0.00000000000E+00 0.  1.
         24    2    1    2    0    0  0.10519742249E+03 -0.91997141003E+03  0.18644309392E+04  0.20833075322E+04  0.81569931506E+02 0.  0.
        254    2    1    2    0    0 -0.10519742249E+03  0.91997141003E+03  0.22665543175E+03  0.13270226121E+04  0.92314811131E+03 0.  0.
         23    2    4    4    0    0 -0.33806231044E+03  0.51011469374E+02  0.23153330023E+03  0.42294911429E+03  0.91596879930E+02 0.  0.
         23    2    4    4    0    0  0.23286488795E+03  0.86895994065E+03 -0.48778684756E+01  0.90407349785E+03  0.89485537466E+02 0.  0.
          4    1    3    3  502    0  0.80706548800E+02 -0.82634775264E+03  0.16189595435E+04  0.18194488612E+04  0.00000000000E+00 0. -1.
         -3    1    3    3    0  502  0.24490873691E+02 -0.93623657390E+02  0.24547139569E+03  0.26385867092E+03  0.00000000000E+00 0.  1.
         11    1    5    5    0    0 -0.13880058025E+03  0.66840665658E+02  0.10131601754E+03  0.18438603817E+03  0.00000000000E+00 0. -1.
        -11    1    5    5    0    0 -0.19926173019E+03 -0.15829196284E+02  0.13021728269E+03  0.23856307611E+03  0.00000000000E+00 0.  1.
          4    1    6    6  503    0  0.15125765020E+03  0.40945463574E+03 -0.22115537600E+02  0.43705957543E+03  0.00000000000E+00 0. -1.
         -4    1    6    6    0  503  0.81607237751E+02  0.45950530491E+03  0.17237669124E+02  0.46701392242E+03  0.00000000000E+00 0.  1.
<mgrwt>
<rscale>  0 0.26940136E+04</rscale>
<asrwt>0</asrwt>
<pdfrwt beam="1">  1        2 0.42318588E+00 0.26940136E+04</pdfrwt>
<pdfrwt beam="2">  1       -1 0.10148029E+00 0.26940136E+04</pdfrwt>
<totfact> 0.22761272E+00</totfact>
</mgrwt>
</event>
<event>
12    6  0.1540825E-007  0.1126775E+04  0.7818608E-02  0.9179481E-01
         -1   -1    0    0    0  501 -0.00000000000E+00  0.00000000000E+00  0.47633252399E+03  0.47633252399E+03  0.00000000000E+00 0.  1.
          2   -1    0    0  501    0  0.00000000000E+00 -0.00000000000E+00 -0.66635314707E+03  0.66635314707E+03  0.00000000000E+00 0. -1.
         24    2    1    2    0    0  0.10390471644E+03 -0.14081132811E+03  0.22937900899E+02  0.19395253001E+03  0.80420248544E+02 0.  0.
        254    2    1    2    0    0 -0.10390471644E+03  0.14081132811E+03 -0.21295852399E+03  0.94873314105E+03  0.90781012319E+03 0.  0.
         23    2    4    4    0    0 -0.28190688485E+03 -0.28398038396E+03 -0.24339939121E+03  0.47752412859E+03  0.93111113964E+02 0.  0.
         23    2    4    4    0    0  0.17800216841E+03  0.42479171207E+03  0.30440867226E+02  0.47120901246E+03  0.94755033791E+02 0.  0.
          2    1    3    3  502    0  0.56294391485E+02 -0.95168438906E+02 -0.23815886792E+02  0.11310741240E+03  0.00000000000E+00 0. -1.
         -1    1    3    3    0  502  0.47610324955E+02 -0.45642889205E+02  0.46753787691E+02  0.80845117606E+02  0.00000000000E+00 0.  1.
         11    1    5    5    0    0 -0.18199473407E+03 -0.11933844732E+03 -0.11604596642E+03  0.24663822607E+03  0.00000000000E+00 0.  1.
        -11    1    5    5    0    0 -0.99912150774E+02 -0.16464193664E+03 -0.12735342479E+03  0.23088590252E+03  0.00000000000E+00 0. -1.
          1    1    6    6  503    0  0.33443268339E+02  0.19889088127E+03  0.22026418475E+02  0.20288222682E+03  0.00000000000E+00 0. -1.
         -1    1    6    6    0  503  0.14455890007E+03  0.22590083080E+03  0.84144487506E+01  0.26832678564E+03  0.00000000000E+00 0.  1.
<mgrwt>
<rscale>  0 0.11267754E+04</rscale>
<asrwt>0</asrwt>
<pdfrwt beam="1">  1        2 0.10251587E+00 0.11267754E+04</pdfrwt>
<pdfrwt beam="2">  1       -1 0.73281926E-01 0.11267754E+04</pdfrwt>
<totfact> 0.92677414E+01</totfact>
</mgrwt>
</event>
<event>
12    6  0.1540825E-007  0.1495241E+04  0.7818608E-02  0.8887624E-01
          2   -1    0    0  501    0  0.00000000000E+00  0.00000000000E+00  0.15151628648E+04  0.15151628648E+04  0.00000000000E+00 0. -1.
         -1   -1    0    0    0  501 -0.00000000000E+00 -0.00000000000E+00 -0.36889536287E+03  0.36889536287E+03  0.00000000000E+00 0.  1.
         24    2    1    2    0    0 -0.46999828038E+02 -0.33765073976E+03 -0.37761850887E+02  0.35792677915E+03  0.10231625461E+03 0.  0.
        254    2    1    2    0    0  0.46999828038E+02  0.33765073976E+03  0.11840293528E+04  0.15261314485E+04  0.90051911914E+03 0.  0.
         23    2    4    4    0    0 -0.91533897449E+02 -0.68990536386E+02 -0.94101263495E+02  0.17423027357E+03  0.91449395534E+02 0.  0.
         23    2    4    4    0    0  0.13853372549E+03  0.40664127615E+03  0.12781306163E+04  0.13519011750E+04  0.97314921314E+02 0.  0.
          2    1    3    3  502    0 -0.18989256718E+02 -0.65665182230E+01 -0.14631975187E+02  0.24855698143E+02  0.00000000000E+00 0. -1.
         -1    1    3    3    0  502 -0.28010571319E+02 -0.33108422154E+03 -0.23129875700E+02  0.33307108101E+03  0.00000000000E+00 0.  1.
         11    1    5    5    0    0 -0.13315459907E+02 -0.53041822612E+02 -0.73813146903E+02  0.91864667170E+02  0.00000000000E+00 0. -1.
        -11    1    5    5    0    0 -0.78218437542E+02 -0.15948713774E+02 -0.20288116592E+02  0.82365606398E+02  0.00000000000E+00 0.  1.
          1    1    6    6  503    0  0.53268531790E+02  0.86391165788E+02  0.20476121549E+03  0.22853473559E+03  0.00000000000E+00 0. -1.
         -1    1    6    6    0  503  0.85265193697E+02  0.32025011036E+03  0.10733694009E+04  0.11233664394E+04  0.00000000000E+00 0.  1.
<mgrwt>
<rscale>  0 0.14952412E+04</rscale>
<asrwt>0</asrwt>
<pdfrwt beam="1">  1        2 0.23310198E+00 0.14952412E+04</pdfrwt>
<pdfrwt beam="2">  1       -1 0.56753133E-01 0.14952412E+04</pdfrwt>
<totfact> 0.43076167E+01</totfact>
</mgrwt>
</event>
<event>
12    6  0.1540825E-007  0.2041425E+04  0.7818608E-02  0.8587494E-01
          2   -1    0    0  501    0  0.00000000000E+00  0.00000000000E+00  0.14759904914E+04  0.14759904914E+04  0.00000000000E+00 0. -1.
         -1   -1    0    0    0  501 -0.00000000000E+00 -0.00000000000E+00 -0.70586788438E+03  0.70586788438E+03  0.00000000000E+00 0.  1.
         24    2    1    2    0    0  0.59659440351E+03 -0.45153683708E+03  0.67424379187E+03  0.10102597512E+04  0.78801500099E+02 0.  0.
        254    2    1    2    0    0 -0.59659440351E+03  0.45153683708E+03  0.95878815164E+02  0.11715986246E+04  0.89645981087E+03 0.  0.
         23    2    4    4    0    0  0.42087050965E+02  0.47240879031E+03 -0.10764392991E+03  0.49484654117E+03  0.91348227365E+02 0.  0.
         23    2    4    4    0    0 -0.63868145447E+03 -0.20871953227E+02  0.20352274507E+03  0.67675208346E+03  0.90676545939E+02 0.  0.
          2    1    3    3  502    0  0.15475260275E+03 -0.12360063005E+03  0.22639123035E+03  0.30079639790E+03  0.00000000000E+00 0. -1.
         -1    1    3    3    0  502  0.44184180076E+03 -0.32793620703E+03  0.44785256152E+03  0.70946335327E+03  0.00000000000E+00 0.  1.
         11    1    5    5    0    0  0.35790592299E+02  0.11432223653E+03 -0.58612030572E+02  0.13336382714E+03  0.00000000000E+00 0.  1.
        -11    1    5    5    0    0  0.62964586663E+01  0.35808655378E+03 -0.49031899338E+02  0.36148271403E+03  0.00000000000E+00 0. -1.
          1    1    6    6  503    0 -0.48070708951E+03 -0.18712968463E+02  0.11116537677E+03  0.49374813629E+03  0.00000000000E+00 0. -1.
         -1    1    6    6    0  503 -0.15797436496E+03 -0.21589847647E+01  0.92357368300E+02  0.18300394717E+03  0.00000000000E+00 0.  1.
<mgrwt>
<rscale>  0 0.20414253E+04</rscale>
<asrwt>0</asrwt>
<pdfrwt beam="1">  1        2 0.22707546E+00 0.20414253E+04</pdfrwt>
<pdfrwt beam="2">  1       -1 0.10859506E+00 0.20414253E+04</pdfrwt>
<totfact> 0.10871253E+01</totfact>
</mgrwt>
</event>
<event>
12    6  0.1540825E-007  0.1335816E+04  0.7818608E-02  0.9001636E-01
          2   -1    0    0  501    0  0.00000000000E+00  0.00000000000E+00  0.10580435580E+04  0.10580435580E+04  0.00000000000E+00 0. -1.
         -1   -1    0    0    0  501 -0.00000000000E+00 -0.00000000000E+00 -0.42162800165E+03  0.42162800165E+03  0.00000000000E+00 0.  1.
         24    2    1    2    0    0 -0.15648010588E+03  0.33398520312E+03  0.92411990954E+02  0.38723160882E+03  0.73322597867E+02 0.  0.
        254    2    1    2    0    0  0.15648010588E+03 -0.33398520312E+03  0.54400356536E+03  0.10924399508E+04  0.87261275922E+03 0.  0.
         23    2    4    4    0    0  0.10748566307E+03 -0.41869123807E+03  0.73627951910E+03  0.85874255311E+03  0.92063682683E+02 0.  0.
         23    2    4    4    0    0  0.48994442808E+02  0.84706034947E+02 -0.19227595374E+03  0.23369739769E+03  0.89826852988E+02 0.  0.
          4    1    3    3  502    0 -0.46013710851E+02  0.49633732855E+02 -0.25747479339E+01  0.67730335525E+02  0.00000000000E+00 0. -1.
         -3    1    3    3    0  502 -0.11046639503E+03  0.28435147027E+03  0.94986738888E+02  0.31950127329E+03  0.00000000000E+00 0.  1.
         11    1    5    5    0    0 -0.14246575272E+02 -0.41459075802E+02  0.98568956347E+02  0.10787798213E+03  0.00000000000E+00 0.  1.
        -11    1    5    5    0    0  0.12173223834E+03 -0.37723216227E+03  0.63771056276E+03  0.75086457098E+03  0.00000000000E+00 0. -1.
          1    1    6    6  503    0  0.31352724987E+02  0.13366661621E+02 -0.13850724362E+03  0.14263911645E+03  0.00000000000E+00 0. -1.
         -1    1    6    6    0  503  0.17641717821E+02  0.71339373326E+02 -0.53768710125E+02  0.91058281241E+02  0.00000000000E+00 0.  1.
<mgrwt>
<rscale>  0 0.13358155E+04</rscale>
<asrwt>0</asrwt>
<pdfrwt beam="1">  1        2 0.16277593E+00 0.13358155E+04</pdfrwt>
<pdfrwt beam="2">  1       -1 0.64865847E-01 0.13358155E+04</pdfrwt>
<totfact> 0.62185049E+01</totfact>
</mgrwt>
</event>
<event>
12    6  0.1540825E-007  0.2019220E+04  0.7818608E-02  0.8597687E-01
         -1   -1    0    0    0  501 -0.00000000000E+00  0.00000000000E+00  0.10327501308E+04  0.10327501308E+04  0.00000000000E+00 0.  1.
          2   -1    0    0  501    0  0.00000000000E+00 -0.00000000000E+00 -0.98698847176E+03  0.98698847176E+03  0.00000000000E+00 0. -1.
         24    2    1    2    0    0  0.65362780368E+03  0.34834203270E+03  0.33553663913E+03  0.81700580563E+03  0.79637759594E+02 0.  0.
        254    2    1    2    0    0 -0.65362780368E+03 -0.34834203270E+03 -0.28977498012E+03  0.12027327969E+04  0.90223343109E+03 0.  0.
         23    2    4    4    0    0 -0.26692068447E+03  0.14778042945E+02 -0.53972505614E+03  0.60915696254E+03  0.91126431004E+02 0.  0.
         23    2    4    4    0    0 -0.38670711921E+03 -0.36312007564E+03  0.24995007603E+03  0.59357583437E+03  0.91970893583E+02 0.  0.
          2    1    3    3  502    0  0.10846317578E+03  0.85519605562E+02  0.83590382839E+02  0.16144725312E+03  0.00000000000E+00 0. -1.
         -1    1    3    3    0  502  0.54516462790E+03  0.26282242714E+03  0.25194625629E+03  0.65555855252E+03  0.00000000000E+00 0.  1.
         11    1    5    5    0    0 -0.30244280558E+02 -0.20153910432E+02 -0.12707908775E+03  0.13217409412E+03  0.00000000000E+00 0.  1.
        -11    1    5    5    0    0 -0.23667640391E+03  0.34931953377E+02 -0.41264596839E+03  0.47698286842E+03  0.00000000000E+00 0. -1.
          2    1    6    6  503    0 -0.34588236041E+03 -0.35171845549E+03  0.24534388714E+03  0.55093929078E+03  0.00000000000E+00 0. -1.
         -2    1    6    6    0  503 -0.40824758801E+02 -0.11401620156E+02  0.46061888847E+01  0.42636543591E+02  0.00000000000E+00 0.  1.
<mgrwt>
<rscale>  0 0.20192201E+04</rscale>
<asrwt>0</asrwt>
<pdfrwt beam="1">  1        2 0.15184438E+00 0.20192201E+04</pdfrwt>
<pdfrwt beam="2">  1       -1 0.15888464E+00 0.20192201E+04</pdfrwt>
<totfact> 0.80979835E+00</totfact>
</mgrwt>
</event>
<event>
12    6  0.1540825E-007  0.1573711E+04  0.7818608E-02  0.8836863E-01
          2   -1    0    0  501    0  0.00000000000E+00  0.00000000000E+00  0.11297350371E+04  0.11297350371E+04  0.00000000000E+00 0. -1.
         -1   -1    0    0    0  501 -0.00000000000E+00 -0.00000000000E+00 -0.54804132670E+03  0.54804132670E+03  0.00000000000E+00 0.  1.
         24    2    1    2    0    0 -0.74122978901E+02 -0.18081225046E+03 -0.31946261518E+03  0.38306713012E+03  0.80602591547E+02 0.  0.
        254    2    1    2    0    0  0.74122978901E+02  0.18081225046E+03  0.90115632559E+03  0.12947092337E+04  0.90884651662E+03 0.  0.
         23    2    4    4    0    0  0.15499672510E+02  0.26226668367E+03  0.10539843912E+04  0.10900435180E+04  0.91036921758E+02 0.  0.
         23    2    4    4    0    0  0.58623306391E+02 -0.81454433213E+02 -0.15282806559E+03  0.20466571567E+03  0.91978914954E+02 0.  0.
          2    1    3    3  502    0 -0.36263553423E+02 -0.64367819378E+02 -0.56544709048E+02  0.93035292227E+02  0.00000000000E+00 0. -1.
         -1    1    3    3    0  502 -0.37859425478E+02 -0.11644443108E+03 -0.26291790613E+03  0.29003183789E+03  0.00000000000E+00 0.  1.
         11    1    5    5    0    0 -0.16959361137E+02  0.23290609249E+02  0.22032347357E+03  0.22219924711E+03  0.00000000000E+00 0. -1.
        -11    1    5    5    0    0  0.32459033647E+02  0.23897607442E+03  0.83366091762E+03  0.86784427092E+03  0.00000000000E+00 0.  1.
          3    1    6    6  503    0 -0.90574572272E+01  0.86127728819E+01 -0.51975437106E+02  0.53457117865E+02  0.00000000000E+00 0. -1.
         -3    1    6    6    0  503  0.67680763618E+02 -0.90067206095E+02 -0.10085262849E+03  0.15120859781E+03  0.00000000000E+00 0.  1.
<mgrwt>
<rscale>  0 0.15737109E+04</rscale>
<asrwt>0</asrwt>
<pdfrwt beam="1">  1        2 0.17380539E+00 0.15737109E+04</pdfrwt>
<pdfrwt beam="2">  1       -1 0.84314051E-01 0.15737109E+04</pdfrwt>
<totfact> 0.31899331E+01</totfact>
</mgrwt>
</event>
<event>
12    6  0.1540825E-007  0.1220522E+04  0.7818608E-02  0.9095081E-01
         -1   -1    0    0    0  501 -0.00000000000E+00  0.00000000000E+00  0.70355924683E+03  0.70355924683E+03  0.00000000000E+00 0.  1.
          2   -1    0    0  501    0  0.00000000000E+00 -0.00000000000E+00 -0.52933485189E+03  0.52933485189E+03  0.00000000000E+00 0. -1.
         24    2    1    2    0    0 -0.17136395364E+03  0.47088445123E+02  0.23993114570E+03  0.31027208506E+03  0.84373490029E+02 0.  0.
        254    2    1    2    0    0  0.17136395364E+03 -0.47088445123E+02 -0.65706750766E+02  0.92262201365E+03  0.90295685208E+03 0.  0.
         23    2    4    4    0    0 -0.10091506313E+03 -0.40078166624E+03  0.10580917213E+03  0.43633233084E+03  0.91545224174E+02 0.  0.
         23    2    4    4    0    0  0.27227901677E+03  0.35369322112E+03 -0.17151592289E+03  0.48628968281E+03  0.88460082326E+02 0.  0.
          4    1    3    3  502    0 -0.43848816425E+01  0.13093352711E+02 -0.24104703256E+01  0.14016898353E+02  0.00000000000E+00 0. -1.
         -3    1    3    3    0  502 -0.16697907200E+03  0.33995092412E+02  0.24234161603E+03  0.29625518671E+03  0.00000000000E+00 0.  1.
         11    1    5    5    0    0 -0.67905946827E+02 -0.26792800144E+03  0.11447019757E+03  0.29916560247E+03  0.00000000000E+00 0. -1.
        -11    1    5    5    0    0 -0.33009116298E+02 -0.13285366481E+03 -0.86610254393E+01  0.13716672838E+03  0.00000000000E+00 0.  1.
          3    1    6    6  503    0  0.18909257382E+03  0.29470097669E+03 -0.15523423863E+03  0.38301740950E+03  0.00000000000E+00 0. -1.
         -3    1    6    6    0  503  0.83186442944E+02  0.58992244428E+02 -0.16281684267E+02  0.10327227331E+03  0.00000000000E+00 0.  1.
<mgrwt>
<rscale>  0 0.12205219E+04</rscale>
<asrwt>0</asrwt>
<pdfrwt beam="1">  1        2 0.81436131E-01 0.12205219E+04</pdfrwt>
<pdfrwt beam="2">  1       -1 0.10823988E+00 0.12205219E+04</pdfrwt>
<totfact> 0.51479812E+01</totfact>
</mgrwt>
</event>
<event>
12    6  0.1540825E-007  0.1964169E+04  0.7818608E-02  0.8623559E-01
          2   -1    0    0  501    0  0.00000000000E+00  0.00000000000E+00  0.17906019511E+04  0.17906019511E+04  0.00000000000E+00 0. -1.
         -1   -1    0    0    0  501 -0.00000000000E+00 -0.00000000000E+00 -0.53864001584E+03  0.53864001584E+03  0.00000000000E+00 0.  1.
         24    2    1    2    0    0  0.65286770655E+03  0.26569092465E+03  0.12133648974E+03  0.71954937023E+03  0.78745430047E+02 0.  0.
        254    2    1    2    0    0 -0.65286770655E+03 -0.26569092465E+03  0.11306254455E+04  0.16096925967E+04  0.90330971886E+03 0.  0.
         23    2    4    4    0    0 -0.10992342696E+02  0.23114857258E+03  0.56184949747E+03  0.61442274222E+03  0.91049185278E+02 0.  0.
         23    2    4    4    0    0 -0.64187536385E+03 -0.49683949723E+03  0.56877594806E+03  0.99526985452E+03  0.90567850171E+02 0.  0.
          2    1    3    3  502    0  0.74390138293E+02  0.23561209204E+02  0.38442083585E+02  0.86987453375E+02  0.00000000000E+00 0. -1.
         -1    1    3    3    0  502  0.57847756826E+03  0.24212971545E+03  0.82894406160E+02  0.63256191685E+03  0.00000000000E+00 0.  1.
         11    1    5    5    0    0 -0.31733759442E+02  0.63109026341E+02  0.24740067800E+03  0.25728753597E+03  0.00000000000E+00 0. -1.
        -11    1    5    5    0    0  0.20741416746E+02  0.16803954624E+03  0.31444881947E+03  0.35713520624E+03  0.00000000000E+00 0.  1.
          4    1    6    6  503    0 -0.13553454350E+03 -0.15218500241E+03  0.12805916331E+03  0.24068451705E+03  0.00000000000E+00 0. -1.
         -4    1    6    6    0  503 -0.50634082035E+03 -0.34465449482E+03  0.44071678475E+03  0.75458533746E+03  0.00000000000E+00 0.  1.
<mgrwt>
<rscale>  0 0.19641689E+04</rscale>
<asrwt>0</asrwt>
<pdfrwt beam="1">  1        2 0.27547722E+00 0.19641689E+04</pdfrwt>
<pdfrwt beam="2">  1       -1 0.82867696E-01 0.19641689E+04</pdfrwt>
<totfact> 0.13403312E+01</totfact>
</mgrwt>
</event>
<event>
12    6  0.1540825E-007  0.1564435E+04  0.7818608E-02  0.8842700E-01
         -1   -1    0    0    0  501 -0.00000000000E+00  0.00000000000E+00  0.31461856664E+03  0.31461856664E+03  0.00000000000E+00 0.  1.
          2   -1    0    0  501    0  0.00000000000E+00 -0.00000000000E+00 -0.19447809348E+04  0.19447809348E+04  0.00000000000E+00 0. -1.
         24    2    1    2    0    0  0.20989443476E+01 -0.25793422375E+02  0.20380984249E+03  0.22021251063E+03  0.79280462521E+02 0.  0.
        254    2    1    2    0    0 -0.20989443476E+01  0.25793422375E+02 -0.18339722107E+04  0.20391869908E+04  0.89115644406E+03 0.  0.
         23    2    4    4    0    0 -0.40450093739E+03 -0.99113788131E+02 -0.63288371446E+03  0.76311494073E+03  0.91422455607E+02 0.  0.
         23    2    4    4    0    0  0.40240199304E+03  0.12490721051E+03 -0.12010884962E+04  0.12760720501E+04  0.90648364736E+02 0.  0.
          4    1    3    3  502    0 -0.71094317044E+01 -0.43432853596E+01 -0.52540049302E+01  0.98495032708E+01  0.00000000000E+00 0. -1.
         -3    1    3    3    0  502  0.92083760520E+01 -0.21450137016E+02  0.20906384742E+03  0.21036300736E+03  0.00000000000E+00 0.  1.
         11    1    5    5    0    0 -0.89303540461E+02 -0.62504994005E+02 -0.16755881147E+03  0.19989485215E+03  0.00000000000E+00 0. -1.
        -11    1    5    5    0    0 -0.31519739693E+03 -0.36608794126E+02 -0.46532490299E+03  0.56322008858E+03  0.00000000000E+00 0.  1.
          1    1    6    6  503    0  0.19624296007E+02  0.13193815648E+02 -0.25868950715E+02  0.35048429012E+02  0.00000000000E+00 0. -1.
         -1    1    6    6    0  503  0.38277769704E+03  0.11171339486E+03 -0.11752195455E+04  0.12410236211E+04  0.00000000000E+00 0.  1.
<mgrwt>
<rscale>  0 0.15644350E+04</rscale>
<asrwt>0</asrwt>
<pdfrwt beam="1">  1        2 0.29919707E+00 0.15644350E+04</pdfrwt>
<pdfrwt beam="2">  1       -1 0.48402856E-01 0.15644350E+04</pdfrwt>
<totfact> 0.33536758E+01</totfact>
</mgrwt>
</event>
<event>
12    6  0.1540825E-007  0.1382714E+04  0.7818608E-02  0.8966427E-01
          2   -1    0    0  501    0  0.00000000000E+00  0.00000000000E+00  0.19811036617E+04  0.19811036617E+04  0.00000000000E+00 0. -1.
         -1   -1    0    0    0  501 -0.00000000000E+00 -0.00000000000E+00 -0.24126681537E+03  0.24126681537E+03  0.00000000000E+00 0.  1.
         24    2    1    2    0    0  0.18662855993E+03  0.26455051986E+03  0.15970717315E+03  0.37078251419E+03  0.84593703844E+02 0.  0.
        254    2    1    2    0    0 -0.18662855993E+03 -0.26455051986E+03  0.15801296731E+04  0.18515879628E+04  0.90925849089E+03 0.  0.
         23    2    4    4    0    0  0.44483460638E+02 -0.60375401824E+01  0.14749018311E+04  0.14784089459E+04  0.91336573748E+02 0.  0.
         23    2    4    4    0    0 -0.23111202057E+03 -0.25851297968E+03  0.10522784207E+03  0.37317901700E+03  0.89151294237E+02 0.  0.
          2    1    3    3  502    0  0.55232637678E+02  0.14409239965E+03  0.94628132533E+02  0.18101863818E+03  0.00000000000E+00 0. -1.
         -1    1    3    3    0  502  0.13139592225E+03  0.12045812021E+03  0.65079040617E+02  0.18976387601E+03  0.00000000000E+00 0.  1.
         11    1    5    5    0    0  0.28754225026E+02  0.27114798727E+02  0.26312414305E+03  0.26607580203E+03  0.00000000000E+00 0. -1.
        -11    1    5    5    0    0  0.15729235612E+02 -0.33152338910E+02  0.12117776880E+04  0.12123331438E+04  0.00000000000E+00 0.  1.
          4    1    6    6  503    0 -0.31447968262E+02 -0.47787681052E+02  0.53473032873E+02  0.78307103208E+02  0.00000000000E+00 0. -1.
         -4    1    6    6    0  503 -0.19966405231E+03 -0.21072529863E+03  0.51754809198E+02  0.29487191379E+03  0.00000000000E+00 0.  1.
<mgrwt>
<rscale>  0 0.13827141E+04</rscale>
<asrwt>0</asrwt>
<pdfrwt beam="1">  1        2 0.30478517E+00 0.13827141E+04</pdfrwt>
<pdfrwt beam="2">  1       -1 0.37117973E-01 0.13827141E+04</pdfrwt>
<totfact> 0.53067555E+01</totfact>
</mgrwt>
</event>
<event>
12    6  0.1540825E-007  0.1448029E+04  0.7818608E-02  0.8919768E-01
         -1   -1    0    0    0  501 -0.00000000000E+00  0.00000000000E+00  0.29575347240E+03  0.29575347240E+03  0.00000000000E+00 0.  1.
          2   -1    0    0  501    0  0.00000000000E+00 -0.00000000000E+00 -0.17724119402E+04  0.17724119402E+04  0.00000000000E+00 0. -1.
         24    2    1    2    0    0  0.34613780144E+03 -0.30173911771E+03 -0.57511189896E+03  0.74063441645E+03  0.83233225138E+02 0.  0.
        254    2    1    2    0    0 -0.34613780144E+03  0.30173911771E+03 -0.90154656886E+03  0.13275309962E+04  0.85947336040E+03 0.  0.
         23    2    4    4    0    0  0.20670991239E+03  0.19004555618E+03 -0.45624193618E+02  0.29847328074E+03  0.90324033184E+02 0.  0.
         23    2    4    4    0    0 -0.55284771383E+03  0.11169356153E+03 -0.85592237525E+03  0.10290577154E+04  0.90777876553E+02 0.  0.
          4    1    3    3  502    0  0.19880230623E+03 -0.20648060670E+03 -0.30502926373E+03  0.41856833329E+03  0.00000000000E+00 0. -1.
         -3    1    3    3    0  502  0.14733549521E+03 -0.95258511016E+02 -0.27008263523E+03  0.32206608316E+03  0.00000000000E+00 0.  1.
         11    1    5    5    0    0  0.13290880093E+03  0.60869458816E+02 -0.21413588091E+02  0.14774431338E+03  0.00000000000E+00 0. -1.
        -11    1    5    5    0    0  0.73801111463E+02  0.12917609736E+03 -0.24210605527E+02  0.15072896737E+03  0.00000000000E+00 0.  1.
          3    1    6    6  503    0 -0.41736373826E+03  0.44001363959E+02 -0.61856977335E+03  0.74750061842E+03  0.00000000000E+00 0. -1.
         -3    1    6    6    0  503 -0.13548397557E+03  0.67692197573E+02 -0.23735260190E+03  0.28155709701E+03  0.00000000000E+00 0.  1.
<mgrwt>
<rscale>  0 0.14480290E+04</rscale>
<asrwt>0</asrwt>
<pdfrwt beam="1">  1        2 0.27267876E+00 0.14480290E+04</pdfrwt>
<pdfrwt beam="2">  1       -1 0.45500535E-01 0.14480290E+04</pdfrwt>
<totfact> 0.47380020E+01</totfact>
</mgrwt>
</event>
<event>
12    6  0.1540825E-007  0.2026918E+04  0.7818608E-02  0.8594138E-01
          2   -1    0    0  501    0  0.00000000000E+00  0.00000000000E+00  0.14404706535E+04  0.14404706535E+04  0.00000000000E+00 0. -1.
         -1   -1    0    0    0  501 -0.00000000000E+00 -0.00000000000E+00 -0.71303026065E+03  0.71303026065E+03  0.00000000000E+00 0.  1.
         24    2    1    2    0    0  0.60114419383E+03 -0.12889583607E+03  0.85514157748E+03  0.10561806382E+04  0.79132450257E+02 0.  0.
        254    2    1    2    0    0 -0.60114419383E+03  0.12889583607E+03 -0.12770118464E+03  0.10973202759E+04  0.89989761476E+03 0.  0.
         23    2    4    4    0    0 -0.32279574512E+03  0.22439645991E+03 -0.48143412484E+03  0.62827922607E+03  0.91679360145E+02 0.  0.
         23    2    4    4    0    0 -0.27834844871E+03 -0.95500623832E+02  0.35373294019E+03  0.46904104984E+03  0.90963099167E+02 0.  0.
          4    1    3    3  502    0  0.33796024028E+03 -0.55354546274E+02  0.53560670879E+03  0.63573248801E+03  0.00000000000E+00 0. -1.
         -3    1    3    3    0  502  0.26318395354E+03 -0.73541289800E+02  0.31953486869E+03  0.42044815021E+03  0.00000000000E+00 0.  1.
         11    1    5    5    0    0 -0.56255643152E+02  0.24356062501E+02 -0.33143577138E+02  0.69687960743E+02  0.00000000000E+00 0. -1.
        -11    1    5    5    0    0 -0.26654010196E+03  0.20004039740E+03 -0.44829054770E+03  0.55859126533E+03  0.00000000000E+00 0.  1.
          1    1    6    6  503    0 -0.26186903564E+03 -0.83672646099E+02  0.27932241239E+03  0.39191518674E+03  0.00000000000E+00 0. -1.
         -1    1    6    6    0  503 -0.16479413072E+02 -0.11827977733E+02  0.74410527798E+02  0.77125863104E+02  0.00000000000E+00 0.  1.
<mgrwt>
<rscale>  0 0.20269180E+04</rscale>
<asrwt>0</asrwt>
<pdfrwt beam="1">  1        2 0.22161087E+00 0.20269180E+04</pdfrwt>
<pdfrwt beam="2">  1       -1 0.10969696E+00 0.20269180E+04</pdfrwt>
<totfact> 0.11134190E+01</totfact>
</mgrwt>
</event>
<event>
12    6  0.1540825E-007  0.1333880E+04  0.7818608E-02  0.9003121E-01
         -1   -1    0    0    0  501 -0.00000000000E+00  0.00000000000E+00  0.52860044357E+03  0.52860044357E+03  0.00000000000E+00 0.  1.
          2   -1    0    0  501    0  0.00000000000E+00 -0.00000000000E+00 -0.84148392607E+03  0.84148392607E+03  0.00000000000E+00 0. -1.
         24    2    1    2    0    0 -0.15038794443E+03  0.10650165002E+03 -0.40439990145E+03  0.45338641185E+03  0.89782085458E+02 0.  0.
        254    2    1    2    0    0  0.15038794443E+03 -0.10650165002E+03  0.91516418954E+02  0.91669795778E+03  0.89330888028E+03 0.  0.
         23    2    4    4    0    0  0.58599464792E+02 -0.24497552605E+02  0.48321162017E+03  0.49597136259E+03  0.91978776285E+02 0.  0.
         23    2    4    4    0    0  0.91788479638E+02 -0.82004097417E+02 -0.39169520121E+03  0.42072659519E+03  0.91847374819E+02 0.  0.
          4    1    3    3  502    0 -0.99637851730E+02  0.10784601125E+03 -0.34683020248E+03  0.37662933103E+03  0.00000000000E+00 0. -1.
         -3    1    3    3    0  502 -0.50750092701E+02 -0.13443612326E+01 -0.57569698974E+02  0.76757080821E+02  0.00000000000E+00 0.  1.
         11    1    5    5    0    0  0.44862711806E+02  0.30761644756E+02  0.21415171287E+03  0.22095225236E+03  0.00000000000E+00 0.  1.
        -11    1    5    5    0    0  0.13736752986E+02 -0.55259197361E+02  0.26905990730E+03  0.27501911023E+03  0.00000000000E+00 0. -1.
          1    1    6    6  503    0  0.10609827639E+03 -0.48717189628E+02 -0.28236620816E+03  0.30555013390E+03  0.00000000000E+00 0. -1.
         -1    1    6    6    0  503 -0.14309796748E+02 -0.33286907789E+02 -0.10932899305E+03  0.11517646129E+03  0.00000000000E+00 0.  1.
<mgrwt>
<rscale>  0 0.13338797E+04</rscale>
<asrwt>0</asrwt>
<pdfrwt beam="1">  1        2 0.12945906E+00 0.13338797E+04</pdfrwt>
<pdfrwt beam="2">  1       -1 0.81323146E-01 0.13338797E+04</pdfrwt>
<totfact> 0.54119614E+01</totfact>
</mgrwt>
</event>
<event>
12    6  0.1540825E-007  0.1824732E+04  0.7818608E-02  0.8693257E-01
          2   -1    0    0  501    0  0.00000000000E+00  0.00000000000E+00  0.24933595311E+03  0.24933595311E+03  0.00000000000E+00 0. -1.
         -1   -1    0    0    0  501 -0.00000000000E+00 -0.00000000000E+00 -0.33385153605E+04  0.33385153605E+04  0.00000000000E+00 0.  1.
         24    2    1    2    0    0  0.38473355806E+03 -0.55276077316E+03 -0.13998557142E+04  0.15554248174E+04  0.78650867932E+02 0.  0.
        254    2    1    2    0    0 -0.38473355806E+03  0.55276077316E+03 -0.16893236932E+04  0.20324264962E+04  0.90740208234E+03 0.  0.
         23    2    4    4    0    0 -0.38800053742E+03  0.69407707728E+03 -0.81759598211E+03  0.11446133718E+04  0.96897753805E+02 0.  0.
         23    2    4    4    0    0  0.32669793583E+01 -0.14131630413E+03 -0.87172771108E+03  0.88781312440E+03  0.91224835545E+02 0.  0.
          2    1    3    3  502    0  0.69022929004E+02 -0.81093668718E+02 -0.16505684055E+03  0.19642837995E+03  0.00000000000E+00 0. -1.
         -1    1    3    3    0  502  0.31571062906E+03 -0.47166710444E+03 -0.12347988736E+04  0.13589964375E+04  0.00000000000E+00 0.  1.
         11    1    5    5    0    0 -0.51595529917E+02  0.52073983899E+02 -0.49037680029E+02  0.88195762762E+02  0.00000000000E+00 0. -1.
        -11    1    5    5    0    0 -0.33640500751E+03  0.64200309338E+03 -0.76855830208E+03  0.10564176090E+04  0.00000000000E+00 0.  1.
          1    1    6    6  503    0  0.32274768133E+02 -0.11893682331E+02 -0.22622158779E+03  0.22882160545E+03  0.00000000000E+00 0. -1.
         -1    1    6    6    0  503 -0.29007788774E+02 -0.12942262180E+03 -0.64550612329E+03  0.65899151895E+03  0.00000000000E+00 0.  1.
<mgrwt>
<rscale>  0 0.18247322E+04</rscale>
<asrwt>0</asrwt>
<pdfrwt beam="1">  1        2 0.38359383E-01 0.18247322E+04</pdfrwt>
<pdfrwt beam="2">  1       -1 0.51361767E+00 0.18247322E+04</pdfrwt>
<totfact> 0.17672011E-01</totfact>
</mgrwt>
</event>
<event>
12    6  0.1540825E-007  0.1790656E+04  0.7818608E-02  0.8711284E-01
          2   -1    0    0  501    0  0.00000000000E+00  0.00000000000E+00  0.20590673791E+04  0.20590673791E+04  0.00000000000E+00 0. -1.
         -1   -1    0    0    0  501 -0.00000000000E+00 -0.00000000000E+00 -0.38930843528E+03  0.38930843528E+03  0.00000000000E+00 0.  1.
         24    2    1    2    0    0  0.62927755714E+03  0.36007672373E+02  0.32267245829E+03  0.71263169473E+03  0.80247246714E+02 0.  0.
        254    2    1    2    0    0 -0.62927755714E+03 -0.36007672373E+02  0.13470864855E+04  0.17357441196E+04  0.89491834989E+03 0.  0.
         23    2    4    4    0    0  0.14801241413E+01 -0.38081372145E+02  0.10112113099E+04  0.10156054406E+04  0.86334905997E+02 0.  0.
         23    2    4    4    0    0 -0.63075768128E+03  0.20736997717E+01  0.33587517557E+03  0.72013867900E+03  0.89039489598E+02 0.  0.
          4    1    3    3  502    0  0.40792321847E+02 -0.17499421642E+02  0.25720616171E+02  0.51301007550E+02  0.00000000000E+00 0. -1.
         -3    1    3    3    0  502  0.58848523529E+03  0.53507094015E+02  0.29695184212E+03  0.66133068718E+03  0.00000000000E+00 0.  1.
         11    1    5    5    0    0  0.40606083509E+02 -0.20185038659E+02  0.69539178802E+03  0.69686873129E+03  0.00000000000E+00 0. -1.
        -11    1    5    5    0    0 -0.39125959367E+02 -0.17896333485E+02  0.31581952192E+03  0.31873670933E+03  0.00000000000E+00 0.  1.
          1    1    6    6  503    0 -0.48142942471E+03 -0.36096302861E+02  0.26015160526E+03  0.54841233737E+03  0.00000000000E+00 0. -1.
         -1    1    6    6    0  503 -0.14932825657E+03  0.38170002633E+02  0.75723570304E+02  0.17172634163E+03  0.00000000000E+00 0.  1.
<mgrwt>
<rscale>  0 0.17906561E+04</rscale>
<asrwt>0</asrwt>
<pdfrwt beam="1">  1        2 0.31677959E+00 0.17906561E+04</pdfrwt>
<pdfrwt beam="2">  1       -1 0.59893606E-01 0.17906561E+04</pdfrwt>
<totfact> 0.18836313E+01</totfact>
</mgrwt>
</event>
<event>
12    6  0.1540825E-007  0.2068356E+04  0.7818608E-02  0.8575312E-01
          2   -1    0    0  501    0  0.00000000000E+00  0.00000000000E+00  0.50028310220E+04  0.50028310220E+04  0.00000000000E+00 0. -1.
         -1   -1    0    0    0  501 -0.00000000000E+00 -0.00000000000E+00 -0.21378381001E+03  0.21378381001E+03  0.00000000000E+00 0.  1.
         24    2    1    2    0    0  0.27081260505E+03  0.58007853892E+03  0.59205494139E+03  0.87526629219E+03  0.75706342225E+02 0.  0.
        254    2    1    2    0    0 -0.27081260505E+03 -0.58007853892E+03  0.41969922706E+04  0.43413485398E+04  0.90704600014E+03 0.  0.
         23    2    4    4    0    0 -0.38600259498E+03  0.78460903541E+02  0.11119619010E+04  0.11834691027E+04  0.94793095170E+02 0.  0.
         23    2    4    4    0    0  0.11518998994E+03 -0.65853944246E+03  0.30850303696E+04  0.31578794371E+04  0.88584577716E+02 0.  0.
          2    1    3    3  502    0  0.19739807536E+03  0.40337573847E+03  0.45937329694E+03  0.64241872053E+03  0.00000000000E+00 0. -1.
         -1    1    3    3    0  502  0.73414529683E+02  0.17670280045E+03  0.13268164445E+03  0.23284757166E+03  0.00000000000E+00 0.  1.
         11    1    5    5    0    0 -0.26240605159E+03  0.33811960157E+02  0.85270887818E+03  0.89281163494E+03  0.00000000000E+00 0. -1.
        -11    1    5    5    0    0 -0.12359654339E+03  0.44648943385E+02  0.25925302285E+03  0.29065746772E+03  0.00000000000E+00 0.  1.
          4    1    6    6  503    0  0.11585976485E+03 -0.43263531806E+03  0.19871299910E+04  0.20369787443E+04  0.00000000000E+00 0. -1.
         -4    1    6    6    0  503 -0.66977491062E+00 -0.22590412440E+03  0.10979003785E+04  0.11209006928E+04  0.00000000000E+00 0.  1.
<mgrwt>
<rscale>  0 0.20683561E+04</rscale>
<asrwt>0</asrwt>
<pdfrwt beam="1">  1        2 0.76966622E+00 0.20683561E+04</pdfrwt>
<pdfrwt beam="2">  1       -1 0.32889821E-01 0.20683561E+04</pdfrwt>
<totfact> 0.31764940E-01</totfact>
</mgrwt>
</event>
<event>
12    6  0.1540825E-007  0.1201114E+04  0.7818608E-02  0.9111882E-01
         -1   -1    0    0    0  501 -0.00000000000E+00  0.00000000000E+00  0.47601839580E+03  0.47601839580E+03  0.00000000000E+00 0.  1.
          2   -1    0    0  501    0  0.00000000000E+00 -0.00000000000E+00 -0.75767839987E+03  0.75767839987E+03  0.00000000000E+00 0. -1.
         24    2    1    2    0    0 -0.83174859217E+02 -0.11258896337E+03  0.14198671723E+03  0.21442531438E+03  0.78890149562E+02 0.  0.
        254    2    1    2    0    0  0.83174859217E+02  0.11258896337E+03 -0.42364672130E+03  0.10192714813E+04  0.91642974430E+03 0.  0.
         23    2    4    4    0    0  0.76874722526E+02  0.91761772399E+02 -0.70648651087E+03  0.72245985801E+03  0.92168923991E+02 0.  0.
         23    2    4    4    0    0  0.63001366903E+01  0.20827190972E+02  0.28283978957E+03  0.29681162329E+03  0.87323132955E+02 0.  0.
          2    1    3    3  502    0 -0.69168944545E+01  0.65369166400E+01  0.37192917936E+02  0.38391247083E+02  0.00000000000E+00 0. -1.
         -1    1    3    3    0  502 -0.76257964762E+02 -0.11912588001E+03  0.10479379930E+03  0.17603406730E+03  0.00000000000E+00 0.  1.
         11    1    5    5    0    0  0.21163131493E+02 -0.13642987428E+02 -0.22620224116E+03  0.22759934786E+03  0.00000000000E+00 0. -1.
        -11    1    5    5    0    0  0.55711591034E+02  0.10540475983E+03 -0.48028426971E+03  0.49486051015E+03  0.00000000000E+00 0.  1.
          4    1    6    6  503    0 -0.28470109531E+02  0.40803250335E+02  0.16477460494E+03  0.17212240647E+03  0.00000000000E+00 0. -1.
         -4    1    6    6    0  503  0.34770246222E+02 -0.19976059363E+02  0.11806518463E+03  0.12468921682E+03  0.00000000000E+00 0.  1.
<mgrwt>
<rscale>  0 0.12011142E+04</rscale>
<asrwt>0</asrwt>
<pdfrwt beam="1">  1        2 0.11656591E+00 0.12011142E+04</pdfrwt>
<pdfrwt beam="2">  1       -1 0.73233600E-01 0.12011142E+04</pdfrwt>
<totfact> 0.78375717E+01</totfact>
</mgrwt>
</event>
<event>
12    6  0.1540825E-007  0.1753552E+04  0.7818608E-02  0.8731397E-01
         -1   -1    0    0    0  501 -0.00000000000E+00  0.00000000000E+00  0.10667410586E+04  0.10667410586E+04  0.00000000000E+00 0.  1.
          2   -1    0    0  501    0  0.00000000000E+00 -0.00000000000E+00 -0.72064021023E+03  0.72064021023E+03  0.00000000000E+00 0. -1.
         24    2    1    2    0    0  0.22271300675E+03  0.20291379229E+03  0.70896914816E+03  0.77438142799E+03  0.79083832109E+02 0.  0.
        254    2    1    2    0    0 -0.22271300675E+03 -0.20291379229E+03 -0.36286829975E+03  0.10129998409E+04  0.89650442508E+03 0.  0.
         23    2    4    4    0    0 -0.26297174277E+03  0.96375028910E+02 -0.56616168912E+03  0.63811027231E+03  0.90572499713E+02 0.  0.
         23    2    4    4    0    0  0.40258736015E+02 -0.29928882120E+03  0.20329338938E+03  0.37488956857E+03  0.89551226345E+02 0.  0.
          4    1    3    3  502    0  0.20180168307E+03  0.18204914899E+03  0.55945766068E+03  0.62197965082E+03  0.00000000000E+00 0. -1.
         -1    1    3    3    0  502  0.20911323687E+02  0.20864643297E+02  0.14951148748E+03  0.15240177717E+03  0.00000000000E+00 0.  1.
         11    1    5    5    0    0 -0.75311747142E+02  0.71388345288E+02 -0.22949959041E+03  0.25186944456E+03  0.00000000000E+00 0. -1.
        -11    1    5    5    0    0 -0.18765999563E+03  0.24986683621E+02 -0.33666209871E+03  0.38624082775E+03  0.00000000000E+00 0.  1.
          1    1    6    6  503    0  0.36306999156E+02 -0.29746206716E+03  0.21067912315E+03  0.36631621929E+03  0.00000000000E+00 0. -1.
         -1    1    6    6    0  503  0.39517368594E+01 -0.18267540363E+01 -0.73857337701E+01  0.85733492777E+01  0.00000000000E+00 0.  1.
<mgrwt>
<rscale>  0 0.17535524E+04</rscale>
<asrwt>0</asrwt>
<pdfrwt beam="1">  1        2 0.11086772E+00 0.17535524E+04</pdfrwt>
<pdfrwt beam="2">  1       -1 0.16411401E+00 0.17535524E+04</pdfrwt>
<totfact> 0.11623720E+01</totfact>
</mgrwt>
</event>
<event>
12    6  0.1540825E-007  0.2025096E+04  0.7818608E-02  0.8594977E-01
          2   -1    0    0  501    0  0.00000000000E+00  0.00000000000E+00  0.50485458427E+03  0.50485458427E+03  0.00000000000E+00 0. -1.
         -1   -1    0    0    0  501 -0.00000000000E+00 -0.00000000000E+00 -0.20307894722E+04  0.20307894722E+04  0.00000000000E+00 0.  1.
         24    2    1    2    0    0 -0.61441621540E+03 -0.51204639917E+03 -0.78006737589E+03  0.11199077468E+04  0.77391535605E+02 0.  0.
        254    2    1    2    0    0  0.61441621540E+03  0.51204639917E+03 -0.74586751206E+03  0.14157363097E+04  0.89905069509E+03 0.  0.
         23    2    4    4    0    0  0.65980521518E+03  0.31886422287E+03 -0.88517852971E+03  0.11527820118E+04  0.91367514117E+02 0.  0.
         23    2    4    4    0    0 -0.45388999782E+02  0.19318217630E+03  0.13931101765E+03  0.26295429789E+03  0.10177371272E+03 0.  0.
          2    1    3    3  502    0 -0.12712196229E+03 -0.71649924347E+02 -0.16169882008E+03  0.21780774406E+03  0.00000000000E+00 0. -1.
         -1    1    3    3    0  502 -0.48729425311E+03 -0.44039647483E+03 -0.61836855581E+03  0.90210000276E+03  0.00000000000E+00 0.  1.
         11    1    5    5    0    0  0.15295294038E+03  0.96654870502E+02 -0.27318228968E+03  0.32766649105E+03  0.00000000000E+00 0.  1.
        -11    1    5    5    0    0  0.50685227480E+03  0.22220935237E+03 -0.61199624002E+03  0.82511552074E+03  0.00000000000E+00 0. -1.
          2    1    6    6  503    0  0.11151975874E+02  0.12810198264E+03  0.11712800582E+03  0.17393520135E+03  0.00000000000E+00 0.  1.
         -2    1    6    6    0  503 -0.56540975656E+02  0.65080193661E+02  0.22183011830E+02  0.89019096541E+02  0.00000000000E+00 0. -1.
<mgrwt>
<rscale>  0 0.20250959E+04</rscale>
<asrwt>0</asrwt>
<pdfrwt beam="1">  1        2 0.77669936E-01 0.20250959E+04</pdfrwt>
<pdfrwt beam="2">  1       -1 0.31242915E+00 0.20250959E+04</pdfrwt>
<totfact> 0.17698367E+00</totfact>
</mgrwt>
</event>
<event>
12    6  0.1540825E-007  0.1828911E+04  0.7818608E-02  0.8691074E-01
          2   -1    0    0  501    0  0.00000000000E+00  0.00000000000E+00  0.53962352049E+03  0.53962352049E+03  0.00000000000E+00 0. -1.
         -1   -1    0    0    0  501 -0.00000000000E+00 -0.00000000000E+00 -0.15496518300E+04  0.15496518300E+04  0.00000000000E+00 0.  1.
         24    2    1    2    0    0 -0.30575149549E+03  0.58248416086E+03 -0.63104638609E+03  0.91500949894E+03  0.79063690150E+02 0.  0.
        254    2    1    2    0    0  0.30575149549E+03 -0.58248416086E+03 -0.37898192339E+03  0.11742658515E+04  0.89582432270E+03 0.  0.
         23    2    4    4    0    0  0.43512043013E+03 -0.29027202257E+02 -0.39900194686E+03  0.59829748735E+03  0.92655073184E+02 0.  0.
         23    2    4    4    0    0 -0.12936893463E+03 -0.55345695860E+03  0.20020023472E+02  0.57596836417E+03  0.91037513743E+02 0.  0.
          4    1    3    3  502    0 -0.80657781218E+02  0.17842377000E+03 -0.14195551547E+03  0.24185137533E+03  0.00000000000E+00 0. -1.
         -3    1    3    3    0  502 -0.22509371427E+03  0.40406039085E+03 -0.48909087061E+03  0.67315812361E+03  0.00000000000E+00 0.  1.
         11    1    5    5    0    0  0.22022535900E+03  0.27829982412E+02 -0.22433095519E+03  0.31559165725E+03  0.00000000000E+00 0. -1.
        -11    1    5    5    0    0  0.21489507113E+03 -0.56857184669E+02 -0.17467099167E+03  0.28270583011E+03  0.00000000000E+00 0.  1.
          2    1    6    6  503    0 -0.47434815869E+02 -0.11650472590E+03 -0.27830087709E+02  0.12883294104E+03  0.00000000000E+00 0. -1.
         -2    1    6    6    0  503 -0.81934118766E+02 -0.43695223270E+03  0.47850111181E+02  0.44713542313E+03  0.00000000000E+00 0.  1.
<mgrwt>
<rscale>  0 0.18289107E+04</rscale>
<asrwt>0</asrwt>
<pdfrwt beam="1">  1        2 0.83019003E-01 0.18289107E+04</pdfrwt>
<pdfrwt beam="2">  1       -1 0.23840797E+00 0.18289107E+04</pdfrwt>
<totfact> 0.50323359E+00</totfact>
</mgrwt>
</event>
<event>
12    6  0.1540825E-007  0.3728620E+04  0.7818608E-02  0.8061649E-01
         -1   -1    0    0    0  501 -0.00000000000E+00  0.00000000000E+00  0.93861371570E+03  0.93861371570E+03  0.00000000000E+00 0.  1.
          2   -1    0    0  501    0  0.00000000000E+00 -0.00000000000E+00 -0.37029625620E+04  0.37029625620E+04  0.00000000000E+00 0. -1.
         24    2    1    2    0    0  0.72077948449E+03 -0.48781321363E+03  0.59516363127E+03  0.10573983696E+04  0.79917252821E+02 0.  0.
        254    2    1    2    0    0 -0.72077948449E+03  0.48781321363E+03 -0.33595124776E+04  0.35841779081E+04  0.89583614219E+03 0.  0.
         23    2    4    4    0    0 -0.22999921468E+03  0.45166437507E+03 -0.65360138101E+03  0.83243241039E+03  0.94067030049E+02 0.  0.
         23    2    4    4    0    0 -0.49078026981E+03  0.36148838558E+02 -0.27059110965E+04  0.27517454978E+04  0.89310750827E+02 0.  0.
          2    1    3    3  502    0  0.42448723420E+03 -0.28415362833E+03  0.39638542798E+03  0.64657103554E+03  0.00000000000E+00 0. -1.
         -1    1    3    3    0  502  0.29629225030E+03 -0.20365958529E+03  0.19877820329E+03  0.41082733401E+03  0.00000000000E+00 0.  1.
         11    1    5    5    0    0 -0.19899527350E+03  0.33890998985E+03 -0.44845949673E+03  0.59630111546E+03  0.00000000000E+00 0. -1.
        -11    1    5    5    0    0 -0.31003941176E+02  0.11275438521E+03 -0.20514188429E+03  0.23613129492E+03  0.00000000000E+00 0.  1.
          1    1    6    6  503    0 -0.22464519723E+03 -0.27632458633E+02 -0.12572299031E+04  0.12774412107E+04  0.00000000000E+00 0. -1.
         -1    1    6    6    0  503 -0.26613507258E+03  0.63781297191E+02 -0.14486811934E+04  0.14743042871E+04  0.00000000000E+00 0.  1.
<mgrwt>
<rscale>  0 0.37286198E+04</rscale>
<asrwt>0</asrwt>
<pdfrwt beam="1">  1        2 0.56968655E+00 0.37286198E+04</pdfrwt>
<pdfrwt beam="2">  1       -1 0.14440211E+00 0.37286198E+04</pdfrwt>
<totfact> 0.20485695E-01</totfact>
</mgrwt>
</event>
<event>
12    6  0.1540825E-007  0.2044734E+04  0.7818608E-02  0.8585987E-01
         -3   -1    0    0    0  501 -0.00000000000E+00  0.00000000000E+00  0.16598631845E+04  0.16598631845E+04  0.00000000000E+00 0.  1.
          2   -1    0    0  501    0  0.00000000000E+00 -0.00000000000E+00 -0.62971141085E+03  0.62971141085E+03  0.00000000000E+00 0. -1.
         24    2    1    2    0    0 -0.16667551133E+03 -0.20869943474E+03 -0.44963743742E+03  0.52866107247E+03  0.77282108416E+02 0.  0.
        254    2    1    2    0    0  0.16667551133E+03  0.20869943474E+03  0.14797892110E+04  0.17609135228E+04  0.91635372302E+03 0.  0.
         23    2    4    4    0    0  0.12138171424E+03  0.36621223983E+03  0.15796468843E+03  0.42640442675E+03  0.89571017658E+02 0.  0.
         23    2    4    4    0    0  0.45293797091E+02 -0.15751280509E+03  0.13218245226E+04  0.13345090961E+04  0.82659828129E+02 0.  0.
          2    1    3    3  502    0 -0.13115354313E+03 -0.12008602243E+03 -0.33674461125E+03  0.38081338982E+03  0.00000000000E+00 0. -1.
         -1    1    3    3    0  502 -0.35521968203E+02 -0.88613412308E+02 -0.11289282617E+03  0.14784768265E+03  0.00000000000E+00 0.  1.
         11    1    5    5    0    0  0.96624991981E+02  0.22356809076E+03  0.13889777546E+03  0.28037773147E+03  0.00000000000E+00 0.  1.
        -11    1    5    5    0    0  0.24756722259E+02  0.14264414907E+03  0.19066912979E+02  0.14602669527E+03  0.00000000000E+00 0. -1.
          4    1    6    6  503    0 -0.99664231217E+00  0.41778710609E+01  0.36156952290E+01  0.56143703555E+01  0.00000000000E+00 0.  1.
         -4    1    6    6    0  503  0.46290439403E+02 -0.16169067615E+03  0.13182088274E+04  0.13288947257E+04  0.00000000000E+00 0. -1.
<mgrwt>
<rscale>  0 0.20447345E+04</rscale>
<asrwt>0</asrwt>
<pdfrwt beam="1">  1        2 0.96878679E-01 0.20447345E+04</pdfrwt>
<pdfrwt beam="2">  1       -3 0.25536357E+00 0.20447345E+04</pdfrwt>
<totfact> 0.18428699E+00</totfact>
</mgrwt>
</event>
<event>
12    6  0.1540825E-007  0.1241153E+04  0.7818608E-02  0.9077579E-01
         -1   -1    0    0    0  501 -0.00000000000E+00  0.00000000000E+00  0.13525272642E+04  0.13525272642E+04  0.00000000000E+00 0.  1.
          2   -1    0    0  501    0  0.00000000000E+00 -0.00000000000E+00 -0.28473751216E+03  0.28473751216E+03  0.00000000000E+00 0. -1.
         24    2    1    2    0    0  0.37982259806E+01 -0.80948898744E+02 -0.98858324849E+02  0.15379127892E+03  0.85508118628E+02 0.  0.
        254    2    1    2    0    0 -0.37982259806E+01  0.80948898744E+02  0.11666480769E+04  0.14834734974E+04  0.91272051119E+03 0.  0.
         23    2    4    4    0    0 -0.73393266003E+02  0.21569260467E+03 -0.53278002581E+02  0.25082543005E+03  0.90360276656E+02 0.  0.
         23    2    4    4    0    0  0.69595040023E+02 -0.13474370593E+03  0.12199260795E+04  0.12326480674E+04  0.90566455054E+02 0.  0.
          2    1    3    3  502    0  0.17694048159E+02 -0.81403969419E+02 -0.38353751954E+02  0.91709846071E+02  0.00000000000E+00 0. -1.
         -1    1    3    3    0  502 -0.13895822179E+02  0.45507067495E+00 -0.60504572895E+02  0.62081432849E+02  0.00000000000E+00 0.  1.
         11    1    5    5    0    0 -0.72806290053E+02  0.22224168018E+03 -0.59984025740E+02  0.24143364228E+03  0.00000000000E+00 0.  1.
        -11    1    5    5    0    0 -0.58697595002E+00 -0.65490755142E+01  0.67060231593E+01  0.93917877675E+01  0.00000000000E+00 0. -1.
          2    1    6    6  503    0 -0.15548010943E+02 -0.48503938466E+02  0.50062488368E+03  0.50320934694E+03  0.00000000000E+00 0. -1.
         -2    1    6    6    0  503  0.85143050965E+02 -0.86239767460E+02  0.71930119578E+03  0.72943872044E+03  0.00000000000E+00 0.  1.
<mgrwt>
<rscale>  0 0.12411531E+04</rscale>
<asrwt>0</asrwt>
<pdfrwt beam="1">  1        2 0.43805772E-01 0.12411531E+04</pdfrwt>
<pdfrwt beam="2">  1       -1 0.20808111E+00 0.12411531E+04</pdfrwt>
<totfact> 0.17392638E+01</totfact>
</mgrwt>
</event>
<event>
12    6  0.1540825E-007  0.1866389E+04  0.7818608E-02  0.8671770E-01
         -1   -1    0    0    0  501 -0.00000000000E+00  0.00000000000E+00  0.38857236395E+03  0.38857236395E+03  0.00000000000E+00 0.  1.
          2   -1    0    0  501    0  0.00000000000E+00 -0.00000000000E+00 -0.22411582568E+04  0.22411582568E+04  0.00000000000E+00 0. -1.
         24    2    1    2    0    0  0.61532153382E+03  0.34498169643E+03 -0.83282193121E+03  0.10943750739E+04  0.80196461947E+02 0.  0.
        254    2    1    2    0    0 -0.61532153382E+03 -0.34498169643E+03 -0.10197639616E+04  0.15353555468E+04  0.90540883405E+03 0.  0.
         23    2    4    4    0    0 -0.55057167046E+03 -0.13983001690E+03 -0.11359967989E+04  0.12733512647E+04  0.90846675345E+02 0.  0.
         23    2    4    4    0    0 -0.64749863365E+02 -0.20515167953E+03  0.11623283721E+03  0.26200428208E+03  0.94108527570E+02 0.  0.
          2    1    3    3  502    0  0.25104114920E+02  0.20743322214E+02 -0.17709127906E+02  0.37069060058E+02  0.00000000000E+00 0. -1.
         -1    1    3    3    0  502  0.59021741890E+03  0.32423837421E+03 -0.81511280330E+03  0.10573060139E+04  0.00000000000E+00 0.  1.
         11    1    5    5    0    0 -0.15075155734E+03 -0.31606504194E+02 -0.40276069198E+03  0.43120897271E+03  0.00000000000E+00 0. -1.
        -11    1    5    5    0    0 -0.39982011312E+03 -0.10822351270E+03 -0.73323610689E+03  0.84214229201E+03  0.00000000000E+00 0.  1.
          3    1    6    6  503    0 -0.32987641348E+02 -0.18502702861E+03  0.12184710142E+03  0.22398638781E+03  0.00000000000E+00 0.  1.
         -3    1    6    6    0  503 -0.31762222016E+02 -0.20124650914E+02 -0.56142642098E+01  0.38017894267E+02  0.00000000000E+00 0. -1.
<mgrwt>
<rscale>  0 0.18663892E+04</rscale>
<asrwt>0</asrwt>
<pdfrwt beam="1">  1        2 0.34479358E+00 0.18663892E+04</pdfrwt>
<pdfrwt beam="2">  1       -1 0.59780363E-01 0.18663892E+04</pdfrwt>
<totfact> 0.14853400E+01</totfact>
</mgrwt>
</event>
<event>
12    6  0.1540825E-007  0.1753952E+04  0.7818608E-02  0.8731178E-01
         -1   -1    0    0    0  501 -0.00000000000E+00  0.00000000000E+00  0.30499054793E+03  0.30499054793E+03  0.00000000000E+00 0.  1.
          2   -1    0    0  501    0  0.00000000000E+00 -0.00000000000E+00 -0.25216743619E+04  0.25216743619E+04  0.00000000000E+00 0. -1.
         24    2    1    2    0    0  0.43167856978E+03 -0.17468622262E+03 -0.96990146457E+02  0.48256062520E+03  0.81215789779E+02 0.  0.
        254    2    1    2    0    0 -0.43167856978E+03  0.17468622262E+03 -0.21196936676E+04  0.23441042847E+04  0.88592436986E+03 0.  0.
         23    2    4    4    0    0 -0.28328088685E+03  0.21326719060E+03 -0.20219931697E+03  0.41832794315E+03  0.91557352527E+02 0.  0.
         23    2    4    4    0    0 -0.14839768293E+03 -0.38580967974E+02 -0.19174943506E+04  0.19257763415E+04  0.91211674606E+02 0.  0.
          2    1    3    3  502    0  0.16054054537E+03 -0.31191479078E+02 -0.10723046873E+02  0.16389374243E+03  0.00000000000E+00 0. -1.
         -1    1    3    3    0  502  0.27113802441E+03 -0.14349474354E+03 -0.86267099585E+02  0.31866688277E+03  0.00000000000E+00 0.  1.
         11    1    5    5    0    0 -0.17775885582E+03  0.77602179983E+02 -0.97631290937E+02  0.21714552293E+03  0.00000000000E+00 0.  1.
        -11    1    5    5    0    0 -0.10552203103E+03  0.13566501061E+03 -0.10456802603E+03  0.20118242022E+03  0.00000000000E+00 0. -1.
          2    1    6    6  503    0 -0.85584983755E+02 -0.12196453086E+02 -0.56581659616E+03  0.57238270712E+03  0.00000000000E+00 0. -1.
         -2    1    6    6    0  503 -0.62812699175E+02 -0.26384514887E+02 -0.13516777544E+04  0.13533936344E+04  0.00000000000E+00 0.  1.
<mgrwt>
<rscale>  0 0.17539519E+04</rscale>
<asrwt>0</asrwt>
<pdfrwt beam="1">  1        2 0.38794990E+00 0.17539519E+04</pdfrwt>
<pdfrwt beam="2">  1       -1 0.46921623E-01 0.17539519E+04</pdfrwt>
<totfact> 0.16543330E+01</totfact>
</mgrwt>
</event>
<event>
12    6  0.1540825E-007  0.1512569E+04  0.7818608E-02  0.8876138E-01
         -1   -1    0    0    0  501 -0.00000000000E+00  0.00000000000E+00  0.71808006969E+03  0.71808006969E+03  0.00000000000E+00 0.  1.
          2   -1    0    0  501    0  0.00000000000E+00 -0.00000000000E+00 -0.79652121862E+03  0.79652121862E+03  0.00000000000E+00 0. -1.
         24    2    1    2    0    0  0.22094970623E+03 -0.11490225005E+02  0.40577535001E+03  0.46880253521E+03  0.78558159272E+02 0.  0.
        254    2    1    2    0    0 -0.22094970623E+03  0.11490225005E+02 -0.48421649894E+03  0.10457987531E+04  0.90015477347E+03 0.  0.
         23    2    4    4    0    0  0.19941640492E+03  0.17686793761E+03  0.99113884996E+02  0.30244300536E+03  0.10295163614E+03 0.  0.
         23    2    4    4    0    0 -0.42036611115E+03 -0.16537771261E+03 -0.58333038393E+03  0.74335574775E+03  0.90807354642E+02 0.  0.
          4    1    3    3  502    0  0.68952578331E+01 -0.20900949305E+01 -0.25773997553E+01  0.76521936006E+01  0.00000000000E+00 0. -1.
         -3    1    3    3    0  502  0.21405444840E+03 -0.94001300746E+01  0.40835274977E+03  0.46115034161E+03  0.00000000000E+00 0.  1.
         11    1    5    5    0    0  0.12940783262E+03  0.10896054106E+03  0.86125302696E+01  0.16938997116E+03  0.00000000000E+00 0. -1.
        -11    1    5    5    0    0  0.70008572297E+02  0.67907396551E+02  0.90501354726E+02  0.13305303420E+03  0.00000000000E+00 0.  1.
          2    1    6    6  503    0 -0.43577029473E+02 -0.85723604751E+01 -0.22601934162E+02  0.49832622745E+02  0.00000000000E+00 0. -1.
         -2    1    6    6    0  503 -0.37678908168E+03 -0.15680535213E+03 -0.56072844977E+03  0.69352312500E+03  0.00000000000E+00 0.  1.
<mgrwt>
<rscale>  0 0.15125687E+04</rscale>
<asrwt>0</asrwt>
<pdfrwt beam="1">  1        2 0.12254173E+00 0.15125687E+04</pdfrwt>
<pdfrwt beam="2">  1       -1 0.11047386E+00 0.15125687E+04</pdfrwt>
<totfact> 0.28855153E+01</totfact>
</mgrwt>
</event>
<event>
12    6  0.1540825E-007  0.1872207E+04  0.7818608E-02  0.8668816E-01
         -1   -1    0    0    0  501 -0.00000000000E+00  0.00000000000E+00  0.25338105514E+03  0.25338105514E+03  0.00000000000E+00 0.  1.
          2   -1    0    0  501    0  0.00000000000E+00 -0.00000000000E+00 -0.34583886514E+04  0.34583886514E+04  0.00000000000E+00 0. -1.
         24    2    1    2    0    0  0.27978531251E+03  0.23520247054E+03 -0.23643408070E+02  0.37702778401E+03  0.89391923178E+02 0.  0.
        254    2    1    2    0    0 -0.27978531251E+03 -0.23520247054E+03 -0.31813641882E+04  0.33347419225E+04  0.93049748454E+03 0.  0.
         23    2    4    4    0    0 -0.41519863394E+03 -0.51887728744E+03 -0.20503259252E+04  0.21572242558E+04  0.90313593015E+02 0.  0.
         23    2    4    4    0    0  0.13541332143E+03  0.28367481690E+03 -0.11310382630E+04  0.11775176667E+04  0.92152774346E+02 0.  0.
          4    1    3    3  502    0  0.12874508874E+03  0.10580183143E+03  0.33742952263E+02  0.17002326969E+03  0.00000000000E+00 0. -1.
         -3    1    3    3    0  502  0.15104022377E+03  0.12940063911E+03 -0.57386360333E+02  0.20700451432E+03  0.00000000000E+00 0.  1.
         11    1    5    5    0    0 -0.27831619857E+02 -0.60059649827E+02 -0.14232099053E+03  0.15696185825E+03  0.00000000000E+00 0.  1.
        -11    1    5    5    0    0 -0.38736701408E+03 -0.45881763762E+03 -0.19080049347E+04  0.20002623975E+04  0.00000000000E+00 0. -1.
          1    1    6    6  503    0  0.10513509254E+03  0.22908170302E+03 -0.10141497615E+04  0.10450031355E+04  0.00000000000E+00 0. -1.
         -1    1    6    6    0  503  0.30278228894E+02  0.54593113879E+02 -0.11688850146E+03  0.13251453128E+03  0.00000000000E+00 0.  1.
<mgrwt>
<rscale>  0 0.18722074E+04</rscale>
<asrwt>0</asrwt>
<pdfrwt beam="1">  1        2 0.53205973E+00 0.18722074E+04</pdfrwt>
<pdfrwt beam="2">  1       -1 0.38981705E-01 0.18722074E+04</pdfrwt>
<totfact> 0.59701307E+00</totfact>
</mgrwt>
</event>
<event>
12    6  0.1540825E-007  0.2007853E+04  0.7818608E-02  0.8602958E-01
          2   -1    0    0  501    0  0.00000000000E+00  0.00000000000E+00  0.78574621289E+03  0.78574621289E+03  0.00000000000E+00 0. -1.
         -1   -1    0    0    0  501 -0.00000000000E+00 -0.00000000000E+00 -0.12826898032E+04  0.12826898032E+04  0.00000000000E+00 0.  1.
         24    2    1    2    0    0 -0.19356685724E+03  0.36367257778E+03 -0.89419570799E+03  0.98827475845E+03  0.85878763129E+02 0.  0.
        254    2    1    2    0    0  0.19356685724E+03 -0.36367257778E+03  0.39725211765E+03  0.10801612577E+04  0.91608581779E+03 0.  0.
         23    2    4    4    0    0  0.70107779058E+02 -0.17240408978E+03 -0.28618943388E+03  0.35409139922E+03  0.94010935963E+02 0.  0.
         23    2    4    4    0    0  0.12345907819E+03 -0.19126848800E+03  0.68344155153E+03  0.72606985845E+03  0.90880726869E+02 0.  0.
          2    1    3    3  502    0 -0.39388325436E+02  0.20358981415E+02 -0.10261395507E+03  0.11178350541E+03  0.00000000000E+00 0. -1.
         -1    1    3    3    0  502 -0.15417853181E+03  0.34331359636E+03 -0.79158175292E+03  0.87649125305E+03  0.00000000000E+00 0.  1.
         11    1    5    5    0    0  0.21334844178E+01  0.11723357664E+02 -0.21349676404E+02  0.24449898839E+02  0.00000000000E+00 0. -1.
        -11    1    5    5    0    0  0.67974294640E+02 -0.18412744745E+03 -0.26483975748E+03  0.32964150038E+03  0.00000000000E+00 0.  1.
          3    1    6    6  503    0  0.27105801032E+02  0.38804353412E+01  0.70034658940E+02  0.75197311660E+02  0.00000000000E+00 0. -1.
         -3    1    6    6    0  503  0.96353277154E+02 -0.19514892334E+03  0.61340689259E+03  0.65087254680E+03  0.00000000000E+00 0.  1.
<mgrwt>
<rscale>  0 0.20078532E+04</rscale>
<asrwt>0</asrwt>
<pdfrwt beam="1">  1        2 0.12088403E+00 0.20078532E+04</pdfrwt>
<pdfrwt beam="2">  1       -1 0.19733689E+00 0.20078532E+04</pdfrwt>
<totfact> 0.58696853E+00</totfact>
</mgrwt>
</event>
<event>
12    6  0.1540825E-007  0.2325430E+04  0.7818608E-02  0.8467962E-01
          2   -1    0    0  501    0  0.00000000000E+00  0.00000000000E+00  0.27088951135E+04  0.27088951135E+04  0.00000000000E+00 0. -1.
         -1   -1    0    0    0  501 -0.00000000000E+00 -0.00000000000E+00 -0.49906165115E+03  0.49906165115E+03  0.00000000000E+00 0.  1.
         24    2    1    2    0    0 -0.25622343003E+03  0.70374850062E+03  0.51852389740E+02  0.75491476376E+03  0.79342498022E+02 0.  0.
        254    2    1    2    0    0  0.25622343003E+03 -0.70374850062E+03  0.21579810726E+04  0.24530420009E+04  0.89421493513E+03 0.  0.
         23    2    4    4    0    0  0.79135062648E+02 -0.88612605368E+03  0.16098132606E+04  0.18418556121E+04  0.97219446046E+02 0.  0.
         23    2    4    4    0    0  0.17708836738E+03  0.18237755305E+03  0.54816781205E+03  0.61118638884E+03  0.91863975571E+02 0.  0.
          2    1    3    3  502    0 -0.53890110052E+02  0.17119707436E+03 -0.20501497773E+02  0.18064576841E+03  0.00000000000E+00 0. -1.
         -1    1    3    3    0  502 -0.20233331997E+03  0.53255142626E+03  0.72353887513E+02  0.57426899535E+03  0.00000000000E+00 0.  1.
         11    1    5    5    0    0  0.79890516621E+02 -0.84858522501E+03  0.14931093732E+04  0.17192600092E+04  0.00000000000E+00 0.  1.
        -11    1    5    5    0    0 -0.75545397377E+00 -0.37540828671E+02  0.11670388740E+03  0.12259560295E+03  0.00000000000E+00 0. -1.
          2    1    6    6  503    0 -0.73657972166E+01  0.26100083292E+02  0.38557241756E+02  0.47139476114E+02  0.00000000000E+00 0. -1.
         -2    1    6    6    0  503  0.18445416460E+03  0.15627746976E+03  0.50961057030E+03  0.56404691272E+03  0.00000000000E+00 0.  1.
<mgrwt>
<rscale>  0 0.23254296E+04</rscale>
<asrwt>0</asrwt>
<pdfrwt beam="1">  1        2 0.41675309E+00 0.23254296E+04</pdfrwt>
<pdfrwt beam="2">  1       -1 0.76778717E-01 0.23254296E+04</pdfrwt>
<totfact> 0.45961593E+00</totfact>
</mgrwt>
</event>
<event>
12    6  0.1540825E-007  0.1049014E+04  0.7818608E-02  0.9256362E-01
         -1   -1    0    0    0  501 -0.00000000000E+00  0.00000000000E+00  0.17819272077E+03  0.17819272077E+03  0.00000000000E+00 0.  1.
          2   -1    0    0  501    0  0.00000000000E+00 -0.00000000000E+00 -0.15438771139E+04  0.15438771139E+04  0.00000000000E+00 0. -1.
         24    2    1    2    0    0  0.23327896423E+01  0.10099899790E+02 -0.32806377908E+03  0.33796581009E+03  0.80545612929E+02 0.  0.
        254    2    1    2    0    0 -0.23327896423E+01 -0.10099899790E+02 -0.10376206141E+04  0.13841040246E+04  0.91595849375E+03 0.  0.
         23    2    4    4    0    0  0.44066925584E+02  0.41551718436E+03 -0.73890258601E+03  0.85381230457E+03  0.91771430165E+02 0.  0.
         23    2    4    4    0    0 -0.46399715226E+02 -0.42561708415E+03 -0.29871802805E+03  0.53029172002E+03  0.93134376822E+02 0.  0.
          2    1    3    3  502    0  0.16545124936E+02  0.20483970780E+02 -0.31486779452E+03  0.31596686890E+03  0.00000000000E+00 0. -1.
         -1    1    3    3    0  502 -0.14212335294E+02 -0.10384070990E+02 -0.13195984558E+02  0.21998941186E+02  0.00000000000E+00 0.  1.
         11    1    5    5    0    0  0.67511723952E+02  0.26065395809E+03 -0.50528967701E+03  0.57255216045E+03  0.00000000000E+00 0.  1.
        -11    1    5    5    0    0 -0.23444798369E+02  0.15486322627E+03 -0.23361290900E+03  0.28126014413E+03  0.00000000000E+00 0. -1.
          4    1    6    6  503    0 -0.57498207101E+02 -0.17091176243E+03 -0.15399718486E+03  0.23713288954E+03  0.00000000000E+00 0.  1.
         -4    1    6    6    0  503  0.11098491874E+02 -0.25470532172E+03 -0.14472084319E+03  0.29315883048E+03  0.00000000000E+00 0. -1.
<mgrwt>
<rscale>  0 0.10490141E+04</rscale>
<asrwt>0</asrwt>
<pdfrwt beam="1">  1        2 0.23751956E+00 0.10490141E+04</pdfrwt>
<pdfrwt beam="2">  1       -1 0.27414264E-01 0.10490141E+04</pdfrwt>
<totfact> 0.16239138E+02</totfact>
</mgrwt>
</event>
<event>
12    6  0.1540825E-007  0.2031278E+04  0.7818608E-02  0.8592135E-01
         -1   -1    0    0    0  501 -0.00000000000E+00  0.00000000000E+00  0.45392615563E+03  0.45392615563E+03  0.00000000000E+00 0.  1.
          2   -1    0    0  501    0  0.00000000000E+00 -0.00000000000E+00 -0.22724447242E+04  0.22724447242E+04  0.00000000000E+00 0. -1.
         24    2    1    2    0    0  0.76047642998E+03  0.15792850161E+03 -0.42693426837E+03  0.88943798980E+03  0.74573829283E+02 0.  0.
        254    2    1    2    0    0 -0.76047642998E+03 -0.15792850161E+03 -0.13915843002E+04  0.18369328900E+04  0.91353695366E+03 0.  0.
         23    2    4    4    0    0  0.20044500779E+03 -0.58476567653E+02 -0.28690069247E+03  0.36668518134E+03  0.92457042823E+02 0.  0.
         23    2    4    4    0    0 -0.96092143777E+03 -0.99451933957E+02 -0.11046836077E+04  0.14702477087E+04  0.89675832598E+02 0.  0.
          2    1    3    3  502    0  0.24184490755E+03  0.78031133938E+02 -0.16455835572E+03  0.30274951628E+03  0.00000000000E+00 0. -1.
         -1    1    3    3    0  502  0.51863152244E+03  0.79897367672E+02 -0.26237591265E+03  0.58668847352E+03  0.00000000000E+00 0.  1.
         11    1    5    5    0    0  0.72685075247E+02 -0.46539637726E+02 -0.18019602348E+03  0.19979906136E+03  0.00000000000E+00 0. -1.
        -11    1    5    5    0    0  0.12775993254E+03 -0.11936929926E+02 -0.10670466899E+03  0.16688611998E+03  0.00000000000E+00 0.  1.
          3    1    6    6  503    0 -0.95963533601E+02  0.14419179362E+02 -0.12857239649E+03  0.16108312653E+03  0.00000000000E+00 0. -1.
         -3    1    6    6    0  503 -0.86495790417E+03 -0.11387111332E+03 -0.97611121122E+03  0.13091645821E+04  0.00000000000E+00 0.  1.
<mgrwt>
<rscale>  0 0.20312775E+04</rscale>
<asrwt>0</asrwt>
<pdfrwt beam="1">  1        2 0.34960688E+00 0.20312775E+04</pdfrwt>
<pdfrwt beam="2">  1       -1 0.69834793E-01 0.20312775E+04</pdfrwt>
<totfact> 0.10279884E+01</totfact>
</mgrwt>
</event>
<event>
12    6  0.1540825E-007  0.1646449E+04  0.7818608E-02  0.8792510E-01
          2   -1    0    0  501    0  0.00000000000E+00  0.00000000000E+00  0.31075355373E+04  0.31075355373E+04  0.00000000000E+00 0. -1.
         -1   -1    0    0    0  501 -0.00000000000E+00 -0.00000000000E+00 -0.21808234419E+03  0.21808234419E+03  0.00000000000E+00 0.  1.
         24    2    1    2    0    0 -0.23354367155E+03 -0.28450126735E+03  0.13014588857E+03  0.39817217210E+03  0.78227288588E+02 0.  0.
        254    2    1    2    0    0  0.23354367155E+03  0.28450126735E+03  0.27593073045E+04  0.29274457094E+04  0.90591277887E+03 0.  0.
         23    2    4    4    0    0  0.26387232555E+03 -0.18521911913E+03  0.40994916076E+03  0.52963294277E+03  0.92293084156E+02 0.  0.
         23    2    4    4    0    0 -0.30328654000E+02  0.46972038648E+03  0.23493581438E+04  0.23978127666E+04  0.92007104578E+02 0.  0.
          2    1    3    3  502    0 -0.33320304930E+02 -0.58374512488E+02  0.55213525455E+02  0.86984825240E+02  0.00000000000E+00 0. -1.
         -1    1    3    3    0  502 -0.20022336662E+03 -0.22612675486E+03  0.74932363115E+02  0.31118734686E+03  0.00000000000E+00 0.  1.
         11    1    5    5    0    0  0.17085037341E+03 -0.64435591455E+02  0.23434986848E+03  0.29708863391E+03  0.00000000000E+00 0.  1.
        -11    1    5    5    0    0  0.93021952136E+02 -0.12078352767E+03  0.17559929228E+03  0.23254430887E+03  0.00000000000E+00 0. -1.
          4    1    6    6  503    0  0.32741632998E+02  0.15299902480E+03  0.79983945883E+03  0.81499931045E+03  0.00000000000E+00 0. -1.
         -4    1    6    6    0  503 -0.63070286998E+02  0.31672136167E+03  0.15495186849E+04  0.15828134562E+04  0.00000000000E+00 0.  1.
<mgrwt>
<rscale>  0 0.16464491E+04</rscale>
<asrwt>0</asrwt>
<pdfrwt beam="1">  1        2 0.47808236E+00 0.16464491E+04</pdfrwt>
<pdfrwt beam="2">  1       -1 0.33551132E-01 0.16464491E+04</pdfrwt>
<totfact> 0.13639609E+01</totfact>
</mgrwt>
</event>
<event>
12    6  0.1540825E-007  0.1862918E+04  0.7818608E-02  0.8673538E-01
          2   -1    0    0  501    0  0.00000000000E+00  0.00000000000E+00  0.12763964841E+04  0.12763964841E+04  0.00000000000E+00 0. -1.
         -1   -1    0    0    0  501 -0.00000000000E+00 -0.00000000000E+00 -0.67973840244E+03  0.67973840244E+03  0.00000000000E+00 0.  1.
         24    2    1    2    0    0 -0.33287703606E+03  0.52640635010E+03  0.58957902225E+03  0.86131930845E+03  0.79729298703E+02 0.  0.
        254    2    1    2    0    0  0.33287703606E+03 -0.52640635010E+03  0.70790594043E+01  0.10948155781E+04  0.90036674215E+03 0.  0.
         23    2    4    4    0    0 -0.29975692518E+03 -0.12128522313E+03 -0.31895494459E+02  0.33685362234E+03  0.88818470891E+02 0.  0.
         23    2    4    4    0    0  0.63263396124E+03 -0.40512112697E+03  0.38974553863E+02  0.75796195575E+03  0.92943284169E+02 0.  0.
          2    1    3    3  502    0 -0.17911839241E+03  0.27525000659E+03  0.36487165156E+03  0.49089437432E+03  0.00000000000E+00 0. -1.
         -1    1    3    3    0  502 -0.15375864365E+03  0.25115634351E+03  0.22470737069E+03  0.37042493413E+03  0.00000000000E+00 0.  1.
         11    1    5    5    0    0 -0.77210833315E+02 -0.52265598565E+02  0.25942540348E+02  0.96779238343E+02  0.00000000000E+00 0. -1.
        -11    1    5    5    0    0 -0.22254609187E+03 -0.69019624561E+02 -0.57838034806E+02  0.24007438399E+03  0.00000000000E+00 0.  1.
          4    1    6    6  503    0  0.25364777929E+03 -0.19733616063E+03  0.52032754320E+02  0.32555516238E+03  0.00000000000E+00 0. -1.
         -4    1    6    6    0  503  0.37898618195E+03 -0.20778496635E+03 -0.13058200457E+02  0.43240679337E+03  0.00000000000E+00 0.  1.
<mgrwt>
<rscale>  0 0.18629178E+04</rscale>
<asrwt>0</asrwt>
<pdfrwt beam="1">  1        2 0.19636869E+00 0.18629178E+04</pdfrwt>
<pdfrwt beam="2">  1       -1 0.10457514E+00 0.18629178E+04</pdfrwt>
<totfact> 0.15707799E+01</totfact>
</mgrwt>
</event>
<event>
12    6  0.1540825E-007  0.1561665E+04  0.7818608E-02  0.8844451E-01
          2   -1    0    0  501    0  0.00000000000E+00  0.00000000000E+00  0.13479084198E+04  0.13479084198E+04  0.00000000000E+00 0. -1.
         -1   -1    0    0    0  501 -0.00000000000E+00 -0.00000000000E+00 -0.45232976616E+03  0.45232976616E+03  0.00000000000E+00 0.  1.
         24    2    1    2    0    0 -0.20251841101E+03 -0.84553530782E+02 -0.23075629558E+03  0.32832422959E+03  0.79908231264E+02 0.  0.
        254    2    1    2    0    0  0.20251841101E+03  0.84553530782E+02  0.11263349492E+04  0.14719139564E+04  0.92181194978E+03 0.  0.
         23    2    4    4    0    0  0.21040038925E+03 -0.21720696664E+03  0.14080622784E+02  0.31580612143E+03  0.89933599058E+02 0.  0.
         23    2    4    4    0    0 -0.78819782403E+01  0.30176049742E+03  0.11122543264E+04  0.11561078349E+04  0.91400853114E+02 0.  0.
          4    1    3    3  502    0 -0.76846511607E+02 -0.73345319031E+02 -0.89332581206E+02  0.13879925156E+03  0.00000000000E+00 0. -1.
         -3    1    3    3    0  502 -0.12567189940E+03 -0.11208211751E+02 -0.14142371437E+03  0.18952497803E+03  0.00000000000E+00 0.  1.
         11    1    5    5    0    0  0.19887564572E+03 -0.20676791363E+03 -0.10090811544E+02  0.28706500491E+03  0.00000000000E+00 0. -1.
        -11    1    5    5    0    0  0.11524743532E+02 -0.10439053013E+02  0.24171434328E+02  0.28741116519E+02  0.00000000000E+00 0.  1.
          2    1    6    6  503    0 -0.19765716826E+01  0.11089928161E+03  0.58305565201E+03  0.59351196352E+03  0.00000000000E+00 0. -1.
         -2    1    6    6    0  503 -0.59054065578E+01  0.19086121582E+03  0.52919867442E+03  0.56259587142E+03  0.00000000000E+00 0.  1.
<mgrwt>
<rscale>  0 0.15616646E+04</rscale>
<asrwt>0</asrwt>
<pdfrwt beam="1">  1        2 0.20737052E+00 0.15616646E+04</pdfrwt>
<pdfrwt beam="2">  1       -1 0.69589195E-01 0.15616646E+04</pdfrwt>
<totfact> 0.35496399E+01</totfact>
</mgrwt>
</event>
<event>
12    6  0.1540825E-007  0.2558907E+04  0.7818608E-02  0.8382295E-01
          2   -1    0    0  501    0  0.00000000000E+00  0.00000000000E+00  0.14361203553E+04  0.14361203553E+04  0.00000000000E+00 0. -1.
         -1   -1    0    0    0  501 -0.00000000000E+00 -0.00000000000E+00 -0.11398774717E+04  0.11398774717E+04  0.00000000000E+00 0.  1.
         24    2    1    2    0    0 -0.10388584134E+04 -0.33905195454E+03 -0.68949725207E+02  0.10978694208E+04  0.79875963179E+02 0.  0.
        254    2    1    2    0    0  0.10388584134E+04  0.33905195454E+03  0.36519260887E+03  0.14781284062E+04  0.92591301570E+03 0.  0.
         23    2    4    4    0    0  0.64691940670E+03 -0.26511069318E+03  0.21100812451E+03  0.73593704714E+03  0.91052239626E+02 0.  0.
         23    2    4    4    0    0  0.39193900673E+03  0.60416264772E+03  0.15418448436E+03  0.74219135907E+03  0.91904670029E+02 0.  0.
          4    1    3    3  502    0 -0.58532349130E+03 -0.15496611003E+03 -0.58201438327E+02  0.60828076753E+03  0.00000000000E+00 0. -1.
         -3    1    3    3    0  502 -0.45353492213E+03 -0.18408584451E+03 -0.10748286879E+02  0.48958865327E+03  0.00000000000E+00 0.  1.
         11    1    5    5    0    0  0.10080207304E+03 -0.35982769270E+02  0.67576752286E+02  0.12657975772E+03  0.00000000000E+00 0.  1.
        -11    1    5    5    0    0  0.54611733365E+03 -0.22912792391E+03  0.14343137223E+03  0.60935728942E+03  0.00000000000E+00 0. -1.
          3    1    6    6  503    0  0.27858396628E+03  0.49258888252E+03  0.10381297643E+03  0.57535203791E+03  0.00000000000E+00 0. -1.
         -3    1    6    6    0  503  0.11335504045E+03  0.11157376520E+03  0.50371507926E+02  0.16683932117E+03  0.00000000000E+00 0.  1.
<mgrwt>
<rscale>  0 0.25589070E+04</rscale>
<asrwt>0</asrwt>
<pdfrwt beam="1">  1        2 0.22094159E+00 0.25589070E+04</pdfrwt>
<pdfrwt beam="2">  1       -1 0.17536577E+00 0.25589070E+04</pdfrwt>
<totfact> 0.31364174E+00</totfact>
</mgrwt>
</event>
<event>
12    6  0.1540825E-007  0.1401243E+04  0.7818608E-02  0.8952919E-01
         -1   -1    0    0    0  501 -0.00000000000E+00  0.00000000000E+00  0.62941464812E+03  0.62941464812E+03  0.00000000000E+00 0.  1.
          2   -1    0    0  501    0  0.00000000000E+00 -0.00000000000E+00 -0.77988411517E+03  0.77988411517E+03  0.00000000000E+00 0. -1.
         24    2    1    2    0    0 -0.16338246050E+03 -0.36756202601E+03 -0.85207941730E+01  0.41014471094E+03  0.79689451130E+02 0.  0.
        254    2    1    2    0    0  0.16338246050E+03  0.36756202601E+03 -0.14194867288E+03  0.99915405234E+03  0.90352848500E+03 0.  0.
         23    2    4    4    0    0  0.24884943471E+03 -0.12126018727E+03 -0.34805769123E+03  0.45376393582E+03  0.90152531043E+02 0.  0.
         23    2    4    4    0    0 -0.85466974219E+02  0.48882221328E+03  0.20610901835E+03  0.54539011652E+03  0.93368580766E+02 0.  0.
          2    1    3    3  502    0 -0.17098296339E+03 -0.36283182313E+03 -0.81115303634E+01  0.40118312847E+03  0.00000000000E+00 0. -1.
         -1    1    3    3    0  502  0.76005028961E+01 -0.47302028792E+01 -0.40926380960E+00  0.89615824729E+01  0.00000000000E+00 0.  1.
         11    1    5    5    0    0  0.23277710289E+03 -0.12782074630E+03 -0.34617387813E+03  0.43630227677E+03  0.00000000000E+00 0. -1.
        -11    1    5    5    0    0  0.16072331821E+02  0.65605590264E+01 -0.18838130945E+01  0.17461659047E+02  0.00000000000E+00 0.  1.
          4    1    6    6  503    0 -0.31622376150E+02  0.31533487484E+03  0.17193676249E+03  0.36055278152E+03  0.00000000000E+00 0. -1.
         -4    1    6    6    0  503 -0.53844598069E+02  0.17348733844E+03  0.34172255857E+02  0.18483733500E+03  0.00000000000E+00 0.  1.
<mgrwt>
<rscale>  0 0.14012430E+04</rscale>
<asrwt>0</asrwt>
<pdfrwt beam="1">  1        2 0.11998217E+00 0.14012430E+04</pdfrwt>
<pdfrwt beam="2">  1       -1 0.96833023E-01 0.14012430E+04</pdfrwt>
<totfact> 0.40622315E+01</totfact>
</mgrwt>
</event>
<event>
12    6  0.1540825E-007  0.1030011E+04  0.7818608E-02  0.9276228E-01
         -1   -1    0    0    0  501 -0.00000000000E+00  0.00000000000E+00  0.69015019924E+03  0.69015019924E+03  0.00000000000E+00 0.  1.
          2   -1    0    0  501    0  0.00000000000E+00 -0.00000000000E+00 -0.38430869174E+03  0.38430869174E+03  0.00000000000E+00 0. -1.
         24    2    1    2    0    0  0.39461518457E+01  0.96639326635E+02  0.30473677236E+02  0.13019478012E+03  0.81653562078E+02 0.  0.
        254    2    1    2    0    0 -0.39461518457E+01 -0.96639326635E+02  0.27536783026E+03  0.94426411086E+03  0.89802702495E+03 0.  0.
         23    2    4    4    0    0 -0.31354889837E+03 -0.24240035383E+03  0.39923651178E+03  0.56949322022E+03  0.88667312618E+02 0.  0.
         23    2    4    4    0    0  0.30960274652E+03  0.14576102720E+03 -0.12386868152E+03  0.37477089064E+03  0.89496550227E+02 0.  0.
          4    1    3    3  502    0 -0.31549957968E+02  0.33337019909E+02 -0.10171780525E+02  0.47012996748E+02  0.00000000000E+00 0. -1.
         -3    1    3    3    0  502  0.35496109814E+02  0.63302306726E+02  0.40645457761E+02  0.83181783374E+02  0.00000000000E+00 0.  1.
         11    1    5    5    0    0 -0.21571889791E+03 -0.20904356576E+03  0.26904271345E+03  0.40325901969E+03  0.00000000000E+00 0.  1.
        -11    1    5    5    0    0 -0.97830000463E+02 -0.33356788070E+02  0.13019379833E+03  0.16623420053E+03  0.00000000000E+00 0. -1.
          4    1    6    6  503    0  0.17559139202E+03  0.10760354702E+03 -0.11326159985E+03  0.23502989232E+03  0.00000000000E+00 0.  1.
         -4    1    6    6    0  503  0.13401135450E+03  0.38157480174E+02 -0.10607081671E+02  0.13974099831E+03  0.00000000000E+00 0. -1.
<mgrwt>
<rscale>  0 0.10300111E+04</rscale>
<asrwt>0</asrwt>
<pdfrwt beam="1">  1        2 0.59124414E-01 0.10300111E+04</pdfrwt>
<pdfrwt beam="2">  1       -1 0.10617695E+00 0.10300111E+04</pdfrwt>
<totfact> 0.78790057E+01</totfact>
</mgrwt>
</event>
<event>
12    6  0.1683914E-007  0.2120596E+04  0.7818608E-02  0.8552224E-01
         -1   -1    0    0    0  501 -0.00000000000E+00  0.00000000000E+00  0.48261124130E+03  0.48261124130E+03  0.00000000000E+00 0.  1.
          2   -1    0    0  501    0  0.00000000000E+00 -0.00000000000E+00 -0.23294780967E+04  0.23294780967E+04  0.00000000000E+00 0. -1.
         24    2    1    2    0    0  0.66983633536E+03 -0.49546059615E+03 -0.10653859621E+04  0.13548423835E+04  0.79929453274E+02 0.  0.
        254    2    1    2    0    0 -0.66983633536E+03  0.49546059615E+03 -0.78148089329E+03  0.14572469544E+04  0.90481731922E+03 0.  0.
         23    2    4    4    0    0 -0.37368291156E+03  0.68019878550E+03 -0.26074000957E+03  0.82385371614E+03  0.91871033635E+02 0.  0.
         23    2    4    4    0    0 -0.29615342380E+03 -0.18473818935E+03 -0.52074088372E+03  0.63339323831E+03  0.90448202437E+02 0.  0.
          2    1    3    3  502    0  0.66270088404E+03 -0.49286762625E+03 -0.10643285325E+04  0.13471771167E+04  0.00000000000E+00 0. -1.
         -1    1    3    3    0  502  0.71354513174E+01 -0.25929698955E+01 -0.10574296264E+01  0.76652668445E+01  0.00000000000E+00 0.  1.
         11    1    5    5    0    0 -0.73464098266E+02  0.10396831290E+03 -0.76366340693E+02  0.14845269217E+03  0.00000000000E+00 0. -1.
        -11    1    5    5    0    0 -0.30021881329E+03  0.57623047259E+03 -0.18437366887E+03  0.67540102396E+03  0.00000000000E+00 0.  1.
          1    1    6    6  503    0 -0.12403390502E+03 -0.99022591905E+02 -0.16456500115E+03  0.22862966322E+03  0.00000000000E+00 0. -1.
         -1    1    6    6    0  503 -0.17211951878E+03 -0.85715597444E+02 -0.35617588257E+03  0.40476357509E+03  0.00000000000E+00 0.  1.
<mgrwt>
<rscale>  0 0.21205964E+04</rscale>
<asrwt>0</asrwt>
<pdfrwt beam="1">  1        2 0.35838124E+00 0.21205964E+04</pdfrwt>
<pdfrwt beam="2">  1       -1 0.74247884E-01 0.21205964E+04</pdfrwt>
<totfact> 0.83406766E+00</totfact>
</mgrwt>
</event>
<event>
12    6  0.1540825E-007  0.1472587E+04  0.7818608E-02  0.8902890E-01
          2   -1    0    0  501    0  0.00000000000E+00  0.00000000000E+00  0.11390552506E+04  0.11390552506E+04  0.00000000000E+00 0. -1.
         -1   -1    0    0    0  501 -0.00000000000E+00 -0.00000000000E+00 -0.47594529545E+03  0.47594529545E+03  0.00000000000E+00 0.  1.
         24    2    1    2    0    0  0.23413608015E+03  0.27398173328E+03  0.51933140486E+03  0.63671030687E+03  0.76218190761E+02 0.  0.
        254    2    1    2    0    0 -0.23413608015E+03 -0.27398173328E+03  0.14377855032E+03  0.97829023922E+03  0.89805001332E+03 0.  0.
         23    2    4    4    0    0 -0.41955142581E+03 -0.49394027775E+03  0.20443318097E+02  0.65456480053E+03  0.89647933368E+02 0.  0.
         23    2    4    4    0    0  0.18541534566E+03  0.21995854447E+03  0.12333523222E+03  0.32372543869E+03  0.82619419367E+02 0.  0.
          2    1    3    3  502    0  0.10380237440E+03  0.15011911352E+03  0.31902086911E+03  0.36753910826E+03  0.00000000000E+00 0. -1.
         -1    1    3    3    0  502  0.13033370575E+03  0.12386261975E+03  0.20031053575E+03  0.26917119861E+03  0.00000000000E+00 0.  1.
         11    1    5    5    0    0 -0.15659732536E+03 -0.17868797370E+03  0.50639515482E+02  0.24293306646E+03  0.00000000000E+00 0.  1.
        -11    1    5    5    0    0 -0.26295410045E+03 -0.31525230405E+03 -0.30196197385E+02  0.41163173406E+03  0.00000000000E+00 0. -1.
          2    1    6    6  503    0  0.83444758302E+01 -0.34096075372E+01 -0.58830617105E+01  0.10764112389E+02  0.00000000000E+00 0. -1.
         -2    1    6    6    0  503  0.17707086983E+03  0.22336815201E+03  0.12921829393E+03  0.31296132630E+03  0.00000000000E+00 0.  1.
<mgrwt>
<rscale>  0 0.14725868E+04</rscale>
<asrwt>0</asrwt>
<pdfrwt beam="1">  1        2 0.17523927E+00 0.14725868E+04</pdfrwt>
<pdfrwt beam="2">  1       -1 0.73222354E-01 0.14725868E+04</pdfrwt>
<totfact> 0.42793776E+01</totfact>
</mgrwt>
</event>
<event>
12    6  0.1540825E-007  0.1674098E+04  0.7818608E-02  0.8776277E-01
          2   -1    0    0  501    0  0.00000000000E+00  0.00000000000E+00  0.18117543152E+04  0.18117543152E+04  0.00000000000E+00 0. -1.
         -1   -1    0    0    0  501 -0.00000000000E+00 -0.00000000000E+00 -0.38672512040E+03  0.38672512040E+03  0.00000000000E+00 0.  1.
         24    2    1    2    0    0 -0.59314569382E+03 -0.59113585851E+02  0.52540515886E+03  0.79849124419E+03  0.78876206617E+02 0.  0.
        254    2    1    2    0    0  0.59314569382E+03  0.59113585851E+02  0.89962403592E+03  0.13999881914E+04  0.89181124679E+03 0.  0.
         23    2    4    4    0    0 -0.16474004110E+03 -0.16817387986E+03  0.10156848839E+03  0.27258025779E+03  0.92531638341E+02 0.  0.
         23    2    4    4    0    0  0.75788573492E+03  0.22728746571E+03  0.79805554753E+03  0.11274079336E+04  0.90031175261E+02 0.  0.
          4    1    3    3  502    0 -0.89133217526E+02 -0.27527136582E+02  0.11270703513E+03  0.14630567139E+03  0.00000000000E+00 0. -1.
         -3    1    3    3    0  502 -0.50401247629E+03 -0.31586449268E+02  0.41269812373E+03  0.65218557280E+03  0.00000000000E+00 0.  1.
         11    1    5    5    0    0 -0.22717446363E+02 -0.37741198583E+02  0.61472673498E+02  0.75626516690E+02  0.00000000000E+00 0.  1.
        -11    1    5    5    0    0 -0.14202259474E+03 -0.13043268128E+03  0.40095814890E+02  0.19695374110E+03  0.00000000000E+00 0. -1.
          1    1    6    6  503    0  0.27304625499E+03  0.11259691765E+03  0.34313687462E+03  0.45274191097E+03  0.00000000000E+00 0. -1.
         -1    1    6    6    0  503  0.48483947993E+03  0.11469054806E+03  0.45491867291E+03  0.67466602262E+03  0.00000000000E+00 0.  1.
<mgrwt>
<rscale>  0 0.16740979E+04</rscale>
<asrwt>0</asrwt>
<pdfrwt beam="1">  1        2 0.27873143E+00 0.16740979E+04</pdfrwt>
<pdfrwt beam="2">  1       -1 0.59496174E-01 0.16740979E+04</pdfrwt>
<totfact> 0.26439110E+01</totfact>
</mgrwt>
</event>
<event>
12    6  0.1540825E-007  0.1712608E+04  0.7818608E-02  0.8754206E-01
          2   -1    0    0  501    0  0.00000000000E+00  0.00000000000E+00  0.11592066146E+04  0.11592066146E+04  0.00000000000E+00 0. -1.
         -1   -1    0    0    0  501 -0.00000000000E+00 -0.00000000000E+00 -0.63255018526E+03  0.63255018526E+03  0.00000000000E+00 0.  1.
         24    2    1    2    0    0  0.49353865803E+03 -0.35303174999E+03  0.85727604628E+02  0.61791691540E+03  0.79121859684E+02 0.  0.
        254    2    1    2    0    0 -0.49353865803E+03  0.35303174999E+03  0.44092882468E+03  0.11738398844E+04  0.90292304343E+03 0.  0.
         23    2    4    4    0    0  0.91188638012E+02  0.61904943628E+02  0.49211593545E+03  0.51246955810E+03  0.91100846869E+02 0.  0.
         23    2    4    4    0    0 -0.58472729604E+03  0.29112680636E+03 -0.51187110771E+02  0.66137032633E+03  0.90165182436E+02 0.  0.
          4    1    3    3  502    0  0.38866623769E+03 -0.30170763727E+03  0.93775692999E+02  0.50088204530E+03  0.00000000000E+00 0. -1.
         -1    1    3    3    0  502  0.10487242033E+03 -0.51324112717E+02 -0.80480883712E+01  0.11703487010E+03  0.00000000000E+00 0.  1.
         11    1    5    5    0    0  0.30672800711E+02 -0.38421332546E+00  0.30085947767E+03  0.30241923488E+03  0.00000000000E+00 0. -1.
        -11    1    5    5    0    0  0.60515837301E+02  0.62289156953E+02  0.19125645778E+03  0.21005032321E+03  0.00000000000E+00 0.  1.
          3    1    6    6  503    0 -0.56423389455E+03  0.26054997875E+03 -0.39461668462E+02  0.62273863094E+03  0.00000000000E+00 0. -1.
         -3    1    6    6    0  503 -0.20493401486E+02  0.30576827607E+02 -0.11725442309E+02  0.38631695385E+02  0.00000000000E+00 0.  1.
<mgrwt>
<rscale>  0 0.17126078E+04</rscale>
<asrwt>0</asrwt>
<pdfrwt beam="1">  1        2 0.17833948E+00 0.17126078E+04</pdfrwt>
<pdfrwt beam="2">  1       -1 0.97315413E-01 0.17126078E+04</pdfrwt>
<totfact> 0.22037080E+01</totfact>
</mgrwt>
</event>
<event>
12    6  0.1540825E-007  0.1052879E+04  0.7818608E-02  0.9252377E-01
          2   -1    0    0  501    0  0.00000000000E+00  0.00000000000E+00  0.10612787798E+04  0.10612787798E+04  0.00000000000E+00 0. -1.
         -1   -1    0    0    0  501 -0.00000000000E+00 -0.00000000000E+00 -0.26113635275E+03  0.26113635275E+03  0.00000000000E+00 0.  1.
         24    2    1    2    0    0  0.67045243850E+02  0.78887243124E+01  0.25616452910E+03  0.27682499824E+03  0.80340008617E+02 0.  0.
        254    2    1    2    0    0 -0.67045243850E+02 -0.78887243124E+01  0.54397789793E+03  0.10455901343E+04  0.89038726339E+03 0.  0.
         23    2    4    4    0    0 -0.28593019737E+02  0.41036925741E+03  0.11135369124E+03  0.43565790896E+03  0.90430530690E+02 0.  0.
         23    2    4    4    0    0 -0.38452224113E+02 -0.41825798172E+03  0.43262420668E+03  0.60993222534E+03  0.91843902841E+02 0.  0.
          2    1    3    3  502    0  0.81124749819E+02 -0.54193355749E+01  0.23211303653E+03  0.24594116361E+03  0.00000000000E+00 0. -1.
         -1    1    3    3    0  502 -0.14079505969E+02  0.13308059887E+02  0.24051492577E+02  0.30883834630E+02  0.00000000000E+00 0.  1.
         11    1    5    5    0    0 -0.61370761110E+02  0.24248698079E+03  0.65489546675E+02  0.25856369988E+03  0.00000000000E+00 0. -1.
        -11    1    5    5    0    0  0.32777741373E+02  0.16788227662E+03  0.45864144569E+02  0.17709420908E+03  0.00000000000E+00 0.  1.
          1    1    6    6  503    0  0.22105582464E+02 -0.42458183056E+02  0.33705722440E+02  0.58544255138E+02  0.00000000000E+00 0. -1.
         -1    1    6    6    0  503 -0.60557806577E+02 -0.37579979866E+03  0.39891848424E+03  0.55138797020E+03  0.00000000000E+00 0.  1.
<mgrwt>
<rscale>  0 0.10528789E+04</rscale>
<asrwt>0</asrwt>
<pdfrwt beam="1">  1        2 0.16327366E+00 0.10528789E+04</pdfrwt>
<pdfrwt beam="2">  1       -1 0.40174824E-01 0.10528789E+04</pdfrwt>
<totfact> 0.15780904E+02</totfact>
</mgrwt>
</event>
<event>
12    6  0.1540825E-007  0.1521657E+04  0.7818608E-02  0.8870178E-01
         -1   -1    0    0    0  501 -0.00000000000E+00  0.00000000000E+00  0.48350143248E+03  0.48350143248E+03  0.00000000000E+00 0.  1.
          2   -1    0    0  501    0  0.00000000000E+00 -0.00000000000E+00 -0.11972242469E+04  0.11972242469E+04  0.00000000000E+00 0. -1.
         24    2    1    2    0    0  0.41970634920E+03 -0.77068348250E+02  0.23617398172E+02  0.43471935815E+03  0.79562484854E+02 0.  0.
        254    2    1    2    0    0 -0.41970634920E+03  0.77068348250E+02 -0.73734021260E+03  0.12460063212E+04  0.90926795478E+03 0.  0.
         23    2    4    4    0    0 -0.40995567738E+03  0.44951048130E+03 -0.51795566790E+03  0.80401639459E+03  0.89671392532E+02 0.  0.
         23    2    4    4    0    0 -0.97506718116E+01 -0.37244213305E+03 -0.21938454470E+03  0.44198992665E+03  0.91745837664E+02 0.  0.
          4    1    3    3  502    0  0.77747296040E+02 -0.45721698195E+02  0.13312145923E+02  0.91171974622E+02  0.00000000000E+00 0. -1.
         -3    1    3    3    0  502  0.34195905316E+03 -0.31346650055E+02  0.10305252250E+02  0.34354738353E+03  0.00000000000E+00 0.  1.
         11    1    5    5    0    0 -0.38880219751E+03  0.44349935930E+03 -0.48123090626E+03  0.76121088775E+03  0.00000000000E+00 0. -1.
        -11    1    5    5    0    0 -0.21153479879E+02  0.60111220070E+01 -0.36724761640E+02  0.42805506845E+02  0.00000000000E+00 0.  1.
          3    1    6    6  503    0  0.36645921917E+02 -0.24821900274E+03 -0.13696162585E+03  0.28585675411E+03  0.00000000000E+00 0. -1.
         -3    1    6    6    0  503 -0.46396593729E+02 -0.12422313031E+03 -0.82422918850E+02  0.15613317254E+03  0.00000000000E+00 0.  1.
<mgrwt>
<rscale>  0 0.15216565E+04</rscale>
<asrwt>0</asrwt>
<pdfrwt beam="1">  1        2 0.18418835E+00 0.15216565E+04</pdfrwt>
<pdfrwt beam="2">  1       -1 0.74384836E-01 0.15216565E+04</pdfrwt>
<totfact> 0.38044950E+01</totfact>
</mgrwt>
</event>
<event>
12    6  0.1540825E-007  0.2749905E+04  0.7818608E-02  0.8318992E-01
         -1   -1    0    0    0  501 -0.00000000000E+00  0.00000000000E+00  0.88080043527E+03  0.88080043527E+03  0.00000000000E+00 0.  1.
          2   -1    0    0  501    0  0.00000000000E+00 -0.00000000000E+00 -0.21463370753E+04  0.21463370753E+04  0.00000000000E+00 0. -1.
         24    2    1    2    0    0  0.10839847039E+04 -0.57330231873E+03 -0.63291046689E+03  0.13822792786E+04  0.80137119673E+02 0.  0.
        254    2    1    2    0    0 -0.10839847039E+04  0.57330231873E+03 -0.63262617312E+03  0.16448582320E+04  0.89534593398E+03 0.  0.
         23    2    4    4    0    0 -0.27837611763E+03  0.29687310631E+03 -0.66790622972E+03  0.78753643140E+03  0.92130315150E+02 0.  0.
         23    2    4    4    0    0 -0.80560858624E+03  0.27642921242E+03  0.35280056607E+02  0.85732180057E+03  0.91310917388E+02 0.  0.
          4    1    3    3  502    0  0.11154412945E+03 -0.79907037579E+02 -0.90556366629E+02  0.16440098237E+03  0.00000000000E+00 0. -1.
         -3    1    3    3    0  502  0.97244057443E+03 -0.49339528115E+03 -0.54235410026E+03  0.12178782962E+04  0.00000000000E+00 0.  1.
         11    1    5    5    0    0 -0.27328986897E+02  0.77368997102E+02 -0.10490064294E+03  0.13318025426E+03  0.00000000000E+00 0.  1.
        -11    1    5    5    0    0 -0.25104713073E+03  0.21950410920E+03 -0.56300558679E+03  0.65435617714E+03  0.00000000000E+00 0. -1.
          1    1    6    6  503    0 -0.25111723526E+03  0.12498340770E+03  0.33703339859E+02  0.28251837668E+03  0.00000000000E+00 0. -1.
         -1    1    6    6    0  503 -0.55449135098E+03  0.15144580473E+03  0.15767167478E+01  0.57480342389E+03  0.00000000000E+00 0.  1.
<mgrwt>
<rscale>  0 0.27499052E+04</rscale>
<asrwt>0</asrwt>
<pdfrwt beam="1">  1        2 0.33020570E+00 0.27499052E+04</pdfrwt>
<pdfrwt beam="2">  1       -1 0.13550776E+00 0.27499052E+04</pdfrwt>
<totfact> 0.25092657E+00</totfact>
</mgrwt>
</event>
<event>
12    6  0.1540825E-007  0.1866649E+04  0.7818608E-02  0.8671638E-01
          2   -1    0    0  501    0  0.00000000000E+00  0.00000000000E+00  0.12823017911E+04  0.12823017911E+04  0.00000000000E+00 0. -1.
         -1   -1    0    0    0  501 -0.00000000000E+00 -0.00000000000E+00 -0.67932109131E+03  0.67932109131E+03  0.00000000000E+00 0.  1.
         24    2    1    2    0    0  0.13916403517E+03  0.67182162372E+03  0.16392745890E+02  0.69014994756E+03  0.72988390992E+02 0.  0.
        254    2    1    2    0    0 -0.13916403517E+03 -0.67182162372E+03  0.58658795390E+03  0.12714729348E+04  0.89545914123E+03 0.  0.
         23    2    4    4    0    0 -0.13378063992E+03  0.19450930207E+03  0.17461845034E+03  0.30773860049E+03  0.92088624829E+02 0.  0.
         23    2    4    4    0    0 -0.53833952448E+01 -0.86633092578E+03  0.41196950356E+03  0.96373433436E+03  0.92231997951E+02 0.  0.
          2    1    3    3  502    0  0.19464017056E+02  0.15776120233E+03  0.31824117695E+02  0.16211174969E+03  0.00000000000E+00 0. -1.
         -1    1    3    3    0  502  0.11970001811E+03  0.51406042139E+03 -0.15431371805E+02  0.52803819787E+03  0.00000000000E+00 0.  1.
         11    1    5    5    0    0 -0.10559675141E+03  0.15747078832E+03  0.17931137843E+03  0.26096032939E+03  0.00000000000E+00 0.  1.
        -11    1    5    5    0    0 -0.28183888508E+02  0.37038513750E+02 -0.46929280951E+01  0.46778271092E+02  0.00000000000E+00 0. -1.
          2    1    6    6  503    0 -0.22498730753E+02 -0.23204593416E+03  0.15028263415E+03  0.27737407697E+03  0.00000000000E+00 0. -1.
         -2    1    6    6    0  503  0.17115335508E+02 -0.63428499162E+03  0.26168686942E+03  0.68636025739E+03  0.00000000000E+00 0.  1.
<mgrwt>
<rscale>  0 0.18666490E+04</rscale>
<asrwt>0</asrwt>
<pdfrwt beam="1">  1        2 0.19727720E+00 0.18666490E+04</pdfrwt>
<pdfrwt beam="2">  1       -1 0.10451094E+00 0.18666490E+04</pdfrwt>
<totfact> 0.15600409E+01</totfact>
</mgrwt>
</event>
<event>
12    6  0.1540825E-007  0.2146365E+04  0.7818608E-02  0.8541090E-01
         -1   -1    0    0    0  501 -0.00000000000E+00  0.00000000000E+00  0.68767920699E+03  0.68767920699E+03  0.00000000000E+00 0.  1.
          2   -1    0    0  501    0  0.00000000000E+00 -0.00000000000E+00 -0.16747934086E+04  0.16747934086E+04  0.00000000000E+00 0. -1.
         24    2    1    2    0    0 -0.34913879167E+03 -0.81084293704E+03 -0.38512685335E+03  0.96692151636E+03  0.85149053148E+02 0.  0.
        254    2    1    2    0    0  0.34913879167E+03  0.81084293704E+03 -0.60198734826E+03  0.13955510992E+04  0.89766916995E+03 0.  0.
         23    2    4    4    0    0  0.28399318124E+02  0.56731267468E+03  0.97222866111E+02  0.58370395493E+03  0.92778387489E+02 0.  0.
         23    2    4    4    0    0  0.32073947355E+03  0.24353026236E+03 -0.69921021438E+03  0.81184714429E+03  0.89554805721E+02 0.  0.
          2    1    3    3  502    0 -0.10341676254E+03 -0.20652747071E+03 -0.13961256178E+03  0.26988940390E+03  0.00000000000E+00 0. -1.
         -1    1    3    3    0  502 -0.24572202913E+03 -0.60431546633E+03 -0.24551429156E+03  0.69703211246E+03  0.00000000000E+00 0.  1.
         11    1    5    5    0    0 -0.20962551461E+02  0.33173729166E+03  0.82933724452E+02  0.34258876499E+03  0.00000000000E+00 0. -1.
        -11    1    5    5    0    0  0.49361869585E+02  0.23557538302E+03  0.14289141658E+02  0.24111518995E+03  0.00000000000E+00 0.  1.
          3    1    6    6  503    0  0.24396222597E+03  0.15525471494E+03 -0.42859602293E+03  0.51702625183E+03  0.00000000000E+00 0. -1.
         -3    1    6    6    0  503  0.76777247573E+02  0.88275547412E+02 -0.27061419144E+03  0.29482089245E+03  0.00000000000E+00 0.  1.
<mgrwt>
<rscale>  0 0.21463649E+04</rscale>
<asrwt>0</asrwt>
<pdfrwt beam="1">  1        2 0.25766052E+00 0.21463649E+04</pdfrwt>
<pdfrwt beam="2">  1       -1 0.10579680E+00 0.21463649E+04</pdfrwt>
<totfact> 0.88584388E+00</totfact>
</mgrwt>
</event>
<event>
12    6  0.1540825E-007  0.1512257E+04  0.7818608E-02  0.8876343E-01
          2   -1    0    0  501    0  0.00000000000E+00  0.00000000000E+00  0.10656398207E+04  0.10656398207E+04  0.00000000000E+00 0. -1.
         -1   -1    0    0    0  501 -0.00000000000E+00 -0.00000000000E+00 -0.53651375280E+03  0.53651375280E+03  0.00000000000E+00 0.  1.
         24    2    1    2    0    0  0.38133859950E+03 -0.30233476792E+03  0.13767645008E+03  0.51209192728E+03  0.80361046037E+02 0.  0.
        254    2    1    2    0    0 -0.38133859950E+03  0.30233476792E+03  0.39144961777E+03  0.10900616462E+04  0.89340704601E+03 0.  0.
         23    2    4    4    0    0 -0.24921144565E+03 -0.28738738287E+03  0.25115483141E+03  0.46303581205E+03  0.81397551697E+02 0.  0.
         23    2    4    4    0    0 -0.13212715384E+03  0.58972215079E+03  0.14029478636E+03  0.62702583413E+03  0.90823838683E+02 0.  0.
          2    1    3    3  502    0  0.53035674580E+02 -0.62523176677E+02 -0.25498460347E+01  0.82027020638E+02  0.00000000000E+00 0. -1.
         -1    1    3    3    0  502  0.32830292492E+03 -0.23981159124E+03  0.14022629612E+03  0.43006490664E+03  0.00000000000E+00 0.  1.
         11    1    5    5    0    0 -0.21458300579E+03 -0.22829859189E+03  0.23760475054E+03  0.39322020664E+03  0.00000000000E+00 0.  1.
        -11    1    5    5    0    0 -0.34628439864E+02 -0.59088790978E+02  0.13550080870E+02  0.69815605406E+02  0.00000000000E+00 0. -1.
          1    1    6    6  503    0  0.73707754914E+01  0.10993543136E+02 -0.51661338416E+01  0.14208281420E+02  0.00000000000E+00 0. -1.
         -1    1    6    6    0  503 -0.13949792934E+03  0.57872860765E+03  0.14546092020E+03  0.61281755271E+03  0.00000000000E+00 0.  1.
<mgrwt>
<rscale>  0 0.15122571E+04</rscale>
<asrwt>0</asrwt>
<pdfrwt beam="1">  1        2 0.16394459E+00 0.15122571E+04</pdfrwt>
<pdfrwt beam="2">  1       -1 0.82540578E-01 0.15122571E+04</pdfrwt>
<totfact> 0.36768145E+01</totfact>
</mgrwt>
</event>
<event>
12    6  0.1540825E-007  0.1768686E+04  0.7818608E-02  0.8723131E-01
          2   -1    0    0  501    0  0.00000000000E+00  0.00000000000E+00  0.24295067238E+04  0.24295067238E+04  0.00000000000E+00 0. -1.
         -1   -1    0    0    0  501 -0.00000000000E+00 -0.00000000000E+00 -0.32190177508E+03  0.32190177508E+03  0.00000000000E+00 0.  1.
         24    2    1    2    0    0  0.59778332911E+03 -0.18416894350E+01  0.11702018365E+04  0.13166739460E+04  0.83124253065E+02 0.  0.
        254    2    1    2    0    0 -0.59778332911E+03  0.18416894350E+01  0.93740311220E+03  0.14347345529E+04  0.90685739900E+03 0.  0.
         23    2    4    4    0    0 -0.34017893607E+03 -0.11402189068E+03  0.10533075139E+04  0.11164325713E+04  0.90786934233E+02 0.  0.
         23    2    4    4    0    0 -0.25760439304E+03  0.11586358012E+03 -0.11590440168E+03  0.31830198156E+03  0.89988491621E+02 0.  0.
          2    1    3    3  502    0  0.26509408143E+03 -0.27832313169E+02  0.58851029854E+03  0.64606027672E+03  0.00000000000E+00 0. -1.
         -1    1    3    3    0  502  0.33268924769E+03  0.25990623734E+02  0.58169153799E+03  0.67061366927E+03  0.00000000000E+00 0.  1.
         11    1    5    5    0    0 -0.22116755456E+03 -0.11699472595E+03  0.74789286935E+03  0.78863590909E+03  0.00000000000E+00 0.  1.
        -11    1    5    5    0    0 -0.11901138151E+03  0.29728352618E+01  0.30541464454E+03  0.32779666224E+03  0.00000000000E+00 0. -1.
          1    1    6    6  503    0 -0.10641162088E+02  0.79897841644E+01 -0.34194044034E+02  0.36692010424E+02  0.00000000000E+00 0. -1.
         -1    1    6    6    0  503 -0.24696323095E+03  0.10787379595E+03 -0.81710357648E+02  0.28160997114E+03  0.00000000000E+00 0.  1.
<mgrwt>
<rscale>  0 0.17686860E+04</rscale>
<asrwt>0</asrwt>
<pdfrwt beam="1">  1        2 0.37377025E+00 0.17686860E+04</pdfrwt>
<pdfrwt beam="2">  1       -1 0.49523351E-01 0.17686860E+04</pdfrwt>
<totfact> 0.16860212E+01</totfact>
</mgrwt>
</event>
<event>
12    6  0.1540825E-007  0.2570996E+04  0.7818608E-02  0.8378121E-01
          2   -1    0    0  501    0  0.00000000000E+00  0.00000000000E+00  0.24168766778E+04  0.24168766778E+04  0.00000000000E+00 0. -1.
         -1   -1    0    0    0  501 -0.00000000000E+00 -0.00000000000E+00 -0.68373560039E+03  0.68373560039E+03  0.00000000000E+00 0.  1.
         24    2    1    2    0    0 -0.94976137616E+03  0.55206000998E+03  0.44289425458E+03  0.11873072141E+04  0.82013253461E+02 0.  0.
        254    2    1    2    0    0  0.94976137616E+03 -0.55206000998E+03  0.12902468228E+04  0.19133050640E+04  0.88835943066E+03 0.  0.
         23    2    4    4    0    0  0.63046065181E+03 -0.65281024804E+03  0.12753451296E+04  0.15677807777E+04  0.88258222643E+02 0.  0.
         23    2    4    4    0    0  0.31930072436E+03  0.10075023806E+03  0.14901693192E+02  0.34552428634E+03  0.84032189929E+02 0.  0.
          4    1    3    3  502    0 -0.46624255803E+03  0.27469481032E+03  0.17412574342E+03  0.56847087547E+03  0.00000000000E+00 0. -1.
         -3    1    3    3    0  502 -0.48351881813E+03  0.27736519966E+03  0.26876851116E+03  0.61883633867E+03  0.00000000000E+00 0.  1.
         11    1    5    5    0    0  0.88382357540E+02 -0.54658851331E+02  0.16532548051E+03  0.19527300289E+03  0.00000000000E+00 0.  1.
        -11    1    5    5    0    0  0.54207829426E+03 -0.59815139671E+03  0.11100196491E+04  0.13725077748E+04  0.00000000000E+00 0. -1.
          4    1    6    6  503    0  0.18911401626E+03  0.99669818154E+02  0.23444701146E+02  0.21505310462E+03  0.00000000000E+00 0. -1.
         -4    1    6    6    0  503  0.13018670810E+03  0.10804199078E+01 -0.85430079540E+01  0.13047118172E+03  0.00000000000E+00 0.  1.
<mgrwt>
<rscale>  0 0.25709956E+04</rscale>
<asrwt>0</asrwt>
<pdfrwt beam="1">  1        2 0.37182718E+00 0.25709956E+04</pdfrwt>
<pdfrwt beam="2">  1       -1 0.10519009E+00 0.25709956E+04</pdfrwt>
<totfact> 0.33230276E+00</totfact>
</mgrwt>
</event>
<event>
12    6  0.1540825E-007  0.1762584E+04  0.7818608E-02  0.8726454E-01
          2   -1    0    0  501    0  0.00000000000E+00  0.00000000000E+00  0.83281278738E+03  0.83281278738E+03  0.00000000000E+00 0. -1.
         -1   -1    0    0    0  501 -0.00000000000E+00 -0.00000000000E+00 -0.93259316337E+03  0.93259316337E+03  0.00000000000E+00 0.  1.
         24    2    1    2    0    0  0.31254206503E+03  0.53137994886E+03 -0.23366867557E+03  0.66405461903E+03  0.79500280810E+02 0.  0.
        254    2    1    2    0    0 -0.31254206503E+03 -0.53137994886E+03  0.13388829958E+03  0.11013513317E+04  0.90277432764E+03 0.  0.
         23    2    4    4    0    0 -0.49067272423E+01 -0.40220060314E+03 -0.32623556892E+03  0.52582949738E+03  0.90981386851E+02 0.  0.
         23    2    4    4    0    0 -0.30763533778E+03 -0.12917934573E+03  0.46012386850E+03  0.57552183433E+03  0.90468795766E+02 0.  0.
          2    1    3    3  502    0  0.48292897761E+02  0.99722381487E+02 -0.74422303044E+02  0.13347447896E+03  0.00000000000E+00 0. -1.
         -1    1    3    3    0  502  0.26424916727E+03  0.43165756738E+03 -0.15924637253E+03  0.53058014007E+03  0.00000000000E+00 0.  1.
         11    1    5    5    0    0  0.10098274752E+02 -0.18690314949E+03 -0.20771550542E+03  0.27960774960E+03  0.00000000000E+00 0.  1.
        -11    1    5    5    0    0 -0.15005001995E+02 -0.21529745364E+03 -0.11852006350E+03  0.24622174779E+03  0.00000000000E+00 0. -1.
          2    1    6    6  503    0 -0.12355265794E+03 -0.93076772987E+02  0.24861312781E+03  0.29280886646E+03  0.00000000000E+00 0.  1.
         -2    1    6    6    0  503 -0.18408267984E+03 -0.36102572740E+02  0.21151074069E+03  0.28271296787E+03  0.00000000000E+00 0. -1.
<mgrwt>
<rscale>  0 0.17625839E+04</rscale>
<asrwt>0</asrwt>
<pdfrwt beam="1">  1        2 0.12812504E+00 0.17625839E+04</pdfrwt>
<pdfrwt beam="2">  1       -1 0.14347587E+00 0.17625839E+04</pdfrwt>
<totfact> 0.13860724E+01</totfact>
</mgrwt>
</event>
<event>
12    6  0.1540825E-007  0.1882942E+04  0.7818608E-02  0.8663394E-01
          2   -1    0    0  501    0  0.00000000000E+00  0.00000000000E+00  0.15608862654E+04  0.15608862654E+04  0.00000000000E+00 0. -1.
         -1   -1    0    0    0  501 -0.00000000000E+00 -0.00000000000E+00 -0.56786152139E+03  0.56786152139E+03  0.00000000000E+00 0.  1.
         24    2    1    2    0    0 -0.35709575466E+03 -0.43712909869E+03  0.89942866978E+03  0.10650507259E+04  0.82230711345E+02 0.  0.
        254    2    1    2    0    0  0.35709575466E+03  0.43712909869E+03  0.93596074248E+02  0.10636970609E+04  0.89671176265E+03 0.  0.
         23    2    4    4    0    0  0.58410843456E+03  0.34093429149E+03  0.28299010155E+03  0.74001487132E+03  0.10059700676E+03 0.  0.
         23    2    4    4    0    0 -0.22701267990E+03  0.96194807199E+02 -0.18939402730E+03  0.32368218955E+03  0.90065889710E+02 0.  0.
          4    1    3    3  502    0 -0.19253805412E+03 -0.20343835701E+03  0.51189137267E+03  0.58351593363E+03  0.00000000000E+00 0. -1.
         -3    1    3    3    0  502 -0.16455770054E+03 -0.23369074168E+03  0.38753729711E+03  0.48153479231E+03  0.00000000000E+00 0.  1.
         11    1    5    5    0    0  0.45826460102E+03  0.31260968921E+03  0.22643652565E+03  0.59917006141E+03  0.00000000000E+00 0.  1.
        -11    1    5    5    0    0  0.12584383354E+03  0.28324602282E+02  0.56553575891E+02  0.14084480992E+03  0.00000000000E+00 0. -1.
          4    1    6    6  503    0 -0.97251850081E+01  0.31972957336E+02 -0.40728416409E+02  0.52684467611E+02  0.00000000000E+00 0. -1.
         -4    1    6    6    0  503 -0.21728749489E+03  0.64221849863E+02 -0.14866561089E+03  0.27099772194E+03  0.00000000000E+00 0.  1.
<mgrwt>
<rscale>  0 0.18829416E+04</rscale>
<asrwt>0</asrwt>
<pdfrwt beam="1">  1        2 0.24013635E+00 0.18829416E+04</pdfrwt>
<pdfrwt beam="2">  1       -1 0.87363311E-01 0.18829416E+04</pdfrwt>
<totfact> 0.16162406E+01</totfact>
</mgrwt>
</event>
<event>
12    6  0.1540825E-007  0.1429011E+04  0.7818608E-02  0.8933083E-01
         -1   -1    0    0    0  501 -0.00000000000E+00  0.00000000000E+00  0.18225772215E+03  0.18225772215E+03  0.00000000000E+00 0.  1.
          2   -1    0    0  501    0  0.00000000000E+00 -0.00000000000E+00 -0.28010776435E+04  0.28010776435E+04  0.00000000000E+00 0. -1.
         24    2    1    2    0    0 -0.14297671229E+03  0.62844086789E+02  0.34354545124E+02  0.17925557272E+03  0.80997568347E+02 0.  0.
        254    2    1    2    0    0  0.14297671229E+03 -0.62844086789E+02 -0.26531744665E+04  0.28040797929E+04  0.89394463816E+03 0.  0.
         23    2    4    4    0    0 -0.36258150094E+03 -0.11178909519E+03 -0.10590124714E+04  0.11284119552E+04  0.88566243244E+02 0.  0.
         23    2    4    4    0    0  0.50555821323E+03  0.48945008402E+02 -0.15941619950E+04  0.16756678377E+04  0.92333715647E+02 0.  0.
          4    1    3    3  502    0 -0.38933518389E+02 -0.18983275176E+02  0.43594216089E+01  0.43533758709E+02  0.00000000000E+00 0. -1.
         -3    1    3    3    0  502 -0.10404319390E+03  0.81827361965E+02  0.29995123515E+02  0.13572181401E+03  0.00000000000E+00 0.  1.
         11    1    5    5    0    0 -0.18983578910E+03 -0.10240151874E+03 -0.62609107554E+03  0.66220369429E+03  0.00000000000E+00 0.  1.
        -11    1    5    5    0    0 -0.17274571185E+03 -0.93875764538E+01 -0.43292139590E+03  0.46620826096E+03  0.00000000000E+00 0. -1.
          2    1    6    6  503    0  0.91856866679E+02 -0.59920844290E+00 -0.41537735409E+03  0.42541319831E+03  0.00000000000E+00 0. -1.
         -2    1    6    6    0  503  0.41370134655E+03  0.49544216845E+02 -0.11787846409E+04  0.12502546394E+04  0.00000000000E+00 0.  1.
<mgrwt>
<rscale>  0 0.14290109E+04</rscale>
<asrwt>0</asrwt>
<pdfrwt beam="1">  1        2 0.43093497E+00 0.14290109E+04</pdfrwt>
<pdfrwt beam="2">  1       -1 0.28039653E-01 0.14290109E+04</pdfrwt>
<totfact> 0.29516050E+01</totfact>
</mgrwt>
</event>
<event>
12    6  0.1540825E-007  0.1426944E+04  0.7818608E-02  0.8934543E-01
          2   -1    0    0  501    0  0.00000000000E+00  0.00000000000E+00  0.63297815120E+03  0.63297815120E+03  0.00000000000E+00 0. -1.
         -1   -1    0    0    0  501 -0.00000000000E+00 -0.00000000000E+00 -0.80420218926E+03  0.80420218926E+03  0.00000000000E+00 0.  1.
         24    2    1    2    0    0  0.10075045156E+03 -0.32471843156E+03  0.19721969165E+03  0.40568080295E+03  0.10044199234E+03 0.  0.
        254    2    1    2    0    0 -0.10075045156E+03  0.32471843156E+03 -0.36844372971E+03  0.10314995375E+04  0.90146980018E+03 0.  0.
         23    2    4    4    0    0  0.21042254985E+03  0.53173871028E+03 -0.22386760593E+03  0.62056939471E+03  0.89252244615E+02 0.  0.
         23    2    4    4    0    0 -0.31117300141E+03 -0.20702027872E+03 -0.14457612378E+03  0.41093014281E+03  0.90968643446E+02 0.  0.
          4    1    3    3  502    0  0.81506782506E+02 -0.31909092394E+03  0.20019830865E+03  0.38541112609E+03  0.00000000000E+00 0. -1.
         -3    1    3    3    0  502  0.19243669054E+02 -0.56275076227E+01 -0.29786169933E+01  0.20269676857E+02  0.00000000000E+00 0.  1.
         11    1    5    5    0    0  0.17959508229E+03  0.50961444918E+03 -0.21543473902E+03  0.58169872543E+03  0.00000000000E+00 0. -1.
        -11    1    5    5    0    0  0.30827467562E+02  0.22124261101E+02 -0.84328669059E+01  0.38870669274E+02  0.00000000000E+00 0.  1.
          2    1    6    6  503    0 -0.18129614090E+03 -0.15013784585E+03 -0.50433148516E+02  0.24073463799E+03  0.00000000000E+00 0.  1.
         -2    1    6    6    0  503 -0.12987686051E+03 -0.56882432868E+02 -0.94142975267E+02  0.17019550481E+03  0.00000000000E+00 0. -1.
<mgrwt>
<rscale>  0 0.14269442E+04</rscale>
<asrwt>0</asrwt>
<pdfrwt beam="1">  1        2 0.97381255E-01 0.14269442E+04</pdfrwt>
<pdfrwt beam="2">  1       -1 0.12372341E+00 0.14269442E+04</pdfrwt>
<totfact> 0.29613479E+01</totfact>
</mgrwt>
</event>
<event>
12    6  0.1540825E-007  0.1156806E+04  0.7818608E-02  0.9151528E-01
          2   -1    0    0  501    0  0.00000000000E+00  0.00000000000E+00  0.17148220850E+04  0.17148220850E+04  0.00000000000E+00 0. -1.
         -1   -1    0    0    0  501 -0.00000000000E+00 -0.00000000000E+00 -0.19509313594E+03  0.19509313594E+03  0.00000000000E+00 0.  1.
         24    2    1    2    0    0 -0.15090810464E+03 -0.15565166019E+03  0.23983307841E+03  0.33324120834E+03  0.80802859325E+02 0.  0.
        254    2    1    2    0    0  0.15090810464E+03  0.15565166019E+03  0.12798958706E+04  0.15766740126E+04  0.89485574642E+03 0.  0.
         23    2    4    4    0    0 -0.29055955773E+03 -0.23827509175E+02  0.13592976734E+03  0.33399796213E+03  0.89917352467E+02 0.  0.
         23    2    4    4    0    0  0.44146766237E+03  0.17947916937E+03  0.11439661033E+04  0.12426760505E+04  0.92080680430E+02 0.  0.
          4    1    3    3  502    0 -0.38290520891E+01 -0.78206011274E+01 -0.62243655529E+01  0.10703558681E+02  0.00000000000E+00 0. -1.
         -3    1    3    3    0  502 -0.14707905255E+03 -0.14783105906E+03  0.24605744396E+03  0.32253764966E+03  0.00000000000E+00 0.  1.
         11    1    5    5    0    0 -0.12293518257E+03 -0.10453541832E+02  0.10711704566E+03  0.16339032138E+03  0.00000000000E+00 0.  1.
        -11    1    5    5    0    0 -0.16762437516E+03 -0.13373967344E+02  0.28812721680E+02  0.17060764075E+03  0.00000000000E+00 0. -1.
          3    1    6    6  503    0  0.42987486592E+03  0.18077217084E+03  0.11374045711E+04  0.12292925350E+04  0.00000000000E+00 0. -1.
         -3    1    6    6    0  503  0.11592796451E+02 -0.12930014740E+01  0.65615321788E+01  0.13383515491E+02  0.00000000000E+00 0.  1.
<mgrwt>
<rscale>  0 0.11568060E+04</rscale>
<asrwt>0</asrwt>
<pdfrwt beam="1">  1        2 0.26381877E+00 0.11568060E+04</pdfrwt>
<pdfrwt beam="2">  1       -1 0.30014330E-01 0.11568060E+04</pdfrwt>
<totfact> 0.11058329E+02</totfact>
</mgrwt>
</event>
<event>
12    6  0.1540825E-007  0.1839001E+04  0.7818608E-02  0.8685830E-01
          2   -1    0    0  501    0  0.00000000000E+00  0.00000000000E+00  0.92575305870E+03  0.92575305870E+03  0.00000000000E+00 0. -1.
         -1   -1    0    0    0  501 -0.00000000000E+00 -0.00000000000E+00 -0.91329021751E+03  0.91329021751E+03  0.00000000000E+00 0.  1.
         24    2    1    2    0    0  0.19544055928E+03 -0.96525369678E+02 -0.65810270142E+03  0.69784880243E+03  0.79872562440E+02 0.  0.
        254    2    1    2    0    0 -0.19544055928E+03  0.96525369678E+02  0.67056554261E+03  0.11411944738E+04  0.89730291477E+03 0.  0.
         23    2    4    4    0    0 -0.23268956954E+03 -0.36810754354E+03  0.35949175006E+03  0.57195183584E+03  0.90812910859E+02 0.  0.
         23    2    4    4    0    0  0.37249010251E+02  0.46463291322E+03  0.31107379255E+03  0.56924263794E+03  0.99995218045E+02 0.  0.
          2    1    3    3  502    0  0.11251333455E+02 -0.15245557091E+01 -0.45643362749E+01  0.12237235809E+02  0.00000000000E+00 0. -1.
         -1    1    3    3    0  502  0.18418922583E+03 -0.95000813969E+02 -0.65353836515E+03  0.68561156662E+03  0.00000000000E+00 0.  1.
         11    1    5    5    0    0 -0.18398362057E+03 -0.29984237599E+03  0.33196494612E+03  0.48369013690E+03  0.00000000000E+00 0.  1.
        -11    1    5    5    0    0 -0.48705948966E+02 -0.68265167549E+02  0.27526803935E+02  0.88261698942E+02  0.00000000000E+00 0. -1.
          1    1    6    6  503    0 -0.31189637966E+02  0.21304313127E+03  0.12558559452E+03  0.24926273458E+03  0.00000000000E+00 0. -1.
         -1    1    6    6    0  503  0.68438648217E+02  0.25158978194E+03  0.18548819803E+03  0.31997990336E+03  0.00000000000E+00 0.  1.
<mgrwt>
<rscale>  0 0.18390010E+04</rscale>
<asrwt>0</asrwt>
<pdfrwt beam="1">  1        2 0.14242355E+00 0.18390010E+04</pdfrwt>
<pdfrwt beam="2">  1       -1 0.14050619E+00 0.18390010E+04</pdfrwt>
<totfact> 0.12564025E+01</totfact>
</mgrwt>
</event>
<event>
12    6  0.1540825E-007  0.2090256E+04  0.7818608E-02  0.8565548E-01
         -1   -1    0    0    0  501 -0.00000000000E+00  0.00000000000E+00  0.54392779604E+03  0.54392779604E+03  0.00000000000E+00 0.  1.
          2   -1    0    0  501    0  0.00000000000E+00 -0.00000000000E+00 -0.20081572327E+04  0.20081572327E+04  0.00000000000E+00 0. -1.
         24    2    1    2    0    0 -0.98871418588E+02  0.43324649629E+03 -0.14794016605E+04  0.15467237573E+04  0.79038119660E+02 0.  0.
        254    2    1    2    0    0  0.98871418588E+02 -0.43324649629E+03  0.15172223920E+02  0.10053612714E+04  0.90168897388E+03 0.  0.
         23    2    4    4    0    0 -0.23394941324E+03 -0.10726802313E+03  0.33654264503E+03  0.43179525016E+03  0.83351241148E+02 0.  0.
         23    2    4    4    0    0  0.33282083183E+03 -0.32597847316E+03 -0.32137042111E+03  0.57356602120E+03  0.93098668364E+02 0.  0.
          2    1    3    3  502    0 -0.80587764253E+02  0.30656116702E+03 -0.11627339454E+04  0.12051657000E+04  0.00000000000E+00 0. -1.
         -1    1    3    3    0  502 -0.18283654335E+02  0.12668532927E+03 -0.31666771518E+03  0.34155805730E+03  0.00000000000E+00 0.  1.
         11    1    5    5    0    0 -0.21927764378E+02 -0.45345991447E+01  0.81787795544E+02  0.84797599848E+02  0.00000000000E+00 0. -1.
        -11    1    5    5    0    0 -0.21202164886E+03 -0.10273342398E+03  0.25475484948E+03  0.34699765032E+03  0.00000000000E+00 0.  1.
          2    1    6    6  503    0  0.28963807003E+03 -0.26876301730E+03 -0.30720261657E+03  0.50049697173E+03  0.00000000000E+00 0.  1.
         -2    1    6    6    0  503  0.43182761803E+02 -0.57215455857E+02 -0.14167804535E+02  0.73069049475E+02  0.00000000000E+00 0. -1.
<mgrwt>
<rscale>  0 0.20902560E+04</rscale>
<asrwt>0</asrwt>
<pdfrwt beam="1">  1        2 0.30894727E+00 0.20902560E+04</pdfrwt>
<pdfrwt beam="2">  1       -1 0.83681198E-01 0.20902560E+04</pdfrwt>
<totfact> 0.98309915E+00</totfact>
</mgrwt>
</event>
<event>
12    6  0.1540825E-007  0.1692786E+04  0.7818608E-02  0.8765490E-01
          2   -1    0    0  501    0  0.00000000000E+00  0.00000000000E+00  0.14797951671E+04  0.14797951671E+04  0.00000000000E+00 0. -1.
         -1   -1    0    0    0  501 -0.00000000000E+00 -0.00000000000E+00 -0.48410810514E+03  0.48410810514E+03  0.00000000000E+00 0.  1.
         24    2    1    2    0    0  0.59486919498E+03 -0.58878594313E+02  0.31783035153E+03  0.68170689962E+03  0.79825538752E+02 0.  0.
        254    2    1    2    0    0 -0.59486919498E+03  0.58878594313E+02  0.67785671046E+03  0.12821963726E+04  0.90950633318E+03 0.  0.
         23    2    4    4    0    0 -0.29598678813E+03 -0.26351993627E+03 -0.67421634233E+02  0.41219485381E+03  0.91148149661E+02 0.  0.
         23    2    4    4    0    0 -0.29888240685E+03  0.32239853058E+03  0.74527834469E+03  0.87000151884E+03  0.90505944910E+02 0.  0.
          4    1    3    3  502    0  0.25079573478E+03  0.11302713951E+02  0.15066286127E+03  0.29278925816E+03  0.00000000000E+00 0. -1.
         -3    1    3    3    0  502  0.34407346020E+03 -0.70181308263E+02  0.16716749025E+03  0.38891764146E+03  0.00000000000E+00 0.  1.
         11    1    5    5    0    0  0.42242196779E+01 -0.14820945174E+02  0.38624602174E+01  0.15887826997E+02  0.00000000000E+00 0. -1.
        -11    1    5    5    0    0 -0.30021100780E+03 -0.24869899109E+03 -0.71284094450E+02  0.39630702681E+03  0.00000000000E+00 0.  1.
          3    1    6    6  503    0 -0.75045364480E+02  0.92635143172E+02  0.13177949263E+03  0.17770456144E+03  0.00000000000E+00 0. -1.
         -3    1    6    6    0  503 -0.22383704237E+03  0.22976338741E+03  0.61349885207E+03  0.69229695739E+03  0.00000000000E+00 0.  1.
<mgrwt>
<rscale>  0 0.16927857E+04</rscale>
<asrwt>0</asrwt>
<pdfrwt beam="1">  1        2 0.22766079E+00 0.16927857E+04</pdfrwt>
<pdfrwt beam="2">  1       -1 0.74478171E-01 0.16927857E+04</pdfrwt>
<totfact> 0.25652183E+01</totfact>
</mgrwt>
</event>
<event>
12    6  0.1540825E-007  0.1730173E+04  0.7818608E-02  0.8744340E-01
          4   -1    0    0  501    0  0.00000000000E+00  0.00000000000E+00  0.47772983356E+03  0.47772983356E+03  0.00000000000E+00 0. -1.
         -3   -1    0    0    0  501 -0.00000000000E+00 -0.00000000000E+00 -0.15665236066E+04  0.15665236066E+04  0.00000000000E+00 0.  1.
         24    2    1    2    0    0 -0.31115859258E+03  0.45505787201E+03 -0.38566221814E+02  0.55989477497E+03  0.89985937532E+02 0.  0.
        254    2    1    2    0    0  0.31115859258E+03 -0.45505787201E+03 -0.10502275513E+04  0.14843586652E+04  0.89243789756E+03 0.  0.
         23    2    4    4    0    0  0.39519826351E+03 -0.13706727990E+03 -0.53640419270E+02  0.43095840885E+03  0.88762316773E+02 0.  0.
         23    2    4    4    0    0 -0.84039670921E+02 -0.31799059211E+03 -0.99658713199E+03  0.10534002564E+04  0.91024752362E+02 0.  0.
          2    1    3    3  502    0 -0.23832785852E+03  0.37590474230E+03  0.15600845316E+01  0.44509209978E+03  0.00000000000E+00 0. -1.
         -1    1    3    3    0  502 -0.72830734068E+02  0.79153129710E+02 -0.40126306346E+02  0.11480267518E+03  0.00000000000E+00 0.  1.
         11    1    5    5    0    0  0.39122068949E+03 -0.12981911850E+03 -0.38862981159E+02  0.41402531652E+03  0.00000000000E+00 0. -1.
        -11    1    5    5    0    0  0.39775740180E+01 -0.72481613998E+01 -0.14777438111E+02  0.16933092331E+02  0.00000000000E+00 0.  1.
          3    1    6    6  503    0 -0.89872910321E+02 -0.18231446215E+03 -0.65478471486E+03  0.68560828899E+03  0.00000000000E+00 0. -1.
         -3    1    6    6    0  503  0.58332394001E+01 -0.13567612996E+03 -0.34180241713E+03  0.36779196739E+03  0.00000000000E+00 0.  1.
<mgrwt>
<rscale>  0 0.17301735E+04</rscale>
<asrwt>0</asrwt>
<pdfrwt beam="1">  1        4 0.73496898E-01 0.17301735E+04</pdfrwt>
<pdfrwt beam="2">  1       -3 0.24100363E+00 0.17301735E+04</pdfrwt>
<totfact> 0.30159761E-01</totfact>
</mgrwt>
</event>
<event>
12    6  0.1540825E-007  0.1349372E+04  0.7818608E-02  0.8991303E-01
         -1   -1    0    0    0  501 -0.00000000000E+00  0.00000000000E+00  0.16362822422E+03  0.16362822422E+03  0.00000000000E+00 0.  1.
          2   -1    0    0  501    0  0.00000000000E+00 -0.00000000000E+00 -0.27819243862E+04  0.27819243862E+04  0.00000000000E+00 0. -1.
         24    2    1    2    0    0 -0.22957993431E+03 -0.31848242102E+01 -0.99528629090E+02  0.26264769197E+03  0.79754452850E+02 0.  0.
        254    2    1    2    0    0  0.22957993431E+03  0.31848242102E+01 -0.25187675329E+04  0.26829049184E+04  0.89502616013E+03 0.  0.
         23    2    4    4    0    0 -0.29086689930E+03  0.17589918084E+03 -0.12256968967E+04  0.12754158869E+04  0.93854819581E+02 0.  0.
         23    2    4    4    0    0  0.52044683360E+03 -0.17271435663E+03 -0.12930706362E+04  0.14074890315E+04  0.91096366708E+02 0.  0.
          4    1    3    3  502    0 -0.48696168421E+02  0.27462092107E+02 -0.46358073165E+01  0.56097896852E+02  0.00000000000E+00 0. -1.
         -3    1    3    3    0  502 -0.18088376588E+03 -0.30646916317E+02 -0.94892821773E+02  0.20654979512E+03  0.00000000000E+00 0.  1.
         11    1    5    5    0    0 -0.81514733438E+02  0.10190593696E+03 -0.46819035074E+03  0.48603670261E+03  0.00000000000E+00 0. -1.
        -11    1    5    5    0    0 -0.20935216586E+03  0.73993243881E+02 -0.75750654592E+03  0.78937918429E+03  0.00000000000E+00 0.  1.
          1    1    6    6  503    0  0.44380650184E+03 -0.17871667911E+03 -0.11349246957E+04  0.12316484593E+04  0.00000000000E+00 0. -1.
         -1    1    6    6    0  503  0.76640331759E+02  0.60023224781E+01 -0.15814594056E+03  0.17584057223E+03  0.00000000000E+00 0.  1.
<mgrwt>
<rscale>  0 0.13493722E+04</rscale>
<asrwt>0</asrwt>
<pdfrwt beam="1">  1        2 0.42798834E+00 0.13493722E+04</pdfrwt>
<pdfrwt beam="2">  1       -1 0.25173575E-01 0.13493722E+04</pdfrwt>
<totfact> 0.36782479E+01</totfact>
</mgrwt>
</event>
<event>
12    6  0.1540825E-007  0.2609396E+04  0.7818608E-02  0.8365017E-01
         -1   -1    0    0    0  501 -0.00000000000E+00  0.00000000000E+00  0.14399923897E+04  0.14399923897E+04  0.00000000000E+00 0.  1.
          2   -1    0    0  501    0  0.00000000000E+00 -0.00000000000E+00 -0.11821153783E+04  0.11821153783E+04  0.00000000000E+00 0. -1.
         24    2    1    2    0    0  0.56192396539E+03  0.59731235159E+02  0.11446799214E+04  0.12790819900E+04  0.80201317537E+02 0.  0.
        254    2    1    2    0    0 -0.56192396539E+03 -0.59731235159E+02 -0.88680290998E+03  0.13430257780E+04  0.83544747042E+03 0.  0.
         23    2    4    4    0    0 -0.49295808833E+03  0.33021461112E+03 -0.49720388412E+03  0.77929106719E+03  0.89629787238E+02 0.  0.
         23    2    4    4    0    0 -0.68965877058E+02 -0.38994584628E+03 -0.38959902586E+03  0.56373471079E+03  0.95892481314E+02 0.  0.
          2    1    3    3  502    0  0.12860155515E+03  0.22692222778E+02  0.34329171100E+03  0.36729075104E+03  0.00000000000E+00 0. -1.
         -1    1    3    3    0  502  0.43332241024E+03  0.37039012381E+02  0.80138821040E+03  0.91179123895E+03  0.00000000000E+00 0.  1.
         11    1    5    5    0    0 -0.34590688316E+03  0.19013066978E+03 -0.35968824236E+03  0.53401954562E+03  0.00000000000E+00 0. -1.
        -11    1    5    5    0    0 -0.14705120517E+03  0.14008394133E+03 -0.13751564176E+03  0.24527152156E+03  0.00000000000E+00 0.  1.
          4    1    6    6  503    0 -0.63971851659E+02 -0.36120510649E+03 -0.31457175590E+03  0.48323588067E+03  0.00000000000E+00 0. -1.
         -4    1    6    6    0  503 -0.49940253988E+01 -0.28740739792E+02 -0.75027269959E+02  0.80498830121E+02  0.00000000000E+00 0.  1.
<mgrwt>
<rscale>  0 0.26093962E+04</rscale>
<asrwt>0</asrwt>
<pdfrwt beam="1">  1        2 0.18186391E+00 0.26093962E+04</pdfrwt>
<pdfrwt beam="2">  1       -1 0.22153729E+00 0.26093962E+04</pdfrwt>
<totfact> 0.21016955E+00</totfact>
</mgrwt>
</event>
<event>
12    6  0.1540825E-007  0.3007710E+04  0.7818608E-02  0.8241533E-01
         -1   -1    0    0    0  501 -0.00000000000E+00  0.00000000000E+00  0.52111234850E+03  0.52111234850E+03  0.00000000000E+00 0.  1.
          2   -1    0    0  501    0  0.00000000000E+00 -0.00000000000E+00 -0.43399083160E+04  0.43399083160E+04  0.00000000000E+00 0. -1.
         24    2    1    2    0    0  0.12136114866E+04  0.37732733484E+03 -0.25645757140E+04  0.28632842800E+04  0.78227344042E+02 0.  0.
        254    2    1    2    0    0 -0.12136114866E+04 -0.37732733484E+03 -0.12542202536E+04  0.19977363845E+04  0.89590929199E+03 0.  0.
         23    2    4    4    0    0 -0.43247423002E+03 -0.72132511308E+02  0.41145782040E+02  0.45203185055E+03  0.10199391998E+03 0.  0.
         23    2    4    4    0    0 -0.78113725662E+03 -0.30519482353E+03 -0.12953660356E+04  0.15457045340E+04  0.88938440271E+02 0.  0.
          4    1    3    3  502    0  0.93235380356E+03  0.28043993049E+03 -0.18902821835E+04  0.21262871168E+04  0.00000000000E+00 0. -1.
         -3    1    3    3    0  502  0.28125768307E+03  0.96887404345E+02 -0.67429353046E+03  0.73699716324E+03  0.00000000000E+00 0.  1.
         11    1    5    5    0    0 -0.61945270488E+02  0.23401940020E+02 -0.60095065895E+01  0.66490461737E+02  0.00000000000E+00 0. -1.
        -11    1    5    5    0    0 -0.37052895953E+03 -0.95534451328E+02  0.47155288630E+02  0.38554138881E+03  0.00000000000E+00 0.  1.
          1    1    6    6  503    0 -0.54872280680E+03 -0.25597566603E+03 -0.94817915463E+03  0.11250173197E+04  0.00000000000E+00 0. -1.
         -1    1    6    6    0  503 -0.23241444981E+03 -0.49219157498E+02 -0.34718688097E+03  0.42068721429E+03  0.00000000000E+00 0.  1.
<mgrwt>
<rscale>  0 0.30077100E+04</rscale>
<asrwt>0</asrwt>
<pdfrwt beam="1">  1        2 0.66767818E+00 0.30077100E+04</pdfrwt>
<pdfrwt beam="2">  1       -1 0.80171133E-01 0.30077100E+04</pdfrwt>
<totfact> 0.26313089E-01</totfact>
</mgrwt>
</event>
<event>
12    6  0.1540825E-007  0.1704714E+04  0.7818608E-02  0.8758680E-01
          2   -1    0    0  501    0  0.00000000000E+00  0.00000000000E+00  0.18476204400E+04  0.18476204400E+04  0.00000000000E+00 0. -1.
         -1   -1    0    0    0  501 -0.00000000000E+00 -0.00000000000E+00 -0.39321515149E+03  0.39321515149E+03  0.00000000000E+00 0.  1.
         24    2    1    2    0    0  0.51374877791E+03 -0.22237429752E+03  0.84625208655E+03  0.10171338988E+04  0.70926998624E+02 0.  0.
        254    2    1    2    0    0 -0.51374877791E+03  0.22237429752E+03  0.60815320201E+03  0.12237016927E+04  0.90233440621E+03 0.  0.
         23    2    4    4    0    0 -0.11015173836E+03  0.89413487961E+02  0.74834426325E+03  0.76715710893E+03  0.91557174222E+02 0.  0.
         23    2    4    4    0    0 -0.40359703955E+03  0.13296080956E+03 -0.14019106124E+03  0.45654458378E+03  0.90610573971E+02 0.  0.
          2    1    3    3  502    0  0.45511687082E+03 -0.20886631426E+03  0.78616512656E+03  0.93210091168E+03  0.00000000000E+00 0. -1.
         -1    1    3    3    0  502  0.58631907087E+02 -0.13507983260E+02  0.60086959990E+02  0.85032987136E+02  0.00000000000E+00 0.  1.
         11    1    5    5    0    0 -0.76960036099E+02  0.59325024816E+01  0.29034592393E+03  0.30043101918E+03  0.00000000000E+00 0. -1.
        -11    1    5    5    0    0 -0.33191702258E+02  0.83480985480E+02  0.45799833932E+03  0.46672608975E+03  0.00000000000E+00 0.  1.
          4    1    6    6  503    0 -0.39403046929E+03  0.12084026092E+03 -0.11654767389E+03  0.42830566150E+03  0.00000000000E+00 0.  1.
         -4    1    6    6    0  503 -0.95665702596E+01  0.12120548645E+02 -0.23643387350E+02  0.28238922277E+02  0.00000000000E+00 0. -1.
<mgrwt>
<rscale>  0 0.17047139E+04</rscale>
<asrwt>0</asrwt>
<pdfrwt beam="1">  1        2 0.28424929E+00 0.17047139E+04</pdfrwt>
<pdfrwt beam="2">  1       -1 0.60494640E-01 0.17047139E+04</pdfrwt>
<totfact> 0.24375513E+01</totfact>
</mgrwt>
</event>
<event>
12    6  0.1540825E-007  0.1559572E+04  0.7818608E-02  0.8845777E-01
         -1   -1    0    0    0  501 -0.00000000000E+00  0.00000000000E+00  0.17550048014E+03  0.17550048014E+03  0.00000000000E+00 0.  1.
          2   -1    0    0  501    0  0.00000000000E+00 -0.00000000000E+00 -0.34647546743E+04  0.34647546743E+04  0.00000000000E+00 0. -1.
         24    2    1    2    0    0  0.16498249078E+03 -0.58445220982E+02 -0.20947803808E+04  0.21035857769E+04  0.79581473735E+02 0.  0.
        254    2    1    2    0    0 -0.16498249078E+03  0.58445220982E+02 -0.11944738134E+04  0.15366693775E+04  0.95076286156E+03 0.  0.
         23    2    4    4    0    0  0.26719009504E+03  0.18928212637E+03 -0.10731926536E+03  0.35594090172E+03  0.89208915179E+02 0.  0.
         23    2    4    4    0    0 -0.43217258583E+03 -0.13083690539E+03 -0.10871545480E+04  0.11807284758E+04  0.91232026100E+02 0.  0.
          4    1    3    3  502    0  0.11727966932E+03 -0.38480512782E+02 -0.10006363962E+04  0.10082204462E+04  0.00000000000E+00 0. -1.
         -3    1    3    3    0  502  0.47702821461E+02 -0.19964708201E+02 -0.10941439846E+04  0.10953653308E+04  0.00000000000E+00 0.  1.
         11    1    5    5    0    0  0.98702210668E+02  0.63145930864E+02 -0.84019072368E+02  0.14418300696E+03  0.00000000000E+00 0. -1.
        -11    1    5    5    0    0  0.16848788437E+03  0.12613619551E+03 -0.23300192988E+02  0.21175789475E+03  0.00000000000E+00 0.  1.
          1    1    6    6  503    0 -0.36407635782E+03 -0.87473484583E+02 -0.81593851229E+03  0.89775211538E+03  0.00000000000E+00 0. -1.
         -1    1    6    6    0  503 -0.68096228004E+02 -0.43363420804E+02 -0.27121603574E+03  0.28297636045E+03  0.00000000000E+00 0.  1.
<mgrwt>
<rscale>  0 0.15595719E+04</rscale>
<asrwt>0</asrwt>
<pdfrwt beam="1">  1        2 0.53303922E+00 0.15595719E+04</pdfrwt>
<pdfrwt beam="2">  1       -1 0.27000072E-01 0.15595719E+04</pdfrwt>
<totfact> 0.11699267E+01</totfact>
</mgrwt>
</event>
<event>
12    6  0.1540825E-007  0.2555010E+04  0.7818608E-02  0.8383646E-01
          2   -1    0    0  501    0  0.00000000000E+00  0.00000000000E+00  0.16231560335E+04  0.16231560335E+04  0.00000000000E+00 0. -1.
         -1   -1    0    0    0  501 -0.00000000000E+00 -0.00000000000E+00 -0.10054601547E+04  0.10054601547E+04  0.00000000000E+00 0.  1.
         24    2    1    2    0    0 -0.20890533790E+03 -0.10152574252E+04  0.69743663537E+03  0.12519085942E+04  0.80425047279E+02 0.  0.
        254    2    1    2    0    0  0.20890533790E+03  0.10152574252E+04 -0.79740756576E+02  0.13767075940E+04  0.90253871467E+03 0.  0.
         23    2    4    4    0    0 -0.56374519054E+02  0.53586413327E+02 -0.32426532556E+03  0.34555681928E+03  0.90619666180E+02 0.  0.
         23    2    4    4    0    0  0.26527985696E+03  0.96167101191E+03  0.24452456898E+03  0.10311507747E+04  0.91077537070E+02 0.  0.
          4    1    3    3  502    0 -0.13195715322E+03 -0.51019818016E+03  0.31761412755E+03  0.61529960779E+03  0.00000000000E+00 0. -1.
         -3    1    3    3    0  502 -0.76948184682E+02 -0.50505924509E+03  0.37982250782E+03  0.63660898644E+03  0.00000000000E+00 0.  1.
         11    1    5    5    0    0  0.10222844950E+02 -0.18562264921E+02 -0.54065974547E+02  0.58070593604E+02  0.00000000000E+00 0.  1.
        -11    1    5    5    0    0 -0.66597364004E+02  0.72148678248E+02 -0.27019935101E+03  0.28748622567E+03  0.00000000000E+00 0. -1.
          3    1    6    6  503    0  0.22961479866E+03  0.75089203616E+03  0.22316394116E+03  0.81631118476E+03  0.00000000000E+00 0. -1.
         -3    1    6    6    0  503  0.35665058299E+02  0.21077897576E+03  0.21360627819E+02  0.21483958999E+03  0.00000000000E+00 0.  1.
<mgrwt>
<rscale>  0 0.25550098E+04</rscale>
<asrwt>0</asrwt>
<pdfrwt beam="1">  1        2 0.24971631E+00 0.25550098E+04</pdfrwt>
<pdfrwt beam="2">  1       -1 0.15468618E+00 0.25550098E+04</pdfrwt>
<totfact> 0.35116889E+00</totfact>
</mgrwt>
</event>
<event>
12    6  0.1540825E-007  0.2083063E+04  0.7818608E-02  0.8568741E-01
          2   -1    0    0  501    0  0.00000000000E+00  0.00000000000E+00  0.12691232088E+04  0.12691232088E+04  0.00000000000E+00 0. -1.
         -1   -1    0    0    0  501 -0.00000000000E+00 -0.00000000000E+00 -0.85475385275E+03  0.85475385275E+03  0.00000000000E+00 0.  1.
         24    2    1    2    0    0 -0.52367344897E+03 -0.20339481055E+03  0.79482274669E+03  0.97651456445E+03  0.78956733839E+02 0.  0.
        254    2    1    2    0    0  0.52367344897E+03  0.20339481055E+03 -0.38045339063E+03  0.11473624971E+04  0.92525271533E+03 0.  0.
         23    2    4    4    0    0  0.67949545120E+03 -0.34626069233E+02 -0.31219426329E+02  0.68775122977E+03  0.95467631139E+02 0.  0.
         23    2    4    4    0    0 -0.15582200223E+03  0.23802087978E+03 -0.34923396430E+03  0.45961126735E+03  0.91343963453E+02 0.  0.
          4    1    3    3  502    0 -0.60007823256E+02 -0.38048498149E+02  0.14313152346E+03  0.15979755965E+03  0.00000000000E+00 0. -1.
         -3    1    3    3    0  502 -0.46366562571E+03 -0.16534631240E+03  0.65169122323E+03  0.81671700480E+03  0.00000000000E+00 0.  1.
         11    1    5    5    0    0  0.27484859976E+02 -0.19937396266E+02 -0.93075382859E+01  0.35207209016E+02  0.00000000000E+00 0. -1.
        -11    1    5    5    0    0  0.65201059122E+03 -0.14688672968E+02 -0.21911888043E+02  0.65254402075E+03  0.00000000000E+00 0.  1.
          2    1    6    6  503    0 -0.93541672665E+01  0.12161218538E+02 -0.70340113425E+02  0.71993938899E+02  0.00000000000E+00 0. -1.
         -2    1    6    6    0  503 -0.14646783496E+03  0.22585966124E+03 -0.27889385088E+03  0.38761732845E+03  0.00000000000E+00 0.  1.
<mgrwt>
<rscale>  0 0.20830631E+04</rscale>
<asrwt>0</asrwt>
<pdfrwt beam="1">  1        2 0.19524972E+00 0.20830631E+04</pdfrwt>
<pdfrwt beam="2">  1       -1 0.13150059E+00 0.20830631E+04</pdfrwt>
<totfact> 0.89313397E+00</totfact>
</mgrwt>
</event>
<event>
12    6  0.1540825E-007  0.1738769E+04  0.7818608E-02  0.8739557E-01
          2   -1    0    0  501    0  0.00000000000E+00  0.00000000000E+00  0.53469671248E+03  0.53469671248E+03  0.00000000000E+00 0. -1.
         -1   -1    0    0    0  501 -0.00000000000E+00 -0.00000000000E+00 -0.14135670342E+04  0.14135670342E+04  0.00000000000E+00 0.  1.
         24    2    1    2    0    0 -0.28752443549E+03 -0.57721575518E+03 -0.30159228847E+03  0.71643430487E+03  0.80447968914E+02 0.  0.
        254    2    1    2    0    0  0.28752443549E+03  0.57721575518E+03 -0.57727803330E+03  0.12318294419E+04  0.87653038571E+03 0.  0.
         23    2    4    4    0    0  0.47861115060E+03  0.15014501336E+02 -0.23427070937E+03  0.54077117810E+03  0.90866017070E+02 0.  0.
         23    2    4    4    0    0 -0.19108671512E+03  0.56220125384E+03 -0.34300732393E+03  0.69105826376E+03  0.85575213298E+02 0.  0.
          2    1    3    3  502    0 -0.26292579754E+03 -0.55962901704E+03 -0.27731788911E+03  0.67765760038E+03  0.00000000000E+00 0. -1.
         -1    1    3    3    0  502 -0.24598637946E+02 -0.17586738134E+02 -0.24274399357E+02  0.38776704491E+02  0.00000000000E+00 0.  1.
         11    1    5    5    0    0  0.39594271481E+03 -0.12316217083E+02 -0.21812496340E+03  0.45221767134E+03  0.00000000000E+00 0. -1.
        -11    1    5    5    0    0  0.82668435796E+02  0.27330718419E+02 -0.16145745972E+02  0.88553506758E+02  0.00000000000E+00 0.  1.
          2    1    6    6  503    0 -0.14010024073E+03  0.35220865587E+03 -0.17582787959E+03  0.41784501668E+03  0.00000000000E+00 0. -1.
         -2    1    6    6    0  503 -0.50986474392E+02  0.20999259797E+03 -0.16717944434E+03  0.27321324709E+03  0.00000000000E+00 0.  1.
<mgrwt>
<rscale>  0 0.17387693E+04</rscale>
<asrwt>0</asrwt>
<pdfrwt beam="1">  1        2 0.82261033E-01 0.17387693E+04</pdfrwt>
<pdfrwt beam="2">  1       -1 0.21747185E+00 0.17387693E+04</pdfrwt>
<totfact> 0.70603053E+00</totfact>
</mgrwt>
</event>
<event>
12    6  0.1540825E-007  0.1318913E+04  0.7818608E-02  0.9014700E-01
         -1   -1    0    0    0  501 -0.00000000000E+00  0.00000000000E+00  0.25311889512E+03  0.25311889512E+03  0.00000000000E+00 0.  1.
          2   -1    0    0  501    0  0.00000000000E+00 -0.00000000000E+00 -0.17180974196E+04  0.17180974196E+04  0.00000000000E+00 0. -1.
         24    2    1    2    0    0 -0.32524290518E+03 -0.10811499164E+03 -0.35936614009E+03  0.50302974691E+03  0.80144275185E+02 0.  0.
        254    2    1    2    0    0  0.32524290518E+03  0.10811499164E+03 -0.11056123844E+04  0.14681865679E+04  0.90317288193E+03 0.  0.
         23    2    4    4    0    0 -0.19824210592E+03 -0.13718789799E+03 -0.72547620974E+03  0.77014175940E+03  0.93178037935E+02 0.  0.
         23    2    4    4    0    0  0.52348501110E+03  0.24530288962E+03 -0.38013617469E+03  0.69804480846E+03  0.92482316209E+02 0.  0.
          2    1    3    3  502    0 -0.49009654200E+02  0.87015299719E+01 -0.32657845543E+02  0.59533164742E+02  0.00000000000E+00 0. -1.
         -1    1    3    3    0  502 -0.27623325098E+03 -0.11681652161E+03 -0.32670829455E+03  0.44349658216E+03  0.00000000000E+00 0.  1.
         11    1    5    5    0    0 -0.68324551343E+02 -0.84400657513E+02 -0.42338855090E+03  0.43709218745E+03  0.00000000000E+00 0. -1.
        -11    1    5    5    0    0 -0.12991755458E+03 -0.52787240474E+02 -0.30208765885E+03  0.33304957194E+03  0.00000000000E+00 0.  1.
          2    1    6    6  503    0  0.36098251511E+03  0.19005754893E+03 -0.31110515520E+03  0.51304645571E+03  0.00000000000E+00 0. -1.
         -2    1    6    6    0  503  0.16250249598E+03  0.55245340696E+02 -0.69031019486E+02  0.18499835275E+03  0.00000000000E+00 0.  1.
<mgrwt>
<rscale>  0 0.13189131E+04</rscale>
<asrwt>0</asrwt>
<pdfrwt beam="1">  1        2 0.26432267E+00 0.13189131E+04</pdfrwt>
<pdfrwt beam="2">  1       -1 0.38941369E-01 0.13189131E+04</pdfrwt>
<totfact> 0.68357569E+01</totfact>
</mgrwt>
</event>
<event>
12    6  0.1540825E-007  0.1830027E+04  0.7818608E-02  0.8690493E-01
          2   -1    0    0  501    0  0.00000000000E+00  0.00000000000E+00  0.13885556177E+04  0.13885556177E+04  0.00000000000E+00 0. -1.
         -1   -1    0    0    0  501 -0.00000000000E+00 -0.00000000000E+00 -0.60296442711E+03  0.60296442711E+03  0.00000000000E+00 0.  1.
         24    2    1    2    0    0 -0.42697328635E+03 -0.19431655830E+03  0.85307687882E+03  0.97698769349E+03  0.81851572766E+02 0.  0.
        254    2    1    2    0    0  0.42697328635E+03  0.19431655830E+03 -0.67485688261E+02  0.10145323513E+04  0.89702645537E+03 0.  0.
         23    2    4    4    0    0 -0.17417049214E+03  0.30058924713E+03  0.10246120270E+03  0.37385891872E+03  0.92644142954E+02 0.  0.
         23    2    4    4    0    0  0.60114377849E+03 -0.10627268883E+03 -0.16994689096E+03  0.64067343258E+03  0.94407492591E+02 0.  0.
          4    1    3    3  502    0 -0.28644382756E+03 -0.15490658216E+03  0.64866764657E+03  0.72582079831E+03  0.00000000000E+00 0. -1.
         -3    1    3    3    0  502 -0.14052945879E+03 -0.39409976137E+02  0.20440923224E+03  0.25116689518E+03  0.00000000000E+00 0.  1.
         11    1    5    5    0    0 -0.11194552357E+03  0.24206135288E+03  0.43886003230E+02  0.27028037310E+03  0.00000000000E+00 0.  1.
        -11    1    5    5    0    0 -0.62224968574E+02  0.58527894254E+02  0.58575199467E+02  0.10357854562E+03  0.00000000000E+00 0. -1.
          2    1    6    6  503    0  0.17961012098E+03  0.52207029273E+01 -0.26351067083E+02  0.18160790190E+03  0.00000000000E+00 0. -1.
         -2    1    6    6    0  503  0.42153365751E+03 -0.11149339176E+03 -0.14359582387E+03  0.45906553068E+03  0.00000000000E+00 0.  1.
<mgrwt>
<rscale>  0 0.18300269E+04</rscale>
<asrwt>0</asrwt>
<pdfrwt beam="1">  1        2 0.21362394E+00 0.18300269E+04</pdfrwt>
<pdfrwt beam="2">  1       -1 0.92763759E-01 0.18300269E+04</pdfrwt>
<totfact> 0.17811556E+01</totfact>
</mgrwt>
</event>
<event>
12    6  0.1540825E-007  0.2240797E+04  0.7818608E-02  0.8501637E-01
          2   -1    0    0  501    0  0.00000000000E+00  0.00000000000E+00  0.19802229665E+04  0.19802229665E+04  0.00000000000E+00 0. -1.
         -1   -1    0    0    0  501 -0.00000000000E+00 -0.00000000000E+00 -0.63391471544E+03  0.63391471544E+03  0.00000000000E+00 0.  1.
         24    2    1    2    0    0 -0.79877536684E+02  0.29073529413E+03  0.16004736301E+04  0.16320017320E+04  0.10491129857E+03 0.  0.
        254    2    1    2    0    0  0.79877536684E+02 -0.29073529413E+03 -0.25416537902E+03  0.98213594994E+03  0.89949071821E+03 0.  0.
         23    2    4    4    0    0  0.34719260673E+03 -0.16593168936E+03  0.19069385526E+03  0.43954997701E+03  0.93616260056E+02 0.  0.
         23    2    4    4    0    0 -0.26731507005E+03 -0.12480360477E+03 -0.44485923428E+03  0.54258597294E+03  0.97296008443E+02 0.  0.
          2    1    3    3  502    0 -0.44264128411E+02  0.24464311969E+03  0.14395538664E+04  0.14608644370E+04  0.00000000000E+00 0. -1.
         -1    1    3    3    0  502 -0.35613408273E+02  0.46092174437E+02  0.16091976370E+03  0.17113729501E+03  0.00000000000E+00 0.  1.
         11    1    5    5    0    0  0.30703486653E+03 -0.12014491413E+03  0.13255753475E+03  0.35535434383E+03  0.00000000000E+00 0. -1.
        -11    1    5    5    0    0  0.40157740201E+02 -0.45786775229E+02  0.58136320506E+02  0.84195633176E+02  0.00000000000E+00 0.  1.
          2    1    6    6  503    0 -0.26072554947E+03 -0.13632674057E+03 -0.43800438351E+03  0.52764631366E+03  0.00000000000E+00 0. -1.
         -2    1    6    6    0  503 -0.65895205764E+01  0.11523135803E+02 -0.68548507725E+01  0.14939659276E+02  0.00000000000E+00 0.  1.
<mgrwt>
<rscale>  0 0.22407967E+04</rscale>
<asrwt>0</asrwt>
<pdfrwt beam="1">  1        2 0.30464968E+00 0.22407967E+04</pdfrwt>
<pdfrwt beam="2">  1       -1 0.97525342E-01 0.22407967E+04</pdfrwt>
<totfact> 0.71700576E+00</totfact>
</mgrwt>
</event>
<event>
12    6  0.1540825E-007  0.1779174E+04  0.7818608E-02  0.8717454E-01
         -1   -1    0    0    0  501 -0.00000000000E+00  0.00000000000E+00  0.43346942472E+03  0.43346942472E+03  0.00000000000E+00 0.  1.
          2   -1    0    0  501    0  0.00000000000E+00 -0.00000000000E+00 -0.18256526302E+04  0.18256526302E+04  0.00000000000E+00 0. -1.
         24    2    1    2    0    0 -0.46074784780E+03 -0.49003792324E+03 -0.49209187161E+03  0.83728407391E+03  0.80401895834E+02 0.  0.
        254    2    1    2    0    0  0.46074784780E+03  0.49003792324E+03 -0.90009133383E+03  0.14218379810E+04  0.87122505097E+03 0.  0.
         23    2    4    4    0    0  0.14167805173E+03 -0.16105134358E+03 -0.57933153724E+03  0.62381955252E+03  0.86692551315E+02 0.  0.
         23    2    4    4    0    0  0.31906979607E+03  0.65108926682E+03 -0.32075979659E+03  0.79801842845E+03  0.90685152609E+02 0.  0.
          2    1    3    3  502    0 -0.26217057091E+03 -0.31932318371E+03 -0.26659831808E+03  0.49170658640E+03  0.00000000000E+00 0. -1.
         -1    1    3    3    0  502 -0.19857727689E+03 -0.17071473953E+03 -0.22549355354E+03  0.34557748751E+03  0.00000000000E+00 0.  1.
         11    1    5    5    0    0 -0.12082276269E+02 -0.86533477284E+01 -0.38353175923E+02  0.41131835969E+02  0.00000000000E+00 0.  1.
        -11    1    5    5    0    0  0.15376032800E+03 -0.15239799586E+03 -0.54097836132E+03  0.58268771656E+03  0.00000000000E+00 0. -1.
          1    1    6    6  503    0  0.24870113498E+03  0.57152108557E+03 -0.28987965352E+03  0.68740004314E+03  0.00000000000E+00 0. -1.
         -1    1    6    6    0  503  0.70368661090E+02  0.79568181255E+02 -0.30880143062E+02  0.11061838531E+03  0.00000000000E+00 0.  1.
<mgrwt>
<rscale>  0 0.17791735E+04</rscale>
<asrwt>0</asrwt>
<pdfrwt beam="1">  1        2 0.28086963E+00 0.17791735E+04</pdfrwt>
<pdfrwt beam="2">  1       -1 0.66687604E-01 0.17791735E+04</pdfrwt>
<totfact> 0.20489243E+01</totfact>
</mgrwt>
</event>
<event>
12    6  0.1540825E-007  0.1320128E+04  0.7818608E-02  0.9013754E-01
          2   -1    0    0  501    0  0.00000000000E+00  0.00000000000E+00  0.11097780648E+04  0.11097780648E+04  0.00000000000E+00 0. -1.
         -1   -1    0    0    0  501 -0.00000000000E+00 -0.00000000000E+00 -0.39258707360E+03  0.39258707360E+03  0.00000000000E+00 0.  1.
         24    2    1    2    0    0 -0.33702192658E+03 -0.60201378093E+02  0.25143257709E+03  0.43732653016E+03  0.10405848468E+03 0.  0.
        254    2    1    2    0    0  0.33702192658E+03  0.60201378093E+02  0.46575841411E+03  0.10650386083E+04  0.89452129758E+03 0.  0.
         23    2    4    4    0    0  0.12909859392E+01  0.13097552559E+03 -0.23208536052E+03  0.28236484952E+03  0.93327588235E+02 0.  0.
         23    2    4    4    0    0  0.33573094064E+03 -0.70774147499E+02  0.69784377463E+03  0.78267375873E+03  0.88701941143E+02 0.  0.
          4    1    3    3  502    0 -0.29578243039E+03 -0.30680639840E+02  0.24671781144E+03  0.38639128648E+03  0.00000000000E+00 0. -1.
         -3    1    3    3    0  502 -0.41239496195E+02 -0.29520738252E+02  0.47147656555E+01  0.50935243678E+02  0.00000000000E+00 0.  1.
         11    1    5    5    0    0 -0.20872754605E+02  0.33704880126E+01 -0.79303590506E+02  0.82073695795E+02  0.00000000000E+00 0. -1.
        -11    1    5    5    0    0  0.22163740544E+02  0.12760503758E+03 -0.15278177001E+03  0.20029115372E+03  0.00000000000E+00 0.  1.
          2    1    6    6  503    0  0.73007960321E+02 -0.29223133267E+02  0.92114273138E+02  0.12111644440E+03  0.00000000000E+00 0. -1.
         -2    1    6    6    0  503  0.26272298032E+03 -0.41551014232E+02  0.60572950149E+03  0.66155731434E+03  0.00000000000E+00 0.  1.
<mgrwt>
<rscale>  0 0.13201281E+04</rscale>
<asrwt>0</asrwt>
<pdfrwt beam="1">  1        2 0.17073509E+00 0.13201281E+04</pdfrwt>
<pdfrwt beam="2">  1       -1 0.60398012E-01 0.13201281E+04</pdfrwt>
<totfact> 0.66670206E+01</totfact>
</mgrwt>
</event>
<event>
12    6  0.1540825E-007  0.2408870E+04  0.7818608E-02  0.8436190E-01
         -1   -1    0    0    0  501 -0.00000000000E+00  0.00000000000E+00  0.42588394612E+03  0.42588394612E+03  0.00000000000E+00 0.  1.
          2   -1    0    0  501    0  0.00000000000E+00 -0.00000000000E+00 -0.34062429826E+04  0.34062429826E+04  0.00000000000E+00 0. -1.
         24    2    1    2    0    0 -0.86136824066E+03  0.47133472617E+03 -0.77470023944E+03  0.12532087350E+04  0.79120176151E+02 0.  0.
        254    2    1    2    0    0  0.86136824066E+03 -0.47133472617E+03 -0.22056587970E+04  0.25789181937E+04  0.90651897446E+03 0.  0.
         23    2    4    4    0    0  0.62277721997E+03  0.16467605573E+03 -0.10301365794E+04  0.12183165907E+04  0.90245630440E+02 0.  0.
         23    2    4    4    0    0  0.23859102069E+03 -0.63601078190E+03 -0.11755222176E+04  0.13606016031E+04  0.89156314220E+02 0.  0.
          2    1    3    3  502    0 -0.54090649645E+03  0.28604494254E+03 -0.52961657884E+03  0.80925599636E+03  0.00000000000E+00 0. -1.
         -1    1    3    3    0  502 -0.32046174421E+03  0.18528978363E+03 -0.24508366060E+03  0.44395273860E+03  0.00000000000E+00 0.  1.
         11    1    5    5    0    0  0.36137450738E+03  0.60120414514E+02 -0.52807375318E+03  0.64270357679E+03  0.00000000000E+00 0.  1.
        -11    1    5    5    0    0  0.26140271260E+03  0.10455564122E+03 -0.50206282625E+03  0.57561301389E+03  0.00000000000E+00 0. -1.
          2    1    6    6  503    0  0.21572023313E+03 -0.46535479381E+03 -0.88345721484E+03  0.10215610376E+04  0.00000000000E+00 0. -1.
         -2    1    6    6    0  503  0.22870787566E+02 -0.17065598809E+03 -0.29206500275E+03  0.33904056546E+03  0.00000000000E+00 0.  1.
<mgrwt>
<rscale>  0 0.24088704E+04</rscale>
<asrwt>0</asrwt>
<pdfrwt beam="1">  1        2 0.52403737E+00 0.24088704E+04</pdfrwt>
<pdfrwt beam="2">  1       -1 0.65520608E-01 0.24088704E+04</pdfrwt>
<totfact> 0.22819569E+00</totfact>
</mgrwt>
</event>
<event>
12    6  0.1540825E-007  0.1366408E+04  0.7818608E-02  0.8978500E-01
          2   -1    0    0  501    0  0.00000000000E+00  0.00000000000E+00  0.51688857276E+03  0.51688857276E+03  0.00000000000E+00 0. -1.
         -1   -1    0    0    0  501 -0.00000000000E+00 -0.00000000000E+00 -0.90303342700E+03  0.90303342700E+03  0.00000000000E+00 0.  1.
         24    2    1    2    0    0 -0.18350157045E+03  0.27850710849E+03 -0.30115022224E+03  0.45331492210E+03  0.59698629855E+02 0.  0.
        254    2    1    2    0    0  0.18350157045E+03 -0.27850710849E+03 -0.84994631997E+02  0.96660707766E+03  0.90325307598E+03 0.  0.
         23    2    4    4    0    0  0.27083636472E+03 -0.55844108039E+03  0.53598136896E+02  0.62937102685E+03  0.89589912590E+02 0.  0.
         23    2    4    4    0    0 -0.87334794271E+02  0.27993397190E+03 -0.13859276889E+03  0.33723605081E+03  0.92356935112E+02 0.  0.
          2    1    3    3  502    0 -0.17844498343E+03  0.27743429571E+03 -0.30291752441E+03  0.44785201478E+03  0.00000000000E+00 0. -1.
         -1    1    3    3    0  502 -0.50565870154E+01  0.10728127868E+01  0.17673021645E+01  0.54629073267E+01  0.00000000000E+00 0.  1.
         11    1    5    5    0    0  0.19638066337E+03 -0.48083551981E+03  0.49514332480E+02  0.52174690337E+03  0.00000000000E+00 0. -1.
        -11    1    5    5    0    0  0.74455701344E+02 -0.77605560580E+02  0.40838044164E+01  0.10762412348E+03  0.00000000000E+00 0.  1.
          2    1    6    6  503    0 -0.58547989294E+02  0.26647517044E+03 -0.13730240020E+03  0.30543220625E+03  0.00000000000E+00 0. -1.
         -2    1    6    6    0  503 -0.28786804977E+02  0.13458801452E+02 -0.12903686917E+01  0.31803844558E+02  0.00000000000E+00 0.  1.
<mgrwt>
<rscale>  0 0.13664079E+04</rscale>
<asrwt>0</asrwt>
<pdfrwt beam="1">  1        2 0.79521319E-01 0.13664079E+04</pdfrwt>
<pdfrwt beam="2">  1       -1 0.13892822E+00 0.13664079E+04</pdfrwt>
<totfact> 0.28264124E+01</totfact>
</mgrwt>
</event>
<event>
12    6  0.1540825E-007  0.1513739E+04  0.7818608E-02  0.8875368E-01
          4   -1    0    0  501    0  0.00000000000E+00  0.00000000000E+00  0.26812795547E+04  0.26812795547E+04  0.00000000000E+00 0. -1.
         -3   -1    0    0    0  501 -0.00000000000E+00 -0.00000000000E+00 -0.21364843655E+03  0.21364843655E+03  0.00000000000E+00 0.  1.
         24    2    1    2    0    0  0.27912901207E+03  0.21400553377E+03  0.14436367100E+04  0.14883783613E+04  0.86439702784E+02 0.  0.
        254    2    1    2    0    0 -0.27912901207E+03 -0.21400553377E+03  0.10239944081E+04  0.14065496299E+04  0.89783402674E+03 0.  0.
         23    2    4    4    0    0 -0.30956167161E+03  0.27817794732E+03  0.28266253031E+03  0.51134039277E+03  0.91430259421E+02 0.  0.
         23    2    4    4    0    0  0.30432659540E+02 -0.49218348108E+03  0.74133187782E+03  0.89520923711E+03  0.93037085684E+02 0.  0.
          2    1    3    3  502    0  0.10168532143E+03  0.11220659759E+03  0.75327549338E+03  0.76834510089E+03  0.00000000000E+00 0. -1.
         -1    1    3    3    0  502  0.17744369064E+03  0.10179893617E+03  0.69036121660E+03  0.72003326044E+03  0.00000000000E+00 0.  1.
         11    1    5    5    0    0 -0.14234009974E+03  0.10040666554E+03  0.70364451181E+02  0.18786526680E+03  0.00000000000E+00 0. -1.
        -11    1    5    5    0    0 -0.16722157187E+03  0.17777128177E+03  0.21229807913E+03  0.32347512597E+03  0.00000000000E+00 0.  1.
          2    1    6    6  503    0 -0.15993085634E+01 -0.55798986928E+02  0.14651573492E+03  0.15678949362E+03  0.00000000000E+00 0.  1.
         -2    1    6    6    0  503  0.32031968103E+02 -0.43638449416E+03  0.59481614290E+03  0.73841974349E+03  0.00000000000E+00 0. -1.
<mgrwt>
<rscale>  0 0.15137387E+04</rscale>
<asrwt>0</asrwt>
<pdfrwt beam="1">  1        4 0.41250452E+00 0.15137387E+04</pdfrwt>
<pdfrwt beam="2">  1       -3 0.32868992E-01 0.15137387E+04</pdfrwt>
<totfact> 0.11367846E-01</totfact>
</mgrwt>
</event>
<event>
12    6  0.1540825E-007  0.2095756E+04  0.7818608E-02  0.8563115E-01
          2   -1    0    0  501    0  0.00000000000E+00  0.00000000000E+00  0.13872239706E+04  0.13872239706E+04  0.00000000000E+00 0. -1.
         -1   -1    0    0    0  501 -0.00000000000E+00 -0.00000000000E+00 -0.79154360805E+03  0.79154360805E+03  0.00000000000E+00 0.  1.
         24    2    1    2    0    0  0.10648465514E+03  0.75521278961E+03  0.62248364949E+03  0.98770601613E+03  0.79949615664E+02 0.  0.
        254    2    1    2    0    0 -0.10648465514E+03 -0.75521278961E+03 -0.26803286976E+02  0.11910615625E+04  0.91445278175E+03 0.  0.
         23    2    4    4    0    0 -0.45160875176E+03 -0.17168873248E+03  0.82420692360E+02  0.49839317534E+03  0.90416266090E+02 0.  0.
         23    2    4    4    0    0  0.34512409661E+03 -0.58352405713E+03 -0.10922397934E+03  0.69266838714E+03  0.90822076440E+02 0.  0.
          2    1    3    3  502    0  0.58245151576E+02  0.46341858555E+03  0.42976620190E+03  0.63470329400E+03  0.00000000000E+00 0. -1.
         -1    1    3    3    0  502  0.48239503565E+02  0.29179420406E+03  0.19271744759E+03  0.35300272213E+03  0.00000000000E+00 0.  1.
         11    1    5    5    0    0 -0.32078244496E+03 -0.11120757842E+03  0.98130930557E+02  0.35340936890E+03  0.00000000000E+00 0. -1.
        -11    1    5    5    0    0 -0.13082630680E+03 -0.60481154065E+02 -0.15710238197E+02  0.14498380644E+03  0.00000000000E+00 0.  1.
          1    1    6    6  503    0  0.10531363187E+03 -0.20902520019E+03 -0.78652302509E+02  0.24691836720E+03  0.00000000000E+00 0. -1.
         -1    1    6    6    0  503  0.23981046475E+03 -0.37449885694E+03 -0.30571676828E+02  0.44575001994E+03  0.00000000000E+00 0.  1.
<mgrwt>
<rscale>  0 0.20957560E+04</rscale>
<asrwt>0</asrwt>
<pdfrwt beam="1">  1        2 0.21341907E+00 0.20957560E+04</pdfrwt>
<pdfrwt beam="2">  1       -1 0.12177594E+00 0.20957560E+04</pdfrwt>
<totfact> 0.92321804E+00</totfact>
</mgrwt>
</event>
<event>
12    6  0.1540825E-007  0.1858160E+04  0.7818608E-02  0.8675968E-01
         -1   -1    0    0    0  501 -0.00000000000E+00  0.00000000000E+00  0.44895868440E+03  0.44895868440E+03  0.00000000000E+00 0.  1.
          2   -1    0    0  501    0  0.00000000000E+00 -0.00000000000E+00 -0.19226490726E+04  0.19226490726E+04  0.00000000000E+00 0. -1.
         24    2    1    2    0    0 -0.55318623150E+03 -0.21626038898E+03 -0.10524425327E+04  0.12110970148E+04  0.79606104557E+02 0.  0.
        254    2    1    2    0    0  0.55318623150E+03  0.21626038898E+03 -0.42124785547E+03  0.11605107423E+04  0.90363259380E+03 0.  0.
         23    2    4    4    0    0 -0.15475116620E+03 -0.23133918696E+02  0.13297052070E+03  0.22564926837E+03  0.93559239566E+02 0.  0.
         23    2    4    4    0    0  0.70793739770E+03  0.23939430768E+03 -0.55421837617E+03  0.93486147388E+03  0.91230330742E+02 0.  0.
          2    1    3    3  502    0 -0.29874260532E+03 -0.12974865940E+03 -0.65210077879E+03  0.72891514222E+03  0.00000000000E+00 0. -1.
         -1    1    3    3    0  502 -0.25444362618E+03 -0.86511729580E+02 -0.40034175394E+03  0.48218187254E+03  0.00000000000E+00 0.  1.
         11    1    5    5    0    0 -0.98549337768E+01  0.21431723801E+02 -0.61149774826E+00  0.23596873402E+02  0.00000000000E+00 0. -1.
        -11    1    5    5    0    0 -0.14489623242E+03 -0.44565642497E+02  0.13358201844E+03  0.20205239497E+03  0.00000000000E+00 0.  1.
          2    1    6    6  503    0  0.45818473845E+03  0.12157904188E+03 -0.31167500065E+03  0.56732356201E+03  0.00000000000E+00 0. -1.
         -2    1    6    6    0  503  0.24975265925E+03  0.11781526580E+03 -0.24254337552E+03  0.36753791188E+03  0.00000000000E+00 0.  1.
<mgrwt>
<rscale>  0 0.18581604E+04</rscale>
<asrwt>0</asrwt>
<pdfrwt beam="1">  1        2 0.29579217E+00 0.18581604E+04</pdfrwt>
<pdfrwt beam="2">  1       -1 0.69070567E-01 0.18581604E+04</pdfrwt>
<totfact> 0.16739773E+01</totfact>
</mgrwt>
</event>
<event>
12    6  0.1540825E-007  0.2760861E+04  0.7818608E-02  0.8315523E-01
         -1   -1    0    0    0  501 -0.00000000000E+00  0.00000000000E+00  0.22967060466E+04  0.22967060466E+04  0.00000000000E+00 0.  1.
          2   -1    0    0  501    0  0.00000000000E+00 -0.00000000000E+00 -0.82970497447E+03  0.82970497447E+03  0.00000000000E+00 0. -1.
         24    2    1    2    0    0  0.95269141185E+03  0.57840059428E+03  0.68505324639E+02  0.11195886649E+04  0.81348787948E+02 0.  0.
        254    2    1    2    0    0 -0.95269141185E+03 -0.57840059428E+03  0.13984957475E+04  0.20068223562E+04  0.91070161961E+03 0.  0.
         23    2    4    4    0    0 -0.87990478534E+03 -0.34019417469E+03  0.50368791267E+03  0.10735277286E+04  0.93785728511E+02 0.  0.
         23    2    4    4    0    0 -0.72786626505E+02 -0.23820641959E+03  0.89480783480E+03  0.93329462763E+03  0.91200928775E+02 0.  0.
          4    1    3    3  502    0  0.73341525589E+03  0.46131005102E+03  0.22101633601E+02  0.86671412989E+03  0.00000000000E+00 0. -1.
         -3    1    3    3    0  502  0.21927615596E+03  0.11709054326E+03  0.46403691038E+02  0.25287453496E+03  0.00000000000E+00 0.  1.
         11    1    5    5    0    0 -0.78464621184E+02 -0.60617608771E+02  0.48647049502E+02  0.11044331893E+03  0.00000000000E+00 0. -1.
        -11    1    5    5    0    0 -0.80144016416E+03 -0.27957656592E+03  0.45504086317E+03  0.96308440964E+03  0.00000000000E+00 0.  1.
          4    1    6    6  503    0 -0.37661837795E+01  0.18832502043E+01 -0.60366693311E-01  0.42112249679E+01  0.00000000000E+00 0. -1.
         -4    1    6    6    0  503 -0.69020442725E+02 -0.24008966980E+03  0.89486820149E+03  0.92908340266E+03  0.00000000000E+00 0.  1.
<mgrwt>
<rscale>  0 0.27608610E+04</rscale>
<asrwt>0</asrwt>
<pdfrwt beam="1">  1        2 0.12764692E+00 0.27608610E+04</pdfrwt>
<pdfrwt beam="2">  1       -1 0.35333939E+00 0.27608610E+04</pdfrwt>
<totfact> 0.48195492E-01</totfact>
</mgrwt>
</event>
<event>
12    6  0.1540825E-007  0.1690270E+04  0.7818608E-02  0.8766933E-01
         -1   -1    0    0    0  501 -0.00000000000E+00  0.00000000000E+00  0.34646132045E+03  0.34646132045E+03  0.00000000000E+00 0.  1.
          2   -1    0    0  501    0  0.00000000000E+00 -0.00000000000E+00 -0.20615676972E+04  0.20615676972E+04  0.00000000000E+00 0. -1.
         24    2    1    2    0    0 -0.18663635854E+03 -0.57470939618E+03 -0.60031461062E+03  0.85544977965E+03  0.79326372622E+02 0.  0.
        254    2    1    2    0    0  0.18663635854E+03  0.57470939618E+03 -0.11147917661E+04  0.15525792380E+04  0.89588927221E+03 0.  0.
         23    2    4    4    0    0 -0.51110340837E+01  0.17915176264E+02  0.13728642045E+03  0.16590840480E+03  0.91274100024E+02 0.  0.
         23    2    4    4    0    0  0.19174739262E+03  0.55679421991E+03 -0.12520781866E+04  0.13866708332E+04  0.91484143005E+02 0.  0.
          2    1    3    3  502    0 -0.17693795687E+03 -0.49894733223E+03 -0.55327180508E+03  0.76574484733E+03  0.00000000000E+00 0. -1.
         -1    1    3    3    0  502 -0.96984016668E+01 -0.75762063949E+02 -0.47042805540E+02  0.89704932316E+02  0.00000000000E+00 0.  1.
         11    1    5    5    0    0  0.29234361419E+02 -0.22961614971E+02  0.76162043832E+02  0.84749870621E+02  0.00000000000E+00 0.  1.
        -11    1    5    5    0    0 -0.34345395503E+02  0.40876791235E+02  0.61124376616E+02  0.81158534183E+02  0.00000000000E+00 0. -1.
          2    1    6    6  503    0  0.16330531972E+03  0.33931561026E+03 -0.79994562612E+03  0.88414745126E+03  0.00000000000E+00 0. -1.
         -2    1    6    6    0  503  0.28442072899E+02  0.21747860965E+03 -0.45213256048E+03  0.50252338196E+03  0.00000000000E+00 0.  1.
<mgrwt>
<rscale>  0 0.16902704E+04</rscale>
<asrwt>0</asrwt>
<pdfrwt beam="1">  1        2 0.31716426E+00 0.16902704E+04</pdfrwt>
<pdfrwt beam="2">  1       -1 0.53301741E-01 0.16902704E+04</pdfrwt>
<totfact> 0.23777700E+01</totfact>
</mgrwt>
</event>
<event>
12    6  0.1540825E-007  0.2143339E+04  0.7818608E-02  0.8542389E-01
          2   -1    0    0  501    0  0.00000000000E+00  0.00000000000E+00  0.22675510931E+04  0.22675510931E+04  0.00000000000E+00 0. -1.
         -1   -1    0    0    0  501 -0.00000000000E+00 -0.00000000000E+00 -0.50648286538E+03  0.50648286538E+03  0.00000000000E+00 0.  1.
         24    2    1    2    0    0 -0.35998613855E+03 -0.70369477157E+03  0.18023633354E+03  0.81464876822E+03  0.79944531649E+02 0.  0.
        254    2    1    2    0    0  0.35998613855E+03  0.70369477157E+03  0.15808318942E+04  0.19593851903E+04  0.84580405219E+03 0.  0.
         23    2    4    4    0    0  0.44768667664E+03  0.37263704624E+03  0.14768735291E+04  0.15900752659E+04  0.88894327452E+02 0.  0.
         23    2    4    4    0    0 -0.87700538086E+02  0.33105772533E+03  0.10395836507E+03  0.36930992440E+03  0.91059742551E+02 0.  0.
          2    1    3    3  502    0 -0.32665228626E+02 -0.51884600254E+02 -0.67509954645E+01  0.61681478942E+02  0.00000000000E+00 0. -1.
         -1    1    3    3    0  502 -0.32732090992E+03 -0.65181017132E+03  0.18698732901E+03  0.75296728928E+03  0.00000000000E+00 0.  1.
         11    1    5    5    0    0  0.63877826967E+02  0.94961175009E+02  0.32665838102E+03  0.34612671008E+03  0.00000000000E+00 0. -1.
        -11    1    5    5    0    0  0.38380884967E+03  0.27767587123E+03  0.11502151481E+04  0.12439485558E+04  0.00000000000E+00 0.  1.
          4    1    6    6  503    0 -0.14739436258E+02  0.38596303648E+02  0.46952718993E+02  0.62541853645E+02  0.00000000000E+00 0. -1.
         -4    1    6    6    0  503 -0.72961101828E+02  0.29246142168E+03  0.57005646078E+02  0.30676807076E+03  0.00000000000E+00 0.  1.
<mgrwt>
<rscale>  0 0.21433392E+04</rscale>
<asrwt>0</asrwt>
<pdfrwt beam="1">  1        2 0.34885401E+00 0.21433392E+04</pdfrwt>
<pdfrwt beam="2">  1       -1 0.77920442E-01 0.21433392E+04</pdfrwt>
<totfact> 0.81548152E+00</totfact>
</mgrwt>
</event>
<event>
12    6  0.1540825E-007  0.1598817E+04  0.7818608E-02  0.8821275E-01
          2   -1    0    0  501    0  0.00000000000E+00  0.00000000000E+00  0.35919629125E+04  0.35919629125E+04  0.00000000000E+00 0. -1.
         -1   -1    0    0    0  501 -0.00000000000E+00 -0.00000000000E+00 -0.17791222728E+03  0.17791222728E+03  0.00000000000E+00 0.  1.
         24    2    1    2    0    0 -0.50560574157E+03 -0.13234794708E+03  0.14766326210E+04  0.15684380981E+04  0.80006406366E+02 0.  0.
        254    2    1    2    0    0  0.50560574157E+03  0.13234794708E+03  0.19374180642E+04  0.22014370417E+04  0.90530831657E+03 0.  0.
         23    2    4    4    0    0 -0.14789569595E+03 -0.21746036984E+03  0.35187247533E+03  0.44879758887E+03  0.91885186797E+02 0.  0.
         23    2    4    4    0    0  0.65350143751E+03  0.34980831692E+03  0.15855455889E+04  0.17526394528E+04  0.91434401575E+02 0.  0.
          4    1    3    3  502    0 -0.48584483598E+03 -0.10860181243E+03  0.13896234386E+04  0.14761073333E+04  0.00000000000E+00 0. -1.
         -3    1    3    3    0  502 -0.19760905586E+02 -0.23746134651E+02  0.87009182433E+02  0.92330764797E+02  0.00000000000E+00 0.  1.
         11    1    5    5    0    0 -0.11700299522E+03 -0.21391941069E+03  0.28513011023E+03  0.37516715598E+03  0.00000000000E+00 0. -1.
        -11    1    5    5    0    0 -0.30892700723E+02 -0.35409591467E+01  0.66742365099E+02  0.73630432898E+02  0.00000000000E+00 0.  1.
          2    1    6    6  503    0  0.48106756344E+03  0.27382948850E+03  0.10905448249E+04  0.12229867556E+04  0.00000000000E+00 0. -1.
         -2    1    6    6    0  503  0.17243387408E+03  0.75978828414E+02  0.49500076401E+03  0.52965269722E+03  0.00000000000E+00 0.  1.
<mgrwt>
<rscale>  0 0.15988172E+04</rscale>
<asrwt>0</asrwt>
<pdfrwt beam="1">  1        2 0.55260962E+00 0.15988172E+04</pdfrwt>
<pdfrwt beam="2">  1       -1 0.27371115E-01 0.15988172E+04</pdfrwt>
<totfact> 0.92728620E+00</totfact>
</mgrwt>
</event>
<event>
12    6  0.1540825E-007  0.2175438E+04  0.7818608E-02  0.8528722E-01
         -1   -1    0    0    0  501 -0.00000000000E+00  0.00000000000E+00  0.82956409769E+03  0.82956409769E+03  0.00000000000E+00 0.  1.
          2   -1    0    0  501    0  0.00000000000E+00 -0.00000000000E+00 -0.14262095783E+04  0.14262095783E+04  0.00000000000E+00 0. -1.
         24    2    1    2    0    0  0.25120201006E+03 -0.22613109886E+02  0.65033600736E+03  0.70205939433E+03  0.79603191564E+02 0.  0.
        254    2    1    2    0    0 -0.25120201006E+03  0.22613109886E+02 -0.12469814880E+04  0.15537142817E+04  0.89188084131E+03 0.  0.
         23    2    4    4    0    0 -0.25260579867E+03  0.37728493513E+03 -0.34080523824E+03  0.57697404747E+03  0.10294284457E+03 0.  0.
         23    2    4    4    0    0  0.14037886171E+01 -0.35467182524E+03 -0.90617624975E+03  0.97674023420E+03  0.84095274841E+02 0.  0.
          4    1    3    3  502    0  0.15624152783E+03  0.22088772807E+02  0.35042641915E+03  0.38431498038E+03  0.00000000000E+00 0. -1.
         -3    1    3    3    0  502  0.94960482227E+02 -0.44701882693E+02  0.29990958821E+03  0.31774441395E+03  0.00000000000E+00 0.  1.
         11    1    5    5    0    0 -0.18572659157E+03  0.32083656487E+03 -0.31290120910E+03  0.48511610448E+03  0.00000000000E+00 0. -1.
        -11    1    5    5    0    0 -0.66879207107E+02  0.56448370266E+02 -0.27904029137E+02  0.91857942994E+02  0.00000000000E+00 0.  1.
          4    1    6    6  503    0 -0.34482361334E+02 -0.18149337371E+03 -0.40123080590E+03  0.44171827849E+03  0.00000000000E+00 0. -1.
         -4    1    6    6    0  503  0.35886149951E+02 -0.17317845154E+03 -0.50494544385E+03  0.53502195572E+03  0.00000000000E+00 0.  1.
<mgrwt>
<rscale>  0 0.21754377E+04</rscale>
<asrwt>0</asrwt>
<pdfrwt beam="1">  1        2 0.21941686E+00 0.21754377E+04</pdfrwt>
<pdfrwt beam="2">  1       -1 0.12762525E+00 0.21754377E+04</pdfrwt>
<totfact> 0.77510612E+00</totfact>
</mgrwt>
</event>
<event>
12    6  0.1540825E-007  0.1858106E+04  0.7818608E-02  0.8675995E-01
          2   -1    0    0  501    0  0.00000000000E+00  0.00000000000E+00  0.72037933278E+03  0.72037933278E+03  0.00000000000E+00 0. -1.
         -1   -1    0    0    0  501 -0.00000000000E+00 -0.00000000000E+00 -0.11981733538E+04  0.11981733538E+04  0.00000000000E+00 0.  1.
         24    2    1    2    0    0  0.72595396834E+02 -0.59675807015E+03 -0.56320426954E+03  0.82774839612E+03  0.81105315001E+02 0.  0.
        254    2    1    2    0    0 -0.72595396834E+02  0.59675807015E+03  0.85410248514E+02  0.10908042905E+04  0.90618364784E+03 0.  0.
         23    2    4    4    0    0  0.47632753786E+02  0.66273159892E+03 -0.25098527528E+03  0.71604621960E+03  0.90810400068E+02 0.  0.
         23    2    4    4    0    0 -0.12022815062E+03 -0.65973528773E+02  0.33639552379E+03  0.37475807086E+03  0.92056224917E+02 0.  0.
          4    1    3    3  502    0  0.23852316696E+02 -0.50161739414E+02 -0.32564928517E+02  0.64386393610E+02  0.00000000000E+00 0. -1.
         -3    1    3    3    0  502  0.48743080138E+02 -0.54659633074E+03 -0.53063934102E+03  0.76336200251E+03  0.00000000000E+00 0.  1.
         11    1    5    5    0    0  0.41836187842E+02  0.60632684250E+03 -0.25523160491E+03  0.65918561779E+03  0.00000000000E+00 0. -1.
        -11    1    5    5    0    0  0.57965659441E+01  0.56404756420E+02  0.42463296361E+01  0.56860601816E+02  0.00000000000E+00 0.  1.
          4    1    6    6  503    0 -0.11826319815E+03 -0.46497335190E+02  0.33084662831E+03  0.35441173468E+03  0.00000000000E+00 0. -1.
         -4    1    6    6    0  503 -0.19649524700E+01 -0.19476193582E+02  0.55488954801E+01  0.20346336174E+02  0.00000000000E+00 0.  1.
<mgrwt>
<rscale>  0 0.18581058E+04</rscale>
<asrwt>0</asrwt>
<pdfrwt beam="1">  1        2 0.11082759E+00 0.18581058E+04</pdfrwt>
<pdfrwt beam="2">  1       -1 0.18433436E+00 0.18581058E+04</pdfrwt>
<totfact> 0.82110196E+00</totfact>
</mgrwt>
</event>
<event>
12    6  0.1675744E-007  0.1560071E+04  0.7818608E-02  0.8845460E-01
          2   -1    0    0  501    0  0.00000000000E+00  0.00000000000E+00  0.26376773107E+04  0.26376773107E+04  0.00000000000E+00 0. -1.
         -3   -1    0    0    0  501 -0.00000000000E+00 -0.00000000000E+00 -0.23067847250E+03  0.23067847250E+03  0.00000000000E+00 0.  1.
         24    2    1    2    0    0 -0.20392395729E+03  0.39991588886E+02  0.16424222081E+04  0.16575275889E+04  0.81625306547E+02 0.  0.
        254    2    1    2    0    0  0.20392395729E+03 -0.39991588886E+02  0.76457663009E+03  0.12108281943E+04  0.91561082637E+03 0.  0.
         23    2    4    4    0    0  0.24680565111E+03  0.95004609534E+02  0.93250229778E+03  0.97360705923E+03  0.91712949784E+02 0.  0.
         23    2    4    4    0    0 -0.42881693821E+02 -0.13499619842E+03 -0.16792566769E+03  0.23722113511E+03  0.89509909059E+02 0.  0.
          2    1    3    3  502    0 -0.19075560054E+03  0.27050812376E+02  0.15957129312E+04  0.16073018399E+04  0.00000000000E+00 0. -1.
         -1    1    3    3    0  502 -0.13168356747E+02  0.12940776509E+02  0.46709276900E+02  0.50225749020E+02  0.00000000000E+00 0.  1.
         11    1    5    5    0    0  0.21930999662E+03  0.10259058971E+03  0.89055269808E+03  0.92287908838E+03  0.00000000000E+00 0. -1.
        -11    1    5    5    0    0  0.27495654489E+02 -0.75859801787E+01  0.41949599703E+02  0.50727970847E+02  0.00000000000E+00 0.  1.
          2    1    6    6  503    0 -0.26849546896E+02 -0.14496999370E+03 -0.15713868599E+03  0.21547566888E+03  0.00000000000E+00 0. -1.
         -2    1    6    6    0  503 -0.16032146925E+02  0.99737952840E+01 -0.10786981697E+02  0.21745466229E+02  0.00000000000E+00 0.  1.
<mgrwt>
<rscale>  0 0.15600710E+04</rscale>
<asrwt>0</asrwt>
<pdfrwt beam="1">  1        2 0.40579649E+00 0.15600710E+04</pdfrwt>
<pdfrwt beam="2">  1       -3 0.35488998E-01 0.15600710E+04</pdfrwt>
<totfact> 0.14192402E+01</totfact>
</mgrwt>
</event>
<event>
12    6  0.1540825E-007  0.1476320E+04  0.7818608E-02  0.8900354E-01
          2   -1    0    0  501    0  0.00000000000E+00  0.00000000000E+00  0.24737096540E+04  0.24737096540E+04  0.00000000000E+00 0. -1.
         -1   -1    0    0    0  501 -0.00000000000E+00 -0.00000000000E+00 -0.22026843425E+03  0.22026843425E+03  0.00000000000E+00 0.  1.
         24    2    1    2    0    0 -0.90112157392E+01 -0.31735502093E+03  0.10784561556E+03  0.34472410802E+03  0.80053872732E+02 0.  0.
        254    2    1    2    0    0  0.90112157392E+01  0.31735502093E+03  0.21455956042E+04  0.23492539802E+04  0.90256210620E+03 0.  0.
         23    2    4    4    0    0  0.11041450260E+03  0.15663562693E+03  0.25740538833E+02  0.21876768579E+03  0.10232615988E+03 0.  0.
         23    2    4    4    0    0 -0.10140328686E+03  0.16071939400E+03  0.21198550653E+04  0.21304862944E+04  0.95252309491E+02 0.  0.
          4    1    3    3  502    0 -0.13992052399E+02 -0.68494184967E+02 -0.76449503590E+01  0.70325501567E+02  0.00000000000E+00 0. -1.
         -3    1    3    3    0  502  0.49808366600E+01 -0.24886083596E+03  0.11549056592E+03  0.27439860646E+03  0.00000000000E+00 0.  1.
         11    1    5    5    0    0  0.90670078461E+02  0.48572432184E+02  0.34686619475E+02  0.10855185796E+03  0.00000000000E+00 0. -1.
        -11    1    5    5    0    0  0.19744424140E+02  0.10806319475E+03 -0.89460806424E+01  0.11021582782E+03  0.00000000000E+00 0.  1.
          2    1    6    6  503    0 -0.61919406409E+02  0.41825034664E+02  0.47222043933E+03  0.47809569098E+03  0.00000000000E+00 0.  1.
         -2    1    6    6    0  503 -0.39483880452E+02  0.11889435933E+03  0.16476346260E+04  0.16523906034E+04  0.00000000000E+00 0. -1.
<mgrwt>
<rscale>  0 0.14763200E+04</rscale>
<asrwt>0</asrwt>
<pdfrwt beam="1">  1        2 0.38057070E+00 0.14763200E+04</pdfrwt>
<pdfrwt beam="2">  1       -1 0.33887453E-01 0.14763200E+04</pdfrwt>
<totfact> 0.32767859E+01</totfact>
</mgrwt>
</event>
<event>
12    6  0.1540825E-007  0.1943783E+04  0.7818608E-02  0.8633365E-01
          2   -1    0    0  501    0  0.00000000000E+00  0.00000000000E+00  0.45456690577E+03  0.45456690577E+03  0.00000000000E+00 0. -1.
         -1   -1    0    0    0  501 -0.00000000000E+00 -0.00000000000E+00 -0.20779625727E+04  0.20779625727E+04  0.00000000000E+00 0.  1.
         24    2    1    2    0    0 -0.10335341382E+03  0.64392884208E+03 -0.11558137580E+04  0.13296726664E+04  0.82448012663E+02 0.  0.
        254    2    1    2    0    0  0.10335341382E+03 -0.64392884208E+03 -0.46758190896E+03  0.12028568121E+04  0.89604987975E+03 0.  0.
         23    2    4    4    0    0 -0.31828020550E+03 -0.35116691500E+03 -0.48069163927E+03  0.68116741091E+03  0.91126824869E+02 0.  0.
         23    2    4    4    0    0  0.42163361932E+03 -0.29276192707E+03  0.13109730307E+02  0.52168940119E+03  0.92214485825E+02 0.  0.
          4    1    3    3  502    0  0.10039986139E+02  0.66476281463E+02 -0.14949707965E+03  0.16391849848E+03  0.00000000000E+00 0. -1.
         -3    1    3    3    0  502 -0.11339339996E+03  0.57745256062E+03 -0.10063166783E+04  0.11657541679E+04  0.00000000000E+00 0.  1.
         11    1    5    5    0    0 -0.53359967244E+02 -0.32559778355E+02 -0.10310583413E+03  0.12057461716E+03  0.00000000000E+00 0.  1.
        -11    1    5    5    0    0 -0.26492023826E+03 -0.31860713665E+03 -0.37758580514E+03  0.56059279375E+03  0.00000000000E+00 0. -1.
          3    1    6    6  503    0  0.32685367867E+03 -0.22943045212E+03  0.48636251135E+02  0.40228987627E+03  0.00000000000E+00 0. -1.
         -3    1    6    6    0  503  0.94779940652E+02 -0.63331474954E+02 -0.35526520827E+02  0.11939952492E+03  0.00000000000E+00 0.  1.
<mgrwt>
<rscale>  0 0.19437829E+04</rscale>
<asrwt>0</asrwt>
<pdfrwt beam="1">  1        2 0.69933370E-01 0.19437829E+04</pdfrwt>
<pdfrwt beam="2">  1       -1 0.31968655E+00 0.19437829E+04</pdfrwt>
<totfact> 0.18051320E+00</totfact>
</mgrwt>
</event>
<event>
12    6  0.1540825E-007  0.2517569E+04  0.7818608E-02  0.8396753E-01
         -1   -1    0    0    0  501 -0.00000000000E+00  0.00000000000E+00  0.39926263382E+03  0.39926263382E+03  0.00000000000E+00 0.  1.
          2   -1    0    0  501    0  0.00000000000E+00 -0.00000000000E+00 -0.39686608126E+04  0.39686608126E+04  0.00000000000E+00 0. -1.
         24    2    1    2    0    0  0.35275973221E+03 -0.10254476221E+04 -0.12566799523E+04  0.16617710110E+04  0.79095739501E+02 0.  0.
        254    2    1    2    0    0 -0.35275973221E+03  0.10254476221E+04 -0.23127182265E+04  0.27061524355E+04  0.89365158461E+03 0.  0.
         23    2    4    4    0    0  0.15385543872E+03  0.13562183070E+03 -0.63572165293E+02  0.23305162789E+03  0.90591743981E+02 0.  0.
         23    2    4    4    0    0 -0.50661517093E+03  0.88982579137E+03 -0.22491460612E+04  0.24731008076E+04  0.95502510486E+02 0.  0.
          2    1    3    3  502    0  0.34106993477E+03 -0.10170075758E+04 -0.12435562248E+04  0.16422743967E+04  0.00000000000E+00 0. -1.
         -1    1    3    3    0  502  0.11689797441E+02 -0.84400462468E+01 -0.13123727499E+02  0.19496614278E+02  0.00000000000E+00 0.  1.
         11    1    5    5    0    0  0.14571579556E+03  0.14232873152E+03 -0.40495053395E+02  0.20767862250E+03  0.00000000000E+00 0.  1.
        -11    1    5    5    0    0  0.81396431608E+01 -0.67069008211E+01 -0.23077111897E+02  0.25373005398E+02  0.00000000000E+00 0. -1.
          3    1    6    6  503    0 -0.98336188434E+02  0.25714437872E+03 -0.58721114606E+03  0.64854465345E+03  0.00000000000E+00 0. -1.
         -3    1    6    6    0  503 -0.40827898250E+03  0.63268141265E+03 -0.16619349152E+04  0.18245561542E+04  0.00000000000E+00 0.  1.
<mgrwt>
<rscale>  0 0.25175686E+04</rscale>
<asrwt>0</asrwt>
<pdfrwt beam="1">  1        2 0.61056317E+00 0.25175686E+04</pdfrwt>
<pdfrwt beam="2">  1       -1 0.61425024E-01 0.25175686E+04</pdfrwt>
<totfact> 0.99031854E-01</totfact>
</mgrwt>
</event>
<event>
12    6  0.1540825E-007  0.1762557E+04  0.7818608E-02  0.8726468E-01
         -1   -1    0    0    0  501 -0.00000000000E+00  0.00000000000E+00  0.28335383815E+03  0.28335383815E+03  0.00000000000E+00 0.  1.
          2   -1    0    0  501    0  0.00000000000E+00 -0.00000000000E+00 -0.27409265255E+04  0.27409265255E+04  0.00000000000E+00 0. -1.
         24    2    1    2    0    0 -0.46592272927E+03 -0.42017216982E+03 -0.13015468504E+04  0.14469888603E+04  0.78255453266E+02 0.  0.
        254    2    1    2    0    0  0.46592272927E+03  0.42017216982E+03 -0.11560258369E+04  0.15772915034E+04  0.87053093514E+03 0.  0.
         23    2    4    4    0    0  0.75905052849E+02 -0.15438050348E+03 -0.73528708240E+03  0.76030802134E+03  0.88466247101E+02 0.  0.
         23    2    4    4    0    0  0.39001767642E+03  0.57455267330E+03 -0.42073875453E+03  0.81698348203E+03  0.90644073330E+02 0.  0.
          4    1    3    3  502    0 -0.33428715781E+03 -0.33249773808E+03 -0.10289819109E+04  0.11318597186E+04  0.00000000000E+00 0. -1.
         -3    1    3    3    0  502 -0.13163557146E+03 -0.87674431744E+02 -0.27256493958E+03  0.31512914169E+03  0.00000000000E+00 0.  1.
         11    1    5    5    0    0  0.10704448743E+02 -0.13186899513E+02 -0.12789014291E+02  0.21261195361E+02  0.00000000000E+00 0. -1.
        -11    1    5    5    0    0  0.65200604106E+02 -0.14119360397E+03 -0.72249806811E+03  0.73904682598E+03  0.00000000000E+00 0.  1.
          3    1    6    6  503    0  0.11094184236E+03  0.23837479298E+03 -0.17260208555E+03  0.31451886152E+03  0.00000000000E+00 0. -1.
         -3    1    6    6    0  503  0.27907583407E+03  0.33617788032E+03 -0.24813666898E+03  0.50246462052E+03  0.00000000000E+00 0.  1.
<mgrwt>
<rscale>  0 0.17625573E+04</rscale>
<asrwt>0</asrwt>
<pdfrwt beam="1">  1        2 0.42168101E+00 0.17625573E+04</pdfrwt>
<pdfrwt beam="2">  1       -1 0.43592898E-01 0.17625573E+04</pdfrwt>
<totfact> 0.14097012E+01</totfact>
</mgrwt>
</event>
<event>
12    6  0.1894831E-007  0.2849971E+04  0.7818608E-02  0.8287920E-01
         -1   -1    0    0    0  501 -0.00000000000E+00  0.00000000000E+00  0.11697763086E+04  0.11697763086E+04  0.00000000000E+00 0.  1.
          2   -1    0    0  501    0  0.00000000000E+00 -0.00000000000E+00 -0.17358735237E+04  0.17358735237E+04  0.00000000000E+00 0. -1.
         24    2    1    2    0    0  0.92074908014E+03  0.81295919553E+03 -0.62423837376E+03  0.13802019192E+04  0.81254343529E+02 0.  0.
        254    2    1    2    0    0 -0.92074908014E+03 -0.81295919553E+03  0.58141158583E+02  0.15254479131E+04  0.90273441230E+03 0.  0.
         23    2    4    4    0    0 -0.35807654459E+03 -0.24768052147E+03 -0.40245008582E+03  0.59984498018E+03  0.91013604353E+02 0.  0.
         23    2    4    4    0    0 -0.56267253555E+03 -0.56527867406E+03  0.46059124440E+03  0.92560293294E+03  0.91957236972E+02 0.  0.
          4    1    3    3  502    0  0.27211491287E+03  0.25133076745E+03 -0.14797158179E+03  0.39888503292E+03  0.00000000000E+00 0. -1.
         -3    1    3    3    0  502  0.64863416727E+03  0.56162842808E+03 -0.47626679197E+03  0.98131688629E+03  0.00000000000E+00 0.  1.
         11    1    5    5    0    0  0.31241252723E+01 -0.66852239680E+01  0.59204995817E+00  0.74028981738E+01  0.00000000000E+00 0.  1.
        -11    1    5    5    0    0 -0.36120066986E+03 -0.24099529750E+03 -0.40304213578E+03  0.59244208201E+03  0.00000000000E+00 0. -1.
          4    1    6    6  503    0 -0.36397793236E+03 -0.30186390152E+03  0.27648888296E+03  0.54776623909E+03  0.00000000000E+00 0. -1.
         -4    1    6    6    0  503 -0.19869460319E+03 -0.26341477254E+03  0.18410236145E+03  0.37783669385E+03  0.00000000000E+00 0.  1.
<mgrwt>
<rscale>  0 0.28499710E+04</rscale>
<asrwt>0</asrwt>
<pdfrwt beam="1">  1        2 0.26705746E+00 0.28499710E+04</pdfrwt>
<pdfrwt beam="2">  1       -1 0.17996559E+00 0.28499710E+04</pdfrwt>
<totfact> 0.19238594E+00</totfact>
</mgrwt>
</event>
<event>
12    6  0.1540825E-007  0.1368533E+04  0.7818608E-02  0.8976916E-01
          2   -1    0    0  501    0  0.00000000000E+00  0.00000000000E+00  0.84999138081E+03  0.84999138081E+03  0.00000000000E+00 0. -1.
         -1   -1    0    0    0  501 -0.00000000000E+00 -0.00000000000E+00 -0.55085367850E+03  0.55085367850E+03  0.00000000000E+00 0.  1.
         24    2    1    2    0    0  0.19269895355E+03 -0.16428790939E+03  0.40240955198E+03  0.48177322531E+03  0.77772676605E+02 0.  0.
        254    2    1    2    0    0 -0.19269895355E+03  0.16428790939E+03 -0.10327184967E+03  0.91907183400E+03  0.87744205350E+03 0.  0.
         23    2    4    4    0    0 -0.46872444942E+03  0.28940830847E+02 -0.27986918068E+03  0.55318182565E+03  0.84517411013E+02 0.  0.
         23    2    4    4    0    0  0.27602549587E+03  0.13534707855E+03  0.17659733101E+03  0.36589000835E+03  0.90443213397E+02 0.  0.
          4    1    3    3  502    0  0.17098144515E+03 -0.16948084353E+03  0.38193032226E+03  0.45147445329E+03  0.00000000000E+00 0. -1.
         -3    1    3    3    0  502  0.21717508393E+02  0.51929341403E+01  0.20479229722E+02  0.30298772018E+02  0.00000000000E+00 0.  1.
         11    1    5    5    0    0 -0.19300467472E+03  0.34450714490E+02 -0.15746967990E+03  0.25146442349E+03  0.00000000000E+00 0. -1.
        -11    1    5    5    0    0 -0.27571977470E+03 -0.55098836437E+01 -0.12239950078E+03  0.30171740216E+03  0.00000000000E+00 0.  1.
          1    1    6    6  503    0  0.13581151014E+03  0.26570985529E+02  0.10835695173E+03  0.17576123733E+03  0.00000000000E+00 0. -1.
         -1    1    6    6    0  503  0.14021398573E+03  0.10877609302E+03  0.68240379278E+02  0.19012877102E+03  0.00000000000E+00 0.  1.
<mgrwt>
<rscale>  0 0.13685333E+04</rscale>
<asrwt>0</asrwt>
<pdfrwt beam="1">  1        2 0.13076790E+00 0.13685333E+04</pdfrwt>
<pdfrwt beam="2">  1       -1 0.84746720E-01 0.13685333E+04</pdfrwt>
<totfact> 0.48719673E+01</totfact>
</mgrwt>
</event>
<event>
12    6  0.1540825E-007  0.1801073E+04  0.7818608E-02  0.8705729E-01
          2   -1    0    0  501    0  0.00000000000E+00  0.00000000000E+00  0.10317281978E+04  0.10317281978E+04  0.00000000000E+00 0. -1.
         -1   -1    0    0    0  501 -0.00000000000E+00 -0.00000000000E+00 -0.78602654413E+03  0.78602654413E+03  0.00000000000E+00 0.  1.
         24    2    1    2    0    0 -0.86025932371E+02  0.29167742438E+03  0.57205737717E+03  0.65254609924E+03  0.78042218847E+02 0.  0.
        254    2    1    2    0    0  0.86025932371E+02 -0.29167742438E+03 -0.32635572346E+03  0.11652086427E+04  0.10764417968E+04 0.  0.
         23    2    4    4    0    0  0.28571606479E+03 -0.56348939344E+03 -0.46510223861E+03  0.78969889514E+03  0.90278936823E+02 0.  0.
         23    2    4    4    0    0 -0.19969013242E+03  0.27181196906E+03  0.13874651515E+03  0.37550974759E+03  0.89437573536E+02 0.  0.
          2    1    3    3  502    0 -0.66435683842E+02  0.15394700149E+03  0.24242243614E+03  0.29475755614E+03  0.00000000000E+00 0. -1.
         -1    1    3    3    0  502 -0.19590248529E+02  0.13773042289E+03  0.32963494103E+03  0.35778854310E+03  0.00000000000E+00 0.  1.
         11    1    5    5    0    0  0.26982563854E+03 -0.47206415702E+03 -0.41663999821E+03  0.68501046099E+03  0.00000000000E+00 0.  1.
        -11    1    5    5    0    0  0.15890426241E+02 -0.91425236421E+02 -0.48462240402E+02  0.10468843415E+03  0.00000000000E+00 0. -1.
          3    1    6    6  503    0 -0.12817409064E+03  0.23007687394E+03  0.84808599576E+02  0.27668838790E+03  0.00000000000E+00 0. -1.
         -3    1    6    6    0  503 -0.71516041774E+02  0.41735095122E+02  0.53937915569E+02  0.98821359694E+02  0.00000000000E+00 0.  1.
<mgrwt>
<rscale>  0 0.18010727E+04</rscale>
<asrwt>0</asrwt>
<pdfrwt beam="1">  1        2 0.15872741E+00 0.18010727E+04</pdfrwt>
<pdfrwt beam="2">  1       -1 0.12092716E+00 0.18010727E+04</pdfrwt>
<totfact> 0.15728107E+01</totfact>
</mgrwt>
</event>
<event>
12    6  0.1540825E-007  0.2196813E+04  0.7818608E-02  0.8519756E-01
          2   -1    0    0  501    0  0.00000000000E+00  0.00000000000E+00  0.15962806361E+04  0.15962806361E+04  0.00000000000E+00 0. -1.
         -1   -1    0    0    0  501 -0.00000000000E+00 -0.00000000000E+00 -0.75581783868E+03  0.75581783868E+03  0.00000000000E+00 0.  1.
         24    2    1    2    0    0  0.29079460470E+03 -0.84253473611E+03  0.15033983047E+03  0.90736175984E+03  0.79227614552E+02 0.  0.
        254    2    1    2    0    0 -0.29079460470E+03  0.84253473611E+03  0.69012296696E+03  0.14447367150E+04  0.90364162272E+03 0.  0.
         23    2    4    4    0    0 -0.92157233138E+02 -0.13282063433E+03 -0.59858298422E+02  0.19505253390E+03  0.91258964313E+02 0.  0.
         23    2    4    4    0    0 -0.19863737156E+03  0.97535537044E+03  0.74998126539E+03  0.12496841811E+04  0.91998640890E+02 0.  0.
          2    1    3    3  502    0  0.22539795041E+03 -0.70838922110E+03  0.10118939380E+03  0.75023917389E+03  0.00000000000E+00 0. -1.
         -1    1    3    3    0  502  0.65396654289E+02 -0.13414551502E+03  0.49150436664E+02  0.15712258595E+03  0.00000000000E+00 0.  1.
         11    1    5    5    0    0 -0.10506137496E+03 -0.86113439863E+02 -0.33594634532E+02  0.13993575849E+03  0.00000000000E+00 0. -1.
        -11    1    5    5    0    0  0.12904141823E+02 -0.46707194462E+02 -0.26263663890E+02  0.55116775411E+02  0.00000000000E+00 0.  1.
          2    1    6    6  503    0 -0.20573476278E+03  0.93145236062E+03  0.70278995628E+03  0.11848392361E+04  0.00000000000E+00 0. -1.
         -2    1    6    6    0  503  0.70973912122E+01  0.43903009819E+02  0.47191309102E+02  0.64844944968E+02  0.00000000000E+00 0.  1.
<mgrwt>
<rscale>  0 0.21968135E+04</rscale>
<asrwt>0</asrwt>
<pdfrwt beam="1">  1        2 0.24558163E+00 0.21968135E+04</pdfrwt>
<pdfrwt beam="2">  1       -1 0.11627967E+00 0.21968135E+04</pdfrwt>
<totfact> 0.77991469E+00</totfact>
</mgrwt>
</event>
<event>
12    6  0.1540825E-007  0.2148516E+04  0.7818608E-02  0.8540168E-01
          2   -1    0    0  501    0  0.00000000000E+00  0.00000000000E+00  0.13610795061E+04  0.13610795061E+04  0.00000000000E+00 0. -1.
         -1   -1    0    0    0  501 -0.00000000000E+00 -0.00000000000E+00 -0.84787840435E+03  0.84787840435E+03  0.00000000000E+00 0.  1.
         24    2    1    2    0    0  0.24452259090E+03 -0.18901327577E+02  0.10595332716E+04  0.10904662869E+04  0.79733377533E+02 0.  0.
        254    2    1    2    0    0 -0.24452259090E+03  0.18901327577E+02 -0.54633216992E+03  0.11184916235E+04  0.94466719767E+03 0.  0.
         23    2    4    4    0    0 -0.56527466599E+03 -0.16240637495E+03 -0.32444978723E+03  0.67807610004E+03  0.92780678871E+02 0.  0.
         23    2    4    4    0    0  0.32075207510E+03  0.18130770253E+03 -0.22188238269E+03  0.44041552348E+03  0.94761093806E+02 0.  0.
          4    1    3    3  502    0  0.20143398698E+03  0.16154704942E+02  0.81037664278E+03  0.83519274947E+03  0.00000000000E+00 0. -1.
         -3    1    3    3    0  502  0.43088603915E+02 -0.35056032519E+02  0.24915662887E+03  0.25527353743E+03  0.00000000000E+00 0.  1.
         11    1    5    5    0    0 -0.30958568010E+03 -0.43020994008E+02 -0.15446278159E+03  0.34864430318E+03  0.00000000000E+00 0. -1.
        -11    1    5    5    0    0 -0.25568898589E+03 -0.11938538095E+03 -0.16998700565E+03  0.32943179686E+03  0.00000000000E+00 0.  1.
          3    1    6    6  503    0  0.11146748287E+03  0.33796947640E+02 -0.11265741240E+03  0.16204606128E+03  0.00000000000E+00 0. -1.
         -3    1    6    6    0  503  0.20928459223E+03  0.14751075489E+03 -0.10922497029E+03  0.27836946220E+03  0.00000000000E+00 0.  1.
<mgrwt>
<rscale>  0 0.21485157E+04</rscale>
<asrwt>0</asrwt>
<pdfrwt beam="1">  1        2 0.20939685E+00 0.21485157E+04</pdfrwt>
<pdfrwt beam="2">  1       -1 0.13044283E+00 0.21485157E+04</pdfrwt>
<totfact> 0.80138321E+00</totfact>
</mgrwt>
</event>
<event>
12    6  0.1540825E-007  0.1835735E+04  0.7818608E-02  0.8687523E-01
          2   -1    0    0  501    0  0.00000000000E+00  0.00000000000E+00  0.25436792899E+04  0.25436792899E+04  0.00000000000E+00 0. -1.
         -1   -1    0    0    0  501 -0.00000000000E+00 -0.00000000000E+00 -0.33120557903E+03  0.33120557903E+03  0.00000000000E+00 0.  1.
         24    2    1    2    0    0  0.33073620072E+03  0.33418707282E+03  0.39944260620E+02  0.47849445785E+03  0.79334533067E+02 0.  0.
        254    2    1    2    0    0 -0.33073620072E+03 -0.33418707282E+03  0.21725294503E+04  0.23963904111E+04  0.89539675897E+03 0.  0.
         23    2    4    4    0    0  0.16116354211E+02 -0.50705476457E+03  0.17116234828E+04  0.17875446869E+04  0.91086715545E+02 0.  0.
         23    2    4    4    0    0 -0.34685255493E+03  0.17286769176E+03  0.46090596753E+03  0.60884572422E+03  0.89826896188E+02 0.  0.
          4    1    3    3  502    0  0.28893031352E+02  0.11499178214E+02  0.18357424265E+02  0.36111402436E+02  0.00000000000E+00 0. -1.
         -3    1    3    3    0  502  0.30184316937E+03  0.32268789460E+03  0.21586836355E+02  0.44238305542E+03  0.00000000000E+00 0.  1.
         11    1    5    5    0    0 -0.21431565079E+02 -0.41079639665E+03  0.14050646009E+04  0.14640421867E+04  0.00000000000E+00 0. -1.
        -11    1    5    5    0    0  0.37547919291E+02 -0.96258367924E+02  0.30655888181E+03  0.32350250023E+03  0.00000000000E+00 0.  1.
          3    1    6    6  503    0 -0.29785346632E+02  0.36458191839E+02  0.26564243201E+02  0.54055764198E+02  0.00000000000E+00 0. -1.
         -3    1    6    6    0  503 -0.31706720830E+03  0.13640949992E+03  0.43434172433E+03  0.55478996002E+03  0.00000000000E+00 0.  1.
<mgrwt>
<rscale>  0 0.18357350E+04</rscale>
<asrwt>0</asrwt>
<pdfrwt beam="1">  1        2 0.39133526E+00 0.18357350E+04</pdfrwt>
<pdfrwt beam="2">  1       -1 0.50954706E-01 0.18357350E+04</pdfrwt>
<totfact> 0.13639921E+01</totfact>
</mgrwt>
</event>
<event>
12    6  0.1540825E-007  0.1825186E+04  0.7818608E-02  0.8693020E-01
         -1   -1    0    0    0  501 -0.00000000000E+00  0.00000000000E+00  0.57432738875E+03  0.57432738875E+03  0.00000000000E+00 0.  1.
          2   -1    0    0  501    0  0.00000000000E+00 -0.00000000000E+00 -0.14500888120E+04  0.14500888120E+04  0.00000000000E+00 0. -1.
         24    2    1    2    0    0 -0.47478596160E+03 -0.12397625445E+03  0.16161995683E+03  0.52291280127E+03  0.80777263465E+02 0.  0.
        254    2    1    2    0    0  0.47478596160E+03  0.12397625445E+03 -0.10373813801E+04  0.15015033995E+04  0.96827708323E+03 0.  0.
         23    2    4    4    0    0  0.51419851443E+03 -0.29110878837E+03 -0.35132172520E+03  0.69342947712E+03  0.90956287549E+02 0.  0.
         23    2    4    4    0    0 -0.39412552825E+02  0.41508504282E+03 -0.68605965488E+03  0.80807392235E+03  0.91960164428E+02 0.  0.
          4    1    3    3  502    0 -0.13146206492E+03 -0.61073580606E+02  0.20386177377E+02  0.14638255699E+03  0.00000000000E+00 0. -1.
         -3    1    3    3    0  502 -0.34332389668E+03 -0.62902673840E+02  0.14123377945E+03  0.37653024429E+03  0.00000000000E+00 0.  1.
         11    1    5    5    0    0  0.11903505724E+03 -0.46536587002E+02 -0.11563515786E+03  0.17235570346E+03  0.00000000000E+00 0.  1.
        -11    1    5    5    0    0  0.39516345718E+03 -0.24457220137E+03 -0.23568656734E+03  0.52107377366E+03  0.00000000000E+00 0. -1.
          1    1    6    6  503    0 -0.30561552971E+02  0.84331992219E+02 -0.94656055222E+02  0.13040575993E+03  0.00000000000E+00 0. -1.
         -1    1    6    6    0  503 -0.88509998543E+01  0.33075305060E+03 -0.59140359966E+03  0.67766816243E+03  0.00000000000E+00 0.  1.
<mgrwt>
<rscale>  0 0.18251857E+04</rscale>
<asrwt>0</asrwt>
<pdfrwt beam="1">  1        2 0.22309059E+00 0.18251857E+04</pdfrwt>
<pdfrwt beam="2">  1       -1 0.88358058E-01 0.18251857E+04</pdfrwt>
<totfact> 0.18299630E+01</totfact>
</mgrwt>
</event>
<event>
12    6  0.1540825E-007  0.2222488E+04  0.7818608E-02  0.8509126E-01
         -1   -1    0    0    0  501 -0.00000000000E+00  0.00000000000E+00  0.64328113281E+03  0.64328113281E+03  0.00000000000E+00 0.  1.
          2   -1    0    0  501    0  0.00000000000E+00 -0.00000000000E+00 -0.19196322068E+04  0.19196322068E+04  0.00000000000E+00 0. -1.
         24    2    1    2    0    0  0.22338532233E+03 -0.72977180378E+03 -0.11354496686E+04  0.13704198392E+04  0.79603377785E+02 0.  0.
        254    2    1    2    0    0 -0.22338532233E+03  0.72977180378E+03 -0.14090140536E+03  0.11924935005E+04  0.90538370582E+03 0.  0.
         23    2    4    4    0    0 -0.56503522840E+02  0.85101198317E+03 -0.30638851928E+03  0.91195179327E+03  0.10182389165E+03 0.  0.
         23    2    4    4    0    0 -0.16688179949E+03 -0.12124017939E+03  0.16548711392E+03  0.28054170718E+03  0.93642663866E+02 0.  0.
          2    1    3    3  502    0  0.14092009314E+03 -0.57058065242E+03 -0.88674968762E+03  0.10638354018E+04  0.00000000000E+00 0. -1.
         -1    1    3    3    0  502  0.82465229189E+02 -0.15919115136E+03 -0.24869998101E+03  0.30658443739E+03  0.00000000000E+00 0.  1.
         11    1    5    5    0    0 -0.24533605889E+02  0.71498738435E+03 -0.22360237788E+03  0.74953777822E+03  0.00000000000E+00 0.  1.
        -11    1    5    5    0    0 -0.31969916952E+02  0.13602459883E+03 -0.82786141406E+02  0.16241401505E+03  0.00000000000E+00 0. -1.
          1    1    6    6  503    0 -0.25587168525E+02  0.36543453257E+01  0.57952978773E+02  0.63455537044E+02  0.00000000000E+00 0. -1.
         -1    1    6    6    0  503 -0.14129463096E+03 -0.12489452472E+03  0.10753413515E+03  0.21708617014E+03  0.00000000000E+00 0.  1.
<mgrwt>
<rscale>  0 0.22224880E+04</rscale>
<asrwt>0</asrwt>
<pdfrwt beam="1">  1        2 0.29532803E+00 0.22224880E+04</pdfrwt>
<pdfrwt beam="2">  1       -1 0.98966328E-01 0.22224880E+04</pdfrwt>
<totfact> 0.75058900E+00</totfact>
</mgrwt>
</event>
<event>
12    6  0.1540825E-007  0.1294974E+04  0.7818608E-02  0.9033561E-01
         -1   -1    0    0    0  501 -0.00000000000E+00  0.00000000000E+00  0.50936965795E+03  0.50936965795E+03  0.00000000000E+00 0.  1.
          2   -1    0    0  501    0  0.00000000000E+00 -0.00000000000E+00 -0.82305482608E+03  0.82305482608E+03  0.00000000000E+00 0. -1.
         24    2    1    2    0    0  0.27307068317E+02  0.25108059400E+03 -0.30061072879E+03  0.40006054072E+03  0.76775551556E+02 0.  0.
        254    2    1    2    0    0 -0.27307068317E+02 -0.25108059400E+03 -0.13074439338E+02  0.93236394330E+03  0.89740985127E+03 0.  0.
         23    2    4    4    0    0  0.10678588489E+03  0.18968896154E+03 -0.30088660625E+03  0.38215238503E+03  0.90125291817E+02 0.  0.
         23    2    4    4    0    0 -0.13409295320E+03 -0.44076955553E+03  0.28781216692E+03  0.55021155827E+03  0.87396763349E+02 0.  0.
          2    1    3    3  502    0  0.43912841099E+01  0.17395080421E+03 -0.25139206988E+03  0.30573867675E+03  0.00000000000E+00 0. -1.
         -1    1    3    3    0  502  0.22915784207E+02  0.77129789788E+02 -0.49218658911E+02  0.94321863975E+02  0.00000000000E+00 0.  1.
         11    1    5    5    0    0  0.90225597256E+02  0.16402843868E+03 -0.29739785661E+03  0.35141353447E+03  0.00000000000E+00 0. -1.
        -11    1    5    5    0    0  0.16560287629E+02  0.25660522858E+02 -0.34887496445E+01  0.30738850561E+02  0.00000000000E+00 0.  1.
          2    1    6    6  503    0 -0.14200495159E+03 -0.40481741303E+03  0.28082232973E+03  0.51274138222E+03  0.00000000000E+00 0. -1.
         -2    1    6    6    0  503  0.79119983854E+01 -0.35952142502E+02  0.69898371834E+01  0.37470176045E+02  0.00000000000E+00 0.  1.
<mgrwt>
<rscale>  0 0.12949736E+04</rscale>
<asrwt>0</asrwt>
<pdfrwt beam="1">  1        2 0.12662382E+00 0.12949736E+04</pdfrwt>
<pdfrwt beam="2">  1       -1 0.78364563E-01 0.12949736E+04</pdfrwt>
<totfact> 0.60519255E+01</totfact>
</mgrwt>
</event>
<event>
12    6  0.1540825E-007  0.2146813E+04  0.7818608E-02  0.8540898E-01
         -1   -1    0    0    0  501 -0.00000000000E+00  0.00000000000E+00  0.47279438226E+03  0.47279438226E+03  0.00000000000E+00 0.  1.
          2   -1    0    0  501    0  0.00000000000E+00 -0.00000000000E+00 -0.24370022857E+04  0.24370022857E+04  0.00000000000E+00 0. -1.
         24    2    1    2    0    0  0.43430226327E+03 -0.76798273875E+03 -0.86051761704E+03  0.12352356602E+04  0.83069994656E+02 0.  0.
        254    2    1    2    0    0 -0.43430226327E+03  0.76798273875E+03 -0.11036902864E+04  0.16745610078E+04  0.89866922594E+03 0.  0.
         23    2    4    4    0    0 -0.24945892584E+03 -0.35079640057E+02 -0.70550165327E+03  0.75474984905E+03  0.91947893071E+02 0.  0.
         23    2    4    4    0    0 -0.18484333743E+03  0.80306237880E+03 -0.39818863315E+03  0.91981115877E+03  0.91772199358E+02 0.  0.
          2    1    3    3  502    0  0.43399528660E+03 -0.73771782805E+03 -0.83030780535E+03  0.11924724543E+04  0.00000000000E+00 0. -1.
         -1    1    3    3    0  502  0.30697666214E+00 -0.30264910698E+02 -0.30209811688E+02  0.42763205871E+02  0.00000000000E+00 0.  1.
         11    1    5    5    0    0 -0.12173709533E+03 -0.42599492354E+02 -0.46221275370E+03  0.47987005200E+03  0.00000000000E+00 0.  1.
        -11    1    5    5    0    0 -0.12772183051E+03  0.75198522966E+01 -0.24328889958E+03  0.27487979705E+03  0.00000000000E+00 0. -1.
          2    1    6    6  503    0 -0.40959456444E+02  0.12641111968E+03 -0.10094260674E+03  0.16687377896E+03  0.00000000000E+00 0. -1.
         -2    1    6    6    0  503 -0.14388388099E+03  0.67665125913E+03 -0.29724602642E+03  0.75293737980E+03  0.00000000000E+00 0.  1.
<mgrwt>
<rscale>  0 0.21468125E+04</rscale>
<asrwt>0</asrwt>
<pdfrwt beam="1">  1        2 0.37492342E+00 0.21468125E+04</pdfrwt>
<pdfrwt beam="2">  1       -1 0.72737598E-01 0.21468125E+04</pdfrwt>
<totfact> 0.75389958E+00</totfact>
</mgrwt>
</event>
<event>
12    6  0.1540825E-007  0.1751590E+04  0.7818608E-02  0.8732476E-01
         -1   -1    0    0    0  501 -0.00000000000E+00  0.00000000000E+00  0.37286975757E+03  0.37286975757E+03  0.00000000000E+00 0.  1.
          2   -1    0    0  501    0  0.00000000000E+00 -0.00000000000E+00 -0.20570627217E+04  0.20570627217E+04  0.00000000000E+00 0. -1.
         24    2    1    2    0    0 -0.15427193879E+02 -0.60146008986E+03 -0.93648349839E+03  0.11153039298E+04  0.70066218719E+02 0.  0.
        254    2    1    2    0    0  0.15427193879E+02  0.60146008986E+03 -0.74770946570E+03  0.13146285495E+04  0.89843560701E+03 0.  0.
         23    2    4    4    0    0  0.30620649367E+03  0.79781802559E+02  0.29302118120E+02  0.32984814967E+03  0.88394767568E+02 0.  0.
         23    2    4    4    0    0 -0.29077929979E+03  0.52167828730E+03 -0.77701158382E+03  0.98478039979E+03  0.96667459774E+02 0.  0.
          4    1    3    3  502    0  0.88881574937E+01 -0.44293968527E+03 -0.72903699920E+03  0.85309408059E+03  0.00000000000E+00 0. -1.
         -3    1    3    3    0  502 -0.24315351373E+02 -0.15852040459E+03 -0.20744649919E+03  0.26220984919E+03  0.00000000000E+00 0.  1.
         11    1    5    5    0    0  0.13172381085E+03  0.77877886847E+02  0.69007771528E+00  0.15302484704E+03  0.00000000000E+00 0. -1.
        -11    1    5    5    0    0  0.17448268281E+03  0.19039157122E+01  0.28612040405E+02  0.17682330263E+03  0.00000000000E+00 0.  1.
          4    1    6    6  503    0 -0.22851187606E+03  0.32643911549E+03 -0.54653475169E+03  0.67637298026E+03  0.00000000000E+00 0. -1.
         -4    1    6    6    0  503 -0.62267423725E+02  0.19523917181E+03 -0.23047683213E+03  0.30840741952E+03  0.00000000000E+00 0.  1.
<mgrwt>
<rscale>  0 0.17515895E+04</rscale>
<asrwt>0</asrwt>
<pdfrwt beam="1">  1        2 0.31647119E+00 0.17515895E+04</pdfrwt>
<pdfrwt beam="2">  1       -1 0.57364579E-01 0.17515895E+04</pdfrwt>
<totfact> 0.20627721E+01</totfact>
</mgrwt>
</event>
<event>
12    6  0.1540825E-007  0.1532617E+04  0.7818608E-02  0.8863048E-01
         -1   -1    0    0    0  501 -0.00000000000E+00  0.00000000000E+00  0.89318368174E+03  0.89318368174E+03  0.00000000000E+00 0.  1.
          2   -1    0    0  501    0  0.00000000000E+00 -0.00000000000E+00 -0.65745574728E+03  0.65745574728E+03  0.00000000000E+00 0. -1.
         24    2    1    2    0    0  0.49329964755E+03 -0.41749441625E+02  0.10945579349E+03  0.51330042338E+03  0.80057452899E+02 0.  0.
        254    2    1    2    0    0 -0.49329964755E+03  0.41749441625E+02  0.12627214097E+03  0.10373390056E+04  0.90279565843E+03 0.  0.
         23    2    4    4    0    0 -0.10333574814E+03  0.16427400624E+03  0.45654537555E+03  0.50452852445E+03  0.91930006393E+02 0.  0.
         23    2    4    4    0    0 -0.38996389941E+03 -0.12252456462E+03 -0.33027323457E+03  0.53281048120E+03  0.87877685527E+02 0.  0.
          2    1    3    3  502    0  0.79810754779E+02 -0.10786714797E+02 -0.11544623241E+02  0.81359622174E+02  0.00000000000E+00 0. -1.
         -1    1    3    3    0  502  0.41348889277E+03 -0.30962726827E+02  0.12100041673E+03  0.43194080121E+03  0.00000000000E+00 0.  1.
         11    1    5    5    0    0 -0.33970773106E+02  0.27371998781E+01  0.40927895774E+02  0.53259725319E+02  0.00000000000E+00 0. -1.
        -11    1    5    5    0    0 -0.69364975032E+02  0.16153680636E+03  0.41561747977E+03  0.45126879913E+03  0.00000000000E+00 0.  1.
          2    1    6    6  503    0 -0.61345403560E+02 -0.55193478088E+02 -0.59915113518E+02  0.10197744549E+03  0.00000000000E+00 0. -1.
         -2    1    6    6    0  503 -0.32861849586E+03 -0.67331086529E+02 -0.27035812106E+03  0.43083303570E+03  0.00000000000E+00 0.  1.
<mgrwt>
<rscale>  0 0.15326170E+04</rscale>
<asrwt>0</asrwt>
<pdfrwt beam="1">  1        2 0.10114704E+00 0.15326170E+04</pdfrwt>
<pdfrwt beam="2">  1       -1 0.13741287E+00 0.15326170E+04</pdfrwt>
<totfact> 0.21482440E+01</totfact>
</mgrwt>
</event>
<event>
12    6  0.1540825E-007  0.1575788E+04  0.7818608E-02  0.8835562E-01
          2   -1    0    0  501    0  0.00000000000E+00  0.00000000000E+00  0.28268389996E+04  0.28268389996E+04  0.00000000000E+00 0. -1.
         -1   -1    0    0    0  501 -0.00000000000E+00 -0.00000000000E+00 -0.21960114773E+03  0.21960114773E+03  0.00000000000E+00 0.  1.
         24    2    1    2    0    0  0.54342920330E+03  0.12249678093E+03  0.76667234155E+03  0.95158305539E+03  0.86041104487E+02 0.  0.
        254    2    1    2    0    0 -0.54342920330E+03 -0.12249678093E+03  0.18405655104E+04  0.20948570920E+04  0.83091761181E+03 0.  0.
         23    2    4    4    0    0 -0.23853233651E+03  0.34550957008E+03  0.89335495340E+03  0.99148126806E+03  0.93153065359E+02 0.  0.
         23    2    4    4    0    0 -0.30489686679E+03 -0.46800635100E+03  0.94721055697E+03  0.11033758239E+04  0.90765222718E+02 0.  0.
          4    1    3    3  502    0  0.16746627542E+03  0.51804570240E+02  0.30727673338E+03  0.35376214859E+03  0.00000000000E+00 0. -1.
         -3    1    3    3    0  502  0.37596292788E+03  0.70692210687E+02  0.45939560817E+03  0.59782090679E+03  0.00000000000E+00 0.  1.
         11    1    5    5    0    0 -0.15758199934E+03  0.27852943384E+03  0.73247486283E+03  0.79933106828E+03  0.00000000000E+00 0.  1.
        -11    1    5    5    0    0 -0.80950337165E+02  0.66980136238E+02  0.16088009056E+03  0.19215019979E+03  0.00000000000E+00 0. -1.
          1    1    6    6  503    0 -0.84049321354E+02 -0.74912368346E+02  0.23251361173E+03  0.25833840402E+03  0.00000000000E+00 0. -1.
         -1    1    6    6    0  503 -0.22084754544E+03 -0.39309398266E+03  0.71469694524E+03  0.84503741992E+03  0.00000000000E+00 0.  1.
<mgrwt>
<rscale>  0 0.15757882E+04</rscale>
<asrwt>0</asrwt>
<pdfrwt beam="1">  1        2 0.43489828E+00 0.15757882E+04</pdfrwt>
<pdfrwt beam="2">  1       -1 0.33784794E-01 0.15757882E+04</pdfrwt>
<totfact> 0.20236847E+01</totfact>
</mgrwt>
</event>
<event>
12    6  0.1540825E-007  0.1065894E+04  0.7818608E-02  0.9239087E-01
          2   -1    0    0  501    0  0.00000000000E+00  0.00000000000E+00  0.10528491602E+04  0.10528491602E+04  0.00000000000E+00 0. -1.
         -1   -1    0    0    0  501 -0.00000000000E+00 -0.00000000000E+00 -0.26977508511E+03  0.26977508511E+03  0.00000000000E+00 0.  1.
         24    2    1    2    0    0  0.53111600872E+02 -0.56118277945E+02  0.26075914272E+03  0.28379896750E+03  0.81095130415E+02 0.  0.
        254    2    1    2    0    0 -0.53111600872E+02  0.56118277945E+02  0.52231493240E+03  0.10388252778E+04  0.89463677880E+03 0.  0.
         23    2    4    4    0    0  0.34469991621E+03  0.13167111738E+03  0.14451822005E+02  0.38283031282E+03  0.10096968787E+03 0.  0.
         23    2    4    4    0    0 -0.39781151708E+03 -0.75552839433E+02  0.50786311039E+03  0.65599496501E+03  0.91881557198E+02 0.  0.
          4    1    3    3  502    0  0.23009377149E+02 -0.65689015401E+02  0.22759262269E+03  0.23799764722E+03  0.00000000000E+00 0. -1.
         -3    1    3    3    0  502  0.30102223723E+02  0.95707374555E+01  0.33166520033E+02  0.45801320283E+02  0.00000000000E+00 0.  1.
         11    1    5    5    0    0  0.48955924926E+00 -0.94900679357E+01  0.48648234534E+01  0.10675559232E+02  0.00000000000E+00 0.  1.
        -11    1    5    5    0    0  0.34421035696E+03  0.14116118531E+03  0.95869985518E+01  0.37215475359E+03  0.00000000000E+00 0. -1.
          3    1    6    6  503    0 -0.10165041587E+03 -0.51594818583E+02  0.18426665939E+03  0.21667725795E+03  0.00000000000E+00 0. -1.
         -3    1    6    6    0  503 -0.29616110121E+03 -0.23958020850E+02  0.32359645100E+03  0.43931770705E+03  0.00000000000E+00 0.  1.
<mgrwt>
<rscale>  0 0.10658939E+04</rscale>
<asrwt>0</asrwt>
<pdfrwt beam="1">  1        2 0.16197679E+00 0.10658939E+04</pdfrwt>
<pdfrwt beam="2">  1       -1 0.41503860E-01 0.10658939E+04</pdfrwt>
<totfact> 0.15037264E+02</totfact>
</mgrwt>
</event>
<event>
12    6  0.1540825E-007  0.1532844E+04  0.7818608E-02  0.8862901E-01
         -1   -1    0    0    0  501 -0.00000000000E+00  0.00000000000E+00  0.45273402494E+03  0.45273402494E+03  0.00000000000E+00 0.  1.
          2   -1    0    0  501    0  0.00000000000E+00 -0.00000000000E+00 -0.12974569231E+04  0.12974569231E+04  0.00000000000E+00 0. -1.
         24    2    1    2    0    0 -0.38646010343E+03  0.92420789499E+02  0.47901109746E+02  0.40776070141E+03  0.77982430215E+02 0.  0.
        254    2    1    2    0    0  0.38646010343E+03 -0.92420789499E+02 -0.89262400794E+03  0.13424302467E+04  0.92056957030E+03 0.  0.
         23    2    4    4    0    0  0.46935374257E+03 -0.38648542829E+03 -0.33554010406E+03  0.70058603943E+03  0.92572756639E+02 0.  0.
         23    2    4    4    0    0 -0.82893639136E+02  0.29406463879E+03 -0.55708390388E+03  0.64184420725E+03  0.90973310453E+02 0.  0.
          4    1    3    3  502    0 -0.34619484050E+02  0.32093281461E+02  0.13679981524E+02  0.49149051724E+02  0.00000000000E+00 0. -1.
         -3    1    3    3    0  502 -0.35184061938E+03  0.60327508038E+02  0.34221128222E+02  0.35861164968E+03  0.00000000000E+00 0.  1.
         11    1    5    5    0    0  0.39267469337E+03 -0.27776450943E+03 -0.24622747465E+03  0.54034665427E+03  0.00000000000E+00 0.  1.
        -11    1    5    5    0    0  0.76679049194E+02 -0.10872091886E+03 -0.89312629406E+02  0.16023938515E+03  0.00000000000E+00 0. -1.
          1    1    6    6  503    0 -0.17925214128E+02  0.84220444757E+01 -0.12351039311E+02  0.23340786335E+02  0.00000000000E+00 0. -1.
         -1    1    6    6    0  503 -0.64968425008E+02  0.28564259431E+03 -0.54473286457E+03  0.61850342091E+03  0.00000000000E+00 0.  1.
<mgrwt>
<rscale>  0 0.15328443E+04</rscale>
<asrwt>0</asrwt>
<pdfrwt beam="1">  1        2 0.19960876E+00 0.15328443E+04</pdfrwt>
<pdfrwt beam="2">  1       -1 0.69651389E-01 0.15328443E+04</pdfrwt>
<totfact> 0.37993230E+01</totfact>
</mgrwt>
</event>
<event>
12    6  0.1540825E-007  0.1610469E+04  0.7818608E-02  0.8814142E-01
          2   -1    0    0  501    0  0.00000000000E+00  0.00000000000E+00  0.19194567822E+04  0.19194567822E+04  0.00000000000E+00 0. -1.
         -1   -1    0    0    0  501 -0.00000000000E+00 -0.00000000000E+00 -0.33780532720E+03  0.33780532720E+03  0.00000000000E+00 0.  1.
         24    2    1    2    0    0 -0.54118613355E+01  0.22004704023E+03 -0.16035117398E+03  0.28368584421E+03  0.79468050484E+02 0.  0.
        254    2    1    2    0    0  0.54118613355E+01 -0.22004704023E+03  0.17420026290E+04  0.19735762652E+04  0.90109939906E+03 0.  0.
         23    2    4    4    0    0 -0.22004249598E+03 -0.23279548616E+03  0.15429569604E+03  0.36707312682E+03  0.91230916918E+02 0.  0.
         23    2    4    4    0    0  0.22545435732E+03  0.12748445930E+02  0.15877069329E+04  0.16065031384E+04  0.95114870445E+02 0.  0.
          2    1    3    3  502    0 -0.35822918159E+02  0.75080186307E+02 -0.37512399146E+02  0.91255114547E+02  0.00000000000E+00 0. -1.
         -1    1    3    3    0  502  0.30411056823E+02  0.14496685393E+03 -0.12283877484E+03  0.19243072966E+03  0.00000000000E+00 0.  1.
         11    1    5    5    0    0 -0.20310847694E+03 -0.16367768922E+03  0.13295199473E+03  0.29277922101E+03  0.00000000000E+00 0.  1.
        -11    1    5    5    0    0 -0.16934019044E+02 -0.69117796939E+02  0.21343701313E+02  0.74293905810E+02  0.00000000000E+00 0. -1.
          3    1    6    6  503    0  0.35912871597E+01 -0.25555875992E+01  0.27902355456E+03  0.27905836732E+03  0.00000000000E+00 0. -1.
         -3    1    6    6    0  503  0.22186307016E+03  0.15304033529E+02  0.13086833784E+04  0.13274447710E+04  0.00000000000E+00 0.  1.
<mgrwt>
<rscale>  0 0.16104692E+04</rscale>
<asrwt>0</asrwt>
<pdfrwt beam="1">  1        2 0.29530104E+00 0.16104692E+04</pdfrwt>
<pdfrwt beam="2">  1       -1 0.51970051E-01 0.16104692E+04</pdfrwt>
<totfact> 0.30137300E+01</totfact>
</mgrwt>
</event>
<event>
12    6  0.1540825E-007  0.1530286E+04  0.7818608E-02  0.8864559E-01
          2   -1    0    0  501    0  0.00000000000E+00  0.00000000000E+00  0.14406623832E+04  0.14406623832E+04  0.00000000000E+00 0. -1.
         -1   -1    0    0    0  501 -0.00000000000E+00 -0.00000000000E+00 -0.40637116783E+03  0.40637116783E+03  0.00000000000E+00 0.  1.
         24    2    1    2    0    0 -0.32419081118E+03 -0.32067660660E+03  0.57775021050E+03  0.74020948697E+03  0.78623220436E+02 0.  0.
        254    2    1    2    0    0  0.32419081118E+03  0.32067660660E+03  0.45654100482E+03  0.11068240640E+04  0.89927562601E+03 0.  0.
         23    2    4    4    0    0  0.25327160528E+03  0.27486281971E+02  0.67250465758E+03  0.72449141797E+03  0.87882299201E+02 0.  0.
         23    2    4    4    0    0  0.70919205897E+02  0.29319032463E+03 -0.21596365276E+03  0.38233264605E+03  0.92454598030E+02 0.  0.
          4    1    3    3  502    0 -0.11730634833E+03 -0.10910841476E+03  0.26496716258E+03  0.30963369128E+03  0.00000000000E+00 0. -1.
         -3    1    3    3    0  502 -0.20688446285E+03 -0.21156819184E+03  0.31278304792E+03  0.43057579569E+03  0.00000000000E+00 0.  1.
         11    1    5    5    0    0  0.81257586389E+02  0.42396444753E+02  0.30452773204E+03  0.31802105819E+03  0.00000000000E+00 0. -1.
        -11    1    5    5    0    0  0.17201401889E+03 -0.14910162782E+02  0.36797692554E+03  0.40647035978E+03  0.00000000000E+00 0.  1.
          3    1    6    6  503    0  0.37056220765E+02  0.26809778744E+03 -0.16830010955E+03  0.31870756816E+03  0.00000000000E+00 0.  1.
         -3    1    6    6    0  503  0.33862985132E+02  0.25092537190E+02 -0.47663543208E+02  0.63625077884E+02  0.00000000000E+00 0. -1.
<mgrwt>
<rscale>  0 0.15302858E+04</rscale>
<asrwt>0</asrwt>
<pdfrwt beam="1">  1        2 0.22164036E+00 0.15302858E+04</pdfrwt>
<pdfrwt beam="2">  1       -1 0.62518642E-01 0.15302858E+04</pdfrwt>
<totfact> 0.39104100E+01</totfact>
</mgrwt>
</event>
<event>
12    6  0.1540825E-007  0.1979548E+04  0.7818608E-02  0.8616243E-01
          2   -1    0    0  501    0  0.00000000000E+00  0.00000000000E+00  0.91155777508E+03  0.91155777508E+03  0.00000000000E+00 0. -1.
         -1   -1    0    0    0  501 -0.00000000000E+00 -0.00000000000E+00 -0.10747012270E+04  0.10747012270E+04  0.00000000000E+00 0.  1.
         24    2    1    2    0    0 -0.61048651042E+02 -0.65291656839E+03  0.37257826809E+03  0.75842698884E+03  0.79811956984E+02 0.  0.
        254    2    1    2    0    0  0.61048651042E+02  0.65291656839E+03 -0.53572172003E+03  0.12278320133E+04  0.88912693606E+03 0.  0.
         23    2    4    4    0    0  0.17032134142E+03  0.83106825682E+03 -0.31215210629E+03  0.90854502717E+03  0.91276076254E+02 0.  0.
         23    2    4    4    0    0 -0.10927269038E+03 -0.17815168843E+03 -0.22356961373E+03  0.31928698610E+03  0.91006935736E+02 0.  0.
          4    1    3    3  502    0 -0.38715226735E+02 -0.53088062500E+03  0.33443385284E+03  0.62863272959E+03  0.00000000000E+00 0. -1.
         -3    1    3    3    0  502 -0.22333424306E+02 -0.12203594339E+03  0.38144415243E+02  0.12979425925E+03  0.00000000000E+00 0.  1.
         11    1    5    5    0    0  0.39418390690E+01  0.32251875260E+01 -0.10878380876E+02  0.12011623550E+02  0.00000000000E+00 0.  1.
        -11    1    5    5    0    0  0.16637950235E+03  0.82784306930E+03 -0.30127372542E+03  0.89653340362E+03  0.00000000000E+00 0. -1.
          3    1    6    6  503    0 -0.77906869625E+02 -0.57025309763E+02 -0.61236080461E+02  0.11432945307E+03  0.00000000000E+00 0. -1.
         -3    1    6    6    0  503 -0.31365820754E+02 -0.12112637867E+03 -0.16233353327E+03  0.20495753303E+03  0.00000000000E+00 0.  1.
<mgrwt>
<rscale>  0 0.19795477E+04</rscale>
<asrwt>0</asrwt>
<pdfrwt beam="1">  1        2 0.14023966E+00 0.19795477E+04</pdfrwt>
<pdfrwt beam="2">  1       -1 0.16533865E+00 0.19795477E+04</pdfrwt>
<totfact> 0.81470801E+00</totfact>
</mgrwt>
</event>
<event>
12    6  0.1540825E-007  0.1270124E+04  0.7818608E-02  0.9053599E-01
         -1   -1    0    0    0  501 -0.00000000000E+00  0.00000000000E+00  0.16900601793E+03  0.16900601793E+03  0.00000000000E+00 0.  1.
          2   -1    0    0  501    0  0.00000000000E+00 -0.00000000000E+00 -0.23863269797E+04  0.23863269797E+04  0.00000000000E+00 0. -1.
         24    2    1    2    0    0  0.14250186759E+03 -0.15175407513E+03 -0.99215692901E+03  0.10167053128E+04  0.77319076718E+02 0.  0.
        254    2    1    2    0    0 -0.14250186759E+03  0.15175407513E+03 -0.12251640327E+04  0.15386276848E+04  0.90720017851E+03 0.  0.
         23    2    4    4    0    0 -0.38838445979E+03 -0.16055770058E+03 -0.96044244009E+03  0.10523789720E+04  0.91818059810E+02 0.  0.
         23    2    4    4    0    0  0.24588259220E+03  0.31231177572E+03 -0.26472159262E+03  0.48624871285E+03  0.91451597862E+02 0.  0.
          4    1    3    3  502    0  0.11595726768E+03 -0.93456727119E+02 -0.54495768714E+03  0.56494170367E+03  0.00000000000E+00 0. -1.
         -3    1    3    3    0  502  0.26544599916E+02 -0.58297348015E+02 -0.44719924187E+03  0.45176360909E+03  0.00000000000E+00 0.  1.
         11    1    5    5    0    0 -0.88116527459E+02 -0.20077151100E+02 -0.13106253851E+03  0.15920114136E+03  0.00000000000E+00 0. -1.
        -11    1    5    5    0    0 -0.30026793233E+03 -0.14048054949E+03 -0.82937990158E+03  0.89317783062E+03  0.00000000000E+00 0.  1.
          3    1    6    6  503    0  0.10168267791E+03  0.11244858797E+03 -0.15388433844E+03  0.21601953972E+03  0.00000000000E+00 0. -1.
         -3    1    6    6    0  503  0.14419991429E+03  0.19986318775E+03 -0.11083725418E+03  0.27022917313E+03  0.00000000000E+00 0.  1.
<mgrwt>
<rscale>  0 0.12701238E+04</rscale>
<asrwt>0</asrwt>
<pdfrwt beam="1">  1        2 0.36712721E+00 0.12701238E+04</pdfrwt>
<pdfrwt beam="2">  1       -1 0.26000927E-01 0.12701238E+04</pdfrwt>
<totfact> 0.59518947E+01</totfact>
</mgrwt>
</event>
<event>
12    6  0.1540825E-007  0.1370228E+04  0.7818608E-02  0.8975655E-01
         -1   -1    0    0    0  501 -0.00000000000E+00  0.00000000000E+00  0.32904182908E+03  0.32904182908E+03  0.00000000000E+00 0.  1.
          2   -1    0    0  501    0  0.00000000000E+00 -0.00000000000E+00 -0.14265094160E+04  0.14265094160E+04  0.00000000000E+00 0. -1.
         24    2    1    2    0    0 -0.29379774001E+03  0.25062353892E+03 -0.26472370901E+03  0.47463530949E+03  0.77915111546E+02 0.  0.
        254    2    1    2    0    0  0.29379774001E+03 -0.25062353892E+03 -0.83274387789E+03  0.12809159356E+04  0.89339464825E+03 0.  0.
         23    2    4    4    0    0  0.15666959914E+03 -0.21853037532E+03  0.12331900423E+03  0.30916887596E+03  0.89871735437E+02 0.  0.
         23    2    4    4    0    0  0.13712814086E+03 -0.32093163610E+02 -0.95606288212E+03  0.97174705960E+03  0.10199026963E+03 0.  0.
          4    1    3    3  502    0 -0.43730059857E+02  0.62990497678E+02 -0.83096440524E+02  0.11307139055E+03  0.00000000000E+00 0. -1.
         -1    1    3    3    0  502 -0.25006768015E+03  0.18763304125E+03 -0.18162726848E+03  0.36156391894E+03  0.00000000000E+00 0.  1.
         11    1    5    5    0    0  0.91509328233E+02 -0.59428779613E+02  0.67966351751E+02  0.12855023131E+03  0.00000000000E+00 0.  1.
        -11    1    5    5    0    0  0.65160270909E+02 -0.15910159570E+03  0.55352652478E+02  0.18061864465E+03  0.00000000000E+00 0. -1.
          4    1    6    6  503    0  0.55938733199E+00 -0.68890802370E+00  0.26769307055E+01  0.28201890813E+01  0.00000000000E+00 0. -1.
         -4    1    6    6    0  503  0.13656875353E+03 -0.31404255586E+02 -0.95873981283E+03  0.96892687052E+03  0.00000000000E+00 0.  1.
<mgrwt>
<rscale>  0 0.13702281E+04</rscale>
<asrwt>0</asrwt>
<pdfrwt beam="1">  1        2 0.21946299E+00 0.13702281E+04</pdfrwt>
<pdfrwt beam="2">  1       -1 0.50621819E-01 0.13702281E+04</pdfrwt>
<totfact> 0.60884203E+01</totfact>
</mgrwt>
</event>
<event>
12    6  0.1540825E-007  0.1965217E+04  0.7818608E-02  0.8623058E-01
          2   -1    0    0  501    0  0.00000000000E+00  0.00000000000E+00  0.91436990447E+03  0.91436990447E+03  0.00000000000E+00 0. -1.
         -1   -1    0    0    0  501 -0.00000000000E+00 -0.00000000000E+00 -0.10559394392E+04  0.10559394392E+04  0.00000000000E+00 0.  1.
         24    2    1    2    0    0  0.40091855956E+03 -0.12204759900E+03 -0.70768255741E+03  0.82618187875E+03  0.78298064391E+02 0.  0.
        254    2    1    2    0    0 -0.40091855956E+03  0.12204759900E+03  0.56611302267E+03  0.11441274649E+04  0.90161654474E+03 0.  0.
         23    2    4    4    0    0  0.27805046719E+03  0.10041153208E+03  0.18364688878E+03  0.35936073439E+03  0.89551212091E+02 0.  0.
         23    2    4    4    0    0 -0.67896902674E+03  0.21636066925E+02  0.38246613389E+03  0.78476673054E+03  0.90063417209E+02 0.  0.
          4    1    3    3  502    0  0.82678663161E+02  0.28626004871E+01 -0.16916291406E+03  0.18830838356E+03  0.00000000000E+00 0. -1.
         -3    1    3    3    0  502  0.31823989640E+03 -0.12491019949E+03 -0.53851964335E+03  0.63787349519E+03  0.00000000000E+00 0.  1.
         11    1    5    5    0    0  0.24640301363E+02  0.39070004608E+02  0.43038247938E+02  0.63133988445E+02  0.00000000000E+00 0. -1.
        -11    1    5    5    0    0  0.25341016582E+03  0.61341527470E+02  0.14060864085E+03  0.29622674595E+03  0.00000000000E+00 0.  1.
          2    1    6    6  503    0 -0.16388297763E+03 -0.32649098638E+02  0.84900885395E+02  0.18743466686E+03  0.00000000000E+00 0. -1.
         -2    1    6    6    0  503 -0.51508604911E+03  0.54285165563E+02  0.29756524849E+03  0.59733206368E+03  0.00000000000E+00 0.  1.
<mgrwt>
<rscale>  0 0.19652168E+04</rscale>
<asrwt>0</asrwt>
<pdfrwt beam="1">  1        2 0.14067229E+00 0.19652168E+04</pdfrwt>
<pdfrwt beam="2">  1       -1 0.16245222E+00 0.19652168E+04</pdfrwt>
<totfact> 0.85358570E+00</totfact>
</mgrwt>
</event>
<event>
12    6  0.1540825E-007  0.1853930E+04  0.7818608E-02  0.8678134E-01
          2   -1    0    0  501    0  0.00000000000E+00  0.00000000000E+00  0.38957536765E+04  0.38957536765E+04  0.00000000000E+00 0. -1.
         -1   -1    0    0    0  501 -0.00000000000E+00 -0.00000000000E+00 -0.22056435415E+03  0.22056435415E+03  0.00000000000E+00 0.  1.
         24    2    1    2    0    0  0.22842031048E+03 -0.36596290874E+03  0.26489794582E+04  0.26850358696E+04  0.78871808305E+02 0.  0.
        254    2    1    2    0    0 -0.22842031048E+03  0.36596290874E+03  0.10262098641E+04  0.14312821610E+04  0.89964284605E+03 0.  0.
         23    2    4    4    0    0 -0.49746182234E+03  0.19058245874E+03  0.94342024986E+03  0.10871188054E+04  0.89418068092E+02 0.  0.
         23    2    4    4    0    0  0.26904151185E+03  0.17538045000E+03  0.82789614234E+02  0.34416335563E+03  0.91938336895E+02 0.  0.
          4    1    3    3  502    0  0.10007990613E+03 -0.23371364650E+03  0.15219880200E+04  0.15430766634E+04  0.00000000000E+00 0. -1.
         -3    1    3    3    0  502  0.12834040435E+03 -0.13224926224E+03  0.11269914383E+04  0.11419592062E+04  0.00000000000E+00 0.  1.
         11    1    5    5    0    0 -0.41829018332E+03  0.16348280645E+03  0.72047442412E+03  0.84898568968E+03  0.00000000000E+00 0.  1.
        -11    1    5    5    0    0 -0.79171639015E+02  0.27099652293E+02  0.22294582574E+03  0.23813311570E+03  0.00000000000E+00 0. -1.
          2    1    6    6  503    0  0.72454523699E+02  0.64078016797E+02 -0.15211982292E+02  0.97913505944E+02  0.00000000000E+00 0. -1.
         -2    1    6    6    0  503  0.19658698815E+03  0.11130243320E+03  0.98001596527E+02  0.24624984969E+03  0.00000000000E+00 0.  1.
<mgrwt>
<rscale>  0 0.18539303E+04</rscale>
<asrwt>0</asrwt>
<pdfrwt beam="1">  1        2 0.59934667E+00 0.18539303E+04</pdfrwt>
<pdfrwt beam="2">  1       -1 0.33932980E-01 0.18539303E+04</pdfrwt>
<totfact> 0.36796174E+00</totfact>
</mgrwt>
</event>
<event>
12    6  0.1540825E-007  0.1239057E+04  0.7818608E-02  0.9079340E-01
         -1   -1    0    0    0  501 -0.00000000000E+00  0.00000000000E+00  0.12753449143E+03  0.12753449143E+03  0.00000000000E+00 0.  1.
          2   -1    0    0  501    0  0.00000000000E+00 -0.00000000000E+00 -0.30095045930E+04  0.30095045930E+04  0.00000000000E+00 0. -1.
         24    2    1    2    0    0 -0.22224554913E+03 -0.15857227984E+03 -0.51046770743E+03  0.58473226418E+03  0.82439604615E+02 0.  0.
        254    2    1    2    0    0  0.22224554913E+03  0.15857227984E+03 -0.23715023942E+04  0.25523068203E+04  0.90316568094E+03 0.  0.
         23    2    4    4    0    0 -0.26791395466E+03 -0.18504765243E+03 -0.85201416994E+03  0.91663154949E+03  0.90910565799E+02 0.  0.
         23    2    4    4    0    0  0.49015950379E+03  0.34361993228E+03 -0.15194882242E+04  0.16356752708E+04  0.90874258551E+02 0.  0.
          4    1    3    3  502    0 -0.25751226490E+02 -0.22893457324E+02 -0.13845255062E+03  0.14267566305E+03  0.00000000000E+00 0. -1.
         -3    1    3    3    0  502 -0.19649432264E+03 -0.13567882252E+03 -0.37201515680E+03  0.44205660113E+03  0.00000000000E+00 0.  1.
         11    1    5    5    0    0 -0.24182054987E+03 -0.19432003289E+03 -0.77444813657E+03  0.83427056148E+03  0.00000000000E+00 0.  1.
        -11    1    5    5    0    0 -0.26093404788E+02  0.92723804591E+01 -0.77566033373E+02  0.82360988010E+02  0.00000000000E+00 0. -1.
          4    1    6    6  503    0  0.14062688586E+03  0.56056804261E+02 -0.33347112022E+03  0.36622571503E+03  0.00000000000E+00 0. -1.
         -4    1    6    6    0  503  0.34953261793E+03  0.28756312802E+03 -0.11860171040E+04  0.12694495558E+04  0.00000000000E+00 0.  1.
<mgrwt>
<rscale>  0 0.12390571E+04</rscale>
<asrwt>0</asrwt>
<pdfrwt beam="1">  1        2 0.46300071E+00 0.12390571E+04</pdfrwt>
<pdfrwt beam="2">  1       -1 0.19620691E-01 0.12390571E+04</pdfrwt>
<totfact> 0.41208506E+01</totfact>
</mgrwt>
</event>
<event>
12    6  0.1540825E-007  0.1420645E+04  0.7818608E-02  0.8939009E-01
         -1   -1    0    0    0  501 -0.00000000000E+00  0.00000000000E+00  0.13030232945E+04  0.13030232945E+04  0.00000000000E+00 0.  1.
          2   -1    0    0  501    0  0.00000000000E+00 -0.00000000000E+00 -0.38722081386E+03  0.38722081386E+03  0.00000000000E+00 0. -1.
         24    2    1    2    0    0  0.36862953429E+03 -0.15571625270E+03  0.15216833577E+03  0.43532065077E+03  0.78826275289E+02 0.  0.
        254    2    1    2    0    0 -0.36862953429E+03  0.15571625270E+03  0.76363414488E+03  0.12549234576E+04  0.91189938717E+03 0.  0.
         23    2    4    4    0    0  0.27789128546E+03 -0.38330729197E+02  0.34974913303E+03  0.45747525876E+03  0.90919442284E+02 0.  0.
         23    2    4    4    0    0 -0.64652081975E+03  0.19404698189E+03  0.41388501184E+03  0.79744819884E+03  0.94759829304E+02 0.  0.
          2    1    3    3  502    0  0.19911017394E+00 -0.27215777556E+01  0.12267068930E+02  0.12566925259E+02  0.00000000000E+00 0. -1.
         -1    1    3    3    0  502  0.36843042411E+03 -0.15299467494E+03  0.13990126684E+03  0.42275372552E+03  0.00000000000E+00 0.  1.
         11    1    5    5    0    0  0.42327984674E+02  0.42825680159E+01  0.11320492766E+03  0.12093533115E+03  0.00000000000E+00 0.  1.
        -11    1    5    5    0    0  0.23556330079E+03 -0.42613297213E+02  0.23654420538E+03  0.33653992761E+03  0.00000000000E+00 0. -1.
          1    1    6    6  503    0 -0.16935388098E+03  0.94271950543E+02  0.12887424907E+03  0.23275847941E+03  0.00000000000E+00 0. -1.
         -1    1    6    6    0  503 -0.47716693877E+03  0.99775031350E+02  0.28501076278E+03  0.56468971943E+03  0.00000000000E+00 0.  1.
<mgrwt>
<rscale>  0 0.14206446E+04</rscale>
<asrwt>0</asrwt>
<pdfrwt beam="1">  1        2 0.59572433E-01 0.14206446E+04</pdfrwt>
<pdfrwt beam="2">  1       -1 0.20046512E+00 0.14206446E+04</pdfrwt>
<totfact> 0.13703773E+01</totfact>
</mgrwt>
</event>
<event>
12    6  0.1540825E-007  0.1738048E+04  0.7818608E-02  0.8739957E-01
         -1   -1    0    0    0  501 -0.00000000000E+00  0.00000000000E+00  0.36385596073E+03  0.36385596073E+03  0.00000000000E+00 0.  1.
          2   -1    0    0  501    0  0.00000000000E+00 -0.00000000000E+00 -0.20755538796E+04  0.20755538796E+04  0.00000000000E+00 0. -1.
         24    2    1    2    0    0 -0.27766638529E+03 -0.26612823402E+03  0.76662230271E+02  0.40046136050E+03  0.81051497458E+02 0.  0.
        254    2    1    2    0    0  0.27766638529E+03  0.26612823402E+03 -0.17883601491E+04  0.20389484798E+04  0.90064200540E+03 0.  0.
         23    2    4    4    0    0  0.25268333911E+03 -0.86336381061E+02 -0.81811876350E+02  0.29396141059E+03  0.91745775102E+02 0.  0.
         23    2    4    4    0    0  0.24983046186E+02  0.35246461508E+03 -0.17065482727E+04  0.17449870692E+04  0.88416101245E+02 0.  0.
          2    1    3    3  502    0 -0.15593547073E+03 -0.15349196101E+03  0.25802486852E+01  0.21882027056E+03  0.00000000000E+00 0. -1.
         -1    1    3    3    0  502 -0.12173091456E+03 -0.11263627301E+03  0.74081981586E+02  0.18164108994E+03  0.00000000000E+00 0.  1.
         11    1    5    5    0    0  0.28363179100E+02 -0.24242480395E+02 -0.44765113021E+02  0.58275922371E+02  0.00000000000E+00 0.  1.
        -11    1    5    5    0    0  0.22432016001E+03 -0.62093900666E+02 -0.37046763329E+02  0.23568548822E+03  0.00000000000E+00 0. -1.
          4    1    6    6  503    0 -0.29344784475E+02  0.14895274132E+03 -0.63092970027E+03  0.64893784155E+03  0.00000000000E+00 0.  1.
         -4    1    6    6    0  503  0.54327830661E+02  0.20351187376E+03 -0.10756185725E+04  0.10960492276E+04  0.00000000000E+00 0. -1.
<mgrwt>
<rscale>  0 0.17380479E+04</rscale>
<asrwt>0</asrwt>
<pdfrwt beam="1">  1        2 0.31931598E+00 0.17380479E+04</pdfrwt>
<pdfrwt beam="2">  1       -1 0.55977841E-01 0.17380479E+04</pdfrwt>
<totfact> 0.21154495E+01</totfact>
</mgrwt>
</event>
<event>
12    6  0.1540825E-007  0.2335877E+04  0.7818608E-02  0.8463908E-01
          2   -1    0    0  501    0  0.00000000000E+00  0.00000000000E+00  0.24779718456E+04  0.24779718456E+04  0.00000000000E+00 0. -1.
         -1   -1    0    0    0  501 -0.00000000000E+00 -0.00000000000E+00 -0.55048275217E+03  0.55048275217E+03  0.00000000000E+00 0.  1.
         24    2    1    2    0    0 -0.50129421196E+02 -0.42614866724E+02 -0.46062735853E+03  0.47145432474E+03  0.75911996060E+02 0.  0.
        254    2    1    2    0    0  0.50129421196E+02  0.42614866724E+02  0.23881164520E+04  0.25570002730E+04  0.91149395083E+03 0.  0.
         23    2    4    4    0    0  0.43459556731E+03  0.16834488218E+02  0.17538594898E+04  0.18093117108E+04  0.91809855959E+02 0.  0.
         23    2    4    4    0    0 -0.38446614611E+03  0.25780378506E+02  0.63425696220E+03  0.74768856229E+03  0.90980474062E+02 0.  0.
          2    1    3    3  502    0  0.12523678284E+01  0.16610357089E+02 -0.36243540372E+02  0.39888176275E+02  0.00000000000E+00 0. -1.
         -3    1    3    3    0  502 -0.51381789024E+02 -0.59225223814E+02 -0.42438381816E+03  0.43156614846E+03  0.00000000000E+00 0.  1.
         11    1    5    5    0    0  0.12235880316E+00 -0.12756811707E+01  0.76223010989E+02  0.76233783445E+02  0.00000000000E+00 0. -1.
        -11    1    5    5    0    0  0.43447320851E+03  0.18110169388E+02  0.16776364788E+04  0.17330779273E+04  0.00000000000E+00 0.  1.
          1    1    6    6  503    0 -0.45109082771E+02 -0.25806337768E+02  0.99273676482E+02  0.11205382305E+03  0.00000000000E+00 0. -1.
         -1    1    6    6    0  503 -0.33935706334E+03  0.51586716275E+02  0.53498328571E+03  0.63563473924E+03  0.00000000000E+00 0.  1.
<mgrwt>
<rscale>  0 0.23358774E+04</rscale>
<asrwt>0</asrwt>
<pdfrwt beam="1">  1        2 0.38122643E+00 0.23358774E+04</pdfrwt>
<pdfrwt beam="2">  1       -1 0.84689656E-01 0.23358774E+04</pdfrwt>
<totfact> 0.50875711E+00</totfact>
</mgrwt>
</event>
<event>
12    6  0.1540825E-007  0.2253343E+04  0.7818608E-02  0.8496548E-01
          2   -1    0    0  501    0  0.00000000000E+00  0.00000000000E+00  0.28858857070E+04  0.28858857070E+04  0.00000000000E+00 0. -1.
         -1   -1    0    0    0  501 -0.00000000000E+00 -0.00000000000E+00 -0.43986098017E+03  0.43986098017E+03  0.00000000000E+00 0.  1.
         24    2    1    2    0    0 -0.18193485682E+03  0.51577285841E+02  0.23001688667E+04  0.23093363199E+04  0.80603440881E+02 0.  0.
        254    2    1    2    0    0  0.18193485682E+03 -0.51577285841E+02  0.14585586018E+03  0.10164103673E+04  0.98795525923E+03 0.  0.
         23    2    4    4    0    0  0.49648706717E+03  0.10005297749E+03 -0.16439188682E+03  0.54047926226E+03  0.92645206584E+02 0.  0.
         23    2    4    4    0    0 -0.31455221035E+03 -0.15163026333E+03  0.31024774700E+03  0.47593110503E+03  0.91224571370E+02 0.  0.
          2    1    3    3  502    0 -0.14314929984E+03  0.18208605404E+02  0.19642385428E+04  0.19695320075E+04  0.00000000000E+00 0. -1.
         -1    1    3    3    0  502 -0.38785556988E+02  0.33368680437E+02  0.33593032384E+03  0.33980431242E+03  0.00000000000E+00 0.  1.
         11    1    5    5    0    0  0.37061376242E+03  0.41143721050E+02 -0.14529350417E+03  0.40019691282E+03  0.00000000000E+00 0. -1.
        -11    1    5    5    0    0  0.12587330475E+03  0.58909256437E+02 -0.19098382650E+02  0.14028234944E+03  0.00000000000E+00 0.  1.
          1    1    6    6  503    0 -0.18214673299E+03 -0.40326768714E+02  0.18171923198E+03  0.26043340777E+03  0.00000000000E+00 0. -1.
         -1    1    6    6    0  503 -0.13240547736E+03 -0.11130349461E+03  0.12852851502E+03  0.21549769725E+03  0.00000000000E+00 0.  1.
<mgrwt>
<rscale>  0 0.22533429E+04</rscale>
<asrwt>0</asrwt>
<pdfrwt beam="1">  1        2 0.44398240E+00 0.22533429E+04</pdfrwt>
<pdfrwt beam="2">  1       -1 0.67670922E-01 0.22533429E+04</pdfrwt>
<totfact> 0.46963292E+00</totfact>
</mgrwt>
</event>
<event>
12    6  0.1540825E-007  0.1604486E+04  0.7818608E-02  0.8817797E-01
         -1   -1    0    0    0  501 -0.00000000000E+00  0.00000000000E+00  0.11019233719E+04  0.11019233719E+04  0.00000000000E+00 0.  1.
          2   -1    0    0  501    0  0.00000000000E+00 -0.00000000000E+00 -0.58406373817E+03  0.58406373817E+03  0.00000000000E+00 0. -1.
         24    2    1    2    0    0 -0.49646852717E+03  0.38943333309E+02  0.40351838342E+03  0.64594061339E+03  0.80091251619E+02 0.  0.
        254    2    1    2    0    0  0.49646852717E+03 -0.38943333309E+02  0.11434125032E+03  0.10400464967E+04  0.90588366365E+03 0.  0.
         23    2    4    4    0    0  0.22678036223E+03 -0.44080039296E+03 -0.80714114939E+02  0.51039187235E+03  0.90833781608E+02 0.  0.
         23    2    4    4    0    0  0.26968816494E+03  0.40185705965E+03  0.19505536526E+03  0.52965462434E+03  0.90920970438E+02 0.  0.
          4    1    3    3  502    0 -0.24242678495E+03 -0.21886104693E+01  0.23937741279E+03  0.34070086855E+03  0.00000000000E+00 0. -1.
         -3    1    3    3    0  502 -0.25404174222E+03  0.41131943778E+02  0.16414097063E+03  0.30523974483E+03  0.00000000000E+00 0.  1.
         11    1    5    5    0    0  0.57134000700E+02 -0.16394657165E+03 -0.64766747177E+02  0.18530381521E+03  0.00000000000E+00 0.  1.
        -11    1    5    5    0    0  0.16964636153E+03 -0.27685382131E+03 -0.15947367762E+02  0.32508805714E+03  0.00000000000E+00 0. -1.
          2    1    6    6  503    0  0.13985463041E+03  0.28619098470E+03  0.12442459461E+03  0.34197379595E+03  0.00000000000E+00 0. -1.
         -2    1    6    6    0  503  0.12983353453E+03  0.11566607496E+03  0.70630770643E+02  0.18768082839E+03  0.00000000000E+00 0.  1.
<mgrwt>
<rscale>  0 0.16044856E+04</rscale>
<asrwt>0</asrwt>
<pdfrwt beam="1">  1        2 0.89855960E-01 0.16044856E+04</pdfrwt>
<pdfrwt beam="2">  1       -1 0.16952667E+00 0.16044856E+04</pdfrwt>
<totfact> 0.13919340E+01</totfact>
</mgrwt>
</event>
<event>
12    6  0.1540825E-007  0.1790101E+04  0.7818608E-02  0.8711581E-01
         -1   -1    0    0    0  501 -0.00000000000E+00  0.00000000000E+00  0.21831069942E+03  0.21831069942E+03  0.00000000000E+00 0.  1.
          2   -1    0    0  501    0  0.00000000000E+00 -0.00000000000E+00 -0.36696127926E+04  0.36696127926E+04  0.00000000000E+00 0. -1.
         24    2    1    2    0    0 -0.76458490240E+02 -0.27773741596E+03  0.96459745425E+01  0.29997497296E+03  0.83114178219E+02 0.  0.
        254    2    1    2    0    0  0.76458490240E+02  0.27773741596E+03 -0.34609480677E+04  0.35879485191E+04  0.90123752424E+03 0.  0.
         23    2    4    4    0    0  0.23706740989E+02  0.49151312206E+03 -0.31810741090E+04  0.32202244695E+04  0.92010804789E+02 0.  0.
         23    2    4    4    0    0  0.52751749251E+02 -0.21377570610E+03 -0.27987395871E+03  0.36772404957E+03  0.91699205588E+02 0.  0.
          4    1    3    3  502    0  0.92651883018E+01 -0.21989600803E+00  0.16204893093E+01  0.94084033780E+01  0.00000000000E+00 0. -1.
         -3    1    3    3    0  502 -0.85723678541E+02 -0.27751751995E+03  0.80254852333E+01  0.29056656958E+03  0.00000000000E+00 0.  1.
         11    1    5    5    0    0  0.44162852005E+02  0.26375677149E+03 -0.19275795751E+04  0.19460423969E+04  0.00000000000E+00 0. -1.
        -11    1    5    5    0    0 -0.20456111017E+02  0.22775635056E+03 -0.12534945339E+04  0.12741820726E+04  0.00000000000E+00 0.  1.
          2    1    6    6  503    0  0.66254447476E+02 -0.18690590687E+03 -0.19682607706E+03  0.27939931003E+03  0.00000000000E+00 0. -1.
         -2    1    6    6    0  503 -0.13502698225E+02 -0.26869799229E+02 -0.83047881645E+02  0.88324739544E+02  0.00000000000E+00 0.  1.
<mgrwt>
<rscale>  0 0.17901014E+04</rscale>
<asrwt>0</asrwt>
<pdfrwt beam="1">  1        2 0.56455576E+00 0.17901014E+04</pdfrwt>
<pdfrwt beam="2">  1       -1 0.33586265E-01 0.17901014E+04</pdfrwt>
<totfact> 0.55798426E+00</totfact>
</mgrwt>
</event>
<event>
12    6  0.1540825E-007  0.1812714E+04  0.7818608E-02  0.8699567E-01
          2   -1    0    0  501    0  0.00000000000E+00  0.00000000000E+00  0.17928763918E+04  0.17928763918E+04  0.00000000000E+00 0. -1.
         -1   -1    0    0    0  501 -0.00000000000E+00 -0.00000000000E+00 -0.45819300762E+03  0.45819300762E+03  0.00000000000E+00 0.  1.
         24    2    1    2    0    0 -0.38054191415E+03 -0.54756607692E+03  0.63197763661E+03  0.92243594031E+03  0.82774233812E+02 0.  0.
        254    2    1    2    0    0  0.38054191415E+03  0.54756607692E+03  0.70270574755E+03  0.13286334591E+04  0.90930233913E+03 0.  0.
         23    2    4    4    0    0  0.58876882750E+03  0.25560374313E+03  0.70626707802E+03  0.95864907416E+03  0.90624809850E+02 0.  0.
         23    2    4    4    0    0 -0.20822691335E+03  0.29196233379E+03 -0.35613304710E+01  0.36998438492E+03  0.90968732098E+02 0.  0.
          2    1    3    3  502    0 -0.14999497381E+03 -0.21656439538E+03  0.19511174209E+03  0.32782193553E+03  0.00000000000E+00 0. -1.
         -1    1    3    3    0  502 -0.23054694033E+03 -0.33100168154E+03  0.43686589453E+03  0.59461400478E+03  0.00000000000E+00 0.  1.
         11    1    5    5    0    0  0.55294011608E+03  0.21364774573E+03  0.65363958666E+03  0.88240174551E+03  0.00000000000E+00 0. -1.
        -11    1    5    5    0    0  0.35828711415E+02  0.41955997404E+02  0.52627491357E+02  0.76247328651E+02  0.00000000000E+00 0.  1.
          4    1    6    6  503    0 -0.13488558836E+03  0.11446560556E+03 -0.15335656935E+02  0.17757161704E+03  0.00000000000E+00 0. -1.
         -4    1    6    6    0  503 -0.73341324988E+02  0.17749672822E+03  0.11774326464E+02  0.19241276788E+03  0.00000000000E+00 0.  1.
<mgrwt>
<rscale>  0 0.18127145E+04</rscale>
<asrwt>0</asrwt>
<pdfrwt beam="1">  1        2 0.27582713E+00 0.18127145E+04</pdfrwt>
<pdfrwt beam="2">  1       -1 0.70491233E-01 0.18127145E+04</pdfrwt>
<totfact> 0.19021866E+01</totfact>
</mgrwt>
</event>
<event>
12    6  0.1540825E-007  0.1221671E+04  0.7818608E-02  0.9094097E-01
          2   -1    0    0  501    0  0.00000000000E+00  0.00000000000E+00  0.82343114189E+03  0.82343114189E+03  0.00000000000E+00 0. -1.
         -1   -1    0    0    0  501 -0.00000000000E+00 -0.00000000000E+00 -0.45312817674E+03  0.45312817674E+03  0.00000000000E+00 0.  1.
         24    2    1    2    0    0  0.29201785979E+02 -0.50013166353E+02 -0.18912202371E+03  0.21219835363E+03  0.76856621828E+02 0.  0.
        254    2    1    2    0    0 -0.29201785979E+02  0.50013166353E+02  0.55942498887E+03  0.10643609650E+04  0.90363371148E+03 0.  0.
         23    2    4    4    0    0 -0.32410323291E+03  0.19756005209E+03  0.60479188394E+03  0.71960960776E+03  0.89397342972E+02 0.  0.
         23    2    4    4    0    0  0.29490144693E+03 -0.14754688574E+03 -0.45366895076E+02  0.34475135724E+03  0.89768570530E+02 0.  0.
          2    1    3    3  502    0  0.11958289536E+02  0.20432595806E+02 -0.49003466395E+02  0.54422710138E+02  0.00000000000E+00 0. -1.
         -1    1    3    3    0  502  0.17243496442E+02 -0.70445762160E+02 -0.14011855732E+03  0.15777564350E+03  0.00000000000E+00 0.  1.
         11    1    5    5    0    0 -0.25182878460E+02  0.75415996923E+00  0.13872094764E+02  0.28760756908E+02  0.00000000000E+00 0. -1.
        -11    1    5    5    0    0 -0.29892035445E+03  0.19680589212E+03  0.59091978918E+03  0.69084885085E+03  0.00000000000E+00 0.  1.
          3    1    6    6  503    0  0.75035693248E+02 -0.84519572105E+02 -0.13739619920E+02  0.11385381191E+03  0.00000000000E+00 0. -1.
         -3    1    6    6    0  503  0.21986575368E+03 -0.63027313636E+02 -0.31627275156E+02  0.23089754533E+03  0.00000000000E+00 0.  1.
<mgrwt>
<rscale>  0 0.12216707E+04</rscale>
<asrwt>0</asrwt>
<pdfrwt beam="1">  1        2 0.12668171E+00 0.12216707E+04</pdfrwt>
<pdfrwt beam="2">  1       -1 0.69712027E-01 0.12216707E+04</pdfrwt>
<totfact> 0.77581395E+01</totfact>
</mgrwt>
</event>
<event>
12    6  0.1540825E-007  0.1178023E+04  0.7818608E-02  0.9132313E-01
          2   -1    0    0  501    0  0.00000000000E+00  0.00000000000E+00  0.42475636418E+03  0.42475636418E+03  0.00000000000E+00 0. -1.
         -1   -1    0    0    0  501 -0.00000000000E+00 -0.00000000000E+00 -0.81678501673E+03  0.81678501673E+03  0.00000000000E+00 0.  1.
         24    2    1    2    0    0 -0.28726689507E+02  0.21009786869E+02  0.16515428195E+03  0.18755416841E+03  0.81449342598E+02 0.  0.
        254    2    1    2    0    0  0.28726689507E+02 -0.21009786869E+02 -0.55718293449E+03  0.10539872125E+04  0.89396285593E+03 0.  0.
         23    2    4    4    0    0  0.21795440251E+02 -0.38519116445E+02  0.23509622292E+03  0.25541448431E+03  0.89484977604E+02 0.  0.
         23    2    4    4    0    0  0.69312492562E+01  0.17509329576E+02 -0.79227915741E+03  0.79857272819E+03  0.98272682331E+02 0.  0.
          4    1    3    3  502    0 -0.52529668110E+02  0.20720502419E+02  0.14743380387E+03  0.15787790148E+03  0.00000000000E+00 0. -1.
         -3    1    3    3    0  502  0.23802978603E+02  0.28928444976E+00  0.17720478077E+02  0.29676266934E+02  0.00000000000E+00 0.  1.
         11    1    5    5    0    0  0.49253715171E+00  0.21811384057E+02  0.15698368169E+02  0.26877831582E+02  0.00000000000E+00 0. -1.
        -11    1    5    5    0    0  0.21302903099E+02 -0.60330500502E+02  0.21939785475E+03  0.22853665273E+03  0.00000000000E+00 0.  1.
          3    1    6    6  503    0  0.24846127260E+02  0.17609371826E+01 -0.49528696853E+02  0.55439361031E+02  0.00000000000E+00 0. -1.
         -3    1    6    6    0  503 -0.17914878003E+02  0.15748392393E+02 -0.74275046056E+03  0.74313336715E+03  0.00000000000E+00 0.  1.
<mgrwt>
<rscale>  0 0.11780231E+04</rscale>
<asrwt>0</asrwt>
<pdfrwt beam="1">  1        2 0.65347133E-01 0.11780231E+04</pdfrwt>
<pdfrwt beam="2">  1       -1 0.12565923E+00 0.11780231E+04</pdfrwt>
<totfact> 0.46409800E+01</totfact>
</mgrwt>
</event>
<event>
12    6  0.1540825E-007  0.2345183E+04  0.7818608E-02  0.8460316E-01
          2   -1    0    0  501    0  0.00000000000E+00  0.00000000000E+00  0.89924002760E+03  0.89924002760E+03  0.00000000000E+00 0. -1.
         -1   -1    0    0    0  501 -0.00000000000E+00 -0.00000000000E+00 -0.15290363250E+04  0.15290363250E+04  0.00000000000E+00 0.  1.
         24    2    1    2    0    0  0.85275936953E+03  0.37462814847E+03 -0.62352569579E+03  0.11237089753E+04  0.79954836404E+02 0.  0.
        254    2    1    2    0    0 -0.85275936953E+03 -0.37462814847E+03 -0.62706016148E+01  0.13045673773E+04  0.91340677117E+03 0.  0.
         23    2    4    4    0    0 -0.95797362196E+03 -0.44754274560E+03  0.16350455310E+03  0.10737014941E+04  0.89962159161E+02 0.  0.
         23    2    4    4    0    0  0.10521425243E+03  0.72914597129E+02 -0.16977515472E+03  0.23086588322E+03  0.89938175911E+02 0.  0.
          4    1    3    3  502    0  0.47071403102E+03  0.20484699185E+03 -0.39117857372E+03  0.64541046289E+03  0.00000000000E+00 0. -1.
         -3    1    3    3    0  502  0.38204533850E+03  0.16978115662E+03 -0.23234712207E+03  0.47829851238E+03  0.00000000000E+00 0.  1.
         11    1    5    5    0    0 -0.73191097769E+03 -0.33110618013E+03  0.16156511436E+03  0.81940726623E+03  0.00000000000E+00 0.  1.
        -11    1    5    5    0    0 -0.22606264427E+03 -0.11643656547E+03  0.19394387472E+01  0.25429422788E+03  0.00000000000E+00 0. -1.
          1    1    6    6  503    0  0.21424516685E+01  0.47286577386E+02 -0.33034128960E+02  0.57722302243E+02  0.00000000000E+00 0. -1.
         -1    1    6    6    0  503  0.10307180076E+03  0.25628019744E+02 -0.13674102576E+03  0.17314358098E+03  0.00000000000E+00 0.  1.
<mgrwt>
<rscale>  0 0.23451829E+04</rscale>
<asrwt>0</asrwt>
<pdfrwt beam="1">  1        2 0.13834462E+00 0.23451829E+04</pdfrwt>
<pdfrwt beam="2">  1       -1 0.23523636E+00 0.23451829E+04</pdfrwt>
<totfact> 0.26355305E+00</totfact>
</mgrwt>
</event>
<event>
12    6  0.1540825E-007  0.3193845E+04  0.7818608E-02  0.8190445E-01
         -1   -1    0    0    0  501 -0.00000000000E+00  0.00000000000E+00  0.19399712016E+04  0.19399712016E+04  0.00000000000E+00 0.  1.
          2   -1    0    0  501    0  0.00000000000E+00 -0.00000000000E+00 -0.13145353939E+04  0.13145353939E+04  0.00000000000E+00 0. -1.
         24    2    1    2    0    0  0.85503797276E+03 -0.33828401034E+03 -0.88302543109E+03  0.12772858265E+04  0.78734769940E+02 0.  0.
        254    2    1    2    0    0 -0.85503797276E+03  0.33828401034E+03  0.15084612388E+04  0.19772207691E+04  0.88793054581E+03 0.  0.
         23    2    4    4    0    0  0.12349311176E+03  0.37756297282E+02  0.54827784699E+03  0.57072630191E+03  0.91890301719E+02 0.  0.
         23    2    4    4    0    0 -0.97853108452E+03  0.30052771306E+03  0.96018339180E+03  0.14064944672E+04  0.91839809338E+02 0.  0.
          4    1    3    3  502    0  0.59052739252E+03 -0.21158840953E+03 -0.55878167623E+03  0.84007691199E+03  0.00000000000E+00 0. -1.
         -3    1    3    3    0  502  0.26451058023E+03 -0.12669560081E+03 -0.32424375486E+03  0.43720891446E+03  0.00000000000E+00 0.  1.
         11    1    5    5    0    0  0.12193981755E+03  0.14096538060E+01  0.43294157839E+03  0.44978852423E+03  0.00000000000E+00 0.  1.
        -11    1    5    5    0    0  0.15532942068E+01  0.36346643476E+02  0.11533626860E+03  0.12093777768E+03  0.00000000000E+00 0. -1.
          4    1    6    6  503    0 -0.65399604845E+03  0.19554361768E+03  0.69785340054E+03  0.97619030237E+03  0.00000000000E+00 0.  1.
         -4    1    6    6    0  503 -0.32453503607E+03  0.10498409537E+03  0.26232999126E+03  0.43030416479E+03  0.00000000000E+00 0. -1.
<mgrwt>
<rscale>  0 0.31938446E+04</rscale>
<asrwt>0</asrwt>
<pdfrwt beam="1">  1        2 0.20223621E+00 0.31938446E+04</pdfrwt>
<pdfrwt beam="2">  1       -1 0.29845711E+00 0.31938446E+04</pdfrwt>
<totfact> 0.52564121E-01</totfact>
</mgrwt>
</event>
<event>
12    6  0.1540825E-007  0.1356077E+04  0.7818608E-02  0.8986240E-01
          2   -1    0    0  501    0  0.00000000000E+00  0.00000000000E+00  0.28232692682E+03  0.28232692682E+03  0.00000000000E+00 0. -1.
         -1   -1    0    0    0  501 -0.00000000000E+00 -0.00000000000E+00 -0.16283828922E+04  0.16283828922E+04  0.00000000000E+00 0.  1.
         24    2    1    2    0    0  0.18436371444E+03 -0.29409193980E+03 -0.19829229579E+03  0.40809642764E+03  0.82114623694E+02 0.  0.
        254    2    1    2    0    0 -0.18436371444E+03  0.29409193980E+03 -0.11477636695E+04  0.15026133914E+04  0.90554155867E+03 0.  0.
         23    2    4    4    0    0 -0.44946517408E+01 -0.10353775681E+03 -0.10325839936E+04  0.10416820011E+04  0.90174378562E+02 0.  0.
         23    2    4    4    0    0 -0.17986906270E+03  0.39762969660E+03 -0.11517967597E+03  0.46093139030E+03  0.93429831800E+02 0.  0.
          4    1    3    3  502    0  0.13577942082E+03 -0.16789920095E+03 -0.86369727785E+02  0.23256380345E+03  0.00000000000E+00 0. -1.
         -3    1    3    3    0  502  0.48584293616E+02 -0.12619273885E+03 -0.11192256801E+03  0.17553262418E+03  0.00000000000E+00 0.  1.
         11    1    5    5    0    0  0.32632315920E+02 -0.76816988708E+01 -0.20231523063E+03  0.20507396004E+03  0.00000000000E+00 0.  1.
        -11    1    5    5    0    0 -0.37126967660E+02 -0.95856057936E+02 -0.83026876294E+03  0.83660804101E+03  0.00000000000E+00 0. -1.
          4    1    6    6  503    0 -0.12789052947E+03  0.35393672371E+03 -0.81172874466E+02  0.38498860693E+03  0.00000000000E+00 0. -1.
         -4    1    6    6    0  503 -0.51978533229E+02  0.43692972891E+02 -0.34006801505E+02  0.75942783365E+02  0.00000000000E+00 0.  1.
<mgrwt>
<rscale>  0 0.13560772E+04</rscale>
<asrwt>0</asrwt>
<pdfrwt beam="1">  1        2 0.43434911E-01 0.13560772E+04</pdfrwt>
<pdfrwt beam="2">  1       -1 0.25052045E+00 0.13560772E+04</pdfrwt>
<totfact> 0.91025646E+00</totfact>
</mgrwt>
</event>
<event>
12    6  0.1540825E-007  0.1158374E+04  0.7818608E-02  0.9150093E-01
          2   -1    0    0  501    0  0.00000000000E+00  0.00000000000E+00  0.18834503655E+04  0.18834503655E+04  0.00000000000E+00 0. -1.
         -1   -1    0    0    0  501 -0.00000000000E+00 -0.00000000000E+00 -0.17810794529E+03  0.17810794529E+03  0.00000000000E+00 0.  1.
         24    2    1    2    0    0  0.29669634529E+02  0.18368297813E+03  0.11324807960E+03  0.23136572586E+03  0.78007998969E+02 0.  0.
        254    2    1    2    0    0 -0.29669634529E+02 -0.18368297813E+03  0.15920943406E+04  0.18301925849E+04  0.88330107257E+03 0.  0.
         23    2    4    4    0    0 -0.18983971218E+03 -0.69148609916E+02  0.15976045306E+04  0.16129180237E+04  0.91343683472E+02 0.  0.
         23    2    4    4    0    0  0.16017007765E+03 -0.11453436822E+03 -0.55101899628E+01  0.21727456121E+03  0.91680409454E+02 0.  0.
          4    1    3    3  502    0  0.42154998626E+02  0.41961373624E+02  0.34116946043E+02  0.68569430454E+02  0.00000000000E+00 0. -1.
         -1    1    3    3    0  502 -0.12485364097E+02  0.14172160451E+03  0.79131133554E+02  0.16279629541E+03  0.00000000000E+00 0.  1.
         11    1    5    5    0    0 -0.16346205075E+03 -0.90528718005E+02  0.12942206923E+04  0.13076400465E+04  0.00000000000E+00 0. -1.
        -11    1    5    5    0    0 -0.26377661433E+02  0.21380108089E+02  0.30338383821E+03  0.30527797715E+03  0.00000000000E+00 0.  1.
          3    1    6    6  503    0  0.13996560718E+03 -0.12901556476E+03 -0.14338760669E+02  0.19089522572E+03  0.00000000000E+00 0. -1.
         -3    1    6    6    0  503  0.20204470472E+02  0.14481196543E+02  0.88285707062E+01  0.26379335494E+02  0.00000000000E+00 0.  1.
<mgrwt>
<rscale>  0 0.11583738E+04</rscale>
<asrwt>0</asrwt>
<pdfrwt beam="1">  1        2 0.28976158E+00 0.11583738E+04</pdfrwt>
<pdfrwt beam="2">  1       -1 0.27401224E-01 0.11583738E+04</pdfrwt>
<totfact> 0.10458778E+02</totfact>
</mgrwt>
</event>
<event>
12    6  0.1540825E-007  0.2065878E+04  0.7818608E-02  0.8576425E-01
          2   -1    0    0  501    0  0.00000000000E+00  0.00000000000E+00  0.22969764801E+04  0.22969764801E+04  0.00000000000E+00 0. -1.
         -1   -1    0    0    0  501 -0.00000000000E+00 -0.00000000000E+00 -0.46450775570E+03  0.46450775570E+03  0.00000000000E+00 0.  1.
         24    2    1    2    0    0 -0.74060623527E+03 -0.25326050355E+03  0.11285620013E+04  0.13758406627E+04  0.81528276460E+02 0.  0.
        254    2    1    2    0    0  0.74060623527E+03  0.25326050355E+03  0.70390672312E+03  0.13856435732E+04  0.90104659070E+03 0.  0.
         23    2    4    4    0    0  0.21327917569E+03  0.51401007511E+03  0.18442998161E+03  0.59428347678E+03  0.97283444449E+02 0.  0.
         23    2    4    4    0    0  0.52732705958E+03 -0.26074957156E+03  0.51947674151E+03  0.79136009638E+03  0.10163931493E+03 0.  0.
          2    1    3    3  502    0 -0.55446822381E+03 -0.21472444613E+03  0.89826569064E+03  0.10772292467E+04  0.00000000000E+00 0. -1.
         -1    1    3    3    0  502 -0.18613801146E+03 -0.38536057424E+02  0.23029631066E+03  0.29861141595E+03  0.00000000000E+00 0.  1.
         11    1    5    5    0    0  0.21478789840E+03  0.42759226313E+03  0.15550777029E+03  0.50314178062E+03  0.00000000000E+00 0. -1.
        -11    1    5    5    0    0 -0.15087227072E+01  0.86417811980E+02  0.28922211319E+02  0.91141696162E+02  0.00000000000E+00 0.  1.
          2    1    6    6  503    0  0.43066778318E+03 -0.24659062564E+03  0.46191066055E+03  0.67796986249E+03  0.00000000000E+00 0. -1.
         -2    1    6    6    0  503  0.96659276395E+02 -0.14158945920E+02  0.57566080963E+02  0.11339023388E+03  0.00000000000E+00 0.  1.
<mgrwt>
<rscale>  0 0.20658784E+04</rscale>
<asrwt>0</asrwt>
<pdfrwt beam="1">  1        2 0.35338099E+00 0.20658784E+04</pdfrwt>
<pdfrwt beam="2">  1       -1 0.71462733E-01 0.20658784E+04</pdfrwt>
<totfact> 0.94664748E+00</totfact>
</mgrwt>
</event>
<event>
12    6  0.1540825E-007  0.2743741E+04  0.7818608E-02  0.8320950E-01
          2   -1    0    0  501    0  0.00000000000E+00  0.00000000000E+00  0.14851652751E+04  0.14851652751E+04  0.00000000000E+00 0. -1.
         -1   -1    0    0    0  501 -0.00000000000E+00 -0.00000000000E+00 -0.12672185119E+04  0.12672185119E+04  0.00000000000E+00 0.  1.
         24    2    1    2    0    0  0.38139941306E+03  0.60953052215E+03 -0.89672899600E+03  0.11521121174E+04  0.79034607016E+02 0.  0.
        254    2    1    2    0    0 -0.38139941306E+03 -0.60953052215E+03  0.11146757592E+04  0.16002716695E+04  0.89519517337E+03 0.  0.
         23    2    4    4    0    0 -0.50150593782E+03 -0.65763697765E+03  0.11672063223E+04  0.14334423738E+04  0.91606987976E+02 0.  0.
         23    2    4    4    0    0  0.12010652476E+03  0.48106455501E+02 -0.52530563047E+02  0.16682929573E+03  0.91283873221E+02 0.  0.
          4    1    3    3  502    0  0.23678737984E+03  0.30408589464E+03 -0.47727598305E+03  0.61345648466E+03  0.00000000000E+00 0. -1.
         -3    1    3    3    0  502  0.14461203322E+03  0.30544462751E+03 -0.41945301295E+03  0.53865563275E+03  0.00000000000E+00 0.  1.
         11    1    5    5    0    0 -0.17543448292E+03 -0.17277108056E+03  0.30681444485E+03  0.39339828119E+03  0.00000000000E+00 0.  1.
        -11    1    5    5    0    0 -0.32607145490E+03 -0.48486589709E+03  0.86039187743E+03  0.10400440926E+04  0.00000000000E+00 0. -1.
          2    1    6    6  503    0  0.12094617260E+03  0.49407763085E+02 -0.70728744725E+02  0.14856533597E+03  0.00000000000E+00 0. -1.
         -2    1    6    6    0  503 -0.83964784392E+00 -0.13013075847E+01  0.18198181679E+02  0.18263959766E+02  0.00000000000E+00 0.  1.
<mgrwt>
<rscale>  0 0.27437412E+04</rscale>
<asrwt>0</asrwt>
<pdfrwt beam="1">  1        2 0.22848697E+00 0.27437412E+04</pdfrwt>
<pdfrwt beam="2">  1       -1 0.19495669E+00 0.27437412E+04</pdfrwt>
<totfact> 0.21018256E+00</totfact>
</mgrwt>
</event>
<event>
12    6  0.1540825E-007  0.1418957E+04  0.7818608E-02  0.8940210E-01
          2   -1    0    0  501    0  0.00000000000E+00  0.00000000000E+00  0.90253579678E+03  0.90253579678E+03  0.00000000000E+00 0. -1.
         -1   -1    0    0    0  501 -0.00000000000E+00 -0.00000000000E+00 -0.55771699198E+03  0.55771699198E+03  0.00000000000E+00 0.  1.
         24    2    1    2    0    0  0.35953321704E+03 -0.14398333503E+03 -0.65100459995E+02  0.40096454896E+03  0.80865101913E+02 0.  0.
        254    2    1    2    0    0 -0.35953321704E+03  0.14398333503E+03  0.40991926480E+03  0.10592882398E+04  0.89669528627E+03 0.  0.
         23    2    4    4    0    0  0.24267524840E+03  0.10459917142E+03  0.34592682738E+03  0.44554423219E+03  0.94931712780E+02 0.  0.
         23    2    4    4    0    0 -0.60220846544E+03  0.39384163602E+02  0.63992437418E+02  0.61374400762E+03  0.91545216399E+02 0.  0.
          4    1    3    3  502    0  0.15332327169E+02 -0.27689180970E+02  0.10839866431E+01  0.31669323110E+02  0.00000000000E+00 0. -1.
         -3    1    3    3    0  502  0.34420088987E+03 -0.11629415406E+03 -0.66184446638E+02  0.36929522585E+03  0.00000000000E+00 0.  1.
         11    1    5    5    0    0  0.22896469514E+03  0.65880527265E+02  0.27761746336E+03  0.36583675520E+03  0.00000000000E+00 0.  1.
        -11    1    5    5    0    0  0.13710553265E+02  0.38718644159E+02  0.68309364013E+02  0.79707476991E+02  0.00000000000E+00 0. -1.
          3    1    6    6  503    0 -0.15114744720E+03  0.17335517060E+02  0.55866276358E+02  0.16207131696E+03  0.00000000000E+00 0. -1.
         -3    1    6    6    0  503 -0.45106101824E+03  0.22048646542E+02  0.81261610603E+01  0.45167269066E+03  0.00000000000E+00 0.  1.
<mgrwt>
<rscale>  0 0.14189567E+04</rscale>
<asrwt>0</asrwt>
<pdfrwt beam="1">  1        2 0.13885166E+00 0.14189567E+04</pdfrwt>
<pdfrwt beam="2">  1       -1 0.85802614E-01 0.14189567E+04</pdfrwt>
<totfact> 0.43472645E+01</totfact>
</mgrwt>
</event>
<event>
12    6  0.1540825E-007  0.1553619E+04  0.7818608E-02  0.8849559E-01
          2   -1    0    0  501    0  0.00000000000E+00  0.00000000000E+00  0.26791583538E+04  0.26791583538E+04  0.00000000000E+00 0. -1.
         -1   -1    0    0    0  501 -0.00000000000E+00 -0.00000000000E+00 -0.22523234843E+03  0.22523234843E+03  0.00000000000E+00 0.  1.
         24    2    1    2    0    0  0.15309990207E+03  0.17773957209E+03 -0.29656644945E+02  0.25188686375E+03  0.86813248070E+02 0.  0.
        254    2    1    2    0    0 -0.15309990207E+03 -0.17773957209E+03  0.24835826503E+04  0.26525038385E+04  0.90142270704E+03 0.  0.
         23    2    4    4    0    0 -0.37975334546E+03 -0.36619651776E+03  0.97402006882E+03  0.11117334334E+04  0.94465016965E+02 0.  0.
         23    2    4    4    0    0  0.22665344339E+03  0.18845694567E+03  0.15095625815E+04  0.15407704051E+04  0.91139728109E+02 0.  0.
          2    1    3    3  502    0  0.22560408883E+02  0.28889924518E+02 -0.39209455886E+02  0.53674772645E+02  0.00000000000E+00 0. -1.
         -1    1    3    3    0  502  0.13053949318E+03  0.14884964757E+03  0.95528109411E+01  0.19821209110E+03  0.00000000000E+00 0.  1.
         11    1    5    5    0    0 -0.36295384569E+03 -0.32377001742E+03  0.92282968467E+03  0.10431572965E+04  0.00000000000E+00 0. -1.
        -11    1    5    5    0    0 -0.16799499765E+02 -0.42426500339E+02  0.51190384143E+02  0.68576136900E+02  0.00000000000E+00 0.  1.
          3    1    6    6  503    0  0.19808557369E+03  0.17145445144E+03  0.11400013700E+04  0.11697169090E+04  0.00000000000E+00 0. -1.
         -3    1    6    6    0  503  0.28567869696E+02  0.17002494231E+02  0.36956121149E+03  0.37105349618E+03  0.00000000000E+00 0.  1.
<mgrwt>
<rscale>  0 0.15536192E+04</rscale>
<asrwt>0</asrwt>
<pdfrwt beam="1">  1        2 0.41217819E+00 0.15536192E+04</pdfrwt>
<pdfrwt beam="2">  1       -1 0.34651132E-01 0.15536192E+04</pdfrwt>
<totfact> 0.23744144E+01</totfact>
</mgrwt>
</event>
<event>
12    6  0.1540825E-007  0.1832431E+04  0.7818608E-02  0.8689241E-01
         -1   -1    0    0    0  501 -0.00000000000E+00  0.00000000000E+00  0.26993324834E+03  0.26993324834E+03  0.00000000000E+00 0.  1.
          2   -1    0    0  501    0  0.00000000000E+00 -0.00000000000E+00 -0.31098445369E+04  0.31098445369E+04  0.00000000000E+00 0. -1.
         24    2    1    2    0    0 -0.43396800497E+03  0.45213562536E+03 -0.55498274234E+03  0.84337030531E+03  0.10253182204E+03 0.  0.
        254    2    1    2    0    0  0.43396800497E+03 -0.45213562536E+03 -0.22849285462E+04  0.25364074799E+04  0.90537814745E+03 0.  0.
         23    2    4    4    0    0  0.39502441558E+03  0.26282587811E+02 -0.33187609197E+03  0.52360583657E+03  0.85359641181E+02 0.  0.
         23    2    4    4    0    0  0.38943589390E+02 -0.47841821317E+03 -0.19530524542E+04  0.20128016434E+04  0.80968985608E+02 0.  0.
          4    1    3    3  502    0 -0.27141695418E+03  0.31272432655E+03 -0.42236298804E+03  0.59148470910E+03  0.00000000000E+00 0. -1.
         -3    1    3    3    0  502 -0.16255105079E+03  0.13941129881E+03 -0.13261975430E+03  0.25188559621E+03  0.00000000000E+00 0.  1.
         11    1    5    5    0    0  0.38158822740E+02  0.15432183221E+02 -0.87838540734E+01  0.42088052037E+02  0.00000000000E+00 0.  1.
        -11    1    5    5    0    0  0.35686559284E+03  0.10850404590E+02 -0.32309223790E+03  0.48151778454E+03  0.00000000000E+00 0. -1.
          1    1    6    6  503    0  0.38542153132E+02 -0.47395910455E+03 -0.19505403250E+04  0.20076678734E+04  0.00000000000E+00 0. -1.
         -1    1    6    6    0  503  0.40143625781E+00 -0.44591086175E+01 -0.25121292223E+01  0.51337699561E+01  0.00000000000E+00 0.  1.
<mgrwt>
<rscale>  0 0.18324306E+04</rscale>
<asrwt>0</asrwt>
<pdfrwt beam="1">  1        2 0.47843761E+00 0.18324306E+04</pdfrwt>
<pdfrwt beam="2">  1       -1 0.41528193E-01 0.18324306E+04</pdfrwt>
<totfact> 0.90780841E+00</totfact>
</mgrwt>
</event>
<event>
12    6  0.1540825E-007  0.2694690E+04  0.7818608E-02  0.8336730E-01
          2   -1    0    0  501    0  0.00000000000E+00  0.00000000000E+00  0.24129372098E+04  0.24129372098E+04  0.00000000000E+00 0. -1.
         -3   -1    0    0    0  501 -0.00000000000E+00 -0.00000000000E+00 -0.75233552243E+03  0.75233552243E+03  0.00000000000E+00 0.  1.
         24    2    1    2    0    0 -0.94204502609E+02  0.11976703698E+04  0.80620123662E+03  0.14489457071E+04  0.78704670072E+02 0.  0.
        254    2    1    2    0    0  0.94204502609E+02 -0.11976703698E+04  0.85440045074E+03  0.17163270251E+04  0.87891383189E+03 0.  0.
         23    2    4    4    0    0 -0.33055216388E+03 -0.20479840138E+03  0.17329951004E+03  0.43631744836E+03  0.95567135093E+02 0.  0.
         23    2    4    4    0    0  0.42475666649E+03 -0.99287196846E+03  0.68110094070E+03  0.12800095768E+04  0.91175949295E+02 0.  0.
          2    1    3    3  502    0 -0.37796802947E+02  0.88279588663E+03  0.60933242806E+03  0.10733327460E+04  0.00000000000E+00 0. -1.
         -1    1    3    3    0  502 -0.56407699662E+02  0.31487448321E+03  0.19686880857E+03  0.37561296110E+03  0.00000000000E+00 0.  1.
         11    1    5    5    0    0 -0.27472203292E+02 -0.23711733142E+02  0.51171171026E+02  0.62733220757E+02  0.00000000000E+00 0.  1.
        -11    1    5    5    0    0 -0.30307996059E+03 -0.18108666823E+03  0.12212833901E+03  0.37358422760E+03  0.00000000000E+00 0. -1.
          2    1    6    6  503    0  0.22269813100E+03 -0.49548924486E+03  0.39511513339E+03  0.67172912543E+03  0.00000000000E+00 0. -1.
         -2    1    6    6    0  503  0.20205853549E+03 -0.49738272360E+03  0.28598580732E+03  0.60828045134E+03  0.00000000000E+00 0.  1.
<mgrwt>
<rscale>  0 0.26946899E+04</rscale>
<asrwt>0</asrwt>
<pdfrwt beam="1">  1        2 0.37122111E+00 0.26946899E+04</pdfrwt>
<pdfrwt beam="2">  1       -3 0.11574393E+00 0.26946899E+04</pdfrwt>
<totfact> 0.13499519E+00</totfact>
</mgrwt>
</event>
<event>
12    6  0.1540825E-007  0.1906247E+04  0.7818608E-02  0.8651753E-01
          2   -1    0    0  501    0  0.00000000000E+00  0.00000000000E+00  0.21077383780E+04  0.21077383780E+04  0.00000000000E+00 0. -1.
         -1   -1    0    0    0  501 -0.00000000000E+00 -0.00000000000E+00 -0.43100424495E+03  0.43100424495E+03  0.00000000000E+00 0.  1.
         24    2    1    2    0    0 -0.13585753200E+02 -0.39078721877E+03  0.14823366848E+04  0.15350441330E+04  0.78353174588E+02 0.  0.
        254    2    1    2    0    0  0.13585753200E+02  0.39078721877E+03  0.19439744830E+03  0.10036984900E+04  0.90372621295E+03 0.  0.
         23    2    4    4    0    0  0.39373016798E+03  0.94775786748E+02  0.28741792834E+03  0.50490507192E+03  0.91182077139E+02 0.  0.
         23    2    4    4    0    0 -0.38014441478E+03  0.29601143202E+03 -0.93020480040E+02  0.49879341812E+03  0.89495923266E+02 0.  0.
          2    1    3    3  502    0  0.30474380066E+02 -0.20314296286E+03  0.72148560268E+03  0.75015813405E+03  0.00000000000E+00 0. -1.
         -1    1    3    3    0  502 -0.44060133266E+02 -0.18764425591E+03  0.76085108212E+03  0.78488599891E+03  0.00000000000E+00 0.  1.
         11    1    5    5    0    0  0.34100645644E+03  0.11164517407E+03  0.23693901583E+03  0.42998854107E+03  0.00000000000E+00 0. -1.
        -11    1    5    5    0    0  0.52723711538E+02 -0.16869387324E+02  0.50478912507E+02  0.74916530852E+02  0.00000000000E+00 0.  1.
          4    1    6    6  503    0 -0.17296126448E+03  0.10344893889E+03 -0.16306086790E+01  0.20154389312E+03  0.00000000000E+00 0. -1.
         -4    1    6    6    0  503 -0.20718315030E+03  0.19256249313E+03 -0.91389871361E+02  0.29724952501E+03  0.00000000000E+00 0.  1.
<mgrwt>
<rscale>  0 0.19062468E+04</rscale>
<asrwt>0</asrwt>
<pdfrwt beam="1">  1        2 0.32426744E+00 0.19062468E+04</pdfrwt>
<pdfrwt beam="2">  1       -1 0.66308347E-01 0.19062468E+04</pdfrwt>
<totfact> 0.14291970E+01</totfact>
</mgrwt>
</event>
<event>
12    6  0.1550546E-007  0.1531492E+04  0.7818608E-02  0.8863777E-01
         -1   -1    0    0    0  501 -0.00000000000E+00  0.00000000000E+00  0.27427557593E+03  0.27427557593E+03  0.00000000000E+00 0.  1.
          2   -1    0    0  501    0  0.00000000000E+00 -0.00000000000E+00 -0.21378738425E+04  0.21378738425E+04  0.00000000000E+00 0. -1.
         24    2    1    2    0    0  0.24574344673E+03  0.30135768356E+03 -0.11183137971E+04  0.11866559354E+04  0.79500095252E+02 0.  0.
        254    2    1    2    0    0 -0.24574344673E+03 -0.30135768356E+03 -0.74528446947E+03  0.12254934830E+04  0.89172812085E+03 0.  0.
         23    2    4    4    0    0  0.24773676544E+03 -0.28563632034E+03 -0.57598926458E+03  0.69600468279E+03  0.98474733300E+02 0.  0.
         23    2    4    4    0    0 -0.49348021217E+03 -0.15721363217E+02 -0.16929520489E+03  0.52948880026E+03  0.89037307559E+02 0.  0.
          4    1    3    3  502    0  0.24524994326E+03  0.30406438639E+03 -0.10841555494E+04  0.11523870622E+04  0.00000000000E+00 0. -1.
         -3    1    3    3    0  502  0.49350346515E+00 -0.27067028276E+01 -0.34158247741E+02  0.34268873261E+02  0.00000000000E+00 0.  1.
         11    1    5    5    0    0  0.19847996301E+03 -0.17896972584E+03 -0.45267944396E+03  0.52568349553E+03  0.00000000000E+00 0. -1.
        -11    1    5    5    0    0  0.49256802430E+02 -0.10666659450E+03 -0.12330982062E+03  0.17032118726E+03  0.00000000000E+00 0.  1.
          1    1    6    6  503    0 -0.42196190309E+03 -0.44581490597E+02 -0.13701580148E+03  0.44588416301E+03  0.00000000000E+00 0. -1.
         -1    1    6    6    0  503 -0.71518309076E+02  0.28860127379E+02 -0.32279403413E+02  0.83604637253E+02  0.00000000000E+00 0.  1.
<mgrwt>
<rscale>  0 0.15314915E+04</rscale>
<asrwt>0</asrwt>
<pdfrwt beam="1">  1        2 0.32890368E+00 0.15314915E+04</pdfrwt>
<pdfrwt beam="2">  1       -1 0.42196241E-01 0.15314915E+04</pdfrwt>
<totfact> 0.33937140E+01</totfact>
</mgrwt>
</event>
<event>
12    6  0.1540825E-007  0.1162015E+04  0.7818608E-02  0.9146770E-01
         -3   -1    0    0    0  501 -0.00000000000E+00  0.00000000000E+00  0.37845695055E+03  0.37845695055E+03  0.00000000000E+00 0.  1.
          2   -1    0    0  501    0  0.00000000000E+00 -0.00000000000E+00 -0.89196395498E+03  0.89196395498E+03  0.00000000000E+00 0. -1.
         24    2    1    2    0    0 -0.11751287358E+03  0.34474230275E+02 -0.33646952331E+03  0.36701197438E+03  0.80549991980E+02 0.  0.
        254    2    1    2    0    0  0.11751287358E+03 -0.34474230275E+02 -0.17703748112E+03  0.90340893116E+03  0.87738684693E+03 0.  0.
         23    2    4    4    0    0 -0.15799893772E+03  0.33423155481E+03 -0.20690715977E+03  0.43324966754E+03  0.90665898278E+02 0.  0.
         23    2    4    4    0    0  0.27551181130E+03 -0.36870578508E+03  0.29869678649E+02  0.47015926362E+03  0.91141765092E+02 0.  0.
          4    1    3    3  502    0 -0.84033045381E+02  0.10390960207E+02 -0.30078213370E+03  0.31247306560E+03  0.00000000000E+00 0. -1.
         -3    1    3    3    0  502 -0.33479828201E+02  0.24083270067E+02 -0.35687389606E+02  0.54538908776E+02  0.00000000000E+00 0.  1.
         11    1    5    5    0    0 -0.10907572141E+03  0.22168014403E+03 -0.18484767375E+03  0.30855836037E+03  0.00000000000E+00 0. -1.
        -11    1    5    5    0    0 -0.48923216303E+02  0.11255141078E+03 -0.22059486013E+02  0.12469130717E+03  0.00000000000E+00 0.  1.
          3    1    6    6  503    0  0.11081701798E+03 -0.14984305803E+03  0.57053408544E+02  0.19490624654E+03  0.00000000000E+00 0. -1.
         -3    1    6    6    0  503  0.16469479332E+03 -0.21886272706E+03 -0.27183729895E+02  0.27525301708E+03  0.00000000000E+00 0.  1.
<mgrwt>
<rscale>  0 0.11620154E+04</rscale>
<asrwt>0</asrwt>
<pdfrwt beam="1">  1        2 0.13722522E+00 0.11620154E+04</pdfrwt>
<pdfrwt beam="2">  1       -3 0.58224147E-01 0.11620154E+04</pdfrwt>
<totfact> 0.54026105E+01</totfact>
</mgrwt>
</event>
<event>
12    6  0.1540825E-007  0.2470319E+04  0.7818608E-02  0.8413636E-01
          4   -1    0    0  501    0  0.00000000000E+00  0.00000000000E+00  0.62255425525E+03  0.62255425525E+03  0.00000000000E+00 0. -1.
         -3   -1    0    0    0  501 -0.00000000000E+00 -0.00000000000E+00 -0.24505808845E+04  0.24505808845E+04  0.00000000000E+00 0.  1.
         24    2    1    2    0    0  0.45029831738E+03 -0.87881471637E+03 -0.28786214527E+03  0.10315592633E+04  0.78524001256E+02 0.  0.
        254    2    1    2    0    0 -0.45029831738E+03  0.87881471637E+03 -0.15401644839E+04  0.20415758764E+04  0.90600305794E+03 0.  0.
         23    2    4    4    0    0 -0.23493634628E+03  0.71922714295E+03 -0.38992269767E+03  0.85707802444E+03  0.10030084677E+03 0.  0.
         23    2    4    4    0    0 -0.21536197110E+03  0.15958757342E+03 -0.11502417863E+04  0.11844978519E+04  0.90166635328E+02 0.  0.
          2    1    3    3  502    0  0.22496665133E+03 -0.42523566155E+03 -0.99910549877E+02  0.49134252822E+03  0.00000000000E+00 0. -1.
         -1    1    3    3    0  502  0.22533166606E+03 -0.45357905482E+03 -0.18795159539E+03  0.54021673512E+03  0.00000000000E+00 0.  1.
         11    1    5    5    0    0 -0.15132334509E+03  0.30281708864E+03 -0.17203704090E+03  0.37972843900E+03  0.00000000000E+00 0. -1.
        -11    1    5    5    0    0 -0.83613001191E+02  0.41641005430E+03 -0.21788565677E+03  0.47734958544E+03  0.00000000000E+00 0.  1.
          4    1    6    6  503    0 -0.12277808322E+02  0.20702341480E+02 -0.35247958962E+02  0.42681964938E+02  0.00000000000E+00 0. -1.
         -4    1    6    6    0  503 -0.20308416278E+03  0.13888523194E+03 -0.11149938273E+04  0.11418158870E+04  0.00000000000E+00 0.  1.
<mgrwt>
<rscale>  0 0.24703195E+04</rscale>
<asrwt>0</asrwt>
<pdfrwt beam="1">  1        4 0.95777580E-01 0.24703195E+04</pdfrwt>
<pdfrwt beam="2">  1       -3 0.37701243E+00 0.24703195E+04</pdfrwt>
<totfact> 0.26513012E-02</totfact>
</mgrwt>
</event>
<event>
12    6  0.1540825E-007  0.1824097E+04  0.7818608E-02  0.8693589E-01
          2   -1    0    0  501    0  0.00000000000E+00  0.00000000000E+00  0.78376126540E+03  0.78376126540E+03  0.00000000000E+00 0. -1.
         -1   -1    0    0    0  501 -0.00000000000E+00 -0.00000000000E+00 -0.10613340481E+04  0.10613340481E+04  0.00000000000E+00 0.  1.
         24    2    1    2    0    0 -0.63574842879E+03 -0.18376567701E+03  0.62723710869E+02  0.66973093456E+03  0.81604975558E+02 0.  0.
        254    2    1    2    0    0  0.63574842879E+03  0.18376567701E+03 -0.34029649355E+03  0.11753643789E+04  0.90979878596E+03 0.  0.
         23    2    4    4    0    0 -0.15206628194E+03 -0.18030000139E+03 -0.73213052711E+02  0.26338954079E+03  0.91551376339E+02 0.  0.
         23    2    4    4    0    0  0.78781471073E+03  0.36406567840E+03 -0.26708344084E+03  0.91197483812E+03  0.84668201610E+02 0.  0.
          4    1    3    3  502    0 -0.60254422719E+03 -0.17854432207E+03  0.41140585519E+02  0.62978581155E+03  0.00000000000E+00 0. -1.
         -3    1    3    3    0  502 -0.33204201608E+02 -0.52213549450E+01  0.21583125350E+02  0.39945123003E+02  0.00000000000E+00 0.  1.
         11    1    5    5    0    0 -0.63510029752E+02 -0.11487142816E+03 -0.78882730236E+02  0.15313867577E+03  0.00000000000E+00 0. -1.
        -11    1    5    5    0    0 -0.88556252184E+02 -0.65428573231E+02  0.56696775256E+01  0.11025086503E+03  0.00000000000E+00 0.  1.
          1    1    6    6  503    0  0.48577640645E+03  0.20312075221E+03 -0.19988499528E+03  0.56319691794E+03  0.00000000000E+00 0. -1.
         -1    1    6    6    0  503  0.30203830428E+03  0.16094492618E+03 -0.67198445557E+02  0.34877792018E+03  0.00000000000E+00 0.  1.
<mgrwt>
<rscale>  0 0.18240971E+04</rscale>
<asrwt>0</asrwt>
<pdfrwt beam="1">  1        2 0.12057866E+00 0.18240971E+04</pdfrwt>
<pdfrwt beam="2">  1       -1 0.16328216E+00 0.18240971E+04</pdfrwt>
<totfact> 0.10509723E+01</totfact>
</mgrwt>
</event>
<event>
12    6  0.1540825E-007  0.1829140E+04  0.7818608E-02  0.8690955E-01
         -1   -1    0    0    0  501 -0.00000000000E+00  0.00000000000E+00  0.30523749079E+03  0.30523749079E+03  0.00000000000E+00 0.  1.
          2   -1    0    0  501    0  0.00000000000E+00 -0.00000000000E+00 -0.27402871562E+04  0.27402871562E+04  0.00000000000E+00 0. -1.
         24    2    1    2    0    0  0.67072380906E+03 -0.16840332289E+02 -0.73237062407E+03  0.99695429402E+03  0.86006444686E+02 0.  0.
        254    2    1    2    0    0 -0.67072380906E+03  0.16840332289E+02 -0.17026790413E+04  0.20485703529E+04  0.92052732082E+03 0.  0.
         23    2    4    4    0    0  0.13295139693E+02 -0.14831666155E+03 -0.11106870739E+04  0.11242041207E+04  0.89635574231E+02 0.  0.
         23    2    4    4    0    0 -0.68401894876E+03  0.16515699384E+03 -0.59199196742E+03  0.92436623219E+03  0.94019608888E+02 0.  0.
          4    1    3    3  502    0  0.11930374628E+02 -0.35113905945E+01 -0.36727419874E+02  0.38775856835E+02  0.00000000000E+00 0. -1.
         -3    1    3    3    0  502  0.65879343444E+03 -0.13328941694E+02 -0.69564320419E+03  0.95817843718E+03  0.00000000000E+00 0.  1.
         11    1    5    5    0    0  0.32056648643E+02 -0.13754485495E+02 -0.32386013742E+03  0.32573333143E+03  0.00000000000E+00 0.  1.
        -11    1    5    5    0    0 -0.18761508950E+02 -0.13456217605E+03 -0.78682693646E+03  0.79847078931E+03  0.00000000000E+00 0. -1.
          3    1    6    6  503    0 -0.17219527263E+03  0.44837300227E+02 -0.99040456758E+02  0.20364333400E+03  0.00000000000E+00 0. -1.
         -3    1    6    6    0  503 -0.51182367613E+03  0.12031969361E+03 -0.49295151066E+03  0.72072289819E+03  0.00000000000E+00 0.  1.
<mgrwt>
<rscale>  0 0.18291401E+04</rscale>
<asrwt>0</asrwt>
<pdfrwt beam="1">  1        2 0.42158263E+00 0.18291401E+04</pdfrwt>
<pdfrwt beam="2">  1       -1 0.46959615E-01 0.18291401E+04</pdfrwt>
<totfact> 0.12203961E+01</totfact>
</mgrwt>
</event>
<event>
12    6  0.1540825E-007  0.1718717E+04  0.7818608E-02  0.8750761E-01
          2   -1    0    0  501    0  0.00000000000E+00  0.00000000000E+00  0.26600648792E+04  0.26600648792E+04  0.00000000000E+00 0. -1.
         -1   -1    0    0    0  501 -0.00000000000E+00 -0.00000000000E+00 -0.27762372987E+03  0.27762372987E+03  0.00000000000E+00 0.  1.
         24    2    1    2    0    0  0.41385534368E+03 -0.36110550487E+03  0.13679516502E+04  0.14759873480E+04  0.74655898807E+02 0.  0.
        254    2    1    2    0    0 -0.41385534368E+03  0.36110550487E+03  0.10144894992E+04  0.14617012611E+04  0.89761250074E+03 0.  0.
         23    2    4    4    0    0 -0.35743324967E+03  0.41448658244E+03  0.13341532880E+03  0.57248360545E+03  0.10188313672E+03 0.  0.
         23    2    4    4    0    0 -0.56422094003E+02 -0.53381077568E+02  0.88107417040E+03  0.88921765562E+03  0.91560653083E+02 0.  0.
          4    1    3    3  502    0  0.27666382268E+03 -0.26125934255E+03  0.10250381986E+04  0.10933904259E+04  0.00000000000E+00 0. -1.
         -3    1    3    3    0  502  0.13719152100E+03 -0.99846162322E+02  0.34291345151E+03  0.38259692209E+03  0.00000000000E+00 0.  1.
         11    1    5    5    0    0 -0.64992420488E+02  0.99073196885E+02  0.70242882738E+02  0.13774460293E+03  0.00000000000E+00 0.  1.
        -11    1    5    5    0    0 -0.29244082919E+03  0.31541338556E+03  0.63172446062E+02  0.43473900251E+03  0.00000000000E+00 0. -1.
          2    1    6    6  503    0 -0.22688916693E+02 -0.47334746576E+02  0.79262510600E+03  0.79436133078E+03  0.00000000000E+00 0. -1.
         -2    1    6    6    0  503 -0.33733177311E+02 -0.60463309921E+01  0.88449064397E+02  0.94856324843E+02  0.00000000000E+00 0.  1.
<mgrwt>
<rscale>  0 0.17187171E+04</rscale>
<asrwt>0</asrwt>
<pdfrwt beam="1">  1        2 0.40924073E+00 0.17187171E+04</pdfrwt>
<pdfrwt beam="2">  1       -1 0.42711345E-01 0.17187171E+04</pdfrwt>
<totfact> 0.16416021E+01</totfact>
</mgrwt>
</event>
<event>
12    6  0.1540825E-007  0.1367821E+04  0.7818608E-02  0.8977446E-01
         -1   -1    0    0    0  501 -0.00000000000E+00  0.00000000000E+00  0.85379189298E+03  0.85379189298E+03  0.00000000000E+00 0.  1.
          2   -1    0    0  501    0  0.00000000000E+00 -0.00000000000E+00 -0.54783085905E+03  0.54783085905E+03  0.00000000000E+00 0. -1.
         24    2    1    2    0    0 -0.17908611887E+03  0.28789351517E+03 -0.91066546785E+02  0.35998711239E+03  0.79643525123E+02 0.  0.
        254    2    1    2    0    0  0.17908611887E+03 -0.28789351517E+03  0.39702758071E+03  0.10416356396E+04  0.90134310441E+03 0.  0.
         23    2    4    4    0    0  0.24415268063E+03  0.28115760022E+03  0.16925822718E+03  0.41847938820E+03  0.88411103735E+02 0.  0.
         23    2    4    4    0    0 -0.65066561754E+02 -0.56905111538E+03  0.22776935354E+03  0.62315625144E+03  0.91607892225E+02 0.  0.
          4    1    3    3  502    0 -0.10571023247E+03  0.19590823263E+03 -0.22356596896E+02  0.22372864431E+03  0.00000000000E+00 0. -1.
         -3    1    3    3    0  502 -0.73375886399E+02  0.91985282539E+02 -0.68709949889E+02  0.13625846808E+03  0.00000000000E+00 0.  1.
         11    1    5    5    0    0  0.99228290495E+02  0.17249997739E+03  0.11280457472E+03  0.22875176046E+03  0.00000000000E+00 0. -1.
        -11    1    5    5    0    0  0.14492439013E+03  0.10865762283E+03  0.56453652458E+02  0.18972762774E+03  0.00000000000E+00 0.  1.
          3    1    6    6  503    0  0.18185729383E+01 -0.11860319354E+03  0.11952246699E+02  0.11921778779E+03  0.00000000000E+00 0. -1.
         -3    1    6    6    0  503 -0.66885134693E+02 -0.45044792185E+03  0.21581710684E+03  0.50393846365E+03  0.00000000000E+00 0.  1.
<mgrwt>
<rscale>  0 0.13678210E+04</rscale>
<asrwt>0</asrwt>
<pdfrwt beam="1">  1        2 0.84281671E-01 0.13678210E+04</pdfrwt>
<pdfrwt beam="2">  1       -1 0.13135260E+00 0.13678210E+04</pdfrwt>
<totfact> 0.30479154E+01</totfact>
</mgrwt>
</event>
<event>
12    6  0.1540825E-007  0.1760442E+04  0.7818608E-02  0.8727623E-01
         -1   -1    0    0    0  501 -0.00000000000E+00  0.00000000000E+00  0.82740569154E+03  0.82740569154E+03  0.00000000000E+00 0.  1.
          2   -1    0    0  501    0  0.00000000000E+00 -0.00000000000E+00 -0.93640816283E+03  0.93640816283E+03  0.00000000000E+00 0. -1.
         24    2    1    2    0    0  0.60595191768E+03  0.27323723626E+02 -0.27954145557E+03  0.67252480882E+03  0.78878898845E+02 0.  0.
        254    2    1    2    0    0 -0.60595191768E+03 -0.27323723626E+02  0.17053898428E+03  0.10912890456E+04  0.89101286376E+03 0.  0.
         23    2    4    4    0    0  0.12799477274E+03 -0.10374557884E+03  0.28281937195E+03  0.33967435743E+03  0.90807846384E+02 0.  0.
         23    2    4    4    0    0 -0.73394669042E+03  0.76421855217E+02 -0.11228038767E+03  0.75161468813E+03  0.88315964709E+02 0.  0.
          4    1    3    3  502    0  0.44804787973E+03  0.18982230001E+02 -0.24370179444E+03  0.51038984336E+03  0.00000000000E+00 0. -1.
         -3    1    3    3    0  502  0.15790403795E+03  0.83414936246E+01 -0.35839661133E+02  0.16213496546E+03  0.00000000000E+00 0.  1.
         11    1    5    5    0    0  0.74365000313E+02 -0.54085435760E+02  0.72746974311E+02  0.11724977571E+03  0.00000000000E+00 0. -1.
        -11    1    5    5    0    0  0.53629772427E+02 -0.49660143083E+02  0.21007239764E+03  0.22242458172E+03  0.00000000000E+00 0.  1.
          1    1    6    6  503    0 -0.47432773754E+03  0.51671136463E+02 -0.29703691916E+02  0.47805754701E+03  0.00000000000E+00 0. -1.
         -1    1    6    6    0  503 -0.25961895288E+03  0.24750718754E+02 -0.82576695757E+02  0.27355714112E+03  0.00000000000E+00 0.  1.
<mgrwt>
<rscale>  0 0.17604425E+04</rscale>
<asrwt>0</asrwt>
<pdfrwt beam="1">  1        2 0.14406279E+00 0.17604425E+04</pdfrwt>
<pdfrwt beam="2">  1       -1 0.12729318E+00 0.17604425E+04</pdfrwt>
<totfact> 0.16020175E+01</totfact>
</mgrwt>
</event>
<event>
12    6  0.1540825E-007  0.1413081E+04  0.7818608E-02  0.8944404E-01
          2   -1    0    0  501    0  0.00000000000E+00  0.00000000000E+00  0.20256079735E+04  0.20256079735E+04  0.00000000000E+00 0. -1.
         -1   -1    0    0    0  501 -0.00000000000E+00 -0.00000000000E+00 -0.24644430939E+03  0.24644430939E+03  0.00000000000E+00 0.  1.
         24    2    1    2    0    0 -0.11322475069E+03 -0.23764610108E+03  0.10532747540E+04  0.10886335822E+04  0.80248708664E+02 0.  0.
        254    2    1    2    0    0  0.11322475069E+03  0.23764610108E+03  0.72588891012E+03  0.11834187008E+04  0.89681079272E+03 0.  0.
         23    2    4    4    0    0  0.14421242936E+02  0.42059663415E+03  0.82846519192E+03  0.93374512615E+03  0.91738135357E+02 0.  0.
         23    2    4    4    0    0  0.98803507756E+02 -0.18295053307E+03 -0.10257628180E+03  0.24967357461E+03  0.92638920432E+02 0.  0.
          4    1    3    3  502    0 -0.83192438304E+02 -0.10908808026E+03  0.42338065501E+03  0.44505322163E+03  0.00000000000E+00 0. -1.
         -3    1    3    3    0  502 -0.30032312388E+02 -0.12855802082E+03  0.62989409902E+03  0.64358036055E+03  0.00000000000E+00 0.  1.
         11    1    5    5    0    0 -0.38007085579E+02  0.16268755548E+03  0.34325254165E+03  0.38175134134E+03  0.00000000000E+00 0.  1.
        -11    1    5    5    0    0  0.52428328515E+02  0.25790907867E+03  0.48521265026E+03  0.55199378481E+03  0.00000000000E+00 0. -1.
          3    1    6    6  503    0 -0.61161949450E+01 -0.79548253383E+02 -0.27930773221E+02  0.84530826032E+02  0.00000000000E+00 0. -1.
         -3    1    6    6    0  503  0.10491970270E+03 -0.10340227968E+03 -0.74645508577E+02  0.16514274858E+03  0.00000000000E+00 0.  1.
<mgrwt>
<rscale>  0 0.14130811E+04</rscale>
<asrwt>0</asrwt>
<pdfrwt beam="1">  1        2 0.31163199E+00 0.14130811E+04</pdfrwt>
<pdfrwt beam="2">  1       -1 0.37914510E-01 0.14130811E+04</pdfrwt>
<totfact> 0.48129009E+01</totfact>
</mgrwt>
</event>
<event>
12    6  0.2069872E-007  0.2005232E+04  0.7818608E-02  0.8604179E-01
          2   -1    0    0  501    0  0.00000000000E+00  0.00000000000E+00  0.15947750130E+04  0.15947750130E+04  0.00000000000E+00 0. -1.
         -1   -1    0    0    0  501 -0.00000000000E+00 -0.00000000000E+00 -0.63033243655E+03  0.63033243655E+03  0.00000000000E+00 0.  1.
         24    2    1    2    0    0  0.10802729043E+01  0.66665583644E+03 -0.29898357033E+02  0.67186934161E+03  0.77995699898E+02 0.  0.
        254    2    1    2    0    0 -0.10802729043E+01 -0.66665583644E+03  0.99434093349E+03  0.15532381080E+04  0.98964819847E+03 0.  0.
         23    2    4    4    0    0 -0.47371212802E+03 -0.20213930841E+03  0.42975136197E+03  0.67686721181E+03  0.90551140576E+02 0.  0.
         23    2    4    4    0    0  0.47263185512E+03 -0.46451652803E+03  0.56458957152E+03  0.87637089615E+03  0.10053898778E+03 0.  0.
          4    1    3    3  502    0 -0.16122399638E+02  0.10222531409E+03 -0.27858844379E+02  0.10717304615E+03  0.00000000000E+00 0. -1.
         -3    1    3    3    0  502  0.17202672543E+02  0.56443052234E+03 -0.20395126546E+01  0.56469629546E+03  0.00000000000E+00 0.  1.
         11    1    5    5    0    0 -0.19376026251E+03 -0.93333884387E+02  0.12392713514E+03  0.24821802539E+03  0.00000000000E+00 0.  1.
        -11    1    5    5    0    0 -0.27995186552E+03 -0.10880542402E+03  0.30582422683E+03  0.42864918642E+03  0.00000000000E+00 0. -1.
          3    1    6    6  503    0  0.20603523950E+03 -0.24231823148E+03  0.21602482479E+03  0.38449365424E+03  0.00000000000E+00 0. -1.
         -3    1    6    6    0  503  0.26659661561E+03 -0.22219829655E+03  0.34856474672E+03  0.49187724190E+03  0.00000000000E+00 0.  1.
<mgrwt>
<rscale>  0 0.20052316E+04</rscale>
<asrwt>0</asrwt>
<pdfrwt beam="1">  1        2 0.24535000E+00 0.20052316E+04</pdfrwt>
<pdfrwt beam="2">  1       -1 0.96974222E-01 0.20052316E+04</pdfrwt>
<totfact> 0.12140775E+01</totfact>
</mgrwt>
</event>
<event>
12    6  0.1540825E-007  0.1381494E+04  0.7818608E-02  0.8967324E-01
         -1   -1    0    0    0  501 -0.00000000000E+00  0.00000000000E+00  0.12030830289E+04  0.12030830289E+04  0.00000000000E+00 0.  1.
          2   -1    0    0  501    0  0.00000000000E+00 -0.00000000000E+00 -0.39659086448E+03  0.39659086448E+03  0.00000000000E+00 0. -1.
         24    2    1    2    0    0 -0.11984310327E+03 -0.36942893037E+03  0.12232952298E+03  0.41525492173E+03  0.81437300027E+02 0.  0.
        254    2    1    2    0    0  0.11984310327E+03  0.36942893037E+03  0.68416264140E+03  0.11844189716E+04  0.88539803277E+03 0.  0.
         23    2    4    4    0    0 -0.26470879634E+03  0.41858217905E+03  0.16501415562E+03  0.53000203310E+03  0.91600742661E+02 0.  0.
         23    2    4    4    0    0  0.38455189961E+03 -0.49153248681E+02  0.51914848578E+03  0.65441693851E+03  0.91924826743E+02 0.  0.
          4    1    3    3  502    0 -0.10750278761E+03 -0.20129069313E+03  0.67507478901E+02  0.23797489824E+03  0.00000000000E+00 0. -1.
         -3    1    3    3    0  502 -0.12340315660E+02 -0.16813823724E+03  0.54822044078E+02  0.17728002349E+03  0.00000000000E+00 0.  1.
         11    1    5    5    0    0 -0.26232098123E+03  0.41085027458E+03  0.17430615993E+03  0.51768029005E+03  0.00000000000E+00 0. -1.
        -11    1    5    5    0    0 -0.23878151126E+01  0.77319044662E+01 -0.92920043084E+01  0.12321743049E+02  0.00000000000E+00 0.  1.
          2    1    6    6  503    0  0.12277232661E+03 -0.58774170723E+02  0.16450528396E+03  0.21351682785E+03  0.00000000000E+00 0. -1.
         -2    1    6    6    0  503  0.26177957300E+03  0.96209220415E+01  0.35464320182E+03  0.44090011066E+03  0.00000000000E+00 0.  1.
<mgrwt>
<rscale>  0 0.13814945E+04</rscale>
<asrwt>0</asrwt>
<pdfrwt beam="1">  1        2 0.61013979E-01 0.13814945E+04</pdfrwt>
<pdfrwt beam="2">  1       -1 0.18508970E+00 0.13814945E+04</pdfrwt>
<totfact> 0.17136189E+01</totfact>
</mgrwt>
</event>
<event>
12    6  0.1540825E-007  0.1859309E+04  0.7818608E-02  0.8675380E-01
          2   -1    0    0  501    0  0.00000000000E+00  0.00000000000E+00  0.11608717962E+04  0.11608717962E+04  0.00000000000E+00 0. -1.
         -1   -1    0    0    0  501 -0.00000000000E+00 -0.00000000000E+00 -0.74449008187E+03  0.74449008187E+03  0.00000000000E+00 0.  1.
         24    2    1    2    0    0  0.52889172604E+03 -0.24054344355E+03  0.55707128572E+03  0.80882234573E+03  0.79231076445E+02 0.  0.
        254    2    1    2    0    0 -0.52889172604E+03  0.24054344355E+03 -0.14068957136E+03  0.10965395324E+04  0.91924848898E+03 0.  0.
         23    2    4    4    0    0  0.24897594082E+03  0.12695749538E+02  0.11129067250E+02  0.26693595052E+03  0.94766789423E+02 0.  0.
         23    2    4    4    0    0 -0.77786766685E+03  0.22784769401E+03 -0.15181863861E+03  0.82960358187E+03  0.90556751364E+02 0.  0.
          2    1    3    3  502    0  0.34760516423E+03 -0.18129163741E+03  0.41579639000E+03  0.57147409909E+03  0.00000000000E+00 0. -1.
         -1    1    3    3    0  502  0.18128656181E+03 -0.59251806137E+02  0.14127489572E+03  0.23734824664E+03  0.00000000000E+00 0.  1.
         11    1    5    5    0    0  0.57941774791E+02 -0.23727938675E+02 -0.27959307211E+02  0.68571037614E+02  0.00000000000E+00 0. -1.
        -11    1    5    5    0    0  0.19103416603E+03  0.36423688213E+02  0.39088374461E+02  0.19836491290E+03  0.00000000000E+00 0.  1.
          1    1    6    6  503    0 -0.14815716486E+03  0.28722734745E+02  0.42288118711E+01  0.15097491130E+03  0.00000000000E+00 0. -1.
         -1    1    6    6    0  503 -0.62971050199E+03  0.19912495926E+03 -0.15604745048E+03  0.67862867057E+03  0.00000000000E+00 0.  1.
<mgrwt>
<rscale>  0 0.18593091E+04</rscale>
<asrwt>0</asrwt>
<pdfrwt beam="1">  1        2 0.17859566E+00 0.18593091E+04</pdfrwt>
<pdfrwt beam="2">  1       -1 0.11453694E+00 0.18593091E+04</pdfrwt>
<totfact> 0.14851562E+01</totfact>
</mgrwt>
</event>
<event>
12    6  0.1540825E-007  0.3646448E+04  0.7818608E-02  0.8079934E-01
          2   -1    0    0  501    0  0.00000000000E+00  0.00000000000E+00  0.22132003889E+04  0.22132003889E+04  0.00000000000E+00 0. -1.
         -1   -1    0    0    0  501 -0.00000000000E+00 -0.00000000000E+00 -0.15019636696E+04  0.15019636696E+04  0.00000000000E+00 0.  1.
         24    2    1    2    0    0  0.56723966251E+03  0.15495496822E+04  0.78702816458E+03  0.18297594828E+04  0.75771899478E+02 0.  0.
        254    2    1    2    0    0 -0.56723966251E+03 -0.15495496822E+04 -0.75791445263E+02  0.18854045757E+04  0.90892299913E+03 0.  0.
         23    2    4    4    0    0 -0.79006143492E+03 -0.10015313958E+04 -0.12500448800E+03  0.12850359511E+04  0.91809944618E+02 0.  0.
         23    2    4    4    0    0  0.22282177241E+03 -0.54801828640E+03  0.49213042740E+02  0.60036862453E+03  0.89704945503E+02 0.  0.
          2    1    3    3  502    0  0.33333911405E+03  0.93773759894E+03  0.51422891088E+03  0.11202223628E+04  0.00000000000E+00 0. -1.
         -1    1    3    3    0  502  0.23390054845E+03  0.61181208327E+03  0.27279925370E+03  0.70953711998E+03  0.00000000000E+00 0.  1.
         11    1    5    5    0    0 -0.24975020343E+03 -0.38464579119E+03 -0.32053193973E+02  0.45973357071E+03  0.00000000000E+00 0. -1.
        -11    1    5    5    0    0 -0.54031123149E+03 -0.61688560461E+03 -0.92951294030E+02  0.82530238041E+03  0.00000000000E+00 0.  1.
          4    1    6    6  503    0  0.63834389883E+02 -0.10701767852E+03 -0.20963621988E+02  0.12636093658E+03  0.00000000000E+00 0. -1.
         -4    1    6    6    0  503  0.15898738253E+03 -0.44100060789E+03  0.70176664728E+02  0.47400768794E+03  0.00000000000E+00 0.  1.
<mgrwt>
<rscale>  0 0.36464485E+04</rscale>
<asrwt>0</asrwt>
<pdfrwt beam="1">  1        2 0.34049237E+00 0.36464485E+04</pdfrwt>
<pdfrwt beam="2">  1       -1 0.23107133E+00 0.36464485E+04</pdfrwt>
<totfact> 0.43519042E-01</totfact>
</mgrwt>
</event>
<event>
12    6  0.1540825E-007  0.1827062E+04  0.7818608E-02  0.8692039E-01
         -1   -1    0    0    0  501 -0.00000000000E+00  0.00000000000E+00  0.94901498643E+03  0.94901498643E+03  0.00000000000E+00 0.  1.
          2   -1    0    0  501    0  0.00000000000E+00 -0.00000000000E+00 -0.87937359561E+03  0.87937359561E+03  0.00000000000E+00 0. -1.
         24    2    1    2    0    0  0.56915449458E+02  0.17277596875E+02  0.70422362803E+03  0.71082315923E+03  0.76162731633E+02 0.  0.
        254    2    1    2    0    0 -0.56915449458E+02 -0.17277596875E+02 -0.63458223721E+03  0.11175654228E+04  0.91799780758E+03 0.  0.
         23    2    4    4    0    0 -0.41963702928E+03 -0.19181324179E+03 -0.49151193840E+03  0.68012053881E+03  0.89957799283E+02 0.  0.
         23    2    4    4    0    0  0.36272157982E+03  0.17453564492E+03 -0.14307029881E+03  0.43744488399E+03  0.94123750033E+02 0.  0.
          4    1    3    3  502    0  0.31829812023E+02 -0.69111751111E+00  0.83978413261E+02  0.89810848291E+02  0.00000000000E+00 0. -1.
         -3    1    3    3    0  502  0.25085637435E+02  0.17968714387E+02  0.62024521477E+03  0.62101231094E+03  0.00000000000E+00 0.  1.
         11    1    5    5    0    0 -0.29258790901E+03 -0.16631005894E+03 -0.31354775088E+03  0.45997707800E+03  0.00000000000E+00 0.  1.
        -11    1    5    5    0    0 -0.12704912027E+03 -0.25503182848E+02 -0.17796418753E+03  0.22014346081E+03  0.00000000000E+00 0. -1.
          2    1    6    6  503    0  0.58211654120E+02  0.40301687672E+01  0.45153720599E+01  0.58525443360E+02  0.00000000000E+00 0. -1.
         -2    1    6    6    0  503  0.30450992570E+03  0.17050547615E+03 -0.14758567087E+03  0.37891944063E+03  0.00000000000E+00 0.  1.
<mgrwt>
<rscale>  0 0.18270618E+04</rscale>
<asrwt>0</asrwt>
<pdfrwt beam="1">  1        2 0.13528825E+00 0.18270618E+04</pdfrwt>
<pdfrwt beam="2">  1       -1 0.14600230E+00 0.18270618E+04</pdfrwt>
<totfact> 0.12215233E+01</totfact>
</mgrwt>
</event>
<event>
12    6  0.1540825E-007  0.3407035E+04  0.7818608E-02  0.8136182E-01
          2   -1    0    0  501    0  0.00000000000E+00  0.00000000000E+00  0.28878684743E+04  0.28878684743E+04  0.00000000000E+00 0. -1.
         -1   -1    0    0    0  501 -0.00000000000E+00 -0.00000000000E+00 -0.10048836652E+04  0.10048836652E+04  0.00000000000E+00 0.  1.
         24    2    1    2    0    0  0.63117567169E+03  0.13687238208E+04  0.32118036931E+03  0.15431671148E+04  0.80126701941E+02 0.  0.
        254    2    1    2    0    0 -0.63117567169E+03 -0.13687238208E+04  0.15618044397E+04  0.23495850248E+04  0.89973832564E+03 0.  0.
         23    2    4    4    0    0  0.65262877491E+02 -0.73498845653E+03  0.37781113698E+03  0.83407210957E+03  0.92020401635E+02 0.  0.
         23    2    4    4    0    0 -0.69643854919E+03 -0.63373536424E+03  0.11839933027E+04  0.15155129152E+04  0.91060916667E+02 0.  0.
          4    1    3    3  502    0  0.28977385326E+03  0.69437117319E+03  0.18988228495E+03  0.77599967418E+03  0.00000000000E+00 0. -1.
         -3    1    3    3    0  502  0.34140181843E+03  0.67435264758E+03  0.13129808436E+03  0.76716744058E+03  0.00000000000E+00 0.  1.
         11    1    5    5    0    0  0.44616343411E+02 -0.66711640592E+03  0.36576170639E+03  0.76211320879E+03  0.00000000000E+00 0.  1.
        -11    1    5    5    0    0  0.20646534079E+02 -0.67872050614E+02  0.12049430590E+02  0.71958900781E+02  0.00000000000E+00 0. -1.
          3    1    6    6  503    0 -0.15291318649E+03 -0.18923542087E+03  0.32818900357E+03  0.40853458749E+03  0.00000000000E+00 0. -1.
         -3    1    6    6    0  503 -0.54352536269E+03 -0.44449994337E+03  0.85580429918E+03  0.11069783277E+04  0.00000000000E+00 0.  1.
<mgrwt>
<rscale>  0 0.34070350E+04</rscale>
<asrwt>0</asrwt>
<pdfrwt beam="1">  1        2 0.44428745E+00 0.34070350E+04</pdfrwt>
<pdfrwt beam="2">  1       -1 0.15459749E+00 0.34070350E+04</pdfrwt>
<totfact> 0.61743191E-01</totfact>
</mgrwt>
</event>
<event>
12    6  0.1540825E-007  0.1130115E+04  0.7818608E-02  0.9176327E-01
          2   -1    0    0  501    0  0.00000000000E+00  0.00000000000E+00  0.44327454669E+03  0.44327454669E+03  0.00000000000E+00 0. -1.
         -1   -1    0    0    0  501 -0.00000000000E+00 -0.00000000000E+00 -0.72029836083E+03  0.72029836083E+03  0.00000000000E+00 0.  1.
         24    2    1    2    0    0  0.92362382114E+02 -0.14523003698E+02  0.12143957702E+03  0.17763918187E+03  0.89813032471E+02 0.  0.
        254    2    1    2    0    0 -0.92362382114E+02  0.14523003698E+02 -0.39846339116E+03  0.98593372565E+03  0.89696739629E+03 0.  0.
         23    2    4    4    0    0 -0.37133753117E+03  0.22119133150E+03  0.10838441202E+02  0.44146399433E+03  0.89195399531E+02 0.  0.
         23    2    4    4    0    0  0.27897514905E+03 -0.20666832780E+03 -0.40930183236E+03  0.54446973132E+03  0.91544343569E+02 0.  0.
          2    1    3    3  502    0  0.87134127817E+02  0.22539557422E+02  0.99863393396E+02  0.13443617526E+03  0.00000000000E+00 0. -1.
         -1    1    3    3    0  502  0.52282542968E+01 -0.37062561120E+02  0.21576183625E+02  0.43203006604E+02  0.00000000000E+00 0.  1.
         11    1    5    5    0    0 -0.61487829209E+02  0.79811691009E+02  0.24767540849E+01  0.10078091820E+03  0.00000000000E+00 0. -1.
        -11    1    5    5    0    0 -0.30984970196E+03  0.14137964049E+03  0.83616871173E+01  0.34068307613E+03  0.00000000000E+00 0.  1.
          3    1    6    6  503    0  0.28282492207E+02 -0.62332659997E+02 -0.97712558390E+02  0.11930215394E+03  0.00000000000E+00 0. -1.
         -3    1    6    6    0  503  0.25069265685E+03 -0.14433566780E+03 -0.31158927397E+03  0.42516757738E+03  0.00000000000E+00 0.  1.
<mgrwt>
<rscale>  0 0.11301149E+04</rscale>
<asrwt>0</asrwt>
<pdfrwt beam="1">  1        2 0.68196084E-01 0.11301149E+04</pdfrwt>
<pdfrwt beam="2">  1       -1 0.11081513E+00 0.11301149E+04</pdfrwt>
<totfact> 0.60201398E+01</totfact>
</mgrwt>
</event>
<event>
12    6  0.1540825E-007  0.1833770E+04  0.7818608E-02  0.8688544E-01
          2   -1    0    0  501    0  0.00000000000E+00  0.00000000000E+00  0.36971066983E+04  0.36971066983E+04  0.00000000000E+00 0. -1.
         -1   -1    0    0    0  501 -0.00000000000E+00 -0.00000000000E+00 -0.22738813390E+03  0.22738813390E+03  0.00000000000E+00 0.  1.
         24    2    1    2    0    0 -0.59698621136E+03 -0.29261966731E+02  0.21048453538E+04  0.21901455514E+04  0.95471323019E+02 0.  0.
        254    2    1    2    0    0  0.59698621136E+03  0.29261966731E+02  0.13648732106E+04  0.17343492808E+04  0.88760337295E+03 0.  0.
         23    2    4    4    0    0  0.22291567098E+03 -0.38277319723E+03  0.34681279160E+03  0.56976890919E+03  0.90281673521E+02 0.  0.
         23    2    4    4    0    0  0.37407054038E+03  0.41203516396E+03  0.10180604190E+04  0.11645803716E+04  0.10049218759E+03 0.  0.
          4    1    3    3  502    0 -0.36372171889E+03 -0.55147689312E+02  0.13838294729E+04  0.14318934201E+04  0.00000000000E+00 0. -1.
         -3    1    3    3    0  502 -0.23326449246E+03  0.25885722581E+02  0.72101588090E+03  0.75825213128E+03  0.00000000000E+00 0.  1.
         11    1    5    5    0    0  0.16122316240E+03 -0.23606071650E+03  0.26932938097E+03  0.39275423030E+03  0.00000000000E+00 0. -1.
        -11    1    5    5    0    0  0.61692508576E+02 -0.14671248074E+03  0.77483410632E+02  0.17701467889E+03  0.00000000000E+00 0.  1.
          2    1    6    6  503    0  0.37993045036E+03  0.40736255450E+03  0.10109041658E+04  0.11542177569E+04  0.00000000000E+00 0.  1.
         -2    1    6    6    0  503 -0.58599099817E+01  0.46726094606E+01  0.71562531341E+01  0.10362614684E+02  0.00000000000E+00 0. -1.
<mgrwt>
<rscale>  0 0.18337701E+04</rscale>
<asrwt>0</asrwt>
<pdfrwt beam="1">  1        2 0.56878560E+00 0.18337701E+04</pdfrwt>
<pdfrwt beam="2">  1       -1 0.34982793E-01 0.18337701E+04</pdfrwt>
<totfact> 0.49314733E+00</totfact>
</mgrwt>
</event>
<event>
12    6  0.1540825E-007  0.1500058E+04  0.7818608E-02  0.8884414E-01
          2   -1    0    0  501    0  0.00000000000E+00  0.00000000000E+00  0.40201738143E+03  0.40201738143E+03  0.00000000000E+00 0. -1.
         -1   -1    0    0    0  501 -0.00000000000E+00 -0.00000000000E+00 -0.13993017961E+04  0.13993017961E+04  0.00000000000E+00 0.  1.
         24    2    1    2    0    0  0.38953552436E+03 -0.30775212593E+02 -0.65760624999E+03  0.76867221929E+03  0.75670088075E+02 0.  0.
        254    2    1    2    0    0 -0.38953552436E+03  0.30775212593E+02 -0.33967816465E+03  0.10326469582E+04  0.89347268919E+03 0.  0.
         23    2    4    4    0    0 -0.44167283429E+03 -0.34951204477E+03 -0.13739507793E+03  0.58695659438E+03  0.91690099076E+02 0.  0.
         23    2    4    4    0    0  0.52137309926E+02  0.38028725736E+03 -0.20228308672E+03  0.44569036383E+03  0.10190562320E+03 0.  0.
          4    1    3    3  502    0  0.12248065845E+02 -0.35418130717E+01 -0.60521986989E+02  0.61850387758E+02  0.00000000000E+00 0. -1.
         -3    1    3    3    0  502  0.37728745851E+03 -0.27233399521E+02 -0.59708426300E+03  0.70682183153E+03  0.00000000000E+00 0.  1.
         11    1    5    5    0    0 -0.37924519319E+03 -0.33613967801E+03 -0.11997958943E+03  0.52078008945E+03  0.00000000000E+00 0. -1.
        -11    1    5    5    0    0 -0.62427641100E+02 -0.13372366762E+02 -0.17415488499E+02  0.66176504938E+02  0.00000000000E+00 0.  1.
          2    1    6    6  503    0  0.68631472646E+02  0.31106489844E+03 -0.19653959426E+03  0.37429862702E+03  0.00000000000E+00 0. -1.
         -2    1    6    6    0  503 -0.16494162720E+02  0.69222358923E+02 -0.57434924558E+01  0.71391736807E+02  0.00000000000E+00 0.  1.
<mgrwt>
<rscale>  0 0.15000582E+04</rscale>
<asrwt>0</asrwt>
<pdfrwt beam="1">  1        2 0.61848829E-01 0.15000582E+04</pdfrwt>
<pdfrwt beam="2">  1       -1 0.21527720E+00 0.15000582E+04</pdfrwt>
<totfact> 0.10347655E+01</totfact>
</mgrwt>
</event>
<event>
12    6  0.1540825E-007  0.1448361E+04  0.7818608E-02  0.8919537E-01
         -1   -1    0    0    0  501 -0.00000000000E+00  0.00000000000E+00  0.85148950788E+03  0.85148950788E+03  0.00000000000E+00 0.  1.
          2   -1    0    0  501    0  0.00000000000E+00 -0.00000000000E+00 -0.61590602398E+03  0.61590602398E+03  0.00000000000E+00 0. -1.
         24    2    1    2    0    0 -0.88437372257E+02  0.27569566495E+03  0.37351287140E+03  0.47916129514E+03  0.79084847939E+02 0.  0.
        254    2    1    2    0    0  0.88437372257E+02 -0.27569566495E+03 -0.13792938750E+03  0.98823423672E+03  0.93474762487E+03 0.  0.
         23    2    4    4    0    0  0.26267768962E+03  0.15372287273E+03  0.22793656178E+03  0.39073441156E+03  0.89933386198E+02 0.  0.
         23    2    4    4    0    0 -0.17424031736E+03 -0.42941853769E+03 -0.36586594928E+03  0.59749982516E+03  0.91587005222E+02 0.  0.
          2    1    3    3  502    0  0.69070457730E+01  0.79171077438E+01  0.38014548636E+02  0.39439748786E+02  0.00000000000E+00 0. -1.
         -1    1    3    3    0  502 -0.95344418030E+02  0.26777855721E+03  0.33549832277E+03  0.43972154636E+03  0.00000000000E+00 0.  1.
         11    1    5    5    0    0  0.11857472835E+03  0.11641472676E+03  0.96507009599E+02  0.19216128047E+03  0.00000000000E+00 0. -1.
        -11    1    5    5    0    0  0.14410296127E+03  0.37308145968E+02  0.13142955219E+03  0.19857313108E+03  0.00000000000E+00 0.  1.
          2    1    6    6  503    0 -0.13664134449E+03 -0.37975433325E+03 -0.34744120996E+03  0.53254070739E+03  0.00000000000E+00 0. -1.
         -2    1    6    6    0  503 -0.37598972872E+02 -0.49664204430E+02 -0.18424739319E+02  0.64959117772E+02  0.00000000000E+00 0.  1.
<mgrwt>
<rscale>  0 0.14483612E+04</rscale>
<asrwt>0</asrwt>
<pdfrwt beam="1">  1        2 0.94754774E-01 0.14483612E+04</pdfrwt>
<pdfrwt beam="2">  1       -1 0.13099838E+00 0.14483612E+04</pdfrwt>
<totfact> 0.26490109E+01</totfact>
</mgrwt>
</event>
<event>
12    6  0.1540825E-007  0.1258683E+04  0.7818608E-02  0.9062987E-01
         -1   -1    0    0    0  501 -0.00000000000E+00  0.00000000000E+00  0.38055222433E+03  0.38055222433E+03  0.00000000000E+00 0.  1.
          2   -1    0    0  501    0  0.00000000000E+00 -0.00000000000E+00 -0.10407796590E+04  0.10407796590E+04  0.00000000000E+00 0. -1.
         24    2    1    2    0    0 -0.55709579654E+02  0.27986165271E+03 -0.11608279087E+03  0.31822870458E+03  0.79800953349E+02 0.  0.
        254    2    1    2    0    0  0.55709579654E+02 -0.27986165271E+03 -0.54414464379E+03  0.11031031788E+04  0.91614252585E+03 0.  0.
         23    2    4    4    0    0  0.44311263147E+03  0.11372082281E+02 -0.17076590796E+03  0.48420964262E+03  0.93914079100E+02 0.  0.
         23    2    4    4    0    0 -0.38740305182E+03 -0.29123373499E+03 -0.37337873583E+03  0.61889353613E+03  0.93377276358E+02 0.  0.
          4    1    3    3  502    0 -0.38974301877E+02  0.51360699025E+02 -0.43950140604E+02  0.78029048887E+02  0.00000000000E+00 0. -1.
         -3    1    3    3    0  502 -0.16735277777E+02  0.22850095369E+03 -0.72132650268E+02  0.24019965569E+03  0.00000000000E+00 0.  1.
         11    1    5    5    0    0  0.31344441470E+02 -0.18735600826E+02 -0.32269239532E+02  0.48731925566E+02  0.00000000000E+00 0. -1.
        -11    1    5    5    0    0  0.41176819000E+03  0.30107683107E+02 -0.13849666843E+03  0.43547771705E+03  0.00000000000E+00 0.  1.
          1    1    6    6  503    0 -0.41592028443E+02 -0.31340815492E+02 -0.80784614968E+01  0.52701091885E+02  0.00000000000E+00 0. -1.
         -1    1    6    6    0  503 -0.34581102338E+03 -0.25989291950E+03 -0.36530027433E+03  0.56619244425E+03  0.00000000000E+00 0.  1.
<mgrwt>
<rscale>  0 0.12586835E+04</rscale>
<asrwt>0</asrwt>
<pdfrwt beam="1">  1        2 0.16011994E+00 0.12586835E+04</pdfrwt>
<pdfrwt beam="2">  1       -1 0.58546497E-01 0.12586835E+04</pdfrwt>
<totfact> 0.78632858E+01</totfact>
</mgrwt>
</event>
<event>
12    6  0.1540825E-007  0.2096122E+04  0.7818608E-02  0.8562954E-01
          2   -1    0    0  501    0  0.00000000000E+00  0.00000000000E+00  0.18027936932E+04  0.18027936932E+04  0.00000000000E+00 0. -1.
         -1   -1    0    0    0  501 -0.00000000000E+00 -0.00000000000E+00 -0.60929411643E+03  0.60929411643E+03  0.00000000000E+00 0.  1.
         24    2    1    2    0    0 -0.39320231779E+03 -0.26520638956E+03  0.13038264332E+04  0.13897369161E+04  0.80391767473E+02 0.  0.
        254    2    1    2    0    0  0.39320231779E+03  0.26520638956E+03 -0.11032685644E+03  0.10223508935E+04  0.89893650636E+03 0.  0.
         23    2    4    4    0    0  0.11097156240E+03 -0.27209780265E+03  0.16669758284E+03  0.35038580227E+03  0.92899001272E+02 0.  0.
         23    2    4    4    0    0  0.28223075539E+03  0.53730419222E+03 -0.27702443928E+03  0.67196509125E+03  0.80277952414E+02 0.  0.
          2    1    3    3  502    0 -0.21904861252E+03 -0.19250374705E+03  0.82801938272E+03  0.87787019851E+03  0.00000000000E+00 0. -1.
         -1    1    3    3    0  502 -0.17415370527E+03 -0.72702642513E+02  0.47580705049E+03  0.51186671760E+03  0.00000000000E+00 0.  1.
         11    1    5    5    0    0  0.71986912135E+02 -0.95473597305E+02  0.28937441637E+02  0.12302316379E+03  0.00000000000E+00 0.  1.
        -11    1    5    5    0    0  0.38984650267E+02 -0.17662420535E+03  0.13776014120E+03  0.22736263848E+03  0.00000000000E+00 0. -1.
          4    1    6    6  503    0  0.18811238092E+03  0.30592214706E+03 -0.19730496102E+03  0.40976075405E+03  0.00000000000E+00 0. -1.
         -4    1    6    6    0  503  0.94118374466E+02  0.23138204516E+03 -0.79719478262E+02  0.26220433720E+03  0.00000000000E+00 0.  1.
<mgrwt>
<rscale>  0 0.20961217E+04</rscale>
<asrwt>0</asrwt>
<pdfrwt beam="1">  1        2 0.27735287E+00 0.20961217E+04</pdfrwt>
<pdfrwt beam="2">  1       -1 0.93737557E-01 0.20961217E+04</pdfrwt>
<totfact> 0.99578831E+00</totfact>
</mgrwt>
</event>
<event>
12    6  0.1540825E-007  0.1132191E+04  0.7818608E-02  0.9174372E-01
          2   -1    0    0  501    0  0.00000000000E+00  0.00000000000E+00  0.29786527058E+03  0.29786527058E+03  0.00000000000E+00 0. -1.
         -1   -1    0    0    0  501 -0.00000000000E+00 -0.00000000000E+00 -0.10758698987E+04  0.10758698987E+04  0.00000000000E+00 0.  1.
         24    2    1    2    0    0 -0.12417327096E+03 -0.36264033518E+02  0.31049129881E+02  0.15524750243E+03  0.80022854218E+02 0.  0.
        254    2    1    2    0    0  0.12417327096E+03  0.36264033518E+02 -0.80905375797E+03  0.12184876668E+04  0.90189252660E+03 0.  0.
         23    2    4    4    0    0  0.32058979077E+03 -0.13625551390E+03  0.32965769567E+01  0.36022072106E+03  0.91677267881E+02 0.  0.
         23    2    4    4    0    0 -0.19641651981E+03  0.17251954741E+03 -0.81235033492E+03  0.85826694575E+03  0.91469339271E+02 0.  0.
          4    1    3    3  502    0 -0.96721655465E+02 -0.61593039019E+02  0.21097525453E+02  0.11659282427E+03  0.00000000000E+00 0. -1.
         -3    1    3    3    0  502 -0.27451615493E+02  0.25329005501E+02  0.99516044275E+01  0.38654678158E+02  0.00000000000E+00 0.  1.
         11    1    5    5    0    0  0.87558839115E+02  0.35274324607E+01 -0.97309238380E+01  0.88168497580E+02  0.00000000000E+00 0. -1.
        -11    1    5    5    0    0  0.23303095166E+03 -0.13978294636E+03  0.13027500795E+02  0.27205222348E+03  0.00000000000E+00 0.  1.
          1    1    6    6  503    0  0.15382290420E+01 -0.17812956709E+01  0.14685154232E+01  0.27741125430E+01  0.00000000000E+00 0. -1.
         -1    1    6    6    0  503 -0.19795474885E+03  0.17430084308E+03 -0.81381885035E+03  0.85549283321E+03  0.00000000000E+00 0.  1.
<mgrwt>
<rscale>  0 0.11321913E+04</rscale>
<asrwt>0</asrwt>
<pdfrwt beam="1">  1        2 0.45825427E-01 0.11321913E+04</pdfrwt>
<pdfrwt beam="2">  1       -1 0.16551844E+00 0.11321913E+04</pdfrwt>
<totfact> 0.33383342E+01</totfact>
</mgrwt>
</event>
<event>
12    6  0.1540825E-007  0.2261531E+04  0.7818608E-02  0.8493245E-01
          2   -1    0    0  501    0  0.00000000000E+00  0.00000000000E+00  0.25354460078E+04  0.25354460078E+04  0.00000000000E+00 0. -1.
         -1   -1    0    0    0  501 -0.00000000000E+00 -0.00000000000E+00 -0.50430205691E+03  0.50430205691E+03  0.00000000000E+00 0.  1.
         24    2    1    2    0    0  0.83252217546E+02  0.37450461287E+03 -0.31190845811E+03  0.50099501954E+03  0.80774294016E+02 0.  0.
        254    2    1    2    0    0 -0.83252217546E+02 -0.37450461287E+03  0.23430524090E+04  0.25387530452E+04  0.89899265637E+03 0.  0.
         23    2    4    4    0    0 -0.20905078343E+03 -0.33772517262E+03  0.23431446815E+04  0.23783542802E+04  0.92095393980E+02 0.  0.
         23    2    4    4    0    0  0.12579856588E+03 -0.36779440248E+02 -0.92272437001E-01  0.16039876499E+03  0.92464852205E+02 0.  0.
          4    1    3    3  502    0  0.36920860061E+01  0.59012421873E+01  0.48774698265E+01  0.84997570752E+01  0.00000000000E+00 0. -1.
         -3    1    3    3    0  502  0.79560131540E+02  0.36860337068E+03 -0.31678592794E+03  0.49249526246E+03  0.00000000000E+00 0.  1.
         11    1    5    5    0    0 -0.11007852402E+03 -0.25269127236E+03  0.16858255701E+04  0.17082090075E+04  0.00000000000E+00 0. -1.
        -11    1    5    5    0    0 -0.98972259408E+02 -0.85033900257E+02  0.65731911137E+03  0.67014527268E+03  0.00000000000E+00 0.  1.
          1    1    6    6  503    0  0.12002706673E+03 -0.61541823458E+02 -0.20182709338E+01  0.13489983766E+03  0.00000000000E+00 0. -1.
         -1    1    6    6    0  503  0.57714991453E+01  0.24762383210E+02  0.19259984968E+01  0.25498927327E+02  0.00000000000E+00 0.  1.
<mgrwt>
<rscale>  0 0.22615310E+04</rscale>
<asrwt>0</asrwt>
<pdfrwt beam="1">  1        2 0.39006861E+00 0.22615310E+04</pdfrwt>
<pdfrwt beam="2">  1       -1 0.77584933E-01 0.22615310E+04</pdfrwt>
<totfact> 0.57195993E+00</totfact>
</mgrwt>
</event>
<event>
12    6  0.1540825E-007  0.2922756E+04  0.7818608E-02  0.8266139E-01
          2   -1    0    0  501    0  0.00000000000E+00  0.00000000000E+00  0.22489302319E+04  0.22489302319E+04  0.00000000000E+00 0. -1.
         -1   -1    0    0    0  501 -0.00000000000E+00 -0.00000000000E+00 -0.94961846302E+03  0.94961846302E+03  0.00000000000E+00 0.  1.
         24    2    1    2    0    0 -0.42147747157E+03 -0.39197071920E+03  0.18900891318E+04  0.19773069662E+04  0.77599024385E+02 0.  0.
        254    2    1    2    0    0  0.42147747157E+03  0.39197071920E+03 -0.59077736295E+03  0.12212417287E+04  0.90062709466E+03 0.  0.
         23    2    4    4    0    0  0.44302962898E+03  0.65119012696E+03 -0.42689561360E+03  0.90052793851E+03  0.91579853249E+02 0.  0.
         23    2    4    4    0    0 -0.21552157410E+02 -0.25921940777E+03 -0.16388174934E+03  0.32071379020E+03  0.91328585925E+02 0.  0.
          4    1    3    3  502    0 -0.37106672953E+03 -0.36828520254E+03  0.16501510822E+04  0.17309890532E+04  0.00000000000E+00 0. -1.
         -3    1    3    3    0  502 -0.50410742048E+02 -0.23685516660E+02  0.23993804957E+03  0.24631791296E+03  0.00000000000E+00 0.  1.
         11    1    5    5    0    0  0.56525002352E+02  0.10140084283E+03 -0.99845050300E+02  0.15312165388E+03  0.00000000000E+00 0.  1.
        -11    1    5    5    0    0  0.38650462663E+03  0.54978928413E+03 -0.32705056330E+03  0.74740628463E+03  0.00000000000E+00 0. -1.
          2    1    6    6  503    0 -0.22102674595E+02 -0.72682556542E+01 -0.88982883205E+01  0.24910545951E+02  0.00000000000E+00 0.  1.
         -2    1    6    6    0  503  0.55051718535E+00 -0.25195115211E+03 -0.15498346102E+03  0.29580324425E+03  0.00000000000E+00 0. -1.
<mgrwt>
<rscale>  0 0.29227560E+04</rscale>
<asrwt>0</asrwt>
<pdfrwt beam="1">  1        2 0.34598927E+00 0.29227560E+04</pdfrwt>
<pdfrwt beam="2">  1       -1 0.14609515E+00 0.29227560E+04</pdfrwt>
<totfact> 0.17774508E+00</totfact>
</mgrwt>
</event>
<event>
12    6  0.1540825E-007  0.2711764E+04  0.7818608E-02  0.8331198E-01
          2   -1    0    0  501    0  0.00000000000E+00  0.00000000000E+00  0.35842604729E+04  0.35842604729E+04  0.00000000000E+00 0. -1.
         -1   -1    0    0    0  501 -0.00000000000E+00 -0.00000000000E+00 -0.51291357028E+03  0.51291357028E+03  0.00000000000E+00 0.  1.
         24    2    1    2    0    0  0.11251934225E+04  0.41021139342E+02  0.72590402932E+03  0.13420174740E+04  0.79569270125E+02 0.  0.
        254    2    1    2    0    0 -0.11251934225E+04 -0.41021139342E+02  0.23454428733E+04  0.27551565692E+04  0.90666558152E+03 0.  0.
         23    2    4    4    0    0 -0.50234337029E+03  0.40088486815E+03  0.13439088206E+04  0.14924653089E+04  0.91127607613E+02 0.  0.
         23    2    4    4    0    0 -0.62285005225E+03 -0.44190600750E+03  0.10015340527E+04  0.12626912603E+04  0.89975847288E+02 0.  0.
          4    1    3    3  502    0  0.37238163542E+03  0.41133791651E+02  0.21126657665E+03  0.43010886718E+03  0.00000000000E+00 0. -1.
         -3    1    3    3    0  502  0.75281178712E+03 -0.11265230937E+00  0.51463745266E+03  0.91190860683E+03  0.00000000000E+00 0.  1.
         11    1    5    5    0    0 -0.26223643682E+03  0.17191048635E+03  0.57284096366E+03  0.65304512383E+03  0.00000000000E+00 0. -1.
        -11    1    5    5    0    0 -0.24010693347E+03  0.22897438181E+03  0.77106785696E+03  0.83942018504E+03  0.00000000000E+00 0.  1.
          2    1    6    6  503    0 -0.34683937525E+03 -0.29799252362E+03  0.61638958466E+03  0.76748499427E+03  0.00000000000E+00 0. -1.
         -2    1    6    6    0  503 -0.27601067701E+03 -0.14391348388E+03  0.38514446804E+03  0.49520626604E+03  0.00000000000E+00 0.  1.
<mgrwt>
<rscale>  0 0.27117639E+04</rscale>
<asrwt>0</asrwt>
<pdfrwt beam="1">  1        2 0.55142467E+00 0.27117639E+04</pdfrwt>
<pdfrwt beam="2">  1       -1 0.78909782E-01 0.27117639E+04</pdfrwt>
<totfact> 0.11342205E+00</totfact>
</mgrwt>
</event>
<event>
12    6  0.1540825E-007  0.1795996E+04  0.7818608E-02  0.8708431E-01
          2   -1    0    0  501    0  0.00000000000E+00  0.00000000000E+00  0.13979944172E+04  0.13979944172E+04  0.00000000000E+00 0. -1.
         -1   -1    0    0    0  501 -0.00000000000E+00 -0.00000000000E+00 -0.57682691292E+03  0.57682691292E+03  0.00000000000E+00 0.  1.
         24    2    1    2    0    0  0.54704898161E+03 -0.25979528561E+02 -0.10944384423E+03  0.56417617852E+03  0.79870402397E+02 0.  0.
        254    2    1    2    0    0 -0.54704898161E+03  0.25979528561E+02  0.93061134851E+03  0.14106451516E+04  0.90771401750E+03 0.  0.
         23    2    4    4    0    0  0.90739779390E+02  0.25740030523E+03  0.56561525475E+03  0.63478936198E+03  0.92456979074E+02 0.  0.
         23    2    4    4    0    0 -0.63778876100E+03 -0.23142077667E+03  0.36499609376E+03  0.77585578962E+03  0.91651395477E+02 0.  0.
          4    1    3    3  502    0  0.32139441853E+03 -0.64686567518E+01 -0.10310946126E+03  0.33759113849E+03  0.00000000000E+00 0. -1.
         -3    1    3    3    0  502  0.22565456308E+03 -0.19510871809E+02 -0.63343829700E+01  0.22658504003E+03  0.00000000000E+00 0.  1.
         11    1    5    5    0    0  0.52530982702E+02  0.22375404026E+03  0.50995876527E+03  0.55935973841E+03  0.00000000000E+00 0.  1.
        -11    1    5    5    0    0  0.38208796688E+02  0.33646264972E+02  0.55656489480E+02  0.75429623572E+02  0.00000000000E+00 0. -1.
          1    1    6    6  503    0 -0.30897767664E+03 -0.12132930467E+03  0.22956774168E+03  0.40359553126E+03  0.00000000000E+00 0. -1.
         -1    1    6    6    0  503 -0.32881108437E+03 -0.11009147200E+03  0.13542835208E+03  0.37226025836E+03  0.00000000000E+00 0.  1.
<mgrwt>
<rscale>  0 0.17959964E+04</rscale>
<asrwt>0</asrwt>
<pdfrwt beam="1">  1        2 0.21507606E+00 0.17959964E+04</pdfrwt>
<pdfrwt beam="2">  1       -1 0.88742602E-01 0.17959964E+04</pdfrwt>
<totfact> 0.19458623E+01</totfact>
</mgrwt>
</event>
<event>
12    6  0.1540825E-007  0.3165008E+04  0.7818608E-02  0.8198120E-01
         -1   -1    0    0    0  501 -0.00000000000E+00  0.00000000000E+00  0.83504649548E+03  0.83504649548E+03  0.00000000000E+00 0.  1.
          2   -1    0    0  501    0  0.00000000000E+00 -0.00000000000E+00 -0.29990169721E+04  0.29990169721E+04  0.00000000000E+00 0. -1.
         24    2    1    2    0    0 -0.21286819944E+03 -0.42456159534E+03 -0.26800665235E+04  0.27229541466E+04  0.78468437463E+02 0.  0.
        254    2    1    2    0    0  0.21286819944E+03  0.42456159534E+03  0.51609604691E+03  0.11111093209E+04  0.86176758748E+03 0.  0.
         23    2    4    4    0    0  0.43082508287E+03  0.45485316906E+03  0.58617731053E+03  0.86277264078E+03  0.90945768778E+02 0.  0.
         23    2    4    4    0    0 -0.21795688343E+03 -0.30291573725E+02 -0.70081263626E+02  0.24833668014E+03  0.91306849251E+02 0.  0.
          4    1    3    3  502    0 -0.20010615889E+03 -0.33170034329E+03 -0.21218623233E+04  0.21569347027E+04  0.00000000000E+00 0. -1.
         -3    1    3    3    0  502 -0.12762040557E+02 -0.92861252045E+02 -0.55820420017E+03  0.56601944392E+03  0.00000000000E+00 0.  1.
         11    1    5    5    0    0  0.24499676551E+03  0.20980087422E+03  0.34173719532E+03  0.46991928307E+03  0.00000000000E+00 0. -1.
        -11    1    5    5    0    0  0.18582831736E+03  0.24505229484E+03  0.24444011521E+03  0.39285335770E+03  0.00000000000E+00 0.  1.
          1    1    6    6  503    0 -0.65659745579E+02 -0.14341646727E+01 -0.66244325803E+02  0.93282204728E+02  0.00000000000E+00 0. -1.
         -1    1    6    6    0  503 -0.15229713785E+03 -0.28857409052E+02 -0.38369378230E+01  0.15505447541E+03  0.00000000000E+00 0.  1.
<mgrwt>
<rscale>  0 0.31650078E+04</rscale>
<asrwt>0</asrwt>
<pdfrwt beam="1">  1        2 0.46138723E+00 0.31650078E+04</pdfrwt>
<pdfrwt beam="2">  1       -1 0.12846869E+00 0.31650078E+04</pdfrwt>
<totfact> 0.87339804E-01</totfact>
</mgrwt>
</event>
<event>
12    6  0.1540825E-007  0.3026309E+04  0.7818608E-02  0.8236258E-01
         -1   -1    0    0    0  501 -0.00000000000E+00  0.00000000000E+00  0.12742297690E+04  0.12742297690E+04  0.00000000000E+00 0.  1.
          2   -1    0    0  501    0  0.00000000000E+00 -0.00000000000E+00 -0.17968783459E+04  0.17968783459E+04  0.00000000000E+00 0. -1.
         24    2    1    2    0    0 -0.69247169388E+03 -0.10813963997E+04  0.28479079538E+03  0.13176906218E+04  0.79167907513E+02 0.  0.
        254    2    1    2    0    0  0.69247169388E+03  0.10813963997E+04 -0.80743937225E+03  0.17534174930E+04  0.87953359506E+03 0.  0.
         23    2    4    4    0    0 -0.15106796882E+03  0.10256477320E+03 -0.29745435465E+03  0.36128743316E+03  0.93319088887E+02 0.  0.
         23    2    4    4    0    0  0.84353966269E+03  0.97883162651E+03 -0.50998501760E+03  0.13921300599E+04  0.90944322616E+02 0.  0.
          2    1    3    3  502    0 -0.37155448335E+03 -0.51766509757E+03  0.11993255118E+03  0.64839317098E+03  0.00000000000E+00 0. -1.
         -1    1    3    3    0  502 -0.32091721052E+03 -0.56373130215E+03  0.16485824420E+03  0.66929745085E+03  0.00000000000E+00 0.  1.
         11    1    5    5    0    0 -0.11353753755E+02 -0.17487838727E+02 -0.29862046914E+02  0.36420791776E+02  0.00000000000E+00 0.  1.
        -11    1    5    5    0    0 -0.13971421506E+03  0.12005261193E+03 -0.26759230774E+03  0.32486664138E+03  0.00000000000E+00 0. -1.
          3    1    6    6  503    0  0.74624469017E+03  0.83207121528E+03 -0.41648352685E+03  0.11927624127E+04  0.00000000000E+00 0. -1.
         -3    1    6    6    0  503  0.97294972525E+02  0.14676041123E+03 -0.93501490747E+02  0.19936764722E+03  0.00000000000E+00 0.  1.
<mgrwt>
<rscale>  0 0.30263086E+04</rscale>
<asrwt>0</asrwt>
<pdfrwt beam="1">  1        2 0.27644282E+00 0.30263086E+04</pdfrwt>
<pdfrwt beam="2">  1       -1 0.19603535E+00 0.30263086E+04</pdfrwt>
<totfact> 0.13502113E+00</totfact>
</mgrwt>
</event>
<event>
12    6  0.1540825E-007  0.1079831E+04  0.7818608E-02  0.9225076E-01
          2   -1    0    0  501    0  0.00000000000E+00  0.00000000000E+00  0.92046254338E+03  0.92046254338E+03  0.00000000000E+00 0. -1.
         -1   -1    0    0    0  501 -0.00000000000E+00 -0.00000000000E+00 -0.31669828448E+03  0.31669828448E+03  0.00000000000E+00 0.  1.
         24    2    1    2    0    0  0.25589340162E+02 -0.20096053309E+02 -0.75361819992E+02  0.11127027798E+03  0.75119938506E+02 0.  0.
        254    2    1    2    0    0 -0.25589340162E+02  0.20096053309E+02  0.67912607889E+03  0.11258905499E+04  0.89741775867E+03 0.  0.
         23    2    4    4    0    0 -0.48696884238E+02  0.25162925261E+03  0.80198747771E+03  0.84726502421E+03  0.94791558424E+02 0.  0.
         23    2    4    4    0    0  0.23107544075E+02 -0.23153319930E+03 -0.12286139882E+03  0.27862552566E+03  0.91627939291E+02 0.  0.
          4    1    3    3  502    0  0.10903315674E+02  0.28804063992E+02 -0.29075184188E+02  0.42354725010E+02  0.00000000000E+00 0. -1.
         -3    1    3    3    0  502  0.14686024489E+02 -0.48900117301E+02 -0.46286635804E+02  0.68915552971E+02  0.00000000000E+00 0.  1.
         11    1    5    5    0    0 -0.65537760649E+02  0.17894911000E+03  0.47349887653E+03  0.51041078370E+03  0.00000000000E+00 0. -1.
        -11    1    5    5    0    0  0.16840876412E+02  0.72680142615E+02  0.32848860118E+03  0.33685424051E+03  0.00000000000E+00 0.  1.
          2    1    6    6  503    0  0.44225791203E+02 -0.19631651330E+03 -0.12602365376E+03  0.23744063534E+03  0.00000000000E+00 0. -1.
         -2    1    6    6    0  503 -0.21118247128E+02 -0.35216686006E+02  0.31622549441E+01  0.41184890328E+02  0.00000000000E+00 0.  1.
<mgrwt>
<rscale>  0 0.10798313E+04</rscale>
<asrwt>0</asrwt>
<pdfrwt beam="1">  1        2 0.14160962E+00 0.10798313E+04</pdfrwt>
<pdfrwt beam="2">  1       -1 0.48722813E-01 0.10798313E+04</pdfrwt>
<totfact> 0.13576108E+02</totfact>
</mgrwt>
</event>
<event>
12    6  0.1540825E-007  0.1530932E+04  0.7818608E-02  0.8864140E-01
         -1   -1    0    0    0  501 -0.00000000000E+00  0.00000000000E+00  0.23891494630E+03  0.23891494630E+03  0.00000000000E+00 0.  1.
          2   -1    0    0  501    0  0.00000000000E+00 -0.00000000000E+00 -0.24524966313E+04  0.24524966313E+04  0.00000000000E+00 0. -1.
         24    2    1    2    0    0 -0.13216408483E+03  0.38934892718E+03 -0.12038295736E+04  0.12759264706E+04  0.98604177001E+02 0.  0.
        254    2    1    2    0    0  0.13216408483E+03 -0.38934892718E+03 -0.10097521114E+04  0.14154851070E+04  0.90273962427E+03 0.  0.
         23    2    4    4    0    0  0.50365624778E+03 -0.19355411561E+03 -0.68408315758E+03  0.87639897115E+03  0.94723695880E+02 0.  0.
         23    2    4    4    0    0 -0.37149216296E+03 -0.19579481157E+03 -0.32566895384E+03  0.53908613585E+03  0.90617652756E+02 0.  0.
          4    1    3    3  502    0 -0.38745594542E+02  0.24589485011E+03 -0.78273060122E+03  0.82136026961E+03  0.00000000000E+00 0. -1.
         -3    1    3    3    0  502 -0.93418490285E+02  0.14345407707E+03 -0.42109897239E+03  0.45456620101E+03  0.00000000000E+00 0.  1.
         11    1    5    5    0    0  0.18617308992E+02 -0.15794672476E+02 -0.83040143500E+01  0.25788224581E+02  0.00000000000E+00 0. -1.
        -11    1    5    5    0    0  0.48503893879E+03 -0.17775944313E+03 -0.67577914323E+03  0.85061074657E+03  0.00000000000E+00 0.  1.
          2    1    6    6  503    0 -0.18596798342E+03 -0.51650938962E+02 -0.12351469137E+03  0.22914578185E+03  0.00000000000E+00 0. -1.
         -2    1    6    6    0  503 -0.18552417953E+03 -0.14414387261E+03 -0.20215426248E+03  0.30994035400E+03  0.00000000000E+00 0.  1.
<mgrwt>
<rscale>  0 0.15309319E+04</rscale>
<asrwt>0</asrwt>
<pdfrwt beam="1">  1        2 0.37730716E+00 0.15309319E+04</pdfrwt>
<pdfrwt beam="2">  1       -1 0.36756147E-01 0.15309319E+04</pdfrwt>
<totfact> 0.28989788E+01</totfact>
</mgrwt>
</event>
<event>
12    6  0.1540825E-007  0.1342926E+04  0.7818608E-02  0.8996200E-01
          2   -1    0    0  501    0  0.00000000000E+00  0.00000000000E+00  0.96761013026E+03  0.96761013026E+03  0.00000000000E+00 0. -1.
         -1   -1    0    0    0  501 -0.00000000000E+00 -0.00000000000E+00 -0.46595480366E+03  0.46595480366E+03  0.00000000000E+00 0.  1.
         24    2    1    2    0    0 -0.57592026862E+02  0.13960517037E+03 -0.21574882926E+03  0.27535152825E+03  0.80401875808E+02 0.  0.
        254    2    1    2    0    0  0.57592026862E+02 -0.13960517037E+03  0.71740415585E+03  0.11582134057E+04  0.89665106094E+03 0.  0.
         23    2    4    4    0    0  0.12820030597E+03 -0.41240430441E+03  0.71815469892E+02  0.44795136090E+03  0.94817357421E+02 0.  0.
         23    2    4    4    0    0 -0.70608279107E+02  0.27279913405E+03  0.64558868596E+03  0.71026204477E+03  0.91008374239E+02 0.  0.
          4    1    3    3  502    0 -0.75355264207E+02  0.85000626233E+02 -0.14706544634E+03  0.18582725261E+03  0.00000000000E+00 0. -1.
         -3    1    3    3    0  502  0.17763237344E+02  0.54604544134E+02 -0.68683382915E+02  0.89524275645E+02  0.00000000000E+00 0.  1.
         11    1    5    5    0    0  0.25714350208E+02 -0.26134118246E+02 -0.13930917446E+02  0.39221045422E+02  0.00000000000E+00 0. -1.
        -11    1    5    5    0    0  0.10248595576E+03 -0.38627018617E+03  0.85746387338E+02  0.40873031548E+03  0.00000000000E+00 0.  1.
          4    1    6    6  503    0  0.12082469820E+02  0.76244238220E+01  0.66285552692E+02  0.67807760701E+02  0.00000000000E+00 0. -1.
         -4    1    6    6    0  503 -0.82690748926E+02  0.26517471022E+03  0.57930313327E+03  0.64245428407E+03  0.00000000000E+00 0.  1.
<mgrwt>
<rscale>  0 0.13429260E+04</rscale>
<asrwt>0</asrwt>
<pdfrwt beam="1">  1        2 0.14886310E+00 0.13429260E+04</pdfrwt>
<pdfrwt beam="2">  1       -1 0.71685355E-01 0.13429260E+04</pdfrwt>
<totfact> 0.57918083E+01</totfact>
</mgrwt>
</event>
<event>
12    6  0.1540825E-007  0.1658002E+04  0.7818608E-02  0.8785686E-01
         -1   -1    0    0    0  501 -0.00000000000E+00  0.00000000000E+00  0.69830243266E+03  0.69830243266E+03  0.00000000000E+00 0.  1.
          2   -1    0    0  501    0  0.00000000000E+00 -0.00000000000E+00 -0.98416223851E+03  0.98416223851E+03  0.00000000000E+00 0. -1.
         24    2    1    2    0    0  0.10668443165E+03 -0.58014808226E+03 -0.88636304734E+02  0.60176594323E+03  0.79451183850E+02 0.  0.
        254    2    1    2    0    0 -0.10668443165E+03  0.58014808226E+03 -0.19722350112E+03  0.10806987279E+04  0.88377557438E+03 0.  0.
         23    2    4    4    0    0 -0.32095940212E+02 -0.16089475298E+03  0.16316460419E+03  0.24839756321E+03  0.90340414179E+02 0.  0.
         23    2    4    4    0    0 -0.74588491441E+02  0.74104283523E+03 -0.36038810531E+03  0.83230116473E+03  0.90209288134E+02 0.  0.
          2    1    3    3  502    0  0.63688024778E+02 -0.44747688010E+03 -0.96146449831E+02  0.46209940764E+03  0.00000000000E+00 0. -1.
         -1    1    3    3    0  502  0.42996406875E+02 -0.13267120216E+03  0.75101450969E+01  0.13966653560E+03  0.00000000000E+00 0.  1.
         11    1    5    5    0    0 -0.31352962752E+02 -0.14195133808E+03  0.85929902079E+02  0.16887018306E+03  0.00000000000E+00 0. -1.
        -11    1    5    5    0    0 -0.74297745961E+00 -0.18943414900E+02  0.77234702107E+02  0.79527380147E+02  0.00000000000E+00 0.  1.
          2    1    6    6  503    0 -0.65937419285E+02  0.60908122398E+03 -0.25666578615E+03  0.66423264482E+03  0.00000000000E+00 0. -1.
         -2    1    6    6    0  503 -0.86510721557E+01  0.13196161125E+03 -0.10372231916E+03  0.16806851991E+03  0.00000000000E+00 0.  1.
<mgrwt>
<rscale>  0 0.16580023E+04</rscale>
<asrwt>0</asrwt>
<pdfrwt beam="1">  1        2 0.15140957E+00 0.16580023E+04</pdfrwt>
<pdfrwt beam="2">  1       -1 0.10743114E+00 0.16580023E+04</pdfrwt>
<totfact> 0.22671757E+01</totfact>
</mgrwt>
</event>
<event>
12    6  0.1540825E-007  0.1379721E+04  0.7818608E-02  0.8968630E-01
          2   -1    0    0  501    0  0.00000000000E+00  0.00000000000E+00  0.16589953245E+04  0.16589953245E+04  0.00000000000E+00 0. -1.
         -1   -1    0    0    0  501 -0.00000000000E+00 -0.00000000000E+00 -0.28686481072E+03  0.28686481072E+03  0.00000000000E+00 0.  1.
         24    2    1    2    0    0  0.58877916790E+02 -0.29962974087E+02  0.62247453069E+03  0.63004364639E+03  0.71526681008E+02 0.  0.
        254    2    1    2    0    0 -0.58877916790E+02  0.29962974087E+02  0.74965598308E+03  0.13158164888E+04  0.10793630299E+04 0.  0.
         23    2    4    4    0    0 -0.31759706696E+03 -0.42121679753E+03  0.26051519556E+03  0.59547296300E+03  0.91806291055E+02 0.  0.
         23    2    4    4    0    0  0.25871915017E+03  0.45117977162E+03  0.48914078751E+03  0.72034352583E+03  0.95589226418E+02 0.  0.
          2    1    3    3  502    0  0.55379142975E+02 -0.18489865069E+02  0.60981723752E+03  0.61260573599E+03  0.00000000000E+00 0. -1.
         -1    1    3    3    0  502  0.34987738154E+01 -0.11473109018E+02  0.12657293163E+02  0.17437910396E+02  0.00000000000E+00 0.  1.
         11    1    5    5    0    0 -0.30381412614E+02 -0.10001362351E+03  0.47707907715E+02  0.11489908432E+03  0.00000000000E+00 0. -1.
        -11    1    5    5    0    0 -0.28721565434E+03 -0.32120317403E+03  0.21280728785E+03  0.48057387868E+03  0.00000000000E+00 0.  1.
          3    1    6    6  503    0  0.51200376630E+02  0.99525872796E+02  0.56246027391E+02  0.12526170013E+03  0.00000000000E+00 0. -1.
         -3    1    6    6    0  503  0.20751877354E+03  0.35165389883E+03  0.43289476012E+03  0.59508182569E+03  0.00000000000E+00 0.  1.
<mgrwt>
<rscale>  0 0.13797208E+04</rscale>
<asrwt>0</asrwt>
<pdfrwt beam="1">  1        2 0.25523004E+00 0.13797208E+04</pdfrwt>
<pdfrwt beam="2">  1       -1 0.44133049E-01 0.13797208E+04</pdfrwt>
<totfact> 0.58291162E+01</totfact>
</mgrwt>
</event>
<event>
12    6  0.1540825E-007  0.2665915E+04  0.7818608E-02  0.8346150E-01
          2   -1    0    0  501    0  0.00000000000E+00  0.00000000000E+00  0.17793863068E+04  0.17793863068E+04  0.00000000000E+00 0. -1.
         -1   -1    0    0    0  501 -0.00000000000E+00 -0.00000000000E+00 -0.99853256398E+03  0.99853256398E+03  0.00000000000E+00 0.  1.
         24    2    1    2    0    0  0.25559079669E+03 -0.88655219364E+03 -0.42374173483E+03  0.10184751269E+04  0.80206476814E+02 0.  0.
        254    2    1    2    0    0 -0.25559079669E+03  0.88655219364E+03  0.12045954777E+04  0.17594437439E+04  0.89066861157E+03 0.  0.
         23    2    4    4    0    0 -0.28085815865E+03  0.82019906550E+03  0.42214555181E+03  0.96859240184E+03  0.91414231163E+02 0.  0.
         23    2    4    4    0    0  0.25267361963E+02  0.66353128133E+02  0.78244992585E+03  0.79085134202E+03  0.90425557908E+02 0.  0.
          4    1    3    3  502    0  0.14387392018E+03 -0.42212739996E+03 -0.24196924722E+03  0.50738581307E+03  0.00000000000E+00 0. -1.
         -3    1    3    3    0  502  0.11171687651E+03 -0.46442479368E+03 -0.18177248761E+03  0.51108931385E+03  0.00000000000E+00 0.  1.
         11    1    5    5    0    0 -0.28232943069E+03  0.81012055461E+03  0.42581002003E+03  0.95776792262E+03  0.00000000000E+00 0. -1.
        -11    1    5    5    0    0  0.14712720347E+01  0.10078510890E+02 -0.36644682179E+01  0.10824479224E+02  0.00000000000E+00 0.  1.
          2    1    6    6  503    0 -0.34074535536E+01  0.63306504334E+02  0.71072179941E+03  0.71354383214E+03  0.00000000000E+00 0. -1.
         -2    1    6    6    0  503  0.28674815517E+02  0.30466237991E+01  0.71728126444E+02  0.77307509885E+02  0.00000000000E+00 0.  1.
<mgrwt>
<rscale>  0 0.26659146E+04</rscale>
<asrwt>0</asrwt>
<pdfrwt beam="1">  1        2 0.27375174E+00 0.26659146E+04</pdfrwt>
<pdfrwt beam="2">  1       -1 0.15362040E+00 0.26659146E+04</pdfrwt>
<totfact> 0.29011862E+00</totfact>
</mgrwt>
</event>
<event>
12    6  0.1540825E-007  0.1453346E+04  0.7818608E-02  0.8916084E-01
         -1   -1    0    0    0  501 -0.00000000000E+00  0.00000000000E+00  0.14231508556E+04  0.14231508556E+04  0.00000000000E+00 0.  1.
          2   -1    0    0  501    0  0.00000000000E+00 -0.00000000000E+00 -0.37104549692E+03  0.37104549692E+03  0.00000000000E+00 0. -1.
         24    2    1    2    0    0 -0.40209702745E+03 -0.16800286313E+03  0.42118070384E+03  0.60990022235E+03  0.68396742856E+02 0.  0.
        254    2    1    2    0    0  0.40209702745E+03  0.16800286313E+03  0.63092465480E+03  0.11842961301E+04  0.90254330772E+03 0.  0.
         23    2    4    4    0    0  0.18922090078E+03 -0.34286402811E+03  0.42984032988E+03  0.58852025422E+03  0.90736372937E+02 0.  0.
         23    2    4    4    0    0  0.21287612667E+03  0.51086689124E+03  0.20108432492E+03  0.59577587591E+03  0.90624294293E+02 0.  0.
          4    1    3    3  502    0 -0.22761814265E+03 -0.10517485188E+03  0.28637608921E+03  0.38063503886E+03  0.00000000000E+00 0. -1.
         -3    1    3    3    0  502 -0.17447888480E+03 -0.62828011246E+02  0.13480461462E+03  0.22926518349E+03  0.00000000000E+00 0.  1.
         11    1    5    5    0    0  0.25591484473E+02 -0.67178822262E+02  0.35110319441E+02  0.80004079704E+02  0.00000000000E+00 0.  1.
        -11    1    5    5    0    0  0.16362941631E+03 -0.27568520585E+03  0.39473001044E+03  0.50851617452E+03  0.00000000000E+00 0. -1.
          2    1    6    6  503    0  0.75829124501E+02  0.20265057446E+03  0.32898233617E+02  0.21885978439E+03  0.00000000000E+00 0. -1.
         -2    1    6    6    0  503  0.13704700217E+03  0.30821631678E+03  0.16818609130E+03  0.37691609152E+03  0.00000000000E+00 0.  1.
<mgrwt>
<rscale>  0 0.14533461E+04</rscale>
<asrwt>0</asrwt>
<pdfrwt beam="1">  1        2 0.57083923E-01 0.14533461E+04</pdfrwt>
<pdfrwt beam="2">  1       -1 0.21894628E+00 0.14533461E+04</pdfrwt>
<totfact> 0.10741949E+01</totfact>
</mgrwt>
</event>
<event>
12    6  0.1540825E-007  0.1685855E+04  0.7818608E-02  0.8769473E-01
          2   -1    0    0  501    0  0.00000000000E+00  0.00000000000E+00  0.75557926773E+03  0.75557926773E+03  0.00000000000E+00 0. -1.
         -1   -1    0    0    0  501 -0.00000000000E+00 -0.00000000000E+00 -0.94037399146E+03  0.94037399146E+03  0.00000000000E+00 0.  1.
         24    2    1    2    0    0 -0.31367702062E+03  0.34728410745E+03 -0.46478264425E+03  0.66419034452E+03  0.78271213125E+02 0.  0.
        254    2    1    2    0    0  0.31367702062E+03 -0.34728410745E+03  0.27998792052E+03  0.10317629147E+04  0.87586640070E+03 0.  0.
         23    2    4    4    0    0  0.11462695603E+03  0.10403722228E+03  0.46275815302E+03  0.49627823270E+03  0.90464873800E+02 0.  0.
         23    2    4    4    0    0  0.19905006459E+03 -0.45132132974E+03 -0.18277023250E+03  0.53548468196E+03  0.10013498808E+03 0.  0.
          4    1    3    3  502    0 -0.25972250665E+03  0.27560396946E+03 -0.41407895978E+03  0.56113698272E+03  0.00000000000E+00 0. -1.
         -3    1    3    3    0  502 -0.53954513970E+02  0.71680137986E+02 -0.50703684478E+02  0.10305336180E+03  0.00000000000E+00 0.  1.
         11    1    5    5    0    0  0.41319736548E+02  0.83544915152E+02  0.17096703499E+03  0.19472236782E+03  0.00000000000E+00 0. -1.
        -11    1    5    5    0    0  0.73307219482E+02  0.20492307132E+02  0.29179111803E+03  0.30155586488E+03  0.00000000000E+00 0.  1.
          3    1    6    6  503    0  0.64657335868E+02 -0.15353600157E+03 -0.12482826219E+02  0.16706195202E+03  0.00000000000E+00 0. -1.
         -3    1    6    6    0  503  0.13439272872E+03 -0.29778532816E+03 -0.17028740628E+03  0.36842272994E+03  0.00000000000E+00 0.  1.
<mgrwt>
<rscale>  0 0.16858554E+04</rscale>
<asrwt>0</asrwt>
<pdfrwt beam="1">  1        2 0.11624296E+00 0.16858554E+04</pdfrwt>
<pdfrwt beam="2">  1       -1 0.14467292E+00 0.16858554E+04</pdfrwt>
<totfact> 0.15528833E+01</totfact>
</mgrwt>
</event>
<event>
12    6  0.1540825E-007  0.1487047E+04  0.7818608E-02  0.8893113E-01
          2   -1    0    0  501    0  0.00000000000E+00  0.00000000000E+00  0.23979452348E+03  0.23979452348E+03  0.00000000000E+00 0. -1.
         -1   -1    0    0    0  501 -0.00000000000E+00 -0.00000000000E+00 -0.23054189202E+04  0.23054189202E+04  0.00000000000E+00 0.  1.
         24    2    1    2    0    0 -0.58197025782E+02 -0.29951035368E+03 -0.10093877117E+03  0.33112782778E+03  0.79772533091E+02 0.  0.
        254    2    1    2    0    0  0.58197025782E+02  0.29951035368E+03 -0.19646856255E+04  0.22140856159E+04  0.97421361183E+03 0.  0.
         23    2    4    4    0    0  0.49760143722E+03  0.58551286025E+02 -0.10619101087E+04  0.11776465416E+04  0.90348517171E+02 0.  0.
         23    2    4    4    0    0 -0.43940441144E+03  0.24095906765E+03 -0.90277551686E+03  0.10364390743E+04  0.89804297379E+02 0.  0.
          4    1    3    3  502    0 -0.38379346314E+02 -0.28711556152E+03 -0.82023020195E+02  0.30105829292E+03  0.00000000000E+00 0. -1.
         -3    1    3    3    0  502 -0.19817679468E+02 -0.12394792153E+02 -0.18915750970E+02  0.30069534861E+02  0.00000000000E+00 0.  1.
         11    1    5    5    0    0  0.81188188764E+02 -0.23769218578E+02 -0.18248302537E+03  0.20113814232E+03  0.00000000000E+00 0. -1.
        -11    1    5    5    0    0  0.41641324846E+03  0.82320504603E+02 -0.87942708330E+03  0.97650839925E+03  0.00000000000E+00 0.  1.
          3    1    6    6  503    0 -0.15399183870E+03  0.11929058484E+03 -0.28618266666E+03  0.34618528090E+03  0.00000000000E+00 0. -1.
         -3    1    6    6    0  503 -0.28541257274E+03  0.12166848281E+03 -0.61659285020E+03  0.69025379340E+03  0.00000000000E+00 0.  1.
<mgrwt>
<rscale>  0 0.14870465E+04</rscale>
<asrwt>0</asrwt>
<pdfrwt beam="1">  1        2 0.36891466E-01 0.14870465E+04</pdfrwt>
<pdfrwt beam="2">  1       -1 0.35467982E+00 0.14870465E+04</pdfrwt>
<totfact> 0.22731110E+00</totfact>
</mgrwt>
</event>
<event>
12    6  0.1540825E-007  0.2208408E+04  0.7818608E-02  0.8514937E-01
          2   -1    0    0  501    0  0.00000000000E+00  0.00000000000E+00  0.22796911974E+04  0.22796911974E+04  0.00000000000E+00 0. -1.
         -1   -1    0    0    0  501 -0.00000000000E+00 -0.00000000000E+00 -0.53483833515E+03  0.53483833515E+03  0.00000000000E+00 0.  1.
         24    2    1    2    0    0 -0.15864876540E+03  0.85613794260E+03  0.10946549069E+04  0.14010279260E+04  0.80425598533E+02 0.  0.
        254    2    1    2    0    0  0.15864876540E+03 -0.85613794260E+03  0.65019795540E+03  0.14135016065E+04  0.90392909177E+03 0.  0.
         23    2    4    4    0    0  0.95582957861E+02 -0.35231428412E+03 -0.19488063430E+03  0.42355314348E+03  0.90318033078E+02 0.  0.
         23    2    4    4    0    0  0.63065807539E+02 -0.50382365847E+03  0.84507858970E+03  0.98994846305E+03  0.89579918521E+02 0.  0.
          4    1    3    3  502    0 -0.14418805201E+03  0.71954185177E+03  0.87543958162E+03  0.11423331965E+04  0.00000000000E+00 0. -1.
         -3    1    3    3    0  502 -0.14460713388E+02  0.13659609083E+03  0.21921532526E+03  0.25869472953E+03  0.00000000000E+00 0.  1.
         11    1    5    5    0    0  0.51333859421E+02 -0.26795070821E+03 -0.18070211856E+03  0.32723997739E+03  0.00000000000E+00 0.  1.
        -11    1    5    5    0    0  0.44249098440E+02 -0.84363575917E+02 -0.14178515742E+02  0.96313166093E+02  0.00000000000E+00 0. -1.
          4    1    6    6  503    0 -0.75538837263E+01 -0.94877501114E+01  0.60200616375E+01  0.13539560689E+02  0.00000000000E+00 0. -1.
         -4    1    6    6    0  503  0.70619691266E+02 -0.49433590836E+03  0.83905852806E+03  0.97640890236E+03  0.00000000000E+00 0.  1.
<mgrwt>
<rscale>  0 0.22084078E+04</rscale>
<asrwt>0</asrwt>
<pdfrwt beam="1">  1        2 0.35072172E+00 0.22084078E+04</pdfrwt>
<pdfrwt beam="2">  1       -1 0.82282822E-01 0.22084078E+04</pdfrwt>
<totfact> 0.71067885E+00</totfact>
</mgrwt>
</event>
<event>
12    6  0.1540825E-007  0.1515970E+04  0.7818608E-02  0.8873902E-01
         -1   -1    0    0    0  501 -0.00000000000E+00  0.00000000000E+00  0.61914337429E+03  0.61914337429E+03  0.00000000000E+00 0.  1.
          2   -1    0    0  501    0  0.00000000000E+00 -0.00000000000E+00 -0.92796118879E+03  0.92796118879E+03  0.00000000000E+00 0. -1.
         24    2    1    2    0    0  0.10380144307E+03 -0.44213999731E+03 -0.34300323733E+03  0.57729399642E+03  0.96719288058E+02 0.  0.
        254    2    1    2    0    0 -0.10380144307E+03  0.44213999731E+03  0.34185422826E+02  0.96981056665E+03  0.85621339352E+03 0.  0.
         23    2    4    4    0    0 -0.45382217530E+03  0.27461262746E+03  0.14289611067E+03  0.55701526314E+03  0.92087148815E+02 0.  0.
         23    2    4    4    0    0  0.35002073223E+03  0.16752736985E+03 -0.10871068785E+03  0.41279530351E+03  0.89453989879E+02 0.  0.
          2    1    3    3  502    0  0.12118736804E+03 -0.41245812274E+03 -0.31525160844E+03  0.53309629319E+03  0.00000000000E+00 0. -1.
         -1    1    3    3    0  502 -0.17385924973E+02 -0.29681874570E+02 -0.27751628883E+02  0.44197703230E+02  0.00000000000E+00 0.  1.
         11    1    5    5    0    0 -0.30340143862E+03  0.20639993699E+03  0.13717061745E+03  0.39175138192E+03  0.00000000000E+00 0.  1.
        -11    1    5    5    0    0 -0.15042073668E+03  0.68212690473E+02  0.57254932254E+01  0.16526388123E+03  0.00000000000E+00 0. -1.
          4    1    6    6  503    0  0.52356525493E+02  0.55025783430E+02 -0.44941083431E+02  0.88253858747E+02  0.00000000000E+00 0. -1.
         -4    1    6    6    0  503  0.29766420673E+03  0.11250158642E+03 -0.63769604417E+02  0.32454144476E+03  0.00000000000E+00 0.  1.
<mgrwt>
<rscale>  0 0.15159697E+04</rscale>
<asrwt>0</asrwt>
<pdfrwt beam="1">  1        2 0.14276326E+00 0.15159697E+04</pdfrwt>
<pdfrwt beam="2">  1       -1 0.95252827E-01 0.15159697E+04</pdfrwt>
<totfact> 0.32923715E+01</totfact>
</mgrwt>
</event>
<event>
12    6  0.1540825E-007  0.1959740E+04  0.7818608E-02  0.8625678E-01
         -1   -1    0    0    0  501 -0.00000000000E+00  0.00000000000E+00  0.71269136748E+03  0.71269136748E+03  0.00000000000E+00 0.  1.
          2   -1    0    0  501    0  0.00000000000E+00 -0.00000000000E+00 -0.13472098348E+04  0.13472098348E+04  0.00000000000E+00 0. -1.
         24    2    1    2    0    0  0.54298819158E+03 -0.46198263587E+03  0.59479196493E+02  0.71993358106E+03  0.80637796881E+02 0.  0.
        254    2    1    2    0    0 -0.54298819158E+03  0.46198263587E+03 -0.69399766380E+03  0.13399676212E+04  0.89756132741E+03 0.  0.
         23    2    4    4    0    0  0.14811441458E+03 -0.20265393487E+02 -0.41156385166E+03  0.44675208217E+03  0.88623094951E+02 0.  0.
         23    2    4    4    0    0 -0.69110260616E+03  0.48224802935E+03 -0.28243381215E+03  0.89321553903E+03  0.88764671239E+02 0.  0.
          2    1    3    3  502    0  0.71113232476E+02 -0.28615298254E+02  0.10695163714E+02  0.77397116576E+02  0.00000000000E+00 0. -1.
         -1    1    3    3    0  502  0.47187495911E+03 -0.43336733761E+03  0.48784032778E+02  0.64253646449E+03  0.00000000000E+00 0.  1.
         11    1    5    5    0    0  0.88857394301E+01  0.25659421813E+02 -0.61488005264E+02  0.67217089229E+02  0.00000000000E+00 0.  1.
        -11    1    5    5    0    0  0.13922867515E+03 -0.45924815300E+02 -0.35007584639E+03  0.37953499294E+03  0.00000000000E+00 0. -1.
          1    1    6    6  503    0 -0.53531654089E+03  0.36202483392E+03 -0.25411740841E+03  0.69440725557E+03  0.00000000000E+00 0. -1.
         -1    1    6    6    0  503 -0.15578606527E+03  0.12022319543E+03 -0.28316403736E+02  0.19880828346E+03  0.00000000000E+00 0.  1.
<mgrwt>
<rscale>  0 0.19597396E+04</rscale>
<asrwt>0</asrwt>
<pdfrwt beam="1">  1        2 0.20726305E+00 0.19597396E+04</pdfrwt>
<pdfrwt beam="2">  1       -1 0.10964483E+00 0.19597396E+04</pdfrwt>
<totfact> 0.12680322E+01</totfact>
</mgrwt>
</event>
<event>
12    6  0.1540825E-007  0.1362743E+04  0.7818608E-02  0.8981237E-01
          2   -1    0    0  501    0  0.00000000000E+00  0.00000000000E+00  0.42366633559E+04  0.42366633559E+04  0.00000000000E+00 0. -1.
         -1   -1    0    0    0  501 -0.00000000000E+00 -0.00000000000E+00 -0.10958320686E+03  0.10958320686E+03  0.00000000000E+00 0.  1.
         24    2    1    2    0    0  0.17478257379E+02  0.95892064322E+02  0.23436106412E+04  0.23470082896E+04  0.80226532916E+02 0.  0.
        254    2    1    2    0    0 -0.17478257379E+02 -0.95892064322E+02  0.17834695078E+04  0.19992382731E+04  0.89815890012E+03 0.  0.
         23    2    4    4    0    0 -0.67280599199E+02 -0.24424477329E+03  0.17934166656E+04  0.18134946781E+04  0.90760246926E+02 0.  0.
         23    2    4    4    0    0  0.49802341820E+02  0.14835270897E+03 -0.99471578564E+01  0.18574359502E+03  0.99563736535E+02 0.  0.
          4    1    3    3  502    0  0.24240749233E+02  0.10418828741E+03  0.22796418807E+04  0.22821502837E+04  0.00000000000E+00 0. -1.
         -3    1    3    3    0  502 -0.67624918545E+01 -0.82962230932E+01  0.63968760547E+02  0.64858005980E+02  0.00000000000E+00 0.  1.
         11    1    5    5    0    0 -0.19236991875E+02 -0.14708238660E+03  0.75480860872E+03  0.76924594644E+03  0.00000000000E+00 0. -1.
        -11    1    5    5    0    0 -0.48043607324E+02 -0.97162386692E+02  0.10386080569E+04  0.10442487316E+04  0.00000000000E+00 0.  1.
          1    1    6    6  503    0  0.44114296584E+02  0.41617282933E+02  0.34738874601E+02  0.69891764969E+02  0.00000000000E+00 0. -1.
         -1    1    6    6    0  503  0.56880452357E+01  0.10673542604E+03 -0.44686032458E+02  0.11585183006E+03  0.00000000000E+00 0.  1.
<mgrwt>
<rscale>  0 0.13627431E+04</rscale>
<asrwt>0</asrwt>
<pdfrwt beam="1">  1        2 0.65179424E+00 0.13627431E+04</pdfrwt>
<pdfrwt beam="2">  1       -1 0.16858958E-01 0.13627431E+04</pdfrwt>
<totfact> 0.67644962E+00</totfact>
</mgrwt>
</event>
<event>
12    6  0.1540825E-007  0.1635862E+04  0.7818608E-02  0.8798815E-01
         -1   -1    0    0    0  501 -0.00000000000E+00  0.00000000000E+00  0.71439420191E+03  0.71439420191E+03  0.00000000000E+00 0.  1.
          2   -1    0    0  501    0  0.00000000000E+00 -0.00000000000E+00 -0.93647322682E+03  0.93647322682E+03  0.00000000000E+00 0. -1.
         24    2    1    2    0    0 -0.24877890532E+03 -0.46017384931E+03  0.30897691930E+03  0.61344569385E+03  0.84840835247E+02 0.  0.
        254    2    1    2    0    0  0.24877890532E+03  0.46017384931E+03 -0.53105594420E+03  0.10374217349E+04  0.72150712041E+03 0.  0.
         23    2    4    4    0    0  0.99244239255E+02 -0.40335780650E+02 -0.48500187401E+03  0.50532535423E+03  0.93008072799E+02 0.  0.
         23    2    4    4    0    0  0.14953466606E+03  0.50050962996E+03 -0.46054070187E+02  0.53209638065E+03  0.90194649937E+02 0.  0.
          2    1    3    3  502    0 -0.27396948736E+02 -0.23539996875E+02  0.43514936027E+02  0.56553283816E+02  0.00000000000E+00 0. -1.
         -1    1    3    3    0  502 -0.22138195658E+03 -0.43663385244E+03  0.26546198327E+03  0.55689241004E+03  0.00000000000E+00 0.  1.
         11    1    5    5    0    0  0.92272569803E+02 -0.57465652298E+02 -0.29439078239E+03  0.31381915348E+03  0.00000000000E+00 0. -1.
        -11    1    5    5    0    0  0.69716694518E+01  0.17129871648E+02 -0.19061109162E+03  0.19150620075E+03  0.00000000000E+00 0.  1.
          3    1    6    6  503    0  0.14020297976E+03  0.45918614049E+03 -0.16415586501E+02  0.48039385782E+03  0.00000000000E+00 0. -1.
         -3    1    6    6    0  503  0.93316863042E+01  0.41323489472E+02 -0.29638483686E+02  0.51702522827E+02  0.00000000000E+00 0.  1.
<mgrwt>
<rscale>  0 0.16358619E+04</rscale>
<asrwt>0</asrwt>
<pdfrwt beam="1">  1        2 0.14407280E+00 0.16358619E+04</pdfrwt>
<pdfrwt beam="2">  1       -1 0.10990680E+00 0.16358619E+04</pdfrwt>
<totfact> 0.23134049E+01</totfact>
</mgrwt>
</event>
<event>
12    6  0.1540825E-007  0.1593587E+04  0.7818608E-02  0.8824497E-01
         -1   -1    0    0    0  501 -0.00000000000E+00  0.00000000000E+00  0.40856019696E+03  0.40856019696E+03  0.00000000000E+00 0.  1.
          2   -1    0    0  501    0  0.00000000000E+00 -0.00000000000E+00 -0.15539454018E+04  0.15539454018E+04  0.00000000000E+00 0. -1.
         24    2    1    2    0    0  0.27049105178E+03 -0.97925626206E+01  0.17744695480E+03  0.33346705826E+03  0.80321565002E+02 0.  0.
        254    2    1    2    0    0 -0.27049105178E+03  0.97925626206E+01 -0.13228321597E+04  0.16290385405E+04  0.91138375042E+03 0.  0.
         23    2    4    4    0    0 -0.53431642907E+03  0.22411084251E+03 -0.94858981342E+03  0.11154560328E+04  0.93272776363E+02 0.  0.
         23    2    4    4    0    0  0.26382537729E+03 -0.21431827989E+03 -0.37424234625E+03  0.51358250777E+03  0.90407432032E+02 0.  0.
          4    1    3    3  502    0  0.33382076165E+02 -0.19977012267E+02  0.31860079570E+01  0.39033250888E+02  0.00000000000E+00 0. -1.
         -3    1    3    3    0  502  0.23710897561E+03  0.10184449646E+02  0.17426094684E+03  0.29443380737E+03  0.00000000000E+00 0.  1.
         11    1    5    5    0    0 -0.40194922089E+03  0.18133335578E+03 -0.64278398851E+03  0.77949741370E+03  0.00000000000E+00 0. -1.
        -11    1    5    5    0    0 -0.13236720818E+03  0.42777486731E+02 -0.30580582491E+03  0.33595861906E+03  0.00000000000E+00 0.  1.
          1    1    6    6  503    0  0.16210881436E+03 -0.17083247018E+03 -0.20985269986E+03  0.31543803861E+03  0.00000000000E+00 0. -1.
         -1    1    6    6    0  503  0.10171656293E+03 -0.43485809704E+02 -0.16438964640E+03  0.19814446917E+03  0.00000000000E+00 0.  1.
<mgrwt>
<rscale>  0 0.15935874E+04</rscale>
<asrwt>0</asrwt>
<pdfrwt beam="1">  1        2 0.23906852E+00 0.15935874E+04</pdfrwt>
<pdfrwt beam="2">  1       -1 0.62855415E-01 0.15935874E+04</pdfrwt>
<totfact> 0.33213895E+01</totfact>
</mgrwt>
</event>
<event>
12    6  0.1540825E-007  0.1445762E+04  0.7818608E-02  0.8921344E-01
          2   -1    0    0  501    0  0.00000000000E+00  0.00000000000E+00  0.14045219836E+04  0.14045219836E+04  0.00000000000E+00 0. -1.
         -1   -1    0    0    0  501 -0.00000000000E+00 -0.00000000000E+00 -0.37205344785E+03  0.37205344785E+03  0.00000000000E+00 0.  1.
         24    2    1    2    0    0  0.13561848782E+03  0.45956139495E+02  0.82084213991E+03  0.83862332068E+03  0.94883688533E+02 0.  0.
        254    2    1    2    0    0 -0.13561848782E+03 -0.45956139495E+02  0.21162639581E+03  0.93795211072E+03  0.90247664214E+03 0.  0.
         23    2    4    4    0    0  0.61011046525E+02  0.39780101081E+03  0.37759353670E+02  0.41425234180E+03  0.90615903141E+02 0.  0.
         23    2    4    4    0    0 -0.19662953434E+03 -0.44375715030E+03  0.17386704214E+03  0.52369976892E+03  0.91913641008E+02 0.  0.
          2    1    3    3  502    0  0.12914381907E+03  0.31534762622E+02  0.80616424719E+03  0.81705162671E+03  0.00000000000E+00 0. -1.
         -1    1    3    3    0  502  0.64746687460E+01  0.14421376873E+02  0.14677892715E+02  0.21571693972E+02  0.00000000000E+00 0.  1.
         11    1    5    5    0    0  0.38135870793E+02  0.52409566446E+02 -0.71246975138E+01  0.65206354068E+02  0.00000000000E+00 0.  1.
        -11    1    5    5    0    0  0.22875175732E+02  0.34539144436E+03  0.44884051183E+02  0.34904598773E+03  0.00000000000E+00 0. -1.
          3    1    6    6  503    0 -0.12994698911E+03 -0.36722715878E+03  0.16053023786E+03  0.42132168635E+03  0.00000000000E+00 0. -1.
         -3    1    6    6    0  503 -0.66682545235E+02 -0.76529991527E+02  0.13336804274E+02  0.10237808257E+03  0.00000000000E+00 0.  1.
<mgrwt>
<rscale>  0 0.14457624E+04</rscale>
<asrwt>0</asrwt>
<pdfrwt beam="1">  1        2 0.21608030E+00 0.14457624E+04</pdfrwt>
<pdfrwt beam="2">  1       -1 0.57238993E-01 0.14457624E+04</pdfrwt>
<totfact> 0.49149852E+01</totfact>
</mgrwt>
</event>
<event>
12    6  0.1540825E-007  0.2192852E+04  0.7818608E-02  0.8521409E-01
          2   -1    0    0  501    0  0.00000000000E+00  0.00000000000E+00  0.81055842732E+03  0.81055842732E+03  0.00000000000E+00 0. -1.
         -1   -1    0    0    0  501 -0.00000000000E+00 -0.00000000000E+00 -0.14831127006E+04  0.14831127006E+04  0.00000000000E+00 0.  1.
         24    2    1    2    0    0  0.62644927320E+03 -0.38974977655E+03  0.27302524049E+03  0.79073249590E+03  0.79821788525E+02 0.  0.
        254    2    1    2    0    0 -0.62644927320E+03  0.38974977655E+03 -0.94557951380E+03  0.15029386320E+04  0.90573745344E+03 0.  0.
         23    2    4    4    0    0 -0.45004497515E+03  0.22600497478E+03 -0.10921105962E+04  0.12066075970E+04  0.97865267975E+02 0.  0.
         23    2    4    4    0    0 -0.17640429805E+03  0.16374480178E+03  0.14653108236E+03  0.29633103502E+03  0.91705440091E+02 0.  0.
          4    1    3    3  502    0  0.47644956947E+03 -0.25956259461E+03  0.18226635527E+03  0.57236173617E+03  0.00000000000E+00 0. -1.
         -3    1    3    3    0  502  0.14999970372E+03 -0.13018718195E+03  0.90758885214E+02  0.21837075973E+03  0.00000000000E+00 0.  1.
         11    1    5    5    0    0 -0.23062699949E+03  0.15603843199E+03 -0.51955417259E+03  0.58946869587E+03  0.00000000000E+00 0. -1.
        -11    1    5    5    0    0 -0.21941797566E+03  0.69966542783E+02 -0.57255642357E+03  0.61713890116E+03  0.00000000000E+00 0.  1.
          4    1    6    6  503    0 -0.56588886532E+02  0.63980938905E+01  0.52040907591E+02  0.77145925020E+02  0.00000000000E+00 0. -1.
         -4    1    6    6    0  503 -0.11981541152E+03  0.15734670789E+03  0.94490174765E+02  0.21918511000E+03  0.00000000000E+00 0.  1.
<mgrwt>
<rscale>  0 0.21928516E+04</rscale>
<asrwt>0</asrwt>
<pdfrwt beam="1">  1        2 0.12470130E+00 0.21928516E+04</pdfrwt>
<pdfrwt beam="2">  1       -1 0.22817118E+00 0.21928516E+04</pdfrwt>
<totfact> 0.34281442E+00</totfact>
</mgrwt>
</event>
<event>
12    6  0.1540825E-007  0.3174515E+04  0.7818608E-02  0.8195580E-01
         -1   -1    0    0    0  501 -0.00000000000E+00  0.00000000000E+00  0.11191517149E+04  0.11191517149E+04  0.00000000000E+00 0.  1.
          2   -1    0    0  501    0  0.00000000000E+00 -0.00000000000E+00 -0.22511564586E+04  0.22511564586E+04  0.00000000000E+00 0. -1.
         24    2    1    2    0    0 -0.17226977087E+03 -0.14341208339E+04 -0.48111349078E+03  0.15244076301E+04  0.77259249111E+02 0.  0.
        254    2    1    2    0    0  0.17226977087E+03  0.14341208339E+04 -0.65089125291E+03  0.18459005433E+04  0.94726445755E+03 0.  0.
         23    2    4    4    0    0 -0.29535870967E+03  0.18799225429E+03 -0.50030318270E+00  0.36180355340E+03  0.91234346064E+02 0.  0.
         23    2    4    4    0    0  0.46762848053E+03  0.12461285796E+04 -0.65039094973E+03  0.14840969899E+04  0.89569276436E+02 0.  0.
          2    1    3    3  502    0 -0.80009557936E+02 -0.90428806195E+03 -0.32759280288E+03  0.96511940860E+03  0.00000000000E+00 0. -1.
         -1    1    3    3    0  502 -0.92260212932E+02 -0.52983277196E+03 -0.15352068789E+03  0.55928822153E+03  0.00000000000E+00 0.  1.
         11    1    5    5    0    0 -0.85794672264E+02  0.80677051048E+02 -0.37227416915E+02  0.12351272374E+03  0.00000000000E+00 0. -1.
        -11    1    5    5    0    0 -0.20956403740E+03  0.10731520325E+03  0.36727113733E+02  0.23829082967E+03  0.00000000000E+00 0.  1.
          1    1    6    6  503    0  0.19494200186E+03  0.59706658715E+03 -0.34614008662E+03  0.71714981221E+03  0.00000000000E+00 0. -1.
         -1    1    6    6    0  503  0.27268647867E+03  0.64906199246E+03 -0.30425086311E+03  0.76694717772E+03  0.00000000000E+00 0.  1.
<mgrwt>
<rscale>  0 0.31745145E+04</rscale>
<asrwt>0</asrwt>
<pdfrwt beam="1">  1        2 0.34633176E+00 0.31745145E+04</pdfrwt>
<pdfrwt beam="2">  1       -1 0.17217719E+00 0.31745145E+04</pdfrwt>
<totfact> 0.10993750E+00</totfact>
</mgrwt>
</event>
<event>
12    6  0.1540825E-007  0.1854237E+04  0.7818608E-02  0.8677977E-01
          2   -1    0    0  501    0  0.00000000000E+00  0.00000000000E+00  0.94874393068E+03  0.94874393068E+03  0.00000000000E+00 0. -1.
         -1   -1    0    0    0  501 -0.00000000000E+00 -0.00000000000E+00 -0.90598640414E+03  0.90598640414E+03  0.00000000000E+00 0.  1.
         24    2    1    2    0    0 -0.51216497458E+02  0.11556223855E+03 -0.68154101596E+03  0.69782777296E+03  0.80546158767E+02 0.  0.
        254    2    1    2    0    0  0.51216497458E+02 -0.11556223855E+03  0.72429854249E+03  0.11569025619E+04  0.89321744184E+03 0.  0.
         23    2    4    4    0    0  0.10207595740E+03 -0.66673377498E+01 -0.18668809787E+03  0.23385798314E+03  0.96815060392E+02 0.  0.
         23    2    4    4    0    0 -0.50859459946E+02 -0.10889490080E+03  0.91098664036E+03  0.92304457873E+03  0.87577687339E+02 0.  0.
          4    1    3    3  502    0 -0.19985240448E+02  0.22351982467E+01 -0.32433716230E+02  0.38162178862E+02  0.00000000000E+00 0. -1.
         -3    1    3    3    0  502 -0.31231257010E+02  0.11332704030E+03 -0.64910729973E+03  0.65966559410E+03  0.00000000000E+00 0.  1.
         11    1    5    5    0    0 -0.87053417833E+01 -0.12037008801E+02 -0.74994255533E+02  0.76451363097E+02  0.00000000000E+00 0. -1.
        -11    1    5    5    0    0  0.11078129919E+03  0.53696710513E+01 -0.11169384233E+03  0.15740662004E+03  0.00000000000E+00 0.  1.
          2    1    6    6  503    0  0.23513705782E+02 -0.34372344686E+02  0.19856946833E+03  0.20288959113E+03  0.00000000000E+00 0. -1.
         -2    1    6    6    0  503 -0.74373165728E+02 -0.74522556113E+02  0.71241717203E+03  0.72015498759E+03  0.00000000000E+00 0.  1.
<mgrwt>
<rscale>  0 0.18542374E+04</rscale>
<asrwt>0</asrwt>
<pdfrwt beam="1">  1        2 0.14596060E+00 0.18542374E+04</pdfrwt>
<pdfrwt beam="2">  1       -1 0.13938252E+00 0.18542374E+04</pdfrwt>
<totfact> 0.12372011E+01</totfact>
</mgrwt>
</event>
<event>
12    6  0.1540825E-007  0.5069478E+04  0.7818608E-02  0.7817878E-01
         -1   -1    0    0    0  501 -0.00000000000E+00  0.00000000000E+00  0.22417567587E+04  0.22417567587E+04  0.00000000000E+00 0.  1.
          2   -1    0    0  501    0  0.00000000000E+00 -0.00000000000E+00 -0.28660115723E+04  0.28660115723E+04  0.00000000000E+00 0. -1.
         24    2    1    2    0    0  0.98298454897E+03 -0.72069177396E+03 -0.24478481529E+04  0.27357337140E+04  0.81382541427E+02 0.  0.
        254    2    1    2    0    0 -0.98298454897E+03  0.72069177396E+03  0.18235933392E+04  0.23720346170E+04  0.90299518311E+03 0.  0.
         23    2    4    4    0    0  0.42109798839E+02  0.35125239936E+03  0.20616093278E+03  0.41964850808E+03  0.91929630241E+02 0.  0.
         23    2    4    4    0    0 -0.10250943478E+04  0.36943937460E+03  0.16174324064E+04  0.19523861089E+04  0.91760859764E+02 0.  0.
          4    1    3    3  502    0  0.38205432313E+03 -0.24542314204E+03 -0.84966371257E+03  0.96339319540E+03  0.00000000000E+00 0. -1.
         -3    1    3    3    0  502  0.60093022584E+03 -0.47526863192E+03 -0.15981844403E+04  0.17723405186E+04  0.00000000000E+00 0.  1.
         11    1    5    5    0    0 -0.18070421104E+01  0.23899389193E+03  0.10020294936E+03  0.25915627880E+03  0.00000000000E+00 0. -1.
        -11    1    5    5    0    0  0.43916840949E+02  0.11225850743E+03  0.10595798342E+03  0.16049222928E+03  0.00000000000E+00 0.  1.
          1    1    6    6  503    0 -0.48976311691E+03  0.12813663058E+03  0.75732332619E+03  0.91094759848E+03  0.00000000000E+00 0. -1.
         -1    1    6    6    0  503 -0.53533123089E+03  0.24130274402E+03  0.86010908022E+03  0.10414385104E+04  0.00000000000E+00 0.  1.
<mgrwt>
<rscale>  0 0.50694776E+04</rscale>
<asrwt>0</asrwt>
<pdfrwt beam="1">  1        2 0.44092486E+00 0.50694776E+04</pdfrwt>
<pdfrwt beam="2">  1       -1 0.34488566E+00 0.50694776E+04</pdfrwt>
<totfact> 0.29145668E-02</totfact>
</mgrwt>
</event>
<event>
12    6  0.1540825E-007  0.1802487E+04  0.7818608E-02  0.8704978E-01
         -1   -1    0    0    0  501 -0.00000000000E+00  0.00000000000E+00  0.36507260820E+03  0.36507260820E+03  0.00000000000E+00 0.  1.
          2   -1    0    0  501    0  0.00000000000E+00 -0.00000000000E+00 -0.22248722549E+04  0.22248722549E+04  0.00000000000E+00 0. -1.
         24    2    1    2    0    0  0.44193475429E+03  0.96423296493E+02  0.14672123536E+02  0.45907952134E+03  0.77038669144E+02 0.  0.
        254    2    1    2    0    0 -0.44193475429E+03 -0.96423296493E+02 -0.18744717702E+04  0.21308653417E+04  0.90682904019E+03 0.  0.
         23    2    4    4    0    0 -0.51094488276E+02 -0.40964063935E+03 -0.12804055481E+04  0.13484916004E+04  0.92601990644E+02 0.  0.
         23    2    4    4    0    0 -0.39084026602E+03  0.31321734286E+03 -0.59406622215E+03  0.78237374135E+03  0.91284048109E+02 0.  0.
          4    1    3    3  502    0  0.27314269673E+03  0.21187770232E+02  0.13004691610E+02  0.27427172000E+03  0.00000000000E+00 0. -1.
         -3    1    3    3    0  502  0.16879205756E+03  0.75235526261E+02  0.16674319260E+01  0.18480780134E+03  0.00000000000E+00 0.  1.
         11    1    5    5    0    0 -0.35037977964E+02 -0.87779692502E+02 -0.39838199379E+03  0.40944004115E+03  0.00000000000E+00 0. -1.
        -11    1    5    5    0    0 -0.16056510312E+02 -0.32186094685E+03 -0.88202355427E+03  0.93905155924E+03  0.00000000000E+00 0.  1.
          4    1    6    6  503    0 -0.19156756972E+03  0.10117723460E+03 -0.22426156141E+03  0.31181439110E+03  0.00000000000E+00 0. -1.
         -4    1    6    6    0  503 -0.19927269630E+03  0.21204010826E+03 -0.36980466074E+03  0.47055935025E+03  0.00000000000E+00 0.  1.
<mgrwt>
<rscale>  0 0.18024871E+04</rscale>
<asrwt>0</asrwt>
<pdfrwt beam="1">  1        2 0.34228804E+00 0.18024871E+04</pdfrwt>
<pdfrwt beam="2">  1       -1 0.56165017E-01 0.18024871E+04</pdfrwt>
<totfact> 0.17242096E+01</totfact>
</mgrwt>
</event>
<event>
12    6  0.1540825E-007  0.1642248E+04  0.7818608E-02  0.8795005E-01
          2   -1    0    0  501    0  0.00000000000E+00  0.00000000000E+00  0.23344045952E+04  0.23344045952E+04  0.00000000000E+00 0. -1.
         -1   -1    0    0    0  501 -0.00000000000E+00 -0.00000000000E+00 -0.28882952636E+03  0.28882952636E+03  0.00000000000E+00 0.  1.
         24    2    1    2    0    0  0.26724839549E+03 -0.43775807559E+02  0.15166547189E+04  0.15427323284E+04  0.80271256017E+02 0.  0.
        254    2    1    2    0    0 -0.26724839549E+03  0.43775807559E+02  0.52892035000E+03  0.10805017932E+04  0.90243523993E+03 0.  0.
         23    2    4    4    0    0 -0.59046165110E+03  0.67385425521E+02  0.38158907709E+03  0.71230353526E+03  0.92630154908E+02 0.  0.
         23    2    4    4    0    0  0.32321325561E+03 -0.23609617962E+02  0.14733127291E+03  0.36819825795E+03  0.94017182031E+02 0.  0.
          4    1    3    3  502    0  0.25505256111E+03 -0.42924498514E+02  0.14996448398E+04  0.15217847966E+04  0.00000000000E+00 0. -1.
         -3    1    3    3    0  502  0.12195834380E+02 -0.85130904495E+00  0.17009879053E+02  0.20947531805E+02  0.00000000000E+00 0.  1.
         11    1    5    5    0    0 -0.48110947245E+03  0.54705786381E+02  0.35100306863E+03  0.59804866168E+03  0.00000000000E+00 0. -1.
        -11    1    5    5    0    0 -0.10935217865E+03  0.12679639140E+02  0.30586008457E+02  0.11425487358E+03  0.00000000000E+00 0.  1.
          2    1    6    6  503    0  0.23512478690E+03 -0.58506980328E+02  0.97853289424E+02  0.26130824406E+03  0.00000000000E+00 0. -1.
         -2    1    6    6    0  503  0.88088468712E+02  0.34897362365E+02  0.49477983485E+02  0.10689001389E+03  0.00000000000E+00 0.  1.
<mgrwt>
<rscale>  0 0.16422484E+04</rscale>
<asrwt>0</asrwt>
<pdfrwt beam="1">  1        2 0.35913916E+00 0.16422484E+04</pdfrwt>
<pdfrwt beam="2">  1       -1 0.44435313E-01 0.16422484E+04</pdfrwt>
<totfact> 0.23682423E+01</totfact>
</mgrwt>
</event>
<event>
12    6  0.1540825E-007  0.1799409E+04  0.7818608E-02  0.8706614E-01
         -1   -1    0    0    0  501 -0.00000000000E+00  0.00000000000E+00  0.48865246571E+03  0.48865246571E+03  0.00000000000E+00 0.  1.
          2   -1    0    0  501    0  0.00000000000E+00 -0.00000000000E+00 -0.16565323672E+04  0.16565323672E+04  0.00000000000E+00 0. -1.
         24    2    1    2    0    0  0.69018503506E+00  0.61343606293E+03 -0.11107537376E+03  0.62863640254E+03  0.80880827666E+02 0.  0.
        254    2    1    2    0    0 -0.69018503506E+00 -0.61343606293E+03 -0.10568045278E+04  0.15165484304E+04  0.89820880209E+03 0.  0.
         23    2    4    4    0    0  0.27301916066E+03 -0.21270797694E+03 -0.94478615801E+03  0.10101774417E+04  0.89740926212E+02 0.  0.
         23    2    4    4    0    0 -0.27370934570E+03 -0.40072808599E+03 -0.11201836975E+03  0.50637098867E+03  0.91453038126E+02 0.  0.
          4    1    3    3  502    0  0.15374889961E+02  0.41300929746E+02 -0.22559193113E+02  0.49508294589E+02  0.00000000000E+00 0. -1.
         -3    1    3    3    0  502 -0.14684704926E+02  0.57213513319E+03 -0.88516180643E+02  0.57912810795E+03  0.00000000000E+00 0.  1.
         11    1    5    5    0    0  0.46328682636E+01 -0.32141460253E+02 -0.61935986193E+02  0.69932848657E+02  0.00000000000E+00 0.  1.
        -11    1    5    5    0    0  0.26838629240E+03 -0.18056651669E+03 -0.88285017182E+03  0.94024459306E+03  0.00000000000E+00 0. -1.
          2    1    6    6  503    0 -0.20972873146E+03 -0.24135929942E+03 -0.49218235607E+02  0.32351643997E+03  0.00000000000E+00 0. -1.
         -2    1    6    6    0  503 -0.63980614238E+02 -0.15936878657E+03 -0.62800134142E+02  0.18285454870E+03  0.00000000000E+00 0.  1.
<mgrwt>
<rscale>  0 0.17994095E+04</rscale>
<asrwt>0</asrwt>
<pdfrwt beam="1">  1        2 0.25485113E+00 0.17994095E+04</pdfrwt>
<pdfrwt beam="2">  1       -1 0.75177303E-01 0.17994095E+04</pdfrwt>
<totfact> 0.19840131E+01</totfact>
</mgrwt>
</event>
<event>
12    6  0.1540825E-007  0.1584804E+04  0.7818608E-02  0.8829938E-01
          2   -1    0    0  501    0  0.00000000000E+00  0.00000000000E+00  0.19960847038E+04  0.19960847038E+04  0.00000000000E+00 0. -1.
         -1   -1    0    0    0  501 -0.00000000000E+00 -0.00000000000E+00 -0.31456623965E+03  0.31456623965E+03  0.00000000000E+00 0.  1.
         24    2    1    2    0    0  0.28865982680E+03 -0.42137657472E+03  0.36190394569E+03  0.63083920766E+03  0.78108429034E+02 0.  0.
        254    2    1    2    0    0 -0.28865982680E+03  0.42137657472E+03  0.13196145185E+04  0.16798117358E+04  0.90526365056E+03 0.  0.
         23    2    4    4    0    0 -0.16320418236E+03 -0.17749857539E+03  0.89082468763E+03  0.92710621134E+03  0.88407882025E+02 0.  0.
         23    2    4    4    0    0 -0.12545564444E+03  0.59887515011E+03  0.42878983082E+03  0.75270552444E+03  0.91182911595E+02 0.  0.
          4    1    3    3  502    0  0.63740791562E+02 -0.65522225937E+02  0.97838744985E+02  0.13389723903E+03  0.00000000000E+00 0. -1.
         -3    1    3    3    0  502  0.22491903524E+03 -0.35585434878E+03  0.26406520071E+03  0.49694196863E+03  0.00000000000E+00 0.  1.
         11    1    5    5    0    0 -0.24265037746E+02 -0.84795334963E+02  0.26044341501E+03  0.27497238645E+03  0.00000000000E+00 0. -1.
        -11    1    5    5    0    0 -0.13893914461E+03 -0.92703240428E+02  0.63038127262E+03  0.65213382489E+03  0.00000000000E+00 0.  1.
          1    1    6    6  503    0 -0.23038085542E+02  0.46687641148E+02  0.66205335387E+02  0.84223723826E+02  0.00000000000E+00 0. -1.
         -1    1    6    6    0  503 -0.10241755890E+03  0.55218750896E+03  0.36258449544E+03  0.66848180062E+03  0.00000000000E+00 0.  1.
<mgrwt>
<rscale>  0 0.15848039E+04</rscale>
<asrwt>0</asrwt>
<pdfrwt beam="1">  1        2 0.30708995E+00 0.15848039E+04</pdfrwt>
<pdfrwt beam="2">  1       -1 0.48394807E-01 0.15848039E+04</pdfrwt>
<totfact> 0.31367057E+01</totfact>
</mgrwt>
</event>
<event>
12    6  0.1540825E-007  0.1409288E+04  0.7818608E-02  0.8947123E-01
          2   -1    0    0  501    0  0.00000000000E+00  0.00000000000E+00  0.15624694371E+04  0.15624694371E+04  0.00000000000E+00 0. -1.
         -1   -1    0    0    0  501 -0.00000000000E+00 -0.00000000000E+00 -0.31778091955E+03  0.31778091955E+03  0.00000000000E+00 0.  1.
         24    2    1    2    0    0  0.17175985769E+03  0.12566196350E+03  0.84359468101E+03  0.87376669442E+03  0.80770493749E+02 0.  0.
        254    2    1    2    0    0 -0.17175985769E+03 -0.12566196350E+03  0.40109383657E+03  0.10064836623E+04  0.89824312905E+03 0.  0.
         23    2    4    4    0    0 -0.13843397934E+03  0.29617117220E+03 -0.90973779370E+02  0.35167142579E+03  0.92278021790E+02 0.  0.
         23    2    4    4    0    0 -0.33325878356E+02 -0.42183313570E+03  0.49206761594E+03  0.65481223648E+03  0.87147678384E+02 0.  0.
          4    1    3    3  502    0  0.13847009130E+03  0.10737527398E+03  0.78209607816E+03  0.80148467928E+03  0.00000000000E+00 0. -1.
         -3    1    3    3    0  502  0.33289766388E+02  0.18286689521E+02  0.61498602848E+02  0.72282015136E+02  0.00000000000E+00 0.  1.
         11    1    5    5    0    0 -0.15103192556E+03  0.28041593406E+03 -0.78783205316E+02  0.32810140513E+03  0.00000000000E+00 0. -1.
        -11    1    5    5    0    0  0.12597946220E+02  0.15755238143E+02 -0.12190574054E+02  0.23570020655E+02  0.00000000000E+00 0.  1.
          1    1    6    6  503    0 -0.34345314783E+02 -0.40000623892E+03  0.48907895735E+03  0.63275810413E+03  0.00000000000E+00 0. -1.
         -1    1    6    6    0  503  0.10194364267E+01 -0.21826896779E+02  0.29886585934E+01  0.22054132352E+02  0.00000000000E+00 0.  1.
<mgrwt>
<rscale>  0 0.14092877E+04</rscale>
<asrwt>0</asrwt>
<pdfrwt beam="1">  1        2 0.24037991E+00 0.14092877E+04</pdfrwt>
<pdfrwt beam="2">  1       -1 0.48889373E-01 0.14092877E+04</pdfrwt>
<totfact> 0.54338643E+01</totfact>
</mgrwt>
</event>
<event>
12    6  0.1540825E-007  0.1238356E+04  0.7818608E-02  0.9079930E-01
         -1   -1    0    0    0  501 -0.00000000000E+00  0.00000000000E+00  0.59629465467E+03  0.59629465467E+03  0.00000000000E+00 0.  1.
          2   -1    0    0  501    0  0.00000000000E+00 -0.00000000000E+00 -0.64293992977E+03  0.64293992977E+03  0.00000000000E+00 0. -1.
         24    2    1    2    0    0 -0.99311747300E+02  0.12149258080E+03  0.22816226175E+03  0.28827438858E+03  0.80130113484E+02 0.  0.
        254    2    1    2    0    0  0.99311747300E+02 -0.12149258080E+03 -0.27480753685E+03  0.95096019586E+03  0.89676242197E+03 0.  0.
         23    2    4    4    0    0  0.15272669703E+03 -0.22662495684E+03  0.26452326416E+03  0.39136141710E+03  0.92232784100E+02 0.  0.
         23    2    4    4    0    0 -0.53414949730E+02  0.10513237604E+03 -0.53933080101E+03  0.55959877876E+03  0.91471891479E+02 0.  0.
          2    1    3    3  502    0 -0.63094958299E+02  0.27401327887E+02  0.55730653080E+02  0.88530854652E+02  0.00000000000E+00 0. -1.
         -1    1    3    3    0  502 -0.36216789002E+02  0.94091252911E+02  0.17243160867E+03  0.19974353393E+03  0.00000000000E+00 0.  1.
         11    1    5    5    0    0  0.13975026372E+03 -0.20603905711E+03  0.26909811579E+03  0.36660063446E+03  0.00000000000E+00 0.  1.
        -11    1    5    5    0    0  0.12976433315E+02 -0.20585899729E+02 -0.45748516363E+01  0.24760782635E+02  0.00000000000E+00 0. -1.
          2    1    6    6  503    0 -0.46125585459E+02  0.56510036828E+02 -0.14601272256E+03  0.16321969565E+03  0.00000000000E+00 0. -1.
         -2    1    6    6    0  503 -0.72893642711E+01  0.48622339214E+02 -0.39331807844E+03  0.39637908311E+03  0.00000000000E+00 0.  1.
<mgrwt>
<rscale>  0 0.12383564E+04</rscale>
<asrwt>0</asrwt>
<pdfrwt beam="1">  1        2 0.98913836E-01 0.12383564E+04</pdfrwt>
<pdfrwt beam="2">  1       -1 0.91737639E-01 0.12383564E+04</pdfrwt>
<totfact> 0.59371445E+01</totfact>
</mgrwt>
</event>
<event>
12    6  0.1540825E-007  0.1458849E+04  0.7818608E-02  0.8912289E-01
         -1   -1    0    0    0  501 -0.00000000000E+00  0.00000000000E+00  0.41262933935E+03  0.41262933935E+03  0.00000000000E+00 0.  1.
          2   -1    0    0  501    0  0.00000000000E+00 -0.00000000000E+00 -0.12894380528E+04  0.12894380528E+04  0.00000000000E+00 0. -1.
         24    2    1    2    0    0  0.45142057402E+03 -0.15401329004E+02 -0.29153170643E+03  0.54334521477E+03  0.78838765698E+02 0.  0.
        254    2    1    2    0    0 -0.45142057402E+03  0.15401329004E+02 -0.58527700704E+03  0.11587221774E+04  0.89222764688E+03 0.  0.
         23    2    4    4    0    0 -0.31330436027E+03  0.28768824360E+03 -0.69639071724E+03  0.82105374977E+03  0.90802430009E+02 0.  0.
         23    2    4    4    0    0 -0.13811621375E+03 -0.27228691459E+03  0.11111371019E+03  0.33766842763E+03  0.91964439153E+02 0.  0.
          2    1    3    3  502    0  0.24298660941E+03  0.19455959792E+02 -0.18903365330E+03  0.30847163371E+03  0.00000000000E+00 0. -1.
         -1    1    3    3    0  502  0.20843396461E+03 -0.34857288796E+02 -0.10249805314E+03  0.23487358106E+03  0.00000000000E+00 0.  1.
         11    1    5    5    0    0 -0.31659103207E+03  0.28512096498E+03 -0.66763848937E+03  0.79200063052E+03  0.00000000000E+00 0. -1.
        -11    1    5    5    0    0  0.32866717973E+01  0.25672786156E+01 -0.28752227868E+02  0.29053119253E+02  0.00000000000E+00 0.  1.
          2    1    6    6  503    0 -0.11266097069E+03 -0.15410243184E+03  0.10198931494E+03  0.21642983662E+03  0.00000000000E+00 0. -1.
         -2    1    6    6    0  503 -0.25455243055E+02 -0.11818448275E+03  0.91243952467E+01  0.12123859101E+03  0.00000000000E+00 0.  1.
<mgrwt>
<rscale>  0 0.14588488E+04</rscale>
<asrwt>0</asrwt>
<pdfrwt beam="1">  1        2 0.19837508E+00 0.14588488E+04</pdfrwt>
<pdfrwt beam="2">  1       -1 0.63481438E-01 0.14588488E+04</pdfrwt>
<totfact> 0.46623264E+01</totfact>
</mgrwt>
</event>
<event>
12    6  0.1540825E-007  0.1881622E+04  0.7818608E-02  0.8664059E-01
          2   -1    0    0  501    0  0.00000000000E+00  0.00000000000E+00  0.14116202772E+04  0.14116202772E+04  0.00000000000E+00 0. -1.
         -1   -1    0    0    0  501 -0.00000000000E+00 -0.00000000000E+00 -0.62702765125E+03  0.62702765125E+03  0.00000000000E+00 0.  1.
         24    2    1    2    0    0  0.54165328404E+03 -0.30021477309E+03 -0.11633830520E+03  0.63497684356E+03  0.78382399187E+02 0.  0.
        254    2    1    2    0    0 -0.54165328404E+03  0.30021477309E+03  0.90093093110E+03  0.14036710848E+04  0.88039694555E+03 0.  0.
         23    2    4    4    0    0 -0.43698623180E+03  0.53167737064E+03  0.32290056023E+03  0.76564875377E+03  0.91189084398E+02 0.  0.
         23    2    4    4    0    0 -0.10466705224E+03 -0.23146259755E+03  0.57803037087E+03  0.63802233108E+03  0.91778316690E+02 0.  0.
          2    1    3    3  502    0  0.43993527582E+03 -0.23691838586E+03 -0.62274010698E+02  0.50353889708E+03  0.00000000000E+00 0. -1.
         -1    1    3    3    0  502  0.10171800823E+03 -0.63296387233E+02 -0.54064294502E+02  0.13143794648E+03  0.00000000000E+00 0.  1.
         11    1    5    5    0    0 -0.27218348099E+03  0.39486925525E+03  0.21037221859E+03  0.52370034029E+03  0.00000000000E+00 0.  1.
        -11    1    5    5    0    0 -0.16480275081E+03  0.13680811539E+03  0.11252834164E+03  0.24194841348E+03  0.00000000000E+00 0. -1.
          4    1    6    6  503    0  0.17223506763E+02 -0.27084055426E+02  0.65384452903E+02  0.72837640853E+02  0.00000000000E+00 0. -1.
         -4    1    6    6    0  503 -0.12189055900E+03 -0.20437854213E+03  0.51264591797E+03  0.56518469023E+03  0.00000000000E+00 0.  1.
<mgrwt>
<rscale>  0 0.18816216E+04</rscale>
<asrwt>0</asrwt>
<pdfrwt beam="1">  1        2 0.21717235E+00 0.18816216E+04</pdfrwt>
<pdfrwt beam="2">  1       -1 0.96465793E-01 0.18816216E+04</pdfrwt>
<totfact> 0.15757684E+01</totfact>
</mgrwt>
</event>
<event>
12    6  0.1540825E-007  0.1460221E+04  0.7818608E-02  0.8911345E-01
         -1   -1    0    0    0  501 -0.00000000000E+00  0.00000000000E+00  0.10229336838E+04  0.10229336838E+04  0.00000000000E+00 0.  1.
          2   -1    0    0  501    0  0.00000000000E+00 -0.00000000000E+00 -0.52111023932E+03  0.52111023932E+03  0.00000000000E+00 0. -1.
         24    2    1    2    0    0  0.43094868789E+03  0.13193189379E+03  0.12995842034E+03  0.47599662975E+03  0.80998792083E+02 0.  0.
        254    2    1    2    0    0 -0.43094868789E+03 -0.13193189379E+03  0.37186502412E+03  0.10680472934E+04  0.89404621161E+03 0.  0.
         23    2    4    4    0    0 -0.61995119589E+03  0.14487976716E+03  0.31385225082E+03  0.71561732365E+03  0.90968600912E+02 0.  0.
         23    2    4    4    0    0  0.18900250800E+03 -0.27681166095E+03  0.58012773295E+02  0.35242996971E+03  0.92167011530E+02 0.  0.
          4    1    3    3  502    0  0.66824112972E+02 -0.25782601853E+01  0.38605497606E+02  0.77217186853E+02  0.00000000000E+00 0. -1.
         -3    1    3    3    0  502  0.36412457492E+03  0.13451015398E+03  0.91352922738E+02  0.39877944289E+03  0.00000000000E+00 0.  1.
         11    1    5    5    0    0 -0.51876086944E+03  0.12654319190E+03  0.29819714925E+03  0.61159427638E+03  0.00000000000E+00 0. -1.
        -11    1    5    5    0    0 -0.10119032645E+03  0.18336575255E+02  0.15655101569E+02  0.10402304727E+03  0.00000000000E+00 0.  1.
          3    1    6    6  503    0  0.18095043622E+03 -0.20453460532E+03  0.30964491960E+02  0.27483861611E+03  0.00000000000E+00 0. -1.
         -3    1    6    6    0  503  0.80520717816E+01 -0.72277055628E+02  0.27048281336E+02  0.77591353600E+02  0.00000000000E+00 0.  1.
<mgrwt>
<rscale>  0 0.14602208E+04</rscale>
<asrwt>0</asrwt>
<pdfrwt beam="1">  1        2 0.80170806E-01 0.14602208E+04</pdfrwt>
<pdfrwt beam="2">  1       -1 0.15737441E+00 0.14602208E+04</pdfrwt>
<totfact> 0.19890335E+01</totfact>
</mgrwt>
</event>
<event>
12    6  0.1540825E-007  0.1976658E+04  0.7818608E-02  0.8617612E-01
         -1   -1    0    0    0  501 -0.00000000000E+00  0.00000000000E+00  0.60787548329E+03  0.60787548329E+03  0.00000000000E+00 0.  1.
          2   -1    0    0  501    0  0.00000000000E+00 -0.00000000000E+00 -0.16068987235E+04  0.16068987235E+04  0.00000000000E+00 0. -1.
         24    2    1    2    0    0 -0.20487892446E+03 -0.58744015484E+03 -0.91021650413E+03  0.11055187697E+04  0.81340989903E+02 0.  0.
        254    2    1    2    0    0  0.20487892446E+03  0.58744015484E+03 -0.88806736039E+02  0.11092554370E+04  0.91405671541E+03 0.  0.
         23    2    4    4    0    0  0.15336413333E+03  0.82625128584E+03 -0.63942639420E+02  0.84762324580E+03  0.90359066682E+02 0.  0.
         23    2    4    4    0    0  0.51514791128E+02 -0.23881113101E+03 -0.24864096619E+02  0.26163219121E+03  0.90269874159E+02 0.  0.
          2    1    3    3  502    0 -0.18270756820E+03 -0.42582177755E+03 -0.64597673152E+03  0.79497935783E+03  0.00000000000E+00 0. -1.
         -1    1    3    3    0  502 -0.22171356263E+02 -0.16161837729E+03 -0.26423977261E+03  0.31053941190E+03  0.00000000000E+00 0.  1.
         11    1    5    5    0    0  0.13812634199E+03  0.81399852036E+03 -0.61577310713E+02  0.82792767962E+03  0.00000000000E+00 0.  1.
        -11    1    5    5    0    0  0.15237791341E+02  0.12252765488E+02 -0.23653287076E+01  0.19695566175E+02  0.00000000000E+00 0. -1.
          1    1    6    6  503    0 -0.19420656123E+02 -0.12198268775E+02 -0.37665871328E+01  0.23241059012E+02  0.00000000000E+00 0. -1.
         -1    1    6    6    0  503  0.70935447252E+02 -0.22661286223E+03 -0.21097509486E+02  0.23839113220E+03  0.00000000000E+00 0.  1.
<mgrwt>
<rscale>  0 0.19766581E+04</rscale>
<asrwt>0</asrwt>
<pdfrwt beam="1">  1        2 0.24721518E+00 0.19766581E+04</pdfrwt>
<pdfrwt beam="2">  1       -1 0.93519307E-01 0.19766581E+04</pdfrwt>
<totfact> 0.12999374E+01</totfact>
</mgrwt>
</event>
<event>
12    6  0.1540825E-007  0.3130451E+04  0.7818608E-02  0.8207430E-01
         -1   -1    0    0    0  501 -0.00000000000E+00  0.00000000000E+00  0.10223280003E+04  0.10223280003E+04  0.00000000000E+00 0.  1.
          2   -1    0    0  501    0  0.00000000000E+00 -0.00000000000E+00 -0.23964238460E+04  0.23964238460E+04  0.00000000000E+00 0. -1.
         24    2    1    2    0    0  0.13872613613E+04  0.27926637466E+02 -0.30744423477E+03  0.14234523889E+04  0.80129672111E+02 0.  0.
        254    2    1    2    0    0 -0.13872613613E+04 -0.27926637466E+02 -0.10666516110E+04  0.19952994574E+04  0.95822767850E+03 0.  0.
         23    2    4    4    0    0 -0.14244627255E+04  0.38711185294E+01 -0.11721236674E+04  0.18469680359E+04  0.91148186665E+02 0.  0.
         23    2    4    4    0    0  0.37201364175E+02 -0.31797755996E+02  0.10547205645E+03  0.14833142153E+03  0.92102210283E+02 0.  0.
          2    1    3    3  502    0  0.37078659526E+02  0.79800472926E+01 -0.19958895143E+02  0.42858670563E+02  0.00000000000E+00 0. -1.
         -1    1    3    3    0  502  0.13501827018E+04  0.19946590174E+02 -0.28748533963E+03  0.13805937183E+04  0.00000000000E+00 0.  1.
         11    1    5    5    0    0 -0.39886594054E+03  0.39559719882E+02 -0.34748216990E+03  0.53047419198E+03  0.00000000000E+00 0.  1.
        -11    1    5    5    0    0 -0.10255967849E+04 -0.35688601352E+02 -0.82464149753E+03  0.13164938439E+04  0.00000000000E+00 0. -1.
          3    1    6    6  503    0  0.39732993180E+02 -0.15641561031E+02  0.11942821624E+03  0.12683244069E+03  0.00000000000E+00 0. -1.
         -3    1    6    6    0  503 -0.25316290050E+01 -0.16156194965E+02 -0.13956159786E+02  0.21498980840E+02  0.00000000000E+00 0.  1.
<mgrwt>
<rscale>  0 0.31304512E+04</rscale>
<asrwt>0</asrwt>
<pdfrwt beam="1">  1        2 0.36868058E+00 0.31304512E+04</pdfrwt>
<pdfrwt beam="2">  1       -1 0.15728123E+00 0.31304512E+04</pdfrwt>
<totfact> 0.11784047E+00</totfact>
</mgrwt>
</event>
<event>
12    6  0.1540825E-007  0.1250509E+04  0.7818608E-02  0.9069759E-01
         -1   -1    0    0    0  501 -0.00000000000E+00  0.00000000000E+00  0.90798850197E+03  0.90798850197E+03  0.00000000000E+00 0.  1.
          2   -1    0    0  501    0  0.00000000000E+00 -0.00000000000E+00 -0.43055983003E+03  0.43055983003E+03  0.00000000000E+00 0. -1.
         24    2    1    2    0    0  0.51187645231E+02  0.12461682251E+03 -0.14162827553E+03  0.21254602555E+03  0.83472852296E+02 0.  0.
        254    2    1    2    0    0 -0.51187645231E+02 -0.12461682251E+03  0.61905694747E+03  0.11260023064E+04  0.93085990484E+03 0.  0.
         23    2    4    4    0    0 -0.11762193982E+03  0.37505423825E+03  0.14867449051E+03  0.43021848758E+03  0.92104508945E+02 0.  0.
         23    2    4    4    0    0  0.66434294591E+02 -0.49967106076E+03  0.47038245697E+03  0.69578381887E+03  0.93652454939E+02 0.  0.
          4    1    3    3  502    0  0.64662663195E+02  0.50720960213E+02 -0.60974376240E+02  0.10233157076E+03  0.00000000000E+00 0. -1.
         -3    1    3    3    0  502 -0.13475017964E+02  0.73895862296E+02 -0.80653899290E+02  0.11021445479E+03  0.00000000000E+00 0.  1.
         11    1    5    5    0    0  0.10444396757E+02  0.93409144013E+02  0.27386904206E+02  0.97899929167E+02  0.00000000000E+00 0. -1.
        -11    1    5    5    0    0 -0.12806633658E+03  0.28164509424E+03  0.12128758630E+03  0.33231855841E+03  0.00000000000E+00 0.  1.
          3    1    6    6  503    0  0.54658802516E+02 -0.49120502084E+03  0.43835121079E+03  0.66062223789E+03  0.00000000000E+00 0. -1.
         -3    1    6    6    0  503  0.11775492075E+02 -0.84660399246E+01  0.32031246173E+02  0.35161580980E+02  0.00000000000E+00 0.  1.
<mgrwt>
<rscale>  0 0.12505093E+04</rscale>
<asrwt>0</asrwt>
<pdfrwt beam="1">  1        2 0.66239974E-01 0.12505093E+04</pdfrwt>
<pdfrwt beam="2">  1       -1 0.13969054E+00 0.12505093E+04</pdfrwt>
<totfact> 0.34707252E+01</totfact>
</mgrwt>
</event>
<event>
12    6  0.1540825E-007  0.1992370E+04  0.7818608E-02  0.8610196E-01
          2   -1    0    0  501    0  0.00000000000E+00  0.00000000000E+00  0.10246032822E+04  0.10246032822E+04  0.00000000000E+00 0. -1.
         -1   -1    0    0    0  501 -0.00000000000E+00 -0.00000000000E+00 -0.96855493344E+03  0.96855493344E+03  0.00000000000E+00 0.  1.
         24    2    1    2    0    0  0.21379172850E+03 -0.34227773139E+03 -0.65514583416E+03  0.77331705030E+03  0.77085975899E+02 0.  0.
        254    2    1    2    0    0 -0.21379172850E+03  0.34227773139E+03  0.71119418294E+03  0.12198411654E+04  0.90518194538E+03 0.  0.
         23    2    4    4    0    0  0.11023605096E+03 -0.34356875577E+02 -0.15726533362E+03  0.21527332621E+03  0.90982624659E+02 0.  0.
         23    2    4    4    0    0 -0.32402777946E+03  0.37663460697E+03  0.86845951656E+03  0.10045678391E+04  0.89927651489E+02 0.  0.
          4    1    3    3  502    0  0.51909477689E+02 -0.50388858019E+02 -0.16671455560E+03  0.18173434991E+03  0.00000000000E+00 0. -1.
         -3    1    3    3    0  502  0.16188225081E+03 -0.29188887338E+03 -0.48843127856E+03  0.59158270039E+03  0.00000000000E+00 0.  1.
         11    1    5    5    0    0  0.13765588509E+02  0.10826797728E+02  0.75149986071E+01  0.19057444217E+02  0.00000000000E+00 0. -1.
        -11    1    5    5    0    0  0.96470462454E+02 -0.45183673305E+02 -0.16478033222E+03  0.19621588199E+03  0.00000000000E+00 0.  1.
          4    1    6    6  503    0 -0.11882214438E+03  0.15027839311E+03  0.42345569524E+03  0.46477631529E+03  0.00000000000E+00 0.  1.
         -4    1    6    6    0  503 -0.20520563509E+03  0.22635621387E+03  0.44500382132E+03  0.53979152385E+03  0.00000000000E+00 0. -1.
<mgrwt>
<rscale>  0 0.19923700E+04</rscale>
<asrwt>0</asrwt>
<pdfrwt beam="1">  1        2 0.15763127E+00 0.19923700E+04</pdfrwt>
<pdfrwt beam="2">  1       -1 0.14900845E+00 0.19923700E+04</pdfrwt>
<totfact> 0.91497285E+00</totfact>
</mgrwt>
</event>
<event>
12    6  0.1540825E-007  0.1695100E+04  0.7818608E-02  0.8764164E-01
         -1   -1    0    0    0  501 -0.00000000000E+00  0.00000000000E+00  0.62060237673E+03  0.62060237673E+03  0.00000000000E+00 0.  1.
          2   -1    0    0  501    0  0.00000000000E+00 -0.00000000000E+00 -0.11574902949E+04  0.11574902949E+04  0.00000000000E+00 0. -1.
         24    2    1    2    0    0  0.23905086427E+03  0.39239146337E+03  0.21691772322E+03  0.51533851979E+03  0.86047167903E+02 0.  0.
        254    2    1    2    0    0 -0.23905086427E+03 -0.39239146337E+03 -0.75380564144E+03  0.12627541519E+04  0.90288909994E+03 0.  0.
         23    2    4    4    0    0 -0.47573615265E+03 -0.35380384022E+03 -0.80204336742E+03  0.10014735258E+04  0.90408048806E+02 0.  0.
         23    2    4    4    0    0  0.23668528839E+03 -0.38587623147E+02  0.48237725983E+02  0.26128062611E+03  0.91824598964E+02 0.  0.
          4    1    3    3  502    0  0.18757941071E+03  0.23389257463E+03  0.15539984204E+03  0.33769939694E+03  0.00000000000E+00 0. -1.
         -3    1    3    3    0  502  0.51471453560E+02  0.15849888874E+03  0.61517881181E+02  0.17763912285E+03  0.00000000000E+00 0.  1.
         11    1    5    5    0    0 -0.33373516226E+02 -0.49568165473E+02 -0.52868174850E+02  0.79786205109E+02  0.00000000000E+00 0. -1.
        -11    1    5    5    0    0 -0.44236263643E+03 -0.30423567475E+03 -0.74917519257E+03  0.92168732066E+03  0.00000000000E+00 0.  1.
          1    1    6    6  503    0  0.74148405734E+02  0.13651465482E+02  0.50139632760E+02  0.90544637368E+02  0.00000000000E+00 0. -1.
         -1    1    6    6    0  503  0.16253688265E+03 -0.52239088630E+02 -0.19019067773E+01  0.17073598875E+03  0.00000000000E+00 0.  1.
<mgrwt>
<rscale>  0 0.16951003E+04</rscale>
<asrwt>0</asrwt>
<pdfrwt beam="1">  1        2 0.17807543E+00 0.16951003E+04</pdfrwt>
<pdfrwt beam="2">  1       -1 0.95477289E-01 0.16951003E+04</pdfrwt>
<totfact> 0.23094643E+01</totfact>
</mgrwt>
</event>
<event>
12    6  0.1540825E-007  0.1259733E+04  0.7818608E-02  0.9062121E-01
         -1   -1    0    0    0  501 -0.00000000000E+00  0.00000000000E+00  0.15975911158E+03  0.15975911158E+03  0.00000000000E+00 0.  1.
          2   -1    0    0  501    0  0.00000000000E+00 -0.00000000000E+00 -0.24833142225E+04  0.24833142225E+04  0.00000000000E+00 0. -1.
         24    2    1    2    0    0 -0.23943282044E+03  0.15102969101E+03 -0.75685809180E+03  0.81115499177E+03  0.70712138158E+02 0.  0.
        254    2    1    2    0    0  0.23943282044E+03 -0.15102969101E+03 -0.15666970192E+04  0.18319183423E+04  0.90622691425E+03 0.  0.
         23    2    4    4    0    0  0.27410408403E+03 -0.49555817483E+03 -0.78719826390E+03  0.97408166488E+03  0.91885960026E+02 0.  0.
         23    2    4    4    0    0 -0.34671263595E+02  0.34452848382E+03 -0.77949875526E+03  0.85783667747E+03  0.91452080691E+02 0.  0.
          2    1    3    3  502    0 -0.24183571517E+03  0.14090285428E+03 -0.74183200726E+03  0.79287631726E+03  0.00000000000E+00 0. -1.
         -1    1    3    3    0  502  0.24028947377E+01  0.10126836729E+02 -0.15026084549E+02  0.18278674518E+02  0.00000000000E+00 0.  1.
         11    1    5    5    0    0  0.26293720408E+03 -0.49326443626E+03 -0.78275179831E+03  0.96184518251E+03  0.00000000000E+00 0.  1.
        -11    1    5    5    0    0  0.11166879954E+02 -0.22937385702E+01 -0.44464655908E+01  0.12236482370E+02  0.00000000000E+00 0. -1.
          4    1    6    6  503    0 -0.21601020710E+02  0.19380059232E+02 -0.10510947172E+03  0.10904215624E+03  0.00000000000E+00 0. -1.
         -4    1    6    6    0  503 -0.13070242885E+02  0.32514842459E+03 -0.67438928354E+03  0.74879452123E+03  0.00000000000E+00 0.  1.
<mgrwt>
<rscale>  0 0.12597334E+04</rscale>
<asrwt>0</asrwt>
<pdfrwt beam="1">  1        2 0.38204830E+00 0.12597334E+04</pdfrwt>
<pdfrwt beam="2">  1       -1 0.24578327E-01 0.12597334E+04</pdfrwt>
<totfact> 0.57765006E+01</totfact>
</mgrwt>
</event>
<event>
12    6  0.1540825E-007  0.2182790E+04  0.7818608E-02  0.8525625E-01
          2   -1    0    0  501    0  0.00000000000E+00  0.00000000000E+00  0.39326362530E+04  0.39326362530E+04  0.00000000000E+00 0. -1.
         -1   -1    0    0    0  501 -0.00000000000E+00 -0.00000000000E+00 -0.30288676557E+03  0.30288676557E+03  0.00000000000E+00 0.  1.
         24    2    1    2    0    0  0.42126145024E+03 -0.79494938155E+03  0.15133654742E+04  0.17623756951E+04  0.79292516929E+02 0.  0.
        254    2    1    2    0    0 -0.42126145024E+03  0.79494938155E+03  0.21163840132E+04  0.24731473235E+04  0.90992893337E+03 0.  0.
         23    2    4    4    0    0 -0.36525559559E+03  0.28151069196E+02  0.12768162014E+04  0.13310272579E+04  0.84674767535E+02 0.  0.
         23    2    4    4    0    0 -0.56005854650E+02  0.76679831235E+03  0.83956781183E+03  0.11421200657E+04  0.91912056542E+02 0.  0.
          4    1    3    3  502    0  0.19666607499E+02 -0.43780556257E+02  0.12050653776E+03  0.12971252136E+03  0.00000000000E+00 0. -1.
         -3    1    3    3    0  502  0.40159484274E+03 -0.75116882529E+03  0.13928589365E+04  0.16326631737E+04  0.00000000000E+00 0.  1.
         11    1    5    5    0    0 -0.21418622855E+03 -0.21705633213E+02  0.79462703027E+03  0.82327333994E+03  0.00000000000E+00 0.  1.
        -11    1    5    5    0    0 -0.15106936704E+03  0.49856702409E+02  0.48218917111E+03  0.50775391793E+03  0.00000000000E+00 0. -1.
          3    1    6    6  503    0 -0.21655966278E+02  0.68816473818E+03  0.74711576127E+03  0.10159830946E+04  0.00000000000E+00 0. -1.
         -3    1    6    6    0  503 -0.34349888372E+02  0.78633574174E+02  0.92452050555E+02  0.12613697107E+03  0.00000000000E+00 0.  1.
<mgrwt>
<rscale>  0 0.21827904E+04</rscale>
<asrwt>0</asrwt>
<pdfrwt beam="1">  1        2 0.60502092E+00 0.21827904E+04</pdfrwt>
<pdfrwt beam="2">  1       -1 0.46597967E-01 0.21827904E+04</pdfrwt>
<totfact> 0.18636857E+00</totfact>
</mgrwt>
</event>
<event>
12    6  0.1540825E-007  0.1517377E+04  0.7818608E-02  0.8872979E-01
         -1   -1    0    0    0  501 -0.00000000000E+00  0.00000000000E+00  0.42171053449E+03  0.42171053449E+03  0.00000000000E+00 0.  1.
          2   -1    0    0  501    0  0.00000000000E+00 -0.00000000000E+00 -0.13649375198E+04  0.13649375198E+04  0.00000000000E+00 0. -1.
         24    2    1    2    0    0  0.94784027889E+02 -0.47504723160E+03 -0.23768156123E+03  0.54543089936E+03  0.79677206507E+02 0.  0.
        254    2    1    2    0    0 -0.94784027889E+02  0.47504723160E+03 -0.70554542404E+03  0.12412171549E+04  0.89898375738E+03 0.  0.
         23    2    4    4    0    0 -0.23170067556E+02  0.76649305447E+02 -0.80645406296E+03  0.81538320688E+03  0.89831232578E+02 0.  0.
         23    2    4    4    0    0 -0.71613960333E+02  0.39839792615E+03  0.10090863892E+03  0.42583394801E+03  0.85454847699E+02 0.  0.
          4    1    3    3  502    0  0.90406737352E+02 -0.36171313638E+03 -0.14921549451E+03  0.40159063110E+03  0.00000000000E+00 0. -1.
         -3    1    3    3    0  502  0.43772905372E+01 -0.11333409522E+03 -0.88466066720E+02  0.14384026826E+03  0.00000000000E+00 0.  1.
         11    1    5    5    0    0 -0.32016704793E+02 -0.78656392084E+01 -0.30540026843E+03  0.30717464352E+03  0.00000000000E+00 0. -1.
        -11    1    5    5    0    0  0.88466372370E+01  0.84514944655E+02 -0.50105379453E+03  0.50820856336E+03  0.00000000000E+00 0.  1.
          3    1    6    6  503    0 -0.81236261124E+02  0.26800815016E+03  0.45018978429E+02  0.28364486086E+03  0.00000000000E+00 0. -1.
         -3    1    6    6    0  503  0.96223007911E+01  0.13038977599E+03  0.55889660488E+02  0.14218908715E+03  0.00000000000E+00 0.  1.
<mgrwt>
<rscale>  0 0.15173774E+04</rscale>
<asrwt>0</asrwt>
<pdfrwt beam="1">  1        2 0.20999039E+00 0.15173774E+04</pdfrwt>
<pdfrwt beam="2">  1       -1 0.64878544E-01 0.15173774E+04</pdfrwt>
<totfact> 0.40156456E+01</totfact>
</mgrwt>
</event>
<event>
12    6  0.1540825E-007  0.2565209E+04  0.7818608E-02  0.8380116E-01
          2   -1    0    0  501    0  0.00000000000E+00  0.00000000000E+00  0.14491307240E+04  0.14491307240E+04  0.00000000000E+00 0. -1.
         -1   -1    0    0    0  501 -0.00000000000E+00 -0.00000000000E+00 -0.11352145156E+04  0.11352145156E+04  0.00000000000E+00 0.  1.
         24    2    1    2    0    0  0.10644748892E+03 -0.22371732787E+02 -0.98911310473E+03  0.99806100676E+03  0.77132852416E+02 0.  0.
        254    2    1    2    0    0 -0.10644748892E+03  0.22371732787E+02  0.13030293132E+04  0.15862842329E+04  0.89809838783E+03 0.  0.
         23    2    4    4    0    0 -0.43092117756E+03  0.78540565617E+02  0.11022235113E+04  0.11895149749E+04  0.90484943788E+02 0.  0.
         23    2    4    4    0    0  0.32447368864E+03 -0.56168832830E+02  0.20080580188E+03  0.39676925795E+03  0.93084701144E+02 0.  0.
          4    1    3    3  502    0  0.18589842354E+02 -0.17784562233E+02 -0.67146573065E+02  0.71906433419E+02  0.00000000000E+00 0. -1.
         -3    1    3    3    0  502  0.87857646570E+02 -0.45871705544E+01 -0.92196653167E+03  0.92615457334E+03  0.00000000000E+00 0.  1.
         11    1    5    5    0    0  0.29507552832E+01  0.59447729721E+01  0.96991062044E+01  0.11752444154E+02  0.00000000000E+00 0. -1.
        -11    1    5    5    0    0 -0.43387193285E+03  0.72595792645E+02  0.10925244051E+04  0.11777625308E+04  0.00000000000E+00 0.  1.
          2    1    6    6  503    0  0.13521194479E+03 -0.38603363130E+02  0.35888815445E+02  0.14512235091E+03  0.00000000000E+00 0. -1.
         -2    1    6    6    0  503  0.18926174385E+03 -0.17565469700E+02  0.16491698643E+03  0.25164690704E+03  0.00000000000E+00 0.  1.
<mgrwt>
<rscale>  0 0.25652089E+04</rscale>
<asrwt>0</asrwt>
<pdfrwt beam="1">  1        2 0.22294319E+00 0.25652089E+04</pdfrwt>
<pdfrwt beam="2">  1       -1 0.17464839E+00 0.25652089E+04</pdfrwt>
<totfact> 0.31189568E+00</totfact>
</mgrwt>
</event>
<event>
12    6  0.1540825E-007  0.1316926E+04  0.7818608E-02  0.9016250E-01
         -1   -1    0    0    0  501 -0.00000000000E+00  0.00000000000E+00  0.14722739653E+03  0.14722739653E+03  0.00000000000E+00 0.  1.
          2   -1    0    0  501    0  0.00000000000E+00 -0.00000000000E+00 -0.29449225426E+04  0.29449225426E+04  0.00000000000E+00 0. -1.
         24    2    1    2    0    0 -0.20227418421E+03  0.18598559572E+03 -0.26188384380E+03  0.38717590737E+03  0.76266297881E+02 0.  0.
        254    2    1    2    0    0  0.20227418421E+03 -0.18598559572E+03 -0.25358113023E+04  0.27049740318E+04  0.90057762821E+03 0.  0.
         23    2    4    4    0    0  0.10750837333E+03 -0.41982862161E+03 -0.57551208102E+03  0.72642697318E+03  0.93101396892E+02 0.  0.
         23    2    4    4    0    0  0.94765810872E+02  0.23384302590E+03 -0.19602992213E+04  0.19785470586E+04  0.90621777497E+02 0.  0.
          2    1    3    3  502    0  0.51567808886E+01  0.14689384522E+00 -0.11762513397E+02  0.12844091574E+02  0.00000000000E+00 0. -1.
         -1    1    3    3    0  502 -0.20743096509E+03  0.18583870187E+03 -0.25012133040E+03  0.37433181579E+03  0.00000000000E+00 0.  1.
         11    1    5    5    0    0  0.16330900198E+02 -0.22391235242E+03 -0.25344563273E+03  0.33858252852E+03  0.00000000000E+00 0.  1.
        -11    1    5    5    0    0  0.91177473135E+02 -0.19591626919E+03 -0.32206644829E+03  0.38784444466E+03  0.00000000000E+00 0. -1.
          3    1    6    6  503    0  0.47345439246E+02  0.82803942282E+02 -0.45149769328E+03  0.46146316268E+03  0.00000000000E+00 0. -1.
         -3    1    6    6    0  503  0.47420371626E+02  0.15103908361E+03 -0.15088015280E+04  0.15170838959E+04  0.00000000000E+00 0.  1.
<mgrwt>
<rscale>  0 0.13169256E+04</rscale>
<asrwt>0</asrwt>
<pdfrwt beam="1">  1        2 0.45306494E+00 0.13169256E+04</pdfrwt>
<pdfrwt beam="2">  1       -1 0.22650372E-01 0.13169256E+04</pdfrwt>
<totfact> 0.35195546E+01</totfact>
</mgrwt>
</event>
<event>
12    6  0.1540825E-007  0.1110137E+04  0.7818608E-02  0.9195368E-01
          2   -1    0    0  501    0  0.00000000000E+00  0.00000000000E+00  0.17395694376E+04  0.17395694376E+04  0.00000000000E+00 0. -1.
         -1   -1    0    0    0  501 -0.00000000000E+00 -0.00000000000E+00 -0.17711327605E+03  0.17711327605E+03  0.00000000000E+00 0.  1.
         24    2    1    2    0    0 -0.12590784011E+03  0.33919264353E+02  0.47600284578E+03  0.49981433088E+03  0.78945268815E+02 0.  0.
        254    2    1    2    0    0  0.12590784011E+03 -0.33919264353E+02  0.10864533158E+04  0.14168683828E+04  0.90007327818E+03 0.  0.
         23    2    4    4    0    0  0.21837601541E+03 -0.32122787433E+03  0.10194137435E+04  0.10946122820E+04  0.89979087959E+02 0.  0.
         23    2    4    4    0    0 -0.92468175296E+02  0.28730860998E+03  0.67039572347E+02  0.32225610078E+03  0.90874030494E+02 0.  0.
          2    1    3    3  502    0 -0.12957509457E+03  0.34697197274E+02  0.36698623788E+03  0.39073328425E+03  0.00000000000E+00 0. -1.
         -1    1    3    3    0  502  0.36672544608E+01 -0.77793292137E+00  0.10901660790E+03  0.10908104663E+03  0.00000000000E+00 0.  1.
         11    1    5    5    0    0  0.16690938980E+03 -0.16873225241E+03  0.63214768743E+03  0.67523330496E+03  0.00000000000E+00 0.  1.
        -11    1    5    5    0    0  0.51466625611E+02 -0.15249562192E+03  0.38726605604E+03  0.41937897708E+03  0.00000000000E+00 0. -1.
          2    1    6    6  503    0 -0.44369481997E+02  0.16629886486E+03 -0.73764801347E+01  0.17227412994E+03  0.00000000000E+00 0.  1.
         -2    1    6    6    0  503 -0.48098693299E+02  0.12100974512E+03  0.74416052482E+02  0.14998197084E+03  0.00000000000E+00 0. -1.
<mgrwt>
<rscale>  0 0.11101366E+04</rscale>
<asrwt>0</asrwt>
<pdfrwt beam="1">  1        2 0.26762606E+00 0.11101366E+04</pdfrwt>
<pdfrwt beam="2">  1       -1 0.27248197E-01 0.11101366E+04</pdfrwt>
<totfact> 0.12723756E+02</totfact>
</mgrwt>
</event>
<event>
12    6  0.1540825E-007  0.1375977E+04  0.7818608E-02  0.8971394E-01
          2   -1    0    0  501    0  0.00000000000E+00  0.00000000000E+00  0.11410880424E+04  0.11410880424E+04  0.00000000000E+00 0. -1.
         -1   -1    0    0    0  501 -0.00000000000E+00 -0.00000000000E+00 -0.41480416032E+03  0.41480416032E+03  0.00000000000E+00 0.  1.
         24    2    1    2    0    0  0.38649150035E+02  0.35455118120E+03  0.35145370238E+02  0.36630414602E+03  0.75784124026E+02 0.  0.
        254    2    1    2    0    0 -0.38649150035E+02 -0.35455118120E+03  0.69113851181E+03  0.11895880567E+04  0.90013721464E+03 0.  0.
         23    2    4    4    0    0 -0.31069170735E+03  0.72527207885E+02  0.57453857841E+03  0.66222379452E+03  0.81585801761E+02 0.  0.
         23    2    4    4    0    0  0.27204255731E+03 -0.42707838908E+03  0.11659993340E+03  0.52736426214E+03  0.90080059436E+02 0.  0.
          4    1    3    3  502    0  0.10567613898E+02  0.21066304608E+03 -0.14750399046E+02  0.21144306023E+03  0.00000000000E+00 0. -1.
         -3    1    3    3    0  502  0.28081536138E+02  0.14388813512E+03  0.49895769284E+02  0.15486108579E+03  0.00000000000E+00 0.  1.
         11    1    5    5    0    0 -0.26759349466E+03  0.38364721627E+02  0.43398121856E+03  0.51129035616E+03  0.00000000000E+00 0. -1.
        -11    1    5    5    0    0 -0.43098212692E+02  0.34162486258E+02  0.14055735986E+03  0.15093343836E+03  0.00000000000E+00 0.  1.
          1    1    6    6  503    0  0.26108056322E+03 -0.35182357795E+03  0.94795289396E+02  0.44825108743E+03  0.00000000000E+00 0. -1.
         -1    1    6    6    0  503  0.10961994096E+02 -0.75254811136E+02  0.21804643999E+02  0.79113174716E+02  0.00000000000E+00 0.  1.
<mgrwt>
<rscale>  0 0.13759768E+04</rscale>
<asrwt>0</asrwt>
<pdfrwt beam="1">  1        2 0.17555201E+00 0.13759768E+04</pdfrwt>
<pdfrwt beam="2">  1       -1 0.63816025E-01 0.13759768E+04</pdfrwt>
<totfact> 0.56921487E+01</totfact>
</mgrwt>
</event>
<event>
12    6  0.1540825E-007  0.1756585E+04  0.7818608E-02  0.8729734E-01
         -1   -1    0    0    0  501 -0.00000000000E+00  0.00000000000E+00  0.50179834612E+03  0.50179834612E+03  0.00000000000E+00 0.  1.
          2   -1    0    0  501    0  0.00000000000E+00 -0.00000000000E+00 -0.15372659924E+04  0.15372659924E+04  0.00000000000E+00 0. -1.
         24    2    1    2    0    0  0.24317590192E+03  0.40780766077E+03 -0.94496589236E+03  0.10606696156E+04  0.81350404810E+02 0.  0.
        254    2    1    2    0    0 -0.24317590192E+03 -0.40780766077E+03 -0.90501753884E+02  0.97839472284E+03  0.85066095406E+03 0.  0.
         23    2    4    4    0    0 -0.37617348367E+03 -0.56733618589E+03 -0.21517066701E+03  0.71963525521E+03  0.90551902037E+02 0.  0.
         23    2    4    4    0    0  0.13299758175E+03  0.15952852512E+03  0.12466891313E+03  0.25875946763E+03  0.90974815794E+02 0.  0.
          2    1    3    3  502    0  0.45517308397E+02  0.13450195018E+03 -0.33063628358E+03  0.35983739659E+03  0.00000000000E+00 0. -1.
         -1    1    3    3    0  502  0.19765859352E+03  0.27330571059E+03 -0.61432960878E+03  0.70083221905E+03  0.00000000000E+00 0.  1.
         11    1    5    5    0    0 -0.25738964272E+02 -0.90068551911E+02 -0.42514358701E+02  0.10287035054E+03  0.00000000000E+00 0.  1.
        -11    1    5    5    0    0 -0.35043451940E+03 -0.47726763398E+03 -0.17265630831E+03  0.61676490467E+03  0.00000000000E+00 0. -1.
          4    1    6    6  503    0  0.13602488113E+03  0.11934668530E+03  0.12226492564E+03  0.21839210522E+03  0.00000000000E+00 0. -1.
         -4    1    6    6    0  503 -0.30272993761E+01  0.40181839813E+02  0.24039874883E+01  0.40367362412E+02  0.00000000000E+00 0.  1.
<mgrwt>
<rscale>  0 0.17565848E+04</rscale>
<asrwt>0</asrwt>
<pdfrwt beam="1">  1        2 0.23650246E+00 0.17565848E+04</pdfrwt>
<pdfrwt beam="2">  1       -1 0.77199746E-01 0.17565848E+04</pdfrwt>
<totfact> 0.21962381E+01</totfact>
</mgrwt>
</event>
<event>
12    6  0.1540825E-007  0.1480506E+04  0.7818608E-02  0.8897521E-01
          2   -1    0    0  501    0  0.00000000000E+00  0.00000000000E+00  0.12678210269E+04  0.12678210269E+04  0.00000000000E+00 0. -1.
         -1   -1    0    0    0  501 -0.00000000000E+00 -0.00000000000E+00 -0.43221728394E+03  0.43221728394E+03  0.00000000000E+00 0.  1.
         24    2    1    2    0    0 -0.14933892808E+03 -0.69816032057E+02 -0.22520257431E+03  0.29244043281E+03  0.87343079255E+02 0.  0.
        254    2    1    2    0    0  0.14933892808E+03  0.69816032057E+02  0.10608063173E+04  0.14075978780E+04  0.91040944069E+03 0.  0.
         23    2    4    4    0    0  0.24054170225E+03  0.50668071475E+02  0.11928654515E+04  0.12213245322E+04  0.90983864586E+02 0.  0.
         23    2    4    4    0    0 -0.91202774172E+02  0.19147960582E+02 -0.13205913424E+03  0.18627334580E+03  0.92593487935E+02 0.  0.
          4    1    3    3  502    0 -0.56921116582E+02 -0.74582559257E+02 -0.12012328337E+03  0.15242104469E+03  0.00000000000E+00 0. -1.
         -3    1    3    3    0  502 -0.92417811499E+02  0.47665271996E+01 -0.10507929094E+03  0.14001938812E+03  0.00000000000E+00 0.  1.
         11    1    5    5    0    0  0.23151911253E+03  0.63726026957E+02  0.11627060927E+04  0.11872436835E+04  0.00000000000E+00 0. -1.
        -11    1    5    5    0    0  0.90225897280E+01 -0.13057955481E+02  0.30159358799E+02  0.34080848727E+02  0.00000000000E+00 0.  1.
          3    1    6    6  503    0 -0.17938923786E+02 -0.35391516372E+02 -0.46441811906E+02  0.61083600998E+02  0.00000000000E+00 0. -1.
         -3    1    6    6    0  503 -0.73263850386E+02  0.54539476954E+02 -0.85617322335E+02  0.12518974480E+03  0.00000000000E+00 0.  1.
<mgrwt>
<rscale>  0 0.14805055E+04</rscale>
<asrwt>0</asrwt>
<pdfrwt beam="1">  1        2 0.19504939E+00 0.14805055E+04</pdfrwt>
<pdfrwt beam="2">  1       -1 0.66494968E-01 0.14805055E+04</pdfrwt>
<totfact> 0.43646192E+01</totfact>
</mgrwt>
</event>
<event>
12    6  0.1540825E-007  0.1520657E+04  0.7818608E-02  0.8870831E-01
         -1   -1    0    0    0  501 -0.00000000000E+00  0.00000000000E+00  0.50296065975E+03  0.50296065975E+03  0.00000000000E+00 0.  1.
          2   -1    0    0  501    0  0.00000000000E+00 -0.00000000000E+00 -0.11493935765E+04  0.11493935765E+04  0.00000000000E+00 0. -1.
         24    2    1    2    0    0  0.12985997134E+03 -0.46224235421E+03 -0.49904577024E+02  0.48919773369E+03  0.79324332067E+02 0.  0.
        254    2    1    2    0    0 -0.12985997134E+03  0.46224235421E+03 -0.59652833974E+03  0.11631565026E+04  0.87553148612E+03 0.  0.
         23    2    4    4    0    0 -0.30775322799E+03 -0.95901386472E+02 -0.18379428541E+02  0.33496394383E+03  0.89184724073E+02 0.  0.
         23    2    4    4    0    0  0.17789325665E+03  0.55814374068E+03 -0.57814891120E+03  0.82819255874E+03  0.92066849736E+02 0.  0.
          2    1    3    3  502    0  0.14012687384E+02 -0.18393720628E+02  0.12448756905E+02  0.26261300706E+02  0.00000000000E+00 0. -1.
         -1    1    3    3    0  502  0.11584728396E+03 -0.44384863358E+03 -0.62353333929E+02  0.46293643298E+03  0.00000000000E+00 0.  1.
         11    1    5    5    0    0 -0.24119320632E+03 -0.11026358185E+03 -0.33022875871E+01  0.26522278439E+03  0.00000000000E+00 0.  1.
        -11    1    5    5    0    0 -0.66560021669E+02  0.14362195376E+02 -0.15077140954E+02  0.69741159440E+02  0.00000000000E+00 0. -1.
          1    1    6    6  503    0  0.11072754625E+03  0.22066695156E+03 -0.20822079632E+03  0.32297119536E+03  0.00000000000E+00 0. -1.
         -1    1    6    6    0  503  0.67165710395E+02  0.33747678912E+03 -0.36992811487E+03  0.50522136338E+03  0.00000000000E+00 0.  1.
<mgrwt>
<rscale>  0 0.15206574E+04</rscale>
<asrwt>0</asrwt>
<pdfrwt beam="1">  1        2 0.17682978E+00 0.15206574E+04</pdfrwt>
<pdfrwt beam="2">  1       -1 0.77378563E-01 0.15206574E+04</pdfrwt>
<totfact> 0.37431886E+01</totfact>
</mgrwt>
</event>
<event>
12    6  0.1540825E-007  0.2427052E+04  0.7818608E-02  0.8429444E-01
          2   -1    0    0  501    0  0.00000000000E+00  0.00000000000E+00  0.25694472185E+04  0.25694472185E+04  0.00000000000E+00 0. -1.
         -1   -1    0    0    0  501 -0.00000000000E+00 -0.00000000000E+00 -0.57313717374E+03  0.57313717374E+03  0.00000000000E+00 0.  1.
         24    2    1    2    0    0  0.77774449587E+03  0.58147329540E+03  0.37001752453E+03  0.10423441982E+04  0.81060254929E+02 0.  0.
        254    2    1    2    0    0 -0.77774449587E+03 -0.58147329540E+03  0.16262925202E+04  0.21002401941E+04  0.90729477968E+03 0.  0.
         23    2    4    4    0    0  0.91324019352E+02 -0.41849579897E+03  0.48747885539E+03  0.65550816956E+03  0.92609479219E+02 0.  0.
         23    2    4    4    0    0 -0.86906851522E+03 -0.16297749642E+03  0.11388136648E+04  0.14447320245E+04  0.92262185474E+02 0.  0.
          2    1    3    3  502    0  0.69945687853E+02  0.50867165313E+02  0.91604409205E+01  0.86970003070E+02  0.00000000000E+00 0. -1.
         -1    1    3    3    0  502  0.70779880802E+03  0.53060613008E+03  0.36085708361E+03  0.95537419512E+03  0.00000000000E+00 0.  1.
         11    1    5    5    0    0  0.44066862190E+02 -0.24783564178E+03  0.21769986391E+03  0.33280268092E+03  0.00000000000E+00 0. -1.
        -11    1    5    5    0    0  0.47257157162E+02 -0.17066015719E+03  0.26977899148E+03  0.32270548864E+03  0.00000000000E+00 0.  1.
          3    1    6    6  503    0 -0.63759157293E+03 -0.11023670931E+03  0.89527107702E+03  0.11046200466E+04  0.00000000000E+00 0. -1.
         -3    1    6    6    0  503 -0.23147694229E+03 -0.52740787110E+02  0.24354258783E+03  0.34011197792E+03  0.00000000000E+00 0.  1.
<mgrwt>
<rscale>  0 0.24270523E+04</rscale>
<asrwt>0</asrwt>
<pdfrwt beam="1">  1        2 0.39529956E+00 0.24270523E+04</pdfrwt>
<pdfrwt beam="2">  1       -1 0.88174952E-01 0.24270523E+04</pdfrwt>
<totfact> 0.40899094E+00</totfact>
</mgrwt>
</event>
<event>
12    6  0.1540825E-007  0.2118086E+04  0.7818608E-02  0.8553318E-01
          2   -1    0    0  501    0  0.00000000000E+00  0.00000000000E+00  0.25613693517E+04  0.25613693517E+04  0.00000000000E+00 0. -1.
         -1   -1    0    0    0  501 -0.00000000000E+00 -0.00000000000E+00 -0.43788006171E+03  0.43788006171E+03  0.00000000000E+00 0.  1.
         24    2    1    2    0    0  0.67956443614E+03 -0.52109534069E+03  0.92660961146E+03  0.12643847536E+04  0.81946666364E+02 0.  0.
        254    2    1    2    0    0 -0.67956443614E+03  0.52109534069E+03  0.11968796785E+04  0.17348646598E+04  0.91863281350E+03 0.  0.
         23    2    4    4    0    0  0.79184811452E+02 -0.85169860626E+02 -0.46629686673E+02  0.15432638149E+03  0.90100859163E+02 0.  0.
         23    2    4    4    0    0 -0.75874924759E+03  0.60626520131E+03  0.12435093652E+04  0.15805382783E+04  0.92346049444E+02 0.  0.
          4    1    3    3  502    0  0.54100231552E+03 -0.42855583392E+03  0.69911806886E+03  0.98239996050E+03  0.00000000000E+00 0. -1.
         -1    1    3    3    0  502  0.13856212062E+03 -0.92539506767E+02  0.22749154260E+03  0.28198479310E+03  0.00000000000E+00 0.  1.
         11    1    5    5    0    0  0.74559587191E+02 -0.10339462253E+03 -0.34899475399E+02  0.13216487201E+03  0.00000000000E+00 0. -1.
        -11    1    5    5    0    0  0.46252242601E+01  0.18224761906E+02 -0.11730211273E+02  0.22161509481E+02  0.00000000000E+00 0.  1.
          4    1    6    6  503    0 -0.40869929433E+03  0.29560615897E+03  0.58120305380E+03  0.76955513393E+03  0.00000000000E+00 0. -1.
         -4    1    6    6    0  503 -0.35004995326E+03  0.31065904235E+03  0.66230631140E+03  0.81098314440E+03  0.00000000000E+00 0.  1.
<mgrwt>
<rscale>  0 0.21180865E+04</rscale>
<asrwt>0</asrwt>
<pdfrwt beam="1">  1        2 0.39405681E+00 0.21180865E+04</pdfrwt>
<pdfrwt beam="2">  1       -1 0.67366165E-01 0.21180865E+04</pdfrwt>
<totfact> 0.74964521E+00</totfact>
</mgrwt>
</event>
<event>
12    6  0.1540825E-007  0.2050002E+04  0.7818608E-02  0.8583593E-01
          2   -1    0    0  501    0  0.00000000000E+00  0.00000000000E+00  0.15637508288E+04  0.15637508288E+04  0.00000000000E+00 0. -1.
         -1   -1    0    0    0  501 -0.00000000000E+00 -0.00000000000E+00 -0.67186370327E+03  0.67186370327E+03  0.00000000000E+00 0.  1.
         24    2    1    2    0    0 -0.74281721745E+02  0.34589479386E+03  0.11615591744E+04  0.12165708099E+04  0.75258470713E+02 0.  0.
        254    2    1    2    0    0  0.74281721745E+02 -0.34589479386E+03 -0.26967204879E+03  0.10190437222E+04  0.91682392597E+03 0.  0.
         23    2    4    4    0    0 -0.25343437679E+03 -0.51143552428E+03 -0.46554946978E+02  0.57946360743E+03  0.88404922978E+02 0.  0.
         23    2    4    4    0    0  0.32771609854E+03  0.16554073042E+03 -0.22311710181E+03  0.43958011477E+03  0.92993878864E+02 0.  0.
          4    1    3    3  502    0 -0.81995717464E+02  0.33168362926E+03  0.11365008499E+04  0.11867482923E+04  0.00000000000E+00 0. -1.
         -3    1    3    3    0  502  0.77139957195E+01  0.14211164600E+02  0.25058324501E+02  0.29822517600E+02  0.00000000000E+00 0.  1.
         11    1    5    5    0    0 -0.17481396647E+03 -0.28984344711E+03  0.60081190579E+01  0.33853396315E+03  0.00000000000E+00 0. -1.
        -11    1    5    5    0    0 -0.78620410320E+02 -0.22159207717E+03 -0.52563066036E+02  0.24092964428E+03  0.00000000000E+00 0.  1.
          4    1    6    6  503    0  0.81127796783E+02  0.46250878063E+02 -0.10710448855E+03  0.14209938283E+03  0.00000000000E+00 0. -1.
         -4    1    6    6    0  503  0.24658830175E+03  0.11928985236E+03 -0.11601261326E+03  0.29748073194E+03  0.00000000000E+00 0.  1.
<mgrwt>
<rscale>  0 0.20500024E+04</rscale>
<asrwt>0</asrwt>
<pdfrwt beam="1">  1        2 0.24057705E+00 0.20500024E+04</pdfrwt>
<pdfrwt beam="2">  1       -1 0.10336365E+00 0.20500024E+04</pdfrwt>
<totfact> 0.10877938E+01</totfact>
</mgrwt>
</event>
<event>
12    6  0.1540825E-007  0.2164310E+04  0.7818608E-02  0.8533432E-01
         -1   -1    0    0    0  501 -0.00000000000E+00  0.00000000000E+00  0.32215518838E+03  0.32215518838E+03  0.00000000000E+00 0.  1.
          2   -1    0    0  501    0  0.00000000000E+00 -0.00000000000E+00 -0.36350786762E+04  0.36350786762E+04  0.00000000000E+00 0. -1.
         24    2    1    2    0    0 -0.18529746279E+03 -0.98881982889E+02 -0.29566014323E+04  0.29660913756E+04  0.10996919041E+03 0.  0.
        254    2    1    2    0    0  0.18529746279E+03  0.98881982889E+02 -0.35632205553E+03  0.99114248896E+03  0.90071373361E+03 0.  0.
         23    2    4    4    0    0  0.46839318276E+03  0.38660722875E+02  0.53569414632E+02  0.48127202151E+03  0.88691889975E+02 0.  0.
         23    2    4    4    0    0 -0.28309571997E+03  0.60221260014E+02 -0.40989147016E+03  0.50987046746E+03  0.90482536734E+02 0.  0.
          2    1    3    3  502    0 -0.29410048774E+02 -0.32048508725E+02 -0.13216905822E+04  0.13224061603E+04  0.00000000000E+00 0. -1.
         -1    1    3    3    0  502 -0.15588741402E+03 -0.66833474164E+02 -0.16349108502E+04  0.16436852153E+04  0.00000000000E+00 0.  1.
         11    1    5    5    0    0  0.65779521494E+02  0.14745610755E+02  0.38578258224E+02  0.77670203374E+02  0.00000000000E+00 0. -1.
        -11    1    5    5    0    0  0.40261366127E+03  0.23915112120E+02  0.14991156407E+02  0.40360181813E+03  0.00000000000E+00 0.  1.
          4    1    6    6  503    0 -0.24329898291E+03  0.36521592418E+02 -0.28409077778E+03  0.37581350670E+03  0.00000000000E+00 0.  1.
         -4    1    6    6    0  503 -0.39796737059E+02  0.23699667596E+02 -0.12580069238E+03  0.13405696076E+03  0.00000000000E+00 0. -1.
<mgrwt>
<rscale>  0 0.21643100E+04</rscale>
<asrwt>0</asrwt>
<pdfrwt beam="1">  1        2 0.55924285E+00 0.21643100E+04</pdfrwt>
<pdfrwt beam="2">  1       -1 0.49562339E-01 0.21643100E+04</pdfrwt>
<totfact> 0.27861788E+00</totfact>
</mgrwt>
</event>
<event>
12    6  0.1540825E-007  0.1145723E+04  0.7818608E-02  0.9161738E-01
          2   -1    0    0  501    0  0.00000000000E+00  0.00000000000E+00  0.31924900254E+03  0.31924900254E+03  0.00000000000E+00 0. -1.
         -1   -1    0    0    0  501 -0.00000000000E+00 -0.00000000000E+00 -0.10279454757E+04  0.10279454757E+04  0.00000000000E+00 0.  1.
         24    2    1    2    0    0 -0.18699610012E+03  0.68461274188E+02 -0.12484083505E+03  0.24908757426E+03  0.82491805828E+02 0.  0.
        254    2    1    2    0    0  0.18699610012E+03 -0.68461274188E+02 -0.58385563808E+03  0.10981069039E+04  0.90845851796E+03 0.  0.
         23    2    4    4    0    0  0.35716562397E+02  0.82435668358E+02 -0.78230854452E+03  0.79268895287E+03  0.90982442970E+02 0.  0.
         23    2    4    4    0    0  0.15127953772E+03 -0.15089694255E+03  0.19845290644E+03  0.30541795107E+03  0.90780961434E+02 0.  0.
          2    1    3    3  502    0 -0.24799538030E+02  0.20161551362E+02  0.91342244743E+01  0.33240627199E+02  0.00000000000E+00 0. -1.
         -1    1    3    3    0  502 -0.16219656209E+03  0.48299722826E+02 -0.13397505952E+03  0.21584694706E+03  0.00000000000E+00 0.  1.
         11    1    5    5    0    0  0.54878540978E+01  0.35702282666E+02 -0.62097458352E+03  0.62202427839E+03  0.00000000000E+00 0.  1.
        -11    1    5    5    0    0  0.30228708299E+02  0.46733385692E+02 -0.16133396100E+03  0.17066467448E+03  0.00000000000E+00 0. -1.
          2    1    6    6  503    0  0.59479942772E+01 -0.88625250136E+01  0.56588435505E+02  0.57586231153E+02  0.00000000000E+00 0. -1.
         -2    1    6    6    0  503  0.14533154345E+03 -0.14203441753E+03  0.14186447094E+03  0.24783171992E+03  0.00000000000E+00 0.  1.
<mgrwt>
<rscale>  0 0.11457235E+04</rscale>
<asrwt>0</asrwt>
<pdfrwt beam="1">  1        2 0.49115231E-01 0.11457235E+04</pdfrwt>
<pdfrwt beam="2">  1       -1 0.15814546E+00 0.11457235E+04</pdfrwt>
<totfact> 0.35076340E+01</totfact>
</mgrwt>
</event>
<event>
12    6  0.1540825E-007  0.1339105E+04  0.7818608E-02  0.8999117E-01
         -1   -1    0    0    0  501 -0.00000000000E+00  0.00000000000E+00  0.27677049070E+03  0.27677049070E+03  0.00000000000E+00 0.  1.
          2   -1    0    0  501    0  0.00000000000E+00 -0.00000000000E+00 -0.16197551227E+04  0.16197551227E+04  0.00000000000E+00 0. -1.
         24    2    1    2    0    0  0.19496175383E+03  0.27816515413E+03 -0.22516698271E+03  0.41495882755E+03  0.78132707832E+02 0.  0.
        254    2    1    2    0    0 -0.19496175383E+03 -0.27816515413E+03 -0.11178176493E+04  0.14815667859E+04  0.91111904022E+03 0.  0.
         23    2    4    4    0    0 -0.48772390698E+03 -0.35816286378E+03 -0.51501104453E+03  0.80055936539E+03  0.97486794441E+02 0.  0.
         23    2    4    4    0    0  0.29276215315E+03  0.79997709657E+02 -0.60280660479E+03  0.68100742048E+03  0.91027425023E+02 0.  0.
          2    1    3    3  502    0  0.76044725320E+02  0.84235850797E+02 -0.11724484225E+03  0.16317117344E+03  0.00000000000E+00 0. -1.
         -1    1    3    3    0  502  0.11891702851E+03  0.19392930333E+03 -0.10792214046E+03  0.25178765411E+03  0.00000000000E+00 0.  1.
         11    1    5    5    0    0 -0.33732536091E+03 -0.25654445435E+03 -0.30030151082E+03  0.51940779121E+03  0.00000000000E+00 0.  1.
        -11    1    5    5    0    0 -0.15039854607E+03 -0.10161840943E+03 -0.21470953372E+03  0.28115157418E+03  0.00000000000E+00 0. -1.
          4    1    6    6  503    0  0.18595203575E+03  0.94284689238E+02 -0.37715413687E+03  0.43094431796E+03  0.00000000000E+00 0. -1.
         -4    1    6    6    0  503  0.10681011740E+03 -0.14286979581E+02 -0.22565246792E+03  0.25006310253E+03  0.00000000000E+00 0.  1.
<mgrwt>
<rscale>  0 0.13391048E+04</rscale>
<asrwt>0</asrwt>
<pdfrwt beam="1">  1        2 0.24919310E+00 0.13391048E+04</pdfrwt>
<pdfrwt beam="2">  1       -1 0.42580074E-01 0.13391048E+04</pdfrwt>
<totfact> 0.65713764E+01</totfact>
</mgrwt>
</event>
<event>
12    6  0.1540825E-007  0.2281753E+04  0.7818608E-02  0.8485151E-01
          2   -1    0    0  501    0  0.00000000000E+00  0.00000000000E+00  0.18118709547E+04  0.18118709547E+04  0.00000000000E+00 0. -1.
         -1   -1    0    0    0  501 -0.00000000000E+00 -0.00000000000E+00 -0.71837274804E+03  0.71837274804E+03  0.00000000000E+00 0.  1.
         24    2    1    2    0    0  0.18975941232E+03 -0.77179618906E+03 -0.12830441999E+03  0.80920466224E+03  0.81683347073E+02 0.  0.
        254    2    1    2    0    0 -0.18975941232E+03  0.77179618906E+03  0.12218026267E+04  0.17210390405E+04  0.91514792710E+03 0.  0.
         23    2    4    4    0    0 -0.31379776062E+03  0.87870629629E+03  0.70927875009E+03  0.11755995264E+04  0.91455516679E+02 0.  0.
         23    2    4    4    0    0  0.12403834830E+03 -0.10691010723E+03  0.51252387660E+03  0.54543951410E+03  0.89488862905E+02 0.  0.
          4    1    3    3  502    0  0.93976272632E+02 -0.24360682090E+03 -0.22496202538E+02  0.26207232234E+03  0.00000000000E+00 0. -1.
         -3    1    3    3    0  502  0.95783139691E+02 -0.52818936817E+03 -0.10580821745E+03  0.54713233991E+03  0.00000000000E+00 0.  1.
         11    1    5    5    0    0  0.15721928715E+01  0.60119772860E+02  0.50791118069E+02  0.78718463869E+02  0.00000000000E+00 0.  1.
        -11    1    5    5    0    0 -0.31536995349E+03  0.81858652343E+03  0.65848763202E+03  0.10968810626E+04  0.00000000000E+00 0. -1.
          4    1    6    6  503    0  0.13700558115E+03 -0.90377665951E+02  0.42933160497E+03  0.45963494079E+03  0.00000000000E+00 0. -1.
         -4    1    6    6    0  503 -0.12967232853E+02 -0.16532441275E+02  0.83192271628E+02  0.85804573310E+02  0.00000000000E+00 0.  1.
<mgrwt>
<rscale>  0 0.22817526E+04</rscale>
<asrwt>0</asrwt>
<pdfrwt beam="1">  1        2 0.27874938E+00 0.22817526E+04</pdfrwt>
<pdfrwt beam="2">  1       -1 0.11051888E+00 0.22817526E+04</pdfrwt>
<totfact> 0.66299765E+00</totfact>
</mgrwt>
</event>
<event>
12    6  0.1540825E-007  0.1911161E+04  0.7818608E-02  0.8649320E-01
          2   -1    0    0  501    0  0.00000000000E+00  0.00000000000E+00  0.19820601859E+04  0.19820601859E+04  0.00000000000E+00 0. -1.
         -3   -1    0    0    0  501 -0.00000000000E+00 -0.00000000000E+00 -0.46069967843E+03  0.46069967843E+03  0.00000000000E+00 0.  1.
         24    2    1    2    0    0  0.44481503861E+03  0.41992714530E+03  0.11212924517E+04  0.12798400666E+04  0.80589130304E+02 0.  0.
        254    2    1    2    0    0 -0.44481503861E+03 -0.41992714530E+03  0.40006805575E+03  0.11629197977E+04  0.90450471571E+03 0.  0.
         23    2    4    4    0    0 -0.25841372592E+03  0.59137289728E+02  0.55192918262E+03  0.61909809718E+03  0.91551944439E+02 0.  0.
         23    2    4    4    0    0 -0.18640131268E+03 -0.47906443503E+03 -0.15186112687E+03  0.54382170052E+03  0.91826237146E+02 0.  0.
          4    1    3    3  502    0  0.44669240222E+03  0.41181832725E+03  0.11133452438E+04  0.12683320026E+04  0.00000000000E+00 0. -1.
         -3    1    3    3    0  502 -0.18773636144E+01  0.81088180509E+01  0.79472078834E+01  0.11508064019E+02  0.00000000000E+00 0.  1.
         11    1    5    5    0    0 -0.25379790570E+03  0.39792025251E+02  0.53281456230E+03  0.59151343181E+03  0.00000000000E+00 0.  1.
        -11    1    5    5    0    0 -0.46158202228E+01  0.19345264477E+02  0.19114620319E+02  0.27584665377E+02  0.00000000000E+00 0. -1.
          2    1    6    6  503    0 -0.18337654543E+02 -0.61374433225E+02  0.11087699517E+02  0.65007904969E+02  0.00000000000E+00 0. -1.
         -2    1    6    6    0  503 -0.16806365814E+03 -0.41769000180E+03 -0.16294882638E+03  0.47881379556E+03  0.00000000000E+00 0.  1.
<mgrwt>
<rscale>  0 0.19111614E+04</rscale>
<asrwt>0</asrwt>
<pdfrwt beam="1">  1        2 0.30493233E+00 0.19111614E+04</pdfrwt>
<pdfrwt beam="2">  1       -3 0.70876875E-01 0.19111614E+04</pdfrwt>
<totfact> 0.77760773E+00</totfact>
</mgrwt>
</event>
<event>
12    6  0.1540825E-007  0.2630242E+04  0.7818608E-02  0.8358001E-01
         -1   -1    0    0    0  501 -0.00000000000E+00  0.00000000000E+00  0.10163183773E+04  0.10163183773E+04  0.00000000000E+00 0.  1.
          2   -1    0    0  501    0  0.00000000000E+00 -0.00000000000E+00 -0.17017726618E+04  0.17017726618E+04  0.00000000000E+00 0. -1.
         24    2    1    2    0    0  0.21770086766E+03 -0.11206313778E+04 -0.50220907122E+03  0.12502968631E+04  0.88430435560E+02 0.  0.
        254    2    1    2    0    0 -0.21770086766E+03  0.11206313778E+04 -0.18324521329E+03  0.14677941760E+04  0.90423038113E+03 0.  0.
         23    2    4    4    0    0  0.27573092541E+03  0.18242937551E+03 -0.21091605359E+03  0.40302953704E+03  0.92947328030E+02 0.  0.
         23    2    4    4    0    0 -0.49343179308E+03  0.93820200230E+03  0.27670840297E+02  0.10647646389E+04  0.96229566203E+02 0.  0.
          2    1    3    3  502    0  0.52450608481E+02 -0.30379071251E+03 -0.17860407604E+03  0.35628539026E+03  0.00000000000E+00 0. -1.
         -1    1    3    3    0  502  0.16525025918E+03 -0.81684066530E+03 -0.32360499519E+03  0.89401147283E+03  0.00000000000E+00 0.  1.
         11    1    5    5    0    0  0.10034244006E+03  0.66372464175E+02 -0.13148443499E+03  0.17821915139E+03  0.00000000000E+00 0.  1.
        -11    1    5    5    0    0  0.17538848535E+03  0.11605691134E+03 -0.79431618599E+02  0.22481038565E+03  0.00000000000E+00 0. -1.
          2    1    6    6  503    0 -0.38748563194E+03  0.66549941478E+03 -0.73005551207E+01  0.77012199303E+03  0.00000000000E+00 0. -1.
         -2    1    6    6    0  503 -0.10594616113E+03  0.27270258752E+03  0.34971395418E+02  0.29464264592E+03  0.00000000000E+00 0.  1.
<mgrwt>
<rscale>  0 0.26302417E+04</rscale>
<asrwt>0</asrwt>
<pdfrwt beam="1">  1        2 0.26181118E+00 0.26302417E+04</pdfrwt>
<pdfrwt beam="2">  1       -1 0.15635667E+00 0.26302417E+04</pdfrwt>
<totfact> 0.30622167E+00</totfact>
</mgrwt>
</event>
<event>
12    6  0.1540825E-007  0.1986205E+04  0.7818608E-02  0.8613097E-01
         -1   -1    0    0    0  501 -0.00000000000E+00  0.00000000000E+00  0.26130669780E+03  0.26130669780E+03  0.00000000000E+00 0.  1.
          2   -1    0    0  501    0  0.00000000000E+00 -0.00000000000E+00 -0.37743113797E+04  0.37743113797E+04  0.00000000000E+00 0. -1.
         24    2    1    2    0    0 -0.43369825522E+03  0.10643148438E+03 -0.27123202472E+04  0.27502378828E+04  0.87780700514E+02 0.  0.
        254    2    1    2    0    0  0.43369825522E+03 -0.10643148438E+03 -0.80068443474E+03  0.12853801947E+04  0.90093553790E+03 0.  0.
         23    2    4    4    0    0  0.32207560181E+03  0.31845855546E+03 -0.67790493783E+03  0.82043279813E+03  0.91686022390E+02 0.  0.
         23    2    4    4    0    0  0.11162265341E+03 -0.42489003984E+03 -0.12277949692E+03  0.46494739657E+03  0.90056171383E+02 0.  0.
          4    1    3    3  502    0 -0.17726043177E+03  0.32214208695E+02 -0.13538369069E+04  0.13657720843E+04  0.00000000000E+00 0. -1.
         -3    1    3    3    0  502 -0.25643782344E+03  0.74217275690E+02 -0.13584833403E+04  0.13844657985E+04  0.00000000000E+00 0.  1.
         11    1    5    5    0    0  0.11712089912E+03  0.10485391480E+03 -0.31546604335E+03  0.35246343494E+03  0.00000000000E+00 0. -1.
        -11    1    5    5    0    0  0.20495470268E+03  0.21360464065E+03 -0.36243889447E+03  0.46796936319E+03  0.00000000000E+00 0.  1.
          1    1    6    6  503    0  0.22329438036E+02 -0.16002670396E+02 -0.20021504228E+02  0.33993380154E+02  0.00000000000E+00 0. -1.
         -1    1    6    6    0  503  0.89293215376E+02 -0.40888736945E+03 -0.10275799269E+03  0.43095401642E+03  0.00000000000E+00 0.  1.
<mgrwt>
<rscale>  0 0.19862053E+04</rscale>
<asrwt>0</asrwt>
<pdfrwt beam="1">  1        2 0.58066333E+00 0.19862053E+04</pdfrwt>
<pdfrwt beam="2">  1       -1 0.40201028E-01 0.19862053E+04</pdfrwt>
<totfact> 0.33091769E+00</totfact>
</mgrwt>
</event>
<event>
12    6  0.1540825E-007  0.1310022E+04  0.7818608E-02  0.9021655E-01
          2   -1    0    0  501    0  0.00000000000E+00  0.00000000000E+00  0.25661553940E+04  0.25661553940E+04  0.00000000000E+00 0. -1.
         -1   -1    0    0    0  501 -0.00000000000E+00 -0.00000000000E+00 -0.16719154912E+03  0.16719154912E+03  0.00000000000E+00 0.  1.
         24    2    1    2    0    0  0.11875161829E+03  0.19424996731E+03  0.11482541383E+04  0.11720386330E+04  0.57896412142E+02 0.  0.
        254    2    1    2    0    0 -0.11875161829E+03 -0.19424996731E+03  0.12507097067E+04  0.15613083102E+04  0.90640712289E+03 0.  0.
         23    2    4    4    0    0  0.32825866805E+02 -0.51383858923E+03  0.48677382659E+03  0.71445191068E+03  0.91570416132E+02 0.  0.
         23    2    4    4    0    0 -0.15157748510E+03  0.31958862192E+03  0.76393588006E+03  0.84685639948E+03  0.91951678900E+02 0.  0.
          2    1    3    3  502    0  0.10469889233E+03  0.17910024516E+03  0.11022998854E+04  0.11216522604E+04  0.00000000000E+00 0. -1.
         -1    1    3    3    0  502  0.14052725965E+02  0.15149722152E+02  0.45954252854E+02  0.50386372599E+02  0.00000000000E+00 0.  1.
         11    1    5    5    0    0 -0.73337266649E+00 -0.15259921841E+03  0.91526898220E+02  0.17794446435E+03  0.00000000000E+00 0. -1.
        -11    1    5    5    0    0  0.33559239472E+02 -0.36123937082E+03  0.39524692837E+03  0.53650744633E+03  0.00000000000E+00 0.  1.
          4    1    6    6  503    0 -0.16836125885E+02  0.13276563450E+03  0.31582986483E+03  0.34301409936E+03  0.00000000000E+00 0. -1.
         -4    1    6    6    0  503 -0.13474135921E+03  0.18682298742E+03  0.44810601523E+03  0.50384230013E+03  0.00000000000E+00 0.  1.
<mgrwt>
<rscale>  0 0.13100221E+04</rscale>
<asrwt>0</asrwt>
<pdfrwt beam="1">  1        2 0.39479311E+00 0.13100221E+04</pdfrwt>
<pdfrwt beam="2">  1       -1 0.25721779E-01 0.13100221E+04</pdfrwt>
<totfact> 0.47653569E+01</totfact>
</mgrwt>
</event>
<event>
12    6  0.1540825E-007  0.1828240E+04  0.7818608E-02  0.8691424E-01
         -1   -1    0    0    0  501 -0.00000000000E+00  0.00000000000E+00  0.24866541940E+04  0.24866541940E+04  0.00000000000E+00 0.  1.
          2   -1    0    0  501    0  0.00000000000E+00 -0.00000000000E+00 -0.33604016359E+03  0.33604016359E+03  0.00000000000E+00 0. -1.
         24    2    1    2    0    0 -0.52614238206E+03 -0.27937863115E+03  0.13419137302E+04  0.14703541756E+04  0.79565799860E+02 0.  0.
        254    2    1    2    0    0  0.52614238206E+03  0.27937863115E+03  0.80870030016E+03  0.13523401820E+04  0.90551066622E+03 0.  0.
         23    2    4    4    0    0  0.52990419855E+03 -0.13666635805E+03  0.16164372969E+03  0.57775587651E+03  0.90537309637E+02 0.  0.
         23    2    4    4    0    0 -0.37618164887E+01  0.41604498919E+03  0.64705657047E+03  0.77458430549E+03  0.90504456390E+02 0.  0.
          2    1    3    3  502    0 -0.48232210270E+03 -0.27031324283E+03  0.12765031938E+04  0.13911018164E+04  0.00000000000E+00 0. -1.
         -1    1    3    3    0  502 -0.43820279355E+02 -0.90653883174E+01  0.65410536479E+02  0.79252359148E+02  0.00000000000E+00 0.  1.
         11    1    5    5    0    0  0.69832475483E+02  0.12618536710E+02  0.18560047002E+02  0.73350374542E+02  0.00000000000E+00 0. -1.
        -11    1    5    5    0    0  0.46007172306E+03 -0.14928489476E+03  0.14308368268E+03  0.50440550197E+03  0.00000000000E+00 0.  1.
          3    1    6    6  503    0  0.81874801906E+01  0.33447320531E+01  0.26044964263E+01  0.92198408887E+01  0.00000000000E+00 0. -1.
         -3    1    6    6    0  503 -0.11949296679E+02  0.41270025714E+03  0.64445207405E+03  0.76536446460E+03  0.00000000000E+00 0.  1.
<mgrwt>
<rscale>  0 0.18282403E+04</rscale>
<asrwt>0</asrwt>
<pdfrwt beam="1">  1        2 0.51698488E-01 0.18282403E+04</pdfrwt>
<pdfrwt beam="2">  1       -1 0.38256217E+00 0.18282403E+04</pdfrwt>
<totfact> 0.98244758E-01</totfact>
</mgrwt>
</event>
<event>
12    6  0.1540825E-007  0.1596814E+04  0.7818608E-02  0.8822508E-01
         -1   -1    0    0    0  501 -0.00000000000E+00  0.00000000000E+00  0.10935089507E+04  0.10935089507E+04  0.00000000000E+00 0.  1.
          2   -1    0    0  501    0  0.00000000000E+00 -0.00000000000E+00 -0.58294308157E+03  0.58294308157E+03  0.00000000000E+00 0. -1.
         24    2    1    2    0    0  0.39358526008E+03  0.32277149429E+03  0.40470766835E+03  0.65563842143E+03  0.83562242478E+02 0.  0.
        254    2    1    2    0    0 -0.39358526008E+03 -0.32277149429E+03  0.10585820083E+03  0.10208136109E+04  0.87850081104E+03 0.  0.
         23    2    4    4    0    0 -0.28459892550E+03  0.15157526746E+03  0.33526051768E+03  0.47515525883E+03  0.96960276250E+02 0.  0.
         23    2    4    4    0    0 -0.10898633458E+03 -0.47434676175E+03 -0.22940231685E+03  0.54565835205E+03  0.90745482998E+02 0.  0.
          2    1    3    3  502    0  0.32273083307E+03  0.26674700944E+03  0.28857152661E+03  0.50851025912E+03  0.00000000000E+00 0. -1.
         -1    1    3    3    0  502  0.70854427008E+02  0.56024484850E+02  0.11613614174E+03  0.14712816232E+03  0.00000000000E+00 0.  1.
         11    1    5    5    0    0 -0.11582586262E+02  0.40118505709E+02  0.44616978933E+02  0.61109128728E+02  0.00000000000E+00 0. -1.
        -11    1    5    5    0    0 -0.27301633924E+03  0.11145676175E+03  0.29064353875E+03  0.41404613010E+03  0.00000000000E+00 0.  1.
          3    1    6    6  503    0  0.13387424914E+02 -0.32613601706E+02 -0.60622576400E+01  0.35771792376E+02  0.00000000000E+00 0. -1.
         -3    1    6    6    0  503 -0.12237375949E+03 -0.44173316004E+03 -0.22334005921E+03  0.50988655968E+03  0.00000000000E+00 0.  1.
<mgrwt>
<rscale>  0 0.15968137E+04</rscale>
<asrwt>0</asrwt>
<pdfrwt beam="1">  1        2 0.89683551E-01 0.15968137E+04</pdfrwt>
<pdfrwt beam="2">  1       -1 0.16823215E+00 0.15968137E+04</pdfrwt>
<totfact> 0.14270670E+01</totfact>
</mgrwt>
</event>
<event>
12    6  0.1540825E-007  0.3080824E+04  0.7818608E-02  0.8221020E-01
         -1   -1    0    0    0  501 -0.00000000000E+00  0.00000000000E+00  0.11089943565E+04  0.11089943565E+04  0.00000000000E+00 0.  1.
          2   -1    0    0  501    0  0.00000000000E+00 -0.00000000000E+00 -0.21396581710E+04  0.21396581710E+04  0.00000000000E+00 0. -1.
         24    2    1    2    0    0 -0.13130486971E+03  0.13652884820E+04 -0.14789229458E+03  0.13818668332E+04  0.80188566788E+02 0.  0.
        254    2    1    2    0    0  0.13130486971E+03 -0.13652884820E+04 -0.88277151989E+03  0.18667856943E+04  0.90793703756E+03 0.  0.
         23    2    4    4    0    0 -0.17169831248E+03 -0.58432956205E+03  0.39907079920E+02  0.61710432130E+03  0.91125302419E+02 0.  0.
         23    2    4    4    0    0  0.30300318219E+03 -0.78095891991E+03 -0.92267859981E+03  0.12496813730E+04  0.93058972592E+02 0.  0.
          2    1    3    3  502    0 -0.57777506278E+01  0.41106077989E+03 -0.59162673940E+02  0.41533669373E+03  0.00000000000E+00 0. -1.
         -1    1    3    3    0  502 -0.12552711908E+03  0.95422770207E+03 -0.88729620640E+02  0.96653013952E+03  0.00000000000E+00 0.  1.
         11    1    5    5    0    0 -0.17432883764E+03 -0.57282321804E+03  0.50968275132E+02  0.60092823850E+03  0.00000000000E+00 0. -1.
        -11    1    5    5    0    0  0.26305251552E+01 -0.11506344006E+02 -0.11061195213E+02  0.16176082792E+02  0.00000000000E+00 0.  1.
          3    1    6    6  503    0  0.10604058041E+03 -0.34160091437E+03 -0.45144296132E+03  0.57596574266E+03  0.00000000000E+00 0.  1.
         -3    1    6    6    0  503  0.19696260177E+03 -0.43935800554E+03 -0.47123563849E+03  0.67371563030E+03  0.00000000000E+00 0. -1.
<mgrwt>
<rscale>  0 0.30808238E+04</rscale>
<asrwt>0</asrwt>
<pdfrwt beam="1">  1        2 0.32917818E+00 0.30808238E+04</pdfrwt>
<pdfrwt beam="2">  1       -1 0.17061452E+00 0.30808238E+04</pdfrwt>
<totfact> 0.13146717E+00</totfact>
</mgrwt>
</event>
<event>
12    6  0.1540825E-007  0.1647429E+04  0.7818608E-02  0.8791929E-01
         -3   -1    0    0    0  501 -0.00000000000E+00  0.00000000000E+00  0.16179620158E+04  0.16179620158E+04  0.00000000000E+00 0.  1.
          4   -1    0    0  501    0  0.00000000000E+00 -0.00000000000E+00 -0.41935795698E+03  0.41935795698E+03  0.00000000000E+00 0. -1.
         24    2    1    2    0    0  0.29575798057E+03 -0.40340600728E+03  0.77108380260E+03  0.92251137460E+03  0.79043126549E+02 0.  0.
        254    2    1    2    0    0 -0.29575798057E+03  0.40340600728E+03  0.42752025626E+03  0.11148085982E+04  0.89989746715E+03 0.  0.
         23    2    4    4    0    0  0.17791882274E+03  0.13359607928E+03 -0.17431698920E+03  0.29762535179E+03  0.93227771735E+02 0.  0.
         23    2    4    4    0    0 -0.47367680331E+03  0.26980992800E+03  0.60183724547E+03  0.81718324643E+03  0.91723917122E+02 0.  0.
          4    1    3    3  502    0  0.15147905213E+03 -0.18639761046E+03  0.43874039740E+03  0.50018307521E+03  0.00000000000E+00 0. -1.
         -1    1    3    3    0  502  0.14427892845E+03 -0.21700839682E+03  0.33234340520E+03  0.42232829939E+03  0.00000000000E+00 0.  1.
         11    1    5    5    0    0  0.43057353410E+02  0.56728498323E+02 -0.10675446640E+03  0.12832994312E+03  0.00000000000E+00 0.  1.
        -11    1    5    5    0    0  0.13486146933E+03  0.76867580955E+02 -0.67562522806E+02  0.16929540868E+03  0.00000000000E+00 0. -1.
          2    1    6    6  503    0 -0.13766492034E+02  0.11573628723E+02  0.53064496570E+02  0.56029509912E+02  0.00000000000E+00 0. -1.
         -2    1    6    6    0  503 -0.45991031128E+03  0.25823629928E+03  0.54877274890E+03  0.76115373652E+03  0.00000000000E+00 0.  1.
<mgrwt>
<rscale>  0 0.16474286E+04</rscale>
<asrwt>0</asrwt>
<pdfrwt beam="1">  1        4 0.64516609E-01 0.16474286E+04</pdfrwt>
<pdfrwt beam="2">  1       -3 0.24891723E+00 0.16474286E+04</pdfrwt>
<totfact> 0.36419708E-01</totfact>
</mgrwt>
</event>
<event>
12    6  0.1540825E-007  0.2375043E+04  0.7818608E-02  0.8448907E-01
         -1   -1    0    0    0  501 -0.00000000000E+00  0.00000000000E+00  0.16633768633E+04  0.16633768633E+04  0.00000000000E+00 0.  1.
          2   -1    0    0  501    0  0.00000000000E+00 -0.00000000000E+00 -0.84779796810E+03  0.84779796810E+03  0.00000000000E+00 0. -1.
         24    2    1    2    0    0  0.19476530708E+03 -0.63860857683E+03  0.11544099252E+04  0.13360299888E+04  0.80990222931E+02 0.  0.
        254    2    1    2    0    0 -0.19476530708E+03  0.63860857683E+03 -0.33883103001E+03  0.11751448426E+04  0.90576183131E+03 0.  0.
         23    2    4    4    0    0 -0.11306199672E+02 -0.12502279605E+03 -0.35195403613E+03  0.38472163335E+03  0.91545409157E+02 0.  0.
         23    2    4    4    0    0 -0.18345910741E+03  0.76363137288E+03  0.13123006116E+02  0.79042320929E+03  0.88354506169E+02 0.  0.
          4    1    3    3  502    0  0.97529572757E+02 -0.19447596799E+03  0.39338586726E+03  0.44953905309E+03  0.00000000000E+00 0. -1.
         -3    1    3    3    0  502  0.97235734323E+02 -0.44413260883E+03  0.76102405795E+03  0.88649093567E+03  0.00000000000E+00 0.  1.
         11    1    5    5    0    0  0.59191081727E+01 -0.35832851639E+02 -0.21933359761E+02  0.42427601494E+02  0.00000000000E+00 0.  1.
        -11    1    5    5    0    0 -0.17225307844E+02 -0.89189944412E+02 -0.33002067637E+03  0.34229403186E+03  0.00000000000E+00 0. -1.
          2    1    6    6  503    0 -0.16558562068E+03  0.51980246228E+03 -0.86842098912E+00  0.54554005510E+03  0.00000000000E+00 0. -1.
         -2    1    6    6    0  503 -0.17873486727E+02  0.24382891060E+03  0.13991427106E+02  0.24488315419E+03  0.00000000000E+00 0.  1.
<mgrwt>
<rscale>  0 0.23750432E+04</rscale>
<asrwt>0</asrwt>
<pdfrwt beam="1">  1        2 0.13043046E+00 0.23750432E+04</pdfrwt>
<pdfrwt beam="2">  1       -1 0.25590413E+00 0.23750432E+04</pdfrwt>
<totfact> 0.20884843E+00</totfact>
</mgrwt>
</event>
<event>
12    6  0.1540825E-007  0.1654556E+04  0.7818608E-02  0.8787716E-01
          2   -1    0    0  501    0  0.00000000000E+00  0.00000000000E+00  0.10348481750E+04  0.10348481750E+04  0.00000000000E+00 0. -1.
         -1   -1    0    0    0  501 -0.00000000000E+00 -0.00000000000E+00 -0.66134208823E+03  0.66134208823E+03  0.00000000000E+00 0.  1.
         24    2    1    2    0    0 -0.43466641086E+03 -0.37860266022E+03  0.17230213177E+03  0.60682537455E+03  0.79209516661E+02 0.  0.
        254    2    1    2    0    0  0.43466641086E+03  0.37860266022E+03  0.20120395503E+03  0.10893648887E+04  0.90219619053E+03 0.  0.
         23    2    4    4    0    0  0.68300769605E+03  0.12001565155E+03  0.10764783918E+03  0.70758865366E+03  0.90500696283E+02 0.  0.
         23    2    4    4    0    0 -0.24834128519E+03  0.25858700867E+03  0.93556115846E+02  0.38177623506E+03  0.91976691946E+02 0.  0.
          2    1    3    3  502    0 -0.11746180429E+03 -0.89642472059E+02  0.10106878330E+02  0.14810535863E+03  0.00000000000E+00 0. -1.
         -1    1    3    3    0  502 -0.31720460657E+03 -0.28896018816E+03  0.16219525344E+03  0.45872001592E+03  0.00000000000E+00 0.  1.
         11    1    5    5    0    0  0.59878200915E+02  0.12514783103E+02  0.36575532541E+02  0.71272633750E+02  0.00000000000E+00 0. -1.
        -11    1    5    5    0    0  0.62312949513E+03  0.10750086845E+03  0.71072306644E+02  0.63631601991E+03  0.00000000000E+00 0.  1.
          4    1    6    6  503    0 -0.44583739212E+02  0.10573621969E+03  0.18510782072E+02  0.11623470657E+03  0.00000000000E+00 0. -1.
         -4    1    6    6    0  503 -0.20375754598E+03  0.15285078897E+03  0.75045333774E+02  0.26554152849E+03  0.00000000000E+00 0.  1.
<mgrwt>
<rscale>  0 0.16545557E+04</rscale>
<asrwt>0</asrwt>
<pdfrwt beam="1">  1        2 0.15920741E+00 0.16545557E+04</pdfrwt>
<pdfrwt beam="2">  1       -1 0.10174494E+00 0.16545557E+04</pdfrwt>
<totfact> 0.23881499E+01</totfact>
</mgrwt>
</event>
<event>
12    6  0.1540825E-007  0.1756487E+04  0.7818608E-02  0.8729787E-01
         -1   -1    0    0    0  501 -0.00000000000E+00  0.00000000000E+00  0.29509951594E+03  0.29509951594E+03  0.00000000000E+00 0.  1.
          2   -1    0    0  501    0  0.00000000000E+00 -0.00000000000E+00 -0.26137353655E+04  0.26137353655E+04  0.00000000000E+00 0. -1.
         24    2    1    2    0    0 -0.58229502286E+03  0.94558240611E+02 -0.42690202765E+03  0.73147656275E+03  0.69309928089E+02 0.  0.
        254    2    1    2    0    0  0.58229502286E+03 -0.94558240611E+02 -0.18917338219E+04  0.21773583187E+04  0.90234341606E+03 0.  0.
         23    2    4    4    0    0  0.10322172071E+03  0.16910422555E+03 -0.12696328546E+02  0.21819211185E+03  0.90529764108E+02 0.  0.
         23    2    4    4    0    0  0.47907330215E+03 -0.26366246616E+03 -0.18790374934E+04  0.19591662068E+04  0.92310344468E+02 0.  0.
          2    1    3    3  502    0 -0.50153552552E+03  0.93800646234E+02 -0.39230797704E+03  0.64361634025E+03  0.00000000000E+00 0. -1.
         -1    1    3    3    0  502 -0.80759497340E+02  0.75759437777E+00 -0.34594050601E+02  0.87860222495E+02  0.00000000000E+00 0.  1.
         11    1    5    5    0    0  0.72403955822E+02  0.35601238458E+02 -0.82827115756E+01  0.81107239563E+02  0.00000000000E+00 0.  1.
        -11    1    5    5    0    0  0.30817764888E+02  0.13350298709E+03 -0.44136169705E+01  0.13708487228E+03  0.00000000000E+00 0. -1.
          4    1    6    6  503    0  0.28185871697E+03 -0.20595619011E+03 -0.11841574868E+04  0.12345409034E+04  0.00000000000E+00 0.  1.
         -4    1    6    6    0  503  0.19721458518E+03 -0.57706276052E+02 -0.69488000652E+03  0.72462530342E+03  0.00000000000E+00 0. -1.
<mgrwt>
<rscale>  0 0.17564875E+04</rscale>
<asrwt>0</asrwt>
<pdfrwt beam="1">  1        2 0.40211316E+00 0.17564875E+04</pdfrwt>
<pdfrwt beam="2">  1       -1 0.45399922E-01 0.17564875E+04</pdfrwt>
<totfact> 0.15550048E+01</totfact>
</mgrwt>
</event>
<event>
12    6  0.1540825E-007  0.1515804E+04  0.7818608E-02  0.8874011E-01
          2   -1    0    0  501    0  0.00000000000E+00  0.00000000000E+00  0.23678663053E+04  0.23678663053E+04  0.00000000000E+00 0. -1.
         -1   -1    0    0    0  501 -0.00000000000E+00 -0.00000000000E+00 -0.24258768436E+03  0.24258768436E+03  0.00000000000E+00 0.  1.
         24    2    1    2    0    0  0.24586250947E+03 -0.19283934648E+03  0.13287894075E+04  0.13673182444E+04  0.79009522715E+02 0.  0.
        254    2    1    2    0    0 -0.24586250947E+03  0.19283934648E+03  0.79648921344E+03  0.12431357453E+04  0.90186253224E+03 0.  0.
         23    2    4    4    0    0 -0.15508350641E+03 -0.27260813498E+03  0.66760466459E+03  0.74334568845E+03  0.92199431359E+02 0.  0.
         23    2    4    4    0    0 -0.90779003055E+02  0.46544748146E+03  0.12888454885E+03  0.49979005687E+03  0.91086160403E+02 0.  0.
          2    1    3    3  502    0  0.12562253985E+03 -0.79205457516E+02  0.78482332722E+03  0.79875038777E+03  0.00000000000E+00 0. -1.
         -1    1    3    3    0  502  0.12023996961E+03 -0.11363388897E+03  0.54396608031E+03  0.56856785659E+03  0.00000000000E+00 0.  1.
         11    1    5    5    0    0 -0.41861000597E+02 -0.14729168465E+03  0.38192386136E+03  0.41147663313E+03  0.00000000000E+00 0. -1.
        -11    1    5    5    0    0 -0.11322250581E+03 -0.12531645033E+03  0.28568080324E+03  0.33186905533E+03  0.00000000000E+00 0.  1.
          2    1    6    6  503    0 -0.92670911517E+02  0.27541366460E+03  0.54197973015E+02  0.29559770765E+03  0.00000000000E+00 0. -1.
         -2    1    6    6    0  503  0.18919084623E+01  0.19003381687E+03  0.74686575832E+02  0.20419234922E+03  0.00000000000E+00 0.  1.
<mgrwt>
<rscale>  0 0.15158037E+04</rscale>
<asrwt>0</asrwt>
<pdfrwt beam="1">  1        2 0.36428711E+00 0.15158037E+04</pdfrwt>
<pdfrwt beam="2">  1       -1 0.37321184E-01 0.15158037E+04</pdfrwt>
<totfact> 0.31562552E+01</totfact>
</mgrwt>
</event>
<event>
12    6  0.1540825E-007  0.3228090E+04  0.7818608E-02  0.8181438E-01
          2   -1    0    0  501    0  0.00000000000E+00  0.00000000000E+00  0.23561372814E+04  0.23561372814E+04  0.00000000000E+00 0. -1.
         -1   -1    0    0    0  501 -0.00000000000E+00 -0.00000000000E+00 -0.11056833255E+04  0.11056833255E+04  0.00000000000E+00 0.  1.
         24    2    1    2    0    0  0.18721031591E+02 -0.94065373594E+03  0.18150686213E+04  0.20460097848E+04  0.80635051965E+02 0.  0.
        254    2    1    2    0    0 -0.18721031591E+02  0.94065373594E+03 -0.56461466541E+03  0.14158108221E+04  0.89473495271E+03 0.  0.
         23    2    4    4    0    0 -0.36489367539E+03  0.47831824995E+03 -0.86978570488E+01  0.60886515745E+03  0.93302650863E+02 0.  0.
         23    2    4    4    0    0  0.34617264380E+03  0.46233548598E+03 -0.55591680836E+03  0.80694566464E+03  0.92348291539E+02 0.  0.
          4    1    3    3  502    0  0.46369630872E+02 -0.68471706492E+03  0.13513329488E+04  0.15156148390E+04  0.00000000000E+00 0. -1.
         -3    1    3    3    0  502 -0.27648599281E+02 -0.25593667102E+03  0.46373567250E+03  0.53039494583E+03  0.00000000000E+00 0.  1.
         11    1    5    5    0    0 -0.19631216961E+03  0.32965579803E+03  0.45444418981E+01  0.38370830726E+03  0.00000000000E+00 0.  1.
        -11    1    5    5    0    0 -0.16858150578E+03  0.14866245193E+03 -0.13242298947E+02  0.22515685019E+03  0.00000000000E+00 0. -1.
          4    1    6    6  503    0  0.18420908767E+03  0.19087660087E+03 -0.20981397031E+03  0.33821408438E+03  0.00000000000E+00 0. -1.
         -4    1    6    6    0  503  0.16196355613E+03  0.27145888512E+03 -0.34610283805E+03  0.46873158026E+03  0.00000000000E+00 0.  1.
<mgrwt>
<rscale>  0 0.32280903E+04</rscale>
<asrwt>0</asrwt>
<pdfrwt beam="1">  1        2 0.36248266E+00 0.32280903E+04</pdfrwt>
<pdfrwt beam="2">  1       -1 0.17010513E+00 0.32280903E+04</pdfrwt>
<totfact> 0.98787045E-01</totfact>
</mgrwt>
</event>
<event>
12    6  0.1540825E-007  0.1205986E+04  0.7818608E-02  0.9107633E-01
         -1   -1    0    0    0  501 -0.00000000000E+00  0.00000000000E+00  0.82848319959E+03  0.82848319959E+03  0.00000000000E+00 0.  1.
          2   -1    0    0  501    0  0.00000000000E+00 -0.00000000000E+00 -0.43887514945E+03  0.43887514945E+03  0.00000000000E+00 0. -1.
         24    2    1    2    0    0  0.19326139472E+03 -0.75932006989E+02 -0.84775091597E+02  0.23791055089E+03  0.79366099163E+02 0.  0.
        254    2    1    2    0    0 -0.19326139472E+03  0.75932006989E+02  0.47438314173E+03  0.10294477981E+04  0.88972342196E+03 0.  0.
         23    2    4    4    0    0 -0.36757971626E+03  0.30217477315E+03  0.53597994254E+03  0.72259298671E+03  0.91878638983E+02 0.  0.
         23    2    4    4    0    0  0.17431832155E+03 -0.22624276616E+03 -0.61596800806E+02  0.30685481144E+03  0.93771226749E+02 0.  0.
          4    1    3    3  502    0  0.19898690767E+03 -0.64852803451E+02 -0.75995363105E+02  0.22265886633E+03  0.00000000000E+00 0. -1.
         -3    1    3    3    0  502 -0.57255129552E+01 -0.11079203538E+02 -0.87797284917E+01  0.15251684564E+02  0.00000000000E+00 0.  1.
         11    1    5    5    0    0 -0.14129856329E+03  0.13975028407E+03  0.28637763755E+03  0.34857936998E+03  0.00000000000E+00 0.  1.
        -11    1    5    5    0    0 -0.22628115298E+03  0.16242448908E+03  0.24960230498E+03  0.37401361673E+03  0.00000000000E+00 0. -1.
          3    1    6    6  503    0  0.73537736585E+02 -0.10796817788E+03  0.18668859133E+02  0.13196004106E+03  0.00000000000E+00 0. -1.
         -3    1    6    6    0  503  0.10078058496E+03 -0.11827458828E+03 -0.80265659939E+02  0.17489477037E+03  0.00000000000E+00 0.  1.
<mgrwt>
<rscale>  0 0.12059862E+04</rscale>
<asrwt>0</asrwt>
<pdfrwt beam="1">  1        2 0.67519254E-01 0.12059862E+04</pdfrwt>
<pdfrwt beam="2">  1       -1 0.12745895E+00 0.12059862E+04</pdfrwt>
<totfact> 0.43063668E+01</totfact>
</mgrwt>
</event>
<event>
12    6  0.1540825E-007  0.1673866E+04  0.7818608E-02  0.8776411E-01
         -1   -1    0    0    0  501 -0.00000000000E+00  0.00000000000E+00  0.27378810150E+03  0.27378810150E+03  0.00000000000E+00 0.  1.
          2   -1    0    0  501    0  0.00000000000E+00 -0.00000000000E+00 -0.25583915759E+04  0.25583915759E+04  0.00000000000E+00 0. -1.
         24    2    1    2    0    0  0.68418294358E+02  0.47228777076E+03 -0.13442740295E+04  0.14287078013E+04  0.79978206966E+02 0.  0.
        254    2    1    2    0    0 -0.68418294358E+02 -0.47228777076E+03 -0.94032944487E+03  0.14034718761E+04  0.92616253472E+03 0.  0.
         23    2    4    4    0    0 -0.18027016738E+03 -0.57709157170E+03 -0.10346648782E+04  0.12018055465E+04  0.90956836497E+02 0.  0.
         23    2    4    4    0    0  0.11185187302E+03  0.10480380094E+03  0.94335433311E+02  0.20166632959E+03  0.90969535139E+02 0.  0.
          4    1    3    3  502    0  0.65859010647E+02  0.47088321151E+03 -0.13441723072E+04  0.14257866599E+04  0.00000000000E+00 0. -1.
         -1    1    3    3    0  502  0.25592837106E+01  0.14045592472E+01 -0.10172239099E+00  0.29211414268E+01  0.00000000000E+00 0.  1.
         11    1    5    5    0    0  0.22621616726E+01 -0.90987127282E+01 -0.47076751603E+02  0.48001296755E+02  0.00000000000E+00 0. -1.
        -11    1    5    5    0    0 -0.18253232905E+03 -0.56799285897E+03 -0.98758812658E+03  0.11538042498E+04  0.00000000000E+00 0.  1.
          2    1    6    6  503    0  0.24316614381E+02  0.84605700767E+02  0.53233968671E+02  0.10287505897E+03  0.00000000000E+00 0. -1.
         -2    1    6    6    0  503  0.87535258642E+02  0.20198100173E+02  0.41101464640E+02  0.98791270625E+02  0.00000000000E+00 0.  1.
<mgrwt>
<rscale>  0 0.16738664E+04</rscale>
<asrwt>0</asrwt>
<pdfrwt beam="1">  1        2 0.39359869E+00 0.16738664E+04</pdfrwt>
<pdfrwt beam="2">  1       -1 0.42121248E-01 0.16738664E+04</pdfrwt>
<totfact> 0.19395852E+01</totfact>
</mgrwt>
</event>
<event>
12    6  0.1540825E-007  0.1974414E+04  0.7818608E-02  0.8618677E-01
          2   -1    0    0  501    0  0.00000000000E+00  0.00000000000E+00  0.66198118237E+03  0.66198118237E+03  0.00000000000E+00 0. -1.
         -1   -1    0    0    0  501 -0.00000000000E+00 -0.00000000000E+00 -0.14722128206E+04  0.14722128206E+04  0.00000000000E+00 0.  1.
         24    2    1    2    0    0 -0.57421991762E+03 -0.35264852665E+02 -0.88175333016E+03  0.10559487284E+04  0.81034918932E+02 0.  0.
        254    2    1    2    0    0  0.57421991762E+03  0.35264852665E+02  0.71521691934E+02  0.10782452746E+04  0.90913442138E+03 0.  0.
         23    2    4    4    0    0  0.51789517478E+03 -0.36351025962E+03  0.15435484460E+03  0.65758138266E+03  0.90734424904E+02 0.  0.
         23    2    4    4    0    0  0.56324742845E+02  0.39877511229E+03 -0.82833152662E+02  0.42066389193E+03  0.88897198816E+02 0.  0.
          4    1    3    3  502    0 -0.54245946734E+02 -0.27604625674E+02 -0.86965915477E+02  0.10614946326E+03  0.00000000000E+00 0. -1.
         -3    1    3    3    0  502 -0.51997397089E+03 -0.76602269901E+01 -0.79478741468E+03  0.94979926511E+03  0.00000000000E+00 0.  1.
         11    1    5    5    0    0  0.30911715898E+03 -0.16894318112E+03  0.62459632007E+02  0.35776587603E+03  0.00000000000E+00 0.  1.
        -11    1    5    5    0    0  0.20877801580E+03 -0.19456707851E+03  0.91895212588E+02  0.29981550663E+03  0.00000000000E+00 0. -1.
          1    1    6    6  503    0  0.57669754297E+02  0.17008799200E+03 -0.66045011740E+02  0.19135743821E+03  0.00000000000E+00 0. -1.
         -1    1    6    6    0  503 -0.13450114522E+01  0.22868712029E+03 -0.16788140921E+02  0.22930645372E+03  0.00000000000E+00 0.  1.
<mgrwt>
<rscale>  0 0.19744135E+04</rscale>
<asrwt>0</asrwt>
<pdfrwt beam="1">  1        2 0.10184326E+00 0.19744135E+04</pdfrwt>
<pdfrwt beam="2">  1       -1 0.22649428E+00 0.19744135E+04</pdfrwt>
<totfact> 0.46523918E+00</totfact>
</mgrwt>
</event>
<event>
12    6  0.1540825E-007  0.2186238E+04  0.7818608E-02  0.8524178E-01
         -1   -1    0    0    0  501 -0.00000000000E+00  0.00000000000E+00  0.65264025071E+03  0.65264025071E+03  0.00000000000E+00 0.  1.
          2   -1    0    0  501    0  0.00000000000E+00 -0.00000000000E+00 -0.18308840495E+04  0.18308840495E+04  0.00000000000E+00 0. -1.
         24    2    1    2    0    0 -0.36860384196E+03  0.41579010063E+03  0.31808468817E+03  0.64525623535E+03  0.80171942216E+02 0.  0.
        254    2    1    2    0    0  0.36860384196E+03 -0.41579010063E+03 -0.14963284870E+04  0.18382680649E+04  0.91185543666E+03 0.  0.
         23    2    4    4    0    0 -0.20529363769E+03 -0.10022027288E+03 -0.59726164132E+02  0.25671115730E+03  0.10071654693E+03 0.  0.
         23    2    4    4    0    0  0.57389747965E+03 -0.31556982775E+03 -0.14366023228E+04  0.15815569076E+04  0.92484510067E+02 0.  0.
          4    1    3    3  502    0 -0.86446057935E+02  0.14243498872E+03  0.11966771134E+03  0.20513655959E+03  0.00000000000E+00 0. -1.
         -3    1    3    3    0  502 -0.28215778402E+03  0.27335511191E+03  0.19841697683E+03  0.44011967575E+03  0.00000000000E+00 0.  1.
         11    1    5    5    0    0 -0.65952191762E+02 -0.31058494391E+02 -0.69662697369E+02  0.10083259928E+03  0.00000000000E+00 0.  1.
        -11    1    5    5    0    0 -0.13934144593E+03 -0.69161778492E+02  0.99365332378E+01  0.15587855802E+03  0.00000000000E+00 0. -1.
          3    1    6    6  503    0  0.51690010798E+03 -0.27105983758E+03 -0.13333239970E+04  0.14554765673E+04  0.00000000000E+00 0. -1.
         -3    1    6    6    0  503  0.56997371674E+02 -0.44509990163E+02 -0.10327832589E+03  0.12608034026E+03  0.00000000000E+00 0.  1.
<mgrwt>
<rscale>  0 0.21862375E+04</rscale>
<asrwt>0</asrwt>
<pdfrwt beam="1">  1        2 0.28167446E+00 0.21862375E+04</pdfrwt>
<pdfrwt beam="2">  1       -1 0.10040619E+00 0.21862375E+04</pdfrwt>
<totfact> 0.81600059E+00</totfact>
</mgrwt>
</event>
<event>
12    6  0.1540825E-007  0.1714200E+04  0.7818608E-02  0.8753307E-01
         -1   -1    0    0    0  501 -0.00000000000E+00  0.00000000000E+00  0.10271822395E+04  0.10271822395E+04  0.00000000000E+00 0.  1.
          2   -1    0    0  501    0  0.00000000000E+00 -0.00000000000E+00 -0.71518015104E+03  0.71518015104E+03  0.00000000000E+00 0. -1.
         24    2    1    2    0    0 -0.31572105909E+03 -0.44621424784E+03 -0.18167608293E+03  0.58144654218E+03  0.79290227501E+02 0.  0.
        254    2    1    2    0    0  0.31572105909E+03  0.44621424784E+03  0.49367817140E+03  0.11609158484E+04  0.89734080925E+03 0.  0.
         23    2    4    4    0    0 -0.20571777494E+03  0.43654436718E+03  0.37606043262E+03  0.61894429920E+03  0.93700635500E+02 0.  0.
         23    2    4    4    0    0  0.52143883403E+03  0.96698806619E+01  0.11761773878E+03  0.54197154916E+03  0.88922794599E+02 0.  0.
          2    1    3    3  502    0 -0.19537927664E+03 -0.32985267348E+03 -0.10614542682E+03  0.39779730966E+03  0.00000000000E+00 0. -1.
         -3    1    3    3    0  502 -0.12034178246E+03 -0.11636157436E+03 -0.75530656110E+02  0.18364923252E+03  0.00000000000E+00 0.  1.
         11    1    5    5    0    0 -0.29670320495E+02  0.14534570091E+03  0.83747215922E+02  0.17035051179E+03  0.00000000000E+00 0. -1.
        -11    1    5    5    0    0 -0.17604745444E+03  0.29119866627E+03  0.29231321670E+03  0.44859378742E+03  0.00000000000E+00 0.  1.
          2    1    6    6  503    0  0.62693706701E+02 -0.87980355476E+01  0.43740592790E+02  0.76948981455E+02  0.00000000000E+00 0. -1.
         -2    1    6    6    0  503  0.45874512733E+03  0.18467916210E+02  0.73877145989E+02  0.46502256771E+03  0.00000000000E+00 0.  1.
<mgrwt>
<rscale>  0 0.17141999E+04</rscale>
<asrwt>0</asrwt>
<pdfrwt beam="1">  1        2 0.11002772E+00 0.17141999E+04</pdfrwt>
<pdfrwt beam="2">  1       -1 0.15802804E+00 0.17141999E+04</pdfrwt>
<totfact> 0.13090650E+01</totfact>
</mgrwt>
</event>
<event>
12    6  0.1540825E-007  0.2493201E+04  0.7818608E-02  0.8405412E-01
          2   -1    0    0  501    0  0.00000000000E+00  0.00000000000E+00  0.86785610410E+03  0.86785610410E+03  0.00000000000E+00 0. -1.
         -1   -1    0    0    0  501 -0.00000000000E+00 -0.00000000000E+00 -0.17906345118E+04  0.17906345118E+04  0.00000000000E+00 0.  1.
         24    2    1    2    0    0  0.18778392126E+03  0.58732841298E+03 -0.13486069032E+04  0.14851556536E+04  0.82032130877E+02 0.  0.
        254    2    1    2    0    0 -0.18778392126E+03 -0.58732841298E+03  0.42582849546E+03  0.11733349623E+04  0.90286630258E+03 0.  0.
         23    2    4    4    0    0  0.92507120237E+02 -0.59133760125E+03 -0.56976960279E+02  0.60806875634E+03  0.90903863982E+02 0.  0.
         23    2    4    4    0    0 -0.28029104150E+03  0.40091882724E+01  0.48280545574E+03  0.56526620591E+03  0.88575583119E+02 0.  0.
          4    1    3    3  502    0  0.75887725963E+01  0.12011613097E+03 -0.23031953156E+03  0.25987027726E+03  0.00000000000E+00 0. -1.
         -3    1    3    3    0  502  0.18019514866E+03  0.46721228202E+03 -0.11182873716E+04  0.12252853764E+04  0.00000000000E+00 0.  1.
         11    1    5    5    0    0  0.57488321174E+02 -0.53952298810E+03 -0.45456723526E+02  0.54447798438E+03  0.00000000000E+00 0. -1.
        -11    1    5    5    0    0  0.35018799063E+02 -0.51814613152E+02 -0.11520236753E+02  0.63590771962E+02  0.00000000000E+00 0.  1.
          4    1    6    6  503    0 -0.75893987128E+02  0.39210135770E+02  0.11890149652E+03  0.14640661837E+03  0.00000000000E+00 0.  1.
         -4    1    6    6    0  503 -0.20439705437E+03 -0.35200947497E+02  0.36390395922E+03  0.41885958754E+03  0.00000000000E+00 0. -1.
<mgrwt>
<rscale>  0 0.24932012E+04</rscale>
<asrwt>0</asrwt>
<pdfrwt beam="1">  1        2 0.13351633E+00 0.24932012E+04</pdfrwt>
<pdfrwt beam="2">  1       -1 0.27548223E+00 0.24932012E+04</pdfrwt>
<totfact> 0.14944417E+00</totfact>
</mgrwt>
</event>
<event>
12    6  0.1540825E-007  0.1503877E+04  0.7818608E-02  0.8881879E-01
         -1   -1    0    0    0  501 -0.00000000000E+00  0.00000000000E+00  0.13704889008E+03  0.13704889008E+03  0.00000000000E+00 0.  1.
          2   -1    0    0  501    0  0.00000000000E+00 -0.00000000000E+00 -0.41256208750E+04  0.41256208750E+04  0.00000000000E+00 0. -1.
         24    2    1    2    0    0 -0.26597439812E+02  0.46870145649E+03 -0.10247369424E+04  0.11299103338E+04  0.78886514031E+02 0.  0.
        254    2    1    2    0    0  0.26597439812E+02 -0.46870145649E+03 -0.29638350425E+04  0.31327594313E+04  0.89970829503E+03 0.  0.
         23    2    4    4    0    0 -0.17624011411E+03 -0.13509653647E+03 -0.13042562897E+03  0.27114311652E+03  0.84829788138E+02 0.  0.
         23    2    4    4    0    0  0.20283755392E+03 -0.33360492002E+03 -0.28334094135E+04  0.28616163147E+04  0.90574347458E+02 0.  0.
          4    1    3    3  502    0 -0.33554406973E+02  0.24131349022E+03 -0.61043071518E+03  0.65725471228E+03  0.00000000000E+00 0. -1.
         -3    1    3    3    0  502  0.69569671613E+01  0.22738796627E+03 -0.41430622727E+03  0.47265562151E+03  0.00000000000E+00 0.  1.
         11    1    5    5    0    0 -0.12537971485E+03 -0.11948473989E+03 -0.13224189226E+03  0.21790960060E+03  0.00000000000E+00 0.  1.
        -11    1    5    5    0    0 -0.50860399257E+02 -0.15611796581E+02  0.18162632935E+01  0.53233515922E+02  0.00000000000E+00 0. -1.
          1    1    6    6  503    0  0.13269678944E+03 -0.28283341448E+03 -0.20996160973E+04  0.21227319506E+04  0.00000000000E+00 0. -1.
         -1    1    6    6    0  503  0.70140764486E+02 -0.50771505541E+02 -0.73379331619E+03  0.73888436409E+03  0.00000000000E+00 0.  1.
<mgrwt>
<rscale>  0 0.15038773E+04</rscale>
<asrwt>0</asrwt>
<pdfrwt beam="1">  1        2 0.63471083E+00 0.15038773E+04</pdfrwt>
<pdfrwt beam="2">  1       -1 0.21084447E-01 0.15038773E+04</pdfrwt>
<totfact> 0.56918840E+00</totfact>
</mgrwt>
</event>
<event>
12    6  0.1540825E-007  0.1278706E+04  0.7818608E-02  0.9046624E-01
          2   -1    0    0  501    0  0.00000000000E+00  0.00000000000E+00  0.10563020470E+04  0.10563020470E+04  0.00000000000E+00 0. -1.
         -1   -1    0    0    0  501 -0.00000000000E+00 -0.00000000000E+00 -0.38698411937E+03  0.38698411937E+03  0.00000000000E+00 0.  1.
         24    2    1    2    0    0 -0.20721096003E+03 -0.21589064492E+02  0.44196024374E+03  0.49524366750E+03  0.80839120996E+02 0.  0.
        254    2    1    2    0    0  0.20721096003E+03  0.21589064492E+02  0.22735768391E+03  0.94804249890E+03  0.89648792163E+03 0.  0.
         23    2    4    4    0    0 -0.33328454032E+03  0.10156208544E+03  0.36360407561E+02  0.36190023737E+03  0.90863967325E+02 0.  0.
         23    2    4    4    0    0  0.54049550035E+03 -0.79973020946E+02  0.19099727635E+03  0.58614226153E+03  0.92475516780E+02 0.  0.
          4    1    3    3  502    0 -0.63220951049E+02  0.11430018524E+02  0.21538924937E+03  0.22476668507E+03  0.00000000000E+00 0. -1.
         -3    1    3    3    0  502 -0.14399000898E+03 -0.33019083016E+02  0.22657099438E+03  0.27047698243E+03  0.00000000000E+00 0.  1.
         11    1    5    5    0    0 -0.74973130303E+02  0.43548268631E+02  0.43614747819E+02  0.97054975120E+02  0.00000000000E+00 0. -1.
        -11    1    5    5    0    0 -0.25831141002E+03  0.58013816807E+02 -0.72543402579E+01  0.26484526225E+03  0.00000000000E+00 0.  1.
          1    1    6    6  503    0  0.16545287753E+03 -0.18448065054E+02  0.14515155121E+02  0.16710977085E+03  0.00000000000E+00 0. -1.
         -1    1    6    6    0  503  0.37504262282E+03 -0.61524955892E+02  0.17648212123E+03  0.41903249068E+03  0.00000000000E+00 0.  1.
<mgrwt>
<rscale>  0 0.12787058E+04</rscale>
<asrwt>0</asrwt>
<pdfrwt beam="1">  1        2 0.16250801E+00 0.12787058E+04</pdfrwt>
<pdfrwt beam="2">  1       -1 0.59536019E-01 0.12787058E+04</pdfrwt>
<totfact> 0.74276356E+01</totfact>
</mgrwt>
</event>
<event>
12    6  0.1540825E-007  0.1165848E+04  0.7818608E-02  0.9143286E-01
         -1   -1    0    0    0  501 -0.00000000000E+00  0.00000000000E+00  0.18826030661E+03  0.18826030661E+03  0.00000000000E+00 0.  1.
          2   -1    0    0  501    0  0.00000000000E+00 -0.00000000000E+00 -0.18049506427E+04  0.18049506427E+04  0.00000000000E+00 0. -1.
         24    2    1    2    0    0  0.19270691179E+03  0.19016879546E+03 -0.43152333138E+03  0.51558618525E+03  0.79477067637E+02 0.  0.
        254    2    1    2    0    0 -0.19270691179E+03 -0.19016879546E+03 -0.11851670047E+04  0.14776247641E+04  0.83991308462E+03 0.  0.
         23    2    4    4    0    0  0.28681762232E+03 -0.21965782501E+03 -0.35765826119E+03  0.51642539757E+03  0.90894724223E+02 0.  0.
         23    2    4    4    0    0 -0.47952453411E+03  0.29489029547E+02 -0.82750874351E+03  0.96119936649E+03  0.91214691130E+02 0.  0.
          2    1    3    3  502    0  0.18844129729E+03  0.18888561762E+03 -0.43474464394E+03  0.51008901625E+03  0.00000000000E+00 0. -1.
         -1    1    3    3    0  502  0.42656144948E+01  0.12831778433E+01  0.32213125597E+01  0.54971689990E+01  0.00000000000E+00 0.  1.
         11    1    5    5    0    0  0.67895184512E+02 -0.17291287796E+02 -0.39557725109E+02  0.80458426093E+02  0.00000000000E+00 0. -1.
        -11    1    5    5    0    0  0.21892243781E+03 -0.20236653721E+03 -0.31810053609E+03  0.43596697148E+03  0.00000000000E+00 0.  1.
          1    1    6    6  503    0 -0.32898054467E+02  0.26222571535E+02 -0.62141863497E+02  0.75043430389E+02  0.00000000000E+00 0. -1.
         -1    1    6    6    0  503 -0.44662647964E+03  0.32664580118E+01 -0.76536688001E+03  0.88615593610E+03  0.00000000000E+00 0.  1.
<mgrwt>
<rscale>  0 0.11658483E+04</rscale>
<asrwt>0</asrwt>
<pdfrwt beam="1">  1        2 0.27768472E+00 0.11658483E+04</pdfrwt>
<pdfrwt beam="2">  1       -1 0.28963124E-01 0.11658483E+04</pdfrwt>
<totfact> 0.10487534E+02</totfact>
</mgrwt>
</event>
<event>
12    6  0.1540825E-007  0.1345816E+04  0.7818608E-02  0.8994002E-01
          2   -1    0    0  501    0  0.00000000000E+00  0.00000000000E+00  0.89076835664E+03  0.89076835664E+03  0.00000000000E+00 0. -1.
         -1   -1    0    0    0  501 -0.00000000000E+00 -0.00000000000E+00 -0.50833084398E+03  0.50833084398E+03  0.00000000000E+00 0.  1.
         24    2    1    2    0    0  0.26275947503E+03 -0.24473755288E+03  0.29861460108E+02  0.36877266773E+03  0.78501988237E+02 0.  0.
        254    2    1    2    0    0 -0.26275947503E+03  0.24473755288E+03  0.35257605255E+03  0.10303265329E+04  0.89906834002E+03 0.  0.
         23    2    4    4    0    0 -0.54237080542E+03  0.27609825005E+03  0.67346145442E+02  0.61887310649E+03  0.89844779367E+02 0.  0.
         23    2    4    4    0    0  0.27961133040E+03 -0.31360697168E+02  0.28522990711E+03  0.41145342639E+03  0.93658062991E+02 0.  0.
          2    1    3    3  502    0  0.48675580305E+02 -0.20466861102E+02  0.25633834750E+02  0.58696660939E+02  0.00000000000E+00 0. -1.
         -1    1    3    3    0  502  0.21408389472E+03 -0.22427069178E+03  0.42276253585E+01  0.31007600679E+03  0.00000000000E+00 0.  1.
         11    1    5    5    0    0 -0.49596196819E+03  0.22362769512E+03  0.47775764753E+02  0.54614113891E+03  0.00000000000E+00 0. -1.
        -11    1    5    5    0    0 -0.46408837234E+02  0.52470554928E+02  0.19570380689E+02  0.72731967581E+02  0.00000000000E+00 0.  1.
          2    1    6    6  503    0  0.15035107523E+03 -0.55073378139E+02  0.11872312583E+03  0.19933314679E+03  0.00000000000E+00 0. -1.
         -2    1    6    6    0  503  0.12926025517E+03  0.23712680971E+02  0.16650678128E+03  0.21212027960E+03  0.00000000000E+00 0.  1.
<mgrwt>
<rscale>  0 0.13458158E+04</rscale>
<asrwt>0</asrwt>
<pdfrwt beam="1">  1        2 0.13704129E+00 0.13458158E+04</pdfrwt>
<pdfrwt beam="2">  1       -1 0.78204745E-01 0.13458158E+04</pdfrwt>
<totfact> 0.54322207E+01</totfact>
</mgrwt>
</event>
<event>
12    6  0.1540825E-007  0.1518459E+04  0.7818608E-02  0.8872270E-01
          2   -1    0    0  501    0  0.00000000000E+00  0.00000000000E+00  0.18228660119E+04  0.18228660119E+04  0.00000000000E+00 0. -1.
         -1   -1    0    0    0  501 -0.00000000000E+00 -0.00000000000E+00 -0.31622144515E+03  0.31622144515E+03  0.00000000000E+00 0.  1.
         24    2    1    2    0    0  0.37262971967E+03  0.30565481677E+03  0.58027654807E+03  0.75846926214E+03  0.79227358747E+02 0.  0.
        254    2    1    2    0    0 -0.37262971967E+03 -0.30565481677E+03  0.92636801867E+03  0.13806181949E+04  0.90314512625E+03 0.  0.
         23    2    4    4    0    0 -0.57726915212E+03 -0.36092047313E+03  0.37652017233E+03  0.78361358481E+03  0.93699243380E+02 0.  0.
         23    2    4    4    0    0  0.20463943245E+03  0.55265656365E+02  0.54984784634E+03  0.59700461009E+03  0.95656992684E+02 0.  0.
          2    1    3    3  502    0  0.30195147231E+02  0.33739636962E+02  0.95086141776E+02  0.10531611641E+03  0.00000000000E+00 0. -1.
         -1    1    3    3    0  502  0.34243457244E+03  0.27191517981E+03  0.48519040630E+03  0.65315314573E+03  0.00000000000E+00 0.  1.
         11    1    5    5    0    0 -0.43803391950E+03 -0.31852337540E+03  0.30165739370E+03  0.61994196380E+03  0.00000000000E+00 0. -1.
        -11    1    5    5    0    0 -0.13923523263E+03 -0.42397097738E+02  0.74862778632E+02  0.16367162102E+03  0.00000000000E+00 0.  1.
          2    1    6    6  503    0  0.68448607364E+02  0.62529296010E+02  0.17366816690E+03  0.19686481886E+03  0.00000000000E+00 0.  1.
         -2    1    6    6    0  503  0.13619082509E+03 -0.72636396455E+01  0.37617967944E+03  0.40013979123E+03  0.00000000000E+00 0. -1.
<mgrwt>
<rscale>  0 0.15184589E+04</rscale>
<asrwt>0</asrwt>
<pdfrwt beam="1">  1        2 0.28044092E+00 0.15184589E+04</pdfrwt>
<pdfrwt beam="2">  1       -1 0.48649454E-01 0.15184589E+04</pdfrwt>
<totfact> 0.38949544E+01</totfact>
</mgrwt>
</event>
<event>
12    6  0.1540825E-007  0.2325369E+04  0.7818608E-02  0.8467985E-01
          2   -1    0    0  501    0  0.00000000000E+00  0.00000000000E+00  0.61585452343E+03  0.61585452343E+03  0.00000000000E+00 0. -1.
         -1   -1    0    0    0  501 -0.00000000000E+00 -0.00000000000E+00 -0.21950554211E+04  0.21950554211E+04  0.00000000000E+00 0.  1.
         24    2    1    2    0    0  0.16081853893E+03  0.59856915649E+02  0.50509024223E+03  0.53919315998E+03  0.78534439338E+02 0.  0.
        254    2    1    2    0    0 -0.16081853893E+03 -0.59856915649E+02 -0.20842911399E+04  0.22717167845E+04  0.88712013870E+03 0.  0.
         23    2    4    4    0    0 -0.11865886076E+03 -0.40994705880E+03 -0.58932118303E+03  0.73327573698E+03  0.90869870791E+02 0.  0.
         23    2    4    4    0    0 -0.42159678167E+02  0.35009014315E+03 -0.14949699568E+04  0.15384410475E+04  0.86747553829E+02 0.  0.
          4    1    3    3  502    0  0.15531236756E+03  0.29788760048E+02  0.42437315522E+03  0.45288174683E+03  0.00000000000E+00 0. -1.
         -3    1    3    3    0  502  0.55061713618E+01  0.30068155601E+02  0.80717087014E+02  0.86311413152E+02  0.00000000000E+00 0.  1.
         11    1    5    5    0    0 -0.46859892340E+00 -0.15748974165E+03 -0.20535337344E+03  0.25879189766E+03  0.00000000000E+00 0. -1.
        -11    1    5    5    0    0 -0.11819026184E+03 -0.25245731715E+03 -0.38396780959E+03  0.47448383932E+03  0.00000000000E+00 0.  1.
          1    1    6    6  503    0  0.64308711129E+01 -0.78514170367E+00 -0.10875093114E+02  0.12658601858E+02  0.00000000000E+00 0. -1.
         -1    1    6    6    0  503 -0.48590549280E+02  0.35087528485E+03 -0.14840948637E+04  0.15257824457E+04  0.00000000000E+00 0.  1.
<mgrwt>
<rscale>  0 0.23253686E+04</rscale>
<asrwt>0</asrwt>
<pdfrwt beam="1">  1        2 0.94746850E-01 0.23253686E+04</pdfrwt>
<pdfrwt beam="2">  1       -1 0.33770083E+00 0.23253686E+04</pdfrwt>
<totfact> 0.93005691E-01</totfact>
</mgrwt>
</event>
<event>
12    6  0.1540825E-007  0.1335747E+04  0.7818608E-02  0.9001688E-01
         -1   -1    0    0    0  501 -0.00000000000E+00  0.00000000000E+00  0.59428533171E+03  0.59428533171E+03  0.00000000000E+00 0.  1.
          2   -1    0    0  501    0  0.00000000000E+00 -0.00000000000E+00 -0.75057352929E+03  0.75057352929E+03  0.00000000000E+00 0. -1.
         24    2    1    2    0    0  0.16921280135E+03  0.30408010043E+03  0.34375685703E+02  0.35878468821E+03  0.80293742621E+02 0.  0.
        254    2    1    2    0    0 -0.16921280135E+03 -0.30408010043E+03 -0.19066388329E+03  0.98607417279E+03  0.90271361917E+03 0.  0.
         23    2    4    4    0    0  0.25595794698E+03  0.17657969653E+02 -0.32995447773E+03  0.42750102570E+03  0.89782487625E+02 0.  0.
         23    2    4    4    0    0 -0.42517074833E+03 -0.32173807009E+03  0.13929059444E+03  0.55857314710E+03  0.91195065573E+02 0.  0.
          2    1    3    3  502    0  0.55208171546E+02  0.66494362075E+02 -0.22256602474E+02  0.89245721168E+02  0.00000000000E+00 0. -1.
         -1    1    3    3    0  502  0.11400462980E+03  0.23758573836E+03  0.56632288177E+02  0.26953896704E+03  0.00000000000E+00 0.  1.
         11    1    5    5    0    0  0.67360462771E+02  0.21654545971E+02 -0.39131200848E+02  0.80855440051E+02  0.00000000000E+00 0. -1.
        -11    1    5    5    0    0  0.18859748421E+03 -0.39965763187E+01 -0.29082327688E+03  0.34664558565E+03  0.00000000000E+00 0.  1.
          2    1    6    6  503    0  0.20266783325E+00  0.47163173151E+01  0.10701592237E+01  0.48404508087E+01  0.00000000000E+00 0. -1.
         -2    1    6    6    0  503 -0.42537341616E+03 -0.32645438740E+03  0.13822043521E+03  0.55373269629E+03  0.00000000000E+00 0.  1.
<mgrwt>
<rscale>  0 0.13357467E+04</rscale>
<asrwt>0</asrwt>
<pdfrwt beam="1">  1        2 0.11547285E+00 0.13357467E+04</pdfrwt>
<pdfrwt beam="2">  1       -1 0.91428513E-01 0.13357467E+04</pdfrwt>
<totfact> 0.48817003E+01</totfact>
</mgrwt>
</event>
<event>
12    6  0.1540825E-007  0.1417178E+04  0.7818608E-02  0.8941477E-01
          4   -1    0    0  501    0  0.00000000000E+00  0.00000000000E+00  0.32951014990E+03  0.32951014990E+03  0.00000000000E+00 0. -1.
         -3   -1    0    0    0  501 -0.00000000000E+00 -0.00000000000E+00 -0.15237730033E+04  0.15237730033E+04  0.00000000000E+00 0.  1.
         24    2    1    2    0    0 -0.35429814727E+03  0.18653401893E+03 -0.52318304342E+03  0.66375963314E+03  0.80834623095E+02 0.  0.
        254    2    1    2    0    0  0.35429814727E+03 -0.18653401893E+03 -0.67107980998E+03  0.11895235201E+04  0.89682549922E+03 0.  0.
         23    2    4    4    0    0  0.10227115489E+03  0.10513341010E+03 -0.76370804451E+03  0.78304804201E+03  0.91661528509E+02 0.  0.
         23    2    4    4    0    0  0.25202699238E+03 -0.29166742903E+03  0.92628234529E+02  0.40647547805E+03  0.89748706855E+02 0.  0.
          4    1    3    3  502    0 -0.56034546403E+02  0.24782006464E+02 -0.13460471326E+03  0.14789336384E+03  0.00000000000E+00 0. -1.
         -3    1    3    3    0  502 -0.29826360087E+03  0.16175201246E+03 -0.38857833016E+03  0.51586626931E+03  0.00000000000E+00 0.  1.
         11    1    5    5    0    0  0.46064744080E+02  0.18089860711E+02 -0.10308756878E+03  0.11435143438E+03  0.00000000000E+00 0. -1.
        -11    1    5    5    0    0  0.56206410811E+02  0.87043549386E+02 -0.66062047573E+03  0.66869660763E+03  0.00000000000E+00 0.  1.
          3    1    6    6  503    0  0.89917165818E+02 -0.52572824770E+02  0.36887192317E+01  0.10422382291E+03  0.00000000000E+00 0. -1.
         -3    1    6    6    0  503  0.16210982656E+03 -0.23909460426E+03  0.88939515297E+02  0.30225165514E+03  0.00000000000E+00 0.  1.
<mgrwt>
<rscale>  0 0.14171784E+04</rscale>
<asrwt>0</asrwt>
<pdfrwt beam="1">  1        4 0.50693868E-01 0.14171784E+04</pdfrwt>
<pdfrwt beam="2">  1       -3 0.23442662E+00 0.14171784E+04</pdfrwt>
<totfact> 0.75453631E-01</totfact>
</mgrwt>
</event>
<event>
12    6  0.1540825E-007  0.1676974E+04  0.7818608E-02  0.8774607E-01
         -1   -1    0    0    0  501 -0.00000000000E+00  0.00000000000E+00  0.29274476158E+03  0.29274476158E+03  0.00000000000E+00 0.  1.
          2   -1    0    0  501    0  0.00000000000E+00 -0.00000000000E+00 -0.24016154689E+04  0.24016154689E+04  0.00000000000E+00 0. -1.
         24    2    1    2    0    0 -0.43223721471E+02  0.56795910149E+03 -0.49124756014E+03  0.75673757542E+03  0.82956383988E+02 0.  0.
        254    2    1    2    0    0  0.43223721471E+02 -0.56795910149E+03 -0.16176231472E+04  0.19376226551E+04  0.90179325570E+03 0.  0.
         23    2    4    4    0    0 -0.11682333726E+03 -0.39117462236E+03 -0.14550544329E+03  0.44354568580E+03  0.94316828057E+02 0.  0.
         23    2    4    4    0    0  0.16004705873E+03 -0.17678447913E+03 -0.14721177039E+04  0.14940769693E+04  0.90926579793E+02 0.  0.
          4    1    3    3  502    0 -0.50556807136E+02  0.53010039137E+03 -0.47909376024E+03  0.71630527485E+03  0.00000000000E+00 0. -1.
         -3    1    3    3    0  502  0.73330856649E+01  0.37858710118E+02 -0.12153799903E+02  0.40432300568E+02  0.00000000000E+00 0.  1.
         11    1    5    5    0    0 -0.37940941672E+02 -0.23986856944E+03 -0.49799021309E+02  0.24790398985E+03  0.00000000000E+00 0. -1.
        -11    1    5    5    0    0 -0.78882395589E+02 -0.15130605292E+03 -0.95706421986E+02  0.19564169594E+03  0.00000000000E+00 0.  1.
          1    1    6    6  503    0  0.38473311154E+02 -0.98020099404E+02 -0.77042794088E+03  0.77759073274E+03  0.00000000000E+00 0. -1.
         -1    1    6    6    0  503  0.12157374758E+03 -0.78764379728E+02 -0.70168976300E+03  0.71648623652E+03  0.00000000000E+00 0.  1.
<mgrwt>
<rscale>  0 0.16769739E+04</rscale>
<asrwt>0</asrwt>
<pdfrwt beam="1">  1        2 0.36947930E+00 0.16769739E+04</pdfrwt>
<pdfrwt beam="2">  1       -1 0.45037656E-01 0.16769739E+04</pdfrwt>
<totfact> 0.21084374E+01</totfact>
</mgrwt>
</event>
<event>
12    6  0.1540825E-007  0.1403310E+04  0.7818608E-02  0.8951426E-01
          2   -1    0    0  501    0  0.00000000000E+00  0.00000000000E+00  0.42169949211E+03  0.42169949211E+03  0.00000000000E+00 0. -1.
         -1   -1    0    0    0  501 -0.00000000000E+00 -0.00000000000E+00 -0.11674653867E+04  0.11674653867E+04  0.00000000000E+00 0.  1.
         24    2    1    2    0    0  0.20402749326E+03  0.10687197921E+03  0.15615759070E+03  0.29330176972E+03  0.92692486452E+02 0.  0.
        254    2    1    2    0    0 -0.20402749326E+03 -0.10687197921E+03 -0.90192348524E+03  0.12958631091E+04  0.90152447900E+03 0.  0.
         23    2    4    4    0    0  0.18756541011E+03  0.31852704667E+01  0.85463096560E+02  0.22392303410E+03  0.87445155992E+02 0.  0.
         23    2    4    4    0    0 -0.39159290337E+03 -0.11005724968E+03 -0.98738658180E+03  0.10719400750E+04  0.93089538651E+02 0.  0.
          4    1    3    3  502    0  0.18468356498E+03  0.54789835159E+02  0.12423376417E+03  0.22922472242E+03  0.00000000000E+00 0. -1.
         -3    1    3    3    0  502  0.19343928276E+02  0.52082144052E+02  0.31923826523E+02  0.64077047295E+02  0.00000000000E+00 0.  1.
         11    1    5    5    0    0  0.15465787121E+03 -0.31665389820E+02  0.55209514271E+02  0.16724187426E+03  0.00000000000E+00 0.  1.
        -11    1    5    5    0    0  0.32907538901E+02  0.34850660287E+02  0.30253582289E+02  0.56681159835E+02  0.00000000000E+00 0. -1.
          3    1    6    6  503    0 -0.78150442803E+02  0.33917375596E+01 -0.12603795444E+03  0.14833934594E+03  0.00000000000E+00 0. -1.
         -3    1    6    6    0  503 -0.31344246057E+03 -0.11344898724E+03 -0.86134862736E+03  0.92360072902E+03  0.00000000000E+00 0.  1.
<mgrwt>
<rscale>  0 0.14033097E+04</rscale>
<asrwt>0</asrwt>
<pdfrwt beam="1">  1        2 0.64876845E-01 0.14033097E+04</pdfrwt>
<pdfrwt beam="2">  1       -1 0.17961006E+00 0.14033097E+04</pdfrwt>
<totfact> 0.17462585E+01</totfact>
</mgrwt>
</event>
<event>
12    6  0.1540825E-007  0.1896403E+04  0.7818608E-02  0.8656649E-01
         -1   -1    0    0    0  501 -0.00000000000E+00  0.00000000000E+00  0.72177812148E+03  0.72177812148E+03  0.00000000000E+00 0.  1.
          2   -1    0    0  501    0  0.00000000000E+00 -0.00000000000E+00 -0.12456541031E+04  0.12456541031E+04  0.00000000000E+00 0. -1.
         24    2    1    2    0    0 -0.72249282131E+03 -0.20791811906E+02 -0.70120983509E+02  0.73057203483E+03  0.79939786414E+02 0.  0.
        254    2    1    2    0    0  0.72249282131E+03  0.20791811906E+02 -0.45375499813E+03  0.12368601898E+04  0.89526608022E+03 0.  0.
         23    2    4    4    0    0  0.68045044715E+03 -0.33600715127E+03 -0.39801036551E+03  0.86166559767E+03  0.90231560012E+02 0.  0.
         23    2    4    4    0    0  0.42042374164E+02  0.35679896317E+03 -0.55744632614E+02  0.37519459209E+03  0.92684715689E+02 0.  0.
          2    1    3    3  502    0 -0.54885556419E+03  0.26809233589E+01 -0.81997613169E+02  0.55495335503E+03  0.00000000000E+00 0. -1.
         -1    1    3    3    0  502 -0.17363725713E+03 -0.23472735265E+02  0.11876629660E+02  0.17561867980E+03  0.00000000000E+00 0.  1.
         11    1    5    5    0    0  0.23952873173E+03 -0.10713386079E+03 -0.18545922249E+03  0.32132040187E+03  0.00000000000E+00 0.  1.
        -11    1    5    5    0    0  0.44092171542E+03 -0.22887329048E+03 -0.21255114303E+03  0.54034519580E+03  0.00000000000E+00 0. -1.
          1    1    6    6  503    0  0.32184810115E+02  0.35282435205E+03 -0.40480317086E+02  0.35659436545E+03  0.00000000000E+00 0. -1.
         -1    1    6    6    0  503  0.98575640489E+01  0.39746111271E+01 -0.15264315528E+02  0.18600226642E+02  0.00000000000E+00 0.  1.
<mgrwt>
<rscale>  0 0.18964028E+04</rscale>
<asrwt>0</asrwt>
<pdfrwt beam="1">  1        2 0.19163909E+00 0.18964028E+04</pdfrwt>
<pdfrwt beam="2">  1       -1 0.11104279E+00 0.18964028E+04</pdfrwt>
<totfact> 0.14183643E+01</totfact>
</mgrwt>
</event>
<event>
12    6  0.1540825E-007  0.1862757E+04  0.7818608E-02  0.8673620E-01
          2   -1    0    0  501    0  0.00000000000E+00  0.00000000000E+00  0.10544617324E+04  0.10544617324E+04  0.00000000000E+00 0. -1.
         -1   -1    0    0    0  501 -0.00000000000E+00 -0.00000000000E+00 -0.82266203967E+03  0.82266203967E+03  0.00000000000E+00 0.  1.
         24    2    1    2    0    0  0.37277824570E+03  0.53167580047E+03 -0.20888698860E+03  0.68678502264E+03  0.79981973274E+02 0.  0.
        254    2    1    2    0    0 -0.37277824570E+03 -0.53167580047E+03  0.44068668138E+03  0.11903387495E+04  0.89501888812E+03 0.  0.
         23    2    4    4    0    0 -0.44973960630E+03 -0.53534013891E+03  0.64336716004E+03  0.95447704513E+03  0.90831433207E+02 0.  0.
         23    2    4    4    0    0  0.76961360599E+02  0.36643384446E+01 -0.20268047866E+03  0.23586170435E+03  0.92816424973E+02 0.  0.
          2    1    3    3  502    0  0.17723749895E+03  0.23139774105E+03 -0.54121819256E+02  0.29645778269E+03  0.00000000000E+00 0. -1.
         -1    1    3    3    0  502  0.19554074675E+03  0.30027805942E+03 -0.15476516935E+03  0.39032723995E+03  0.00000000000E+00 0.  1.
         11    1    5    5    0    0 -0.90603321268E+02 -0.67904082504E+02  0.76346307048E+02  0.13656018763E+03  0.00000000000E+00 0. -1.
        -11    1    5    5    0    0 -0.35913628503E+03 -0.46743605641E+03  0.56702085299E+03  0.81791685750E+03  0.00000000000E+00 0.  1.
          4    1    6    6  503    0  0.21594270785E+02 -0.37066681208E+01  0.35546864071E+01  0.22196569887E+02  0.00000000000E+00 0. -1.
         -4    1    6    6    0  503  0.55367089814E+02  0.73710065654E+01 -0.20623516507E+03  0.21366513446E+03  0.00000000000E+00 0.  1.
<mgrwt>
<rscale>  0 0.18627567E+04</rscale>
<asrwt>0</asrwt>
<pdfrwt beam="1">  1        2 0.16222488E+00 0.18627567E+04</pdfrwt>
<pdfrwt beam="2">  1       -1 0.12656339E+00 0.18627567E+04</pdfrwt>
<totfact> 0.13521050E+01</totfact>
</mgrwt>
</event>
<event>
12    6  0.1540825E-007  0.1494948E+04  0.7818608E-02  0.8887819E-01
          2   -1    0    0  501    0  0.00000000000E+00  0.00000000000E+00  0.16293765397E+04  0.16293765397E+04  0.00000000000E+00 0. -1.
         -1   -1    0    0    0  501 -0.00000000000E+00 -0.00000000000E+00 -0.34290264050E+03  0.34290264050E+03  0.00000000000E+00 0.  1.
         24    2    1    2    0    0 -0.34690532864E+03 -0.15793109869E+03  0.48455773128E+02  0.39200222813E+03  0.77667534679E+02 0.  0.
        254    2    1    2    0    0  0.34690532864E+03  0.15793109869E+03  0.12380181260E+04  0.15802769520E+04  0.90515237709E+03 0.  0.
         23    2    4    4    0    0  0.15719882396E+03  0.51818932817E+03  0.84101251784E+03  0.10043513049E+04  0.90486675567E+02 0.  0.
         23    2    4    4    0    0  0.18970650467E+03 -0.36025822948E+03  0.39700560820E+03  0.57592564711E+03  0.91117222470E+02 0.  0.
          4    1    3    3  502    0 -0.18081908263E+03 -0.10506081310E+03 -0.65582001421E+01  0.20922792615E+03  0.00000000000E+00 0. -1.
         -3    1    3    3    0  502 -0.16608624601E+03 -0.52870285595E+02  0.55013973270E+02  0.18277430199E+03  0.00000000000E+00 0.  1.
         11    1    5    5    0    0  0.13948720238E+03  0.48127902510E+03  0.72487694499E+03  0.88121096509E+03  0.00000000000E+00 0.  1.
        -11    1    5    5    0    0  0.17711621585E+02  0.36910303073E+02  0.11613557285E+03  0.12314033983E+03  0.00000000000E+00 0. -1.
          3    1    6    6  503    0  0.17420651917E+02 -0.13275115335E+02  0.97773258041E+00  0.21924045278E+02  0.00000000000E+00 0. -1.
         -3    1    6    6    0  503  0.17228585276E+03 -0.34698311415E+03  0.39602787562E+03  0.55400160183E+03  0.00000000000E+00 0.  1.
<mgrwt>
<rscale>  0 0.14949482E+04</rscale>
<asrwt>0</asrwt>
<pdfrwt beam="1">  1        2 0.25067331E+00 0.14949482E+04</pdfrwt>
<pdfrwt beam="2">  1       -1 0.52754253E-01 0.14949482E+04</pdfrwt>
<totfact> 0.42823877E+01</totfact>
</mgrwt>
</event>
<event>
12    6  0.1540825E-007  0.2133655E+04  0.7818608E-02  0.8546561E-01
          2   -1    0    0  501    0  0.00000000000E+00  0.00000000000E+00  0.12154185054E+04  0.12154185054E+04  0.00000000000E+00 0. -1.
         -1   -1    0    0    0  501 -0.00000000000E+00 -0.00000000000E+00 -0.93640286110E+03  0.93640286110E+03  0.00000000000E+00 0.  1.
         24    2    1    2    0    0 -0.68245443888E+03  0.43982285180E+03 -0.19752279504E+03  0.83938440338E+03  0.79766659429E+02 0.  0.
        254    2    1    2    0    0  0.68245443888E+03 -0.43982285180E+03  0.47653843933E+03  0.13124369631E+04  0.91444720779E+03 0.  0.
         23    2    4    4    0    0  0.84841724375E+03 -0.51559729771E+03  0.48289786849E+03  0.11077079667E+04  0.90411255831E+02 0.  0.
         23    2    4    4    0    0 -0.16596280486E+03  0.75774445913E+02 -0.63594291650E+01  0.20472899641E+03  0.92672004298E+02 0.  0.
          2    1    3    3  502    0 -0.54094739608E+03  0.35439774581E+03 -0.12401802892E+03  0.65848486623E+03  0.00000000000E+00 0. -1.
         -1    1    3    3    0  502 -0.14150704281E+03  0.85425105989E+02 -0.73504766127E+02  0.18089953715E+03  0.00000000000E+00 0.  1.
         11    1    5    5    0    0  0.10598282536E+03 -0.82085850083E+02  0.96269531751E+02  0.16504020358E+03  0.00000000000E+00 0. -1.
        -11    1    5    5    0    0  0.74243441839E+03 -0.43351144763E+03  0.38662833674E+03  0.94266776311E+03  0.00000000000E+00 0.  1.
          4    1    6    6  503    0 -0.66740961299E+01  0.15115617059E+02  0.26416618854E+02  0.31158677602E+02  0.00000000000E+00 0. -1.
         -4    1    6    6    0  503 -0.15928870873E+03  0.60658828854E+02 -0.32776048019E+02  0.17357031881E+03  0.00000000000E+00 0.  1.
<mgrwt>
<rscale>  0 0.21336554E+04</rscale>
<asrwt>0</asrwt>
<pdfrwt beam="1">  1        2 0.18698746E+00 0.21336554E+04</pdfrwt>
<pdfrwt beam="2">  1       -1 0.14406198E+00 0.21336554E+04</pdfrwt>
<totfact> 0.75525675E+00</totfact>
</mgrwt>
</event>
<event>
12    6  0.1540825E-007  0.1707511E+04  0.7818608E-02  0.8757092E-01
          2   -1    0    0  501    0  0.00000000000E+00  0.00000000000E+00  0.23978526839E+04  0.23978526839E+04  0.00000000000E+00 0. -1.
         -1   -1    0    0    0  501 -0.00000000000E+00 -0.00000000000E+00 -0.30397948926E+03  0.30397948926E+03  0.00000000000E+00 0.  1.
         24    2    1    2    0    0  0.13357800282E+03 -0.56880186884E+03  0.10305622616E+04  0.11880963680E+04  0.90198425341E+02 0.  0.
        254    2    1    2    0    0 -0.13357800282E+03  0.56880186884E+03  0.10633109331E+04  0.15137358051E+04  0.90520014277E+03 0.  0.
         23    2    4    4    0    0  0.20850752161E+03  0.30212899138E+02  0.77477872686E+03  0.80825590575E+03  0.92775685053E+02 0.  0.
         23    2    4    4    0    0 -0.34208552444E+03  0.53858896971E+03  0.28853220620E+03  0.70547989936E+03  0.85734882471E+02 0.  0.
          2    1    3    3  502    0  0.46856380946E-01 -0.63561257944E+01  0.45477854842E+02  0.45919906486E+02  0.00000000000E+00 0. -1.
         -1    1    3    3    0  502  0.13353114644E+03 -0.56244574305E+03  0.98508440671E+03  0.11421764615E+04  0.00000000000E+00 0.  1.
         11    1    5    5    0    0  0.17000192114E+03 -0.14983190694E+02  0.58818724945E+03  0.61244541766E+03  0.00000000000E+00 0. -1.
        -11    1    5    5    0    0  0.38505600477E+02  0.45196089831E+02  0.18659147741E+03  0.19581048809E+03  0.00000000000E+00 0.  1.
          4    1    6    6  503    0 -0.30676054504E+03  0.50501297666E+03  0.24337633312E+03  0.63904004421E+03  0.00000000000E+00 0. -1.
         -4    1    6    6    0  503 -0.35324979399E+02  0.33575993047E+02  0.45155873080E+02  0.66439855149E+02  0.00000000000E+00 0.  1.
<mgrwt>
<rscale>  0 0.17075105E+04</rscale>
<asrwt>0</asrwt>
<pdfrwt beam="1">  1        2 0.36890040E+00 0.17075105E+04</pdfrwt>
<pdfrwt beam="2">  1       -1 0.46766077E-01 0.17075105E+04</pdfrwt>
<totfact> 0.19693230E+01</totfact>
</mgrwt>
</event>
<event>
12    6  0.1540825E-007  0.1384597E+04  0.7818608E-02  0.8965044E-01
         -1   -1    0    0    0  501 -0.00000000000E+00  0.00000000000E+00  0.53607000255E+03  0.53607000255E+03  0.00000000000E+00 0.  1.
          2   -1    0    0  501    0  0.00000000000E+00 -0.00000000000E+00 -0.89405700434E+03  0.89405700434E+03  0.00000000000E+00 0. -1.
         24    2    1    2    0    0  0.51356314069E+02 -0.37649847209E+03 -0.96148773746E+01  0.38980652555E+03  0.86418233115E+02 0.  0.
        254    2    1    2    0    0 -0.51356314069E+02  0.37649847209E+03 -0.34837212441E+03  0.10403204813E+04  0.90361219355E+03 0.  0.
         23    2    4    4    0    0 -0.29525572102E+03  0.41262042227E+03  0.95628331299E+02  0.52429781613E+03  0.91169449853E+02 0.  0.
         23    2    4    4    0    0  0.24389940695E+03 -0.36121950180E+02 -0.44400045571E+03  0.51602266520E+03  0.91385285094E+02 0.  0.
          4    1    3    3  502    0  0.37182099510E+02 -0.35309747790E+03 -0.29066386597E+02  0.35623755032E+03  0.00000000000E+00 0. -1.
         -3    1    3    3    0  502  0.14174214559E+02 -0.23400994186E+02  0.19451509222E+02  0.33568975234E+02  0.00000000000E+00 0.  1.
         11    1    5    5    0    0 -0.29147454073E+03  0.41658075601E+03  0.98848017796E+02  0.51794581260E+03  0.00000000000E+00 0. -1.
        -11    1    5    5    0    0 -0.37811802922E+01 -0.39603337394E+01 -0.32196864970E+01  0.63520035319E+01  0.00000000000E+00 0.  1.
          3    1    6    6  503    0  0.17634826282E+03 -0.66067706565E+02 -0.33576669771E+03  0.38497133263E+03  0.00000000000E+00 0. -1.
         -3    1    6    6    0  503  0.67551144131E+02  0.29945756385E+02 -0.10823375800E+03  0.13105133257E+03  0.00000000000E+00 0.  1.
<mgrwt>
<rscale>  0 0.13845969E+04</rscale>
<asrwt>0</asrwt>
<pdfrwt beam="1">  1        2 0.13754723E+00 0.13845969E+04</pdfrwt>
<pdfrwt beam="2">  1       -1 0.82472309E-01 0.13845969E+04</pdfrwt>
<totfact> 0.48114460E+01</totfact>
</mgrwt>
</event>
<event>
12    6  0.1540825E-007  0.1659445E+04  0.7818608E-02  0.8784838E-01
         -1   -1    0    0    0  501 -0.00000000000E+00  0.00000000000E+00  0.87027125874E+03  0.87027125874E+03  0.00000000000E+00 0.  1.
          2   -1    0    0  501    0  0.00000000000E+00 -0.00000000000E+00 -0.79106308513E+03  0.79106308513E+03  0.00000000000E+00 0. -1.
         24    2    1    2    0    0 -0.42470544638E+03  0.37915842564E+03  0.33523358155E+02  0.57614319794E+03  0.81739470705E+02 0.  0.
        254    2    1    2    0    0  0.42470544638E+03 -0.37915842564E+03  0.45684815457E+02  0.10851911459E+04  0.92272254384E+03 0.  0.
         23    2    4    4    0    0  0.60407309116E+03  0.70614253433E+01 -0.11110738233E+03  0.62227134010E+03  0.99612283934E+02 0.  0.
         23    2    4    4    0    0 -0.17936764478E+03 -0.38621985099E+03  0.15679219779E+03  0.46291980583E+03  0.91500972953E+02 0.  0.
          2    1    3    3  502    0 -0.12060757452E+03  0.12050488119E+03 -0.26154199491E+02  0.17248668230E+03  0.00000000000E+00 0. -1.
         -1    1    3    3    0  502 -0.30409787186E+03  0.25865354446E+03  0.59677557645E+02  0.40365651564E+03  0.00000000000E+00 0.  1.
         11    1    5    5    0    0  0.43673264797E+03  0.18236808932E+02 -0.12313982395E+03  0.45412707830E+03  0.00000000000E+00 0.  1.
        -11    1    5    5    0    0  0.16734044319E+03 -0.11175383588E+02  0.12032441617E+02  0.16814426180E+03  0.00000000000E+00 0. -1.
          3    1    6    6  503    0 -0.10733791062E+03 -0.14708601885E+03  0.96160710624E+02  0.20591893130E+03  0.00000000000E+00 0. -1.
         -3    1    6    6    0  503 -0.72029734151E+02 -0.23913383213E+03  0.60631487163E+02  0.25700087453E+03  0.00000000000E+00 0.  1.
<mgrwt>
<rscale>  0 0.16594450E+04</rscale>
<asrwt>0</asrwt>
<pdfrwt beam="1">  1        2 0.12170201E+00 0.16594450E+04</pdfrwt>
<pdfrwt beam="2">  1       -1 0.13388789E+00 0.16594450E+04</pdfrwt>
<totfact> 0.17931326E+01</totfact>
</mgrwt>
</event>
<event>
12    6  0.1540825E-007  0.1328111E+04  0.7818608E-02  0.9007565E-01
          2   -1    0    0  501    0  0.00000000000E+00  0.00000000000E+00  0.13015054299E+04  0.13015054299E+04  0.00000000000E+00 0. -1.
         -1   -1    0    0    0  501 -0.00000000000E+00 -0.00000000000E+00 -0.33881515099E+03  0.33881515099E+03  0.00000000000E+00 0.  1.
         24    2    1    2    0    0 -0.28994849477E+03  0.18352234666E+03  0.34757920067E+03  0.49987506654E+03  0.10636352789E+03 0.  0.
        254    2    1    2    0    0  0.28994849477E+03 -0.18352234666E+03  0.61511107821E+03  0.11404455143E+04  0.89694133101E+03 0.  0.
         23    2    4    4    0    0 -0.13399799412E+03 -0.42952770683E+03  0.33256220814E+03  0.56697502023E+03  0.91725339527E+02 0.  0.
         23    2    4    4    0    0  0.42394648889E+03  0.24600536018E+03  0.28254887007E+03  0.57347049410E+03  0.93729829541E+02 0.  0.
          4    1    3    3  502    0 -0.18117127715E+03  0.15128431361E+03  0.28589400662E+03  0.37073623809E+03  0.00000000000E+00 0. -1.
         -3    1    3    3    0  502 -0.10877721763E+03  0.32238033043E+02  0.61685194047E+02  0.12913882845E+03  0.00000000000E+00 0.  1.
         11    1    5    5    0    0  0.10665441014E+02 -0.83058990624E+02  0.60825794379E+02  0.10350036144E+03  0.00000000000E+00 0. -1.
        -11    1    5    5    0    0 -0.14466343514E+03 -0.34646871621E+03  0.27173641376E+03  0.46347465879E+03  0.00000000000E+00 0.  1.
          1    1    6    6  503    0  0.27796329335E+03  0.11144349000E+03  0.18775488247E+03  0.35346165252E+03  0.00000000000E+00 0. -1.
         -1    1    6    6    0  503  0.14598319555E+03  0.13456187018E+03  0.94793987596E+02  0.22000884158E+03  0.00000000000E+00 0.  1.
<mgrwt>
<rscale>  0 0.13281111E+04</rscale>
<asrwt>0</asrwt>
<pdfrwt beam="1">  1        2 0.20023160E+00 0.13281111E+04</pdfrwt>
<pdfrwt beam="2">  1       -1 0.52125409E-01 0.13281111E+04</pdfrwt>
<totfact> 0.68173759E+01</totfact>
</mgrwt>
</event>
<event>
12    6  0.1540825E-007  0.2087831E+04  0.7818608E-02  0.8566623E-01
          2   -1    0    0  501    0  0.00000000000E+00  0.00000000000E+00  0.19139878643E+04  0.19139878643E+04  0.00000000000E+00 0. -1.
         -1   -1    0    0    0  501 -0.00000000000E+00 -0.00000000000E+00 -0.56936586439E+03  0.56936586439E+03  0.00000000000E+00 0.  1.
         24    2    1    2    0    0 -0.36830774794E+03  0.74187180472E+03  0.42432877660E+03  0.93400431840E+03  0.79276631466E+02 0.  0.
        254    2    1    2    0    0  0.36830774794E+03 -0.74187180472E+03  0.92029322330E+03  0.15493494103E+04  0.93140732573E+03 0.  0.
         23    2    4    4    0    0  0.68076908909E+02 -0.88540878471E+03  0.57420553714E+03  0.10613567907E+04  0.90460248815E+02 0.  0.
         23    2    4    4    0    0  0.30023083903E+03  0.14353697998E+03  0.34608768616E+03  0.48799261962E+03  0.87285101631E+02 0.  0.
          2    1    3    3  502    0 -0.89412747798E+02  0.19268501588E+03  0.14812602390E+03  0.25896616336E+03  0.00000000000E+00 0. -1.
         -1    1    3    3    0  502 -0.27889500014E+03  0.54918678885E+03  0.27620275270E+03  0.67503815503E+03  0.00000000000E+00 0.  1.
         11    1    5    5    0    0 -0.12854187004E+02 -0.18747087261E+03  0.15160791420E+03  0.24144464758E+03  0.00000000000E+00 0.  1.
        -11    1    5    5    0    0  0.80931095913E+02 -0.69793791210E+03  0.42259762294E+03  0.81991214307E+03  0.00000000000E+00 0. -1.
          4    1    6    6  503    0  0.22291350472E+03  0.14611816940E+03  0.26235279157E+03  0.37399189465E+03  0.00000000000E+00 0. -1.
         -4    1    6    6    0  503  0.77317334308E+02 -0.25811894155E+01  0.83734894586E+02  0.11400072497E+03  0.00000000000E+00 0.  1.
<mgrwt>
<rscale>  0 0.20878308E+04</rscale>
<asrwt>0</asrwt>
<pdfrwt beam="1">  1        2 0.29445967E+00 0.20878308E+04</pdfrwt>
<pdfrwt beam="2">  1       -1 0.87594749E-01 0.20878308E+04</pdfrwt>
<totfact> 0.10043314E+01</totfact>
</mgrwt>
</event>
<event>
12    6  0.1540825E-007  0.2586691E+04  0.7818608E-02  0.8372736E-01
         -1   -1    0    0    0  501 -0.00000000000E+00  0.00000000000E+00  0.19405786780E+04  0.19405786780E+04  0.00000000000E+00 0.  1.
          2   -1    0    0  501    0  0.00000000000E+00 -0.00000000000E+00 -0.86198103053E+03  0.86198103053E+03  0.00000000000E+00 0. -1.
         24    2    1    2    0    0  0.70836698053E+03 -0.64201941650E+03 -0.18221820425E+03  0.97644990588E+03  0.79235310680E+02 0.  0.
        254    2    1    2    0    0 -0.70836698053E+03  0.64201941650E+03  0.12608158517E+04  0.18261098027E+04  0.91161817068E+03 0.  0.
         23    2    4    4    0    0 -0.59129143000E+03  0.47928047700E+02  0.26309626695E+03  0.65542664155E+03  0.91879180608E+02 0.  0.
         23    2    4    4    0    0 -0.11707555053E+03  0.59409136880E+03  0.99771958479E+03  0.11706831611E+04  0.91670359485E+02 0.  0.
          2    1    3    3  502    0  0.63306496101E+03 -0.53777163554E+03 -0.16127619339E+03  0.84615577018E+03  0.00000000000E+00 0. -1.
         -1    1    3    3    0  502  0.75302019524E+02 -0.10424778096E+03 -0.20942010861E+02  0.13029413571E+03  0.00000000000E+00 0.  1.
         11    1    5    5    0    0 -0.58788261470E+03  0.41643495766E+02  0.26729284607E+03  0.64713647321E+03  0.00000000000E+00 0. -1.
        -11    1    5    5    0    0 -0.34088153028E+01  0.62845519339E+01 -0.41965791229E+01  0.82901683405E+01  0.00000000000E+00 0.  1.
          3    1    6    6  503    0 -0.43241638801E+02  0.43289989973E+03  0.70099665100E+03  0.82502634336E+03  0.00000000000E+00 0. -1.
         -3    1    6    6    0  503 -0.73833911731E+02  0.16119146907E+03  0.29672293379E+03  0.34565681776E+03  0.00000000000E+00 0.  1.
<mgrwt>
<rscale>  0 0.25866906E+04</rscale>
<asrwt>0</asrwt>
<pdfrwt beam="1">  1        2 0.13261247E+00 0.25866906E+04</pdfrwt>
<pdfrwt beam="2">  1       -1 0.29855056E+00 0.25866906E+04</pdfrwt>
<totfact> 0.10610375E+00</totfact>
</mgrwt>
</event>
<event>
12    6  0.1540825E-007  0.2446736E+04  0.7818608E-02  0.8422211E-01
          2   -1    0    0  501    0  0.00000000000E+00  0.00000000000E+00  0.20398797810E+04  0.20398797810E+04  0.00000000000E+00 0. -1.
         -1   -1    0    0    0  501 -0.00000000000E+00 -0.00000000000E+00 -0.73368475674E+03  0.73368475674E+03  0.00000000000E+00 0.  1.
         24    2    1    2    0    0  0.65335664406E+03  0.46351886408E+03  0.13399009510E+04  0.15631729234E+04  0.80314308928E+02 0.  0.
        254    2    1    2    0    0 -0.65335664406E+03 -0.46351886408E+03 -0.33705926814E+02  0.12103916143E+04  0.90674534943E+03 0.  0.
         23    2    4    4    0    0 -0.12337543771E+03 -0.62778887731E+03 -0.45516682680E+02  0.64784185775E+03  0.91032582919E+02 0.  0.
         23    2    4    4    0    0 -0.52998120635E+03  0.16427001323E+03  0.11810755865E+02  0.56254975652E+03  0.91967484895E+02 0.  0.
          2    1    3    3  502    0  0.61692397232E+03  0.41252345484E+03  0.12240864201E+04  0.14314881601E+04  0.00000000000E+00 0. -1.
         -1    1    3    3    0  502  0.36432671741E+02  0.50995409246E+02  0.11581453091E+03  0.13168476337E+03  0.00000000000E+00 0.  1.
         11    1    5    5    0    0 -0.10507568410E+03 -0.30049023770E+03 -0.16754200805E+02  0.31877262365E+03  0.00000000000E+00 0. -1.
        -11    1    5    5    0    0 -0.18299753610E+02 -0.32729863961E+03 -0.28762481874E+02  0.32906923411E+03  0.00000000000E+00 0.  1.
          3    1    6    6  503    0 -0.32533242568E+03  0.61605376929E+02 -0.18312938925E+02  0.33161992310E+03  0.00000000000E+00 0.  1.
         -3    1    6    6    0  503 -0.20464878068E+03  0.10266463630E+03  0.30123694790E+02  0.23092983343E+03  0.00000000000E+00 0. -1.
<mgrwt>
<rscale>  0 0.24467355E+04</rscale>
<asrwt>0</asrwt>
<pdfrwt beam="1">  1        2 0.31382766E+00 0.24467355E+04</pdfrwt>
<pdfrwt beam="2">  1       -1 0.11287458E+00 0.24467355E+04</pdfrwt>
<totfact> 0.46440352E+00</totfact>
</mgrwt>
</event>
<event>
12    6  0.1540825E-007  0.1133161E+04  0.7818608E-02  0.9173460E-01
         -1   -1    0    0    0  501 -0.00000000000E+00  0.00000000000E+00  0.36670437622E+03  0.36670437622E+03  0.00000000000E+00 0.  1.
          2   -1    0    0  501    0  0.00000000000E+00 -0.00000000000E+00 -0.87540183774E+03  0.87540183774E+03  0.00000000000E+00 0. -1.
         24    2    1    2    0    0 -0.22736308959E+02  0.51593583393E+02  0.11314997503E+03  0.14953778569E+03  0.79873618345E+02 0.  0.
        254    2    1    2    0    0  0.22736308959E+02 -0.51593583393E+02 -0.62184743654E+03  0.10925684283E+04  0.89656717457E+03 0.  0.
         23    2    4    4    0    0 -0.10596879149E+03  0.35929341414E+03 -0.50845381566E+03  0.63822362968E+03  0.92103076043E+02 0.  0.
         23    2    4    4    0    0  0.12870510045E+03 -0.41088699753E+03 -0.11339362088E+03  0.45434479859E+03  0.90432046989E+02 0.  0.
          4    1    3    3  502    0 -0.38309116908E+01  0.71621373811E+01 -0.12512436416E+02  0.14917545418E+02  0.00000000000E+00 0. -1.
         -3    1    3    3    0  502 -0.18905397268E+02  0.44431446012E+02  0.12566241145E+03  0.13462024027E+03  0.00000000000E+00 0.  1.
         11    1    5    5    0    0 -0.68492426510E+02  0.33049178641E+03 -0.45994045177E+03  0.57049211436E+03  0.00000000000E+00 0.  1.
        -11    1    5    5    0    0 -0.37476364984E+02  0.28801627727E+02 -0.48513363886E+02  0.67731515321E+02  0.00000000000E+00 0. -1.
          3    1    6    6  503    0  0.41278223368E+02 -0.20376472259E+03 -0.95580845124E+02  0.22882231502E+03  0.00000000000E+00 0.  1.
         -3    1    6    6    0  503  0.87426877086E+02 -0.20712227494E+03 -0.17812775761E+02  0.22552248356E+03  0.00000000000E+00 0. -1.
<mgrwt>
<rscale>  0 0.11331614E+04</rscale>
<asrwt>0</asrwt>
<pdfrwt beam="1">  1        2 0.13467721E+00 0.11331614E+04</pdfrwt>
<pdfrwt beam="2">  1       -1 0.56416058E-01 0.11331614E+04</pdfrwt>
<totfact> 0.10957010E+02</totfact>
</mgrwt>
</event>
<event>
12    6  0.1540825E-007  0.1077999E+04  0.7818608E-02  0.9226905E-01
          2   -1    0    0  501    0  0.00000000000E+00  0.00000000000E+00  0.24800766882E+03  0.24800766882E+03  0.00000000000E+00 0. -1.
         -1   -1    0    0    0  501 -0.00000000000E+00 -0.00000000000E+00 -0.11714163987E+04  0.11714163987E+04  0.00000000000E+00 0.  1.
         24    2    1    2    0    0  0.47327826458E+02 -0.62628257043E+02  0.27966793607E+02  0.11633399549E+03  0.81174104391E+02 0.  0.
        254    2    1    2    0    0 -0.47327826458E+02  0.62628257043E+02 -0.95137552345E+03  0.13030900720E+04  0.88699838072E+03 0.  0.
         23    2    4    4    0    0  0.18282517979E+03  0.39752221622E+03 -0.65137517797E+03  0.79001626583E+03  0.91581215578E+02 0.  0.
         23    2    4    4    0    0 -0.23015300625E+03 -0.33489395918E+03 -0.30000034548E+03  0.51307380617E+03  0.90111892190E+02 0.  0.
          2    1    3    3  502    0  0.62376591492E+01 -0.69617584627E+02  0.26104427330E+02  0.74612047333E+02  0.00000000000E+00 0. -1.
         -1    1    3    3    0  502  0.41090167309E+02  0.69893275838E+01  0.18623662769E+01  0.41721948154E+02  0.00000000000E+00 0.  1.
         11    1    5    5    0    0  0.10174339800E+03  0.14404413527E+03 -0.20589510581E+03  0.27109634180E+03  0.00000000000E+00 0.  1.
        -11    1    5    5    0    0  0.81081781787E+02  0.25347808095E+03 -0.44548007216E+03  0.51891992403E+03  0.00000000000E+00 0. -1.
          4    1    6    6  503    0 -0.57765589106E+02 -0.16072940223E+03 -0.13403908546E+03  0.21711121679E+03  0.00000000000E+00 0. -1.
         -4    1    6    6    0  503 -0.17238741714E+03 -0.17416455695E+03 -0.16596126003E+03  0.29596258939E+03  0.00000000000E+00 0.  1.
<mgrwt>
<rscale>  0 0.10779986E+04</rscale>
<asrwt>0</asrwt>
<pdfrwt beam="1">  1        2 0.38155027E-01 0.10779986E+04</pdfrwt>
<pdfrwt beam="2">  1       -1 0.18021790E+00 0.10779986E+04</pdfrwt>
<totfact> 0.32120726E+01</totfact>
</mgrwt>
</event>
<event>
12    6  0.1540825E-007  0.1465334E+04  0.7818608E-02  0.8907838E-01
          2   -1    0    0  501    0  0.00000000000E+00  0.00000000000E+00  0.96415211545E+03  0.96415211545E+03  0.00000000000E+00 0. -1.
         -1   -1    0    0    0  501 -0.00000000000E+00 -0.00000000000E+00 -0.55675959932E+03  0.55675959932E+03  0.00000000000E+00 0.  1.
         24    2    1    2    0    0 -0.27890194446E+03 -0.32100430464E+03 -0.29240750889E+02  0.43363062092E+03  0.79689620818E+02 0.  0.
        254    2    1    2    0    0  0.27890194446E+03  0.32100430464E+03  0.43663326703E+03  0.10872810939E+04  0.90038964285E+03 0.  0.
         23    2    4    4    0    0 -0.19962263135E+03  0.27868171422E+03  0.47938826239E+03  0.59626174984E+03  0.90566414415E+02 0.  0.
         23    2    4    4    0    0  0.47852457582E+03  0.42322590420E+02 -0.42754995367E+02  0.49101934401E+03  0.92168515439E+02 0.  0.
          2    1    3    3  502    0 -0.23379057348E+02 -0.61552930996E+01  0.10175103846E+02  0.26229767324E+02  0.00000000000E+00 0. -1.
         -1    1    3    3    0  502 -0.25552288712E+03 -0.31484901154E+03 -0.39415854736E+02  0.40740085360E+03  0.00000000000E+00 0.  1.
         11    1    5    5    0    0 -0.14246108750E+03  0.19031499718E+03  0.39646018327E+03  0.46227225368E+03  0.00000000000E+00 0. -1.
        -11    1    5    5    0    0 -0.57161543853E+02  0.88366717035E+02  0.82928079121E+02  0.13398949616E+03  0.00000000000E+00 0.  1.
          2    1    6    6  503    0  0.26981719112E+03  0.16262912323E+01 -0.64042819259E+02  0.27731830835E+03  0.00000000000E+00 0. -1.
         -2    1    6    6    0  503  0.20870738470E+03  0.40696299188E+02  0.21287823892E+02  0.21370103566E+03  0.00000000000E+00 0.  1.
<mgrwt>
<rscale>  0 0.14653340E+04</rscale>
<asrwt>0</asrwt>
<pdfrwt beam="1">  1        2 0.14833109E+00 0.14653340E+04</pdfrwt>
<pdfrwt beam="2">  1       -1 0.85655323E-01 0.14653340E+04</pdfrwt>
<totfact> 0.39559853E+01</totfact>
</mgrwt>
</event>
<event>
12    6  0.1540825E-007  0.1650439E+04  0.7818608E-02  0.8790147E-01
         -1   -1    0    0    0  501 -0.00000000000E+00  0.00000000000E+00  0.43155699153E+03  0.43155699153E+03  0.00000000000E+00 0.  1.
          2   -1    0    0  501    0  0.00000000000E+00 -0.00000000000E+00 -0.15779776388E+04  0.15779776388E+04  0.00000000000E+00 0. -1.
         24    2    1    2    0    0  0.41250840055E+03 -0.28745962415E+03 -0.50263712485E+02  0.51214886743E+03  0.83509314320E+02 0.  0.
        254    2    1    2    0    0 -0.41250840055E+03  0.28745962415E+03 -0.10961569348E+04  0.14973857629E+04  0.88758542191E+03 0.  0.
         23    2    4    4    0    0  0.19390221433E+03  0.32380232275E+03 -0.30462193793E+03  0.49524429749E+03  0.10013179407E+03 0.  0.
         23    2    4    4    0    0 -0.60641061488E+03 -0.36342698591E+02 -0.79153499683E+03  0.10021414654E+04  0.93301874939E+02 0.  0.
          2    1    3    3  502    0  0.62373007978E+02 -0.14669013633E+02  0.76469567748E+01  0.64529435400E+02  0.00000000000E+00 0. -1.
         -1    1    3    3    0  502  0.35013539257E+03 -0.27279061052E+03 -0.57910669260E+02  0.44761943203E+03  0.00000000000E+00 0.  1.
         11    1    5    5    0    0  0.11805272648E+03  0.12973614766E+03 -0.18521259935E+03  0.25509139773E+03  0.00000000000E+00 0. -1.
        -11    1    5    5    0    0  0.75849487848E+02  0.19406617508E+03 -0.11940933859E+03  0.24015289975E+03  0.00000000000E+00 0.  1.
          1    1    6    6  503    0 -0.57433899693E+03 -0.45544139081E+02 -0.77262838503E+03  0.96379156115E+03  0.00000000000E+00 0. -1.
         -1    1    6    6    0  503 -0.32071617951E+02  0.92014404901E+01 -0.18906611799E+02  0.38349904235E+02  0.00000000000E+00 0.  1.
<mgrwt>
<rscale>  0 0.16504391E+04</rscale>
<asrwt>0</asrwt>
<pdfrwt beam="1">  1        2 0.24276579E+00 0.16504391E+04</pdfrwt>
<pdfrwt beam="2">  1       -1 0.66393382E-01 0.16504391E+04</pdfrwt>
<totfact> 0.28704151E+01</totfact>
</mgrwt>
</event>
<event>
12    6  0.1540825E-007  0.1548181E+04  0.7818608E-02  0.8853030E-01
          2   -1    0    0  501    0  0.00000000000E+00  0.00000000000E+00  0.11741088481E+04  0.11741088481E+04  0.00000000000E+00 0. -1.
         -1   -1    0    0    0  501 -0.00000000000E+00 -0.00000000000E+00 -0.51035830998E+03  0.51035830998E+03  0.00000000000E+00 0.  1.
         24    2    1    2    0    0  0.12701454689E+03  0.43010693437E+03 -0.36379513691E+02  0.45675115638E+03  0.78571494335E+02 0.  0.
        254    2    1    2    0    0 -0.12701454689E+03 -0.43010693437E+03  0.70013005178E+03  0.12277160017E+04  0.90331601404E+03 0.  0.
         23    2    4    4    0    0 -0.15047264409E+03  0.25738008759E+03  0.17194425410E+03  0.35552278241E+03  0.89135269041E+02 0.  0.
         23    2    4    4    0    0  0.23458097200E+02 -0.68748702195E+03  0.52818579768E+03  0.87219321926E+03  0.92477495474E+02 0.  0.
          2    1    3    3  502    0  0.32244560851E+02  0.11287411358E+03  0.25004091848E+02  0.12002283879E+03  0.00000000000E+00 0. -1.
         -1    1    3    3    0  502  0.94769986039E+02  0.31723282078E+03 -0.61383605539E+02  0.33672831759E+03  0.00000000000E+00 0.  1.
         11    1    5    5    0    0 -0.87479657580E+02  0.86339877250E+02  0.35801577783E+02  0.12801959954E+03  0.00000000000E+00 0. -1.
        -11    1    5    5    0    0 -0.62992986510E+02  0.17104021034E+03  0.13614267632E+03  0.22750318287E+03  0.00000000000E+00 0.  1.
          3    1    6    6  503    0  0.19258990008E+02 -0.48310185511E+02  0.62748955899E+02  0.81499780286E+02  0.00000000000E+00 0. -1.
         -3    1    6    6    0  503  0.41991071925E+01 -0.63917683644E+03  0.46543684178E+03  0.79069343897E+03  0.00000000000E+00 0.  1.
<mgrwt>
<rscale>  0 0.15481811E+04</rscale>
<asrwt>0</asrwt>
<pdfrwt beam="1">  1        2 0.18063213E+00 0.15481811E+04</pdfrwt>
<pdfrwt beam="2">  1       -1 0.78516663E-01 0.15481811E+04</pdfrwt>
<totfact> 0.34988461E+01</totfact>
</mgrwt>
</event>
<event>
12    6  0.1540825E-007  0.1781358E+04  0.7818608E-02  0.8716276E-01
         -1   -1    0    0    0  501 -0.00000000000E+00  0.00000000000E+00  0.32594333355E+03  0.32594333355E+03  0.00000000000E+00 0.  1.
          2   -1    0    0  501    0  0.00000000000E+00 -0.00000000000E+00 -0.24338865213E+04  0.24338865213E+04  0.00000000000E+00 0. -1.
         24    2    1    2    0    0  0.58611211052E+03  0.18838443764E+03 -0.41788681747E+03  0.74843147694E+03  0.80648502953E+02 0.  0.
        254    2    1    2    0    0 -0.58611211052E+03 -0.18838443764E+03 -0.16900563703E+04  0.20113983779E+04  0.90023152436E+03 0.  0.
         23    2    4    4    0    0 -0.48335624178E+03 -0.52016612706E+03 -0.12802812365E+04  0.14668978050E+04  0.91994942563E+02 0.  0.
         23    2    4    4    0    0 -0.10275586873E+03  0.33178168942E+03 -0.40977513378E+03  0.54450057294E+03  0.89035698857E+02 0.  0.
          2    1    3    3  502    0  0.25503020698E+01  0.18034469487E+01  0.36152930607E+01  0.47777406228E+01  0.00000000000E+00 0. -1.
         -1    1    3    3    0  502  0.58356180845E+03  0.18658099069E+03 -0.42150211053E+03  0.74365373632E+03  0.00000000000E+00 0.  1.
         11    1    5    5    0    0 -0.36644679830E+03 -0.37354843296E+03 -0.10161238868E+04  0.11429476983E+04  0.00000000000E+00 0. -1.
        -11    1    5    5    0    0 -0.11690944348E+03 -0.14661769410E+03 -0.26415734971E+03  0.32395010666E+03  0.00000000000E+00 0.  1.
          4    1    6    6  503    0 -0.53387075840E+02  0.22911277377E+03 -0.21416337680E+03  0.31813329743E+03  0.00000000000E+00 0. -1.
         -4    1    6    6    0  503 -0.49368792895E+02  0.10266891565E+03 -0.19561175698E+03  0.22636727551E+03  0.00000000000E+00 0.  1.
<mgrwt>
<rscale>  0 0.17813580E+04</rscale>
<asrwt>0</asrwt>
<pdfrwt beam="1">  1        2 0.37444407E+00 0.17813580E+04</pdfrwt>
<pdfrwt beam="2">  1       -1 0.50145129E-01 0.17813580E+04</pdfrwt>
<totfact> 0.16351564E+01</totfact>
</mgrwt>
</event>
<event>
12    6  0.1540825E-007  0.1601769E+04  0.7818608E-02  0.8819462E-01
         -1   -1    0    0    0  501 -0.00000000000E+00  0.00000000000E+00  0.60823775089E+03  0.60823775089E+03  0.00000000000E+00 0.  1.
          2   -1    0    0  501    0  0.00000000000E+00 -0.00000000000E+00 -0.10545482674E+04  0.10545482674E+04  0.00000000000E+00 0. -1.
         24    2    1    2    0    0  0.13670669095E+03  0.51800476502E+03 -0.17263934449E+03  0.56897022822E+03  0.83097060107E+02 0.  0.
        254    2    1    2    0    0 -0.13670669095E+03 -0.51800476502E+03 -0.27367117201E+03  0.10938157901E+04  0.91352034257E+03 0.  0.
         23    2    4    4    0    0  0.27186266816E+02  0.22792623528E+03  0.60512012835E+02  0.25396460286E+03  0.90259924543E+02 0.  0.
         23    2    4    4    0    0 -0.16389295776E+03 -0.74593100029E+03 -0.33418318485E+03  0.83985118721E+03  0.10196890122E+03 0.  0.
          2    1    3    3  502    0  0.11441984027E+03  0.40624331329E+03 -0.99700700538E+02  0.43366549220E+03  0.00000000000E+00 0. -1.
         -1    1    3    3    0  502  0.22286850677E+02  0.11176145173E+03 -0.72938643955E+02  0.13530473601E+03  0.00000000000E+00 0.  1.
         11    1    5    5    0    0  0.30838035094E+02  0.16181739044E+02  0.10307543439E+02  0.36319120842E+02  0.00000000000E+00 0. -1.
        -11    1    5    5    0    0 -0.36517682785E+01  0.21174449623E+03  0.50204469395E+02  0.21764548202E+03  0.00000000000E+00 0.  1.
          4    1    6    6  503    0 -0.75433824332E+02 -0.17593247042E+03 -0.11156863450E+03  0.22156275907E+03  0.00000000000E+00 0. -1.
         -4    1    6    6    0  503 -0.88459133431E+02 -0.56999852988E+03 -0.22261455035E+03  0.61828842814E+03  0.00000000000E+00 0.  1.
<mgrwt>
<rscale>  0 0.16017691E+04</rscale>
<asrwt>0</asrwt>
<pdfrwt beam="1">  1        2 0.16223819E+00 0.16017691E+04</pdfrwt>
<pdfrwt beam="2">  1       -1 0.93575040E-01 0.16017691E+04</pdfrwt>
<totfact> 0.28179266E+01</totfact>
</mgrwt>
</event>
<event>
12    6  0.1540825E-007  0.2869572E+04  0.7818608E-02  0.8281989E-01
          2   -1    0    0  501    0  0.00000000000E+00  0.00000000000E+00  0.20563944446E+04  0.20563944446E+04  0.00000000000E+00 0. -1.
         -1   -1    0    0    0  501 -0.00000000000E+00 -0.00000000000E+00 -0.10010779551E+04  0.10010779551E+04  0.00000000000E+00 0.  1.
         24    2    1    2    0    0 -0.11222674149E+04 -0.45335213473E+03  0.95661009371E+03  0.15453848433E+04  0.89995188290E+02 0.  0.
        254    2    1    2    0    0  0.11222674149E+04  0.45335213473E+03  0.98706395814E+02  0.15120875565E+04  0.90091815233E+03 0.  0.
         23    2    4    4    0    0  0.50720279888E+03  0.67398365940E+03  0.64297080157E+02  0.85079625198E+03  0.90617302692E+02 0.  0.
         23    2    4    4    0    0  0.61506461601E+03 -0.22063152467E+03  0.34409315657E+02  0.66129130447E+03  0.95600401743E+02 0.  0.
          4    1    3    3  502    0 -0.20795236920E+03 -0.61448220481E+02  0.20723106348E+03  0.29994130313E+03  0.00000000000E+00 0. -1.
         -3    1    3    3    0  502 -0.91431504569E+03 -0.39190391425E+03  0.74937903023E+03  0.12454435402E+04  0.00000000000E+00 0.  1.
         11    1    5    5    0    0  0.16235933586E+03  0.15008160388E+03  0.21020576329E+02  0.22209661500E+03  0.00000000000E+00 0.  1.
        -11    1    5    5    0    0  0.34484346302E+03  0.52390205552E+03  0.43276503828E+02  0.62869963699E+03  0.00000000000E+00 0. -1.
          1    1    6    6  503    0  0.26023577832E+03 -0.45755854811E+02  0.27432983133E+02  0.26564793831E+03  0.00000000000E+00 0. -1.
         -1    1    6    6    0  503  0.35482883769E+03 -0.17487566985E+03  0.69763325230E+01  0.39564336615E+03  0.00000000000E+00 0.  1.
<mgrwt>
<rscale>  0 0.28695722E+04</rscale>
<asrwt>0</asrwt>
<pdfrwt beam="1">  1        2 0.31636837E+00 0.28695722E+04</pdfrwt>
<pdfrwt beam="2">  1       -1 0.15401199E+00 0.28695722E+04</pdfrwt>
<totfact> 0.19863179E+00</totfact>
</mgrwt>
</event>
<event>
12    6  0.1540825E-007  0.1609849E+04  0.7818608E-02  0.8814520E-01
          2   -1    0    0  501    0  0.00000000000E+00  0.00000000000E+00  0.13867302675E+04  0.13867302675E+04  0.00000000000E+00 0. -1.
         -1   -1    0    0    0  501 -0.00000000000E+00 -0.00000000000E+00 -0.46721672058E+03  0.46721672058E+03  0.00000000000E+00 0.  1.
         24    2    1    2    0    0 -0.12436120341E+03  0.51344019011E+03  0.45689214705E+03  0.70291782309E+03  0.79098004090E+02 0.  0.
        254    2    1    2    0    0  0.12436120341E+03 -0.51344019011E+03  0.46262139989E+03  0.11510291650E+04  0.91201043929E+03 0.  0.
         23    2    4    4    0    0 -0.14665909655E+03 -0.59247028053E+03  0.56524969979E+03  0.83679642745E+03  0.90504773172E+02 0.  0.
         23    2    4    4    0    0  0.27102029995E+03  0.79030090425E+02 -0.10262829989E+03  0.31423273757E+03  0.92259889689E+02 0.  0.
          4    1    3    3  502    0 -0.41556716959E+02  0.97664925180E+02  0.12849214072E+03  0.16666021889E+03  0.00000000000E+00 0. -1.
         -1    1    3    3    0  502 -0.82804486447E+02  0.41577526493E+03  0.32840000634E+03  0.53625760420E+03  0.00000000000E+00 0.  1.
         11    1    5    5    0    0 -0.11838110707E+03 -0.45203659370E+03  0.37796363413E+03  0.60100555512E+03  0.00000000000E+00 0. -1.
        -11    1    5    5    0    0 -0.28277989478E+02 -0.14043368683E+03  0.18728606565E+03  0.23579087233E+03  0.00000000000E+00 0.  1.
          3    1    6    6  503    0  0.18447386442E+03  0.69504562892E+02 -0.11188832969E+03  0.22667264775E+03  0.00000000000E+00 0. -1.
         -3    1    6    6    0  503  0.86546435529E+02  0.95255275330E+01  0.92600297988E+01  0.87560089821E+02  0.00000000000E+00 0.  1.
<mgrwt>
<rscale>  0 0.16098491E+04</rscale>
<asrwt>0</asrwt>
<pdfrwt beam="1">  1        2 0.21334312E+00 0.16098491E+04</pdfrwt>
<pdfrwt beam="2">  1       -1 0.71879496E-01 0.16098491E+04</pdfrwt>
<totfact> 0.31417746E+01</totfact>
</mgrwt>
</event>
<event>
12    6  0.1540825E-007  0.1887426E+04  0.7818608E-02  0.8661141E-01
         -1   -1    0    0    0  501 -0.00000000000E+00  0.00000000000E+00  0.39356932446E+03  0.39356932446E+03  0.00000000000E+00 0.  1.
          2   -1    0    0  501    0  0.00000000000E+00 -0.00000000000E+00 -0.22628647061E+04  0.22628647061E+04  0.00000000000E+00 0. -1.
         24    2    1    2    0    0  0.55782081818E+03  0.13911465142E+03 -0.10002459236E+03  0.58891589682E+03  0.79372936297E+02 0.  0.
        254    2    1    2    0    0 -0.55782081818E+03 -0.13911465142E+03 -0.17692707893E+04  0.20675181337E+04  0.90210595610E+03 0.  0.
         23    2    4    4    0    0 -0.25496224480E+03  0.25694709796E+03 -0.21135676024E+03  0.42859845655E+03  0.89428180315E+02 0.  0.
         23    2    4    4    0    0 -0.30285857338E+03 -0.39606174937E+03 -0.15579140290E+04  0.16389196772E+04  0.10184970083E+03 0.  0.
          4    1    3    3  502    0  0.76364738063E+01  0.14063929709E+02 -0.48983159998E+01  0.16736288438E+02  0.00000000000E+00 0. -1.
         -3    1    3    3    0  502  0.55018434438E+03  0.12505072171E+03 -0.95126276357E+02  0.57217960839E+03  0.00000000000E+00 0.  1.
         11    1    5    5    0    0 -0.25437976237E+03  0.25258131621E+03 -0.21878096658E+03  0.41996606546E+03  0.00000000000E+00 0. -1.
        -11    1    5    5    0    0 -0.58248242954E+00  0.43657817506E+01  0.74242063421E+01  0.86323910873E+01  0.00000000000E+00 0.  1.
          2    1    6    6  503    0 -0.30911736424E+03 -0.37178841435E+03 -0.14926367665E+04  0.15689948013E+04  0.00000000000E+00 0. -1.
         -2    1    6    6    0  503  0.62587908522E+01 -0.24273335021E+02 -0.65277262550E+02  0.69924875845E+02  0.00000000000E+00 0.  1.
<mgrwt>
<rscale>  0 0.18874259E+04</rscale>
<asrwt>0</asrwt>
<pdfrwt beam="1">  1        2 0.34813303E+00 0.18874259E+04</pdfrwt>
<pdfrwt beam="2">  1       -1 0.60549127E-01 0.18874259E+04</pdfrwt>
<totfact> 0.14054217E+01</totfact>
</mgrwt>
</event>
<event>
12    6  0.1540825E-007  0.3527621E+04  0.7818608E-02  0.8107275E-01
          2   -1    0    0  501    0  0.00000000000E+00  0.00000000000E+00  0.13182247415E+04  0.13182247415E+04  0.00000000000E+00 0. -1.
         -1   -1    0    0    0  501 -0.00000000000E+00 -0.00000000000E+00 -0.23600134615E+04  0.23600134615E+04  0.00000000000E+00 0.  1.
         24    2    1    2    0    0  0.15678022369E+04  0.20894277699E+03 -0.59643158992E+01  0.15838225150E+04  0.82445423549E+02 0.  0.
        254    2    1    2    0    0 -0.15678022369E+04 -0.20894277699E+03 -0.10358244041E+04  0.20944156881E+04  0.90110151495E+03 0.  0.
         23    2    4    4    0    0 -0.30124227327E+02 -0.24062064685E+03 -0.26954540563E+03  0.37375180276E+03  0.90718904321E+02 0.  0.
         23    2    4    4    0    0 -0.15376780095E+04  0.31677869869E+02 -0.76627899849E+03  0.17206638853E+04  0.89685864091E+02 0.  0.
          4    1    3    3  502    0  0.38512793318E+03  0.38275558523E+02 -0.34472636562E+02  0.38855746804E+03  0.00000000000E+00 0. -1.
         -3    1    3    3    0  502  0.11826743037E+04  0.17066721846E+03  0.28508320663E+02  0.11952650469E+04  0.00000000000E+00 0.  1.
         11    1    5    5    0    0  0.13149468333E+02 -0.19687851741E+03 -0.20187203898E+03  0.28228775967E+03  0.00000000000E+00 0. -1.
        -11    1    5    5    0    0 -0.43273695660E+02 -0.43742129443E+02 -0.67673366650E+02  0.91464043088E+02  0.00000000000E+00 0.  1.
          4    1    6    6  503    0 -0.94726221152E+03  0.34065579983E+02 -0.51782847524E+03  0.10800983709E+04  0.00000000000E+00 0. -1.
         -4    1    6    6    0  503 -0.59041579801E+03 -0.23877101146E+01 -0.24845052325E+03  0.64056551437E+03  0.00000000000E+00 0.  1.
<mgrwt>
<rscale>  0 0.35276214E+04</rscale>
<asrwt>0</asrwt>
<pdfrwt beam="1">  1        2 0.20280381E+00 0.35276214E+04</pdfrwt>
<pdfrwt beam="2">  1       -1 0.36307899E+00 0.35276214E+04</pdfrwt>
<totfact> 0.19141800E-01</totfact>
</mgrwt>
</event>
<event>
12    6  0.1540825E-007  0.1924727E+04  0.7818608E-02  0.8642645E-01
          2   -1    0    0  501    0  0.00000000000E+00  0.00000000000E+00  0.19722053302E+04  0.19722053302E+04  0.00000000000E+00 0. -1.
         -1   -1    0    0    0  501 -0.00000000000E+00 -0.00000000000E+00 -0.46959791723E+03  0.46959791723E+03  0.00000000000E+00 0.  1.
         24    2    1    2    0    0  0.53570194400E+03 -0.70084805663E+02  0.12577687061E+04  0.13714389917E+04  0.83512497513E+02 0.  0.
        254    2    1    2    0    0 -0.53570194400E+03  0.70084805663E+02  0.24483870691E+03  0.10703642557E+04  0.89097990704E+03 0.  0.
         23    2    4    4    0    0 -0.15879310312E+03 -0.39351570478E+03  0.62060836153E+02  0.43853905699E+03  0.91624765289E+02 0.  0.
         23    2    4    4    0    0 -0.37690884088E+03  0.46360051045E+03  0.18277787076E+03  0.63182519873E+03  0.93859597799E+02 0.  0.
          4    1    3    3  502    0  0.52220901555E+03 -0.80692218574E+02  0.12003067607E+04  0.13114685699E+04  0.00000000000E+00 0. -1.
         -3    1    3    3    0  502  0.13492928445E+02  0.10607412911E+02  0.57461945350E+02  0.59970421793E+02  0.00000000000E+00 0.  1.
         11    1    5    5    0    0 -0.12338519894E+03 -0.37283994187E+03  0.50650907498E+02  0.39597859033E+03  0.00000000000E+00 0.  1.
        -11    1    5    5    0    0 -0.35407904178E+02 -0.20675762912E+02  0.11409928655E+02  0.42560466659E+02  0.00000000000E+00 0. -1.
          3    1    6    6  503    0 -0.44763818386E+02  0.60167458394E+02  0.57365236343E+02  0.94417651034E+02  0.00000000000E+00 0. -1.
         -3    1    6    6    0  503 -0.33214502249E+03  0.40343305205E+03  0.12541263442E+03  0.53740754770E+03  0.00000000000E+00 0.  1.
<mgrwt>
<rscale>  0 0.19247270E+04</rscale>
<asrwt>0</asrwt>
<pdfrwt beam="1">  1        2 0.30341620E+00 0.19247270E+04</pdfrwt>
<pdfrwt beam="2">  1       -1 0.72245835E-01 0.19247270E+04</pdfrwt>
<totfact> 0.14242903E+01</totfact>
</mgrwt>
</event>
<event>
12    6  0.1540825E-007  0.1593149E+04  0.7818608E-02  0.8824768E-01
         -1   -1    0    0    0  501 -0.00000000000E+00  0.00000000000E+00  0.10612728792E+04  0.10612728792E+04  0.00000000000E+00 0.  1.
          2   -1    0    0  501    0  0.00000000000E+00 -0.00000000000E+00 -0.59789604219E+03  0.59789604219E+03  0.00000000000E+00 0. -1.
         24    2    1    2    0    0  0.14981996793E+03  0.45058221766E+03 -0.10304917524E+03  0.49248266024E+03  0.80309902623E+02 0.  0.
        254    2    1    2    0    0 -0.14981996793E+03 -0.45058221766E+03  0.56642601225E+03  0.11666862611E+04  0.90268934130E+03 0.  0.
         23    2    4    4    0    0 -0.14076046351E+03  0.17215642821E+03  0.47300188247E+03  0.53059407533E+03  0.91367106201E+02 0.  0.
         23    2    4    4    0    0 -0.90595044286E+01 -0.62273864587E+03  0.93424129780E+02  0.63609218580E+03  0.89441070725E+02 0.  0.
          4    1    3    3  502    0  0.98930338670E+02  0.36879443561E+03 -0.10544534330E+03  0.39612531864E+03  0.00000000000E+00 0. -1.
         -3    1    3    3    0  502  0.50889629264E+02  0.81787782051E+02  0.23961680528E+01  0.96357341603E+02  0.00000000000E+00 0.  1.
         11    1    5    5    0    0 -0.15072151799E+03  0.16242582126E+03  0.40973801171E+03  0.46581580227E+03  0.00000000000E+00 0.  1.
        -11    1    5    5    0    0  0.99610544887E+01  0.97306069527E+01  0.63263870753E+02  0.64778273062E+02  0.00000000000E+00 0. -1.
          2    1    6    6  503    0 -0.17736612396E+02 -0.59117088302E+03  0.10629793347E+03  0.60091334734E+03  0.00000000000E+00 0.  1.
         -2    1    6    6    0  503  0.86771079676E+01 -0.31567762855E+02 -0.12873803694E+02  0.35178838467E+02  0.00000000000E+00 0. -1.
<mgrwt>
<rscale>  0 0.15931489E+04</rscale>
<asrwt>0</asrwt>
<pdfrwt beam="1">  1        2 0.91984007E-01 0.15931489E+04</pdfrwt>
<pdfrwt beam="2">  1       -1 0.16327275E+00 0.15931489E+04</pdfrwt>
<totfact> 0.15074003E+01</totfact>
</mgrwt>
</event>
<event>
12    6  0.1540825E-007  0.1870977E+04  0.7818608E-02  0.8669439E-01
          2   -1    0    0  501    0  0.00000000000E+00  0.00000000000E+00  0.76998666206E+03  0.76998666206E+03  0.00000000000E+00 0. -1.
         -1   -1    0    0    0  501 -0.00000000000E+00 -0.00000000000E+00 -0.11365633128E+04  0.11365633128E+04  0.00000000000E+00 0.  1.
         24    2    1    2    0    0 -0.11491253017E+02 -0.48384065784E+03 -0.66031624547E+03  0.82251435305E+03  0.79236897167E+02 0.  0.
        254    2    1    2    0    0  0.11491253017E+02  0.48384065784E+03  0.29373959477E+03  0.10840356218E+04  0.92445467636E+03 0.  0.
         23    2    4    4    0    0  0.28117140316E+03  0.52379124100E+03 -0.85951714305E+02  0.60771651068E+03  0.92287800160E+02 0.  0.
         23    2    4    4    0    0 -0.26968015015E+03 -0.39950583159E+02  0.37969130908E+03  0.47631911108E+03  0.91602253879E+02 0.  0.
          2    1    3    3  502    0  0.31934854874E+02 -0.17675325968E+03 -0.26300762074E+03  0.31848792494E+03  0.00000000000E+00 0. -1.
         -1    1    3    3    0  502 -0.43426107891E+02 -0.30708739816E+03 -0.39730862473E+03  0.50402642812E+03  0.00000000000E+00 0.  1.
         11    1    5    5    0    0  0.15298846705E+03  0.37617627283E+03 -0.59611563165E+02  0.41044804513E+03  0.00000000000E+00 0. -1.
        -11    1    5    5    0    0  0.12818293611E+03  0.14761496818E+03 -0.26340151140E+02  0.19726846556E+03  0.00000000000E+00 0.  1.
          2    1    6    6  503    0 -0.27411433445E+03 -0.45521556580E+02  0.35614086380E+03  0.45171583471E+03  0.00000000000E+00 0. -1.
         -2    1    6    6    0  503  0.44341843011E+01  0.55709734207E+01  0.23550445281E+02  0.24603276371E+02  0.00000000000E+00 0.  1.
<mgrwt>
<rscale>  0 0.18709768E+04</rscale>
<asrwt>0</asrwt>
<pdfrwt beam="1">  1        2 0.11845949E+00 0.18709768E+04</pdfrwt>
<pdfrwt beam="2">  1       -1 0.17485589E+00 0.18709768E+04</pdfrwt>
<totfact> 0.88030401E+00</totfact>
</mgrwt>
</event>
<event>
12    6  0.1540825E-007  0.1749461E+04  0.7818608E-02  0.8733647E-01
         -1   -1    0    0    0  501 -0.00000000000E+00  0.00000000000E+00  0.44467846795E+03  0.44467846795E+03  0.00000000000E+00 0.  1.
          2   -1    0    0  501    0  0.00000000000E+00 -0.00000000000E+00 -0.17206886060E+04  0.17206886060E+04  0.00000000000E+00 0. -1.
         24    2    1    2    0    0 -0.61848637862E+03 -0.12495757844E+03 -0.33494280520E+03  0.71870902807E+03  0.78842801380E+02 0.  0.
        254    2    1    2    0    0  0.61848637862E+03  0.12495757844E+03 -0.94106733288E+03  0.14466580459E+04  0.89948428547E+03 0.  0.
         23    2    4    4    0    0 -0.16225914527E+03 -0.16654903428E+03 -0.30456671400E+03  0.39407236908E+03  0.92008356945E+02 0.  0.
         23    2    4    4    0    0  0.78074552389E+03  0.29150661272E+03 -0.63650061887E+03  0.10525856768E+04  0.90905945219E+02 0.  0.
          4    1    3    3  502    0 -0.38624556869E+03 -0.84892660314E+02 -0.25169187730E+03  0.46876561756E+03  0.00000000000E+00 0. -1.
         -3    1    3    3    0  502 -0.23224080993E+03 -0.40064918124E+02 -0.83250927893E+02  0.24994341051E+03  0.00000000000E+00 0.  1.
         11    1    5    5    0    0  0.22459948455E+01  0.30249663585E+01  0.39675734433E+01  0.54714306487E+01  0.00000000000E+00 0.  1.
        -11    1    5    5    0    0 -0.16450514012E+03 -0.16957400064E+03 -0.30853428745E+03  0.38860093843E+03  0.00000000000E+00 0. -1.
          2    1    6    6  503    0  0.28318118171E+02  0.24243539672E+02 -0.47424250252E+02  0.60321841356E+02  0.00000000000E+00 0.  1.
         -2    1    6    6    0  503  0.75242740572E+03  0.26726307305E+03 -0.58907636862E+03  0.99226383546E+03  0.00000000000E+00 0. -1.
<mgrwt>
<rscale>  0 0.17494607E+04</rscale>
<asrwt>0</asrwt>
<pdfrwt beam="1">  1        2 0.26472132E+00 0.17494607E+04</pdfrwt>
<pdfrwt beam="2">  1       -1 0.68412073E-01 0.17494607E+04</pdfrwt>
<totfact> 0.22299800E+01</totfact>
</mgrwt>
</event>
<event>
12    6  0.1540825E-007  0.1135783E+04  0.7818608E-02  0.9171001E-01
          2   -1    0    0  501    0  0.00000000000E+00  0.00000000000E+00  0.34627077128E+04  0.34627077128E+04  0.00000000000E+00 0. -1.
         -1   -1    0    0    0  501 -0.00000000000E+00 -0.00000000000E+00 -0.93135355412E+02  0.93135355412E+02  0.00000000000E+00 0.  1.
         24    2    1    2    0    0 -0.10291323605E+03  0.12129558663E+02  0.11702828057E+03  0.17509338963E+03  0.78891167381E+02 0.  0.
        254    2    1    2    0    0  0.10291323605E+03 -0.12129558663E+02  0.32525440768E+04  0.33807496785E+04  0.91634445338E+03 0.  0.
         23    2    4    4    0    0 -0.32280767044E+03  0.21836515179E+03  0.18826710864E+04  0.19248551764E+04  0.93428577305E+02 0.  0.
         23    2    4    4    0    0  0.42572090649E+03 -0.23049471046E+03  0.13698729904E+04  0.14558945021E+04  0.93331075957E+02 0.  0.
          4    1    3    3  502    0 -0.10641360651E+03  0.23226756226E+02  0.12099675336E+03  0.16279911602E+03  0.00000000000E+00 0. -1.
         -3    1    3    3    0  502  0.35003704587E+01 -0.11097197563E+02 -0.39684727915E+01  0.12294273602E+02  0.00000000000E+00 0.  1.
         11    1    5    5    0    0 -0.83453360696E+02  0.98777525700E+02  0.49415305426E+03  0.51079223176E+03  0.00000000000E+00 0. -1.
        -11    1    5    5    0    0 -0.23935430974E+03  0.11958762610E+03  0.13885180322E+04  0.14140629447E+04  0.00000000000E+00 0.  1.
          1    1    6    6  503    0  0.35314267900E+03 -0.20853113238E+03  0.12330457452E+04  0.12994601935E+04  0.00000000000E+00 0. -1.
         -1    1    6    6    0  503  0.72578227492E+02 -0.21963578080E+02  0.13682724518E+03  0.15643430855E+03  0.00000000000E+00 0.  1.
<mgrwt>
<rscale>  0 0.11357826E+04</rscale>
<asrwt>0</asrwt>
<pdfrwt beam="1">  1        2 0.53272416E+00 0.11357826E+04</pdfrwt>
<pdfrwt beam="2">  1       -1 0.14328519E-01 0.11357826E+04</pdfrwt>
<totfact> 0.35525360E+01</totfact>
</mgrwt>
</event>
<event>
12    6  0.1540825E-007  0.2726098E+04  0.7818608E-02  0.8326586E-01
          2   -1    0    0  501    0  0.00000000000E+00  0.00000000000E+00  0.26059135031E+04  0.26059135031E+04  0.00000000000E+00 0. -1.
         -1   -1    0    0    0  501 -0.00000000000E+00 -0.00000000000E+00 -0.71295659685E+03  0.71295659685E+03  0.00000000000E+00 0.  1.
         24    2    1    2    0    0  0.33933956667E+03 -0.57626610149E+03  0.20962529263E+04  0.22018465809E+04  0.81351542367E+02 0.  0.
        254    2    1    2    0    0 -0.33933956667E+03  0.57626610149E+03 -0.20329602001E+03  0.11170235191E+04  0.87130838931E+03 0.  0.
         23    2    4    4    0    0  0.21103938546E+03 -0.11205442381E+02  0.97999928233E+02  0.25241768296E+03  0.97198336320E+02 0.  0.
         23    2    4    4    0    0 -0.55037895212E+03  0.58747154387E+03 -0.30129594824E+03  0.86460583616E+03  0.93403413699E+02 0.  0.
          2    1    3    3  502    0  0.22521231489E+03 -0.39201249784E+03  0.12881211808E+04  0.13651558745E+04  0.00000000000E+00 0. -1.
         -1    1    3    3    0  502  0.11412725178E+03 -0.18425360365E+03  0.80813174546E+03  0.83669070634E+03  0.00000000000E+00 0.  1.
         11    1    5    5    0    0  0.21953917002E+02  0.31856671458E+02  0.15980739555E+02  0.41859360063E+02  0.00000000000E+00 0.  1.
        -11    1    5    5    0    0  0.18908546846E+03 -0.43062113839E+02  0.82019188678E+02  0.21055832290E+03  0.00000000000E+00 0. -1.
          3    1    6    6  503    0 -0.48214387498E+03  0.55394081470E+03 -0.27356506616E+03  0.78367785970E+03  0.00000000000E+00 0. -1.
         -3    1    6    6    0  503 -0.68235077145E+02  0.33530729177E+02 -0.27730882078E+02  0.80927976454E+02  0.00000000000E+00 0.  1.
<mgrwt>
<rscale>  0 0.27260985E+04</rscale>
<asrwt>0</asrwt>
<pdfrwt beam="1">  1        2 0.40090976E+00 0.27260985E+04</pdfrwt>
<pdfrwt beam="2">  1       -1 0.10968563E+00 0.27260985E+04</pdfrwt>
<totfact> 0.23080003E+00</totfact>
</mgrwt>
</event>
<event>
12    6  0.1540825E-007  0.1283514E+04  0.7818608E-02  0.9042742E-01
         -1   -1    0    0    0  501 -0.00000000000E+00  0.00000000000E+00  0.22064239798E+03  0.22064239798E+03  0.00000000000E+00 0.  1.
          2   -1    0    0  501    0  0.00000000000E+00 -0.00000000000E+00 -0.18666050802E+04  0.18666050802E+04  0.00000000000E+00 0. -1.
         24    2    1    2    0    0 -0.13233311107E+01 -0.31857592696E+03 -0.41039550264E+03  0.52535942520E+03  0.78010798084E+02 0.  0.
        254    2    1    2    0    0  0.13233311107E+01  0.31857592696E+03 -0.12355671796E+04  0.15618880530E+04  0.90076393263E+03 0.  0.
         23    2    4    4    0    0 -0.51879017425E+02  0.41329422207E+03 -0.13265745082E+04  0.13933847463E+04  0.90650863560E+02 0.  0.
         23    2    4    4    0    0  0.53202348536E+02 -0.94718295107E+02  0.91007328584E+02  0.16850330667E+03  0.91153635061E+02 0.  0.
          4    1    3    3  502    0  0.81215150757E+01 -0.24825610937E+03 -0.26287410922E+03  0.36166262199E+03  0.00000000000E+00 0. -1.
         -3    1    3    3    0  502 -0.94448461865E+01 -0.70319817590E+02 -0.14752139341E+03  0.16369680321E+03  0.00000000000E+00 0.  1.
         11    1    5    5    0    0 -0.57832065296E+02  0.40654695291E+03 -0.12374026621E+04  0.13037600703E+04  0.00000000000E+00 0.  1.
        -11    1    5    5    0    0  0.59530478712E+01  0.67472691636E+01 -0.89171846111E+02  0.89624676060E+02  0.00000000000E+00 0. -1.
          1    1    6    6  503    0 -0.14827518202E+02 -0.29326699553E+02 -0.57386308272E+01  0.33359293854E+02  0.00000000000E+00 0. -1.
         -1    1    6    6    0  503  0.68029866737E+02 -0.65391595554E+02  0.96745959411E+02  0.13514401282E+03  0.00000000000E+00 0.  1.
<mgrwt>
<rscale>  0 0.12835143E+04</rscale>
<asrwt>0</asrwt>
<pdfrwt beam="1">  1        2 0.28717000E+00 0.12835143E+04</pdfrwt>
<pdfrwt beam="2">  1       -1 0.33944986E-01 0.12835143E+04</pdfrwt>
<totfact> 0.72641335E+01</totfact>
</mgrwt>
</event>
<event>
12    6  0.1540825E-007  0.1941704E+04  0.7818608E-02  0.8634372E-01
          2   -1    0    0  501    0  0.00000000000E+00  0.00000000000E+00  0.20362381185E+04  0.20362381185E+04  0.00000000000E+00 0. -1.
         -1   -1    0    0    0  501 -0.00000000000E+00 -0.00000000000E+00 -0.46288965051E+03  0.46288965051E+03  0.00000000000E+00 0.  1.
         24    2    1    2    0    0 -0.71674399503E+03 -0.35910623271E+02  0.93752938667E+03  0.11836483277E+04  0.83967169707E+02 0.  0.
        254    2    1    2    0    0  0.71674399503E+03  0.35910623271E+02  0.63581908133E+03  0.13154794413E+04  0.90067126577E+03 0.  0.
         23    2    4    4    0    0  0.66560769350E+03  0.25788688181E+03  0.10009701408E+03  0.72641247183E+03  0.90091184664E+02 0.  0.
         23    2    4    4    0    0  0.51136301535E+02 -0.22197625854E+03  0.53572206725E+03  0.58906696945E+03  0.90074305302E+02 0.  0.
          2    1    3    3  502    0 -0.70872418823E+03 -0.36693358852E+02  0.93720942913E+03  0.11755840640E+04  0.00000000000E+00 0. -1.
         -1    1    3    3    0  502 -0.80198068084E+01  0.78273558090E+00  0.31995754728E+00  0.80642637026E+01  0.00000000000E+00 0.  1.
         11    1    5    5    0    0  0.44672286166E+03  0.13646409782E+03  0.38811257012E+02  0.46871108243E+03  0.00000000000E+00 0. -1.
        -11    1    5    5    0    0  0.21888483184E+03  0.12142278398E+03  0.61285757072E+02  0.25770138940E+03  0.00000000000E+00 0.  1.
          2    1    6    6  503    0  0.47313031635E+01 -0.12387813052E+03  0.37646469518E+03  0.39635065682E+03  0.00000000000E+00 0. -1.
         -2    1    6    6    0  503  0.46404998372E+02 -0.98098128016E+02  0.15925737207E+03  0.19271631263E+03  0.00000000000E+00 0.  1.
<mgrwt>
<rscale>  0 0.19417039E+04</rscale>
<asrwt>0</asrwt>
<pdfrwt beam="1">  1        2 0.31326740E+00 0.19417039E+04</pdfrwt>
<pdfrwt beam="2">  1       -1 0.71213794E-01 0.19417039E+04</pdfrwt>
<totfact> 0.13498220E+01</totfact>
</mgrwt>
</event>
<event>
12    6  0.1540825E-007  0.1923385E+04  0.7818608E-02  0.8643303E-01
         -1   -1    0    0    0  501 -0.00000000000E+00  0.00000000000E+00  0.10562169165E+04  0.10562169165E+04  0.00000000000E+00 0.  1.
          2   -1    0    0  501    0  0.00000000000E+00 -0.00000000000E+00 -0.87562716763E+03  0.87562716763E+03  0.00000000000E+00 0. -1.
         24    2    1    2    0    0 -0.69742206016E+03 -0.12870976409E+03  0.31777372532E+03  0.78125369785E+03  0.80084121518E+02 0.  0.
        254    2    1    2    0    0  0.69742206016E+03  0.12870976409E+03 -0.13718397644E+03  0.11505903863E+04  0.89558643371E+03 0.  0.
         23    2    4    4    0    0  0.23457518875E+03  0.91019920187E+02 -0.49135472034E+03  0.55924986126E+03  0.89558925156E+02 0.  0.
         23    2    4    4    0    0  0.46284687141E+03  0.37689843899E+02  0.35417074389E+03  0.59134052502E+03  0.92730523536E+02 0.  0.
          4    1    3    3  502    0 -0.52409683373E+03 -0.79173985198E+02  0.26957312222E+03  0.59465593353E+03  0.00000000000E+00 0. -1.
         -3    1    3    3    0  502 -0.17332522644E+03 -0.49535778887E+02  0.48200603097E+02  0.18659776432E+03  0.00000000000E+00 0.  1.
         11    1    5    5    0    0  0.16427207846E+03  0.54666436807E+02 -0.24140860750E+03  0.29707213072E+03  0.00000000000E+00 0. -1.
        -11    1    5    5    0    0  0.70303110291E+02  0.36353483380E+02 -0.24994611283E+03  0.26217773054E+03  0.00000000000E+00 0.  1.
          3    1    6    6  503    0  0.75585525799E+02  0.17315293188E+02  0.10448026711E+03  0.13011194143E+03  0.00000000000E+00 0. -1.
         -3    1    6    6    0  503  0.38726134561E+03  0.20374550711E+02  0.24969047678E+03  0.46122858359E+03  0.00000000000E+00 0.  1.
<mgrwt>
<rscale>  0 0.19233848E+04</rscale>
<asrwt>0</asrwt>
<pdfrwt beam="1">  1        2 0.13471187E+00 0.19233848E+04</pdfrwt>
<pdfrwt beam="2">  1       -1 0.16249491E+00 0.19233848E+04</pdfrwt>
<totfact> 0.90945269E+00</totfact>
</mgrwt>
</event>
<event>
12    6  0.1540825E-007  0.1786013E+04  0.7818608E-02  0.8713773E-01
         -1   -1    0    0    0  501 -0.00000000000E+00  0.00000000000E+00  0.44364196467E+03  0.44364196467E+03  0.00000000000E+00 0.  1.
          2   -1    0    0  501    0  0.00000000000E+00 -0.00000000000E+00 -0.17975312639E+04  0.17975312639E+04  0.00000000000E+00 0. -1.
         24    2    1    2    0    0 -0.34756660657E+03  0.56507541477E+03 -0.62641409485E+03  0.91566792710E+03  0.77073757594E+02 0.  0.
        254    2    1    2    0    0  0.34756660657E+03 -0.56507541477E+03 -0.72747520434E+03  0.13255053014E+04  0.88748597781E+03 0.  0.
         23    2    4    4    0    0 -0.51475377532E+01 -0.23985113363E+03  0.16706146644E+03  0.30609757922E+03  0.90725580663E+02 0.  0.
         23    2    4    4    0    0  0.35271414432E+03 -0.32522428114E+03 -0.89453667078E+03  0.10194077222E+04  0.93904995019E+02 0.  0.
          4    1    3    3  502    0 -0.31493419191E+03  0.54139639283E+03 -0.60079407222E+03  0.86789810267E+03  0.00000000000E+00 0. -1.
         -3    1    3    3    0  502 -0.32632414658E+02  0.23679021944E+02 -0.25620022638E+02  0.47769824435E+02  0.00000000000E+00 0.  1.
         11    1    5    5    0    0  0.23581498258E+02 -0.21810541486E+03  0.15280376824E+03  0.26734818241E+03  0.00000000000E+00 0. -1.
        -11    1    5    5    0    0 -0.28729036011E+02 -0.21745718770E+02  0.14257698202E+02  0.38749396808E+02  0.00000000000E+00 0.  1.
          3    1    6    6  503    0  0.24888338962E+03 -0.27741529460E+03 -0.64497658974E+03  0.74491408136E+03  0.00000000000E+00 0. -1.
         -3    1    6    6    0  503  0.10383075471E+03 -0.47808986542E+02 -0.24956008104E+03  0.27449364085E+03  0.00000000000E+00 0.  1.
<mgrwt>
<rscale>  0 0.17860127E+04</rscale>
<asrwt>0</asrwt>
<pdfrwt beam="1">  1        2 0.27654327E+00 0.17860127E+04</pdfrwt>
<pdfrwt beam="2">  1       -1 0.68252610E-01 0.17860127E+04</pdfrwt>
<totfact> 0.20247534E+01</totfact>
</mgrwt>
</event>
<event>
12    6  0.1540825E-007  0.1727906E+04  0.7818608E-02  0.8745606E-01
          2   -1    0    0  501    0  0.00000000000E+00  0.00000000000E+00  0.31486154069E+04  0.31486154069E+04  0.00000000000E+00 0. -1.
         -1   -1    0    0    0  501 -0.00000000000E+00 -0.00000000000E+00 -0.23706138135E+03  0.23706138135E+03  0.00000000000E+00 0.  1.
         24    2    1    2    0    0 -0.21908386892E+02  0.20263746395E+03 -0.95077871602E+02  0.23887629208E+03  0.80499453639E+02 0.  0.
        254    2    1    2    0    0  0.21908386892E+02 -0.20263746395E+03  0.30066318971E+04  0.31468004961E+04  0.90607730275E+03 0.  0.
         23    2    4    4    0    0 -0.15834552308E+03 -0.51777905132E+03  0.19458531874E+04  0.20218911589E+04  0.92362225827E+02 0.  0.
         23    2    4    4    0    0  0.18025390997E+03  0.31514158737E+03  0.10607787097E+04  0.11249093373E+04  0.91454108367E+02 0.  0.
          2    1    3    3  502    0 -0.18099055343E+02  0.18739722132E+03 -0.55475968183E+02  0.19627245708E+03  0.00000000000E+00 0. -1.
         -1    1    3    3    0  502 -0.38093315496E+01  0.15240242636E+02 -0.39601903420E+02  0.42603835002E+02  0.00000000000E+00 0.  1.
         11    1    5    5    0    0 -0.92423615879E+02 -0.26816370646E+03  0.85162349725E+03  0.89761711175E+03  0.00000000000E+00 0. -1.
        -11    1    5    5    0    0 -0.65921907196E+02 -0.24961534486E+03  0.10942296901E+04  0.11242740471E+04  0.00000000000E+00 0.  1.
          4    1    6    6  503    0  0.18411923484E+03  0.28951870198E+03  0.10237419836E+04  0.10797076551E+04  0.00000000000E+00 0. -1.
         -4    1    6    6    0  503 -0.38653248751E+01  0.25622885386E+02  0.37036726117E+02  0.45201682196E+02  0.00000000000E+00 0.  1.
<mgrwt>
<rscale>  0 0.17279064E+04</rscale>
<asrwt>0</asrwt>
<pdfrwt beam="1">  1        2 0.48440234E+00 0.17279064E+04</pdfrwt>
<pdfrwt beam="2">  1       -1 0.36470984E-01 0.17279064E+04</pdfrwt>
<totfact> 0.10971114E+01</totfact>
</mgrwt>
</event>
<event>
12    6  0.1540825E-007  0.2031294E+04  0.7818608E-02  0.8592128E-01
         -3   -1    0    0    0  501 -0.00000000000E+00  0.00000000000E+00  0.10001205207E+04  0.10001205207E+04  0.00000000000E+00 0.  1.
          4   -1    0    0  501    0  0.00000000000E+00 -0.00000000000E+00 -0.10314144151E+04  0.10314144151E+04  0.00000000000E+00 0. -1.
         24    2    1    2    0    0 -0.36417640671E+03  0.17796763655E+03  0.69722464637E+03  0.81021489141E+03  0.77646815092E+02 0.  0.
        254    2    1    2    0    0  0.36417640671E+03 -0.17796763655E+03 -0.72851854075E+03  0.12213200445E+04  0.89251691969E+03 0.  0.
         23    2    4    4    0    0 -0.28935810660E+03 -0.65812751047E+02 -0.22173060423E+03  0.38168094155E+03  0.91958948625E+02 0.  0.
         23    2    4    4    0    0  0.65353451331E+03 -0.11215488550E+03 -0.50678793653E+03  0.83963910292E+03  0.92052876699E+02 0.  0.
          2    1    3    3  502    0 -0.12324107045E+03  0.85735375798E+02  0.31667808601E+03  0.35046244630E+03  0.00000000000E+00 0. -1.
         -1    1    3    3    0  502 -0.24093533626E+03  0.92232260753E+02  0.38054656036E+03  0.45975244511E+03  0.00000000000E+00 0.  1.
         11    1    5    5    0    0 -0.88037903861E+02 -0.64281755578E+02 -0.69487856304E+02  0.12927249820E+03  0.00000000000E+00 0. -1.
        -11    1    5    5    0    0 -0.20132020274E+03 -0.15309954695E+01 -0.15224274792E+03  0.25240844335E+03  0.00000000000E+00 0.  1.
          1    1    6    6  503    0  0.59465805199E+03 -0.75003716186E+02 -0.46328781296E+03  0.75754825184E+03  0.00000000000E+00 0. -1.
         -1    1    6    6    0  503  0.58876461325E+02 -0.37151169317E+02 -0.43500123566E+02  0.82090851074E+02  0.00000000000E+00 0.  1.
<mgrwt>
<rscale>  0 0.20312939E+04</rscale>
<asrwt>0</asrwt>
<pdfrwt beam="1">  1        4 0.15867914E+00 0.20312939E+04</pdfrwt>
<pdfrwt beam="2">  1       -3 0.15386469E+00 0.20312939E+04</pdfrwt>
<totfact> 0.16355942E-01</totfact>
</mgrwt>
</event>
<event>
12    6  0.1540825E-007  0.2288052E+04  0.7818608E-02  0.8482647E-01
         -1   -1    0    0    0  501 -0.00000000000E+00  0.00000000000E+00  0.94471203230E+03  0.94471203230E+03  0.00000000000E+00 0.  1.
          2   -1    0    0  501    0  0.00000000000E+00 -0.00000000000E+00 -0.13853915022E+04  0.13853915022E+04  0.00000000000E+00 0. -1.
         24    2    1    2    0    0  0.78784976023E+03 -0.49966345528E+03  0.72845844200E+02  0.93923985273E+03  0.80586417605E+02 0.  0.
        254    2    1    2    0    0 -0.78784976023E+03  0.49966345528E+03 -0.51352531410E+03  0.13908636818E+04  0.89466346736E+03 0.  0.
         23    2    4    4    0    0  0.93844315572E+02 -0.14747971353E+03 -0.78714139959E+02  0.21046467356E+03  0.86847230931E+02 0.  0.
         23    2    4    4    0    0 -0.88169407580E+03  0.64714316881E+03 -0.43481117415E+03  0.11803990082E+04  0.90012983499E+02 0.  0.
          2    1    3    3  502    0  0.30005274334E+02 -0.20428600714E+02 -0.12826822922E+02  0.38498981821E+02  0.00000000000E+00 0. -1.
         -1    1    3    3    0  502  0.75784448589E+03 -0.47923485457E+03  0.85672667122E+02  0.90074087091E+03  0.00000000000E+00 0.  1.
         11    1    5    5    0    0  0.93619533723E+02 -0.12381100901E+03 -0.94767610575E+02  0.18186446343E+03  0.00000000000E+00 0. -1.
        -11    1    5    5    0    0  0.22478184927E+00 -0.23668704519E+02  0.16053470616E+02  0.28600210127E+02  0.00000000000E+00 0.  1.
          2    1    6    6  503    0 -0.31124690356E+03  0.17995917994E+03 -0.12537968892E+03  0.38076240336E+03  0.00000000000E+00 0. -1.
         -2    1    6    6    0  503 -0.57044717223E+03  0.46718398887E+03 -0.30943148523E+03  0.79963660485E+03  0.00000000000E+00 0.  1.
<mgrwt>
<rscale>  0 0.22880525E+04</rscale>
<asrwt>0</asrwt>
<pdfrwt beam="1">  1        2 0.21313716E+00 0.22880525E+04</pdfrwt>
<pdfrwt beam="2">  1       -1 0.14534031E+00 0.22880525E+04</pdfrwt>
<totfact> 0.57926355E+00</totfact>
</mgrwt>
</event>
<event>
12    6  0.1540825E-007  0.1773978E+04  0.7818608E-02  0.8720261E-01
          2   -1    0    0  501    0  0.00000000000E+00  0.00000000000E+00  0.55270531409E+03  0.55270531409E+03  0.00000000000E+00 0. -1.
         -1   -1    0    0    0  501 -0.00000000000E+00 -0.00000000000E+00 -0.14234523732E+04  0.14234523732E+04  0.00000000000E+00 0.  1.
         24    2    1    2    0    0  0.20474518448E+03 -0.21546205279E+03 -0.97919884949E+03  0.10264225886E+04  0.79802611461E+02 0.  0.
        254    2    1    2    0    0 -0.20474518448E+03  0.21546205279E+03  0.10845179032E+03  0.94973509874E+03  0.89548337795E+03 0.  0.
         23    2    4    4    0    0  0.44043348668E+02  0.48217920746E+03 -0.12365471569E+03  0.50843776047E+03  0.93711594271E+02 0.  0.
         23    2    4    4    0    0 -0.24878853315E+03 -0.26671715467E+03  0.23210650601E+03  0.44129733826E+03  0.88521950970E+02 0.  0.
          4    1    3    3  502    0  0.14327165415E+02 -0.51844225732E+02 -0.23277483796E+03  0.23890838536E+03  0.00000000000E+00 0. -1.
         -3    1    3    3    0  502  0.19041801907E+03 -0.16361782706E+03 -0.74642401153E+03  0.78751420324E+03  0.00000000000E+00 0.  1.
         11    1    5    5    0    0  0.16706707076E+02  0.40986726464E+03 -0.74754374332E+02  0.41696343385E+03  0.00000000000E+00 0.  1.
        -11    1    5    5    0    0  0.27336641592E+02  0.72311942818E+02 -0.48900341354E+02  0.91474326629E+02  0.00000000000E+00 0. -1.
          2    1    6    6  503    0 -0.82017077406E+02 -0.61506869853E+02  0.10892842163E+03  0.14958374599E+03  0.00000000000E+00 0. -1.
         -2    1    6    6    0  503 -0.16677145574E+03 -0.20521028481E+03  0.12317808438E+03  0.29171359227E+03  0.00000000000E+00 0.  1.
<mgrwt>
<rscale>  0 0.17739782E+04</rscale>
<asrwt>0</asrwt>
<pdfrwt beam="1">  1        2 0.85031588E-01 0.17739782E+04</pdfrwt>
<pdfrwt beam="2">  1       -1 0.21899267E+00 0.17739782E+04</pdfrwt>
<totfact> 0.66114561E+00</totfact>
</mgrwt>
</event>
<event>
12    6  0.1540825E-007  0.2834931E+04  0.7818608E-02  0.8292505E-01
         -1   -1    0    0    0  501 -0.00000000000E+00  0.00000000000E+00  0.14439685081E+04  0.14439685081E+04  0.00000000000E+00 0.  1.
          2   -1    0    0  501    0  0.00000000000E+00 -0.00000000000E+00 -0.13914487390E+04  0.13914487390E+04  0.00000000000E+00 0. -1.
         24    2    1    2    0    0  0.38086817460E+03  0.41849392560E+03 -0.11156185307E+04  0.12536263568E+04  0.82320132157E+02 0.  0.
        254    2    1    2    0    0 -0.38086817460E+03 -0.41849392560E+03  0.11681382999E+04  0.15817908903E+04  0.90405619346E+03 0.  0.
         23    2    4    4    0    0 -0.29531654768E+02 -0.49455109053E+03  0.10913255172E+04  0.12020261698E+04  0.91774880464E+02 0.  0.
         23    2    4    4    0    0 -0.35133651983E+03  0.76057164929E+02  0.76812782680E+02  0.37976472052E+03  0.95388662136E+02 0.  0.
          2    1    3    3  502    0  0.35857643537E+03  0.36482752810E+03 -0.96528454530E+03  0.10924515727E+04  0.00000000000E+00 0. -1.
         -1    1    3    3    0  502  0.22291739229E+02  0.53666397500E+02 -0.15033398544E+03  0.16117478412E+03  0.00000000000E+00 0.  1.
         11    1    5    5    0    0 -0.51725014056E+01 -0.12766821513E+03  0.19408561662E+03  0.23236857469E+03  0.00000000000E+00 0. -1.
        -11    1    5    5    0    0 -0.24359153363E+02 -0.36688287539E+03  0.89723990056E+03  0.96965759511E+03  0.00000000000E+00 0.  1.
          4    1    6    6  503    0 -0.24003829455E+03  0.16388300702E+02  0.20422166095E+02  0.24146226230E+03  0.00000000000E+00 0. -1.
         -4    1    6    6    0  503 -0.11129822528E+03  0.59668864227E+02  0.56390616585E+02  0.13830245821E+03  0.00000000000E+00 0.  1.
<mgrwt>
<rscale>  0 0.28349308E+04</rscale>
<asrwt>0</asrwt>
<pdfrwt beam="1">  1        2 0.21406904E+00 0.28349308E+04</pdfrwt>
<pdfrwt beam="2">  1       -1 0.22214900E+00 0.28349308E+04</pdfrwt>
<totfact> 0.15398311E+00</totfact>
</mgrwt>
</event>
<event>
12    6  0.1540825E-007  0.9782371E+03  0.7818608E-02  0.9332741E-01
         -1   -1    0    0    0  501 -0.00000000000E+00  0.00000000000E+00  0.11641056917E+03  0.11641056917E+03  0.00000000000E+00 0.  1.
          2   -1    0    0  501    0  0.00000000000E+00 -0.00000000000E+00 -0.20551136449E+04  0.20551136449E+04  0.00000000000E+00 0. -1.
         24    2    1    2    0    0 -0.10353999106E+03 -0.21338035211E+01 -0.41525739924E+03  0.43509473576E+03  0.78381366418E+02 0.  0.
        254    2    1    2    0    0  0.10353999106E+03  0.21338035211E+01 -0.15234456765E+04  0.17364294783E+04  0.82678626079E+03 0.  0.
         23    2    4    4    0    0  0.16133681398E+03  0.33548715889E+03 -0.12010935753E+04  0.12608484411E+04  0.92367815083E+02 0.  0.
         23    2    4    4    0    0 -0.57796822920E+02 -0.33335335537E+03 -0.32235210118E+03  0.47558103727E+03  0.88326177336E+02 0.  0.
          2    1    3    3  502    0 -0.11498885748E+03  0.48433511660E+01 -0.38814122336E+03  0.40484503784E+03  0.00000000000E+00 0. -1.
         -1    1    3    3    0  502  0.11448866425E+02 -0.69771546871E+01 -0.27116175878E+02  0.30249697919E+02  0.00000000000E+00 0.  1.
         11    1    5    5    0    0  0.14188995633E+03  0.24995819427E+03 -0.10185260627E+04  0.10583039256E+04  0.00000000000E+00 0.  1.
        -11    1    5    5    0    0  0.19446857648E+02  0.85528964615E+02 -0.18256751268E+03  0.20254451547E+03  0.00000000000E+00 0. -1.
          2    1    6    6  503    0 -0.38120510326E+02 -0.11806719833E+03 -0.66989477521E+02  0.14099867633E+03  0.00000000000E+00 0.  1.
         -2    1    6    6    0  503 -0.19676312594E+02 -0.21528615704E+03 -0.25536262366E+03  0.33458236094E+03  0.00000000000E+00 0. -1.
<mgrwt>
<rscale>  0 0.97823709E+03</rscale>
<asrwt>0</asrwt>
<pdfrwt beam="1">  1        2 0.31617133E+00 0.97823709E+03</pdfrwt>
<pdfrwt beam="2">  1       -1 0.17909318E-01 0.97823709E+03</pdfrwt>
<totfact> 0.17514723E+02</totfact>
</mgrwt>
</event>
<event>
12    6  0.1540825E-007  0.1210851E+04  0.7818608E-02  0.9103411E-01
         -1   -1    0    0    0  501 -0.00000000000E+00  0.00000000000E+00  0.26805378359E+03  0.26805378359E+03  0.00000000000E+00 0.  1.
          2   -1    0    0  501    0  0.00000000000E+00 -0.00000000000E+00 -0.13674126878E+04  0.13674126878E+04  0.00000000000E+00 0. -1.
         24    2    1    2    0    0  0.23244055042E+03 -0.17138037217E+02 -0.32714312823E+03  0.40937702344E+03  0.79022776294E+02 0.  0.
        254    2    1    2    0    0 -0.23244055042E+03  0.17138037217E+02 -0.77221577597E+03  0.12260894479E+04  0.92339363649E+03 0.  0.
         23    2    4    4    0    0 -0.49920102914E+03 -0.17568009053E+03 -0.68840832440E+03  0.87370812683E+03  0.96926302341E+02 0.  0.
         23    2    4    4    0    0  0.26676047872E+03  0.19281812774E+03 -0.83807451573E+02  0.35238132111E+03  0.93855863622E+02 0.  0.
          2    1    3    3  502    0  0.16768766787E+03 -0.42548378730E+02 -0.26273034715E+03  0.31457392423E+03  0.00000000000E+00 0. -1.
         -1    1    3    3    0  502  0.64752882551E+02  0.25410341513E+02 -0.64412781078E+02  0.94803099215E+02  0.00000000000E+00 0.  1.
         11    1    5    5    0    0 -0.44518270391E+03 -0.15498445851E+03 -0.65473197676E+03  0.80677244848E+03  0.00000000000E+00 0.  1.
        -11    1    5    5    0    0 -0.54018325236E+02 -0.20695632019E+02 -0.33676347640E+02  0.66935678352E+02  0.00000000000E+00 0. -1.
          2    1    6    6  503    0  0.10750656347E+03  0.11310550787E+03 -0.77373054624E+02  0.17417550540E+03  0.00000000000E+00 0. -1.
         -2    1    6    6    0  503  0.15925391525E+03  0.79712619875E+02 -0.64343969488E+01  0.17820581571E+03  0.00000000000E+00 0.  1.
<mgrwt>
<rscale>  0 0.12108512E+04</rscale>
<asrwt>0</asrwt>
<pdfrwt beam="1">  1        2 0.21037118E+00 0.12108512E+04</pdfrwt>
<pdfrwt beam="2">  1       -1 0.41239044E-01 0.12108512E+04</pdfrwt>
<totfact> 0.97720072E+01</totfact>
</mgrwt>
</event>
<event>
12    6  0.1540825E-007  0.1450276E+04  0.7818608E-02  0.8918209E-01
         -1   -1    0    0    0  501 -0.00000000000E+00  0.00000000000E+00  0.98781249654E+03  0.98781249654E+03  0.00000000000E+00 0.  1.
          2   -1    0    0  501    0  0.00000000000E+00 -0.00000000000E+00 -0.53231259629E+03  0.53231259629E+03  0.00000000000E+00 0. -1.
         24    2    1    2    0    0  0.33408881999E+03 -0.23258117729E+03 -0.30448580985E+02  0.41559201129E+03  0.77976022518E+02 0.  0.
        254    2    1    2    0    0 -0.33408881999E+03  0.23258117729E+03  0.48594848123E+03  0.11045330815E+04  0.90450984413E+03 0.  0.
         23    2    4    4    0    0 -0.32359079169E+02 -0.31235068343E+03  0.31125957493E+03  0.45145518883E+03  0.91209676527E+02 0.  0.
         23    2    4    4    0    0 -0.30172974083E+03  0.54493186072E+03  0.17468890630E+03  0.65307789272E+03  0.89459212196E+02 0.  0.
          4    1    3    3  502    0  0.43549159698E+02 -0.20374458169E+02 -0.28321605720E+02  0.55801086070E+02  0.00000000000E+00 0. -1.
         -3    1    3    3    0  502  0.29053966030E+03 -0.21220671912E+03 -0.21269752647E+01  0.35979092522E+03  0.00000000000E+00 0.  1.
         11    1    5    5    0    0  0.62103089084E+01 -0.24775245830E+03  0.20713574465E+03  0.32299390899E+03  0.00000000000E+00 0. -1.
        -11    1    5    5    0    0 -0.38569388078E+02 -0.64598225125E+02  0.10412383028E+03  0.12846127984E+03  0.00000000000E+00 0.  1.
          3    1    6    6  503    0 -0.20947277590E+03  0.30130552569E+03  0.77714282393E+02  0.37510448323E+03  0.00000000000E+00 0. -1.
         -3    1    6    6    0  503 -0.92256964921E+02  0.24362633503E+03  0.96974623912E+02  0.27797340948E+03  0.00000000000E+00 0.  1.
<mgrwt>
<rscale>  0 0.14502759E+04</rscale>
<asrwt>0</asrwt>
<pdfrwt beam="1">  1        2 0.81894246E-01 0.14502759E+04</pdfrwt>
<pdfrwt beam="2">  1       -1 0.15197115E+00 0.14502759E+04</pdfrwt>
<totfact> 0.21364931E+01</totfact>
</mgrwt>
</event>
<event>
12    6  0.1540825E-007  0.1367672E+04  0.7818608E-02  0.8977557E-01
          2   -1    0    0  501    0  0.00000000000E+00  0.00000000000E+00  0.41414549372E+04  0.41414549372E+04  0.00000000000E+00 0. -1.
         -1   -1    0    0    0  501 -0.00000000000E+00 -0.00000000000E+00 -0.11291481992E+03  0.11291481992E+03  0.00000000000E+00 0.  1.
         24    2    1    2    0    0 -0.32872989481E+03 -0.82812350195E+02  0.59576930786E+03  0.68989000731E+03  0.78012338188E+02 0.  0.
        254    2    1    2    0    0  0.32872989481E+03  0.82812350195E+02  0.34327708094E+04  0.35644797498E+04  0.89815323173E+03 0.  0.
         23    2    4    4    0    0  0.11902929971E+03  0.45747434927E+03  0.22921920333E+04  0.23423247193E+04  0.94286893384E+02 0.  0.
         23    2    4    4    0    0  0.20970059510E+03 -0.37466199907E+03  0.11405787761E+04  0.12221550306E+04  0.91635261452E+02 0.  0.
          2    1    3    3  502    0 -0.13867900182E+03 -0.65850684785E+02  0.31504935760E+03  0.35046294520E+03  0.00000000000E+00 0. -1.
         -1    1    3    3    0  502 -0.19005089299E+03 -0.16961665410E+02  0.28071995026E+03  0.33942706211E+03  0.00000000000E+00 0.  1.
         11    1    5    5    0    0  0.67651648915E+02  0.39231286664E+03  0.19490637138E+04  0.19893052786E+04  0.00000000000E+00 0.  1.
        -11    1    5    5    0    0  0.51377650795E+02  0.65161482624E+02  0.34312831957E+03  0.35301944069E+03  0.00000000000E+00 0. -1.
          1    1    6    6  503    0  0.28221158847E+02 -0.10691111729E+02  0.52573221270E+02  0.60619116386E+02  0.00000000000E+00 0. -1.
         -1    1    6    6    0  503  0.18147943625E+03 -0.36397088734E+03  0.10880055548E+04  0.11615359142E+04  0.00000000000E+00 0.  1.
<mgrwt>
<rscale>  0 0.13676719E+04</rscale>
<asrwt>0</asrwt>
<pdfrwt beam="1">  1        2 0.63714680E+00 0.13676719E+04</pdfrwt>
<pdfrwt beam="2">  1       -1 0.17371514E-01 0.13676719E+04</pdfrwt>
<totfact> 0.77573611E+00</totfact>
</mgrwt>
</event>
<event>
12    6  0.1540825E-007  0.1055846E+04  0.7818608E-02  0.9249329E-01
         -1   -1    0    0    0  501 -0.00000000000E+00  0.00000000000E+00  0.38579848548E+03  0.38579848548E+03  0.00000000000E+00 0.  1.
          2   -1    0    0  501    0  0.00000000000E+00 -0.00000000000E+00 -0.72240527425E+03  0.72240527425E+03  0.00000000000E+00 0. -1.
         24    2    1    2    0    0 -0.79494665462E+02 -0.57696323160E+02  0.28186466049E+02  0.12940516524E+03  0.79391135400E+02 0.  0.
        254    2    1    2    0    0  0.79494665462E+02  0.57696323160E+02 -0.36479325483E+03  0.97879859449E+03  0.90295310081E+03 0.  0.
         23    2    4    4    0    0 -0.28845641307E+03 -0.47077638554E+02  0.14148507950E+03  0.33753711934E+03  0.92140506374E+02 0.  0.
         23    2    4    4    0    0  0.36795107853E+03  0.10477396171E+03 -0.50627833432E+03  0.64126147515E+03  0.92373959856E+02 0.  0.
          4    1    3    3  502    0 -0.66420465901E+02 -0.89710721627E-01  0.22193766901E+02  0.70030347905E+02  0.00000000000E+00 0. -1.
         -3    1    3    3    0  502 -0.13074199561E+02 -0.57606612438E+02  0.59926991489E+01  0.59374817338E+02  0.00000000000E+00 0.  1.
         11    1    5    5    0    0 -0.17647151629E+03 -0.30167231027E+02  0.35686495928E+02  0.18255350963E+03  0.00000000000E+00 0. -1.
        -11    1    5    5    0    0 -0.11198489679E+03 -0.16910407527E+02  0.10579858357E+03  0.15498360970E+03  0.00000000000E+00 0.  1.
          4    1    6    6  503    0  0.31561798212E+03  0.66037654440E+02 -0.37390015697E+03  0.49373779461E+03  0.00000000000E+00 0. -1.
         -4    1    6    6    0  503  0.52333096410E+02  0.38736307274E+02 -0.13237817735E+03  0.14752368054E+03  0.00000000000E+00 0.  1.
<mgrwt>
<rscale>  0 0.10558463E+04</rscale>
<asrwt>0</asrwt>
<pdfrwt beam="1">  1        2 0.11113927E+00 0.10558463E+04</pdfrwt>
<pdfrwt beam="2">  1       -1 0.59353613E-01 0.10558463E+04</pdfrwt>
<totfact> 0.12874294E+02</totfact>
</mgrwt>
</event>
<event>
12    6  0.1540825E-007  0.2439659E+04  0.7818608E-02  0.8424803E-01
          2   -1    0    0  501    0  0.00000000000E+00  0.00000000000E+00  0.13094756846E+04  0.13094756846E+04  0.00000000000E+00 0. -1.
         -1   -1    0    0    0  501 -0.00000000000E+00 -0.00000000000E+00 -0.11363202585E+04  0.11363202585E+04  0.00000000000E+00 0.  1.
         24    2    1    2    0    0 -0.92051433063E+03  0.21711705734E+03 -0.37343250061E+03  0.10200493346E+04  0.81008413280E+02 0.  0.
        254    2    1    2    0    0  0.92051433063E+03 -0.21711705734E+03  0.54658792669E+03  0.14257466085E+04  0.91624700856E+03 0.  0.
         23    2    4    4    0    0  0.99110740054E+03 -0.29998669926E+03  0.66893136713E+03  0.12362570556E+04  0.92609041191E+02 0.  0.
         23    2    4    4    0    0 -0.70593069916E+02  0.82869641916E+02 -0.12234344044E+03  0.18948955292E+03  0.95328978668E+02 0.  0.
          4    1    3    3  502    0 -0.53262216513E+03  0.11830861746E+03 -0.25752690740E+03  0.60332694932E+03  0.00000000000E+00 0. -1.
         -3    1    3    3    0  502 -0.38789216550E+03  0.98808439885E+02 -0.11590559322E+03  0.41672238527E+03  0.00000000000E+00 0.  1.
         11    1    5    5    0    0  0.74800584659E+03 -0.24656555277E+03  0.46613827544E+03  0.91520063930E+03  0.00000000000E+00 0. -1.
        -11    1    5    5    0    0  0.24310155395E+03 -0.53421146488E+02  0.20279309169E+03  0.32105641633E+03  0.00000000000E+00 0.  1.
          4    1    6    6  503    0 -0.79012904474E+02  0.72158012441E+02 -0.54106140905E+02  0.11990534732E+03  0.00000000000E+00 0. -1.
         -4    1    6    6    0  503  0.84198345587E+01  0.10711629475E+02 -0.68237299537E+02  0.69584205594E+02  0.00000000000E+00 0.  1.
<mgrwt>
<rscale>  0 0.24396588E+04</rscale>
<asrwt>0</asrwt>
<pdfrwt beam="1">  1        2 0.20145780E+00 0.24396588E+04</pdfrwt>
<pdfrwt beam="2">  1       -1 0.17481850E+00 0.24396588E+04</pdfrwt>
<totfact> 0.37823783E+00</totfact>
</mgrwt>
</event>
<event>
12    6  0.2404374E-007  0.2005349E+04  0.7818608E-02  0.8604124E-01
          2   -1    0    0  501    0  0.00000000000E+00  0.00000000000E+00  0.17649507117E+04  0.17649507117E+04  0.00000000000E+00 0. -1.
         -1   -1    0    0    0  501 -0.00000000000E+00 -0.00000000000E+00 -0.56962262984E+03  0.56962262984E+03  0.00000000000E+00 0.  1.
         24    2    1    2    0    0 -0.68915823918E+03 -0.34592671965E+02  0.15119827971E+02  0.69493719230E+03  0.81076263253E+02 0.  0.
        254    2    1    2    0    0  0.68915823918E+03  0.34592671965E+02  0.11802082538E+04  0.16396361492E+04  0.90519580627E+03 0.  0.
         23    2    4    4    0    0  0.48230713266E+03 -0.28759212156E+03  0.23529860480E+03  0.61556552604E+03  0.90697766384E+02 0.  0.
         23    2    4    4    0    0  0.20685110652E+03  0.32218479352E+03  0.94490964905E+03  0.10240706232E+04  0.96311862676E+02 0.  0.
          2    1    3    3  502    0 -0.20393224968E+03  0.13932148067E+01 -0.30663398241E+02  0.20622935654E+03  0.00000000000E+00 0. -1.
         -1    1    3    3    0  502 -0.48522598950E+03 -0.35985886771E+02  0.45783226212E+02  0.48870783576E+03  0.00000000000E+00 0.  1.
         11    1    5    5    0    0  0.47589284601E+03 -0.28483961081E+03  0.21627237071E+03  0.59529937267E+03  0.00000000000E+00 0.  1.
        -11    1    5    5    0    0  0.64142866532E+01 -0.27525107433E+01  0.19026234088E+02  0.20266153365E+02  0.00000000000E+00 0. -1.
          2    1    6    6  503    0  0.16137291482E+03  0.28666521771E+03  0.71528212051E+03  0.78730342093E+03  0.00000000000E+00 0.  1.
         -2    1    6    6    0  503  0.45478191699E+02  0.35519575808E+02  0.22962752854E+03  0.23676720222E+03  0.00000000000E+00 0. -1.
<mgrwt>
<rscale>  0 0.20053487E+04</rscale>
<asrwt>0</asrwt>
<pdfrwt beam="1">  1        2 0.27153088E+00 0.20053487E+04</pdfrwt>
<pdfrwt beam="2">  1       -1 0.87634251E-01 0.20053487E+04</pdfrwt>
<totfact> 0.12224309E+01</totfact>
</mgrwt>
</event>
<event>
12    6  0.1540825E-007  0.2381803E+04  0.7818608E-02  0.8446348E-01
          2   -1    0    0  501    0  0.00000000000E+00  0.00000000000E+00  0.20503707307E+04  0.20503707307E+04  0.00000000000E+00 0. -1.
         -1   -1    0    0    0  501 -0.00000000000E+00 -0.00000000000E+00 -0.69170251360E+03  0.69170251360E+03  0.00000000000E+00 0.  1.
         24    2    1    2    0    0  0.85985775133E+03  0.31071839913E+03  0.74826151418E+02  0.92069326400E+03  0.78586623262E+02 0.  0.
        254    2    1    2    0    0 -0.85985775133E+03 -0.31071839913E+03  0.12838420657E+04  0.18213799803E+04  0.91283805078E+03 0.  0.
         23    2    4    4    0    0 -0.42776840319E+03  0.30242525617E+03  0.60396567646E+03  0.80498268166E+03  0.93678904184E+02 0.  0.
         23    2    4    4    0    0 -0.43208934814E+03 -0.61314365530E+03  0.67987638920E+03  0.10163972986E+04  0.90472190540E+02 0.  0.
          2    1    3    3  502    0  0.47851110756E+03  0.15641056815E+03  0.77154669361E+02  0.50930343498E+03  0.00000000000E+00 0. -1.
         -3    1    3    3    0  502  0.38134664377E+03  0.15430783099E+03 -0.23285179424E+01  0.41138982901E+03  0.00000000000E+00 0.  1.
         11    1    5    5    0    0 -0.17859835834E+03  0.12532300122E+03  0.32297312512E+03  0.38976257874E+03  0.00000000000E+00 0.  1.
        -11    1    5    5    0    0 -0.24917004485E+03  0.17710225494E+03  0.28099255135E+03  0.41522010292E+03  0.00000000000E+00 0. -1.
          1    1    6    6  503    0 -0.61114639522E+02 -0.11184069383E+03  0.15950815105E+03  0.20417196236E+03  0.00000000000E+00 0. -1.
         -1    1    6    6    0  503 -0.37097470861E+03 -0.50130296147E+03  0.52036823814E+03  0.81222533627E+03  0.00000000000E+00 0.  1.
<mgrwt>
<rscale>  0 0.23818032E+04</rscale>
<asrwt>0</asrwt>
<pdfrwt beam="1">  1        2 0.31544165E+00 0.23818032E+04</pdfrwt>
<pdfrwt beam="2">  1       -1 0.10641577E+00 0.23818032E+04</pdfrwt>
<totfact> 0.52954904E+00</totfact>
</mgrwt>
</event>
<event>
12    6  0.1540825E-007  0.3104373E+04  0.7818608E-02  0.8214539E-01
         -1   -1    0    0    0  501 -0.00000000000E+00  0.00000000000E+00  0.86583846063E+03  0.86583846063E+03  0.00000000000E+00 0.  1.
          2   -1    0    0  501    0  0.00000000000E+00 -0.00000000000E+00 -0.27826001964E+04  0.27826001964E+04  0.00000000000E+00 0. -1.
         24    2    1    2    0    0 -0.21558025047E+03 -0.10194733193E+04  0.25507315710E+03  0.10758219994E+04  0.80808203995E+02 0.  0.
        254    2    1    2    0    0  0.21558025047E+03  0.10194733193E+04 -0.21718348928E+04  0.25726166576E+04  0.90315500999E+03 0.  0.
         23    2    4    4    0    0 -0.23006260372E+03  0.15471616238E+03 -0.10266576604E+04  0.10672986139E+04  0.90744074749E+02 0.  0.
         23    2    4    4    0    0  0.44564285419E+03  0.86475715689E+03 -0.11451772325E+04  0.15053180437E+04  0.90271950362E+02 0.  0.
          2    1    3    3  502    0 -0.16605508249E+03 -0.65851231115E+03  0.13684089403E+03  0.69277571020E+03  0.00000000000E+00 0. -1.
         -1    1    3    3    0  502 -0.49525167981E+02 -0.36096100811E+03  0.11823226307E+03  0.38304628920E+03  0.00000000000E+00 0.  1.
         11    1    5    5    0    0 -0.10563536246E+03  0.42202228263E+02 -0.55917349523E+03  0.57062672181E+03  0.00000000000E+00 0. -1.
        -11    1    5    5    0    0 -0.12442724125E+03  0.11251393411E+03 -0.46748416513E+03  0.49667189208E+03  0.00000000000E+00 0.  1.
          2    1    6    6  503    0  0.23048717176E+03  0.53697931554E+03 -0.65996438548E+03  0.88148971166E+03  0.00000000000E+00 0. -1.
         -2    1    6    6    0  503  0.21515568243E+03  0.32777784135E+03 -0.48521284699E+03  0.62382833203E+03  0.00000000000E+00 0.  1.
<mgrwt>
<rscale>  0 0.31043726E+04</rscale>
<asrwt>0</asrwt>
<pdfrwt beam="1">  1        2 0.42809233E+00 0.31043726E+04</pdfrwt>
<pdfrwt beam="2">  1       -1 0.13320592E+00 0.31043726E+04</pdfrwt>
<totfact> 0.10885293E+00</totfact>
</mgrwt>
</event>
<event>
12    6  0.1540825E-007  0.1511524E+04  0.7818608E-02  0.8876826E-01
          2   -1    0    0  501    0  0.00000000000E+00  0.00000000000E+00  0.10097563908E+04  0.10097563908E+04  0.00000000000E+00 0. -1.
         -1   -1    0    0    0  501 -0.00000000000E+00 -0.00000000000E+00 -0.56565727182E+03  0.56565727182E+03  0.00000000000E+00 0.  1.
         24    2    1    2    0    0  0.31215815230E+03  0.10787254336E+03  0.52064013952E+03  0.62168071839E+03  0.79633931683E+02 0.  0.
        254    2    1    2    0    0 -0.31215815230E+03 -0.10787254336E+03 -0.76541020515E+02  0.95373294426E+03  0.89144197988E+03 0.  0.
         23    2    4    4    0    0  0.29062042954E+03  0.25145034473E+02 -0.12071419168E+03  0.32863016821E+03  0.91287263964E+02 0.  0.
         23    2    4    4    0    0 -0.60277858184E+03 -0.13301757784E+03  0.44173171167E+02  0.62510277605E+03  0.88127843715E+02 0.  0.
          4    1    3    3  502    0  0.30860124771E+03  0.99585809925E+02  0.51976084041E+03  0.61262010647E+03  0.00000000000E+00 0. -1.
         -3    1    3    3    0  502  0.35569045930E+01  0.82867334381E+01  0.87929910534E+00  0.90606119150E+01  0.00000000000E+00 0.  1.
         11    1    5    5    0    0  0.13070427767E+03  0.54952909040E+02 -0.41741057726E+02  0.14780306598E+03  0.00000000000E+00 0.  1.
        -11    1    5    5    0    0  0.15991615187E+03 -0.29807874567E+02 -0.78973133956E+02  0.18082710223E+03  0.00000000000E+00 0. -1.
          2    1    6    6  503    0 -0.40086458983E+03 -0.45533074381E+02  0.32209238441E+02  0.40472597554E+03  0.00000000000E+00 0. -1.
         -2    1    6    6    0  503 -0.20191399202E+03 -0.87484503454E+02  0.11963932726E+02  0.22037680051E+03  0.00000000000E+00 0.  1.
<mgrwt>
<rscale>  0 0.15115238E+04</rscale>
<asrwt>0</asrwt>
<pdfrwt beam="1">  1        2 0.15534714E+00 0.15115238E+04</pdfrwt>
<pdfrwt beam="2">  1       -1 0.87024196E-01 0.15115238E+04</pdfrwt>
<totfact> 0.35573366E+01</totfact>
</mgrwt>
</event>
<event>
12    6  0.1540825E-007  0.1754069E+04  0.7818608E-02  0.8731114E-01
         -1   -1    0    0    0  501 -0.00000000000E+00  0.00000000000E+00  0.66463503097E+03  0.66463503097E+03  0.00000000000E+00 0.  1.
          2   -1    0    0  501    0  0.00000000000E+00 -0.00000000000E+00 -0.11573116524E+04  0.11573116524E+04  0.00000000000E+00 0. -1.
         24    2    1    2    0    0 -0.30271611583E+03 -0.77380477934E+02  0.40199704677E+03  0.51532431778E+03  0.79578525637E+02 0.  0.
        254    2    1    2    0    0  0.30271611583E+03  0.77380477934E+02 -0.89467366815E+03  0.13066223655E+04  0.89955336056E+03 0.  0.
         23    2    4    4    0    0  0.58113972044E+03  0.14812629877E+03 -0.77098351111E+03  0.98102295671E+03  0.91245230705E+02 0.  0.
         23    2    4    4    0    0 -0.27842360461E+03 -0.70745820833E+02 -0.12369015704E+03  0.32559940883E+03  0.90504393860E+02 0.  0.
          4    1    3    3  502    0 -0.95890027107E+02 -0.60799374851E+02  0.16558117549E+03  0.20076998520E+03  0.00000000000E+00 0. -1.
         -3    1    3    3    0  502 -0.20682608872E+03 -0.16581103082E+02  0.23641587128E+03  0.31455433258E+03  0.00000000000E+00 0.  1.
         11    1    5    5    0    0  0.56981091193E+03  0.14357246025E+03 -0.72387878990E+03  0.93236153351E+03  0.00000000000E+00 0.  1.
        -11    1    5    5    0    0  0.11328808507E+02  0.45538385183E+01 -0.47104721216E+02  0.48661423205E+02  0.00000000000E+00 0. -1.
          1    1    6    6  503    0 -0.20996166051E+03 -0.44366113310E+02 -0.47431127834E+02  0.21977707520E+03  0.00000000000E+00 0. -1.
         -1    1    6    6    0  503 -0.68461944102E+02 -0.26379707524E+02 -0.76259029204E+02  0.10582233363E+03  0.00000000000E+00 0.  1.
<mgrwt>
<rscale>  0 0.17540694E+04</rscale>
<asrwt>0</asrwt>
<pdfrwt beam="1">  1        2 0.17804795E+00 0.17540694E+04</pdfrwt>
<pdfrwt beam="2">  1       -1 0.10225154E+00 0.17540694E+04</pdfrwt>
<totfact> 0.19664309E+01</totfact>
</mgrwt>
</event>
<event>
12    6  0.1540825E-007  0.1825653E+04  0.7818608E-02  0.8692775E-01
         -1   -1    0    0    0  501 -0.00000000000E+00  0.00000000000E+00  0.36723158546E+03  0.36723158546E+03  0.00000000000E+00 0.  1.
          2   -1    0    0  501    0  0.00000000000E+00 -0.00000000000E+00 -0.22690106380E+04  0.22690106380E+04  0.00000000000E+00 0. -1.
         24    2    1    2    0    0  0.45561958784E+03 -0.35078610878E+03 -0.15974959776E+03  0.60204404721E+03  0.79353625375E+02 0.  0.
        254    2    1    2    0    0 -0.45561958784E+03  0.35078610878E+03 -0.17420294548E+04  0.20341981763E+04  0.87900824573E+03 0.  0.
         23    2    4    4    0    0 -0.52326805806E+03 -0.13494082886E+03 -0.82066728191E+03  0.98681241115E+03  0.91024498441E+02 0.  0.
         23    2    4    4    0    0  0.67648470227E+02  0.48572693764E+03 -0.92136217292E+03  0.10473857652E+04  0.87187808230E+02 0.  0.
          2    1    3    3  502    0  0.26708713941E+03 -0.17493554223E+03 -0.56066775388E+02  0.32416271728E+03  0.00000000000E+00 0. -1.
         -1    1    3    3    0  502  0.18853244842E+03 -0.17585056655E+03 -0.10368282237E+03  0.27788132992E+03  0.00000000000E+00 0.  1.
         11    1    5    5    0    0 -0.32310964864E+03 -0.96975836736E+02 -0.43329586907E+03  0.54913520021E+03  0.00000000000E+00 0. -1.
        -11    1    5    5    0    0 -0.20015840942E+03 -0.37964992120E+02 -0.38737141284E+03  0.43767721094E+03  0.00000000000E+00 0.  1.
          4    1    6    6  503    0  0.40692101227E+02  0.41058768859E+03 -0.70627381770E+03  0.81796136993E+03  0.00000000000E+00 0. -1.
         -4    1    6    6    0  503  0.26956369000E+02  0.75139249043E+02 -0.21508835522E+03  0.22942439523E+03  0.00000000000E+00 0.  1.
<mgrwt>
<rscale>  0 0.18256532E+04</rscale>
<asrwt>0</asrwt>
<pdfrwt beam="1">  1        2 0.34907856E+00 0.18256532E+04</pdfrwt>
<pdfrwt beam="2">  1       -1 0.56497166E-01 0.18256532E+04</pdfrwt>
<totfact> 0.16063594E+01</totfact>
</mgrwt>
</event>
<event>
12    6  0.1540825E-007  0.2704813E+04  0.7818608E-02  0.8333445E-01
         -1   -1    0    0    0  501 -0.00000000000E+00  0.00000000000E+00  0.15453972493E+04  0.15453972493E+04  0.00000000000E+00 0.  1.
          2   -1    0    0  501    0  0.00000000000E+00 -0.00000000000E+00 -0.11835169641E+04  0.11835169641E+04  0.00000000000E+00 0. -1.
         24    2    1    2    0    0  0.10913650558E+04  0.23430261735E+03 -0.29011481594E+03  0.11562079249E+04  0.81699189996E+02 0.  0.
        254    2    1    2    0    0 -0.10913650558E+04 -0.23430261735E+03  0.65199510117E+03  0.15727062885E+04  0.89572990144E+03 0.  0.
         23    2    4    4    0    0 -0.92259713111E+03 -0.53307817578E+03  0.55471913001E+03  0.12048157319E+04  0.92248722950E+02 0.  0.
         23    2    4    4    0    0 -0.16876792468E+03  0.29877555843E+03  0.97275971163E+02  0.36789055653E+03  0.90174277392E+02 0.  0.
          4    1    3    3  502    0  0.91923294705E+03  0.21932408838E+03 -0.22409513564E+03  0.97124193510E+03  0.00000000000E+00 0. -1.
         -3    1    3    3    0  502  0.17213210875E+03  0.14978528969E+02 -0.66019680303E+02  0.18496598979E+03  0.00000000000E+00 0.  1.
         11    1    5    5    0    0 -0.48676420942E+03 -0.31809735197E+03  0.26484408208E+03  0.63895829967E+03  0.00000000000E+00 0.  1.
        -11    1    5    5    0    0 -0.43583292169E+03 -0.21498082381E+03  0.28987504793E+03  0.56585743226E+03  0.00000000000E+00 0. -1.
          1    1    6    6  503    0 -0.21932541631E+02  0.51641465643E+02 -0.16878115976E+02  0.58589659113E+02  0.00000000000E+00 0. -1.
         -1    1    6    6    0  503 -0.14683538305E+03  0.24713409279E+03  0.11415408714E+03  0.30930089742E+03  0.00000000000E+00 0.  1.
<mgrwt>
<rscale>  0 0.27048134E+04</rscale>
<asrwt>0</asrwt>
<pdfrwt beam="1">  1        2 0.18207953E+00 0.27048134E+04</pdfrwt>
<pdfrwt beam="2">  1       -1 0.23775342E+00 0.27048134E+04</pdfrwt>
<totfact> 0.16242155E+00</totfact>
</mgrwt>
</event>
<event>
12    6  0.1540825E-007  0.1393531E+04  0.7818608E-02  0.8958514E-01
         -1   -1    0    0    0  501 -0.00000000000E+00  0.00000000000E+00  0.33069037953E+03  0.33069037953E+03  0.00000000000E+00 0.  1.
          2   -1    0    0  501    0  0.00000000000E+00 -0.00000000000E+00 -0.14680868273E+04  0.14680868273E+04  0.00000000000E+00 0. -1.
         24    2    1    2    0    0  0.25822047768E+03 -0.24769153437E+03 -0.55091768914E+03  0.66157721798E+03  0.78391350638E+02 0.  0.
        254    2    1    2    0    0 -0.25822047768E+03  0.24769153437E+03 -0.58647875860E+03  0.11371999888E+04  0.90622158933E+03 0.  0.
         23    2    4    4    0    0 -0.36694381214E+03  0.43188941012E+03 -0.79027408748E+02  0.57917767040E+03  0.89583585062E+02 0.  0.
         23    2    4    4    0    0  0.10872333447E+03 -0.18419787575E+03 -0.50745134986E+03  0.55802231841E+03  0.90179900679E+02 0.  0.
          4    1    3    3  502    0  0.13277365214E+03 -0.12752782038E+03 -0.21232447469E+03  0.28102289983E+03  0.00000000000E+00 0. -1.
         -3    1    3    3    0  502  0.12544682554E+03 -0.12016371399E+03 -0.33859321444E+03  0.38055431815E+03  0.00000000000E+00 0.  1.
         11    1    5    5    0    0 -0.35066526363E+03  0.39118235691E+03 -0.92251263607E+02  0.53338546953E+03  0.00000000000E+00 0.  1.
        -11    1    5    5    0    0 -0.16278548516E+02  0.40707053212E+02  0.13223854859E+02  0.45792200868E+02  0.00000000000E+00 0. -1.
          3    1    6    6  503    0 -0.27440969204E+01 -0.16513635708E+01  0.31130515691E+01  0.44663362640E+01  0.00000000000E+00 0. -1.
         -3    1    6    6    0  503  0.11146743139E+03 -0.18254651218E+03 -0.51056440142E+03  0.55355598215E+03  0.00000000000E+00 0.  1.
<mgrwt>
<rscale>  0 0.13935310E+04</rscale>
<asrwt>0</asrwt>
<pdfrwt beam="1">  1        2 0.22585951E+00 0.13935310E+04</pdfrwt>
<pdfrwt beam="2">  1       -1 0.50875444E-01 0.13935310E+04</pdfrwt>
<totfact> 0.57010482E+01</totfact>
</mgrwt>
</event>
<event>
12    6  0.1540825E-007  0.2226174E+04  0.7818608E-02  0.8507612E-01
          2   -1    0    0  501    0  0.00000000000E+00  0.00000000000E+00  0.23111597897E+04  0.23111597897E+04  0.00000000000E+00 0. -1.
         -1   -1    0    0    0  501 -0.00000000000E+00 -0.00000000000E+00 -0.53607836321E+03  0.53607836321E+03  0.00000000000E+00 0.  1.
         24    2    1    2    0    0 -0.20820057328E+03 -0.56252965445E+02 -0.40851014242E+03  0.46903256871E+03  0.81235086129E+02 0.  0.
        254    2    1    2    0    0  0.20820057328E+03  0.56252965445E+02  0.21835915689E+04  0.23782055842E+04  0.91721196356E+03 0.  0.
         23    2    4    4    0    0  0.20297814409E+02  0.10658748018E+02 -0.63507642601E+02  0.12096997710E+03  0.10037382384E+03 0.  0.
         23    2    4    4    0    0  0.18790275887E+03  0.45594217427E+02  0.22470992115E+04  0.22572356071E+04  0.90947458152E+02 0.  0.
          2    1    3    3  502    0 -0.13159750201E+03  0.58492459314E+01 -0.22619847559E+03  0.26175917667E+03  0.00000000000E+00 0. -1.
         -1    1    3    3    0  502 -0.76603071272E+02 -0.62102211376E+02 -0.18231166682E+03  0.20727339204E+03  0.00000000000E+00 0.  1.
         11    1    5    5    0    0 -0.38867164671E+02  0.18325060862E+02 -0.21857681100E+02  0.48210191539E+02  0.00000000000E+00 0. -1.
        -11    1    5    5    0    0  0.59164979080E+02 -0.76663128439E+01 -0.41649961502E+02  0.72759785563E+02  0.00000000000E+00 0.  1.
          3    1    6    6  503    0  0.88413211605E+02 -0.19968996554E+02  0.76400508486E+03  0.76936300047E+03  0.00000000000E+00 0. -1.
         -3    1    6    6    0  503  0.99489547264E+02  0.65563213981E+02  0.14830941266E+04  0.14878726066E+04  0.00000000000E+00 0.  1.
<mgrwt>
<rscale>  0 0.22261741E+04</rscale>
<asrwt>0</asrwt>
<pdfrwt beam="1">  1        2 0.35556304E+00 0.22261741E+04</pdfrwt>
<pdfrwt beam="2">  1       -1 0.82473595E-01 0.22261741E+04</pdfrwt>
<totfact> 0.67763975E+00</totfact>
</mgrwt>
</event>
<event>
12    6  0.1540825E-007  0.1578086E+04  0.7818608E-02  0.8834125E-01
          2   -1    0    0  501    0  0.00000000000E+00  0.00000000000E+00  0.59575577789E+03  0.59575577789E+03  0.00000000000E+00 0. -1.
         -1   -1    0    0    0  501 -0.00000000000E+00 -0.00000000000E+00 -0.10450404165E+04  0.10450404165E+04  0.00000000000E+00 0.  1.
         24    2    1    2    0    0  0.37583635295E+03 -0.37253968240E+03 -0.14058631879E+03  0.55320095030E+03  0.78917673704E+02 0.  0.
        254    2    1    2    0    0 -0.37583635295E+03  0.37253968240E+03 -0.30869831984E+03  0.10875952441E+04  0.89862672069E+03 0.  0.
         23    2    4    4    0    0 -0.63762954798E+03  0.40826932224E+03 -0.24569417875E+03  0.80119892932E+03  0.91097831651E+02 0.  0.
         23    2    4    4    0    0  0.26179319502E+03 -0.35729639844E+02 -0.63004141088E+02  0.28639631477E+03  0.90780191653E+02 0.  0.
          4    1    3    3  502    0  0.25664034105E+03 -0.21406828994E+03 -0.11412270909E+03  0.35314797202E+03  0.00000000000E+00 0. -1.
         -3    1    3    3    0  502  0.11919601191E+03 -0.15847139246E+03 -0.26463609695E+02  0.20005297828E+03  0.00000000000E+00 0.  1.
         11    1    5    5    0    0 -0.40416980092E+03  0.22337123746E+03 -0.18382232963E+03  0.49702976427E+03  0.00000000000E+00 0. -1.
        -11    1    5    5    0    0 -0.23345974706E+03  0.18489808478E+03 -0.61871849118E+02  0.30416916505E+03  0.00000000000E+00 0.  1.
          3    1    6    6  503    0  0.40936791333E+01 -0.78932566680E+01  0.13480306780E+02  0.16148695940E+02  0.00000000000E+00 0. -1.
         -3    1    6    6    0  503  0.25769951589E+03 -0.27836383176E+02 -0.76484447868E+02  0.27024761883E+03  0.00000000000E+00 0.  1.
<mgrwt>
<rscale>  0 0.15780860E+04</rscale>
<asrwt>0</asrwt>
<pdfrwt beam="1">  1        2 0.91654736E-01 0.15780860E+04</pdfrwt>
<pdfrwt beam="2">  1       -1 0.16077545E+00 0.15780860E+04</pdfrwt>
<totfact> 0.15828895E+01</totfact>
</mgrwt>
</event>
<event>
12    6  0.1540825E-007  0.2320263E+04  0.7818608E-02  0.8469974E-01
          2   -1    0    0  501    0  0.00000000000E+00  0.00000000000E+00  0.11748987312E+04  0.11748987312E+04  0.00000000000E+00 0. -1.
         -1   -1    0    0    0  501 -0.00000000000E+00 -0.00000000000E+00 -0.11455497806E+04  0.11455497806E+04  0.00000000000E+00 0.  1.
         24    2    1    2    0    0  0.43863247417E+03 -0.63528327651E+03 -0.60033447658E+03  0.98111726033E+03  0.78780111364E+02 0.  0.
        254    2    1    2    0    0 -0.43863247417E+03  0.63528327651E+03  0.62968342725E+03  0.13393312514E+04  0.89516685245E+03 0.  0.
         23    2    4    4    0    0 -0.31096528301E+03  0.79781549774E+03  0.69306749333E+03  0.11053660860E+04  0.91009109883E+02 0.  0.
         23    2    4    4    0    0 -0.12766719117E+03 -0.16253222123E+03 -0.63384066079E+02  0.23396516545E+03  0.89479182909E+02 0.  0.
          2    1    3    3  502    0  0.84011364721E+02 -0.89466599030E+02 -0.68366722565E+02  0.14048555263E+03  0.00000000000E+00 0. -1.
         -1    1    3    3    0  502  0.35462110945E+03 -0.54581667748E+03 -0.53196775402E+03  0.84063170770E+03  0.00000000000E+00 0.  1.
         11    1    5    5    0    0 -0.27534228572E+03  0.74136286193E+03  0.60978912290E+03  0.99863659144E+03  0.00000000000E+00 0. -1.
        -11    1    5    5    0    0 -0.35622997291E+02  0.56452635805E+02  0.83278370435E+02  0.10672949455E+03  0.00000000000E+00 0.  1.
          2    1    6    6  503    0 -0.88119292528E+02 -0.15030597008E+03 -0.22317499162E+02  0.17565581438E+03  0.00000000000E+00 0. -1.
         -2    1    6    6    0  503 -0.39547898639E+02 -0.12226251151E+02 -0.41066566917E+02  0.58309351071E+02  0.00000000000E+00 0.  1.
<mgrwt>
<rscale>  0 0.23202629E+04</rscale>
<asrwt>0</asrwt>
<pdfrwt beam="1">  1        2 0.18075365E+00 0.23202629E+04</pdfrwt>
<pdfrwt beam="2">  1       -1 0.17623843E+00 0.23202629E+04</pdfrwt>
<totfact> 0.44826917E+00</totfact>
</mgrwt>
</event>
<event>
12    6  0.1540825E-007  0.1932751E+04  0.7818608E-02  0.8638724E-01
          2   -1    0    0  501    0  0.00000000000E+00  0.00000000000E+00  0.21526810579E+04  0.21526810579E+04  0.00000000000E+00 0. -1.
         -3   -1    0    0    0  501 -0.00000000000E+00 -0.00000000000E+00 -0.43382256871E+03  0.43382256871E+03  0.00000000000E+00 0.  1.
         24    2    1    2    0    0 -0.23408668532E+03  0.59547091984E+03  0.12173102325E+04  0.13776125830E+04  0.81179024150E+02 0.  0.
        254    2    1    2    0    0  0.23408668532E+03 -0.59547091984E+03  0.50154825666E+03  0.12088910436E+04  0.89469811052E+03 0.  0.
         23    2    4    4    0    0 -0.31359541921E+03 -0.15588128812E+03  0.40689744439E+02  0.36398299338E+03  0.90481496630E+02 0.  0.
         23    2    4    4    0    0  0.54768210453E+03 -0.43958963171E+03  0.46085851222E+03  0.84490805023E+03  0.91018202204E+02 0.  0.
          4    1    3    3  502    0 -0.23494411646E+03  0.56203223604E+03  0.11235203137E+04  0.12780363326E+04  0.00000000000E+00 0. -1.
         -1    1    3    3    0  502  0.85743114220E+00  0.33438683794E+02  0.93789918810E+02  0.99576250343E+02  0.00000000000E+00 0.  1.
         11    1    5    5    0    0 -0.30730119074E+03 -0.13409352896E+03  0.24616626955E+02  0.33618607149E+03  0.00000000000E+00 0. -1.
        -11    1    5    5    0    0 -0.62942284728E+01 -0.21787759159E+02  0.16073117484E+02  0.27796921896E+02  0.00000000000E+00 0.  1.
          4    1    6    6  503    0  0.40310550483E+03 -0.27886287599E+03  0.34715807771E+03  0.60064738620E+03  0.00000000000E+00 0. -1.
         -4    1    6    6    0  503  0.14457659970E+03 -0.16072675573E+03  0.11370043451E+03  0.24426066403E+03  0.00000000000E+00 0.  1.
<mgrwt>
<rscale>  0 0.19327510E+04</rscale>
<asrwt>0</asrwt>
<pdfrwt beam="1">  1        2 0.33118170E+00 0.19327510E+04</pdfrwt>
<pdfrwt beam="2">  1       -3 0.66741935E-01 0.19327510E+04</pdfrwt>
<totfact> 0.71118657E+00</totfact>
</mgrwt>
</event>
<event>
12    6  0.1540825E-007  0.2240225E+04  0.7818608E-02  0.8501870E-01
          2   -1    0    0  501    0  0.00000000000E+00  0.00000000000E+00  0.18383652383E+04  0.18383652383E+04  0.00000000000E+00 0. -1.
         -1   -1    0    0    0  501 -0.00000000000E+00 -0.00000000000E+00 -0.68248252090E+03  0.68248252090E+03  0.00000000000E+00 0.  1.
         24    2    1    2    0    0  0.16971400155E+02  0.92636028001E+03  0.34302789475E+03  0.99191697943E+03  0.88316253939E+02 0.  0.
        254    2    1    2    0    0 -0.16971400155E+02 -0.92636028001E+03  0.81285482263E+03  0.15289307797E+04  0.90469053812E+03 0.  0.
         23    2    4    4    0    0  0.68080142046E+02 -0.22507942567E+03  0.77647472927E+03  0.81530779031E+03  0.80734962388E+02 0.  0.
         23    2    4    4    0    0 -0.85051542201E+02 -0.70128085434E+03  0.36380093361E+02  0.71362298942E+03  0.94369795754E+02 0.  0.
          4    1    3    3  502    0 -0.16650375183E+02  0.54435725366E+02  0.91866522788E+01  0.57661753095E+02  0.00000000000E+00 0. -1.
         -3    1    3    3    0  502  0.33621775338E+02  0.87192455464E+03  0.33384124247E+03  0.93425522634E+03  0.00000000000E+00 0.  1.
         11    1    5    5    0    0  0.81332733654E+02 -0.15304760634E+03  0.59122554458E+03  0.61610569543E+03  0.00000000000E+00 0.  1.
        -11    1    5    5    0    0 -0.13252591608E+02 -0.72031819332E+02  0.18524918469E+03  0.19920209489E+03  0.00000000000E+00 0. -1.
          4    1    6    6  503    0  0.15524282115E+02 -0.49757744703E+02 -0.86945462768E+01  0.52843463437E+02  0.00000000000E+00 0. -1.
         -4    1    6    6    0  503 -0.10057582432E+03 -0.65152310963E+03  0.45074639638E+02  0.66077952599E+03  0.00000000000E+00 0.  1.
<mgrwt>
<rscale>  0 0.22402251E+04</rscale>
<asrwt>0</asrwt>
<pdfrwt beam="1">  1        2 0.28282542E+00 0.22402251E+04</pdfrwt>
<pdfrwt beam="2">  1       -1 0.10499731E+00 0.22402251E+04</pdfrwt>
<totfact> 0.72547225E+00</totfact>
</mgrwt>
</event>
<event>
12    6  0.1540825E-007  0.2282630E+04  0.7818608E-02  0.8484801E-01
         -1   -1    0    0    0  501 -0.00000000000E+00  0.00000000000E+00  0.45880746350E+03  0.45880746350E+03  0.00000000000E+00 0.  1.
          2   -1    0    0  501    0  0.00000000000E+00 -0.00000000000E+00 -0.28391001803E+04  0.28391001803E+04  0.00000000000E+00 0. -1.
         24    2    1    2    0    0 -0.91026702834E+03  0.31365762093E+03 -0.97940208688E+03  0.13763845618E+04  0.90768101351E+02 0.  0.
        254    2    1    2    0    0  0.91026702834E+03 -0.31365762093E+03 -0.14008906299E+04  0.19215230820E+04  0.89598506210E+03 0.  0.
         23    2    4    4    0    0 -0.84733181161E+02  0.28365898617E+02  0.41264460800E+02  0.13396529542E+03  0.90882388048E+02 0.  0.
         23    2    4    4    0    0  0.99500020950E+03 -0.34202351954E+03 -0.14421550907E+04  0.17875577866E+04  0.92444738914E+02 0.  0.
          2    1    3    3  502    0 -0.81669365649E+03  0.25358938127E+03 -0.84933721773E+03  0.12052675273E+04  0.00000000000E+00 0. -1.
         -1    1    3    3    0  502 -0.93573371849E+02  0.60068239657E+02 -0.13006486915E+03  0.17111703457E+03  0.00000000000E+00 0.  1.
         11    1    5    5    0    0 -0.37706213868E+02 -0.32539371484E+02  0.94200740661E+01  0.50688332545E+02  0.00000000000E+00 0.  1.
        -11    1    5    5    0    0 -0.47026967293E+02  0.60905270101E+02  0.31844386734E+02  0.83276962873E+02  0.00000000000E+00 0. -1.
          2    1    6    6  503    0  0.89601891944E+03 -0.32729307456E+03 -0.13367465823E+04  0.16422125581E+04  0.00000000000E+00 0. -1.
         -2    1    6    6    0  503  0.98981290054E+02 -0.14730444988E+02 -0.10540850844E+03  0.14534522848E+03  0.00000000000E+00 0.  1.
<mgrwt>
<rscale>  0 0.22826304E+04</rscale>
<asrwt>0</asrwt>
<pdfrwt beam="1">  1        2 0.43678464E+00 0.22826304E+04</pdfrwt>
<pdfrwt beam="2">  1       -1 0.70585764E-01 0.22826304E+04</pdfrwt>
<totfact> 0.45887051E+00</totfact>
</mgrwt>
</event>
<event>
12    6  0.1540825E-007  0.2172824E+04  0.7818608E-02  0.8529825E-01
          2   -1    0    0  501    0  0.00000000000E+00  0.00000000000E+00  0.18265620816E+04  0.18265620816E+04  0.00000000000E+00 0. -1.
         -1   -1    0    0    0  501 -0.00000000000E+00 -0.00000000000E+00 -0.64618188614E+03  0.64618188614E+03  0.00000000000E+00 0.  1.
         24    2    1    2    0    0  0.96977963837E+02 -0.53256716620E+03 -0.32457824285E+03  0.63997481016E+03  0.10575542503E+03 0.  0.
        254    2    1    2    0    0 -0.96977963837E+02  0.53256716620E+03  0.15049584383E+04  0.18327691575E+04  0.89504769255E+03 0.  0.
         23    2    4    4    0    0 -0.15576942189E+03 -0.10371380739E+03  0.97711296704E+03  0.99899591144E+03  0.90677527928E+02 0.  0.
         23    2    4    4    0    0  0.58791458053E+02  0.63628097359E+03  0.52784547123E+03  0.83377324611E+03  0.90813388500E+02 0.  0.
          2    1    3    3  502    0  0.28310337683E+02 -0.15946176321E+03 -0.43123561733E+02  0.16759824201E+03  0.00000000000E+00 0. -1.
         -1    1    3    3    0  502  0.68667626154E+02 -0.37310540299E+03 -0.28145468111E+03  0.47237656815E+03  0.00000000000E+00 0.  1.
         11    1    5    5    0    0  0.10635849099E+02  0.35326209838E+00  0.32130297672E+02  0.33846744432E+02  0.00000000000E+00 0. -1.
        -11    1    5    5    0    0 -0.16640527099E+03 -0.10406706949E+03  0.94498266937E+03  0.96514916701E+03  0.00000000000E+00 0.  1.
          2    1    6    6  503    0  0.96249762749E+01  0.73820483000E+02  0.10344688775E+03  0.12744945062E+03  0.00000000000E+00 0. -1.
         -2    1    6    6    0  503  0.49166481778E+02  0.56246049059E+03  0.42439858347E+03  0.70632379548E+03  0.00000000000E+00 0.  1.
<mgrwt>
<rscale>  0 0.21728243E+04</rscale>
<asrwt>0</asrwt>
<pdfrwt beam="1">  1        2 0.28100955E+00 0.21728243E+04</pdfrwt>
<pdfrwt beam="2">  1       -1 0.99412599E-01 0.21728243E+04</pdfrwt>
<totfact> 0.84036947E+00</totfact>
</mgrwt>
</event>
<event>
12    6  0.1540825E-007  0.1143262E+04  0.7818608E-02  0.9164022E-01
         -1   -1    0    0    0  501 -0.00000000000E+00  0.00000000000E+00  0.50599758376E+03  0.50599758376E+03  0.00000000000E+00 0.  1.
          2   -1    0    0  501    0  0.00000000000E+00 -0.00000000000E+00 -0.64577753671E+03  0.64577753671E+03  0.00000000000E+00 0. -1.
         24    2    1    2    0    0  0.11743417457E+03 -0.88501089895E+02 -0.17767319039E+03  0.24447796963E+03  0.81107871259E+02 0.  0.
        254    2    1    2    0    0 -0.11743417457E+03  0.88501089895E+02  0.37893237444E+02  0.90729715085E+03  0.89449929806E+03 0.  0.
         23    2    4    4    0    0  0.23589407692E+03 -0.26761938103E+03  0.13106220879E+03  0.38951901805E+03  0.85332375007E+02 0.  0.
         23    2    4    4    0    0 -0.35332825149E+03  0.35612047092E+03 -0.93168971351E+02  0.51777813279E+03  0.88040300240E+02 0.  0.
          2    1    3    3  502    0  0.93164849245E+02 -0.10217461972E+03 -0.13315245640E+03  0.19196072175E+03  0.00000000000E+00 0. -1.
         -1    1    3    3    0  502  0.24269325326E+02  0.13673529824E+02 -0.44520733987E+02  0.52517247875E+02  0.00000000000E+00 0.  1.
         11    1    5    5    0    0  0.11866818319E+03 -0.14912170629E+03  0.25637394690E+02  0.19229325780E+03  0.00000000000E+00 0. -1.
        -11    1    5    5    0    0  0.11722589373E+03 -0.11849767473E+03  0.10542481411E+03  0.19722576025E+03  0.00000000000E+00 0.  1.
          3    1    6    6  503    0 -0.23023494130E+03  0.21003523370E+03 -0.16959334508E+02  0.31210662700E+03  0.00000000000E+00 0. -1.
         -3    1    6    6    0  503 -0.12309331019E+03  0.14608523722E+03 -0.76209636843E+02  0.20567150580E+03  0.00000000000E+00 0.  1.
<mgrwt>
<rscale>  0 0.11432618E+04</rscale>
<asrwt>0</asrwt>
<pdfrwt beam="1">  1        2 0.99350389E-01 0.11432618E+04</pdfrwt>
<pdfrwt beam="2">  1       -1 0.77845783E-01 0.11432618E+04</pdfrwt>
<totfact> 0.84815202E+01</totfact>
</mgrwt>
</event>
<event>
12    6  0.1540825E-007  0.1455466E+04  0.7818608E-02  0.8914620E-01
          2   -1    0    0  501    0  0.00000000000E+00  0.00000000000E+00  0.10405383583E+04  0.10405383583E+04  0.00000000000E+00 0. -1.
         -1   -1    0    0    0  501 -0.00000000000E+00 -0.00000000000E+00 -0.50896247610E+03  0.50896247610E+03  0.00000000000E+00 0.  1.
         24    2    1    2    0    0 -0.11453333004E+03 -0.46587832616E+03  0.32520565910E+03  0.58504732264E+03  0.79756821262E+02 0.  0.
        254    2    1    2    0    0  0.11453333004E+03  0.46587832616E+03  0.20637022314E+03  0.96445351179E+03  0.81081527424E+03 0.  0.
         23    2    4    4    0    0  0.28986358296E+03  0.48113005934E+03  0.39344775273E+03  0.69175839149E+03  0.90672528050E+02 0.  0.
         23    2    4    4    0    0 -0.17533025292E+03 -0.15251733179E+02 -0.18707752959E+03  0.27269512030E+03  0.91604113462E+02 0.  0.
          4    1    3    3  502    0  0.11866313613E+02 -0.34327478381E+02  0.30198373106E+02  0.47234806118E+02  0.00000000000E+00 0. -1.
         -3    1    3    3    0  502 -0.12639964365E+03 -0.43155084778E+03  0.29500728599E+03  0.53781251652E+03  0.00000000000E+00 0.  1.
         11    1    5    5    0    0  0.23959947935E+03  0.31754292474E+03  0.27129480112E+03  0.48150004015E+03  0.00000000000E+00 0. -1.
        -11    1    5    5    0    0  0.50264103612E+02  0.16358713460E+03  0.12215295161E+03  0.21025835134E+03  0.00000000000E+00 0.  1.
          3    1    6    6  503    0 -0.15245983780E+03 -0.31004028270E+02 -0.10937504875E+03  0.19017926596E+03  0.00000000000E+00 0. -1.
         -3    1    6    6    0  503 -0.22870415114E+02  0.15752295091E+02 -0.77702480843E+02  0.82515854339E+02  0.00000000000E+00 0.  1.
<mgrwt>
<rscale>  0 0.14554655E+04</rscale>
<asrwt>0</asrwt>
<pdfrwt beam="1">  1        2 0.16008282E+00 0.14554655E+04</pdfrwt>
<pdfrwt beam="2">  1       -1 0.78301920E-01 0.14554655E+04</pdfrwt>
<totfact> 0.42858308E+01</totfact>
</mgrwt>
</event>
<event>
12    6  0.1540825E-007  0.1773167E+04  0.7818608E-02  0.8720701E-01
          2   -1    0    0  501    0  0.00000000000E+00  0.00000000000E+00  0.59788648498E+03  0.59788648498E+03  0.00000000000E+00 0. -1.
         -1   -1    0    0    0  501 -0.00000000000E+00 -0.00000000000E+00 -0.13146814043E+04  0.13146814043E+04  0.00000000000E+00 0.  1.
         24    2    1    2    0    0  0.63497713102E+03  0.82323594816E+02 -0.22458219630E+03  0.68151149457E+03  0.63620933263E+02 0.  0.
        254    2    1    2    0    0 -0.63497713102E+03 -0.82323594816E+02 -0.49221272305E+03  0.12310563948E+04  0.92911428315E+03 0.  0.
         23    2    4    4    0    0  0.18530988476E+03  0.22159607505E+02  0.79290433904E+02  0.22183705247E+03  0.89966123329E+02 0.  0.
         23    2    4    4    0    0 -0.82028701578E+03 -0.10448320232E+03 -0.57150315696E+03  0.10092193423E+04  0.90112677223E+02 0.  0.
          2    1    3    3  502    0  0.52949384831E+02  0.90792334367E+01 -0.10053359004E+01  0.53731559944E+02  0.00000000000E+00 0. -1.
         -1    1    3    3    0  502  0.58202774619E+03  0.73244361379E+02 -0.22357686040E+03  0.62777993462E+03  0.00000000000E+00 0.  1.
         11    1    5    5    0    0  0.11084837504E+03  0.11128388124E+02 -0.14974568815E+01  0.11141564364E+03  0.00000000000E+00 0.  1.
        -11    1    5    5    0    0  0.74461509725E+02  0.11031219381E+02  0.80787890786E+02  0.11042140884E+03  0.00000000000E+00 0. -1.
          4    1    6    6  503    0 -0.48646982750E+03 -0.10486694328E+03 -0.35631943193E+03  0.61205678366E+03  0.00000000000E+00 0.  1.
         -4    1    6    6    0  503 -0.33381718829E+03  0.38374095859E+00 -0.21518372503E+03  0.39716255862E+03  0.00000000000E+00 0. -1.
<mgrwt>
<rscale>  0 0.17731669E+04</rscale>
<asrwt>0</asrwt>
<pdfrwt beam="1">  1        2 0.91982537E-01 0.17731669E+04</pdfrwt>
<pdfrwt beam="2">  1       -1 0.20225868E+00 0.17731669E+04</pdfrwt>
<totfact> 0.78150359E+00</totfact>
</mgrwt>
</event>
<event>
12    6  0.1540825E-007  0.1840406E+04  0.7818608E-02  0.8685102E-01
          2   -1    0    0  501    0  0.00000000000E+00  0.00000000000E+00  0.24933749206E+04  0.24933749206E+04  0.00000000000E+00 0. -1.
         -1   -1    0    0    0  501 -0.00000000000E+00 -0.00000000000E+00 -0.33960927677E+03  0.33960927677E+03  0.00000000000E+00 0.  1.
         24    2    1    2    0    0 -0.32402510382E+03  0.60943098631E+03  0.69894917095E+03  0.98551651880E+03  0.79463641199E+02 0.  0.
        254    2    1    2    0    0  0.32402510382E+03 -0.60943098631E+03  0.14548164729E+04  0.18474676786E+04  0.90567513966E+03 0.  0.
         23    2    4    4    0    0 -0.25482543698E+03 -0.29570731024E+03  0.88557562752E+03  0.97226872777E+03  0.93185139811E+02 0.  0.
         23    2    4    4    0    0  0.57885054080E+03 -0.31372367607E+03  0.56924084536E+03  0.87519895080E+03  0.91910662797E+02 0.  0.
          2    1    3    3  502    0 -0.13890753387E+02  0.36779661772E+02  0.69227283392E+02  0.79612268624E+02  0.00000000000E+00 0. -1.
         -1    1    3    3    0  502 -0.31013435043E+03  0.57265132454E+03  0.62972188756E+03  0.90590425017E+03  0.00000000000E+00 0.  1.
         11    1    5    5    0    0 -0.11384325883E+03 -0.20253433906E+03  0.51244346831E+03  0.56265331626E+03  0.00000000000E+00 0.  1.
        -11    1    5    5    0    0 -0.14098217815E+03 -0.93172971179E+02  0.37313215921E+03  0.40961541151E+03  0.00000000000E+00 0. -1.
          3    1    6    6  503    0  0.53378431393E+03 -0.25832910596E+03  0.49883393850E+03  0.77491607222E+03  0.00000000000E+00 0. -1.
         -3    1    6    6    0  503  0.45066226865E+02 -0.55394570104E+02  0.70406906861E+02  0.10028287857E+03  0.00000000000E+00 0.  1.
<mgrwt>
<rscale>  0 0.18404057E+04</rscale>
<asrwt>0</asrwt>
<pdfrwt beam="1">  1        2 0.38359613E+00 0.18404057E+04</pdfrwt>
<pdfrwt beam="2">  1       -1 0.52247583E-01 0.18404057E+04</pdfrwt>
<totfact> 0.13897549E+01</totfact>
</mgrwt>
</event>
<event>
12    6  0.1540825E-007  0.1439230E+04  0.7818608E-02  0.8925901E-01
         -1   -1    0    0    0  501 -0.00000000000E+00  0.00000000000E+00  0.51187944002E+03  0.51187944002E+03  0.00000000000E+00 0.  1.
          2   -1    0    0  501    0  0.00000000000E+00 -0.00000000000E+00 -0.10116557291E+04  0.10116557291E+04  0.00000000000E+00 0. -1.
         24    2    1    2    0    0  0.21013170321E+03  0.28892114668E+03  0.11078673842E+03  0.38336369111E+03  0.84043182685E+02 0.  0.
        254    2    1    2    0    0 -0.21013170321E+03 -0.28892114668E+03 -0.61056302747E+03  0.11401714780E+04  0.89418847398E+03 0.  0.
         23    2    4    4    0    0 -0.16072882751E+03 -0.51434266476E+03 -0.68964837995E+03  0.87970483533E+03  0.88789506991E+02 0.  0.
         23    2    4    4    0    0 -0.49402875706E+02  0.22542151807E+03  0.79085352490E+02  0.26046664265E+03  0.91284577104E+02 0.  0.
          4    1    3    3  502    0  0.81341632410E+01  0.40532117211E+02  0.35460578471E+02  0.54465307883E+02  0.00000000000E+00 0. -1.
         -3    1    3    3    0  502  0.20199753997E+03  0.24838902947E+03  0.75326159948E+02  0.32889838323E+03  0.00000000000E+00 0.  1.
         11    1    5    5    0    0 -0.14798779900E+03 -0.35655700409E+03 -0.52048809989E+03  0.64802866291E+03  0.00000000000E+00 0.  1.
        -11    1    5    5    0    0 -0.12741028511E+02 -0.15778566067E+03 -0.16916028006E+03  0.23167617243E+03  0.00000000000E+00 0. -1.
          1    1    6    6  503    0 -0.26124517062E+02  0.10457231459E+03  0.84976829982E+02  0.13725494892E+03  0.00000000000E+00 0. -1.
         -1    1    6    6    0  503 -0.23278358644E+02  0.12084920349E+03 -0.58914774926E+01  0.12321169373E+03  0.00000000000E+00 0.  1.
<mgrwt>
<rscale>  0 0.14392300E+04</rscale>
<asrwt>0</asrwt>
<pdfrwt beam="1">  1        2 0.15563934E+00 0.14392300E+04</pdfrwt>
<pdfrwt beam="2">  1       -1 0.78750684E-01 0.14392300E+04</pdfrwt>
<totfact> 0.44229256E+01</totfact>
</mgrwt>
</event>
<event>
12    6  0.1540825E-007  0.2577446E+04  0.7818608E-02  0.8375903E-01
          2   -1    0    0  501    0  0.00000000000E+00  0.00000000000E+00  0.10711098493E+04  0.10711098493E+04  0.00000000000E+00 0. -1.
         -1   -1    0    0    0  501 -0.00000000000E+00 -0.00000000000E+00 -0.15505475201E+04  0.15505475201E+04  0.00000000000E+00 0.  1.
         24    2    1    2    0    0 -0.36000307717E+03  0.24809940672E+03  0.84772456341E+03  0.95717050958E+03  0.79893165070E+02 0.  0.
        254    2    1    2    0    0  0.36000307717E+03 -0.24809940672E+03 -0.13271622342E+04  0.16644868598E+04  0.90443428694E+03 0.  0.
         23    2    4    4    0    0  0.50344928499E+03  0.13742950931E+03 -0.99474836674E+03  0.11280038916E+04  0.10256906772E+03 0.  0.
         23    2    4    4    0    0 -0.14344620782E+03 -0.38552891603E+03 -0.33241386750E+03  0.53648296828E+03  0.90031307419E+02 0.  0.
          2    1    3    3  502    0 -0.15603457808E+03  0.10708883245E+03  0.45404760334E+03  0.49190856233E+03  0.00000000000E+00 0. -1.
         -1    1    3    3    0  502 -0.20396849909E+03  0.14101057427E+03  0.39367696007E+03  0.46526194726E+03  0.00000000000E+00 0.  1.
         11    1    5    5    0    0  0.38310349886E+03  0.14856835135E+03 -0.77731887916E+03  0.87924142632E+03  0.00000000000E+00 0. -1.
        -11    1    5    5    0    0  0.12034578613E+03 -0.11138842042E+02 -0.21742948759E+03  0.24876246524E+03  0.00000000000E+00 0.  1.
          4    1    6    6  503    0 -0.13032857990E+03 -0.38169880541E+03 -0.33265085611E+03  0.52281555912E+03  0.00000000000E+00 0. -1.
         -4    1    6    6    0  503 -0.13117627918E+02 -0.38301106224E+01  0.23698860678E+00  0.13667409161E+02  0.00000000000E+00 0.  1.
<mgrwt>
<rscale>  0 0.25774458E+04</rscale>
<asrwt>0</asrwt>
<pdfrwt beam="1">  1        2 0.16478613E+00 0.25774458E+04</pdfrwt>
<pdfrwt beam="2">  1       -1 0.23854577E+00 0.25774458E+04</pdfrwt>
<totfact> 0.19008825E+00</totfact>
</mgrwt>
</event>
<event>
12    6  0.1540825E-007  0.1491566E+04  0.7818608E-02  0.8890081E-01
         -1   -1    0    0    0  501 -0.00000000000E+00  0.00000000000E+00  0.11124145714E+04  0.11124145714E+04  0.00000000000E+00 0.  1.
          2   -1    0    0  501    0  0.00000000000E+00 -0.00000000000E+00 -0.49998644065E+03  0.49998644065E+03  0.00000000000E+00 0. -1.
         24    2    1    2    0    0  0.32787538550E+03 -0.10294944313E+03 -0.16701943537E+03  0.39051417296E+03  0.80653401831E+02 0.  0.
        254    2    1    2    0    0 -0.32787538550E+03  0.10294944313E+03  0.77944756616E+03  0.12218868391E+04  0.87599548115E+03 0.  0.
         23    2    4    4    0    0  0.11243431704E+03  0.29784532767E+03  0.62394771836E+03  0.70688910820E+03  0.95016531099E+02 0.  0.
         23    2    4    4    0    0 -0.44030970254E+03 -0.19489588454E+03  0.15549984780E+03  0.51499773093E+03  0.95840598053E+02 0.  0.
          2    1    3    3  502    0  0.18490638373E+03 -0.93759958302E+02 -0.12096919680E+03  0.24003092946E+03  0.00000000000E+00 0. -1.
         -1    1    3    3    0  502  0.14296900177E+03 -0.91894848282E+01 -0.46050238578E+02  0.15048324349E+03  0.00000000000E+00 0.  1.
         11    1    5    5    0    0  0.71273901881E+02  0.12155479190E+03  0.18879892196E+03  0.23558558839E+03  0.00000000000E+00 0. -1.
        -11    1    5    5    0    0  0.41160415159E+02  0.17629053576E+03  0.43514879640E+03  0.47130351981E+03  0.00000000000E+00 0.  1.
          1    1    6    6  503    0 -0.37747828514E+03 -0.20090620564E+03  0.14071598673E+03  0.45017124313E+03  0.00000000000E+00 0. -1.
         -1    1    6    6    0  503 -0.62831417406E+02  0.60103211050E+01  0.14783861065E+02  0.64826487805E+02  0.00000000000E+00 0.  1.
<mgrwt>
<rscale>  0 0.14915659E+04</rscale>
<asrwt>0</asrwt>
<pdfrwt beam="1">  1        2 0.76920991E-01 0.14915659E+04</pdfrwt>
<pdfrwt beam="2">  1       -1 0.17114070E+00 0.14915659E+04</pdfrwt>
<totfact> 0.16427503E+01</totfact>
</mgrwt>
</event>
<event>
12    6  0.1540825E-007  0.1146669E+04  0.7818608E-02  0.9160862E-01
          2   -1    0    0  501    0  0.00000000000E+00  0.00000000000E+00  0.34225660167E+04  0.34225660167E+04  0.00000000000E+00 0. -1.
         -1   -1    0    0    0  501 -0.00000000000E+00 -0.00000000000E+00 -0.96042758393E+02  0.96042758393E+02  0.00000000000E+00 0.  1.
         24    2    1    2    0    0  0.55023471444E+02 -0.14470121921E+03  0.10754583904E+04  0.10896236281E+04  0.81871094403E+02 0.  0.
        254    2    1    2    0    0 -0.55023471444E+02  0.14470121921E+03  0.22510648679E+04  0.24289851471E+04  0.89928292530E+03 0.  0.
         23    2    4    4    0    0 -0.43639662962E+03  0.14576120573E+03  0.81350633570E+03  0.93887691227E+03  0.89492741263E+02 0.  0.
         23    2    4    4    0    0  0.38137315817E+03 -0.10599865186E+01  0.14375585322E+04  0.14901082348E+04  0.91659197202E+02 0.  0.
          2    1    3    3  502    0  0.52513447300E+00  0.73833018588E+01  0.13057697453E+02  0.15009742681E+02  0.00000000000E+00 0. -1.
         -1    1    3    3    0  502  0.54498336971E+02 -0.15208452107E+03  0.10624006930E+04  0.10746138854E+04  0.00000000000E+00 0.  1.
         11    1    5    5    0    0 -0.10673144515E+02 -0.10544814857E+02  0.31278898601E+02  0.34691189543E+02  0.00000000000E+00 0. -1.
        -11    1    5    5    0    0 -0.42572348510E+03  0.15630602058E+03  0.78222743710E+03  0.90418572273E+03  0.00000000000E+00 0.  1.
          2    1    6    6  503    0  0.22144310571E+03 -0.12531810139E+02  0.99438304080E+03  0.10188187902E+04  0.00000000000E+00 0.  1.
         -2    1    6    6    0  503  0.15993005246E+03  0.11471823621E+02  0.44317549143E+03  0.47128944463E+03  0.00000000000E+00 0. -1.
<mgrwt>
<rscale>  0 0.11466694E+04</rscale>
<asrwt>0</asrwt>
<pdfrwt beam="1">  1        2 0.52654852E+00 0.11466694E+04</pdfrwt>
<pdfrwt beam="2">  1       -1 0.14775812E-01 0.11466694E+04</pdfrwt>
<totfact> 0.35934384E+01</totfact>
</mgrwt>
</event>
<event>
12    6  0.1540825E-007  0.1931581E+04  0.7818608E-02  0.8639294E-01
          2   -1    0    0  501    0  0.00000000000E+00  0.00000000000E+00  0.14875601121E+04  0.14875601121E+04  0.00000000000E+00 0. -1.
         -1   -1    0    0    0  501 -0.00000000000E+00 -0.00000000000E+00 -0.62703430352E+03  0.62703430352E+03  0.00000000000E+00 0.  1.
         24    2    1    2    0    0 -0.37023059756E+03 -0.55260465491E+03 -0.24398119273E+02  0.67158794672E+03  0.89400793944E+02 0.  0.
        254    2    1    2    0    0  0.37023059756E+03  0.55260465491E+03  0.88492392786E+03  0.14430064689E+04  0.92559964951E+03 0.  0.
         23    2    4    4    0    0  0.56223722592E+03  0.32857363181E+03  0.92228366137E+03  0.11327087843E+04  0.91382210228E+02 0.  0.
         23    2    4    4    0    0 -0.19200662836E+03  0.22403102310E+03 -0.37359733512E+02  0.31029768456E+03  0.88501179146E+02 0.  0.
          2    1    3    3  502    0 -0.13227960471E+03 -0.22079581447E+03  0.32117699125E+02  0.25938433281E+03  0.00000000000E+00 0. -1.
         -1    1    3    3    0  502 -0.23795099285E+03 -0.33180884044E+03 -0.56515818398E+02  0.41220361391E+03  0.00000000000E+00 0.  1.
         11    1    5    5    0    0  0.25850302001E+03  0.19819051019E+03  0.42195934542E+03  0.53306001433E+03  0.00000000000E+00 0.  1.
        -11    1    5    5    0    0  0.30373420591E+03  0.13038312161E+03  0.50032431594E+03  0.59964877000E+03  0.00000000000E+00 0. -1.
          4    1    6    6  503    0 -0.11243819036E+02  0.35452104397E+02  0.20892651440E+02  0.42658856723E+02  0.00000000000E+00 0. -1.
         -4    1    6    6    0  503 -0.18076280932E+03  0.18857891871E+03 -0.58252384952E+02  0.26763882784E+03  0.00000000000E+00 0.  1.
<mgrwt>
<rscale>  0 0.19315809E+04</rscale>
<asrwt>0</asrwt>
<pdfrwt beam="1">  1        2 0.22885540E+00 0.19315809E+04</pdfrwt>
<pdfrwt beam="2">  1       -1 0.96466816E-01 0.19315809E+04</pdfrwt>
<totfact> 0.14205348E+01</totfact>
</mgrwt>
</event>
<event>
12    6  0.2063858E-007  0.2975130E+04  0.7818608E-02  0.8250868E-01
         -1   -1    0    0    0  501 -0.00000000000E+00  0.00000000000E+00  0.12205936374E+04  0.12205936374E+04  0.00000000000E+00 0.  1.
          2   -1    0    0  501    0  0.00000000000E+00 -0.00000000000E+00 -0.18129295077E+04  0.18129295077E+04  0.00000000000E+00 0. -1.
         24    2    1    2    0    0 -0.43387791678E+03  0.30332066752E+03  0.10014250839E+04  0.11356611801E+04  0.81367335874E+02 0.  0.
        254    2    1    2    0    0  0.43387791678E+03 -0.30332066752E+03 -0.15937609542E+04  0.18978619650E+04  0.88405462782E+03 0.  0.
         23    2    4    4    0    0  0.14082191689E+03 -0.27907049223E+03 -0.15533947236E+04  0.15871694602E+04  0.91436186472E+02 0.  0.
         23    2    4    4    0    0  0.29305599989E+03 -0.24250175296E+02 -0.40366230610E+02  0.31069250479E+03  0.91817808094E+02 0.  0.
          4    1    3    3  502    0 -0.13705729409E+02 -0.33544682078E+01  0.41755401466E+02  0.44075083973E+02  0.00000000000E+00 0. -1.
         -3    1    3    3    0  502 -0.42017218737E+03  0.30667513573E+03  0.95966968246E+03  0.10915860962E+04  0.00000000000E+00 0.  1.
         11    1    5    5    0    0  0.36840988709E+02 -0.41834786098E+02 -0.46737796531E+03  0.47069052491E+03  0.00000000000E+00 0.  1.
        -11    1    5    5    0    0  0.10398092818E+03 -0.23723570613E+03 -0.10860167583E+04  0.11164789353E+04  0.00000000000E+00 0. -1.
          1    1    6    6  503    0  0.47536314845E+02 -0.23006369966E+02 -0.38168169847E+02  0.65159830245E+02  0.00000000000E+00 0. -1.
         -1    1    6    6    0  503  0.24551968505E+03 -0.12438053300E+01 -0.21980607633E+01  0.24553267454E+03  0.00000000000E+00 0.  1.
<mgrwt>
<rscale>  0 0.29751304E+04</rscale>
<asrwt>0</asrwt>
<pdfrwt beam="1">  1        2 0.27891223E+00 0.29751304E+04</pdfrwt>
<pdfrwt beam="2">  1       -1 0.18778364E+00 0.29751304E+04</pdfrwt>
<totfact> 0.15174932E+00</totfact>
</mgrwt>
</event>
<event>
12    6  0.1540825E-007  0.2011852E+04  0.7818608E-02  0.8601099E-01
          2   -1    0    0  501    0  0.00000000000E+00  0.00000000000E+00  0.24185057923E+04  0.24185057923E+04  0.00000000000E+00 0. -1.
         -1   -1    0    0    0  501 -0.00000000000E+00 -0.00000000000E+00 -0.41839353475E+03  0.41839353475E+03  0.00000000000E+00 0.  1.
         24    2    1    2    0    0  0.19048027671E+03 -0.39542660957E+03 -0.14465742736E+03  0.46880076351E+03  0.78761952778E+02 0.  0.
        254    2    1    2    0    0 -0.19048027671E+03  0.39542660957E+03  0.21447696849E+04  0.23680985635E+04  0.90288917703E+03 0.  0.
         23    2    4    4    0    0 -0.24048187840E+03  0.41446332660E+03  0.21997831294E+04  0.22531891451E+04  0.90576621073E+02 0.  0.
         23    2    4    4    0    0  0.50001601697E+02 -0.19036717033E+02 -0.55013444528E+02  0.11490941841E+03  0.85528583482E+02 0.  0.
          4    1    3    3  502    0  0.30956440059E+02 -0.12610975838E+03 -0.67792121014E+02  0.14648462039E+03  0.00000000000E+00 0. -1.
         -3    1    3    3    0  502  0.15952383665E+03 -0.26931685119E+03 -0.76865306342E+02  0.32231614311E+03  0.00000000000E+00 0.  1.
         11    1    5    5    0    0 -0.18350950787E+03  0.34672526203E+03  0.19227000435E+04  0.19623123106E+04  0.00000000000E+00 0.  1.
        -11    1    5    5    0    0 -0.56972370533E+02  0.67738064570E+02  0.27708308588E+03  0.29087683455E+03  0.00000000000E+00 0. -1.
          3    1    6    6  503    0  0.66254719368E+02  0.54777509843E+01 -0.20514450808E+02  0.69573962704E+02  0.00000000000E+00 0. -1.
         -3    1    6    6    0  503 -0.16253117671E+02 -0.24514468017E+02 -0.34498993720E+02  0.45335455704E+02  0.00000000000E+00 0.  1.
<mgrwt>
<rscale>  0 0.20118521E+04</rscale>
<asrwt>0</asrwt>
<pdfrwt beam="1">  1        2 0.37207781E+00 0.20118521E+04</pdfrwt>
<pdfrwt beam="2">  1       -1 0.64368237E-01 0.20118521E+04</pdfrwt>
<totfact> 0.10035227E+01</totfact>
</mgrwt>
</event>
<event>
12    6  0.1540825E-007  0.2218996E+04  0.7818608E-02  0.8510563E-01
         -1   -1    0    0    0  501 -0.00000000000E+00  0.00000000000E+00  0.10901256554E+04  0.10901256554E+04  0.00000000000E+00 0.  1.
          2   -1    0    0  501    0  0.00000000000E+00 -0.00000000000E+00 -0.11292146609E+04  0.11292146609E+04  0.00000000000E+00 0. -1.
         24    2    1    2    0    0 -0.48283745280E+03  0.35140379200E+03  0.69110939232E+03  0.91700246977E+03  0.81515069455E+02 0.  0.
        254    2    1    2    0    0  0.48283745280E+03 -0.35140379200E+03 -0.73019839776E+03  0.13023378465E+04  0.89792958275E+03 0.  0.
         23    2    4    4    0    0  0.58569966683E+03 -0.61114123821E+02 -0.77538100350E+03  0.97803470814E+03  0.92504885681E+02 0.  0.
         23    2    4    4    0    0 -0.10286221403E+03 -0.29028966818E+03  0.45182605739E+02  0.32430313840E+03  0.91007313927E+02 0.  0.
          2    1    3    3  502    0 -0.12533949873E+03  0.93590512107E+02  0.12942972413E+03  0.20303011448E+03  0.00000000000E+00 0. -1.
         -1    1    3    3    0  502 -0.35749795408E+03  0.25781327990E+03  0.56167966819E+03  0.71397235529E+03  0.00000000000E+00 0.  1.
         11    1    5    5    0    0  0.21993281321E+03  0.17044859321E+02 -0.32147468470E+03  0.38988067721E+03  0.00000000000E+00 0.  1.
        -11    1    5    5    0    0  0.36576685362E+03 -0.78158983142E+02 -0.45390631880E+03  0.58815403093E+03  0.00000000000E+00 0. -1.
          2    1    6    6  503    0 -0.15363373102E+02 -0.96592694927E+02 -0.24137797698E+02  0.10074132828E+03  0.00000000000E+00 0.  1.
         -2    1    6    6    0  503 -0.87498840925E+02 -0.19369697325E+03  0.69320403437E+02  0.22356181012E+03  0.00000000000E+00 0. -1.
<mgrwt>
<rscale>  0 0.22189961E+04</rscale>
<asrwt>0</asrwt>
<pdfrwt beam="1">  1        2 0.17372533E+00 0.22189961E+04</pdfrwt>
<pdfrwt beam="2">  1       -1 0.16771164E+00 0.22189961E+04</pdfrwt>
<totfact> 0.55644630E+00</totfact>
</mgrwt>
</event>
<event>
12    6  0.1540825E-007  0.9854718E+03  0.7818608E-02  0.9324624E-01
          2   -1    0    0  501    0  0.00000000000E+00  0.00000000000E+00  0.26468267648E+04  0.26468267648E+04  0.00000000000E+00 0. -1.
         -1   -1    0    0    0  501 -0.00000000000E+00 -0.00000000000E+00 -0.91728204418E+02  0.91728204418E+02  0.00000000000E+00 0.  1.
         24    2    1    2    0    0  0.39856286859E+02  0.20295296102E+02  0.29935599395E+03  0.31250810794E+03  0.77761711436E+02 0.  0.
        254    2    1    2    0    0 -0.39856286859E+02 -0.20295296102E+02  0.22557425664E+04  0.24260468613E+04  0.89181187730E+03 0.  0.
         23    2    4    4    0    0  0.38908267375E+03 -0.23781484443E+02  0.14974245859E+04  0.15500316199E+04  0.91469919864E+02 0.  0.
         23    2    4    4    0    0 -0.42893896060E+03  0.34861883416E+01  0.75831798053E+03  0.87601524138E+03  0.91409835875E+02 0.  0.
          2    1    3    3  502    0  0.36913093210E+02  0.32882433225E+02  0.29462396825E+03  0.29874255393E+03  0.00000000000E+00 0. -1.
         -1    1    3    3    0  502  0.29431936485E+01 -0.12587137123E+02  0.47320257086E+01  0.13765554007E+02  0.00000000000E+00 0.  1.
         11    1    5    5    0    0  0.76930874131E+02  0.23340151852E+02  0.22165794842E+03  0.23578670060E+03  0.00000000000E+00 0.  1.
        -11    1    5    5    0    0  0.31215179961E+03 -0.47121636295E+02  0.12757666375E+04  0.13142449193E+04  0.00000000000E+00 0. -1.
          3    1    6    6  503    0 -0.14814977588E+03  0.34585043560E+02  0.21149507754E+03  0.26052763607E+03  0.00000000000E+00 0. -1.
         -3    1    6    6    0  503 -0.28078918473E+03 -0.31098855219E+02  0.54682290299E+03  0.61548760531E+03  0.00000000000E+00 0.  1.
<mgrwt>
<rscale>  0 0.98547180E+03</rscale>
<asrwt>0</asrwt>
<pdfrwt beam="1">  1        2 0.40720406E+00 0.98547180E+03</pdfrwt>
<pdfrwt beam="2">  1       -1 0.14112033E-01 0.98547180E+03</pdfrwt>
<totfact> 0.12003832E+02</totfact>
</mgrwt>
</event>
<event>
12    6  0.1540825E-007  0.2658515E+04  0.7818608E-02  0.8348592E-01
         -1   -1    0    0    0  501 -0.00000000000E+00  0.00000000000E+00  0.13378624905E+04  0.13378624905E+04  0.00000000000E+00 0.  1.
          2   -1    0    0  501    0  0.00000000000E+00 -0.00000000000E+00 -0.13207077256E+04  0.13207077256E+04  0.00000000000E+00 0. -1.
         24    2    1    2    0    0  0.46679189587E+03  0.97972363377E+03 -0.44921406330E+03  0.11772588586E+04  0.79950440604E+02 0.  0.
        254    2    1    2    0    0 -0.46679189587E+03 -0.97972363377E+03  0.46636882824E+03  0.14813113575E+04  0.89388499335E+03 0.  0.
         23    2    4    4    0    0 -0.40919833392E+03 -0.18933144802E+02  0.24422396337E+02  0.41832221482E+03  0.81211338572E+02 0.  0.
         23    2    4    4    0    0 -0.57593561958E+02 -0.96079048896E+03  0.44194643191E+03  0.10629891427E+04  0.90520090400E+02 0.  0.
          4    1    3    3  502    0  0.14252935627E+03  0.31052986465E+03 -0.18170307038E+03  0.38698762257E+03  0.00000000000E+00 0. -1.
         -3    1    3    3    0  502  0.32426253960E+03  0.66919376912E+03 -0.26751099292E+03  0.79027123607E+03  0.00000000000E+00 0.  1.
         11    1    5    5    0    0 -0.30715574025E+03 -0.46366872691E+02  0.32592466255E+02  0.31234084668E+03  0.00000000000E+00 0.  1.
        -11    1    5    5    0    0 -0.10204259367E+03  0.27433727889E+02 -0.81700699183E+01  0.10598136813E+03  0.00000000000E+00 0. -1.
          2    1    6    6  503    0 -0.76514673665E+02 -0.81044299051E+03  0.35308473849E+03  0.88732247166E+03  0.00000000000E+00 0. -1.
         -2    1    6    6    0  503  0.18921111707E+02 -0.15034749845E+03  0.88861693412E+02  0.17566667104E+03  0.00000000000E+00 0.  1.
<mgrwt>
<rscale>  0 0.26585149E+04</rscale>
<asrwt>0</asrwt>
<pdfrwt beam="1">  1        2 0.20318580E+00 0.26585149E+04</pdfrwt>
<pdfrwt beam="2">  1       -1 0.20582500E+00 0.26585149E+04</pdfrwt>
<totfact> 0.22133419E+00</totfact>
</mgrwt>
</event>
<event>
12    6  0.1540825E-007  0.1504960E+04  0.7818608E-02  0.8881161E-01
         -1   -1    0    0    0  501 -0.00000000000E+00  0.00000000000E+00  0.43924065068E+03  0.43924065068E+03  0.00000000000E+00 0.  1.
          2   -1    0    0  501    0  0.00000000000E+00 -0.00000000000E+00 -0.12891028626E+04  0.12891028626E+04  0.00000000000E+00 0. -1.
         24    2    1    2    0    0 -0.88392104269E+02 -0.93060892997E+02  0.25499808512E+03  0.29820330164E+03  0.86184057654E+02 0.  0.
        254    2    1    2    0    0  0.88392104269E+02  0.93060892997E+02 -0.11048602970E+04  0.14301402116E+04  0.89895008487E+03 0.  0.
         23    2    4    4    0    0 -0.28421451108E+03 -0.12171399193E+03 -0.87757810424E+03  0.93482859185E+03  0.90382426140E+02 0.  0.
         23    2    4    4    0    0  0.37260661535E+03  0.21477488492E+03 -0.22728219281E+03  0.49531161980E+03  0.93340583592E+02 0.  0.
          4    1    3    3  502    0 -0.51654848753E+02 -0.13937042687E+02  0.41951893093E+02  0.67988424696E+02  0.00000000000E+00 0. -1.
         -3    1    3    3    0  502 -0.36737255516E+02 -0.79123850309E+02  0.21304619203E+03  0.23021487695E+03  0.00000000000E+00 0.  1.
         11    1    5    5    0    0 -0.20709616822E+03 -0.48209043418E+02 -0.64157158801E+03  0.67588981151E+03  0.00000000000E+00 0. -1.
        -11    1    5    5    0    0 -0.77118342857E+02 -0.73504948509E+02 -0.23600651623E+03  0.25893878034E+03  0.00000000000E+00 0.  1.
          2    1    6    6  503    0  0.35103453887E+03  0.20235872594E+03 -0.18317344410E+03  0.44466483116E+03  0.00000000000E+00 0. -1.
         -2    1    6    6    0  503  0.21572076477E+02  0.12416158986E+02 -0.44108748703E+02  0.50646788641E+02  0.00000000000E+00 0.  1.
<mgrwt>
<rscale>  0 0.15049603E+04</rscale>
<asrwt>0</asrwt>
<pdfrwt beam="1">  1        2 0.19832352E+00 0.15049603E+04</pdfrwt>
<pdfrwt beam="2">  1       -1 0.67575485E-01 0.15049603E+04</pdfrwt>
<totfact> 0.40963905E+01</totfact>
</mgrwt>
</event>
<event>
12    6  0.1540825E-007  0.2354607E+04  0.7818608E-02  0.8456696E-01
          2   -1    0    0  501    0  0.00000000000E+00  0.00000000000E+00  0.14109654380E+04  0.14109654380E+04  0.00000000000E+00 0. -1.
         -1   -1    0    0    0  501 -0.00000000000E+00 -0.00000000000E+00 -0.98233690849E+03  0.98233690849E+03  0.00000000000E+00 0.  1.
         24    2    1    2    0    0 -0.90857120748E+03  0.43180134219E+03  0.14934876410E+03  0.10201232304E+04  0.79951946412E+02 0.  0.
        254    2    1    2    0    0  0.90857120748E+03 -0.43180134219E+03  0.27927976545E+03  0.13731791161E+04  0.89200317229E+03 0.  0.
         23    2    4    4    0    0  0.92729650131E+03 -0.46584276900E+03  0.47992986188E+03  0.11469343571E+04  0.90760455964E+02 0.  0.
         23    2    4    4    0    0 -0.18725293828E+02  0.34041426818E+02 -0.20065009643E+03  0.22624475903E+03  0.97040066074E+02 0.  0.
          4    1    3    3  502    0 -0.13156561084E+03  0.69525672998E+02 -0.56507867511E+01  0.14891360096E+03  0.00000000000E+00 0. -1.
         -3    1    3    3    0  502 -0.77700559664E+03  0.36227566919E+03  0.15499955086E+03  0.87120962946E+03  0.00000000000E+00 0.  1.
         11    1    5    5    0    0  0.28045457801E+03 -0.18596497056E+03  0.16984465974E+03  0.37694157246E+03  0.00000000000E+00 0.  1.
        -11    1    5    5    0    0  0.64684192329E+03 -0.27987779844E+03  0.31008520214E+03  0.76999278463E+03  0.00000000000E+00 0. -1.
          2    1    6    6  503    0 -0.80113213181E+01  0.13417928844E+02  0.71240990541E+01  0.17174832490E+02  0.00000000000E+00 0.  1.
         -2    1    6    6    0  503 -0.10713972510E+02  0.20623497974E+02 -0.20777419548E+03  0.20906992654E+03  0.00000000000E+00 0. -1.
<mgrwt>
<rscale>  0 0.23546069E+04</rscale>
<asrwt>0</asrwt>
<pdfrwt beam="1">  1        2 0.21707161E+00 0.23546069E+04</pdfrwt>
<pdfrwt beam="2">  1       -1 0.15112875E+00 0.23546069E+04</pdfrwt>
<totfact> 0.50148809E+00</totfact>
</mgrwt>
</event>
<event>
12    6  0.1540825E-007  0.3290999E+04  0.7818608E-02  0.8165189E-01
         -1   -1    0    0    0  501 -0.00000000000E+00  0.00000000000E+00  0.10006410993E+04  0.10006410993E+04  0.00000000000E+00 0.  1.
          2   -1    0    0  501    0  0.00000000000E+00 -0.00000000000E+00 -0.27059340681E+04  0.27059340681E+04  0.00000000000E+00 0. -1.
         24    2    1    2    0    0 -0.10096054933E+03  0.15034034301E+04 -0.10086304527E+04  0.18149049012E+04  0.78291151150E+02 0.  0.
        254    2    1    2    0    0  0.10096054933E+03 -0.15034034301E+04 -0.69666251614E+03  0.18916702663E+04  0.90700762339E+03 0.  0.
         23    2    4    4    0    0 -0.80762382985E+02 -0.60308819683E+03 -0.74578386139E+03  0.96666571234E+03  0.89504725221E+02 0.  0.
         23    2    4    4    0    0  0.18172293231E+03 -0.90031523322E+03  0.49121345252E+02  0.92500455394E+03  0.98131416705E+02 0.  0.
          4    1    3    3  502    0 -0.10469465578E+03  0.11889867813E+04 -0.82196491320E+03  0.14492331957E+04  0.00000000000E+00 0. -1.
         -3    1    3    3    0  502  0.37341064587E+01  0.31441664873E+03 -0.18666553946E+03  0.36567170546E+03  0.00000000000E+00 0.  1.
         11    1    5    5    0    0 -0.59671590621E+02 -0.34166940420E+03 -0.35746518336E+03  0.49807633733E+03  0.00000000000E+00 0. -1.
        -11    1    5    5    0    0 -0.21090792364E+02 -0.26141879264E+03 -0.38831867803E+03  0.46858937501E+03  0.00000000000E+00 0.  1.
          3    1    6    6  503    0  0.61682224598E+02 -0.53338794066E+03  0.10901200359E+02  0.53705328250E+03  0.00000000000E+00 0. -1.
         -3    1    6    6    0  503  0.12004070771E+03 -0.36692729257E+03  0.38220144893E+02  0.38795127144E+03  0.00000000000E+00 0.  1.
<mgrwt>
<rscale>  0 0.32909991E+04</rscale>
<asrwt>0</asrwt>
<pdfrwt beam="1">  1        2 0.41629754E+00 0.32909991E+04</pdfrwt>
<pdfrwt beam="2">  1       -1 0.15394479E+00 0.32909991E+04</pdfrwt>
<totfact> 0.81295002E-01</totfact>
</mgrwt>
</event>
<event>
12    6  0.1540825E-007  0.1853432E+04  0.7818608E-02  0.8678390E-01
          4   -1    0    0  501    0  0.00000000000E+00  0.00000000000E+00  0.45148344608E+03  0.45148344608E+03  0.00000000000E+00 0. -1.
         -3   -1    0    0    0  501 -0.00000000000E+00 -0.00000000000E+00 -0.19021785602E+04  0.19021785602E+04  0.00000000000E+00 0.  1.
         24    2    1    2    0    0 -0.54039342443E+02  0.68523238290E+03 -0.35611735816E+03  0.77958984104E+03  0.92071050627E+02 0.  0.
        254    2    1    2    0    0  0.54039342443E+02 -0.68523238290E+03 -0.10945777560E+04  0.15740721653E+04  0.89840917653E+03 0.  0.
         23    2    4    4    0    0 -0.53444768354E+02 -0.82510548165E+03 -0.10960174213E+04  0.13759750264E+04  0.91638892420E+02 0.  0.
         23    2    4    4    0    0  0.10748411080E+03  0.13987309875E+03  0.14396652768E+01  0.19809713882E+03  0.90128163993E+02 0.  0.
          2    1    3    3  502    0 -0.78406487132E+02  0.58723358329E+03 -0.30817462331E+03  0.66780420560E+03  0.00000000000E+00 0. -1.
         -1    1    3    3    0  502  0.24367144689E+02  0.97998799607E+02 -0.47942734849E+02  0.11178563543E+03  0.00000000000E+00 0.  1.
         11    1    5    5    0    0 -0.63902557076E+02 -0.32323701221E+03 -0.41288822034E+03  0.52824462644E+03  0.00000000000E+00 0. -1.
        -11    1    5    5    0    0  0.10457788721E+02 -0.50186846943E+03 -0.68312920091E+03  0.84773040001E+03  0.00000000000E+00 0.  1.
          4    1    6    6  503    0  0.11282858269E+03  0.83382411401E+02 -0.82263937059E+01  0.14053678933E+03  0.00000000000E+00 0. -1.
         -4    1    6    6    0  503 -0.53444718906E+01  0.56490687347E+02  0.96660589827E+01  0.57560349486E+02  0.00000000000E+00 0.  1.
<mgrwt>
<rscale>  0 0.18534316E+04</rscale>
<asrwt>0</asrwt>
<pdfrwt beam="1">  1        4 0.69458993E-01 0.18534316E+04</pdfrwt>
<pdfrwt beam="2">  1       -3 0.29264285E+00 0.18534316E+04</pdfrwt>
<totfact> 0.17170777E-01</totfact>
</mgrwt>
</event>
<event>
12    6  0.1540825E-007  0.1277298E+04  0.7818608E-02  0.9047764E-01
          2   -1    0    0  501    0  0.00000000000E+00  0.00000000000E+00  0.66301927592E+03  0.66301927592E+03  0.00000000000E+00 0. -1.
         -1   -1    0    0    0  501 -0.00000000000E+00 -0.00000000000E+00 -0.61517434068E+03  0.61517434068E+03  0.00000000000E+00 0.  1.
         24    2    1    2    0    0 -0.16293817118E+03  0.82912635105E+02  0.26936517338E+03  0.33553883602E+03  0.81273372993E+02 0.  0.
        254    2    1    2    0    0  0.16293817118E+03 -0.82912635105E+02 -0.22152023814E+03  0.94265478059E+03  0.89783264965E+03 0.  0.
         23    2    4    4    0    0  0.41684672068E+03  0.98803798754E+02  0.13550409347E+03  0.45943676125E+03  0.95903071166E+02 0.  0.
         23    2    4    4    0    0 -0.25390854949E+03 -0.18171643386E+03 -0.35702433161E+03  0.48321801933E+03  0.92427631188E+02 0.  0.
          2    1    3    3  502    0 -0.74201046086E+02  0.80221549100E+01  0.15757481531E+03  0.17435587925E+03  0.00000000000E+00 0. -1.
         -1    1    3    3    0  502 -0.88737125098E+02  0.74890480195E+02  0.11179035807E+03  0.16118295677E+03  0.00000000000E+00 0.  1.
         11    1    5    5    0    0  0.72133393148E+02  0.24127203222E+02  0.64330288834E+02  0.99617942178E+02  0.00000000000E+00 0. -1.
        -11    1    5    5    0    0  0.34471332753E+03  0.74676595531E+02  0.71173804637E+02  0.35981881908E+03  0.00000000000E+00 0.  1.
          3    1    6    6  503    0 -0.12681275035E+02 -0.22944221939E+02 -0.30621584239E+01  0.26393727875E+02  0.00000000000E+00 0. -1.
         -3    1    6    6    0  503 -0.24122727446E+03 -0.15877221192E+03 -0.35396217318E+03  0.45682429146E+03  0.00000000000E+00 0.  1.
<mgrwt>
<rscale>  0 0.12772978E+04</rscale>
<asrwt>0</asrwt>
<pdfrwt beam="1">  1        2 0.10200297E+00 0.12772978E+04</pdfrwt>
<pdfrwt beam="2">  1       -1 0.94642206E-01 0.12772978E+04</pdfrwt>
<totfact> 0.53155970E+01</totfact>
</mgrwt>
</event>
<event>
12    6  0.1540825E-007  0.1886499E+04  0.7818608E-02  0.8661606E-01
          2   -1    0    0  501    0  0.00000000000E+00  0.00000000000E+00  0.98444185960E+03  0.98444185960E+03  0.00000000000E+00 0. -1.
         -1   -1    0    0    0  501 -0.00000000000E+00 -0.00000000000E+00 -0.90378070423E+03  0.90378070423E+03  0.00000000000E+00 0.  1.
         24    2    1    2    0    0 -0.57406777907E+03 -0.44276435442E+03 -0.42079275076E+02  0.73072802454E+03  0.81232333116E+02 0.  0.
        254    2    1    2    0    0  0.57406777907E+03  0.44276435442E+03  0.12274043045E+03  0.11574945393E+04  0.89394312273E+03 0.  0.
         23    2    4    4    0    0  0.76227698189E+03  0.40883748962E+03 -0.69121786285E+02  0.87265492463E+03  0.92382390668E+02 0.  0.
         23    2    4    4    0    0 -0.18820920281E+03  0.33926864804E+02  0.19186221673E+03  0.28483961466E+03  0.88027039533E+02 0.  0.
          4    1    3    3  502    0 -0.14137423819E+03 -0.12920337624E+03 -0.43339531850E+02  0.19636319074E+03  0.00000000000E+00 0. -1.
         -3    1    3    3    0  502 -0.43269354088E+03 -0.31356097819E+03  0.12602567735E+01  0.53436483381E+03  0.00000000000E+00 0.  1.
         11    1    5    5    0    0  0.75034652023E+03  0.40908065144E+03 -0.58392276350E+02  0.85660757511E+03  0.00000000000E+00 0. -1.
        -11    1    5    5    0    0  0.11930461661E+02 -0.24316182123E+00 -0.10729509935E+02  0.16047349518E+02  0.00000000000E+00 0.  1.
          2    1    6    6  503    0 -0.11143857797E+03  0.30641069756E+02  0.16886994040E+03  0.20463256971E+03  0.00000000000E+00 0. -1.
         -2    1    6    6    0  503 -0.76770624843E+02  0.32857950479E+01  0.22992276332E+02  0.80207044945E+02  0.00000000000E+00 0.  1.
<mgrwt>
<rscale>  0 0.18864989E+04</rscale>
<asrwt>0</asrwt>
<pdfrwt beam="1">  1        2 0.15145259E+00 0.18864989E+04</pdfrwt>
<pdfrwt beam="2">  1       -1 0.13904319E+00 0.18864989E+04</pdfrwt>
<totfact> 0.11767723E+01</totfact>
</mgrwt>
</event>
<event>
12    6  0.1540825E-007  0.1535310E+04  0.7818608E-02  0.8861306E-01
          2   -1    0    0  501    0  0.00000000000E+00  0.00000000000E+00  0.41647468952E+03  0.41647468952E+03  0.00000000000E+00 0. -1.
         -1   -1    0    0    0  501 -0.00000000000E+00 -0.00000000000E+00 -0.14149572298E+04  0.14149572298E+04  0.00000000000E+00 0.  1.
         24    2    1    2    0    0  0.32477238906E+03  0.26078321940E+03 -0.56800680158E+03  0.70890951310E+03  0.80224553040E+02 0.  0.
        254    2    1    2    0    0 -0.32477238906E+03 -0.26078321940E+03 -0.43047573873E+03  0.11225224062E+04  0.94934830208E+03 0.  0.
         23    2    4    4    0    0  0.27425202951E+03 -0.76725472744E+02  0.79147612659E+02  0.30922067321E+03  0.90841104652E+02 0.  0.
         23    2    4    4    0    0 -0.59902441857E+03 -0.18405774666E+03 -0.50962335139E+03  0.81330173303E+03  0.95059142237E+02 0.  0.
          4    1    3    3  502    0  0.40195823500E+02  0.52373551349E+02 -0.52862508635E+02  0.84576225542E+02  0.00000000000E+00 0. -1.
         -3    1    3    3    0  502  0.28457656556E+03  0.20840966805E+03 -0.51514429294E+03  0.62433328756E+03  0.00000000000E+00 0.  1.
         11    1    5    5    0    0  0.24135807121E+03 -0.85756724751E+02  0.43367285065E+02  0.25978578828E+03  0.00000000000E+00 0.  1.
        -11    1    5    5    0    0  0.32893958294E+02  0.90312520074E+01  0.35780327594E+02  0.49434884927E+02  0.00000000000E+00 0. -1.
          2    1    6    6  503    0 -0.50188062495E+03 -0.15910364740E+03 -0.46898070015E+03  0.70508228557E+03  0.00000000000E+00 0. -1.
         -2    1    6    6    0  503 -0.97143793623E+02 -0.24954099258E+02 -0.40642651246E+02  0.10821944747E+03  0.00000000000E+00 0.  1.
<mgrwt>
<rscale>  0 0.15353096E+04</rscale>
<asrwt>0</asrwt>
<pdfrwt beam="1">  1        2 0.64073030E-01 0.15353096E+04</pdfrwt>
<pdfrwt beam="2">  1       -1 0.21768573E+00 0.15353096E+04</pdfrwt>
<totfact> 0.95500678E+00</totfact>
</mgrwt>
</event>
<event>
12    6  0.1540825E-007  0.2193291E+04  0.7818608E-02  0.8521226E-01
         -1   -1    0    0    0  501 -0.00000000000E+00  0.00000000000E+00  0.90767383319E+03  0.90767383319E+03  0.00000000000E+00 0.  1.
          2   -1    0    0  501    0  0.00000000000E+00 -0.00000000000E+00 -0.13249597998E+04  0.13249597998E+04  0.00000000000E+00 0. -1.
         24    2    1    2    0    0  0.84966598703E+03  0.21439178315E+03  0.75904998775E+02  0.88332914547E+03  0.81318412408E+02 0.  0.
        254    2    1    2    0    0 -0.84966598703E+03 -0.21439178315E+03 -0.49319096541E+03  0.13493044875E+04  0.89971614720E+03 0.  0.
         23    2    4    4    0    0  0.42356382191E+02  0.49411683625E+02 -0.39322600415E+03  0.40935970941E+03  0.93344007623E+02 0.  0.
         23    2    4    4    0    0 -0.89202236922E+03 -0.26380346678E+03 -0.99964961262E+02  0.93994477813E+03  0.90592583447E+02 0.  0.
          4    1    3    3  502    0  0.76558342568E+03  0.21314174548E+03  0.82547972165E+02  0.79897531441E+03  0.00000000000E+00 0. -1.
         -3    1    3    3    0  502  0.84082561354E+02  0.12500376739E+01 -0.66429733898E+01  0.84353831054E+02  0.00000000000E+00 0.  1.
         11    1    5    5    0    0  0.45130764800E+02  0.64447965456E+02 -0.38292262785E+03  0.39092207037E+03  0.00000000000E+00 0. -1.
        -11    1    5    5    0    0 -0.27743826091E+01 -0.15036281832E+02 -0.10303376295E+02  0.18437639037E+02  0.00000000000E+00 0.  1.
          3    1    6    6  503    0 -0.49581445611E+03 -0.11419519858E+03 -0.87385863293E+02  0.51624491026E+03  0.00000000000E+00 0. -1.
         -3    1    6    6    0  503 -0.39620791311E+03 -0.14960826820E+03 -0.12579097969E+02  0.42369986787E+03  0.00000000000E+00 0.  1.
<mgrwt>
<rscale>  0 0.21932910E+04</rscale>
<asrwt>0</asrwt>
<pdfrwt beam="1">  1        2 0.20383997E+00 0.21932910E+04</pdfrwt>
<pdfrwt beam="2">  1       -1 0.13964213E+00 0.21932910E+04</pdfrwt>
<totfact> 0.70319542E+00</totfact>
</mgrwt>
</event>
<event>
12    6  0.1540825E-007  0.1735493E+04  0.7818608E-02  0.8741376E-01
          2   -1    0    0  501    0  0.00000000000E+00  0.00000000000E+00  0.38354526234E+03  0.38354526234E+03  0.00000000000E+00 0. -1.
         -1   -1    0    0    0  501 -0.00000000000E+00 -0.00000000000E+00 -0.19632205134E+04  0.19632205134E+04  0.00000000000E+00 0.  1.
         24    2    1    2    0    0  0.20358340197E+03 -0.44400085308E+03 -0.11263892194E+04  0.12304412873E+04  0.81548321280E+02 0.  0.
        254    2    1    2    0    0 -0.20358340197E+03  0.44400085308E+03 -0.45328603164E+03  0.11163244885E+04  0.89561664678E+03 0.  0.
         23    2    4    4    0    0  0.16158464068E+03  0.27381212756E+03  0.16754589719E+03  0.37071189739E+03  0.90956065785E+02 0.  0.
         23    2    4    4    0    0 -0.36516804265E+03  0.17018872552E+03 -0.62083192883E+03  0.74561259108E+03  0.90520442184E+02 0.  0.
          2    1    3    3  502    0  0.56642493936E+02 -0.57122526075E+02 -0.15698691524E+03  0.17639797805E+03  0.00000000000E+00 0. -1.
         -1    1    3    3    0  502  0.14694090804E+03 -0.38687832701E+03 -0.96940230418E+03  0.10540433092E+04  0.00000000000E+00 0.  1.
         11    1    5    5    0    0  0.16270470191E+03  0.25643675927E+03  0.17636534159E+03  0.35119419876E+03  0.00000000000E+00 0.  1.
        -11    1    5    5    0    0 -0.11200612325E+01  0.17375368288E+02 -0.88194444031E+01  0.19517698632E+02  0.00000000000E+00 0. -1.
          4    1    6    6  503    0 -0.15072950173E+03  0.23254262803E+02 -0.24675476818E+03  0.29008284860E+03  0.00000000000E+00 0. -1.
         -4    1    6    6    0  503 -0.21443854092E+03  0.14693446272E+03 -0.37407716064E+03  0.45552974248E+03  0.00000000000E+00 0.  1.
<mgrwt>
<rscale>  0 0.17354929E+04</rscale>
<asrwt>0</asrwt>
<pdfrwt beam="1">  1        2 0.59006963E-01 0.17354929E+04</pdfrwt>
<pdfrwt beam="2">  1       -1 0.30203393E+00 0.17354929E+04</pdfrwt>
<totfact> 0.29030522E+00</totfact>
</mgrwt>
</event>
<event>
12    6  0.1540825E-007  0.1447822E+04  0.7818608E-02  0.8919912E-01
         -1   -1    0    0    0  501 -0.00000000000E+00  0.00000000000E+00  0.83489048697E+03  0.83489048697E+03  0.00000000000E+00 0.  1.
          2   -1    0    0  501    0  0.00000000000E+00 -0.00000000000E+00 -0.62768343818E+03  0.62768343818E+03  0.00000000000E+00 0. -1.
         24    2    1    2    0    0 -0.23741955699E+03  0.30712938224E+03 -0.11098919673E+03  0.41196107600E+03  0.81834118039E+02 0.  0.
        254    2    1    2    0    0  0.23741955699E+03 -0.30712938224E+03  0.31819624552E+03  0.10506128491E+04  0.92295287239E+03 0.  0.
         23    2    4    4    0    0 -0.18918391413E+03 -0.37137416377E+03  0.42074513995E+03  0.59930141315E+03  0.91795360114E+02 0.  0.
         23    2    4    4    0    0  0.42660347111E+03  0.64244781532E+02 -0.10254889442E+03  0.45131143600E+03  0.83951313232E+02 0.  0.
          4    1    3    3  502    0 -0.11819688833E+03  0.17601095831E+03 -0.99967431506E+02  0.23440104355E+03  0.00000000000E+00 0. -1.
         -3    1    3    3    0  502 -0.11922266866E+03  0.13111842392E+03 -0.11021765226E+02  0.17756003245E+03  0.00000000000E+00 0.  1.
         11    1    5    5    0    0 -0.66782126755E+02 -0.10272256974E+03  0.18311206770E+03  0.22032205547E+03  0.00000000000E+00 0. -1.
        -11    1    5    5    0    0 -0.12240178737E+03 -0.26865159403E+03  0.23763307225E+03  0.37897935768E+03  0.00000000000E+00 0.  1.
          4    1    6    6  503    0  0.30407018553E+03  0.19254731626E+02 -0.10028804060E+03  0.32076021185E+03  0.00000000000E+00 0. -1.
         -4    1    6    6    0  503  0.12253328558E+03  0.44990049906E+02 -0.22608538254E+01  0.13055122414E+03  0.00000000000E+00 0.  1.
<mgrwt>
<rscale>  0 0.14478217E+04</rscale>
<asrwt>0</asrwt>
<pdfrwt beam="1">  1        2 0.96566683E-01 0.14478217E+04</pdfrwt>
<pdfrwt beam="2">  1       -1 0.12844469E+00 0.14478217E+04</pdfrwt>
<totfact> 0.27203738E+01</totfact>
</mgrwt>
</event>
<event>
12    6  0.1540825E-007  0.1337018E+04  0.7818608E-02  0.9000714E-01
         -1   -1    0    0    0  501 -0.00000000000E+00  0.00000000000E+00  0.64610084884E+03  0.64610084884E+03  0.00000000000E+00 0.  1.
          2   -1    0    0  501    0  0.00000000000E+00 -0.00000000000E+00 -0.69169404091E+03  0.69169404091E+03  0.00000000000E+00 0. -1.
         24    2    1    2    0    0 -0.31671672187E+03  0.16113894344E+03  0.65309837797E+01  0.36442869424E+03  0.80562884953E+02 0.  0.
        254    2    1    2    0    0  0.31671672187E+03 -0.16113894344E+03 -0.52124175845E+02  0.97336619551E+03  0.90468203246E+03 0.  0.
         23    2    4    4    0    0 -0.30216145637E+03 -0.14135039709E+03 -0.16604332107E+02  0.34654022553E+03  0.92373933506E+02 0.  0.
         23    2    4    4    0    0  0.61887817824E+03 -0.19788546348E+02 -0.35519843738E+02  0.62682596999E+03  0.90814928730E+02 0.  0.
          2    1    3    3  502    0 -0.87658277641E+02  0.53132128339E+02 -0.33925934698E+02  0.10797206002E+03  0.00000000000E+00 0. -1.
         -1    1    3    3    0  502 -0.22905844423E+03  0.10800681510E+03  0.40456918477E+02  0.25645663421E+03  0.00000000000E+00 0.  1.
         11    1    5    5    0    0 -0.15635802813E+03 -0.10625071561E+03 -0.43985927456E+02  0.19409227018E+03  0.00000000000E+00 0. -1.
        -11    1    5    5    0    0 -0.14580342824E+03 -0.35099681477E+02  0.27381595350E+02  0.15244795535E+03  0.00000000000E+00 0.  1.
          4    1    6    6  503    0  0.39049098469E+03 -0.14651993312E+02  0.21552687376E+02  0.39135969180E+03  0.00000000000E+00 0. -1.
         -4    1    6    6    0  503  0.22838719355E+03 -0.51365530364E+01 -0.57072531114E+02  0.23546627818E+03  0.00000000000E+00 0.  1.
<mgrwt>
<rscale>  0 0.13370177E+04</rscale>
<asrwt>0</asrwt>
<pdfrwt beam="1">  1        2 0.10641447E+00 0.13370177E+04</pdfrwt>
<pdfrwt beam="2">  1       -1 0.99400131E-01 0.13370177E+04</pdfrwt>
<totfact> 0.44911330E+01</totfact>
</mgrwt>
</event>
<event>
12    6  0.1540825E-007  0.1925073E+04  0.7818608E-02  0.8642475E-01
          2   -1    0    0  501    0  0.00000000000E+00  0.00000000000E+00  0.28397611120E+04  0.28397611120E+04  0.00000000000E+00 0. -1.
         -1   -1    0    0    0  501 -0.00000000000E+00 -0.00000000000E+00 -0.32625168654E+03  0.32625168654E+03  0.00000000000E+00 0.  1.
         24    2    1    2    0    0 -0.27115675132E+03  0.18830622867E+03 -0.12053279259E+03  0.36074593251E+03  0.81389521382E+02 0.  0.
        254    2    1    2    0    0  0.27115675132E+03 -0.18830622867E+03  0.26340422181E+04  0.28052668660E+04  0.90683987761E+03 0.  0.
         23    2    4    4    0    0  0.24588608754E+03 -0.41391744954E+01  0.13074892867E+03  0.29295828889E+03  0.90841487586E+02 0.  0.
         23    2    4    4    0    0  0.25270663777E+02 -0.18416705417E+03  0.25032932894E+04  0.25123085772E+04  0.10325204028E+03 0.  0.
          4    1    3    3  502    0 -0.14112686794E+03  0.60490797523E+02 -0.27270456543E+02  0.15594745025E+03  0.00000000000E+00 0. -1.
         -3    1    3    3    0  502 -0.13002988338E+03  0.12781543114E+03 -0.93262336047E+02  0.20479848226E+03  0.00000000000E+00 0.  1.
         11    1    5    5    0    0  0.63783455097E+02  0.82561201593E+01 -0.64234590843E+01  0.64635543556E+02  0.00000000000E+00 0. -1.
        -11    1    5    5    0    0  0.18210263244E+03 -0.12395294655E+02  0.13717238775E+03  0.22832274533E+03  0.00000000000E+00 0.  1.
          1    1    6    6  503    0  0.55670000846E+02 -0.16031129312E+03  0.22053841821E+04  0.22119037616E+04  0.00000000000E+00 0. -1.
         -1    1    6    6    0  503 -0.30399337069E+02 -0.23855761048E+02  0.29790910727E+03  0.30040481558E+03  0.00000000000E+00 0.  1.
<mgrwt>
<rscale>  0 0.19250734E+04</rscale>
<asrwt>0</asrwt>
<pdfrwt beam="1">  1        2 0.43688631E+00 0.19250734E+04</pdfrwt>
<pdfrwt beam="2">  1       -1 0.50192569E-01 0.19250734E+04</pdfrwt>
<totfact> 0.92922553E+00</totfact>
</mgrwt>
</event>
<event>
12    6  0.1540825E-007  0.1400266E+04  0.7818608E-02  0.8953626E-01
          2   -1    0    0  501    0  0.00000000000E+00  0.00000000000E+00  0.47163263363E+03  0.47163263363E+03  0.00000000000E+00 0. -1.
         -1   -1    0    0    0  501 -0.00000000000E+00 -0.00000000000E+00 -0.10393392342E+04  0.10393392342E+04  0.00000000000E+00 0.  1.
         24    2    1    2    0    0 -0.17267429231E+03 -0.33127130557E+03  0.18149706481E+02  0.38272797957E+03  0.81204712816E+02 0.  0.
        254    2    1    2    0    0  0.17267429231E+03  0.33127130557E+03 -0.58585630709E+03  0.11282438883E+04  0.88890357735E+03 0.  0.
         23    2    4    4    0    0  0.18111057942E+03  0.62488716872E+03 -0.41366448409E+03  0.77637963771E+03  0.91444085868E+02 0.  0.
         23    2    4    4    0    0 -0.84362871101E+01 -0.29361586315E+03 -0.17219182300E+03  0.35186425060E+03  0.88752357183E+02 0.  0.
          4    1    3    3  502    0 -0.12367557699E+03 -0.24590227310E+03  0.48991485569E+02  0.27957779225E+03  0.00000000000E+00 0. -1.
         -3    1    3    3    0  502 -0.48998715324E+02 -0.85369032465E+02 -0.30841779088E+02  0.10315018732E+03  0.00000000000E+00 0.  1.
         11    1    5    5    0    0  0.96596112229E+01  0.15135852330E+03 -0.72619509442E+02  0.16815559407E+03  0.00000000000E+00 0. -1.
        -11    1    5    5    0    0  0.17145096820E+03  0.47352864542E+03 -0.34104497465E+03  0.60822404364E+03  0.00000000000E+00 0.  1.
          1    1    6    6  503    0 -0.38786947710E+02 -0.76200259182E+02 -0.31482185077E+02  0.91115502464E+02  0.00000000000E+00 0. -1.
         -1    1    6    6    0  503  0.30350660600E+02 -0.21741560397E+03 -0.14070963792E+03  0.26074874813E+03  0.00000000000E+00 0.  1.
<mgrwt>
<rscale>  0 0.14002661E+04</rscale>
<asrwt>0</asrwt>
<pdfrwt beam="1">  1        2 0.72558867E-01 0.14002661E+04</pdfrwt>
<pdfrwt beam="2">  1       -1 0.15989834E+00 0.14002661E+04</pdfrwt>
<totfact> 0.21472370E+01</totfact>
</mgrwt>
</event>
<event>
12    6  0.1540825E-007  0.1513609E+04  0.7818608E-02  0.8875453E-01
         -1   -1    0    0    0  501 -0.00000000000E+00  0.00000000000E+00  0.63736025149E+03  0.63736025149E+03  0.00000000000E+00 0.  1.
          2   -1    0    0  501    0  0.00000000000E+00 -0.00000000000E+00 -0.89863342309E+03  0.89863342309E+03  0.00000000000E+00 0. -1.
         24    2    1    2    0    0  0.14135242447E+02  0.47531144471E+03 -0.21066800495E+03  0.52513708978E+03  0.72575341560E+02 0.  0.
        254    2    1    2    0    0 -0.14135242447E+02 -0.47531144471E+03 -0.50605166650E+02  0.10108565848E+04  0.89058934284E+03 0.  0.
         23    2    4    4    0    0 -0.42857799614E+03 -0.28502692135E+03  0.77682685634E+02  0.52828396709E+03  0.90165988987E+02 0.  0.
         23    2    4    4    0    0  0.41444275369E+03 -0.19028452336E+03 -0.12828785228E+03  0.48257261770E+03  0.91910621793E+02 0.  0.
          2    1    3    3  502    0  0.75265033488E+01  0.43171749553E+03 -0.21200958934E+03  0.48102464611E+03  0.00000000000E+00 0. -1.
         -3    1    3    3    0  502  0.66087390977E+01  0.43593949181E+02  0.13415843848E+01  0.44112443668E+02  0.00000000000E+00 0.  1.
         11    1    5    5    0    0 -0.64700612109E+02 -0.79006518094E+02  0.35041030577E+02  0.10796329438E+03  0.00000000000E+00 0. -1.
        -11    1    5    5    0    0 -0.36387738403E+03 -0.20602040325E+03  0.42641655057E+02  0.42032067271E+03  0.00000000000E+00 0.  1.
          3    1    6    6  503    0 -0.38969046139E+01 -0.73775706768E+01 -0.46469546504E+01  0.95503194807E+01  0.00000000000E+00 0. -1.
         -3    1    6    6    0  503  0.41833965830E+03 -0.18290695268E+03 -0.12364089763E+03  0.47302229822E+03  0.00000000000E+00 0.  1.
<mgrwt>
<rscale>  0 0.15136092E+04</rscale>
<asrwt>0</asrwt>
<pdfrwt beam="1">  1        2 0.13825130E+00 0.15136092E+04</pdfrwt>
<pdfrwt beam="2">  1       -1 0.98055424E-01 0.15136092E+04</pdfrwt>
<totfact> 0.32275532E+01</totfact>
</mgrwt>
</event>
<event>
12    6  0.1540825E-007  0.1833316E+04  0.7818608E-02  0.8688780E-01
          2   -1    0    0  501    0  0.00000000000E+00  0.00000000000E+00  0.11243772869E+04  0.11243772869E+04  0.00000000000E+00 0. -1.
         -1   -1    0    0    0  501 -0.00000000000E+00 -0.00000000000E+00 -0.74731351845E+03  0.74731351845E+03  0.00000000000E+00 0.  1.
         24    2    1    2    0    0 -0.23878476756E+03 -0.31483234604E+03 -0.45110655957E+03  0.60487966249E+03  0.79023456474E+02 0.  0.
        254    2    1    2    0    0  0.23878476756E+03  0.31483234604E+03  0.82817032798E+03  0.12668111428E+04  0.87338811997E+03 0.  0.
         23    2    4    4    0    0  0.14915098820E+03 -0.28909049775E+03  0.34651296756E+03  0.48398763597E+03  0.91397275204E+02 0.  0.
         23    2    4    4    0    0  0.89633779358E+02  0.60392284379E+03  0.48165736042E+03  0.78282350685E+03  0.89787607038E+02 0.  0.
          2    1    3    3  502    0 -0.12868581237E+03 -0.19181316119E+03 -0.20685082708E+03  0.31006385112E+03  0.00000000000E+00 0. -1.
         -1    1    3    3    0  502 -0.11009895519E+03 -0.12301918485E+03 -0.24425573249E+03  0.29481581136E+03  0.00000000000E+00 0.  1.
         11    1    5    5    0    0  0.15729308934E+03 -0.27360990219E+03  0.30479918440E+03  0.43875509950E+03  0.00000000000E+00 0.  1.
        -11    1    5    5    0    0 -0.81421011357E+01 -0.15480595565E+02  0.41713783164E+02  0.45232536474E+02  0.00000000000E+00 0. -1.
          1    1    6    6  503    0  0.10249167455E+03  0.56843433545E+03  0.46521568853E+03  0.74165205718E+03  0.00000000000E+00 0.  1.
         -1    1    6    6    0  503 -0.12857895192E+02  0.35488508347E+02  0.16441671884E+02  0.41171449668E+02  0.00000000000E+00 0. -1.
<mgrwt>
<rscale>  0 0.18333165E+04</rscale>
<asrwt>0</asrwt>
<pdfrwt beam="1">  1        2 0.17298112E+00 0.18333165E+04</pdfrwt>
<pdfrwt beam="2">  1       -1 0.11497131E+00 0.18333165E+04</pdfrwt>
<totfact> 0.15523923E+01</totfact>
</mgrwt>
</event>
<event>
12    6  0.1540825E-007  0.2259463E+04  0.7818608E-02  0.8494078E-01
         -1   -1    0    0    0  501 -0.00000000000E+00  0.00000000000E+00  0.18135435040E+04  0.18135435040E+04  0.00000000000E+00 0.  1.
          2   -1    0    0  501    0  0.00000000000E+00 -0.00000000000E+00 -0.70375646492E+03  0.70375646492E+03  0.00000000000E+00 0. -1.
         24    2    1    2    0    0  0.80145408533E+03 -0.25125069359E+03 -0.50584239994E+01  0.84342031029E+03  0.76659443251E+02 0.  0.
        254    2    1    2    0    0 -0.80145408533E+03  0.25125069359E+03  0.11148454630E+04  0.16738796586E+04  0.92387073937E+03 0.  0.
         23    2    4    4    0    0 -0.75961281894E+03 -0.46028680830E+02  0.34079640364E+03  0.83861007157E+03  0.89411348561E+02 0.  0.
         23    2    4    4    0    0 -0.41841266394E+02  0.29727937442E+03  0.77404905940E+03  0.83526958702E+03  0.91638521475E+02 0.  0.
          2    1    3    3  502    0  0.46009424068E+03 -0.13595839466E+03 -0.39998515890E+02  0.48142629411E+03  0.00000000000E+00 0. -1.
         -1    1    3    3    0  502  0.34135984465E+03 -0.11529229893E+03  0.34940091891E+02  0.36199401619E+03  0.00000000000E+00 0.  1.
         11    1    5    5    0    0 -0.49043948426E+03 -0.30120147860E+02  0.26620087159E+03  0.55883898850E+03  0.00000000000E+00 0. -1.
        -11    1    5    5    0    0 -0.26917333468E+03 -0.15908532971E+02  0.74595532054E+02  0.27977108308E+03  0.00000000000E+00 0.  1.
          3    1    6    6  503    0 -0.44252509588E+02  0.30220500588E+03  0.77025601371E+03  0.82860151873E+03  0.00000000000E+00 0.  1.
         -3    1    6    6    0  503  0.24112431946E+01 -0.49256314681E+01  0.37930456859E+01  0.66680682869E+01  0.00000000000E+00 0. -1.
<mgrwt>
<rscale>  0 0.22594627E+04</rscale>
<asrwt>0</asrwt>
<pdfrwt beam="1">  1        2 0.10827023E+00 0.22594627E+04</pdfrwt>
<pdfrwt beam="2">  1       -1 0.27900669E+00 0.22594627E+04</pdfrwt>
<totfact> 0.19083275E+00</totfact>
</mgrwt>
</event>
<event>
12    6  0.1540825E-007  0.3311445E+04  0.7818608E-02  0.8159989E-01
         -3   -1    0    0    0  501 -0.00000000000E+00  0.00000000000E+00  0.33542407470E+04  0.33542407470E+04  0.00000000000E+00 0.  1.
          4   -1    0    0  501    0  0.00000000000E+00 -0.00000000000E+00 -0.81729865595E+03  0.81729865595E+03  0.00000000000E+00 0. -1.
         24    2    1    2    0    0 -0.48976946624E+03 -0.13647069809E+04  0.17903651286E+04  0.23049905598E+04  0.72628597366E+02 0.  0.
        254    2    1    2    0    0  0.48976946624E+03  0.13647069809E+04  0.74657696245E+03  0.18665488432E+04  0.90792518922E+03 0.  0.
         23    2    4    4    0    0 -0.12977018513E+03 -0.74793765640E+01 -0.42122257104E+02  0.16441709729E+03  0.91446461461E+02 0.  0.
         23    2    4    4    0    0  0.61953965138E+03  0.13721863575E+04  0.78869921955E+03  0.17021317459E+04  0.92093659374E+02 0.  0.
          4    1    3    3  502    0 -0.22395688313E+03 -0.52221116052E+03  0.68722870349E+03  0.89170873752E+03  0.00000000000E+00 0. -1.
         -3    1    3    3    0  502 -0.26581258311E+03 -0.84249582041E+03  0.11031364252E+04  0.14132818223E+04  0.00000000000E+00 0.  1.
         11    1    5    5    0    0 -0.13329272866E+03 -0.15767608991E+02 -0.57957057282E+02  0.14620051127E+03  0.00000000000E+00 0.  1.
        -11    1    5    5    0    0  0.35225435216E+01  0.82882324272E+01  0.15834800178E+02  0.18216586022E+02  0.00000000000E+00 0. -1.
          3    1    6    6  503    0  0.32467813706E+03  0.80522293956E+03  0.48644605583E+03  0.99520331607E+03  0.00000000000E+00 0.  1.
         -3    1    6    6    0  503  0.29486151431E+03  0.56696341793E+03  0.30225316372E+03  0.70692842981E+03  0.00000000000E+00 0. -1.
<mgrwt>
<rscale>  0 0.33114447E+04</rscale>
<asrwt>0</asrwt>
<pdfrwt beam="1">  1        4 0.12573826E+00 0.33114447E+04</pdfrwt>
<pdfrwt beam="2">  1       -3 0.51603703E+00 0.33114447E+04</pdfrwt>
<totfact> 0.22320613E-03</totfact>
</mgrwt>
</event>
<event>
12    6  0.1540825E-007  0.3493927E+04  0.7818608E-02  0.8115231E-01
          2   -1    0    0  501    0  0.00000000000E+00  0.00000000000E+00  0.31536489353E+04  0.31536489353E+04  0.00000000000E+00 0. -1.
         -1   -1    0    0    0  501 -0.00000000000E+00 -0.00000000000E+00 -0.96773011246E+03  0.96773011246E+03  0.00000000000E+00 0.  1.
         24    2    1    2    0    0 -0.15506326180E+04  0.31502790900E+03  0.14755117355E+04  0.21650193268E+04  0.80434470989E+02 0.  0.
        254    2    1    2    0    0  0.15506326180E+04 -0.31502790900E+03  0.71040708739E+03  0.19563597210E+04  0.90496465606E+03 0.  0.
         23    2    4    4    0    0 -0.86732597388E+02  0.49606706788E+02  0.16067179391E+02  0.13859992770E+03  0.94701725946E+02 0.  0.
         23    2    4    4    0    0  0.16373652154E+04 -0.36463461579E+03  0.69433990800E+03  0.18177597933E+04  0.90661495217E+02 0.  0.
          2    1    3    3  502    0 -0.13773037640E+04  0.29455706518E+03  0.12836025945E+04  0.19056141120E+04  0.00000000000E+00 0. -1.
         -1    1    3    3    0  502 -0.17332885401E+03  0.20470843817E+02  0.19190914095E+03  0.25940521479E+03  0.00000000000E+00 0.  1.
         11    1    5    5    0    0  0.20166024838E+02  0.42977791196E+01 -0.33311117639E+01  0.20886257892E+02  0.00000000000E+00 0.  1.
        -11    1    5    5    0    0 -0.10689862223E+03  0.45308927669E+02  0.19398291155E+02  0.11771366981E+03  0.00000000000E+00 0. -1.
          1    1    6    6  503    0  0.10796644747E+04 -0.25703563493E+03  0.41601823487E+03  0.11852484411E+04  0.00000000000E+00 0. -1.
         -1    1    6    6    0  503  0.55770074077E+03 -0.10759898086E+03  0.27832167313E+03  0.63251135221E+03  0.00000000000E+00 0.  1.
<mgrwt>
<rscale>  0 0.34939268E+04</rscale>
<asrwt>0</asrwt>
<pdfrwt beam="1">  1        2 0.48517675E+00 0.34939268E+04</pdfrwt>
<pdfrwt beam="2">  1       -1 0.14888156E+00 0.34939268E+04</pdfrwt>
<totfact> 0.46146236E-01</totfact>
</mgrwt>
</event>
<event>
12    6  0.1540825E-007  0.1639318E+04  0.7818608E-02  0.8796751E-01
          2   -1    0    0  501    0  0.00000000000E+00  0.00000000000E+00  0.95756452988E+03  0.95756452988E+03  0.00000000000E+00 0. -1.
         -1   -1    0    0    0  501 -0.00000000000E+00 -0.00000000000E+00 -0.70161407389E+03  0.70161407389E+03  0.00000000000E+00 0.  1.
         24    2    1    2    0    0  0.21456085111E+03 -0.44854594269E+03 -0.18436883267E+03  0.53983914509E+03  0.10101789239E+03 0.  0.
        254    2    1    2    0    0 -0.21456085111E+03  0.44854594269E+03  0.44031928866E+03  0.11193394587E+04  0.90100495350E+03 0.  0.
         23    2    4    4    0    0 -0.36612523893E+03 -0.56047576538E+02  0.44571965191E+03  0.58633138967E+03  0.89047565932E+02 0.  0.
         23    2    4    4    0    0  0.15156438782E+03  0.50459351923E+03 -0.54003632509E+01  0.53300806900E+03  0.80511206631E+02 0.  0.
          4    1    3    3  502    0  0.59104639279E+02 -0.65639359097E+02 -0.25895353193E+01  0.88366223978E+02  0.00000000000E+00 0. -1.
         -3    1    3    3    0  502  0.15545621183E+03 -0.38290658359E+03 -0.18177929735E+03  0.45147292112E+03  0.00000000000E+00 0.  1.
         11    1    5    5    0    0 -0.22006127697E+03 -0.33805107258E+02  0.19826972769E+03  0.29812855585E+03  0.00000000000E+00 0.  1.
        -11    1    5    5    0    0 -0.14606396196E+03 -0.22242469280E+02  0.24744992422E+03  0.28820283382E+03  0.00000000000E+00 0. -1.
          1    1    6    6  503    0  0.31516531374E+02  0.73270814812E+02 -0.28486858994E+02  0.84695957332E+02  0.00000000000E+00 0. -1.
         -1    1    6    6    0  503  0.12004785644E+03  0.43132270442E+03  0.23086495743E+02  0.44831211167E+03  0.00000000000E+00 0.  1.
<mgrwt>
<rscale>  0 0.16393178E+04</rscale>
<asrwt>0</asrwt>
<pdfrwt beam="1">  1        2 0.14731762E+00 0.16393178E+04</pdfrwt>
<pdfrwt beam="2">  1       -1 0.10794063E+00 0.16393178E+04</pdfrwt>
<totfact> 0.23371165E+01</totfact>
</mgrwt>
</event>
<event>
12    6  0.1540825E-007  0.1694750E+04  0.7818608E-02  0.8764364E-01
         -1   -1    0    0    0  501 -0.00000000000E+00  0.00000000000E+00  0.94495635783E+03  0.94495635783E+03  0.00000000000E+00 0.  1.
          2   -1    0    0  501    0  0.00000000000E+00 -0.00000000000E+00 -0.75987072550E+03  0.75987072550E+03  0.00000000000E+00 0. -1.
         24    2    1    2    0    0 -0.49051938825E+03  0.34521343264E+03  0.87881027892E+02  0.61187380517E+03  0.82975261766E+02 0.  0.
        254    2    1    2    0    0  0.49051938825E+03 -0.34521343264E+03  0.97204604439E+02  0.10929532782E+04  0.90846934389E+03 0.  0.
         23    2    4    4    0    0  0.64992363684E+03  0.30247473240E+02  0.14445599996E+03  0.67259307349E+03  0.90544261132E+02 0.  0.
         23    2    4    4    0    0 -0.15940424858E+03 -0.37546090588E+03 -0.47251395519E+02  0.42036020467E+03  0.89941097312E+02 0.  0.
          4    1    3    3  502    0 -0.19926608049E+03  0.12681056925E+03 -0.47009260848E+01  0.23624138083E+03  0.00000000000E+00 0. -1.
         -1    1    3    3    0  502 -0.29125330776E+03  0.21840286339E+03  0.92581953976E+02  0.37563242435E+03  0.00000000000E+00 0.  1.
         11    1    5    5    0    0  0.28221842949E+03  0.57445227601E+02  0.71211298605E+02  0.29667869011E+03  0.00000000000E+00 0. -1.
        -11    1    5    5    0    0  0.36770520735E+03 -0.27197754362E+02  0.73244701353E+02  0.37591438338E+03  0.00000000000E+00 0.  1.
          3    1    6    6  503    0 -0.60195851303E+02 -0.18428122060E+03  0.19560340217E+02  0.19484792965E+03  0.00000000000E+00 0. -1.
         -3    1    6    6    0  503 -0.99208397278E+02 -0.19117968528E+03 -0.66811735736E+02  0.22551227502E+03  0.00000000000E+00 0.  1.
<mgrwt>
<rscale>  0 0.16947503E+04</rscale>
<asrwt>0</asrwt>
<pdfrwt beam="1">  1        2 0.11690319E+00 0.16947503E+04</pdfrwt>
<pdfrwt beam="2">  1       -1 0.14537790E+00 0.16947503E+04</pdfrwt>
<totfact> 0.15205525E+01</totfact>
</mgrwt>
</event>
<event>
12    6  0.1540825E-007  0.1574191E+04  0.7818608E-02  0.8836563E-01
         -1   -1    0    0    0  501 -0.00000000000E+00  0.00000000000E+00  0.16364126004E+03  0.16364126004E+03  0.00000000000E+00 0.  1.
          2   -1    0    0  501    0  0.00000000000E+00 -0.00000000000E+00 -0.37858357806E+04  0.37858357806E+04  0.00000000000E+00 0. -1.
         24    2    1    2    0    0  0.13016264507E+02 -0.51335571481E+03 -0.13848257499E+04  0.14792337129E+04  0.81771063089E+02 0.  0.
        254    2    1    2    0    0 -0.13016264507E+02  0.51335571481E+03 -0.22373687707E+04  0.24702433277E+04  0.91245798215E+03 0.  0.
         23    2    4    4    0    0 -0.21454113946E+03  0.35939265460E+03 -0.21424979776E+04  0.21850462645E+04  0.94544241244E+02 0.  0.
         23    2    4    4    0    0  0.20152487496E+03  0.15396306021E+03 -0.94870793070E+02  0.28519706318E+03  0.89554443391E+02 0.  0.
          2    1    3    3  502    0  0.36027722057E+02 -0.39039204570E+03 -0.11122004633E+04  0.11792768193E+04  0.00000000000E+00 0. -1.
         -1    1    3    3    0  502 -0.23011457550E+02 -0.12296366911E+03 -0.27262528665E+03  0.29995689361E+03  0.00000000000E+00 0.  1.
         11    1    5    5    0    0 -0.18261543522E+03  0.25478408118E+03 -0.14097642108E+04  0.14441947429E+04  0.00000000000E+00 0. -1.
        -11    1    5    5    0    0 -0.31925704242E+02  0.10460857342E+03 -0.73273376675E+03  0.74085152167E+03  0.00000000000E+00 0.  1.
          4    1    6    6  503    0  0.15191487067E+03  0.62826720750E+02 -0.68786341913E+02  0.17820461724E+03  0.00000000000E+00 0. -1.
         -4    1    6    6    0  503  0.49610004282E+02  0.91136339461E+02 -0.26084451158E+02  0.10699244594E+03  0.00000000000E+00 0.  1.
<mgrwt>
<rscale>  0 0.15741905E+04</rscale>
<asrwt>0</asrwt>
<pdfrwt beam="1">  1        2 0.58243626E+00 0.15741905E+04</pdfrwt>
<pdfrwt beam="2">  1       -1 0.25175579E-01 0.15741905E+04</pdfrwt>
<totfact> 0.77536587E+00</totfact>
</mgrwt>
</event>
<event>
12    6  0.1540825E-007  0.1832505E+04  0.7818608E-02  0.8689202E-01
         -1   -1    0    0    0  501 -0.00000000000E+00  0.00000000000E+00  0.53155766149E+03  0.53155766149E+03  0.00000000000E+00 0.  1.
          2   -1    0    0  501    0  0.00000000000E+00 -0.00000000000E+00 -0.15793564660E+04  0.15793564660E+04  0.00000000000E+00 0. -1.
         24    2    1    2    0    0  0.49777627037E+03  0.46205207511E+03 -0.35494611388E+03  0.77050660759E+03  0.80127106031E+02 0.  0.
        254    2    1    2    0    0 -0.49777627037E+03 -0.46205207511E+03 -0.69285269060E+03  0.13404075199E+04  0.92486438626E+03 0.  0.
         23    2    4    4    0    0 -0.26089923590E+03 -0.72794347791E+03 -0.44480725800E+03  0.89697578006E+03  0.93498315146E+02 0.  0.
         23    2    4    4    0    0 -0.23687703447E+03  0.26589140279E+03 -0.24804543261E+03  0.44343173980E+03  0.91083498435E+02 0.  0.
          4    1    3    3  502    0  0.67295091666E+02  0.81145305291E+02 -0.85239714206E+02  0.13556916615E+03  0.00000000000E+00 0. -1.
         -3    1    3    3    0  502  0.43048117871E+03  0.38090676982E+03 -0.26970639968E+03  0.63493744144E+03  0.00000000000E+00 0.  1.
         11    1    5    5    0    0 -0.13635967663E+03 -0.49427702170E+03 -0.26766362305E+03  0.57840085641E+03  0.00000000000E+00 0. -1.
        -11    1    5    5    0    0 -0.12453955927E+03 -0.23366645620E+03 -0.17714363494E+03  0.31857492365E+03  0.00000000000E+00 0.  1.
          4    1    6    6  503    0 -0.23364738080E+03  0.26362455884E+03 -0.25538533604E+03  0.43509846753E+03  0.00000000000E+00 0. -1.
         -4    1    6    6    0  503 -0.32296536735E+01  0.22668439500E+01  0.73399034362E+01  0.83332722743E+01  0.00000000000E+00 0.  1.
<mgrwt>
<rscale>  0 0.18325054E+04</rscale>
<asrwt>0</asrwt>
<pdfrwt beam="1">  1        2 0.24297792E+00 0.18325054E+04</pdfrwt>
<pdfrwt beam="2">  1       -1 0.81778101E-01 0.18325054E+04</pdfrwt>
<totfact> 0.18284544E+01</totfact>
</mgrwt>
</event>
<event>
12    6  0.1540825E-007  0.1721371E+04  0.7818608E-02  0.8749269E-01
         -1   -1    0    0    0  501 -0.00000000000E+00  0.00000000000E+00  0.21491733389E+03  0.21491733389E+03  0.00000000000E+00 0.  1.
          2   -1    0    0  501    0  0.00000000000E+00 -0.00000000000E+00 -0.34468109890E+04  0.34468109890E+04  0.00000000000E+00 0. -1.
         24    2    1    2    0    0  0.26763770809E+02  0.61448106125E+03 -0.13834213538E+04  0.15160001814E+04  0.78093749969E+02 0.  0.
        254    2    1    2    0    0 -0.26763770809E+02 -0.61448106125E+03 -0.18484723013E+04  0.21457281415E+04  0.89944212400E+03 0.  0.
         23    2    4    4    0    0  0.11444936277E+03 -0.74926982101E+03 -0.17528960498E+04  0.19119078609E+04  0.90791991712E+02 0.  0.
         23    2    4    4    0    0 -0.14121313358E+03  0.13478875976E+03 -0.95576251505E+02  0.23382028061E+03  0.86185526166E+02 0.  0.
          4    1    3    3  502    0 -0.35904409541E+01  0.47720599049E+03 -0.11194137782E+04  0.12168918010E+04  0.00000000000E+00 0. -1.
         -3    1    3    3    0  502  0.30354211764E+02  0.13727507076E+03 -0.26400757565E+03  0.29910838039E+03  0.00000000000E+00 0.  1.
         11    1    5    5    0    0  0.36753230341E+02 -0.50369840655E+03 -0.12009383819E+04  0.13028107621E+04  0.00000000000E+00 0. -1.
        -11    1    5    5    0    0  0.77696132429E+02 -0.24557141446E+03 -0.55195766794E+03  0.60909709882E+03  0.00000000000E+00 0.  1.
          2    1    6    6  503    0 -0.92594305647E+02  0.12156831673E+03 -0.38309665156E+02  0.15754425256E+03  0.00000000000E+00 0. -1.
         -2    1    6    6    0  503 -0.48618827932E+02  0.13220443037E+02 -0.57266586350E+02  0.76276028054E+02  0.00000000000E+00 0.  1.
<mgrwt>
<rscale>  0 0.17213709E+04</rscale>
<asrwt>0</asrwt>
<pdfrwt beam="1">  1        2 0.53027861E+00 0.17213709E+04</pdfrwt>
<pdfrwt beam="2">  1       -1 0.33064205E-01 0.17213709E+04</pdfrwt>
<totfact> 0.82997441E+00</totfact>
</mgrwt>
</event>
<event>
12    6  0.1540825E-007  0.1487739E+04  0.7818608E-02  0.8892648E-01
          2   -1    0    0  501    0  0.00000000000E+00  0.00000000000E+00  0.71301039034E+03  0.71301039034E+03  0.00000000000E+00 0. -1.
         -1   -1    0    0    0  501 -0.00000000000E+00 -0.00000000000E+00 -0.77606417848E+03  0.77606417848E+03  0.00000000000E+00 0.  1.
         24    2    1    2    0    0  0.72594434097E+02  0.15773824424E+03  0.42964639947E+03  0.47001605950E+03  0.78535100769E+02 0.  0.
        254    2    1    2    0    0 -0.72594434097E+02 -0.15773824424E+03 -0.49270018762E+03  0.10190585093E+04  0.87497169382E+03 0.  0.
         23    2    4    4    0    0 -0.14327218816E+03  0.21450137406E+03 -0.56058986787E+03  0.62352886323E+03  0.89383913250E+02 0.  0.
         23    2    4    4    0    0  0.70677754064E+02 -0.37223961830E+03  0.67889680251E+02  0.39552964610E+03  0.90978095758E+02 0.  0.
          2    1    3    3  502    0  0.35102816351E+02  0.14743987928E+03  0.33463545212E+03  0.36735760715E+03  0.00000000000E+00 0. -1.
         -1    1    3    3    0  502  0.37491617746E+02  0.10298364962E+02  0.95010947354E+02  0.10265845235E+03  0.00000000000E+00 0.  1.
         11    1    5    5    0    0  0.35378928253E+01  0.58671043218E+02 -0.11313993601E+03  0.12749687494E+03  0.00000000000E+00 0. -1.
        -11    1    5    5    0    0 -0.14681008099E+03  0.15583033084E+03 -0.44744993185E+03  0.49603198829E+03  0.00000000000E+00 0.  1.
          1    1    6    6  503    0  0.84135710818E+02 -0.35981938461E+03  0.56125124667E+02  0.37376307602E+03  0.00000000000E+00 0.  1.
         -1    1    6    6    0  503 -0.13457956754E+02 -0.12420233682E+02  0.11764555584E+02  0.21766570074E+02  0.00000000000E+00 0. -1.
<mgrwt>
<rscale>  0 0.14877390E+04</rscale>
<asrwt>0</asrwt>
<pdfrwt beam="1">  1        2 0.10969391E+00 0.14877390E+04</pdfrwt>
<pdfrwt beam="2">  1       -1 0.11939449E+00 0.14877390E+04</pdfrwt>
<totfact> 0.27717819E+01</totfact>
</mgrwt>
</event>
<event>
12    6  0.1540825E-007  0.1440394E+04  0.7818608E-02  0.8925087E-01
         -1   -1    0    0    0  501 -0.00000000000E+00  0.00000000000E+00  0.19757511810E+03  0.19757511810E+03  0.00000000000E+00 0.  1.
          2   -1    0    0  501    0  0.00000000000E+00 -0.00000000000E+00 -0.26252485027E+04  0.26252485027E+04  0.00000000000E+00 0. -1.
         24    2    1    2    0    0 -0.55971986494E+02 -0.23905468517E+03 -0.44988743097E+02  0.26301186941E+03  0.82893007376E+02 0.  0.
        254    2    1    2    0    0  0.55971986494E+02  0.23905468517E+03 -0.23826846415E+04  0.25598117514E+04  0.90286770677E+03 0.  0.
         23    2    4    4    0    0 -0.23866152782E+02 -0.32043029350E+03 -0.59902602618E+03  0.68602149880E+03  0.92456208782E+02 0.  0.
         23    2    4    4    0    0  0.79838139276E+02  0.55948497867E+03 -0.17836586153E+04  0.18737902526E+04  0.10126344277E+03 0.  0.
          4    1    3    3  502    0  0.11498996303E+02 -0.22487158863E+02 -0.24609860458E+02  0.35263925780E+02  0.00000000000E+00 0. -1.
         -3    1    3    3    0  502 -0.67470982797E+02 -0.21656752631E+03 -0.20378882639E+02  0.22774794363E+03  0.00000000000E+00 0.  1.
         11    1    5    5    0    0 -0.31513271177E+02 -0.50350083619E+02 -0.15818617243E+03  0.16897065523E+03  0.00000000000E+00 0. -1.
        -11    1    5    5    0    0  0.76471183954E+01 -0.27008020988E+03 -0.44083985375E+03  0.51705084358E+03  0.00000000000E+00 0.  1.
          3    1    6    6  503    0  0.11523507819E+01  0.96430847539E+01 -0.60936270600E+01  0.11465133520E+02  0.00000000000E+00 0. -1.
         -3    1    6    6    0  503  0.78685788494E+02  0.54984189391E+03 -0.17775649882E+04  0.18623251190E+04  0.00000000000E+00 0.  1.
<mgrwt>
<rscale>  0 0.14403941E+04</rscale>
<asrwt>0</asrwt>
<pdfrwt beam="1">  1        2 0.40388439E+00 0.14403941E+04</pdfrwt>
<pdfrwt beam="2">  1       -1 0.30396171E-01 0.14403941E+04</pdfrwt>
<totfact> 0.32549886E+01</totfact>
</mgrwt>
</event>
<event>
12    6  0.1540825E-007  0.2224098E+04  0.7818608E-02  0.8508464E-01
         -1   -1    0    0    0  501 -0.00000000000E+00  0.00000000000E+00  0.63250982707E+03  0.63250982707E+03  0.00000000000E+00 0.  1.
          2   -1    0    0  501    0  0.00000000000E+00 -0.00000000000E+00 -0.19551529126E+04  0.19551529126E+04  0.00000000000E+00 0. -1.
         24    2    1    2    0    0  0.70921645607E+03  0.58263210239E+03 -0.38716181650E+03  0.99934059963E+03  0.79619178731E+02 0.  0.
        254    2    1    2    0    0 -0.70921645607E+03 -0.58263210239E+03 -0.93548126898E+03  0.15883221400E+04  0.89732595386E+03 0.  0.
         23    2    4    4    0    0 -0.57873147875E+03 -0.33809069816E+03 -0.10716253400E+04  0.12671397081E+04  0.89591996760E+02 0.  0.
         23    2    4    4    0    0 -0.13048497732E+03 -0.24454140423E+03  0.13614407100E+03  0.32118243189E+03  0.88295632934E+02 0.  0.
          2    1    3    3  502    0  0.69764463594E+03  0.55553944354E+03 -0.37355295034E+03  0.96688878269E+03  0.00000000000E+00 0. -1.
         -1    1    3    3    0  502  0.11571820131E+02  0.27092658850E+02 -0.13608866166E+02  0.32451816945E+02  0.00000000000E+00 0.  1.
         11    1    5    5    0    0 -0.62142860207E+00 -0.44096348767E+01 -0.27685613114E+02  0.28041473334E+02  0.00000000000E+00 0. -1.
        -11    1    5    5    0    0 -0.57811005015E+03 -0.33368106328E+03 -0.10439397269E+04  0.12390982348E+04  0.00000000000E+00 0.  1.
          3    1    6    6  503    0 -0.10877623717E+03 -0.11066105152E+03  0.68443728453E+02  0.16959564281E+03  0.00000000000E+00 0. -1.
         -3    1    6    6    0  503 -0.21708740149E+02 -0.13388035271E+03  0.67700342546E+02  0.15158678907E+03  0.00000000000E+00 0.  1.
<mgrwt>
<rscale>  0 0.22240984E+04</rscale>
<asrwt>0</asrwt>
<pdfrwt beam="1">  1        2 0.30079276E+00 0.22240984E+04</pdfrwt>
<pdfrwt beam="2">  1       -1 0.97309204E-01 0.22240984E+04</pdfrwt>
<totfact> 0.74517885E+00</totfact>
</mgrwt>
</event>
<event>
12    6  0.1540825E-007  0.1786864E+04  0.7818608E-02  0.8713317E-01
          2   -1    0    0  501    0  0.00000000000E+00  0.00000000000E+00  0.84709442979E+03  0.84709442979E+03  0.00000000000E+00 0. -1.
         -1   -1    0    0    0  501 -0.00000000000E+00 -0.00000000000E+00 -0.94230401299E+03  0.94230401299E+03  0.00000000000E+00 0.  1.
         24    2    1    2    0    0  0.65609980114E+03  0.70799253903E+02  0.73425869942E+02  0.66901087379E+03  0.81882278068E+02 0.  0.
        254    2    1    2    0    0 -0.65609980114E+03 -0.70799253903E+02 -0.16863545314E+03  0.11203875690E+04  0.88957906073E+03 0.  0.
         23    2    4    4    0    0  0.12436657507E+03 -0.34538415031E+02 -0.28489967408E+03  0.32572553777E+03  0.90935991540E+02 0.  0.
         23    2    4    4    0    0 -0.78046637621E+03 -0.36260838872E+02  0.11626422095E+03  0.79466203122E+03  0.86762676104E+02 0.  0.
          4    1    3    3  502    0  0.34361635388E+03  0.33928969831E+02  0.79416944003E+02  0.35430273022E+03  0.00000000000E+00 0. -1.
         -3    1    3    3    0  502  0.31248344726E+03  0.36870284072E+02 -0.59910740612E+01  0.31470814357E+03  0.00000000000E+00 0.  1.
         11    1    5    5    0    0  0.12875791746E+02 -0.15931315932E+02 -0.14227211996E+03  0.14373916988E+03  0.00000000000E+00 0. -1.
        -11    1    5    5    0    0  0.11149078332E+03 -0.18607099099E+02 -0.14262755412E+03  0.18198636789E+03  0.00000000000E+00 0.  1.
          2    1    6    6  503    0 -0.31636401981E+03 -0.12908093508E+01  0.88043356668E+02  0.32838923836E+03  0.00000000000E+00 0. -1.
         -2    1    6    6    0  503 -0.46410235640E+03 -0.34970029521E+02  0.28220864278E+02  0.46627279286E+03  0.00000000000E+00 0.  1.
<mgrwt>
<rscale>  0 0.17868637E+04</rscale>
<asrwt>0</asrwt>
<pdfrwt beam="1">  1        2 0.13032222E+00 0.17868637E+04</pdfrwt>
<pdfrwt beam="2">  1       -1 0.14496985E+00 0.17868637E+04</pdfrwt>
<totfact> 0.13150198E+01</totfact>
</mgrwt>
</event>
<event>
12    6  0.1540825E-007  0.2230883E+04  0.7818608E-02  0.8505683E-01
         -1   -1    0    0    0  501 -0.00000000000E+00  0.00000000000E+00  0.65609696127E+03  0.65609696127E+03  0.00000000000E+00 0.  1.
          2   -1    0    0  501    0  0.00000000000E+00 -0.00000000000E+00 -0.18963807631E+04  0.18963807631E+04  0.00000000000E+00 0. -1.
         24    2    1    2    0    0  0.10748498378E+02 -0.21336948669E+02 -0.15778975291E+04  0.15800708125E+04  0.79324427706E+02 0.  0.
        254    2    1    2    0    0 -0.10748498378E+02  0.21336948669E+02  0.33761372721E+03  0.97240691186E+03  0.91160373948E+03 0.  0.
         23    2    4    4    0    0  0.12469219608E+03  0.13281280296E+03  0.60579136960E+03  0.63925162508E+03  0.92043860702E+02 0.  0.
         23    2    4    4    0    0 -0.13544069446E+03 -0.11147585429E+03 -0.26817764238E+03  0.33315528678E+03  0.91116131548E+02 0.  0.
          4    1    3    3  502    0 -0.25527867153E+02 -0.35368698012E+02 -0.90404484018E+03  0.90509650858E+03  0.00000000000E+00 0. -1.
         -3    1    3    3    0  502  0.36276365531E+02  0.14031749343E+02 -0.67385268888E+03  0.67497430395E+03  0.00000000000E+00 0.  1.
         11    1    5    5    0    0 -0.87729031750E+01 -0.54538367499E+01  0.17000352141E+02  0.19892715711E+02  0.00000000000E+00 0. -1.
        -11    1    5    5    0    0  0.13346509925E+03  0.13826663971E+03  0.58879101746E+03  0.61935890937E+03  0.00000000000E+00 0.  1.
          2    1    6    6  503    0 -0.50045331342E+02 -0.14679267699E+01 -0.33411694580E+02  0.60191621783E+02  0.00000000000E+00 0. -1.
         -2    1    6    6    0  503 -0.85395363115E+02 -0.11000792753E+03 -0.23476594780E+03  0.27296366500E+03  0.00000000000E+00 0.  1.
<mgrwt>
<rscale>  0 0.22308829E+04</rscale>
<asrwt>0</asrwt>
<pdfrwt beam="1">  1        2 0.29175089E+00 0.22308829E+04</pdfrwt>
<pdfrwt beam="2">  1       -1 0.10093799E+00 0.22308829E+04</pdfrwt>
<totfact> 0.73858129E+00</totfact>
</mgrwt>
</event>
<event>
12    6  0.1540825E-007  0.1778307E+04  0.7818608E-02  0.8717921E-01
         -1   -1    0    0    0  501 -0.00000000000E+00  0.00000000000E+00  0.86683908771E+03  0.86683908771E+03  0.00000000000E+00 0.  1.
          2   -1    0    0  501    0  0.00000000000E+00 -0.00000000000E+00 -0.91204245531E+03  0.91204245531E+03  0.00000000000E+00 0. -1.
         24    2    1    2    0    0  0.37453596513E+03 -0.10433093506E+03 -0.54339615010E+03  0.67280636487E+03  0.78910680372E+02 0.  0.
        254    2    1    2    0    0 -0.37453596513E+03  0.10433093506E+03  0.49819278250E+03  0.11060751781E+04  0.90776875799E+03 0.  0.
         23    2    4    4    0    0  0.56611648763E+02 -0.32912749521E+03  0.30062550989E+03  0.45844730352E+03  0.90930996002E+02 0.  0.
         23    2    4    4    0    0 -0.43114761389E+03  0.43345843027E+03  0.19756727261E+03  0.64762787462E+03  0.81329951688E+02 0.  0.
          4    1    3    3  502    0  0.29884123062E+03 -0.48727047451E+02 -0.41699505208E+03  0.51533026277E+03  0.00000000000E+00 0. -1.
         -3    1    3    3    0  502  0.75694734509E+02 -0.55603887612E+02 -0.12640109802E+03  0.15747610210E+03  0.00000000000E+00 0.  1.
         11    1    5    5    0    0 -0.65127001497E+01 -0.56314462900E+00  0.22308972652E+02  0.23246992406E+02  0.00000000000E+00 0.  1.
        -11    1    5    5    0    0  0.63124348913E+02 -0.32856435058E+03  0.27831653724E+03  0.43520031112E+03  0.00000000000E+00 0. -1.
          1    1    6    6  503    0 -0.33568928944E+03  0.35231836215E+03  0.12340841560E+03  0.50204099872E+03  0.00000000000E+00 0. -1.
         -1    1    6    6    0  503 -0.95458324447E+02  0.81140068120E+02  0.74158857013E+02  0.14558687590E+03  0.00000000000E+00 0.  1.
<mgrwt>
<rscale>  0 0.17783071E+04</rscale>
<asrwt>0</asrwt>
<pdfrwt beam="1">  1        2 0.14031422E+00 0.17783071E+04</pdfrwt>
<pdfrwt beam="2">  1       -1 0.13335986E+00 0.17783071E+04</pdfrwt>
<totfact> 0.14762614E+01</totfact>
</mgrwt>
</event>
<event>
12    6  0.1540825E-007  0.2557890E+04  0.7818608E-02  0.8382647E-01
         -1   -1    0    0    0  501 -0.00000000000E+00  0.00000000000E+00  0.62211725079E+03  0.62211725079E+03  0.00000000000E+00 0.  1.
          2   -1    0    0  501    0  0.00000000000E+00 -0.00000000000E+00 -0.26292474867E+04  0.26292474867E+04  0.00000000000E+00 0. -1.
         24    2    1    2    0    0  0.71081538783E+03 -0.75687785341E+03 -0.34359212868E+03  0.10966900543E+04  0.80937776699E+02 0.  0.
        254    2    1    2    0    0 -0.71081538783E+03  0.75687785341E+03 -0.16635381072E+04  0.21546746832E+04  0.89282773012E+03 0.  0.
         23    2    4    4    0    0 -0.90484186885E+03  0.66572756946E+03 -0.12712048297E+04  0.16984946441E+04  0.83608208217E+02 0.  0.
         23    2    4    4    0    0  0.19402648102E+03  0.91150283957E+02 -0.39233327751E+03  0.45618003913E+03  0.90665196513E+02 0.  0.
          2    1    3    3  502    0  0.23463816034E+03 -0.24207688812E+03 -0.15143938647E+03  0.36958107882E+03  0.00000000000E+00 0. -1.
         -1    1    3    3    0  502  0.47617722750E+03 -0.51480096530E+03 -0.19215274221E+03  0.72710897546E+03  0.00000000000E+00 0.  1.
         11    1    5    5    0    0 -0.65511384705E+03  0.50376481531E+03 -0.98227895583E+03  0.12836763957E+04  0.00000000000E+00 0.  1.
        -11    1    5    5    0    0 -0.24972802180E+03  0.16196275415E+03 -0.28892587390E+03  0.41481824841E+03  0.00000000000E+00 0. -1.
          2    1    6    6  503    0  0.36318581558E+01  0.33680228439E+02 -0.56876633016E+02  0.66200449882E+02  0.00000000000E+00 0. -1.
         -2    1    6    6    0  503  0.19039462286E+03  0.57470055518E+02 -0.33545664450E+03  0.38997958925E+03  0.00000000000E+00 0.  1.
<mgrwt>
<rscale>  0 0.25578899E+04</rscale>
<asrwt>0</asrwt>
<pdfrwt beam="1">  1        2 0.40449961E+00 0.25578899E+04</pdfrwt>
<pdfrwt beam="2">  1       -1 0.95710347E-01 0.25578899E+04</pdfrwt>
<totfact> 0.31081487E+00</totfact>
</mgrwt>
</event>
<event>
12    6  0.1540825E-007  0.1290722E+04  0.7818608E-02  0.9036955E-01
          2   -1    0    0  501    0  0.00000000000E+00  0.00000000000E+00  0.24764123737E+04  0.24764123737E+04  0.00000000000E+00 0. -1.
         -1   -1    0    0    0  501 -0.00000000000E+00 -0.00000000000E+00 -0.16818326269E+03  0.16818326269E+03  0.00000000000E+00 0.  1.
         24    2    1    2    0    0 -0.60145927210E+02  0.29283596202E+03  0.37293683587E+03  0.48489895751E+03  0.81698728511E+02 0.  0.
        254    2    1    2    0    0  0.60145927210E+02 -0.29283596202E+03  0.19352922751E+04  0.21596966789E+04  0.91080355800E+03 0.  0.
         23    2    4    4    0    0 -0.65801345326E+02 -0.46519994016E+03  0.45166790127E+03  0.65804268662E+03  0.90969681774E+02 0.  0.
         23    2    4    4    0    0  0.12594727254E+03  0.17236397814E+03  0.14836243739E+04  0.15016539922E+04  0.90837069990E+02 0.  0.
          4    1    3    3  502    0 -0.37661916892E+01 -0.10022578994E+01  0.28042284430E+02  0.28311807374E+02  0.00000000000E+00 0. -1.
         -3    1    3    3    0  502 -0.56379735520E+02  0.29383821992E+03  0.34489455144E+03  0.45658715014E+03  0.00000000000E+00 0.  1.
         11    1    5    5    0    0 -0.74237638662E+01 -0.33627913513E+03  0.30171534694E+03  0.45185276316E+03  0.00000000000E+00 0.  1.
        -11    1    5    5    0    0 -0.58377581459E+02 -0.12892080503E+03  0.14995255433E+03  0.20618992346E+03  0.00000000000E+00 0. -1.
          3    1    6    6  503    0  0.56938542632E+02  0.13098952786E+02  0.37340134109E+03  0.37794462786E+03  0.00000000000E+00 0. -1.
         -3    1    6    6    0  503  0.69008729903E+02  0.15926502535E+03  0.11102230328E+04  0.11237093644E+04  0.00000000000E+00 0.  1.
<mgrwt>
<rscale>  0 0.12907225E+04</rscale>
<asrwt>0</asrwt>
<pdfrwt beam="1">  1        2 0.38098649E+00 0.12907225E+04</pdfrwt>
<pdfrwt beam="2">  1       -1 0.25874350E-01 0.12907225E+04</pdfrwt>
<totfact> 0.53228654E+01</totfact>
</mgrwt>
</event>
<event>
12    6  0.1540825E-007  0.1397589E+04  0.7818608E-02  0.8955566E-01
         -1   -1    0    0    0  501 -0.00000000000E+00  0.00000000000E+00  0.20686849593E+03  0.20686849593E+03  0.00000000000E+00 0.  1.
          2   -1    0    0  501    0  0.00000000000E+00 -0.00000000000E+00 -0.23605028041E+04  0.23605028041E+04  0.00000000000E+00 0. -1.
         24    2    1    2    0    0  0.32278845350E+03 -0.19381541841E+03 -0.35664031514E+03  0.52516279465E+03  0.82745660737E+02 0.  0.
        254    2    1    2    0    0 -0.32278845350E+03  0.19381541841E+03 -0.17969939930E+04  0.20422085053E+04  0.89424346033E+03 0.  0.
         23    2    4    4    0    0 -0.50234445992E+03  0.31164949297E+03 -0.70660398499E+03  0.92628899339E+03  0.96159995763E+02 0.  0.
         23    2    4    4    0    0  0.17955600641E+03 -0.11783407456E+03 -0.10903900080E+04  0.11159195120E+04  0.10099880725E+03 0.  0.
          4    1    3    3  502    0  0.11424083597E+03 -0.63742356466E+02 -0.17986228611E+03  0.22240615679E+03  0.00000000000E+00 0. -1.
         -3    1    3    3    0  502  0.20854761753E+03 -0.13007306194E+03 -0.17677802903E+03  0.30275663786E+03  0.00000000000E+00 0.  1.
         11    1    5    5    0    0 -0.88523624440E+02  0.99050582012E+02 -0.17806073359E+03  0.22215551924E+03  0.00000000000E+00 0. -1.
        -11    1    5    5    0    0 -0.41382083548E+03  0.21259891096E+03 -0.52854325140E+03  0.70413347415E+03  0.00000000000E+00 0.  1.
          3    1    6    6  503    0 -0.55427788018E+01 -0.32144480886E+02 -0.18327410122E+03  0.18615420013E+03  0.00000000000E+00 0. -1.
         -3    1    6    6    0  503  0.18509878522E+03 -0.85689593675E+02 -0.90711590678E+03  0.92976531183E+03  0.00000000000E+00 0.  1.
<mgrwt>
<rscale>  0 0.13975889E+04</rscale>
<asrwt>0</asrwt>
<pdfrwt beam="1">  1        2 0.36315429E+00 0.13975889E+04</pdfrwt>
<pdfrwt beam="2">  1       -1 0.31825921E-01 0.13975889E+04</pdfrwt>
<totfact> 0.42798901E+01</totfact>
</mgrwt>
</event>
<event>
12    6  0.1540825E-007  0.1363691E+04  0.7818608E-02  0.8980528E-01
         -1   -1    0    0    0  501 -0.00000000000E+00  0.00000000000E+00  0.22882835512E+03  0.22882835512E+03  0.00000000000E+00 0.  1.
          2   -1    0    0  501    0  0.00000000000E+00 -0.00000000000E+00 -0.20317133482E+04  0.20317133482E+04  0.00000000000E+00 0. -1.
         24    2    1    2    0    0  0.25093969543E+02  0.34806883621E+03 -0.74472716906E+03  0.82614349955E+03  0.78185059075E+02 0.  0.
        254    2    1    2    0    0 -0.25093969543E+02 -0.34806883621E+03 -0.10581578240E+04  0.14343982037E+04  0.90333748087E+03 0.  0.
         23    2    4    4    0    0 -0.19329306671E+03 -0.13676644613E+03 -0.11149232114E+04  0.11436796626E+04  0.94245067872E+02 0.  0.
         23    2    4    4    0    0  0.16819909717E+03 -0.21130239009E+03  0.56765387401E+02  0.29071854117E+03  0.91407464851E+02 0.  0.
          2    1    3    3  502    0 -0.59084990743E+01  0.19773703211E+02 -0.98568324626E+02  0.10070563201E+03  0.00000000000E+00 0. -1.
         -1    1    3    3    0  502  0.31002468617E+02  0.32829513300E+03 -0.64615884443E+03  0.72543786753E+03  0.00000000000E+00 0.  1.
         11    1    5    5    0    0 -0.19505321765E+03 -0.10230286254E+03 -0.97400146046E+03  0.99859425113E+03  0.00000000000E+00 0.  1.
        -11    1    5    5    0    0  0.17601509332E+01 -0.34463583586E+02 -0.14092175094E+03  0.14508541144E+03  0.00000000000E+00 0. -1.
          4    1    6    6  503    0  0.10944443949E+03 -0.16570028148E+03  0.78031879257E+02  0.21336270246E+03  0.00000000000E+00 0.  1.
         -4    1    6    6    0  503  0.58754657676E+02 -0.45602108605E+02 -0.21266491856E+02  0.77355838717E+02  0.00000000000E+00 0. -1.
<mgrwt>
<rscale>  0 0.13636915E+04</rscale>
<asrwt>0</asrwt>
<pdfrwt beam="1">  1        2 0.31257130E+00 0.13636915E+04</pdfrwt>
<pdfrwt beam="2">  1       -1 0.35204361E-01 0.13636915E+04</pdfrwt>
<totfact> 0.54803383E+01</totfact>
</mgrwt>
</event>
<event>
12    6  0.1540825E-007  0.2682797E+04  0.7818608E-02  0.8340608E-01
         -1   -1    0    0    0  501 -0.00000000000E+00  0.00000000000E+00  0.10475065223E+04  0.10475065223E+04  0.00000000000E+00 0.  1.
          2   -1    0    0  501    0  0.00000000000E+00 -0.00000000000E+00 -0.17177455805E+04  0.17177455805E+04  0.00000000000E+00 0. -1.
         24    2    1    2    0    0 -0.53224317144E+02  0.11624677512E+04 -0.55055856129E+03  0.12898554605E+04  0.80301177072E+02 0.  0.
        254    2    1    2    0    0  0.53224317144E+02 -0.11624677512E+04 -0.11968049686E+03  0.14753966423E+04  0.89905935856E+03 0.  0.
         23    2    4    4    0    0  0.12133179844E+03 -0.74360227703E+03 -0.49146133222E+03  0.90389850848E+03  0.88501530171E+02 0.  0.
         23    2    4    4    0    0 -0.68107481298E+02 -0.41886547418E+03  0.37178083537E+03  0.57149813381E+03  0.91116480050E+02 0.  0.
          2    1    3    3  502    0 -0.63374217333E+02  0.10786541117E+04 -0.49296247713E+03  0.11876544059E+04  0.00000000000E+00 0. -1.
         -1    1    3    3    0  502  0.10149900189E+02  0.83813639519E+02 -0.57596084154E+02  0.10220105456E+03  0.00000000000E+00 0.  1.
         11    1    5    5    0    0 -0.11929259746E+02 -0.43222148170E+02 -0.19527395926E+02  0.48905833212E+02  0.00000000000E+00 0.  1.
        -11    1    5    5    0    0  0.13326105819E+03 -0.70038012886E+03 -0.47193393630E+03  0.85499267527E+03  0.00000000000E+00 0. -1.
          4    1    6    6  503    0 -0.66428773259E+02 -0.34605933654E+03  0.25930025161E+03  0.43750024778E+03  0.00000000000E+00 0. -1.
         -4    1    6    6    0  503 -0.16787080390E+01 -0.72806137641E+02  0.11248058376E+03  0.13399788603E+03  0.00000000000E+00 0.  1.
<mgrwt>
<rscale>  0 0.26827968E+04</rscale>
<asrwt>0</asrwt>
<pdfrwt beam="1">  1        2 0.26426855E+00 0.26827968E+04</pdfrwt>
<pdfrwt beam="2">  1       -1 0.16115485E+00 0.26827968E+04</pdfrwt>
<totfact> 0.27459739E+00</totfact>
</mgrwt>
</event>
<event>
12    6  0.1540825E-007  0.1779102E+04  0.7818608E-02  0.8717493E-01
         -1   -1    0    0    0  501 -0.00000000000E+00  0.00000000000E+00  0.83414089135E+03  0.83414089135E+03  0.00000000000E+00 0.  1.
          2   -1    0    0  501    0  0.00000000000E+00 -0.00000000000E+00 -0.94864134667E+03  0.94864134667E+03  0.00000000000E+00 0. -1.
         24    2    1    2    0    0 -0.57770694085E+03 -0.31235554130E+03 -0.11832242223E+03  0.67190091065E+03  0.78353968899E+02 0.  0.
        254    2    1    2    0    0  0.57770694085E+03  0.31235554130E+03  0.38219669176E+01  0.11108813274E+04  0.89595280141E+03 0.  0.
         23    2    4    4    0    0 -0.19802682194E+03 -0.66352737817E+02 -0.72611958140E+02  0.23925927401E+03  0.91406759666E+02 0.  0.
         23    2    4    4    0    0  0.77573376279E+03  0.37870827912E+03  0.76433925058E+02  0.87162205335E+03  0.93273938377E+02 0.  0.
          4    1    3    3  502    0 -0.49318696649E+03 -0.28992102493E+03 -0.85241876851E+02  0.57840622592E+03  0.00000000000E+00 0. -1.
         -3    1    3    3    0  502 -0.84519974361E+02 -0.22434516376E+02 -0.33080545381E+02  0.93494684735E+02  0.00000000000E+00 0.  1.
         11    1    5    5    0    0 -0.21785671261E+02  0.20901495075E+02 -0.18040847262E+02  0.35170444106E+02  0.00000000000E+00 0.  1.
        -11    1    5    5    0    0 -0.17624115068E+03 -0.87254232892E+02 -0.54571110878E+02  0.20408882991E+03  0.00000000000E+00 0. -1.
          4    1    6    6  503    0  0.24445260410E+03  0.78822930327E+02  0.55682803331E+00  0.25684711416E+03  0.00000000000E+00 0.  1.
         -4    1    6    6    0  503  0.53128115869E+03  0.29988534879E+03  0.75877097025E+02  0.61477493919E+03  0.00000000000E+00 0. -1.
<mgrwt>
<rscale>  0 0.17791015E+04</rscale>
<asrwt>0</asrwt>
<pdfrwt beam="1">  1        2 0.14594482E+00 0.17791015E+04</pdfrwt>
<pdfrwt beam="2">  1       -1 0.12832937E+00 0.17791015E+04</pdfrwt>
<totfact> 0.15383454E+01</totfact>
</mgrwt>
</event>
<event>
12    6  0.1540825E-007  0.1652654E+04  0.7818608E-02  0.8788838E-01
         -1   -1    0    0    0  501 -0.00000000000E+00  0.00000000000E+00  0.29705601243E+04  0.29705601243E+04  0.00000000000E+00 0.  1.
          2   -1    0    0  501    0  0.00000000000E+00 -0.00000000000E+00 -0.22986103898E+03  0.22986103898E+03  0.00000000000E+00 0. -1.
         24    2    1    2    0    0 -0.10660005869E+03  0.15498517399E+03 -0.91516506085E+02  0.22251646564E+03  0.75857299760E+02 0.  0.
        254    2    1    2    0    0  0.10660005869E+03 -0.15498517399E+03  0.28322155914E+04  0.29779046976E+04  0.90060382820E+03 0.  0.
         23    2    4    4    0    0 -0.38323426429E+03 -0.14762318297E+03  0.13477446329E+04  0.14119842155E+04  0.92858624145E+02 0.  0.
         23    2    4    4    0    0  0.48983432298E+03 -0.73619910193E+01  0.14844709585E+04  0.15659204821E+04  0.91984056224E+02 0.  0.
          2    1    3    3  502    0 -0.22299192037E+02  0.78939349523E+02 -0.68057780348E+02  0.10658581676E+03  0.00000000000E+00 0. -1.
         -1    1    3    3    0  502 -0.84300866650E+02  0.76045824468E+02 -0.23458725738E+02  0.11593064888E+03  0.00000000000E+00 0.  1.
         11    1    5    5    0    0 -0.10159315286E+03 -0.66231307466E+02  0.51683041900E+03  0.53086856829E+03  0.00000000000E+00 0. -1.
        -11    1    5    5    0    0 -0.28164111143E+03 -0.81391875506E+02  0.83091421386E+03  0.88111564725E+03  0.00000000000E+00 0.  1.
          3    1    6    6  503    0  0.14562433742E+02 -0.87659558261E+01  0.19942087968E+02  0.26202925992E+02  0.00000000000E+00 0. -1.
         -3    1    6    6    0  503  0.47527188924E+03  0.14039648068E+01  0.14645288705E+04  0.15397175561E+04  0.00000000000E+00 0.  1.
<mgrwt>
<rscale>  0 0.16526537E+04</rscale>
<asrwt>0</asrwt>
<pdfrwt beam="1">  1        2 0.35363239E-01 0.16526537E+04</pdfrwt>
<pdfrwt beam="2">  1       -1 0.45700922E+00 0.16526537E+04</pdfrwt>
<totfact> 0.47000373E-01</totfact>
</mgrwt>
</event>
<event>
12    6  0.1540825E-007  0.2109009E+04  0.7818608E-02  0.8557285E-01
          2   -1    0    0  501    0  0.00000000000E+00  0.00000000000E+00  0.15176026689E+04  0.15176026689E+04  0.00000000000E+00 0. -1.
         -1   -1    0    0    0  501 -0.00000000000E+00 -0.00000000000E+00 -0.73272153651E+03  0.73272153651E+03  0.00000000000E+00 0.  1.
         24    2    1    2    0    0 -0.67471770737E+03 -0.51877360377E+03  0.20048169641E+03  0.87779342171E+03  0.77190310335E+02 0.  0.
        254    2    1    2    0    0  0.67471770737E+03  0.51877360377E+03  0.58439943601E+03  0.13725307837E+04  0.90440478486E+03 0.  0.
         23    2    4    4    0    0  0.85370222352E+03  0.49788575434E+03  0.61595319906E+03  0.11680136931E+04  0.90332347500E+02 0.  0.
         23    2    4    4    0    0 -0.17898451615E+03  0.20887849423E+02 -0.31553763051E+02  0.20451709063E+03  0.91432166778E+02 0.  0.
          4    1    3    3  502    0 -0.38852847256E+03 -0.28927234642E+03  0.15247768431E+03  0.50782113840E+03  0.00000000000E+00 0. -1.
         -3    1    3    3    0  502 -0.28618923481E+03 -0.22950125735E+03  0.48004012101E+02  0.36997228332E+03  0.00000000000E+00 0.  1.
         11    1    5    5    0    0  0.33185021287E+01  0.12013552778E+02  0.12386109219E+02  0.17571386067E+02  0.00000000000E+00 0. -1.
        -11    1    5    5    0    0  0.85038372139E+03  0.48587220156E+03  0.60356708984E+03  0.11504423070E+04  0.00000000000E+00 0.  1.
          3    1    6    6  503    0 -0.59792159278E+02  0.43720524216E+02  0.13065553165E+02  0.75214993375E+02  0.00000000000E+00 0. -1.
         -3    1    6    6    0  503 -0.11919235688E+03 -0.22832674793E+02 -0.44619316215E+02  0.12930209726E+03  0.00000000000E+00 0.  1.
<mgrwt>
<rscale>  0 0.21090094E+04</rscale>
<asrwt>0</asrwt>
<pdfrwt beam="1">  1        2 0.23347733E+00 0.21090094E+04</pdfrwt>
<pdfrwt beam="2">  1       -1 0.11272639E+00 0.21090094E+04</pdfrwt>
<totfact> 0.93719301E+00</totfact>
</mgrwt>
</event>
<event>
12    6  0.1540825E-007  0.1684597E+04  0.7818608E-02  0.8770198E-01
          2   -1    0    0  501    0  0.00000000000E+00  0.00000000000E+00  0.67277152583E+03  0.67277152583E+03  0.00000000000E+00 0. -1.
         -1   -1    0    0    0  501 -0.00000000000E+00 -0.00000000000E+00 -0.10545433344E+04  0.10545433344E+04  0.00000000000E+00 0.  1.
         24    2    1    2    0    0  0.16807129834E+03  0.41344370928E+03  0.28452436356E+03  0.53538954468E+03  0.80648552524E+02 0.  0.
        254    2    1    2    0    0 -0.16807129834E+03 -0.41344370928E+03 -0.66629617210E+03  0.11919253155E+04  0.88178892414E+03 0.  0.
         23    2    4    4    0    0 -0.40893856571E+03  0.66155622263E+02 -0.41026107450E+03  0.59016005447E+03  0.91473623312E+02 0.  0.
         23    2    4    4    0    0  0.24086726737E+03 -0.47959933155E+03 -0.25603509761E+03  0.60176526105E+03  0.92384516490E+02 0.  0.
          2    1    3    3  502    0  0.39556055792E+02  0.12205421783E+03  0.41717195245E+02  0.13491567002E+03  0.00000000000E+00 0. -1.
         -1    1    3    3    0  502  0.12851524255E+03  0.29138949146E+03  0.24280716831E+03  0.40047387466E+03  0.00000000000E+00 0.  1.
         11    1    5    5    0    0 -0.31060948478E+03  0.10147622300E+02 -0.31039603036E+03  0.43923447262E+03  0.00000000000E+00 0. -1.
        -11    1    5    5    0    0 -0.98329080936E+02  0.56007999963E+02 -0.99865044132E+02  0.15092558185E+03  0.00000000000E+00 0.  1.
          4    1    6    6  503    0  0.36423187684E+02 -0.16093530424E+03 -0.94375076794E+02  0.19008807398E+03  0.00000000000E+00 0.  1.
         -4    1    6    6    0  503  0.20444407969E+03 -0.31866402731E+03 -0.16166002081E+03  0.41167718707E+03  0.00000000000E+00 0. -1.
<mgrwt>
<rscale>  0 0.16845970E+04</rscale>
<asrwt>0</asrwt>
<pdfrwt beam="1">  1        2 0.10350331E+00 0.16845970E+04</pdfrwt>
<pdfrwt beam="2">  1       -1 0.16223743E+00 0.16845970E+04</pdfrwt>
<totfact> 0.13173540E+01</totfact>
</mgrwt>
</event>
<event>
12    6  0.1540825E-007  0.1438532E+04  0.7818608E-02  0.8926390E-01
         -1   -1    0    0    0  501 -0.00000000000E+00  0.00000000000E+00  0.45649874569E+03  0.45649874569E+03  0.00000000000E+00 0.  1.
          2   -1    0    0  501    0  0.00000000000E+00 -0.00000000000E+00 -0.11332858663E+04  0.11332858663E+04  0.00000000000E+00 0. -1.
         24    2    1    2    0    0 -0.22496747686E+03  0.32592884417E+03 -0.21515440342E+02  0.40473052983E+03  0.80646825670E+02 0.  0.
        254    2    1    2    0    0  0.22496747686E+03 -0.32592884417E+03 -0.65527168032E+03  0.11850540822E+04  0.90450662001E+03 0.  0.
         23    2    4    4    0    0 -0.10238920445E+03 -0.54497959177E+03 -0.49818925239E+03  0.75101041615E+03  0.91311605754E+02 0.  0.
         23    2    4    4    0    0  0.32735668132E+03  0.21905074760E+03 -0.15708242793E+03  0.43404366606E+03  0.92592591806E+02 0.  0.
          2    1    3    3  502    0 -0.11944499025E+02  0.47832483032E+02 -0.23037548980E+02  0.54418252021E+02  0.00000000000E+00 0. -1.
         -1    1    3    3    0  502 -0.21302297784E+03  0.27809636114E+03  0.15221086385E+01  0.35031227781E+03  0.00000000000E+00 0.  1.
         11    1    5    5    0    0 -0.49298308240E+02 -0.10944837588E+03 -0.14152612628E+03  0.18557724698E+03  0.00000000000E+00 0. -1.
        -11    1    5    5    0    0 -0.53090896212E+02 -0.43553121589E+03 -0.35666312611E+03  0.56543316917E+03  0.00000000000E+00 0.  1.
          1    1    6    6  503    0  0.26613048019E+03  0.13887679713E+03 -0.91902844799E+02  0.31394001043E+03  0.00000000000E+00 0. -1.
         -1    1    6    6    0  503  0.61226201122E+02  0.80173950470E+02 -0.65179583132E+02  0.12010365563E+03  0.00000000000E+00 0.  1.
<mgrwt>
<rscale>  0 0.14385320E+04</rscale>
<asrwt>0</asrwt>
<pdfrwt beam="1">  1        2 0.17435167E+00 0.14385320E+04</pdfrwt>
<pdfrwt beam="2">  1       -1 0.70230578E-01 0.14385320E+04</pdfrwt>
<totfact> 0.47151235E+01</totfact>
</mgrwt>
</event>
<event>
12    6  0.1540825E-007  0.1271329E+04  0.7818608E-02  0.9052616E-01
         -1   -1    0    0    0  501 -0.00000000000E+00  0.00000000000E+00  0.18297416394E+03  0.18297416394E+03  0.00000000000E+00 0.  1.
          2   -1    0    0  501    0  0.00000000000E+00 -0.00000000000E+00 -0.22083402694E+04  0.22083402694E+04  0.00000000000E+00 0. -1.
         24    2    1    2    0    0  0.90822496264E+02  0.22657908311E+03 -0.14714372480E+03  0.29635991248E+03  0.81185683750E+02 0.  0.
        254    2    1    2    0    0 -0.90822496264E+02 -0.22657908311E+03 -0.18782223807E+04  0.20949545209E+04  0.89528114389E+03 0.  0.
         23    2    4    4    0    0  0.33395425477E+03 -0.18201495176E+03 -0.13701626883E+04  0.14250854235E+04  0.94168916012E+02 0.  0.
         23    2    4    4    0    0 -0.42477675103E+03 -0.44564131349E+02 -0.50805969236E+03  0.66986909744E+03  0.90436202242E+02 0.  0.
          2    1    3    3  502    0 -0.71986091781E+00  0.81903203142E+00 -0.22839638908E+02  0.22865653690E+02  0.00000000000E+00 0. -1.
         -1    1    3    3    0  502  0.91542357181E+02  0.22576005107E+03 -0.12430408589E+03  0.27349425879E+03  0.00000000000E+00 0.  1.
         11    1    5    5    0    0  0.64233698139E+02 -0.80009974968E+02 -0.31966298925E+03  0.33572606507E+03  0.00000000000E+00 0.  1.
        -11    1    5    5    0    0  0.26972055663E+03 -0.10200497679E+03 -0.10504996991E+04  0.10893593584E+04  0.00000000000E+00 0. -1.
          2    1    6    6  503    0 -0.38959961915E+02  0.22191836457E+02 -0.58399974243E+02  0.73626851280E+02  0.00000000000E+00 0.  1.
         -2    1    6    6    0  503 -0.38581678912E+03 -0.66755967806E+02 -0.44965971812E+03  0.59624224616E+03  0.00000000000E+00 0. -1.
<mgrwt>
<rscale>  0 0.12713288E+04</rscale>
<asrwt>0</asrwt>
<pdfrwt beam="1">  1        2 0.33974464E+00 0.12713288E+04</pdfrwt>
<pdfrwt beam="2">  1       -1 0.28149873E-01 0.12713288E+04</pdfrwt>
<totfact> 0.65337687E+01</totfact>
</mgrwt>
</event>
<event>
12    6  0.1540825E-007  0.1826980E+04  0.7818608E-02  0.8692082E-01
          2   -1    0    0  501    0  0.00000000000E+00  0.00000000000E+00  0.15989037532E+04  0.15989037532E+04  0.00000000000E+00 0. -1.
         -1   -1    0    0    0  501 -0.00000000000E+00 -0.00000000000E+00 -0.52189771310E+03  0.52189771310E+03  0.00000000000E+00 0.  1.
         24    2    1    2    0    0  0.40220384934E+03 -0.52577955786E+03  0.15835569688E+03  0.68553802136E+03  0.81693158263E+02 0.  0.
        254    2    1    2    0    0 -0.40220384934E+03  0.52577955786E+03  0.91865034325E+03  0.14352634450E+04  0.88195840232E+03 0.  0.
         23    2    4    4    0    0 -0.41953749202E+03 -0.95357855517E+02  0.20653270581E+03  0.48588233632E+03  0.91219835380E+02 0.  0.
         23    2    4    4    0    0  0.17333642680E+02  0.62113741338E+03  0.71211763744E+03  0.94938110864E+03  0.90004546699E+02 0.  0.
          4    1    3    3  502    0  0.15330038910E+03 -0.15410911991E+03  0.78727203231E+02  0.23118953840E+03  0.00000000000E+00 0. -1.
         -3    1    3    3    0  502  0.24890346024E+03 -0.37167043795E+03  0.79628493651E+02  0.45434848296E+03  0.00000000000E+00 0.  1.
         11    1    5    5    0    0 -0.84881784086E+02  0.17255983956E+02  0.44591230050E+02  0.97422092204E+02  0.00000000000E+00 0. -1.
        -11    1    5    5    0    0 -0.33465570793E+03 -0.11261383947E+03  0.16194147576E+03  0.38846024412E+03  0.00000000000E+00 0.  1.
          3    1    6    6  503    0  0.15026881664E+02  0.11000480853E+03  0.18039661652E+03  0.21182493792E+03  0.00000000000E+00 0. -1.
         -3    1    6    6    0  503  0.23067610157E+01  0.51113260484E+03  0.53172102092E+03  0.73755617072E+03  0.00000000000E+00 0.  1.
<mgrwt>
<rscale>  0 0.18269803E+04</rscale>
<asrwt>0</asrwt>
<pdfrwt beam="1">  1        2 0.24598519E+00 0.18269803E+04</pdfrwt>
<pdfrwt beam="2">  1       -1 0.80291957E-01 0.18269803E+04</pdfrwt>
<totfact> 0.18550601E+01</totfact>
</mgrwt>
</event>
<event>
12    6  0.1540825E-007  0.1526235E+04  0.7818608E-02  0.8867192E-01
          2   -1    0    0  501    0  0.00000000000E+00  0.00000000000E+00  0.83760087427E+03  0.83760087427E+03  0.00000000000E+00 0. -1.
         -1   -1    0    0    0  501 -0.00000000000E+00 -0.00000000000E+00 -0.69525794352E+03  0.69525794352E+03  0.00000000000E+00 0.  1.
         24    2    1    2    0    0  0.83052653507E+02 -0.42963026090E+03 -0.18111976984E+03  0.47870892684E+03  0.69842403128E+02 0.  0.
        254    2    1    2    0    0 -0.83052653507E+02  0.42963026090E+03  0.32346270059E+03  0.10541498910E+04  0.90284216205E+03 0.  0.
         23    2    4    4    0    0  0.34627252571E+03  0.42090764072E+03  0.98577857855E+02  0.56112463443E+03  0.89862991420E+02 0.  0.
         23    2    4    4    0    0 -0.42932517921E+03  0.87226201841E+01  0.22488484273E+03  0.49302525652E+03  0.90025093551E+02 0.  0.
          2    1    3    3  502    0 -0.12710149249E+02 -0.52547378099E+02 -0.23008387874E+02  0.58755091282E+02  0.00000000000E+00 0. -1.
         -1    1    3    3    0  502  0.95762802756E+02 -0.37708288280E+03 -0.15811138196E+03  0.41995383556E+03  0.00000000000E+00 0.  1.
         11    1    5    5    0    0  0.81774306332E+02  0.11296785696E+03 -0.13187618833E+02  0.14008100218E+03  0.00000000000E+00 0.  1.
        -11    1    5    5    0    0  0.26449821938E+03  0.30793978376E+03  0.11176547669E+03  0.42104363225E+03  0.00000000000E+00 0. -1.
          3    1    6    6  503    0 -0.35565747110E+03  0.29877439902E+02  0.15432162189E+03  0.38884452053E+03  0.00000000000E+00 0. -1.
         -3    1    6    6    0  503 -0.73667708111E+02 -0.21154819718E+02  0.70563220842E+02  0.10418073599E+03  0.00000000000E+00 0.  1.
<mgrwt>
<rscale>  0 0.15262354E+04</rscale>
<asrwt>0</asrwt>
<pdfrwt beam="1">  1        2 0.12886167E+00 0.15262354E+04</pdfrwt>
<pdfrwt beam="2">  1       -1 0.10696276E+00 0.15262354E+04</pdfrwt>
<totfact> 0.29068659E+01</totfact>
</mgrwt>
</event>
<event>
12    6  0.1540825E-007  0.1978633E+04  0.7818608E-02  0.8616676E-01
         -1   -1    0    0    0  501 -0.00000000000E+00  0.00000000000E+00  0.10215566705E+04  0.10215566705E+04  0.00000000000E+00 0.  1.
          2   -1    0    0  501    0  0.00000000000E+00 -0.00000000000E+00 -0.95809405400E+03  0.95809405400E+03  0.00000000000E+00 0. -1.
         24    2    1    2    0    0 -0.90702323027E+02  0.18408363323E+03  0.78293392099E+03  0.81271279797E+03  0.73504230613E+02 0.  0.
        254    2    1    2    0    0  0.90702323027E+02 -0.18408363323E+03 -0.71947130450E+03  0.11669379265E+04  0.89553976512E+03 0.  0.
         23    2    4    4    0    0  0.40184114507E+03 -0.15782923829E+02 -0.68541627317E+03  0.80009365431E+03  0.92892311715E+02 0.  0.
         23    2    4    4    0    0 -0.31113882205E+03 -0.16830070941E+03 -0.34055031324E+02  0.36684427221E+03  0.91008128871E+02 0.  0.
          2    1    3    3  502    0  0.37238415896E+01  0.17711599524E+02  0.24113545054E+02  0.30150137793E+02  0.00000000000E+00 0. -1.
         -1    1    3    3    0  502 -0.94426164616E+02  0.16637203371E+03  0.75882037594E+03  0.78256266017E+03  0.00000000000E+00 0.  1.
         11    1    5    5    0    0  0.13821375192E+03 -0.26032862660E+02 -0.16642903607E+03  0.21789762551E+03  0.00000000000E+00 0. -1.
        -11    1    5    5    0    0  0.26362739316E+03  0.10249938831E+02 -0.51898723711E+03  0.58219602880E+03  0.00000000000E+00 0.  1.
          2    1    6    6  503    0 -0.13931077876E+03 -0.42454700468E+02 -0.48163605350E+02  0.15339370115E+03  0.00000000000E+00 0. -1.
         -2    1    6    6    0  503 -0.17182804329E+03 -0.12584600894E+03  0.14108574026E+02  0.21345057106E+03  0.00000000000E+00 0.  1.
<mgrwt>
<rscale>  0 0.19786332E+04</rscale>
<asrwt>0</asrwt>
<pdfrwt beam="1">  1        2 0.14739908E+00 0.19786332E+04</pdfrwt>
<pdfrwt beam="2">  1       -1 0.15716257E+00 0.19786332E+04</pdfrwt>
<totfact> 0.87464545E+00</totfact>
</mgrwt>
</event>
<event>
12    6  0.1540825E-007  0.2748672E+04  0.7818608E-02  0.8319383E-01
          2   -1    0    0  501    0  0.00000000000E+00  0.00000000000E+00  0.33677587748E+04  0.33677587748E+04  0.00000000000E+00 0. -1.
         -1   -1    0    0    0  501 -0.00000000000E+00 -0.00000000000E+00 -0.56084755576E+03  0.56084755576E+03  0.00000000000E+00 0.  1.
         24    2    1    2    0    0  0.22723858540E+03  0.60995594217E+03  0.27269948058E+04  0.28047534817E+04  0.80360414402E+02 0.  0.
        254    2    1    2    0    0 -0.22723858540E+03 -0.60995594217E+03  0.79916413268E+02  0.11238528489E+04  0.91267462261E+03 0.  0.
         23    2    4    4    0    0  0.97371690528E+02 -0.51755273602E+03 -0.29601494118E+03  0.61051436353E+03  0.88095754678E+02 0.  0.
         23    2    4    4    0    0 -0.32461027593E+03 -0.92403206148E+02  0.37593135444E+03  0.51333848536E+03  0.91004579835E+02 0.  0.
          4    1    3    3  502    0  0.15373754278E+03  0.31935829647E+03  0.15764679919E+04  0.16158206222E+04  0.00000000000E+00 0. -1.
         -3    1    3    3    0  502  0.73501042621E+02  0.29059764571E+03  0.11505268138E+04  0.11889328595E+04  0.00000000000E+00 0.  1.
         11    1    5    5    0    0  0.33535313206E+02 -0.16680530759E+03 -0.49919735476E+02  0.17731499615E+03  0.00000000000E+00 0. -1.
        -11    1    5    5    0    0  0.63836377322E+02 -0.35074742844E+03 -0.24609520570E+03  0.43319936737E+03  0.00000000000E+00 0.  1.
          3    1    6    6  503    0 -0.10947544221E+02 -0.21845217860E+02  0.10453717704E+02  0.26577104464E+02  0.00000000000E+00 0. -1.
         -3    1    6    6    0  503 -0.31366273171E+03 -0.70557988288E+02  0.36547763674E+03  0.48676138090E+03  0.00000000000E+00 0.  1.
<mgrwt>
<rscale>  0 0.27486719E+04</rscale>
<asrwt>0</asrwt>
<pdfrwt beam="1">  1        2 0.51811672E+00 0.27486719E+04</pdfrwt>
<pdfrwt beam="2">  1       -1 0.86284241E-01 0.27486719E+04</pdfrwt>
<totfact> 0.13196637E+00</totfact>
</mgrwt>
</event>
<event>
12    6  0.1540825E-007  0.1480327E+04  0.7818608E-02  0.8897641E-01
          2   -1    0    0  501    0  0.00000000000E+00  0.00000000000E+00  0.17258449050E+04  0.17258449050E+04  0.00000000000E+00 0. -1.
         -1   -1    0    0    0  501 -0.00000000000E+00 -0.00000000000E+00 -0.31743427757E+03  0.31743427757E+03  0.00000000000E+00 0.  1.
         24    2    1    2    0    0 -0.19768621004E+03  0.41387314772E+03  0.43339589063E+03  0.63624623493E+03  0.81280092212E+02 0.  0.
        254    2    1    2    0    0  0.19768621004E+03 -0.41387314772E+03  0.97501473678E+03  0.14070329476E+04  0.90482990596E+03 0.  0.
         23    2    4    4    0    0  0.31647240853E+03  0.93610475404E+02  0.76473610872E+03  0.83781277551E+03  0.90505383058E+02 0.  0.
         23    2    4    4    0    0 -0.11878619849E+03 -0.50748362313E+03  0.21027862806E+03  0.56922017211E+03  0.90248070488E+02 0.  0.
          2    1    3    3  502    0 -0.46695949471E+02  0.14865561052E+03  0.10475789357E+03  0.18775840460E+03  0.00000000000E+00 0. -1.
         -1    1    3    3    0  502 -0.15099026057E+03  0.26521753721E+03  0.32863799707E+03  0.44848783032E+03  0.00000000000E+00 0.  1.
         11    1    5    5    0    0 -0.53589271874E+01  0.48156011834E+01  0.28847368496E+02  0.29733462370E+02  0.00000000000E+00 0. -1.
        -11    1    5    5    0    0  0.32183133572E+03  0.88794874220E+02  0.73588874023E+03  0.80807931314E+03  0.00000000000E+00 0.  1.
          1    1    6    6  503    0 -0.65777534634E+02 -0.31842683726E+03  0.84186754633E+02  0.33587161893E+03  0.00000000000E+00 0. -1.
         -1    1    6    6    0  503 -0.53008663854E+02 -0.18905678587E+03  0.12609187343E+03  0.23334855318E+03  0.00000000000E+00 0.  1.
<mgrwt>
<rscale>  0 0.14803274E+04</rscale>
<asrwt>0</asrwt>
<pdfrwt beam="1">  1        2 0.26551459E+00 0.14803274E+04</pdfrwt>
<pdfrwt beam="2">  1       -1 0.48836044E-01 0.14803274E+04</pdfrwt>
<totfact> 0.43901541E+01</totfact>
</mgrwt>
</event>
<event>
12    6  0.1540825E-007  0.1740682E+04  0.7818608E-02  0.8738496E-01
          2   -1    0    0  501    0  0.00000000000E+00  0.00000000000E+00  0.27660756477E+04  0.27660756477E+04  0.00000000000E+00 0. -1.
         -1   -1    0    0    0  501 -0.00000000000E+00 -0.00000000000E+00 -0.27385135826E+03  0.27385135826E+03  0.00000000000E+00 0.  1.
         24    2    1    2    0    0  0.21666013650E+03 -0.23247843941E+03  0.17420431345E+04  0.17725784117E+04  0.79574515757E+02 0.  0.
        254    2    1    2    0    0 -0.21666013650E+03  0.23247843941E+03  0.75018115493E+03  0.12673485943E+04  0.97077950877E+03 0.  0.
         23    2    4    4    0    0 -0.28196277678E+03  0.49937597029E+03  0.14838951793E+03  0.59985919018E+03  0.94510485244E+02 0.  0.
         23    2    4    4    0    0  0.65302640278E+02 -0.26689753088E+03  0.60179163701E+03  0.66748940409E+03  0.88826816831E+02 0.  0.
          4    1    3    3  502    0  0.12582747807E+03 -0.18811032251E+03  0.12319264655E+04  0.12525417614E+04  0.00000000000E+00 0. -1.
         -3    1    3    3    0  502  0.90832658428E+02 -0.44368116900E+02  0.51011666895E+03  0.52003665022E+03  0.00000000000E+00 0.  1.
         11    1    5    5    0    0 -0.88748931064E+02  0.90201763873E+02  0.11275590674E+02  0.12704278774E+03  0.00000000000E+00 0.  1.
        -11    1    5    5    0    0 -0.19321384571E+03  0.40917420642E+03  0.13711392725E+03  0.47281640244E+03  0.00000000000E+00 0. -1.
          1    1    6    6  503    0  0.42615914536E+02 -0.25963023570E+03  0.56971590227E+03  0.62753500680E+03  0.00000000000E+00 0. -1.
         -1    1    6    6    0  503  0.22686725742E+02 -0.72672951834E+01  0.32075734733E+02  0.39954397290E+02  0.00000000000E+00 0.  1.
<mgrwt>
<rscale>  0 0.17406821E+04</rscale>
<asrwt>0</asrwt>
<pdfrwt beam="1">  1        2 0.42555008E+00 0.17406821E+04</pdfrwt>
<pdfrwt beam="2">  1       -1 0.42130980E-01 0.17406821E+04</pdfrwt>
<totfact> 0.14533554E+01</totfact>
</mgrwt>
</event>
<event>
12    6  0.1540825E-007  0.1362433E+04  0.7818608E-02  0.8981469E-01
         -1   -1    0    0    0  501 -0.00000000000E+00  0.00000000000E+00  0.61686652915E+03  0.61686652915E+03  0.00000000000E+00 0.  1.
          2   -1    0    0  501    0  0.00000000000E+00 -0.00000000000E+00 -0.75227938740E+03  0.75227938740E+03  0.00000000000E+00 0. -1.
         24    2    1    2    0    0 -0.15985108991E+03  0.30410980051E+01 -0.38719471538E+03  0.42629412279E+03  0.79027288267E+02 0.  0.
        254    2    1    2    0    0  0.15985108991E+03 -0.30410980051E+01  0.25178185712E+03  0.94285179376E+03  0.89443489545E+03 0.  0.
         23    2    4    4    0    0 -0.16053788833E+03  0.25515122190E+03 -0.16105415484E+03  0.35263293423E+03  0.86815815846E+02 0.  0.
         23    2    4    4    0    0  0.32038897824E+03 -0.25819231991E+03  0.41283601196E+03  0.59021885953E+03  0.92802790588E+02 0.  0.
          2    1    3    3  502    0 -0.13755584351E+03 -0.26944261701E+02 -0.32126108683E+03  0.35050861506E+03  0.00000000000E+00 0. -1.
         -1    1    3    3    0  502 -0.22295246401E+02  0.29985359706E+02 -0.65933628545E+02  0.75785507730E+02  0.00000000000E+00 0.  1.
         11    1    5    5    0    0 -0.88521295742E+02  0.17522589012E+03 -0.14454356186E+03  0.24378878900E+03  0.00000000000E+00 0.  1.
        -11    1    5    5    0    0 -0.72016592586E+02  0.79925331789E+02 -0.16510592979E+02  0.10884414523E+03  0.00000000000E+00 0. -1.
          2    1    6    6  503    0  0.24890676959E+03 -0.14547794956E+03  0.28589502580E+03  0.40602263427E+03  0.00000000000E+00 0. -1.
         -2    1    6    6    0  503  0.71482208642E+02 -0.11271437035E+03  0.12694098616E+03  0.18419622527E+03  0.00000000000E+00 0.  1.
<mgrwt>
<rscale>  0 0.13624331E+04</rscale>
<asrwt>0</asrwt>
<pdfrwt beam="1">  1        2 0.11573529E+00 0.13624331E+04</pdfrwt>
<pdfrwt beam="2">  1       -1 0.94902543E-01 0.13624331E+04</pdfrwt>
<totfact> 0.44696105E+01</totfact>
</mgrwt>
</event>
<event>
12    6  0.1540825E-007  0.1999144E+04  0.7818608E-02  0.8607021E-01
          2   -1    0    0  501    0  0.00000000000E+00  0.00000000000E+00  0.61501159034E+03  0.61501159034E+03  0.00000000000E+00 0. -1.
         -1   -1    0    0    0  501 -0.00000000000E+00 -0.00000000000E+00 -0.16245938700E+04  0.16245938700E+04  0.00000000000E+00 0.  1.
         24    2    1    2    0    0 -0.68560780554E+03  0.39881113297E+03 -0.46650483500E+03  0.92283096589E+03  0.69870220615E+02 0.  0.
        254    2    1    2    0    0  0.68560780554E+03 -0.39881113297E+03 -0.54307744463E+03  0.13167744944E+04  0.89991864937E+03 0.  0.
         23    2    4    4    0    0  0.10945338035E+03 -0.18664131261E+03 -0.64626156030E+03  0.68764459857E+03  0.91575474718E+02 0.  0.
         23    2    4    4    0    0  0.57615442519E+03 -0.21216982036E+03  0.10318411567E+03  0.62912989585E+03  0.90484859486E+02 0.  0.
          2    1    3    3  502    0 -0.62520613983E+02  0.44412675759E+02 -0.69039391060E+02  0.10318793756E+03  0.00000000000E+00 0. -1.
         -1    1    3    3    0  502 -0.62308719156E+03  0.35439845721E+03 -0.39746544394E+03  0.81964302832E+03  0.00000000000E+00 0.  1.
         11    1    5    5    0    0 -0.13492913014E+02 -0.14838849232E+02 -0.99211457569E+02  0.10121839487E+03  0.00000000000E+00 0.  1.
        -11    1    5    5    0    0  0.12294629337E+03 -0.17180246338E+03 -0.54705010273E+03  0.58642620369E+03  0.00000000000E+00 0. -1.
          1    1    6    6  503    0  0.30577727323E+03 -0.77654208112E+02  0.21130233289E+02  0.31619045466E+03  0.00000000000E+00 0. -1.
         -1    1    6    6    0  503  0.27037715196E+03 -0.13451561225E+03  0.82053882384E+02  0.31293944119E+03  0.00000000000E+00 0.  1.
<mgrwt>
<rscale>  0 0.19991439E+04</rscale>
<asrwt>0</asrwt>
<pdfrwt beam="1">  1        2 0.94617170E-01 0.19991439E+04</pdfrwt>
<pdfrwt beam="2">  1       -1 0.24993751E+00 0.19991439E+04</pdfrwt>
<totfact> 0.35633379E+00</totfact>
</mgrwt>
</event>
<event>
12    6  0.1540825E-007  0.1341812E+04  0.7818608E-02  0.8997050E-01
          2   -1    0    0  501    0  0.00000000000E+00  0.00000000000E+00  0.12808705038E+04  0.12808705038E+04  0.00000000000E+00 0. -1.
         -1   -1    0    0    0  501 -0.00000000000E+00 -0.00000000000E+00 -0.35141314221E+03  0.35141314221E+03  0.00000000000E+00 0.  1.
         24    2    1    2    0    0 -0.23676928241E+03  0.24867941907E+03  0.37696424337E+03  0.51333679679E+03  0.59257738639E+02 0.  0.
        254    2    1    2    0    0  0.23676928241E+03 -0.24867941907E+03  0.55249311817E+03  0.11189468492E+04  0.91043520313E+03 0.  0.
         23    2    4    4    0    0  0.22707916789E+03 -0.54631522888E+03  0.54197704390E+03  0.80790096173E+03  0.94549299574E+02 0.  0.
         23    2    4    4    0    0  0.96901145192E+01  0.29763580981E+03  0.10516074276E+02  0.31104588745E+03  0.89207525929E+02 0.  0.
          4    1    3    3  502    0 -0.15110897788E+03  0.19736446486E+03  0.27137543208E+03  0.36800989161E+03  0.00000000000E+00 0. -1.
         -3    1    3    3    0  502 -0.85660304529E+02  0.51314954216E+02  0.10558881129E+03  0.14532690517E+03  0.00000000000E+00 0.  1.
         11    1    5    5    0    0  0.20255041568E+03 -0.52882328967E+03  0.52955920794E+03  0.77531522448E+03  0.00000000000E+00 0.  1.
        -11    1    5    5    0    0  0.24528752208E+02 -0.17491939218E+02  0.12417835952E+02  0.32585737251E+02  0.00000000000E+00 0. -1.
          2    1    6    6  503    0  0.21827767375E+02  0.11909621330E+02  0.17684916355E+01  0.24928258492E+02  0.00000000000E+00 0. -1.
         -2    1    6    6    0  503 -0.12137652855E+02  0.28572618848E+03  0.87475826403E+01  0.28611762896E+03  0.00000000000E+00 0.  1.
<mgrwt>
<rscale>  0 0.13418118E+04</rscale>
<asrwt>0</asrwt>
<pdfrwt beam="1">  1        2 0.19705700E+00 0.13418118E+04</pdfrwt>
<pdfrwt beam="2">  1       -1 0.54063561E-01 0.13418118E+04</pdfrwt>
<totfact> 0.65271426E+01</totfact>
</mgrwt>
</event>
<event>
12    6  0.1540825E-007  0.1925214E+04  0.7818608E-02  0.8642406E-01
          2   -1    0    0  501    0  0.00000000000E+00  0.00000000000E+00  0.23770139303E+04  0.23770139303E+04  0.00000000000E+00 0. -1.
         -1   -1    0    0    0  501 -0.00000000000E+00 -0.00000000000E+00 -0.38982204558E+03  0.38982204558E+03  0.00000000000E+00 0.  1.
         24    2    1    2    0    0  0.44781736260E+03  0.50205227927E+03  0.31162232379E+03  0.74537068290E+03  0.76629634429E+02 0.  0.
        254    2    1    2    0    0 -0.44781736260E+03 -0.50205227927E+03  0.16755695609E+04  0.20214652929E+04  0.90895087644E+03 0.  0.
         23    2    4    4    0    0 -0.22158914931E+03  0.22305186987E+03  0.28297904286E+03  0.43259610371E+03  0.90600013821E+02 0.  0.
         23    2    4    4    0    0 -0.22622821329E+03 -0.72510414914E+03  0.13925905180E+04  0.15888691892E+04  0.90783908071E+02 0.  0.
          2    1    3    3  502    0  0.30616999702E+03  0.33930871894E+03  0.25027928321E+03  0.52106640021E+03  0.00000000000E+00 0. -1.
         -1    1    3    3    0  502  0.14164736558E+03  0.16274356033E+03  0.61343040583E+02  0.22430428269E+03  0.00000000000E+00 0.  1.
         11    1    5    5    0    0 -0.19159287366E+03  0.13667983603E+03  0.19377858365E+03  0.30485955175E+03  0.00000000000E+00 0. -1.
        -11    1    5    5    0    0 -0.29996275650E+02  0.86372033841E+02  0.89200459211E+02  0.12773655196E+03  0.00000000000E+00 0.  1.
          2    1    6    6  503    0 -0.23090787507E+03 -0.71024029088E+03  0.13405643954E+04  0.15345594207E+04  0.00000000000E+00 0. -1.
         -2    1    6    6    0  503  0.46796617801E+01 -0.14863858260E+02  0.52026122659E+02  0.54309768511E+02  0.00000000000E+00 0.  1.
<mgrwt>
<rscale>  0 0.19252142E+04</rscale>
<asrwt>0</asrwt>
<pdfrwt beam="1">  1        2 0.36569444E+00 0.19252142E+04</pdfrwt>
<pdfrwt beam="2">  1       -1 0.59972624E-01 0.19252142E+04</pdfrwt>
<totfact> 0.12298126E+01</totfact>
</mgrwt>
</event>
<event>
12    6  0.1540825E-007  0.1583075E+04  0.7818608E-02  0.8831013E-01
         -1   -1    0    0    0  501 -0.00000000000E+00  0.00000000000E+00  0.31453805288E+03  0.31453805288E+03  0.00000000000E+00 0.  1.
          2   -1    0    0  501    0  0.00000000000E+00 -0.00000000000E+00 -0.19919110726E+04  0.19919110726E+04  0.00000000000E+00 0. -1.
         24    2    1    2    0    0  0.18213664381E+03 -0.40302125800E+03 -0.99246713430E+03  0.10891998950E+04  0.75930936265E+02 0.  0.
        254    2    1    2    0    0 -0.18213664381E+03  0.40302125800E+03 -0.68490588547E+03  0.12172492306E+04  0.90388037148E+03 0.  0.
         23    2    4    4    0    0  0.33283497101E+03  0.24567323459E+03 -0.46202117130E+03  0.62689582216E+03  0.91653439620E+02 0.  0.
         23    2    4    4    0    0 -0.51497161481E+03  0.15734802341E+03 -0.22288471416E+03  0.59035340841E+03  0.94262327975E+02 0.  0.
          2    1    3    3  502    0  0.15008032438E+03 -0.35808756966E+03 -0.80443440264E+03  0.89323318314E+03  0.00000000000E+00 0. -1.
         -1    1    3    3    0  502  0.32056319428E+02 -0.44933688335E+02 -0.18803273166E+03  0.19596671181E+03  0.00000000000E+00 0.  1.
         11    1    5    5    0    0  0.27597760000E+03  0.18921233827E+03 -0.41812612986E+03  0.53553188992E+03  0.00000000000E+00 0.  1.
        -11    1    5    5    0    0  0.56857371004E+02  0.56460896315E+02 -0.43895041446E+02  0.91363932237E+02  0.00000000000E+00 0. -1.
          4    1    6    6  503    0 -0.11645219414E+03  0.48480267944E+02 -0.12534455452E+02  0.12676183367E+03  0.00000000000E+00 0. -1.
         -4    1    6    6    0  503 -0.39851942067E+03  0.10886775547E+03 -0.21035025871E+03  0.46359157474E+03  0.00000000000E+00 0.  1.
<mgrwt>
<rscale>  0 0.15830753E+04</rscale>
<asrwt>0</asrwt>
<pdfrwt beam="1">  1        2 0.30644785E+00 0.15830753E+04</pdfrwt>
<pdfrwt beam="2">  1       -1 0.48390470E-01 0.15830753E+04</pdfrwt>
<totfact> 0.31544658E+01</totfact>
</mgrwt>
</event>
<event>
12    6  0.1540825E-007  0.2342097E+04  0.7818608E-02  0.8461505E-01
         -1   -1    0    0    0  501 -0.00000000000E+00  0.00000000000E+00  0.15860555725E+04  0.15860555725E+04  0.00000000000E+00 0.  1.
          2   -1    0    0  501    0  0.00000000000E+00 -0.00000000000E+00 -0.86463192722E+03  0.86463192722E+03  0.00000000000E+00 0. -1.
         24    2    1    2    0    0 -0.65127105091E+02 -0.89835945891E+03 -0.65699251900E+02  0.90700061808E+03  0.83919439165E+02 0.  0.
        254    2    1    2    0    0  0.65127105091E+02  0.89835945891E+03  0.78712289719E+03  0.15436868817E+04  0.97576404735E+03 0.  0.
         23    2    4    4    0    0  0.29339001033E+03  0.40627664407E+03 -0.79249930175E+02  0.51750729062E+03  0.10195506233E+03 0.  0.
         23    2    4    4    0    0 -0.22826290524E+03  0.49208281484E+03  0.86637282737E+03  0.10261795910E+04  0.90516443253E+02 0.  0.
          2    1    3    3  502    0 -0.71023015497E+02 -0.75709145917E+03 -0.29206462051E+02  0.76097619128E+03  0.00000000000E+00 0. -1.
         -3    1    3    3    0  502  0.58959104062E+01 -0.14126799974E+03 -0.36492789849E+02  0.14602442680E+03  0.00000000000E+00 0.  1.
         11    1    5    5    0    0  0.84603938706E+02  0.15724083651E+03  0.14869293653E+02  0.17917478340E+03  0.00000000000E+00 0.  1.
        -11    1    5    5    0    0  0.20878607163E+03  0.24903580756E+03 -0.94119223829E+02  0.33833250722E+03  0.00000000000E+00 0. -1.
          2    1    6    6  503    0 -0.90103238195E+02  0.27398647141E+03  0.40039338295E+03  0.49345925988E+03  0.00000000000E+00 0. -1.
         -2    1    6    6    0  503 -0.13815966705E+03  0.21809634343E+03  0.46597944441E+03  0.53272033116E+03  0.00000000000E+00 0.  1.
<mgrwt>
<rscale>  0 0.23420967E+04</rscale>
<asrwt>0</asrwt>
<pdfrwt beam="1">  1        2 0.13302030E+00 0.23420967E+04</pdfrwt>
<pdfrwt beam="2">  1       -1 0.24400855E+00 0.23420967E+04</pdfrwt>
<totfact> 0.24379218E+00</totfact>
</mgrwt>
</event>
<event>
12    6  0.1540825E-007  0.1263735E+04  0.7818608E-02  0.9058828E-01
         -1   -1    0    0    0  501 -0.00000000000E+00  0.00000000000E+00  0.30720969906E+03  0.30720969906E+03  0.00000000000E+00 0.  1.
          2   -1    0    0  501    0  0.00000000000E+00 -0.00000000000E+00 -0.12996223621E+04  0.12996223621E+04  0.00000000000E+00 0. -1.
         24    2    1    2    0    0  0.25679029427E+02  0.86049640412E+02 -0.63265849729E+03  0.64426691253E+03  0.82213911311E+02 0.  0.
        254    2    1    2    0    0 -0.25679029427E+02 -0.86049640412E+02 -0.35975416576E+03  0.96256514865E+03  0.88828185417E+03 0.  0.
         23    2    4    4    0    0  0.72507206056E+02 -0.29540693625E+03 -0.55910911830E+03  0.64279278911E+03  0.89760852521E+02 0.  0.
         23    2    4    4    0    0 -0.98186235482E+02  0.20935729584E+03  0.19935495254E+03  0.31977235954E+03  0.95083913808E+02 0.  0.
          4    1    3    3  502    0  0.44723328206E+02  0.74614813766E+02 -0.58787915852E+03  0.59428061683E+03  0.00000000000E+00 0. -1.
         -3    1    3    3    0  502 -0.19044298780E+02  0.11434826646E+02 -0.44779338769E+02  0.49986295692E+02  0.00000000000E+00 0.  1.
         11    1    5    5    0    0  0.19149333389E+02 -0.12528562849E+03 -0.32264141413E+03  0.34664198792E+03  0.00000000000E+00 0.  1.
        -11    1    5    5    0    0  0.53357872667E+02 -0.17012130776E+03 -0.23646770417E+03  0.29615080119E+03  0.00000000000E+00 0. -1.
          3    1    6    6  503    0 -0.75713650472E+02  0.89388682487E+02  0.51278979736E+02  0.12787660923E+03  0.00000000000E+00 0. -1.
         -3    1    6    6    0  503 -0.22472585010E+02  0.11996861335E+03  0.14807597281E+03  0.19189575031E+03  0.00000000000E+00 0.  1.
<mgrwt>
<rscale>  0 0.12637351E+04</rscale>
<asrwt>0</asrwt>
<pdfrwt beam="1">  1        2 0.19994191E+00 0.12637351E+04</pdfrwt>
<pdfrwt beam="2">  1       -1 0.47263029E-01 0.12637351E+04</pdfrwt>
<totfact> 0.82705343E+01</totfact>
</mgrwt>
</event>
<event>
12    6  0.1540825E-007  0.1376773E+04  0.7818608E-02  0.8970805E-01
          2   -1    0    0  501    0  0.00000000000E+00  0.00000000000E+00  0.81136381088E+03  0.81136381088E+03  0.00000000000E+00 0. -1.
         -1   -1    0    0    0  501 -0.00000000000E+00 -0.00000000000E+00 -0.58404874258E+03  0.58404874258E+03  0.00000000000E+00 0.  1.
         24    2    1    2    0    0  0.24430290131E+03 -0.20033496446E+03 -0.14071400367E+03  0.35521617811E+03  0.80994424418E+02 0.  0.
        254    2    1    2    0    0 -0.24430290131E+03  0.20033496446E+03  0.36802907198E+03  0.10401963754E+04  0.92018753301E+03 0.  0.
         23    2    4    4    0    0  0.26403252171E+03 -0.14305759982E+03  0.26796037593E+03  0.41208906919E+03  0.88521118878E+02 0.  0.
         23    2    4    4    0    0 -0.50833542302E+03  0.34339256428E+03  0.10006869605E+03  0.62810730617E+03  0.90452687265E+02 0.  0.
          2    1    3    3  502    0 -0.40204836725E+01 -0.33440679915E+00  0.34331638586E+01  0.52974268233E+01  0.00000000000E+00 0. -1.
         -1    1    3    3    0  502  0.24832338498E+03 -0.20000055766E+03 -0.14414716753E+03  0.34991875129E+03  0.00000000000E+00 0.  1.
         11    1    5    5    0    0  0.82727229571E+02 -0.28722703292E+02  0.31816905928E+02  0.93172440667E+02  0.00000000000E+00 0.  1.
        -11    1    5    5    0    0  0.18130529214E+03 -0.11433489653E+03  0.23614347000E+03  0.31891662852E+03  0.00000000000E+00 0. -1.
          1    1    6    6  503    0 -0.20357795905E+03  0.14394837394E+03 -0.38319554701E+01  0.24935878499E+03  0.00000000000E+00 0. -1.
         -1    1    6    6    0  503 -0.30475746397E+03  0.19944419034E+03  0.10390065152E+03  0.37874852118E+03  0.00000000000E+00 0.  1.
<mgrwt>
<rscale>  0 0.13767731E+04</rscale>
<asrwt>0</asrwt>
<pdfrwt beam="1">  1        2 0.12482520E+00 0.13767731E+04</pdfrwt>
<pdfrwt beam="2">  1       -1 0.89853653E-01 0.13767731E+04</pdfrwt>
<totfact> 0.45629938E+01</totfact>
</mgrwt>
</event>
<event>
12    6  0.1540825E-007  0.1102293E+04  0.7818608E-02  0.9202960E-01
          2   -1    0    0  501    0  0.00000000000E+00  0.00000000000E+00  0.16768899342E+04  0.16768899342E+04  0.00000000000E+00 0. -1.
         -1   -1    0    0    0  501 -0.00000000000E+00 -0.00000000000E+00 -0.18114642976E+03  0.18114642976E+03  0.00000000000E+00 0.  1.
         24    2    1    2    0    0 -0.11648315192E+03 -0.12900207440E+03  0.22649669231E+03  0.29633693594E+03  0.79403829191E+02 0.  0.
        254    2    1    2    0    0  0.11648315192E+03  0.12900207440E+03  0.12692468122E+04  0.15616994281E+04  0.89314487825E+03 0.  0.
         23    2    4    4    0    0 -0.17917476041E+03  0.43134379739E+03  0.70489925335E+03  0.85052397759E+03  0.91361987520E+02 0.  0.
         23    2    4    4    0    0  0.29565791233E+03 -0.30234172299E+03  0.56434755882E+03  0.71117545048E+03  0.91968666639E+02 0.  0.
          2    1    3    3  502    0 -0.47510327436E+02 -0.88972523418E+02  0.17317086229E+03  0.20040331505E+03  0.00000000000E+00 0. -1.
         -1    1    3    3    0  502 -0.68972824482E+02 -0.40029550982E+02  0.53325830028E+02  0.95933620890E+02  0.00000000000E+00 0.  1.
         11    1    5    5    0    0 -0.17586191607E+03  0.39990982468E+03  0.68716860394E+03  0.81428248884E+03  0.00000000000E+00 0.  1.
        -11    1    5    5    0    0 -0.33128443379E+01  0.31433972704E+02  0.17730649412E+02  0.36241488741E+02  0.00000000000E+00 0. -1.
          3    1    6    6  503    0  0.12111532320E+03 -0.15833131603E+03  0.32907597618E+03  0.38474501329E+03  0.00000000000E+00 0. -1.
         -3    1    6    6    0  503  0.17454258912E+03 -0.14401040696E+03  0.23527158264E+03  0.32643043720E+03  0.00000000000E+00 0.  1.
<mgrwt>
<rscale>  0 0.11022933E+04</rscale>
<asrwt>0</asrwt>
<pdfrwt beam="1">  1        2 0.25798306E+00 0.11022933E+04</pdfrwt>
<pdfrwt beam="2">  1       -1 0.27868683E-01 0.11022933E+04</pdfrwt>
<totfact> 0.13261041E+02</totfact>
</mgrwt>
</event>
<event>
12    6  0.1540825E-007  0.1569226E+04  0.7818608E-02  0.8839680E-01
         -1   -1    0    0    0  501 -0.00000000000E+00  0.00000000000E+00  0.15108934844E+03  0.15108934844E+03  0.00000000000E+00 0.  1.
          2   -1    0    0  501    0  0.00000000000E+00 -0.00000000000E+00 -0.40745244347E+04  0.40745244347E+04  0.00000000000E+00 0. -1.
         24    2    1    2    0    0  0.79581083295E+02 -0.63806176026E+02 -0.26997455589E+04  0.27030115695E+04  0.85094568253E+02 0.  0.
        254    2    1    2    0    0 -0.79581083295E+02  0.63806176026E+02 -0.12236895274E+04  0.15226022136E+04  0.90027610459E+03 0.  0.
         23    2    4    4    0    0  0.20015755917E+03  0.23259969850E+03 -0.11241990631E+04  0.11689107510E+04  0.91450217175E+02 0.  0.
         23    2    4    4    0    0 -0.27973864246E+03 -0.16879352247E+03 -0.99490464299E+02  0.35369146255E+03  0.91947468055E+02 0.  0.
          4    1    3    3  502    0  0.59093135202E+02  0.85397247491E+00 -0.16628460630E+04  0.16638959575E+04  0.00000000000E+00 0. -1.
         -3    1    3    3    0  502  0.20487948093E+02 -0.64660148501E+02 -0.10368994958E+04  0.10391156121E+04  0.00000000000E+00 0.  1.
         11    1    5    5    0    0  0.83078262766E+02  0.87309849629E+02 -0.28901639767E+03  0.31313812561E+03  0.00000000000E+00 0.  1.
        -11    1    5    5    0    0  0.11707929640E+03  0.14528984887E+03 -0.83518266541E+03  0.85577262543E+03  0.00000000000E+00 0. -1.
          4    1    6    6  503    0 -0.28523278530E+03 -0.16566347096E+03 -0.89346486159E+02  0.34173808979E+03  0.00000000000E+00 0. -1.
         -4    1    6    6    0  503  0.54941428401E+01 -0.31300515113E+01 -0.10143978139E+02  0.11953372767E+02  0.00000000000E+00 0.  1.
<mgrwt>
<rscale>  0 0.15692256E+04</rscale>
<asrwt>0</asrwt>
<pdfrwt beam="1">  1        2 0.62684984E+00 0.15692256E+04</pdfrwt>
<pdfrwt beam="2">  1       -1 0.23244518E-01 0.15692256E+04</pdfrwt>
<totfact> 0.52790061E+00</totfact>
</mgrwt>
</event>
<event>
12    6  0.1540825E-007  0.2221499E+04  0.7818608E-02  0.8509533E-01
          2   -1    0    0  501    0  0.00000000000E+00  0.00000000000E+00  0.91278667149E+03  0.91278667149E+03  0.00000000000E+00 0. -1.
         -1   -1    0    0    0  501 -0.00000000000E+00 -0.00000000000E+00 -0.13516464856E+04  0.13516464856E+04  0.00000000000E+00 0.  1.
         24    2    1    2    0    0 -0.25542735479E+03  0.19905380703E+03  0.70254213959E+03  0.77798371317E+03  0.82629585436E+02 0.  0.
        254    2    1    2    0    0  0.25542735479E+03 -0.19905380703E+03 -0.11414019537E+04  0.14864494439E+04  0.89547081344E+03 0.  0.
         23    2    4    4    0    0 -0.28850211526E+03  0.14568518234E+02 -0.65200296224E+03  0.71890303805E+03  0.90928560433E+02 0.  0.
         23    2    4    4    0    0  0.54392947006E+03 -0.21362232527E+03 -0.48939899148E+03  0.76754640588E+03  0.90124059343E+02 0.  0.
          2    1    3    3  502    0 -0.22480974446E+03  0.20352379573E+03  0.63937271979E+03  0.70764315261E+03  0.00000000000E+00 0. -1.
         -1    1    3    3    0  502 -0.30617610331E+02 -0.44699886964E+01  0.63169419804E+02  0.70340560559E+02  0.00000000000E+00 0.  1.
         11    1    5    5    0    0 -0.25986457533E+03  0.16756602205E+02 -0.49522518513E+03  0.55951618852E+03  0.00000000000E+00 0. -1.
        -11    1    5    5    0    0 -0.28637539932E+02 -0.21880839715E+01 -0.15677777712E+03  0.15938684953E+03  0.00000000000E+00 0.  1.
          1    1    6    6  503    0  0.48347557477E+03 -0.21774699200E+03 -0.44792642510E+03  0.69411848141E+03  0.00000000000E+00 0. -1.
         -1    1    6    6    0  503  0.60453895284E+02  0.41246667340E+01 -0.41472566381E+02  0.73427924476E+02  0.00000000000E+00 0.  1.
<mgrwt>
<rscale>  0 0.22214994E+04</rscale>
<asrwt>0</asrwt>
<pdfrwt beam="1">  1        2 0.14042872E+00 0.22214994E+04</pdfrwt>
<pdfrwt beam="2">  1       -1 0.20794561E+00 0.22214994E+04</pdfrwt>
<totfact> 0.39714142E+00</totfact>
</mgrwt>
</event>
<event>
12    6  0.1540825E-007  0.1952530E+04  0.7818608E-02  0.8629142E-01
         -1   -1    0    0    0  501 -0.00000000000E+00  0.00000000000E+00  0.56687221017E+03  0.56687221017E+03  0.00000000000E+00 0.  1.
          2   -1    0    0  501    0  0.00000000000E+00 -0.00000000000E+00 -0.16813200056E+04  0.16813200056E+04  0.00000000000E+00 0. -1.
         24    2    1    2    0    0  0.68970931952E+02  0.75159308339E+03 -0.31450373233E+03  0.82157671115E+03  0.80165717186E+02 0.  0.
        254    2    1    2    0    0 -0.68970931952E+02 -0.75159308339E+03 -0.79994406312E+03  0.14266155046E+04  0.90866503262E+03 0.  0.
         23    2    4    4    0    0  0.16836575884E+03 -0.49014046729E+03 -0.90601512075E+03  0.10476061233E+04  0.89612968597E+02 0.  0.
         23    2    4    4    0    0 -0.23733669080E+03 -0.26145261610E+03  0.10607105763E+03  0.37900938133E+03  0.87811540313E+02 0.  0.
          4    1    3    3  502    0  0.62893971665E+02  0.38907897383E+03 -0.19571299613E+03  0.44004735700E+03  0.00000000000E+00 0. -1.
         -3    1    3    3    0  502  0.60769602873E+01  0.36251410956E+03 -0.11879073620E+03  0.38152935415E+03  0.00000000000E+00 0.  1.
         11    1    5    5    0    0  0.15311071607E+03 -0.33145471070E+03 -0.66503957151E+03  0.75867169994E+03  0.00000000000E+00 0.  1.
        -11    1    5    5    0    0  0.15255042776E+02 -0.15868575659E+03 -0.24097554924E+03  0.28893442336E+03  0.00000000000E+00 0. -1.
          4    1    6    6  503    0 -0.15951316301E+02 -0.65102564618E+02  0.92767035739E+01  0.67667168116E+02  0.00000000000E+00 0. -1.
         -4    1    6    6    0  503 -0.22138537449E+03 -0.19635005148E+03  0.96794354053E+02  0.31134221322E+03  0.00000000000E+00 0.  1.
<mgrwt>
<rscale>  0 0.19525302E+04</rscale>
<asrwt>0</asrwt>
<pdfrwt beam="1">  1        2 0.25866461E+00 0.19525302E+04</pdfrwt>
<pdfrwt beam="2">  1       -1 0.87211111E-01 0.19525302E+04</pdfrwt>
<totfact> 0.13812631E+01</totfact>
</mgrwt>
</event>
<event>
12    6  0.1540825E-007  0.2401357E+04  0.7818608E-02  0.8438996E-01
         -1   -1    0    0    0  501 -0.00000000000E+00  0.00000000000E+00  0.59490033155E+03  0.59490033155E+03  0.00000000000E+00 0.  1.
          2   -1    0    0  501    0  0.00000000000E+00 -0.00000000000E+00 -0.24233117379E+04  0.24233117379E+04  0.00000000000E+00 0. -1.
         24    2    1    2    0    0  0.63635580959E+03 -0.78626174246E+03 -0.10606741255E+04  0.14677357134E+04  0.77860643250E+02 0.  0.
        254    2    1    2    0    0 -0.63635580959E+03  0.78626174246E+03 -0.76773728080E+03  0.15504763560E+04  0.88960674135E+03 0.  0.
         23    2    4    4    0    0 -0.62512035954E+02 -0.17226244542E+03 -0.23338995482E+02  0.20477835669E+03  0.88359277478E+02 0.  0.
         23    2    4    4    0    0 -0.57384377363E+03  0.95852418788E+03 -0.74439828531E+03  0.13456979994E+04  0.93322039220E+02 0.  0.
          4    1    3    3  502    0  0.27268675196E+02 -0.14287684970E+02 -0.25559612042E+02  0.40012652455E+02  0.00000000000E+00 0. -1.
         -3    1    3    3    0  502  0.60908713439E+03 -0.77197405749E+03 -0.10351145135E+04  0.14277230610E+04  0.00000000000E+00 0.  1.
         11    1    5    5    0    0  0.10060876315E+01 -0.10919277791E+03  0.90860928210E+01  0.10957477831E+03  0.00000000000E+00 0.  1.
        -11    1    5    5    0    0 -0.63518123586E+02 -0.63069667510E+02 -0.32425088303E+02  0.95203578374E+02  0.00000000000E+00 0. -1.
          3    1    6    6  503    0 -0.54964653740E+03  0.94195469306E+03 -0.71440712856E+03  0.13037513203E+04  0.00000000000E+00 0. -1.
         -3    1    6    6    0  503 -0.24197236238E+02  0.16569494814E+02 -0.29991156757E+02  0.41946679053E+02  0.00000000000E+00 0.  1.
<mgrwt>
<rscale>  0 0.24013571E+04</rscale>
<asrwt>0</asrwt>
<pdfrwt beam="1">  1        2 0.37281719E+00 0.24013571E+04</pdfrwt>
<pdfrwt beam="2">  1       -1 0.91523128E-01 0.24013571E+04</pdfrwt>
<totfact> 0.45883088E+00</totfact>
</mgrwt>
</event>
<event>
12    6  0.1540825E-007  0.2564304E+04  0.7818608E-02  0.8380428E-01
          2   -1    0    0  501    0  0.00000000000E+00  0.00000000000E+00  0.93261358580E+03  0.93261358580E+03  0.00000000000E+00 0. -1.
         -1   -1    0    0    0  501 -0.00000000000E+00 -0.00000000000E+00 -0.17626953927E+04  0.17626953927E+04  0.00000000000E+00 0.  1.
         24    2    1    2    0    0 -0.33707925593E+03 -0.95771960879E+03 -0.76114181823E+03  0.12715732521E+04  0.81929202491E+02 0.  0.
        254    2    1    2    0    0  0.33707925593E+03  0.95771960879E+03 -0.68939988721E+02  0.14237357264E+04  0.99570147273E+03 0.  0.
         23    2    4    4    0    0 -0.98715976443E+02  0.31657899526E+03 -0.44168422928E+03  0.55902343427E+03  0.86343137687E+02 0.  0.
         23    2    4    4    0    0  0.43579523237E+03  0.64114061353E+03  0.37274424056E+03  0.86471229215E+03  0.88375949434E+02 0.  0.
          4    1    3    3  502    0 -0.16388059749E+03 -0.45628174539E+03 -0.41449573201E+03  0.63785311261E+03  0.00000000000E+00 0. -1.
         -3    1    3    3    0  502 -0.17319865844E+03 -0.50143786340E+03 -0.34664608622E+03  0.63372013951E+03  0.00000000000E+00 0.  1.
         11    1    5    5    0    0 -0.35585016352E+02  0.79553784287E+02 -0.61828509856E+02  0.10685439913E+03  0.00000000000E+00 0.  1.
        -11    1    5    5    0    0 -0.63130960091E+02  0.23702521097E+03 -0.37985571943E+03  0.45216903514E+03  0.00000000000E+00 0. -1.
          3    1    6    6  503    0  0.33936418102E+03  0.53006414659E+03  0.26769003856E+03  0.68395467950E+03  0.00000000000E+00 0. -1.
         -3    1    6    6    0  503  0.96431051348E+02  0.11107646694E+03  0.10505420200E+03  0.18075761265E+03  0.00000000000E+00 0.  1.
<mgrwt>
<rscale>  0 0.25643039E+04</rscale>
<asrwt>0</asrwt>
<pdfrwt beam="1">  1        2 0.14347901E+00 0.25643039E+04</pdfrwt>
<pdfrwt beam="2">  1       -1 0.27118390E+00 0.25643039E+04</pdfrwt>
<totfact> 0.14315424E+00</totfact>
</mgrwt>
</event>
<event>
12    6  0.1540825E-007  0.1464562E+04  0.7818608E-02  0.8908367E-01
          2   -1    0    0  501    0  0.00000000000E+00  0.00000000000E+00  0.18380676583E+04  0.18380676583E+04  0.00000000000E+00 0. -1.
         -1   -1    0    0    0  501 -0.00000000000E+00 -0.00000000000E+00 -0.29173887933E+03  0.29173887933E+03  0.00000000000E+00 0.  1.
         24    2    1    2    0    0  0.15753821737E+03  0.15494626436E+03 -0.93043287820E+02  0.25221245739E+03  0.78277937384E+02 0.  0.
        254    2    1    2    0    0 -0.15753821737E+03 -0.15494626436E+03  0.16393720668E+04  0.18775940802E+04  0.88825228511E+03 0.  0.
         23    2    4    4    0    0  0.26323840019E+03  0.21113595781E+03  0.66686125968E+03  0.75274168507E+03  0.89684205819E+02 0.  0.
         23    2    4    4    0    0 -0.42077661756E+03 -0.36608222217E+03  0.97251080711E+03  0.11248523952E+04  0.91904764237E+02 0.  0.
          2    1    3    3  502    0 -0.47010566261E+01 -0.72948500523E+00  0.50152404084E+01  0.69126491397E+01  0.00000000000E+00 0. -1.
         -1    1    3    3    0  502  0.16223927400E+03  0.15567574937E+03 -0.98058528228E+02  0.24529980825E+03  0.00000000000E+00 0.  1.
         11    1    5    5    0    0  0.13201244599E+03  0.15843773409E+03  0.36052423316E+03  0.41534025109E+03  0.00000000000E+00 0.  1.
        -11    1    5    5    0    0  0.13122595419E+03  0.52698223721E+02  0.30633702652E+03  0.33740143398E+03  0.00000000000E+00 0. -1.
          4    1    6    6  503    0 -0.12512630600E+03 -0.70153052003E+02  0.30585415008E+03  0.33782362896E+03  0.00000000000E+00 0. -1.
         -4    1    6    6    0  503 -0.29565031156E+03 -0.29592917017E+03  0.66665665703E+03  0.78702876621E+03  0.00000000000E+00 0.  1.
<mgrwt>
<rscale>  0 0.14645625E+04</rscale>
<asrwt>0</asrwt>
<pdfrwt beam="1">  1        2 0.28277963E+00 0.14645625E+04</pdfrwt>
<pdfrwt beam="2">  1       -1 0.44882906E-01 0.14645625E+04</pdfrwt>
<totfact> 0.44641870E+01</totfact>
</mgrwt>
</event>
<event>
12    6  0.1540825E-007  0.2701964E+04  0.7818608E-02  0.8334368E-01
          2   -1    0    0  501    0  0.00000000000E+00  0.00000000000E+00  0.17206397882E+04  0.17206397882E+04  0.00000000000E+00 0. -1.
         -1   -1    0    0    0  501 -0.00000000000E+00 -0.00000000000E+00 -0.10607405481E+04  0.10607405481E+04  0.00000000000E+00 0.  1.
         24    2    1    2    0    0 -0.33752439503E+03 -0.25067481583E+03 -0.86102408426E+03  0.96153429532E+03  0.80157013871E+02 0.  0.
        254    2    1    2    0    0  0.33752439503E+03  0.25067481583E+03  0.15209233243E+04  0.18198460410E+04  0.90657116319E+03 0.  0.
         23    2    4    4    0    0  0.61214645932E+02  0.12046992334E+03 -0.84183434251E+02  0.18346195536E+03  0.91165800354E+02 0.  0.
         23    2    4    4    0    0  0.27630974910E+03  0.13020489249E+03  0.16051067586E+04  0.16363840857E+04  0.89915392594E+02 0.  0.
          4    1    3    3  502    0 -0.11661653864E+03 -0.62025446955E+02 -0.34403386059E+03  0.36851848039E+03  0.00000000000E+00 0. -1.
         -3    1    3    3    0  502 -0.22090785639E+03 -0.18864936888E+03 -0.51699022367E+03  0.59301581493E+03  0.00000000000E+00 0.  1.
         11    1    5    5    0    0  0.34325724391E+02  0.11558644786E+03 -0.32309421179E+02  0.12482940751E+03  0.00000000000E+00 0. -1.
        -11    1    5    5    0    0  0.26888921540E+02  0.48834754864E+01 -0.51874013071E+02  0.58632547843E+02  0.00000000000E+00 0.  1.
          4    1    6    6  503    0  0.33082665153E+02  0.30909565086E+02  0.42409237461E+03  0.42650229325E+03  0.00000000000E+00 0.  1.
         -4    1    6    6    0  503  0.24322708395E+03  0.99295327404E+02  0.11810143840E+04  0.12098817924E+04  0.00000000000E+00 0. -1.
<mgrwt>
<rscale>  0 0.27019640E+04</rscale>
<asrwt>0</asrwt>
<pdfrwt beam="1">  1        2 0.26471381E+00 0.27019640E+04</pdfrwt>
<pdfrwt beam="2">  1       -1 0.16319085E+00 0.27019640E+04</pdfrwt>
<totfact> 0.26367132E+00</totfact>
</mgrwt>
</event>
<event>
12    6  0.1540825E-007  0.2391221E+04  0.7818608E-02  0.8442798E-01
         -1   -1    0    0    0  501 -0.00000000000E+00  0.00000000000E+00  0.14116816439E+04  0.14116816439E+04  0.00000000000E+00 0.  1.
          2   -1    0    0  501    0  0.00000000000E+00 -0.00000000000E+00 -0.10126107494E+04  0.10126107494E+04  0.00000000000E+00 0. -1.
         24    2    1    2    0    0  0.47789503903E+03 -0.47285646850E+03  0.95210016380E+03  0.11682673569E+04  0.79856039827E+02 0.  0.
        254    2    1    2    0    0 -0.47789503903E+03  0.47285646850E+03 -0.55302926930E+03  0.12560250363E+04  0.90541736844E+03 0.  0.
         23    2    4    4    0    0 -0.53776859898E+03 -0.44942484563E+01 -0.53804651996E+03  0.76618479331E+03  0.91267823108E+02 0.  0.
         23    2    4    4    0    0  0.59873559942E+02  0.47735071696E+03 -0.14982749335E+02  0.48984024303E+03  0.90941908710E+02 0.  0.
          2    1    3    3  502    0  0.17249424970E+03 -0.14480609199E+03  0.37686524078E+03  0.43903357522E+03  0.00000000000E+00 0. -1.
         -1    1    3    3    0  502  0.30540078933E+03 -0.32805037651E+03  0.57523492301E+03  0.72923378165E+03  0.00000000000E+00 0.  1.
         11    1    5    5    0    0 -0.38430685587E+02 -0.13541566361E+02 -0.73874863997E+02  0.84366978996E+02  0.00000000000E+00 0. -1.
        -11    1    5    5    0    0 -0.49933791339E+03  0.90473179052E+01 -0.46417165597E+03  0.68181781431E+03  0.00000000000E+00 0.  1.
          3    1    6    6  503    0  0.18001721638E+02  0.15990828025E+03 -0.48065924909E+02  0.16794360128E+03  0.00000000000E+00 0. -1.
         -3    1    6    6    0  503  0.41871838304E+02  0.31744243671E+03  0.33083175574E+02  0.32189664175E+03  0.00000000000E+00 0.  1.
<mgrwt>
<rscale>  0 0.23912206E+04</rscale>
<asrwt>0</asrwt>
<pdfrwt beam="1">  1        2 0.15578627E+00 0.23912206E+04</pdfrwt>
<pdfrwt beam="2">  1       -1 0.21718179E+00 0.23912206E+04</pdfrwt>
<totfact> 0.29159515E+00</totfact>
</mgrwt>
</event>
<event>
12    6  0.1540825E-007  0.2219728E+04  0.7818608E-02  0.8510261E-01
          2   -1    0    0  501    0  0.00000000000E+00  0.00000000000E+00  0.87192856184E+03  0.87192856184E+03  0.00000000000E+00 0. -1.
         -1   -1    0    0    0  501 -0.00000000000E+00 -0.00000000000E+00 -0.14127286808E+04  0.14127286808E+04  0.00000000000E+00 0.  1.
         24    2    1    2    0    0  0.75944359180E+03  0.32171584524E+03 -0.67084398374E+03  0.10665434178E+04  0.85015042044E+02 0.  0.
        254    2    1    2    0    0 -0.75944359180E+03 -0.32171584524E+03  0.13004386473E+03  0.12181138249E+04  0.88692402682E+03 0.  0.
         23    2    4    4    0    0 -0.38305407829E+02  0.38340145506E+02 -0.28731343660E+03  0.30607767240E+03  0.90538719140E+02 0.  0.
         23    2    4    4    0    0 -0.72113818397E+03 -0.36005599074E+03  0.41735730134E+03  0.91203615246E+03  0.89119187364E+02 0.  0.
          2    1    3    3  502    0  0.50256920638E+03  0.23177579394E+03 -0.40240825008E+03  0.68427204063E+03  0.00000000000E+00 0. -1.
         -1    1    3    3    0  502  0.25687438542E+03  0.89940051299E+02 -0.26843573366E+03  0.38227137719E+03  0.00000000000E+00 0.  1.
         11    1    5    5    0    0 -0.13047625067E+02 -0.25761370059E+02 -0.39921205219E+02  0.49270592988E+02  0.00000000000E+00 0. -1.
        -11    1    5    5    0    0 -0.25257782763E+02  0.64101515565E+02 -0.24739223138E+03  0.25680707941E+03  0.00000000000E+00 0.  1.
          1    1    6    6  503    0 -0.19444122798E+03 -0.87933046721E+02  0.15492260400E+03  0.26370556512E+03  0.00000000000E+00 0. -1.
         -1    1    6    6    0  503 -0.52669695599E+03 -0.27212294402E+03  0.26243469734E+03  0.64833058734E+03  0.00000000000E+00 0.  1.
<mgrwt>
<rscale>  0 0.22197284E+04</rscale>
<asrwt>0</asrwt>
<pdfrwt beam="1">  1        2 0.13414286E+00 0.22197284E+04</pdfrwt>
<pdfrwt beam="2">  1       -1 0.21734287E+00 0.22197284E+04</pdfrwt>
<totfact> 0.36578597E+00</totfact>
</mgrwt>
</event>
<event>
12    6  0.1540825E-007  0.1685104E+04  0.7818608E-02  0.8769906E-01
          2   -1    0    0  501    0  0.00000000000E+00  0.00000000000E+00  0.17910590472E+04  0.17910590472E+04  0.00000000000E+00 0. -1.
         -1   -1    0    0    0  501 -0.00000000000E+00 -0.00000000000E+00 -0.39635411690E+03  0.39635411690E+03  0.00000000000E+00 0.  1.
         24    2    1    2    0    0 -0.30250648729E+03  0.50257251795E+03  0.34397270301E+03  0.68477294766E+03  0.80668821668E+02 0.  0.
        254    2    1    2    0    0  0.30250648729E+03 -0.50257251795E+03  0.10507322273E+04  0.15026402165E+04  0.89988893535E+03 0.  0.
         23    2    4    4    0    0  0.34837333627E+03 -0.66207675677E+03  0.46159558012E+03  0.88384751249E+03  0.91686053849E+02 0.  0.
         23    2    4    4    0    0 -0.45866848988E+02  0.15950423882E+03  0.58913664721E+03  0.61879270398E+03  0.90978301694E+02 0.  0.
          4    1    3    3  502    0 -0.25499992119E+03  0.42711295514E+03  0.25575367152E+03  0.55933923227E+03  0.00000000000E+00 0. -1.
         -3    1    3    3    0  502 -0.47506566098E+02  0.75459562802E+02  0.88219031489E+02  0.12543371539E+03  0.00000000000E+00 0.  1.
         11    1    5    5    0    0  0.28684363803E+03 -0.60561032303E+03  0.40553687327E+03  0.78326450936E+03  0.00000000000E+00 0. -1.
        -11    1    5    5    0    0  0.61529698248E+02 -0.56466433735E+02  0.56058706851E+02  0.10058300313E+03  0.00000000000E+00 0.  1.
          4    1    6    6  503    0  0.10171224919E+02  0.23844421949E+02  0.22035951599E+03  0.22187908095E+03  0.00000000000E+00 0. -1.
         -4    1    6    6    0  503 -0.56038073908E+02  0.13565981687E+03  0.36877713122E+03  0.39691362304E+03  0.00000000000E+00 0.  1.
<mgrwt>
<rscale>  0 0.16851037E+04</rscale>
<asrwt>0</asrwt>
<pdfrwt beam="1">  1        2 0.27554754E+00 0.16851037E+04</pdfrwt>
<pdfrwt beam="2">  1       -1 0.60977558E-01 0.16851037E+04</pdfrwt>
<totfact> 0.25832670E+01</totfact>
</mgrwt>
</event>
<event>
12    6  0.1540825E-007  0.1814706E+04  0.7818608E-02  0.8698518E-01
          2   -1    0    0  501    0  0.00000000000E+00  0.00000000000E+00  0.37574399307E+04  0.37574399307E+04  0.00000000000E+00 0. -1.
         -1   -1    0    0    0  501 -0.00000000000E+00 -0.00000000000E+00 -0.21910903272E+03  0.21910903272E+03  0.00000000000E+00 0.  1.
         24    2    1    2    0    0 -0.93668260039E+02  0.48597153214E+03  0.23737624518E+04  0.24261188974E+04  0.79766244714E+02 0.  0.
        254    2    1    2    0    0  0.93668260039E+02 -0.48597153214E+03  0.11645684462E+04  0.15504300661E+04  0.89591944437E+03 0.  0.
         23    2    4    4    0    0  0.45239457045E+03 -0.26526026997E+03  0.89600500987E+03  0.10421271640E+04  0.90444403588E+02 0.  0.
         23    2    4    4    0    0 -0.35872631041E+03 -0.22071126217E+03  0.26856343636E+03  0.50830290201E+03  0.94061117452E+02 0.  0.
          2    1    3    3  502    0 -0.88409178083E+02  0.43318339129E+03  0.22161050991E+04  0.22597756180E+04  0.00000000000E+00 0. -1.
         -1    1    3    3    0  502 -0.52590819557E+01  0.52788140848E+02  0.15765735264E+03  0.16634327940E+03  0.00000000000E+00 0.  1.
         11    1    5    5    0    0  0.44478599879E+03 -0.24029026136E+03  0.86123684626E+03  0.99865053937E+03  0.00000000000E+00 0. -1.
        -11    1    5    5    0    0  0.76085716535E+01 -0.24970008612E+02  0.34768163612E+02  0.43476624681E+02  0.00000000000E+00 0.  1.
          3    1    6    6  503    0 -0.30926020289E+03 -0.16546172930E+03  0.25316153809E+03  0.43256239009E+03  0.00000000000E+00 0. -1.
         -3    1    6    6    0  503 -0.49466107523E+02 -0.55249532867E+02  0.15401898265E+02  0.75740511919E+02  0.00000000000E+00 0.  1.
<mgrwt>
<rscale>  0 0.18147055E+04</rscale>
<asrwt>0</asrwt>
<pdfrwt beam="1">  1        2 0.57806763E+00 0.18147055E+04</pdfrwt>
<pdfrwt beam="2">  1       -1 0.33709085E-01 0.18147055E+04</pdfrwt>
<totfact> 0.47644701E+00</totfact>
</mgrwt>
</event>
<event>
12    6  0.1540825E-007  0.2579904E+04  0.7818608E-02  0.8375060E-01
          2   -1    0    0  501    0  0.00000000000E+00  0.00000000000E+00  0.79741867186E+03  0.79741867186E+03  0.00000000000E+00 0. -1.
         -1   -1    0    0    0  501 -0.00000000000E+00 -0.00000000000E+00 -0.20867033695E+04  0.20867033695E+04  0.00000000000E+00 0.  1.
         24    2    1    2    0    0 -0.95640089674E+03 -0.24878786666E+03 -0.11820342076E+04  0.15427540452E+04  0.79291222811E+02 0.  0.
        254    2    1    2    0    0  0.95640089674E+03  0.24878786666E+03 -0.10725049005E+03  0.13413679962E+04  0.90064829750E+03 0.  0.
         23    2    4    4    0    0  0.93634485011E+03 -0.61693525141E+02 -0.26733849427E+03  0.97958652176E+03  0.87017893101E+02 0.  0.
         23    2    4    4    0    0  0.20056046630E+02  0.31048139180E+03  0.16008800422E+03  0.36178147446E+03  0.91960461658E+02 0.  0.
          2    1    3    3  502    0 -0.67344512807E+02 -0.29762109010E+02 -0.63406356653E+02  0.97167034544E+02  0.00000000000E+00 0. -1.
         -1    1    3    3    0  502 -0.88905638393E+03 -0.21902575765E+03 -0.11186278510E+04  0.14455870106E+04  0.00000000000E+00 0.  1.
         11    1    5    5    0    0  0.31312311377E+03 -0.53496599207E+02 -0.64561034345E+02  0.32415443490E+03  0.00000000000E+00 0.  1.
        -11    1    5    5    0    0  0.62322173634E+03 -0.81969259340E+01 -0.20277745992E+03  0.65543208686E+03  0.00000000000E+00 0. -1.
          2    1    6    6  503    0 -0.15929008212E+02  0.11729921446E+03  0.10362710973E+03  0.15732583032E+03  0.00000000000E+00 0. -1.
         -2    1    6    6    0  503  0.35985054841E+02  0.19318217734E+03  0.56460894490E+02  0.20445564414E+03  0.00000000000E+00 0.  1.
<mgrwt>
<rscale>  0 0.25799041E+04</rscale>
<asrwt>0</asrwt>
<pdfrwt beam="1">  1        2 0.12267980E+00 0.25799041E+04</pdfrwt>
<pdfrwt beam="2">  1       -1 0.32103129E+00 0.25799041E+04</pdfrwt>
<totfact> 0.84251496E-01</totfact>
</mgrwt>
</event>
<event>
12    6  0.1540825E-007  0.1348113E+04  0.7818608E-02  0.8992257E-01
         -1   -1    0    0    0  501 -0.00000000000E+00  0.00000000000E+00  0.14895219828E+03  0.14895219828E+03  0.00000000000E+00 0.  1.
          2   -1    0    0  501    0  0.00000000000E+00 -0.00000000000E+00 -0.30503238351E+04  0.30503238351E+04  0.00000000000E+00 0. -1.
         24    2    1    2    0    0  0.21320540278E+03 -0.16071720658E+03 -0.14558620131E+04  0.14822888282E+04  0.79745877331E+02 0.  0.
        254    2    1    2    0    0 -0.21320540278E+03  0.16071720658E+03 -0.14455096238E+04  0.17169872052E+04  0.88727697254E+03 0.  0.
         23    2    4    4    0    0 -0.43763082208E+03  0.31429069590E+03 -0.12660531814E+04  0.13789213636E+04  0.90741891663E+02 0.  0.
         23    2    4    4    0    0  0.22442541930E+03 -0.15357348931E+03 -0.17945644235E+03  0.33806584154E+03  0.90179338355E+02 0.  0.
          4    1    3    3  502    0  0.41337614296E+02 -0.66400502559E+02 -0.54367752398E+03  0.54927504510E+03  0.00000000000E+00 0. -1.
         -3    1    3    3    0  502  0.17186778848E+03 -0.94316704022E+02 -0.91218448908E+03  0.93301378312E+03  0.00000000000E+00 0.  1.
         11    1    5    5    0    0 -0.31772497725E+03  0.24201094338E+03 -0.10263856220E+04  0.11013563923E+04  0.00000000000E+00 0. -1.
        -11    1    5    5    0    0 -0.11990584483E+03  0.72279752514E+02 -0.23966755945E+03  0.27756497131E+03  0.00000000000E+00 0.  1.
          1    1    6    6  503    0  0.17800377422E+03 -0.12440091710E+03 -0.94232563657E+02  0.23672918676E+03  0.00000000000E+00 0. -1.
         -1    1    6    6    0  503  0.46421645086E+02 -0.29172572210E+02 -0.85223878698E+02  0.10133665478E+03  0.00000000000E+00 0.  1.
<mgrwt>
<rscale>  0 0.13481134E+04</rscale>
<asrwt>0</asrwt>
<pdfrwt beam="1">  1        2 0.46928049E+00 0.13481134E+04</pdfrwt>
<pdfrwt beam="2">  1       -1 0.22915728E-01 0.13481134E+04</pdfrwt>
<totfact> 0.29594404E+01</totfact>
</mgrwt>
</event>
<event>
12    6  0.1540825E-007  0.1300273E+04  0.7818608E-02  0.9029349E-01
         -1   -1    0    0    0  501 -0.00000000000E+00  0.00000000000E+00  0.49293112143E+03  0.49293112143E+03  0.00000000000E+00 0.  1.
          2   -1    0    0  501    0  0.00000000000E+00 -0.00000000000E+00 -0.85747775840E+03  0.85747775840E+03  0.00000000000E+00 0. -1.
         24    2    1    2    0    0 -0.34974437613E+02  0.19278054383E+03 -0.35590282666E+03  0.41439071269E+03  0.81641235733E+02 0.  0.
        254    2    1    2    0    0  0.34974437613E+02 -0.19278054383E+03 -0.86438103115E+01  0.93601816714E+03  0.91524190485E+03 0.  0.
         23    2    4    4    0    0  0.19990151731E+03  0.23120959231E+03  0.24769160424E+03  0.40597228119E+03  0.10021911038E+03 0.  0.
         23    2    4    4    0    0 -0.16492707969E+03 -0.42399013614E+03 -0.25633541455E+03  0.53004588595E+03  0.90951741609E+02 0.  0.
          4    1    3    3  502    0 -0.32471552268E+02  0.19820853673E+03 -0.35560433804E+03  0.40840601241E+03  0.00000000000E+00 0. -1.
         -3    1    3    3    0  502 -0.25028853446E+01 -0.54279928992E+01 -0.29848861852E+00  0.59847002780E+01  0.00000000000E+00 0.  1.
         11    1    5    5    0    0  0.17804483538E+02  0.49735867608E+02  0.60863761231E+01  0.53176123732E+02  0.00000000000E+00 0. -1.
        -11    1    5    5    0    0  0.18209703377E+03  0.18147372470E+03  0.24160522811E+03  0.35279615746E+03  0.00000000000E+00 0.  1.
          1    1    6    6  503    0 -0.73893713784E+02 -0.95302124128E+02 -0.90679992159E+02  0.15088285780E+03  0.00000000000E+00 0. -1.
         -1    1    6    6    0  503 -0.91033365909E+02 -0.32868801201E+03 -0.16565542239E+03  0.37916302815E+03  0.00000000000E+00 0.  1.
<mgrwt>
<rscale>  0 0.13002730E+04</rscale>
<asrwt>0</asrwt>
<pdfrwt beam="1">  1        2 0.13191966E+00 0.13002730E+04</pdfrwt>
<pdfrwt beam="2">  1       -1 0.75835557E-01 0.13002730E+04</pdfrwt>
<totfact> 0.61307221E+01</totfact>
</mgrwt>
</event>
<event>
12    6  0.1540825E-007  0.2273581E+04  0.7818608E-02  0.8488411E-01
         -1   -1    0    0    0  501 -0.00000000000E+00  0.00000000000E+00  0.44937095708E+03  0.44937095708E+03  0.00000000000E+00 0.  1.
          2   -1    0    0  501    0  0.00000000000E+00 -0.00000000000E+00 -0.28757801799E+04  0.28757801799E+04  0.00000000000E+00 0. -1.
         24    2    1    2    0    0  0.84846369150E+03 -0.38230849922E+03 -0.70993506065E+03  0.11734171504E+04  0.82762275145E+02 0.  0.
        254    2    1    2    0    0 -0.84846369150E+03  0.38230849922E+03 -0.17164741622E+04  0.21517339866E+04  0.90422628539E+03 0.  0.
         23    2    4    4    0    0 -0.82327304653E+03  0.44073098592E+03 -0.81343780929E+03  0.12419178720E+04  0.93040959611E+02 0.  0.
         23    2    4    4    0    0 -0.25190644973E+02 -0.58422486699E+02 -0.90303635291E+03  0.90981611458E+03  0.90790705055E+02 0.  0.
          4    1    3    3  502    0  0.86178103734E+02 -0.31779409340E+02 -0.10225982054E+03  0.13745423718E+03  0.00000000000E+00 0. -1.
         -3    1    3    3    0  502  0.76228558777E+03 -0.35052908988E+03 -0.60767524011E+03  0.10359629132E+04  0.00000000000E+00 0.  1.
         11    1    5    5    0    0 -0.17040000679E+03  0.86257087804E+02 -0.21813823772E+03  0.28993229945E+03  0.00000000000E+00 0. -1.
        -11    1    5    5    0    0 -0.65287303973E+03  0.35447389812E+03 -0.59529957158E+03  0.95198557257E+03  0.00000000000E+00 0.  1.
          3    1    6    6  503    0 -0.44606176237E+02 -0.22966006786E+02 -0.22277221564E+03  0.22835193997E+03  0.00000000000E+00 0. -1.
         -3    1    6    6    0  503  0.19415531263E+02 -0.35456479912E+02 -0.68026413727E+03  0.68146417461E+03  0.00000000000E+00 0.  1.
<mgrwt>
<rscale>  0 0.22735805E+04</rscale>
<asrwt>0</asrwt>
<pdfrwt beam="1">  1        2 0.44242773E+00 0.22735805E+04</pdfrwt>
<pdfrwt beam="2">  1       -1 0.69133992E-01 0.22735805E+04</pdfrwt>
<totfact> 0.45519035E+00</totfact>
</mgrwt>
</event>
<event>
12    6  0.1540825E-007  0.2190860E+04  0.7818608E-02  0.8522242E-01
         -1   -1    0    0    0  501 -0.00000000000E+00  0.00000000000E+00  0.14320775560E+04  0.14320775560E+04  0.00000000000E+00 0.  1.
          2   -1    0    0  501    0  0.00000000000E+00 -0.00000000000E+00 -0.83792031857E+03  0.83792031857E+03  0.00000000000E+00 0. -1.
         24    2    1    2    0    0  0.29798539002E+03 -0.70252284069E+03  0.76528979112E+03  0.10834780730E+04  0.76958664442E+02 0.  0.
        254    2    1    2    0    0 -0.29798539002E+03  0.70252284069E+03 -0.17113255372E+03  0.11865198015E+04  0.89230558334E+03 0.  0.
         23    2    4    4    0    0 -0.14885611034E+03  0.60211218820E+03 -0.49944474188E+03  0.80146763816E+03  0.90598543398E+02 0.  0.
         23    2    4    4    0    0 -0.14912927968E+03  0.10041065249E+03  0.32831218817E+03  0.38505216334E+03  0.90301906953E+02 0.  0.
          2    1    3    3  502    0  0.62143371229E+02 -0.18659140182E+03  0.15635315906E+03  0.25124581622E+03  0.00000000000E+00 0. -1.
         -1    1    3    3    0  502  0.23584201880E+03 -0.51593143886E+03  0.60893663206E+03  0.83223225682E+03  0.00000000000E+00 0.  1.
         11    1    5    5    0    0 -0.34536600370E+02  0.10621352994E+03 -0.13663999217E+03  0.17647826543E+03  0.00000000000E+00 0. -1.
        -11    1    5    5    0    0 -0.11431950997E+03  0.49589865825E+03 -0.36280474971E+03  0.62498937273E+03  0.00000000000E+00 0.  1.
          3    1    6    6  503    0 -0.81281477405E+02  0.13502743936E+02  0.87437627720E+02  0.12014300398E+03  0.00000000000E+00 0. -1.
         -3    1    6    6    0  503 -0.67847802278E+02  0.86907908555E+02  0.24087456045E+03  0.26490915936E+03  0.00000000000E+00 0.  1.
<mgrwt>
<rscale>  0 0.21908600E+04</rscale>
<asrwt>0</asrwt>
<pdfrwt beam="1">  1        2 0.12891082E+00 0.21908600E+04</pdfrwt>
<pdfrwt beam="2">  1       -1 0.22031962E+00 0.21908600E+04</pdfrwt>
<totfact> 0.36983499E+00</totfact>
</mgrwt>
</event>
<event>
12    6  0.1540825E-007  0.2092234E+04  0.7818608E-02  0.8564672E-01
         -1   -1    0    0    0  501 -0.00000000000E+00  0.00000000000E+00  0.56746025522E+03  0.56746025522E+03  0.00000000000E+00 0.  1.
          2   -1    0    0  501    0  0.00000000000E+00 -0.00000000000E+00 -0.19285248180E+04  0.19285248180E+04  0.00000000000E+00 0. -1.
         24    2    1    2    0    0  0.79837083527E+03 -0.21064968168E+03 -0.84504589736E+03  0.11842048371E+04  0.80431638638E+02 0.  0.
        254    2    1    2    0    0 -0.79837083527E+03  0.21064968168E+03 -0.51601866537E+03  0.13117802361E+04  0.87904655497E+03 0.  0.
         23    2    4    4    0    0 -0.56097002712E+03  0.36187140447E+03 -0.69286778780E+03  0.96645360748E+03  0.91260721801E+02 0.  0.
         23    2    4    4    0    0 -0.23740080815E+03 -0.15122172278E+03  0.17684912242E+03  0.34532662862E+03  0.93529221008E+02 0.  0.
          2    1    3    3  502    0  0.52077797561E+03 -0.14503934972E+03 -0.49839649786E+03  0.73528578248E+03  0.00000000000E+00 0. -1.
         -1    1    3    3    0  502  0.27759285966E+03 -0.65610331959E+02 -0.34664939951E+03  0.44891905459E+03  0.00000000000E+00 0.  1.
         11    1    5    5    0    0 -0.29609478603E+03  0.21970157875E+03 -0.43637784317E+03  0.57128497970E+03  0.00000000000E+00 0. -1.
        -11    1    5    5    0    0 -0.26487524109E+03  0.14216982572E+03 -0.25648994463E+03  0.39516862778E+03  0.00000000000E+00 0.  1.
          1    1    6    6  503    0 -0.88440744520E+02 -0.74924863237E+02  0.23368428212E+02  0.11824374765E+03  0.00000000000E+00 0. -1.
         -1    1    6    6    0  503 -0.14896006363E+03 -0.76296859546E+02  0.15348069421E+03  0.22708288097E+03  0.00000000000E+00 0.  1.
<mgrwt>
<rscale>  0 0.20922344E+04</rscale>
<asrwt>0</asrwt>
<pdfrwt beam="1">  1        2 0.29669613E+00 0.20922344E+04</pdfrwt>
<pdfrwt beam="2">  1       -1 0.87301577E-01 0.20922344E+04</pdfrwt>
<totfact> 0.99271944E+00</totfact>
</mgrwt>
</event>
<event>
12    6  0.1540825E-007  0.2545829E+04  0.7818608E-02  0.8386838E-01
          2   -1    0    0  501    0  0.00000000000E+00  0.00000000000E+00  0.10072230152E+04  0.10072230152E+04  0.00000000000E+00 0. -1.
         -1   -1    0    0    0  501 -0.00000000000E+00 -0.00000000000E+00 -0.16086918482E+04  0.16086918482E+04  0.00000000000E+00 0.  1.
         24    2    1    2    0    0 -0.55904740906E+02  0.10401940454E+04  0.12916899944E+03  0.10526579629E+04  0.79215935072E+02 0.  0.
        254    2    1    2    0    0  0.55904740906E+02 -0.10401940454E+04 -0.73063783236E+03  0.15632569005E+04  0.90819133600E+03 0.  0.
         23    2    4    4    0    0  0.22505234315E+03 -0.23353179001E+03 -0.64735871665E+03  0.72966000103E+03  0.90248296223E+02 0.  0.
         23    2    4    4    0    0 -0.16914760225E+03 -0.80666225536E+03 -0.83279115708E+02  0.83359689947E+03  0.92916490027E+02 0.  0.
          2    1    3    3  502    0 -0.23873110363E+02  0.54477644929E+03  0.10708890002E+03  0.55571515870E+03  0.00000000000E+00 0. -1.
         -1    1    3    3    0  502 -0.32031630543E+02  0.49541759608E+03  0.22080099416E+02  0.49694280421E+03  0.00000000000E+00 0.  1.
         11    1    5    5    0    0  0.82888955385E+02 -0.13400343142E+03 -0.37440138673E+03  0.40620671701E+03  0.00000000000E+00 0.  1.
        -11    1    5    5    0    0  0.14216338777E+03 -0.99528358589E+02 -0.27295732992E+03  0.32345328402E+03  0.00000000000E+00 0. -1.
          4    1    6    6  503    0 -0.17816665412E+03 -0.75809687509E+03 -0.89216798454E+02  0.78384556246E+03  0.00000000000E+00 0. -1.
         -4    1    6    6    0  503  0.90190518759E+01 -0.48565380276E+02  0.59376827459E+01  0.49751337012E+02  0.00000000000E+00 0.  1.
<mgrwt>
<rscale>  0 0.25458291E+04</rscale>
<asrwt>0</asrwt>
<pdfrwt beam="1">  1        2 0.15495739E+00 0.25458291E+04</pdfrwt>
<pdfrwt beam="2">  1       -1 0.24749105E+00 0.25458291E+04</pdfrwt>
<totfact> 0.18276556E+00</totfact>
</mgrwt>
</event>
<event>
12    6  0.1540825E-007  0.2027117E+04  0.7818608E-02  0.8594047E-01
          2   -1    0    0  501    0  0.00000000000E+00  0.00000000000E+00  0.16212776304E+04  0.16212776304E+04  0.00000000000E+00 0. -1.
         -1   -1    0    0    0  501 -0.00000000000E+00 -0.00000000000E+00 -0.63363644759E+03  0.63363644759E+03  0.00000000000E+00 0.  1.
         24    2    1    2    0    0 -0.21013163487E+03  0.30281251468E+03 -0.42400971769E+03  0.56794335730E+03  0.83214742547E+02 0.  0.
        254    2    1    2    0    0  0.21013163487E+03 -0.30281251468E+03  0.14116509005E+04  0.16869707207E+04  0.84691276090E+03 0.  0.
         23    2    4    4    0    0  0.61502453667E+02 -0.57578423834E+03  0.10549661709E+04  0.12068390507E+04  0.90536356051E+02 0.  0.
         23    2    4    4    0    0  0.14862918121E+03  0.27297172366E+03  0.35668472967E+03  0.48013167000E+03  0.81842707236E+02 0.  0.
          2    1    3    3  502    0 -0.18379294135E+02  0.13003283386E+01 -0.36173829365E+02  0.40596000266E+02  0.00000000000E+00 0. -1.
         -1    1    3    3    0  502 -0.19175234074E+03  0.30151218634E+03 -0.38783588833E+03  0.52734735703E+03  0.00000000000E+00 0.  1.
         11    1    5    5    0    0  0.78950641334E+01 -0.10055069693E+03  0.26295998835E+03  0.28163936189E+03  0.00000000000E+00 0. -1.
        -11    1    5    5    0    0  0.53607389533E+02 -0.47523354141E+03  0.79200618252E+03  0.92519968885E+03  0.00000000000E+00 0.  1.
          1    1    6    6  503    0  0.64780353931E+02  0.59685873701E+02  0.66527175063E+02  0.11038461304E+03  0.00000000000E+00 0. -1.
         -1    1    6    6    0  503  0.83848827275E+02  0.21328584996E+03  0.29015755461E+03  0.36974705695E+03  0.00000000000E+00 0.  1.
<mgrwt>
<rscale>  0 0.20271168E+04</rscale>
<asrwt>0</asrwt>
<pdfrwt beam="1">  1        2 0.24942733E+00 0.20271168E+04</pdfrwt>
<pdfrwt beam="2">  1       -1 0.97482531E-01 0.20271168E+04</pdfrwt>
<totfact> 0.11573617E+01</totfact>
</mgrwt>
</event>
<event>
12    6  0.1540825E-007  0.1194229E+04  0.7818608E-02  0.9117923E-01
          2   -1    0    0  501    0  0.00000000000E+00  0.00000000000E+00  0.20210048863E+03  0.20210048863E+03  0.00000000000E+00 0. -1.
         -1   -1    0    0    0  501 -0.00000000000E+00 -0.00000000000E+00 -0.17641998015E+04  0.17641998015E+04  0.00000000000E+00 0.  1.
         24    2    1    2    0    0  0.22105255353E+03  0.84791700223E+02 -0.21678522621E+03  0.33197764973E+03  0.84613602728E+02 0.  0.
        254    2    1    2    0    0 -0.22105255353E+03 -0.84791700223E+02 -0.13453140866E+04  0.16343226404E+04  0.89726620205E+03 0.  0.
         23    2    4    4    0    0 -0.23759534815E+03  0.35995239023E+03 -0.88018238265E+03  0.98415734969E+03  0.88472535369E+02 0.  0.
         23    2    4    4    0    0  0.16542794618E+02 -0.44474409046E+03 -0.46513170399E+03  0.65016529071E+03  0.91084757971E+02 0.  0.
          2    1    3    3  502    0  0.17901937065E+03  0.70932529059E+02 -0.21363057746E+03  0.28760629752E+03  0.00000000000E+00 0. -1.
         -1    1    3    3    0  502  0.42033182877E+02  0.13859171164E+02 -0.31546487549E+01  0.44371352210E+02  0.00000000000E+00 0.  1.
         11    1    5    5    0    0 -0.15464818702E+03  0.27559916810E+03 -0.56301304730E+03  0.64564282280E+03  0.00000000000E+00 0.  1.
        -11    1    5    5    0    0 -0.82947161130E+02  0.84353222130E+02 -0.31716933536E+03  0.33851452689E+03  0.00000000000E+00 0. -1.
          4    1    6    6  503    0 -0.20400373110E+02 -0.22456618612E+02 -0.29024442536E+02  0.41986821825E+02  0.00000000000E+00 0. -1.
         -4    1    6    6    0  503  0.36943167728E+02 -0.42228747184E+03 -0.43610726145E+03  0.60817846888E+03  0.00000000000E+00 0.  1.
<mgrwt>
<rscale>  0 0.11942289E+04</rscale>
<asrwt>0</asrwt>
<pdfrwt beam="1">  1        2 0.31092382E-01 0.11942289E+04</pdfrwt>
<pdfrwt beam="2">  1       -1 0.27141536E+00 0.11942289E+04</pdfrwt>
<totfact> 0.98383929E+00</totfact>
</mgrwt>
</event>
<event>
12    6  0.1540825E-007  0.1762359E+04  0.7818608E-02  0.8726577E-01
         -1   -1    0    0    0  501 -0.00000000000E+00  0.00000000000E+00  0.32129799434E+03  0.32129799434E+03  0.00000000000E+00 0.  1.
          2   -1    0    0  501    0  0.00000000000E+00 -0.00000000000E+00 -0.24166891781E+04  0.24166891781E+04  0.00000000000E+00 0. -1.
         24    2    1    2    0    0  0.27838437776E+03 -0.55815412693E+03 -0.10071170851E+04  0.11873165464E+04  0.80011668311E+02 0.  0.
        254    2    1    2    0    0 -0.27838437776E+03  0.55815412693E+03 -0.10882740986E+04  0.15506706260E+04  0.91170443973E+03 0.  0.
         23    2    4    4    0    0 -0.57712351661E+03  0.38028955318E+03 -0.91827093419E+03  0.11530130197E+04  0.92335352575E+02 0.  0.
         23    2    4    4    0    0  0.29873913885E+03  0.17786457375E+03 -0.17000316445E+03  0.39765760632E+03  0.91376234654E+02 0.  0.
          4    1    3    3  502    0  0.70194241658E+02 -0.16418452568E+03 -0.22585538826E+03  0.28791395666E+03  0.00000000000E+00 0. -1.
         -3    1    3    3    0  502  0.20819013610E+03 -0.39396960125E+03 -0.78126169682E+03  0.89940258972E+03  0.00000000000E+00 0.  1.
         11    1    5    5    0    0 -0.42669020811E+03  0.26436237872E+03 -0.72718379335E+03  0.88359960971E+03  0.00000000000E+00 0.  1.
        -11    1    5    5    0    0 -0.15043330850E+03  0.11592717446E+03 -0.19108714085E+03  0.26941340999E+03  0.00000000000E+00 0. -1.
          4    1    6    6  503    0  0.27665779169E+02  0.14990440049E+02  0.10935703231E+02  0.33312133451E+02  0.00000000000E+00 0. -1.
         -4    1    6    6    0  503  0.27107335968E+03  0.16287413370E+03 -0.18093886768E+03  0.36434547287E+03  0.00000000000E+00 0.  1.
<mgrwt>
<rscale>  0 0.17623591E+04</rscale>
<asrwt>0</asrwt>
<pdfrwt beam="1">  1        2 0.37179832E+00 0.17623591E+04</pdfrwt>
<pdfrwt beam="2">  1       -1 0.49430462E-01 0.17623591E+04</pdfrwt>
<totfact> 0.17218537E+01</totfact>
</mgrwt>
</event>
<event>
12    6  0.1540825E-007  0.2258551E+04  0.7818608E-02  0.8494446E-01
         -1   -1    0    0    0  501 -0.00000000000E+00  0.00000000000E+00  0.55104769041E+03  0.55104769041E+03  0.00000000000E+00 0.  1.
          2   -1    0    0  501    0  0.00000000000E+00 -0.00000000000E+00 -0.23142511586E+04  0.23142511586E+04  0.00000000000E+00 0. -1.
         24    2    1    2    0    0 -0.42881528851E+03  0.83712705705E+03 -0.89481842595E+03  0.13005866462E+04  0.78494251107E+02 0.  0.
        254    2    1    2    0    0  0.42881528851E+03 -0.83712705705E+03 -0.86838504220E+03  0.15647122028E+04  0.89975965389E+03 0.  0.
         23    2    4    4    0    0 -0.22029187615E+02  0.10533085603E+02 -0.53441692686E+03  0.54417816556E+03  0.99660389121E+02 0.  0.
         23    2    4    4    0    0  0.45084447612E+03 -0.84766014266E+03 -0.33396811534E+03  0.10205340372E+04  0.90369021283E+02 0.  0.
          4    1    3    3  502    0 -0.71925357628E+01  0.99421955760E+00 -0.49659437427E+01  0.87966834934E+01  0.00000000000E+00 0. -1.
         -3    1    3    3    0  502 -0.42162275274E+03  0.83613283750E+03 -0.88985248221E+03  0.12917899627E+04  0.00000000000E+00 0.  1.
         11    1    5    5    0    0 -0.29178685376E+02 -0.35624319477E+02 -0.14932596920E+03  0.15626494456E+03  0.00000000000E+00 0.  1.
        -11    1    5    5    0    0  0.71494977604E+01  0.46157405080E+02 -0.38509095765E+03  0.38791322100E+03  0.00000000000E+00 0. -1.
          2    1    6    6  503    0 -0.28837940312E+01 -0.10006692243E+02  0.15559985298E+01  0.10529543631E+02  0.00000000000E+00 0. -1.
         -2    1    6    6    0  503  0.45372827015E+03 -0.83765345041E+03 -0.33552411387E+03  0.10100044936E+04  0.00000000000E+00 0.  1.
<mgrwt>
<rscale>  0 0.22585506E+04</rscale>
<asrwt>0</asrwt>
<pdfrwt beam="1">  1        2 0.35603864E+00 0.22585506E+04</pdfrwt>
<pdfrwt beam="2">  1       -1 0.84776568E-01 0.22585506E+04</pdfrwt>
<totfact> 0.63419083E+00</totfact>
</mgrwt>
</event>
<event>
12    6  0.1540825E-007  0.2998191E+04  0.7818608E-02  0.8244248E-01
         -1   -1    0    0    0  501 -0.00000000000E+00  0.00000000000E+00  0.21628493617E+04  0.21628493617E+04  0.00000000000E+00 0.  1.
          2   -1    0    0  501    0  0.00000000000E+00 -0.00000000000E+00 -0.10390398530E+04  0.10390398530E+04  0.00000000000E+00 0. -1.
         24    2    1    2    0    0  0.10061059576E+04  0.59948239689E+03  0.12498951427E+04  0.17147984893E+04  0.81655673818E+02 0.  0.
        254    2    1    2    0    0 -0.10061059576E+04 -0.59948239689E+03 -0.12608563394E+03  0.14870907253E+04  0.90769647799E+03 0.  0.
         23    2    4    4    0    0 -0.69320545087E+03  0.55620959916E+01  0.19864765668E+03  0.72691651196E+03  0.91553207657E+02 0.  0.
         23    2    4    4    0    0 -0.31290050677E+03 -0.60504449288E+03 -0.32473329061E+03  0.76017421338E+03  0.91801738314E+02 0.  0.
          4    1    3    3  502    0  0.32679473833E+03  0.18983863477E+03  0.34894583121E+03  0.51438963964E+03  0.00000000000E+00 0. -1.
         -3    1    3    3    0  502  0.67931121932E+03  0.40964376212E+03  0.90094931151E+03  0.12004088497E+04  0.00000000000E+00 0.  1.
         11    1    5    5    0    0 -0.64623173813E+03 -0.18250907950E+02  0.18679123342E+03  0.67293351818E+03  0.00000000000E+00 0.  1.
        -11    1    5    5    0    0 -0.46973712748E+02  0.23813003941E+02  0.11856423253E+02  0.53982993788E+02  0.00000000000E+00 0. -1.
          1    1    6    6  503    0 -0.40806936795E+02 -0.93368354833E+02 -0.14759981133E+02  0.10295976310E+03  0.00000000000E+00 0. -1.
         -1    1    6    6    0  503 -0.27209356998E+03 -0.51167613805E+03 -0.30997330948E+03  0.65721445028E+03  0.00000000000E+00 0.  1.
<mgrwt>
<rscale>  0 0.29981906E+04</rscale>
<asrwt>0</asrwt>
<pdfrwt beam="1">  1        2 0.15985229E+00 0.29981906E+04</pdfrwt>
<pdfrwt beam="2">  1       -1 0.33274605E+00 0.29981906E+04</pdfrwt>
<totfact> 0.46854442E-01</totfact>
</mgrwt>
</event>
<event>
12    6  0.1540825E-007  0.1440716E+04  0.7818608E-02  0.8924862E-01
         -1   -1    0    0    0  501 -0.00000000000E+00  0.00000000000E+00  0.53174224437E+03  0.53174224437E+03  0.00000000000E+00 0.  1.
          2   -1    0    0  501    0  0.00000000000E+00 -0.00000000000E+00 -0.97587799476E+03  0.97587799476E+03  0.00000000000E+00 0. -1.
         24    2    1    2    0    0  0.90231427175E+02  0.47789246459E+02  0.30776188587E+03  0.33403187843E+03  0.80214679981E+02 0.  0.
        254    2    1    2    0    0 -0.90231427175E+02 -0.47789246459E+02 -0.75189763626E+03  0.11735883607E+04  0.89528434726E+03 0.  0.
         23    2    4    4    0    0 -0.38284570496E+03 -0.18935661155E+03 -0.11287063821E+03  0.45088339183E+03  0.90162586003E+02 0.  0.
         23    2    4    4    0    0  0.29261427779E+03  0.14156736509E+03 -0.63902699804E+03  0.72270496887E+03  0.91008424738E+02 0.  0.
          4    1    3    3  502    0 -0.91734891164E+01  0.25853388225E+02  0.52843222389E+02  0.59539539281E+02  0.00000000000E+00 0. -1.
         -3    1    3    3    0  502  0.99404916292E+02  0.21935858233E+02  0.25491866348E+03  0.27449233915E+03  0.00000000000E+00 0.  1.
         11    1    5    5    0    0 -0.33771228832E+03 -0.17548128898E+03 -0.69715678554E+02  0.38691542785E+03  0.00000000000E+00 0. -1.
        -11    1    5    5    0    0 -0.45133416638E+02 -0.13875322571E+02 -0.43154959658E+02  0.63967963989E+02  0.00000000000E+00 0.  1.
          4    1    6    6  503    0  0.11840603884E+02  0.14790741705E+02 -0.10065222262E+03  0.10241989972E+03  0.00000000000E+00 0. -1.
         -4    1    6    6    0  503  0.28077367390E+03  0.12677662339E+03 -0.53837477543E+03  0.62028506915E+03  0.00000000000E+00 0.  1.
<mgrwt>
<rscale>  0 0.14407159E+04</rscale>
<asrwt>0</asrwt>
<pdfrwt beam="1">  1        2 0.15013508E+00 0.14407159E+04</pdfrwt>
<pdfrwt beam="2">  1       -1 0.81806498E-01 0.14407159E+04</pdfrwt>
<totfact> 0.43005485E+01</totfact>
</mgrwt>
</event>
<event>
12    6  0.1540825E-007  0.1404005E+04  0.7818608E-02  0.8950925E-01
          2   -1    0    0  501    0  0.00000000000E+00  0.00000000000E+00  0.84461061739E+03  0.84461061739E+03  0.00000000000E+00 0. -1.
         -1   -1    0    0    0  501 -0.00000000000E+00 -0.00000000000E+00 -0.58347269725E+03  0.58347269725E+03  0.00000000000E+00 0.  1.
         24    2    1    2    0    0  0.55887333993E+02  0.35635092821E+03  0.23944002027E+03  0.44013958843E+03  0.79258790409E+02 0.  0.
        254    2    1    2    0    0 -0.55887333993E+02 -0.35635092821E+03  0.21697899872E+02  0.98794372622E+03  0.91948498040E+03 0.  0.
         23    2    4    4    0    0 -0.48526707780E+02 -0.62413977268E+03 -0.15692598853E+03  0.65170983397E+03  0.90524276360E+02 0.  0.
         23    2    4    4    0    0 -0.73606262122E+01  0.26778884448E+03  0.17862388840E+03  0.33623389224E+03  0.96859138651E+02 0.  0.
          4    1    3    3  502    0 -0.86047076268E+01  0.15349912238E+03  0.12698880506E+03  0.19940455906E+03  0.00000000000E+00 0. -1.
         -3    1    3    3    0  502  0.64492041620E+02  0.20285180583E+03  0.11245121521E+03  0.24073502936E+03  0.00000000000E+00 0.  1.
         11    1    5    5    0    0 -0.40030917577E+02 -0.29622566055E+03 -0.31696365289E+02  0.30059403837E+03  0.00000000000E+00 0. -1.
        -11    1    5    5    0    0 -0.84957902035E+01 -0.32791411213E+03 -0.12522962324E+03  0.35111579560E+03  0.00000000000E+00 0.  1.
          1    1    6    6  503    0  0.33510696184E+02  0.14485634135E+03  0.59187303180E+02  0.16002956991E+03  0.00000000000E+00 0. -1.
         -1    1    6    6    0  503 -0.40871322397E+02  0.12293250313E+03  0.11943658522E+03  0.17620432233E+03  0.00000000000E+00 0.  1.
<mgrwt>
<rscale>  0 0.14040046E+04</rscale>
<asrwt>0</asrwt>
<pdfrwt beam="1">  1        2 0.12994009E+00 0.14040046E+04</pdfrwt>
<pdfrwt beam="2">  1       -1 0.89765030E-01 0.14040046E+04</pdfrwt>
<totfact> 0.43220863E+01</totfact>
</mgrwt>
</event>
<event>
12    6  0.1540825E-007  0.2463471E+04  0.7818608E-02  0.8416116E-01
         -1   -1    0    0    0  501 -0.00000000000E+00  0.00000000000E+00  0.22697634915E+04  0.22697634915E+04  0.00000000000E+00 0.  1.
          2   -1    0    0  501    0  0.00000000000E+00 -0.00000000000E+00 -0.66842772309E+03  0.66842772309E+03  0.00000000000E+00 0. -1.
         24    2    1    2    0    0 -0.89358775188E+03 -0.17884466406E+03  0.13531375740E+04  0.16332688515E+04  0.78111221984E+02 0.  0.
        254    2    1    2    0    0  0.89358775188E+03  0.17884466406E+03  0.24819819436E+03  0.13049223630E+04  0.90040854375E+03 0.  0.
         23    2    4    4    0    0  0.99013519128E+03  0.35434217812E+03  0.16046701149E+03  0.10680546451E+04  0.95210224929E+02 0.  0.
         23    2    4    4    0    0 -0.96547439406E+02 -0.17549751406E+03  0.87731182872E+02  0.23686771792E+03  0.91042681453E+02 0.  0.
          4    1    3    3  502    0 -0.22460274479E+03 -0.19999168930E+02  0.29401164933E+03  0.37052558571E+03  0.00000000000E+00 0. -1.
         -3    1    3    3    0  502 -0.66898500709E+03 -0.15884549513E+03  0.10591259247E+04  0.12627432658E+04  0.00000000000E+00 0.  1.
         11    1    5    5    0    0  0.66549208425E+03  0.27377485187E+03  0.13874406214E+03  0.73285898950E+03  0.00000000000E+00 0.  1.
        -11    1    5    5    0    0  0.32464310703E+03  0.80567326255E+02  0.21722949351E+02  0.33519565560E+03  0.00000000000E+00 0. -1.
          1    1    6    6  503    0  0.60043467349E+01  0.57313862945E+01  0.13406799492E+02  0.15768425451E+02  0.00000000000E+00 0. -1.
         -1    1    6    6    0  503 -0.10255178614E+03 -0.18122890036E+03  0.74324383380E+02  0.22109929247E+03  0.00000000000E+00 0.  1.
<mgrwt>
<rscale>  0 0.24634714E+04</rscale>
<asrwt>0</asrwt>
<pdfrwt beam="1">  1        2 0.10283504E+00 0.24634714E+04</pdfrwt>
<pdfrwt beam="2">  1       -1 0.34919438E+00 0.24634714E+04</pdfrwt>
<totfact> 0.69739865E-01</totfact>
</mgrwt>
</event>
<event>
12    6  0.1540825E-007  0.1311956E+04  0.7818608E-02  0.9020137E-01
          2   -1    0    0  501    0  0.00000000000E+00  0.00000000000E+00  0.45566822644E+04  0.45566822644E+04  0.00000000000E+00 0. -1.
         -1   -1    0    0    0  501 -0.00000000000E+00 -0.00000000000E+00 -0.94434361462E+02  0.94434361462E+02  0.00000000000E+00 0.  1.
         24    2    1    2    0    0  0.18189486699E+02  0.10713216982E+03  0.23490248708E+04  0.23530181016E+04  0.83475647113E+02 0.  0.
        254    2    1    2    0    0 -0.18189486699E+02 -0.10713216982E+03  0.21132230321E+04  0.22980985242E+04  0.89651385062E+03 0.  0.
         23    2    4    4    0    0  0.41557666746E+03 -0.63552749596E+02  0.75455353327E+03  0.86830499527E+03  0.88654451244E+02 0.  0.
         23    2    4    4    0    0 -0.43376615416E+03 -0.43579420222E+02  0.13586694989E+04  0.14297935290E+04  0.90964201682E+02 0.  0.
          2    1    3    3  502    0  0.47608166182E+02  0.80402648003E+02  0.18762316909E+04  0.18785570210E+04  0.00000000000E+00 0. -1.
         -3    1    3    3    0  502 -0.29418679482E+02  0.26729521815E+02  0.47279317991E+03  0.47446108060E+03  0.00000000000E+00 0.  1.
         11    1    5    5    0    0  0.23433136560E+03 -0.74774185637E+02  0.47581418686E+03  0.53563187746E+03  0.00000000000E+00 0. -1.
        -11    1    5    5    0    0  0.18124530186E+03  0.11221436041E+02  0.27873934642E+03  0.33267311781E+03  0.00000000000E+00 0.  1.
          1    1    6    6  503    0 -0.32467569590E+03  0.34363695289E+01  0.93433082975E+03  0.98914115048E+03  0.00000000000E+00 0. -1.
         -1    1    6    6    0  503 -0.10909045825E+03 -0.47015789751E+02  0.42433866911E+03  0.44065237849E+03  0.00000000000E+00 0.  1.
<mgrwt>
<rscale>  0 0.13119564E+04</rscale>
<asrwt>0</asrwt>
<pdfrwt beam="1">  1        2 0.70102787E+00 0.13119564E+04</pdfrwt>
<pdfrwt beam="2">  1       -1 0.14528367E-01 0.13119564E+04</pdfrwt>
<totfact> 0.43950048E+00</totfact>
</mgrwt>
</event>
<event>
12    6  0.1540825E-007  0.1642731E+04  0.7818608E-02  0.8794718E-01
          2   -1    0    0  501    0  0.00000000000E+00  0.00000000000E+00  0.25362396467E+04  0.25362396467E+04  0.00000000000E+00 0. -1.
         -1   -1    0    0    0  501 -0.00000000000E+00 -0.00000000000E+00 -0.26600059690E+03  0.26600059690E+03  0.00000000000E+00 0.  1.
         24    2    1    2    0    0 -0.46916561716E+03  0.26583120715E+03  0.46481145430E+03  0.71631600104E+03  0.79223218067E+02 0.  0.
        254    2    1    2    0    0  0.46916561716E+03 -0.26583120715E+03  0.18054275955E+04  0.20859242425E+04  0.89483436239E+03 0.  0.
         23    2    4    4    0    0 -0.11861334829E+03 -0.31996194501E+03  0.11303064848E+04  0.11841408900E+04  0.90289120029E+02 0.  0.
         23    2    4    4    0    0  0.58777896545E+03  0.54130737865E+02  0.67512111071E+03  0.90178335255E+03  0.94923399702E+02 0.  0.
          2    1    3    3  502    0 -0.63923168111E+02  0.70474685369E+02  0.82936829171E+02  0.12621953229E+03  0.00000000000E+00 0. -1.
         -1    1    3    3    0  502 -0.40524244905E+03  0.19535652178E+03  0.38187462513E+03  0.59009646875E+03  0.00000000000E+00 0.  1.
         11    1    5    5    0    0 -0.86917071462E+02 -0.13511820690E+03  0.61953738122E+03  0.64002974452E+03  0.00000000000E+00 0. -1.
        -11    1    5    5    0    0 -0.31696276830E+02 -0.18484373811E+03  0.51076910355E+03  0.54411114547E+03  0.00000000000E+00 0.  1.
          4    1    6    6  503    0  0.40804838689E+03  0.33620044110E+02  0.39908857865E+03  0.57175649277E+03  0.00000000000E+00 0. -1.
         -4    1    6    6    0  503  0.17973057856E+03  0.20510693755E+02  0.27603253205E+03  0.33002685978E+03  0.00000000000E+00 0.  1.
<mgrwt>
<rscale>  0 0.16427310E+04</rscale>
<asrwt>0</asrwt>
<pdfrwt beam="1">  1        2 0.39019070E+00 0.16427310E+04</pdfrwt>
<pdfrwt beam="2">  1       -1 0.40923170E-01 0.16427310E+04</pdfrwt>
<totfact> 0.21127065E+01</totfact>
</mgrwt>
</event>
<event>
12    6  0.1540825E-007  0.1368326E+04  0.7818608E-02  0.8977070E-01
          2   -1    0    0  501    0  0.00000000000E+00  0.00000000000E+00  0.14638404879E+04  0.14638404879E+04  0.00000000000E+00 0. -1.
         -1   -1    0    0    0  501 -0.00000000000E+00 -0.00000000000E+00 -0.31976103125E+03  0.31976103125E+03  0.00000000000E+00 0.  1.
         24    2    1    2    0    0 -0.70423080797E+02  0.25494980723E+03 -0.39095944751E+02  0.27901426628E+03  0.79759973520E+02 0.  0.
        254    2    1    2    0    0  0.70423080797E+02 -0.25494980723E+03  0.11831754014E+04  0.15045872529E+04  0.89102186086E+03 0.  0.
         23    2    4    4    0    0  0.35157661309E+03  0.39466523831E+02  0.96912385286E+03  0.10359740387E+04  0.94220196298E+02 0.  0.
         23    2    4    4    0    0 -0.28115353230E+03 -0.29441633106E+03  0.21405154854E+03  0.46861321414E+03  0.89732905408E+02 0.  0.
          4    1    3    3  502    0  0.26584289672E+01  0.35599611282E+01  0.11539435731E+02  0.12365239375E+02  0.00000000000E+00 0. -1.
         -3    1    3    3    0  502 -0.73081509764E+02  0.25138984610E+03 -0.50635380482E+02  0.26664902690E+03  0.00000000000E+00 0.  1.
         11    1    5    5    0    0  0.13235965262E+03  0.45089545372E+02  0.47979669894E+03  0.49975695799E+03  0.00000000000E+00 0. -1.
        -11    1    5    5    0    0  0.21921696047E+03 -0.56230215406E+01  0.48932715392E+03  0.53621708076E+03  0.00000000000E+00 0.  1.
          1    1    6    6  503    0 -0.19138073204E+03 -0.14008325168E+03  0.13929439492E+03  0.27505059617E+03  0.00000000000E+00 0. -1.
         -1    1    6    6    0  503 -0.89772800255E+02 -0.15433307938E+03  0.74757153625E+02  0.19356261797E+03  0.00000000000E+00 0.  1.
<mgrwt>
<rscale>  0 0.13683262E+04</rscale>
<asrwt>0</asrwt>
<pdfrwt beam="1">  1        2 0.22520622E+00 0.13683262E+04</pdfrwt>
<pdfrwt beam="2">  1       -1 0.49194006E-01 0.13683262E+04</pdfrwt>
<totfact> 0.61230538E+01</totfact>
</mgrwt>
</event>
<event>
12    6  0.1540825E-007  0.2174407E+04  0.7818608E-02  0.8529157E-01
         -1   -1    0    0    0  501 -0.00000000000E+00  0.00000000000E+00  0.47953020236E+03  0.47953020236E+03  0.00000000000E+00 0.  1.
          2   -1    0    0  501    0  0.00000000000E+00 -0.00000000000E+00 -0.24649363865E+04  0.24649363865E+04  0.00000000000E+00 0. -1.
         24    2    1    2    0    0  0.89383102175E+02 -0.65953945814E+03 -0.16230895566E+04  0.17556145443E+04  0.69145379787E+02 0.  0.
        254    2    1    2    0    0 -0.89383102175E+02  0.65953945814E+03 -0.36231662751E+03  0.11888520446E+04  0.91603177317E+03 0.  0.
         23    2    4    4    0    0 -0.40247978059E+02 -0.86047685560E+02  0.20654264328E+03  0.24534727001E+03  0.92256790963E+02 0.  0.
         23    2    4    4    0    0 -0.49135124117E+02  0.74558714370E+03 -0.56885927079E+03  0.94350477454E+03  0.91027140682E+02 0.  0.
          4    1    3    3  502    0  0.80528254836E+02 -0.64617215241E+03 -0.16006540129E+04  0.17280383443E+04  0.00000000000E+00 0. -1.
         -3    1    3    3    0  502  0.88548473392E+01 -0.13367305739E+02 -0.22435543701E+02  0.27576199978E+02  0.00000000000E+00 0.  1.
         11    1    5    5    0    0 -0.35429212438E+01 -0.30674895250E+02  0.27514581164E+01  0.31001161451E+02  0.00000000000E+00 0. -1.
        -11    1    5    5    0    0 -0.36705056815E+02 -0.55372790309E+02  0.20379118517E+03  0.21434610856E+03  0.00000000000E+00 0.  1.
          2    1    6    6  503    0 -0.38203274579E+02  0.24633076960E+03 -0.23668479143E+03  0.34374122350E+03  0.00000000000E+00 0. -1.
         -2    1    6    6    0  503 -0.10931849538E+02  0.49925637411E+03 -0.33217447936E+03  0.59976355104E+03  0.00000000000E+00 0.  1.
<mgrwt>
<rscale>  0 0.21744070E+04</rscale>
<asrwt>0</asrwt>
<pdfrwt beam="1">  1        2 0.37922099E+00 0.21744070E+04</pdfrwt>
<pdfrwt beam="2">  1       -1 0.73773877E-01 0.21744070E+04</pdfrwt>
<totfact> 0.70372338E+00</totfact>
</mgrwt>
</event>
<event>
12    6  0.1540825E-007  0.2639388E+04  0.7818608E-02  0.8354944E-01
          2   -1    0    0  501    0  0.00000000000E+00  0.00000000000E+00  0.14520502242E+04  0.14520502242E+04  0.00000000000E+00 0. -1.
         -1   -1    0    0    0  501 -0.00000000000E+00 -0.00000000000E+00 -0.11994021206E+04  0.11994021206E+04  0.00000000000E+00 0.  1.
         24    2    1    2    0    0  0.11166256830E+04  0.21087999585E+03  0.36332787523E+03  0.11956513910E+04  0.79068420272E+02 0.  0.
        254    2    1    2    0    0 -0.11166256830E+04 -0.21087999585E+03 -0.11067977164E+03  0.14558009538E+04  0.90320712828E+03 0.  0.
         23    2    4    4    0    0 -0.11347359672E+02 -0.32328955008E+03 -0.28602074467E+02  0.33808605272E+03  0.94017044304E+02 0.  0.
         23    2    4    4    0    0 -0.11052783234E+04  0.11240955423E+03 -0.82077697170E+02  0.11177149011E+04  0.90960275577E+02 0.  0.
          4    1    3    3  502    0  0.25868857287E+03  0.37022920248E+02  0.11669023287E+03  0.28619413831E+03  0.00000000000E+00 0. -1.
         -3    1    3    3    0  502  0.85793711018E+03  0.17385707560E+03  0.24663764236E+03  0.90945725265E+03  0.00000000000E+00 0.  1.
         11    1    5    5    0    0 -0.10300222457E+01 -0.18056712542E+03 -0.62410843908E+02  0.19105146208E+03  0.00000000000E+00 0. -1.
        -11    1    5    5    0    0 -0.10317337426E+02 -0.14272242466E+03  0.33808769441E+02  0.14703459064E+03  0.00000000000E+00 0.  1.
          1    1    6    6  503    0 -0.71508347869E+03  0.70741288542E+02 -0.94444225045E+01  0.71863614473E+03  0.00000000000E+00 0. -1.
         -1    1    6    6    0  503 -0.39019484469E+03  0.41668265684E+02 -0.72633274666E+02  0.39907875636E+03  0.00000000000E+00 0.  1.
<mgrwt>
<rscale>  0 0.26393879E+04</rscale>
<asrwt>0</asrwt>
<pdfrwt beam="1">  1        2 0.22339234E+00 0.26393879E+04</pdfrwt>
<pdfrwt beam="2">  1       -1 0.18452340E+00 0.26393879E+04</pdfrwt>
<totfact> 0.26216727E+00</totfact>
</mgrwt>
</event>
<event>
12    6  0.1540825E-007  0.3612026E+04  0.7818608E-02  0.8087743E-01
          2   -1    0    0  501    0  0.00000000000E+00  0.00000000000E+00  0.21353887944E+04  0.21353887944E+04  0.00000000000E+00 0. -1.
         -1   -1    0    0    0  501 -0.00000000000E+00 -0.00000000000E+00 -0.15274418417E+04  0.15274418417E+04  0.00000000000E+00 0.  1.
         24    2    1    2    0    0 -0.96824909706E+03  0.12809434168E+04  0.82103427185E+03  0.18053415732E+04  0.82695641575E+02 0.  0.
        254    2    1    2    0    0  0.96824909706E+03 -0.12809434168E+04 -0.21308731910E+03  0.18574890630E+04  0.90914083745E+03 0.  0.
         23    2    4    4    0    0  0.43220559344E+03 -0.96855268156E+03  0.22971326706E+03  0.10898568829E+04  0.10061743495E+03 0.  0.
         23    2    4    4    0    0  0.53604350361E+03 -0.31239073528E+03 -0.44280058616E+03  0.76763218004E+03  0.90863609156E+02 0.  0.
          2    1    3    3  502    0 -0.89686100317E+03  0.12179081876E+04  0.77727733548E+03  0.17005352300E+04  0.00000000000E+00 0. -1.
         -1    1    3    3    0  502 -0.71388093891E+02  0.63035229275E+02  0.43756936368E+02  0.10480634313E+03  0.00000000000E+00 0.  1.
         11    1    5    5    0    0  0.24968846179E+03 -0.46362351971E+03  0.81348677527E+02  0.53283083931E+03  0.00000000000E+00 0.  1.
        -11    1    5    5    0    0  0.18251713165E+03 -0.50492916184E+03  0.14836458953E+03  0.55702604360E+03  0.00000000000E+00 0. -1.
          3    1    6    6  503    0  0.28229260318E+03 -0.21645212403E+03 -0.25545230511E+03  0.43794579116E+03  0.00000000000E+00 0. -1.
         -3    1    6    6    0  503  0.25375090044E+03 -0.95938611256E+02 -0.18734828105E+03  0.32968638888E+03  0.00000000000E+00 0.  1.
<mgrwt>
<rscale>  0 0.36120256E+04</rscale>
<asrwt>0</asrwt>
<pdfrwt beam="1">  1        2 0.32852135E+00 0.36120256E+04</pdfrwt>
<pdfrwt beam="2">  1       -1 0.23499105E+00 0.36120256E+04</pdfrwt>
<totfact> 0.45472584E-01</totfact>
</mgrwt>
</event>
<event>
12    6  0.1540825E-007  0.1462261E+04  0.7818608E-02  0.8909944E-01
         -1   -1    0    0    0  501 -0.00000000000E+00  0.00000000000E+00  0.38287715460E+03  0.38287715460E+03  0.00000000000E+00 0.  1.
          2   -1    0    0  501    0  0.00000000000E+00 -0.00000000000E+00 -0.13961443072E+04  0.13961443072E+04  0.00000000000E+00 0. -1.
         24    2    1    2    0    0 -0.87876364613E+02 -0.41029485469E+03 -0.11372351646E+03  0.44186070247E+03  0.79017206700E+02 0.  0.
        254    2    1    2    0    0  0.87876364613E+02  0.41029485469E+03 -0.89954363613E+03  0.13371607593E+04  0.89596652824E+03 0.  0.
         23    2    4    4    0    0  0.34085622333E+03  0.57330748400E+03 -0.64898898383E+03  0.93497828669E+03  0.90184584288E+02 0.  0.
         23    2    4    4    0    0 -0.25297985872E+03 -0.16301262931E+03 -0.25055465230E+03  0.40218247263E+03  0.91657958043E+02 0.  0.
          2    1    3    3  502    0 -0.52622069346E+02 -0.14644767710E+03 -0.92125480824E+01  0.15588738035E+03  0.00000000000E+00 0. -1.
         -1    1    3    3    0  502 -0.35254295267E+02 -0.26384717758E+03 -0.10451096838E+03  0.28597332212E+03  0.00000000000E+00 0.  1.
         11    1    5    5    0    0  0.13663348828E+03  0.29043256116E+03 -0.26565339904E+03  0.41664314602E+03  0.00000000000E+00 0.  1.
        -11    1    5    5    0    0  0.20422273505E+03  0.28287492284E+03 -0.38333558479E+03  0.51833514067E+03  0.00000000000E+00 0. -1.
          4    1    6    6  503    0  0.10029418303E+01 -0.13028957132E+02  0.27832163289E+01  0.13360610368E+02  0.00000000000E+00 0. -1.
         -4    1    6    6    0  503 -0.25398280055E+03 -0.14998367218E+03 -0.25333786862E+03  0.38882186227E+03  0.00000000000E+00 0.  1.
<mgrwt>
<rscale>  0 0.14622609E+04</rscale>
<asrwt>0</asrwt>
<pdfrwt beam="1">  1        2 0.21479143E+00 0.14622609E+04</pdfrwt>
<pdfrwt beam="2">  1       -1 0.58904179E-01 0.14622609E+04</pdfrwt>
<totfact> 0.46913784E+01</totfact>
</mgrwt>
</event>
<event>
12    6  0.1540825E-007  0.1425801E+04  0.7818608E-02  0.8935351E-01
          2   -1    0    0  501    0  0.00000000000E+00  0.00000000000E+00  0.19768541225E+04  0.19768541225E+04  0.00000000000E+00 0. -1.
         -1   -1    0    0    0  501 -0.00000000000E+00 -0.00000000000E+00 -0.25708891669E+03  0.25708891669E+03  0.00000000000E+00 0.  1.
         24    2    1    2    0    0 -0.15727309016E+03  0.46700396177E+02  0.11210859402E+04  0.11356303070E+04  0.76855428731E+02 0.  0.
        254    2    1    2    0    0  0.15727309016E+03 -0.46700396177E+02  0.59867926561E+03  0.10983127322E+04  0.90606746039E+03 0.  0.
         23    2    4    4    0    0  0.33555805933E+03 -0.31681277669E+03  0.75724805931E+02  0.47655715400E+03  0.91667486782E+02 0.  0.
         23    2    4    4    0    0 -0.17828496917E+03  0.27011238052E+03  0.52295445967E+03  0.62175557822E+03  0.91391486546E+02 0.  0.
          4    1    3    3  502    0 -0.12707377268E+03  0.15315714215E+02  0.64638224727E+03  0.65893271613E+03  0.00000000000E+00 0. -1.
         -3    1    3    3    0  502 -0.30199317487E+02  0.31384681962E+02  0.47470369294E+03  0.47669759086E+03  0.00000000000E+00 0.  1.
         11    1    5    5    0    0  0.15718792082E+03 -0.87367325244E+02  0.25776887958E+02  0.18167426874E+03  0.00000000000E+00 0.  1.
        -11    1    5    5    0    0  0.17837013852E+03 -0.22944545145E+03  0.49947917973E+02  0.29488288525E+03  0.00000000000E+00 0. -1.
          2    1    6    6  503    0 -0.48437488745E+02  0.58916652156E+02  0.20392096457E+03  0.21771798733E+03  0.00000000000E+00 0.  1.
         -2    1    6    6    0  503 -0.12984748042E+03  0.21119572836E+03  0.31903349510E+03  0.40403759088E+03  0.00000000000E+00 0. -1.
<mgrwt>
<rscale>  0 0.14258012E+04</rscale>
<asrwt>0</asrwt>
<pdfrwt beam="1">  1        2 0.30413139E+00 0.14258012E+04</pdfrwt>
<pdfrwt beam="2">  1       -1 0.39552142E-01 0.14258012E+04</pdfrwt>
<totfact> 0.47379570E+01</totfact>
</mgrwt>
</event>
<event>
12    6  0.1540825E-007  0.1575152E+04  0.7818608E-02  0.8835960E-01
          2   -1    0    0  501    0  0.00000000000E+00  0.00000000000E+00  0.14766953115E+04  0.14766953115E+04  0.00000000000E+00 0. -1.
         -1   -1    0    0    0  501 -0.00000000000E+00 -0.00000000000E+00 -0.42004329136E+03  0.42004329136E+03  0.00000000000E+00 0.  1.
         24    2    1    2    0    0  0.10616653159E+03 -0.51093088567E+03  0.47356093110E+03  0.70914753543E+03  0.79426501722E+02 0.  0.
        254    2    1    2    0    0 -0.10616653159E+03  0.51093088567E+03  0.58309108909E+03  0.11875910675E+04  0.89333958997E+03 0.  0.
         23    2    4    4    0    0  0.12791487986E+03  0.27936123661E+03  0.74481657748E+03  0.80987876385E+03  0.82139886955E+02 0.  0.
         23    2    4    4    0    0 -0.23408141145E+03  0.23156964907E+03 -0.16172548839E+03  0.37771230363E+03  0.89960219900E+02 0.  0.
          2    1    3    3  502    0  0.11393936403E+03 -0.46563805132E+03  0.45003843543E+03  0.65752229382E+03  0.00000000000E+00 0. -1.
         -1    1    3    3    0  502 -0.77728324411E+01 -0.45292834358E+02  0.23522495666E+02  0.51625241604E+02  0.00000000000E+00 0.  1.
         11    1    5    5    0    0  0.41900523561E+02  0.77754616000E+02  0.13006908149E+03  0.15722404442E+03  0.00000000000E+00 0. -1.
        -11    1    5    5    0    0  0.86014356295E+02  0.20160662061E+03  0.61474749599E+03  0.65265471942E+03  0.00000000000E+00 0.  1.
          2    1    6    6  503    0 -0.13533787838E+03  0.14693790806E+03 -0.49195179375E+02  0.20573588852E+03  0.00000000000E+00 0. -1.
         -2    1    6    6    0  503 -0.98743533066E+02  0.84631741007E+02 -0.11253030902E+03  0.17197641512E+03  0.00000000000E+00 0.  1.
<mgrwt>
<rscale>  0 0.15751520E+04</rscale>
<asrwt>0</asrwt>
<pdfrwt beam="1">  1        2 0.22718389E+00 0.15751520E+04</pdfrwt>
<pdfrwt beam="2">  1       -1 0.64622045E-01 0.15751520E+04</pdfrwt>
<totfact> 0.34784284E+01</totfact>
</mgrwt>
</event>
<event>
12    6  0.1540825E-007  0.1236087E+04  0.7818608E-02  0.9081843E-01
          2   -1    0    0  501    0  0.00000000000E+00  0.00000000000E+00  0.62405970472E+03  0.62405970472E+03  0.00000000000E+00 0. -1.
         -1   -1    0    0    0  501 -0.00000000000E+00 -0.00000000000E+00 -0.61208542775E+03  0.61208542775E+03  0.00000000000E+00 0.  1.
         24    2    1    2    0    0 -0.11692235051E+03  0.34024824820E+03  0.13749655791E+03  0.39332813771E+03  0.79762234327E+02 0.  0.
        254    2    1    2    0    0  0.11692235051E+03 -0.34024824820E+03 -0.12552228095E+03  0.84281699475E+03  0.75176122351E+03 0.  0.
         23    2    4    4    0    0  0.35156275986E+02  0.13345997956E+03  0.19749591627E+03  0.25634631685E+03  0.87528665791E+02 0.  0.
         23    2    4    4    0    0  0.81766074525E+02 -0.47370822776E+03 -0.32301819722E+03  0.58647067790E+03  0.92314269266E+02 0.  0.
          4    1    3    3  502    0 -0.81111688008E+02  0.31336775033E+03  0.12269400555E+03  0.34616798217E+03  0.00000000000E+00 0. -1.
         -3    1    3    3    0  502 -0.35810662503E+02  0.26880497870E+02  0.14802552367E+02  0.47160155547E+02  0.00000000000E+00 0.  1.
         11    1    5    5    0    0  0.28691594873E+02  0.14950246890E+01  0.54808979484E+02  0.61882686975E+02  0.00000000000E+00 0.  1.
        -11    1    5    5    0    0  0.64646811133E+01  0.13196495487E+03  0.14268693679E+03  0.19446362988E+03  0.00000000000E+00 0. -1.
          1    1    6    6  503    0  0.83669230921E+02 -0.40253805953E+03 -0.30798713813E+03  0.51370566167E+03  0.00000000000E+00 0. -1.
         -1    1    6    6    0  503 -0.19031563968E+01 -0.71170168227E+02 -0.15031059086E+02  0.72765016231E+02  0.00000000000E+00 0.  1.
<mgrwt>
<rscale>  0 0.12360871E+04</rscale>
<asrwt>0</asrwt>
<pdfrwt beam="1">  1        2 0.96009186E-01 0.12360871E+04</pdfrwt>
<pdfrwt beam="2">  1       -1 0.94166989E-01 0.12360871E+04</pdfrwt>
<totfact> 0.58111870E+01</totfact>
</mgrwt>
</event>
<event>
12    6  0.1540825E-007  0.2410351E+04  0.7818608E-02  0.8435638E-01
          2   -1    0    0  501    0  0.00000000000E+00  0.00000000000E+00  0.13659211345E+04  0.13659211345E+04  0.00000000000E+00 0. -1.
         -1   -1    0    0    0  501 -0.00000000000E+00 -0.00000000000E+00 -0.10633469652E+04  0.10633469652E+04  0.00000000000E+00 0.  1.
         24    2    1    2    0    0 -0.50935639917E+02 -0.89100788209E+03  0.66680495768E+03  0.11168432946E+04  0.78870829967E+02 0.  0.
        254    2    1    2    0    0  0.50935639917E+02  0.89100788209E+03 -0.36423078839E+03  0.13124248051E+04  0.89067688665E+03 0.  0.
         23    2    4    4    0    0 -0.25531717094E+03  0.85207724609E+03 -0.10408957097E+03  0.90001790318E+03  0.89303393997E+02 0.  0.
         23    2    4    4    0    0  0.30625281086E+03  0.38930636001E+02 -0.26014121742E+03  0.41240690190E+03  0.84259249682E+02 0.  0.
          4    1    3    3  502    0  0.11253775752E+02 -0.11996175012E+03  0.65997586081E+02  0.13737958483E+03  0.00000000000E+00 0. -1.
         -3    1    3    3    0  502 -0.62189415669E+02 -0.77104613197E+03  0.60080737159E+03  0.97946370980E+03  0.00000000000E+00 0.  1.
         11    1    5    5    0    0 -0.17006310241E+02  0.16391123941E+03 -0.33768434282E+01  0.16482570208E+03  0.00000000000E+00 0. -1.
        -11    1    5    5    0    0 -0.23831086070E+03  0.68816600667E+03 -0.10071272754E+03  0.73519220110E+03  0.00000000000E+00 0.  1.
          3    1    6    6  503    0  0.21537346771E+03 -0.10767792696E+02 -0.18903676420E+03  0.28676920018E+03  0.00000000000E+00 0. -1.
         -3    1    6    6    0  503  0.90879343144E+02  0.49698428697E+02 -0.71104453223E+02  0.12563770172E+03  0.00000000000E+00 0.  1.
<mgrwt>
<rscale>  0 0.24103511E+04</rscale>
<asrwt>0</asrwt>
<pdfrwt beam="1">  1        2 0.21014171E+00 0.24103511E+04</pdfrwt>
<pdfrwt beam="2">  1       -1 0.16359184E+00 0.24103511E+04</pdfrwt>
<totfact> 0.42551993E+00</totfact>
</mgrwt>
</event>
<event>
12    6  0.1540825E-007  0.2059767E+04  0.7818608E-02  0.8579176E-01
         -1   -1    0    0    0  501 -0.00000000000E+00  0.00000000000E+00  0.67028347059E+03  0.67028347059E+03  0.00000000000E+00 0.  1.
          2   -1    0    0  501    0  0.00000000000E+00 -0.00000000000E+00 -0.15824052708E+04  0.15824052708E+04  0.00000000000E+00 0. -1.
         24    2    1    2    0    0  0.65180156914E+03 -0.84878435273E+02  0.18443132074E+03  0.68742119559E+03  0.80519275821E+02 0.  0.
        254    2    1    2    0    0 -0.65180156914E+03  0.84878435273E+02 -0.10965531209E+04  0.15652675458E+04  0.90309695412E+03 0.  0.
         23    2    4    4    0    0 -0.24164618731E+03  0.47559883648E+03 -0.56672240740E+03  0.78368427912E+03  0.91649490977E+02 0.  0.
         23    2    4    4    0    0 -0.41015538183E+03 -0.39072040120E+03 -0.52983071351E+03  0.78158326664E+03  0.96239017838E+02 0.  0.
          4    1    3    3  502    0  0.64143195703E+03 -0.92648062831E+02  0.18628972790E+03  0.67433113659E+03  0.00000000000E+00 0. -1.
         -3    1    3    3    0  502  0.10369612103E+02  0.77696275577E+01 -0.18584071666E+01  0.13090059005E+02  0.00000000000E+00 0.  1.
         11    1    5    5    0    0 -0.19520025490E+03  0.43978111842E+03 -0.48587268739E+03  0.68380029247E+03  0.00000000000E+00 0.  1.
        -11    1    5    5    0    0 -0.46445932407E+02  0.35817718060E+02 -0.80849720006E+02  0.99883986650E+02  0.00000000000E+00 0. -1.
          1    1    6    6  503    0 -0.13705540233E+03 -0.72002446896E+02 -0.13818060812E+03  0.20751485760E+03  0.00000000000E+00 0. -1.
         -1    1    6    6    0  503 -0.27309997950E+03 -0.31871795431E+03 -0.39165010539E+03  0.57406840904E+03  0.00000000000E+00 0.  1.
<mgrwt>
<rscale>  0 0.20597671E+04</rscale>
<asrwt>0</asrwt>
<pdfrwt beam="1">  1        2 0.24344696E+00 0.20597671E+04</pdfrwt>
<pdfrwt beam="2">  1       -1 0.10312053E+00 0.20597671E+04</pdfrwt>
<totfact> 0.10668063E+01</totfact>
</mgrwt>
</event>
<event>
12    6  0.1540825E-007  0.1258379E+04  0.7818608E-02  0.9063238E-01
          2   -1    0    0  501    0  0.00000000000E+00  0.00000000000E+00  0.14331453703E+04  0.14331453703E+04  0.00000000000E+00 0. -1.
         -1   -1    0    0    0  501 -0.00000000000E+00 -0.00000000000E+00 -0.27623099316E+03  0.27623099316E+03  0.00000000000E+00 0.  1.
         24    2    1    2    0    0 -0.10442315724E+03 -0.23117958339E+03  0.45990346783E+03  0.53161945082E+03  0.82218277875E+02 0.  0.
        254    2    1    2    0    0  0.10442315724E+03  0.23117958339E+03  0.69701090929E+03  0.11777569126E+04  0.91484367082E+03 0.  0.
         23    2    4    4    0    0  0.12289179906E+03 -0.29404219100E+03  0.43573985746E+02  0.33433093348E+03  0.91188137872E+02 0.  0.
         23    2    4    4    0    0 -0.18468641817E+02  0.52522177439E+03  0.65343692354E+03  0.84342597915E+03  0.90490696965E+02 0.  0.
          4    1    3    3  502    0 -0.92276663619E+02 -0.23499728167E+03  0.44772575614E+03  0.51400102894E+03  0.00000000000E+00 0. -1.
         -3    1    3    3    0  502 -0.12146493619E+02  0.38176982748E+01  0.12177711692E+02  0.17618421877E+02  0.00000000000E+00 0.  1.
         11    1    5    5    0    0  0.12834002845E+03 -0.29666230028E+03  0.36910628060E+02  0.32533379439E+03  0.00000000000E+00 0.  1.
        -11    1    5    5    0    0 -0.54482293920E+01  0.26201092840E+01  0.66633576862E+01  0.89971390909E+01  0.00000000000E+00 0. -1.
          2    1    6    6  503    0  0.53817887865E+01  0.45355122094E+03  0.59361298154E+03  0.74707030829E+03  0.00000000000E+00 0.  1.
         -2    1    6    6    0  503 -0.23850430603E+02  0.71670553451E+02  0.59823942001E+02  0.96355670868E+02  0.00000000000E+00 0. -1.
<mgrwt>
<rscale>  0 0.12583786E+04</rscale>
<asrwt>0</asrwt>
<pdfrwt beam="1">  1        2 0.22048390E+00 0.12583786E+04</pdfrwt>
<pdfrwt beam="2">  1       -1 0.42497077E-01 0.12583786E+04</pdfrwt>
<totfact> 0.84499911E+01</totfact>
</mgrwt>
</event>
<event>
12    6  0.1540825E-007  0.1415085E+04  0.7818608E-02  0.8942971E-01
         -1   -1    0    0    0  501 -0.00000000000E+00  0.00000000000E+00  0.25407741813E+03  0.25407741813E+03  0.00000000000E+00 0.  1.
          2   -1    0    0  501    0  0.00000000000E+00 -0.00000000000E+00 -0.19703287638E+04  0.19703287638E+04  0.00000000000E+00 0. -1.
         24    2    1    2    0    0  0.11591736114E+02 -0.32024458851E+03 -0.95930959243E+02  0.34358106556E+03  0.78448931525E+02 0.  0.
        254    2    1    2    0    0 -0.11591736114E+02  0.32024458851E+03 -0.16203203864E+04  0.18808251163E+04  0.89965215436E+03 0.  0.
         23    2    4    4    0    0 -0.34242986423E+03 -0.13134478572E+03 -0.77955352721E+03  0.86664603466E+03  0.94138105749E+02 0.  0.
         23    2    4    4    0    0  0.33083812811E+03  0.45158937423E+03 -0.84076685920E+03  0.10141790817E+04  0.91013560879E+02 0.  0.
          2    1    3    3  502    0  0.31527261810E+02 -0.91860742306E+02 -0.51973160311E+02  0.11015250159E+03  0.00000000000E+00 0. -1.
         -1    1    3    3    0  502 -0.19935525696E+02 -0.22838384620E+03 -0.43957798933E+02  0.23342856397E+03  0.00000000000E+00 0.  1.
         11    1    5    5    0    0 -0.33742793801E+03 -0.12076800214E+03 -0.70176582260E+03  0.78798337131E+03  0.00000000000E+00 0.  1.
        -11    1    5    5    0    0 -0.50019262182E+01 -0.10576783584E+02 -0.77787704613E+02  0.78662663353E+02  0.00000000000E+00 0. -1.
          2    1    6    6  503    0  0.28122298670E+03  0.40909265068E+03 -0.69150620195E+03  0.85124849041E+03  0.00000000000E+00 0. -1.
         -2    1    6    6    0  503  0.49615141416E+02  0.42496723549E+02 -0.14926065725E+03  0.16293059128E+03  0.00000000000E+00 0.  1.
<mgrwt>
<rscale>  0 0.14150845E+04</rscale>
<asrwt>0</asrwt>
<pdfrwt beam="1">  1        2 0.30312751E+00 0.14150845E+04</pdfrwt>
<pdfrwt beam="2">  1       -1 0.39088833E-01 0.14150845E+04</pdfrwt>
<totfact> 0.48855391E+01</totfact>
</mgrwt>
</event>
<event>
12    6  0.1540825E-007  0.1319242E+04  0.7818608E-02  0.9014443E-01
         -1   -1    0    0    0  501 -0.00000000000E+00  0.00000000000E+00  0.40535972940E+03  0.40535972940E+03  0.00000000000E+00 0.  1.
          2   -1    0    0  501    0  0.00000000000E+00 -0.00000000000E+00 -0.10733679219E+04  0.10733679219E+04  0.00000000000E+00 0. -1.
         24    2    1    2    0    0 -0.26630967320E+03 -0.18622215278E+03 -0.54577108427E+02  0.33930990567E+03  0.80950720173E+02 0.  0.
        254    2    1    2    0    0  0.26630967320E+03  0.18622215278E+03 -0.61343108411E+03  0.11394177457E+04  0.90353504191E+03 0.  0.
         23    2    4    4    0    0  0.10018453102E+03 -0.26301304381E+03  0.65678811462E+02  0.30318449567E+03  0.91620579940E+02 0.  0.
         23    2    4    4    0    0  0.16612514218E+03  0.44923519660E+03 -0.67910989557E+03  0.83623324999E+03  0.93198569741E+02 0.  0.
          4    1    3    3  502    0 -0.16362181893E+03 -0.11150884306E+03 -0.72907920750E+02  0.21100210098E+03  0.00000000000E+00 0. -1.
         -3    1    3    3    0  502 -0.10268785427E+03 -0.74713309721E+02  0.18330812323E+02  0.12830780469E+03  0.00000000000E+00 0.  1.
         11    1    5    5    0    0 -0.11373502591E+02 -0.84457068596E+02  0.24296763952E+02  0.88615380920E+02  0.00000000000E+00 0. -1.
        -11    1    5    5    0    0  0.11155803361E+03 -0.17855597522E+03  0.41382047510E+02  0.21456911475E+03  0.00000000000E+00 0.  1.
          3    1    6    6  503    0  0.30517929721E+02  0.19329835192E+02 -0.65997842495E+02  0.75237635376E+02  0.00000000000E+00 0. -1.
         -3    1    6    6    0  503  0.13560721246E+03  0.42990536140E+03 -0.61311205308E+03  0.76099561462E+03  0.00000000000E+00 0.  1.
<mgrwt>
<rscale>  0 0.13192424E+04</rscale>
<asrwt>0</asrwt>
<pdfrwt beam="1">  1        2 0.16513352E+00 0.13192424E+04</pdfrwt>
<pdfrwt beam="2">  1       -1 0.62363036E-01 0.13192424E+04</pdfrwt>
<totfact> 0.65900331E+01</totfact>
</mgrwt>
</event>
<event>
12    6  0.1540825E-007  0.3432020E+04  0.7818608E-02  0.8130092E-01
          2   -1    0    0  501    0  0.00000000000E+00  0.00000000000E+00  0.25634063518E+04  0.25634063518E+04  0.00000000000E+00 0. -1.
         -1   -1    0    0    0  501 -0.00000000000E+00 -0.00000000000E+00 -0.11487412928E+04  0.11487412928E+04  0.00000000000E+00 0.  1.
         24    2    1    2    0    0 -0.86823861615E+03  0.13109613460E+04  0.95103160148E+03  0.18394518284E+04  0.81633185071E+02 0.  0.
        254    2    1    2    0    0  0.86823861615E+03 -0.13109613460E+04  0.46363345755E+03  0.18726958162E+04  0.90530419847E+03 0.  0.
         23    2    4    4    0    0  0.10107659129E+04 -0.12852449906E+04  0.46735632030E+03  0.17029191766E+04  0.89495112286E+02 0.  0.
         23    2    4    4    0    0 -0.14252729675E+03 -0.25716355334E+02 -0.37228627544E+01  0.16977663962E+03  0.88514893662E+02 0.  0.
          4    1    3    3  502    0 -0.77074557065E+03  0.11811753930E+04  0.87881174296E+03  0.16617864253E+04  0.00000000000E+00 0. -1.
         -3    1    3    3    0  502 -0.97493045508E+02  0.12978595302E+03  0.72219858522E+02  0.17766540318E+03  0.00000000000E+00 0.  1.
         11    1    5    5    0    0  0.64653648075E+02 -0.10367031199E+03  0.15061951563E+02  0.12310357502E+03  0.00000000000E+00 0. -1.
        -11    1    5    5    0    0  0.94611226483E+03 -0.11815746787E+04  0.45229436874E+03  0.15798156015E+04  0.00000000000E+00 0.  1.
          2    1    6    6  503    0 -0.16458657750E+01 -0.91768383988E+01 -0.24685165816E+02  0.26387130358E+02  0.00000000000E+00 0. -1.
         -2    1    6    6    0  503 -0.14088143098E+03 -0.16539516935E+02  0.20962303062E+02  0.14338950926E+03  0.00000000000E+00 0.  1.
<mgrwt>
<rscale>  0 0.34320202E+04</rscale>
<asrwt>0</asrwt>
<pdfrwt beam="1">  1        2 0.39437021E+00 0.34320202E+04</pdfrwt>
<pdfrwt beam="2">  1       -1 0.17672943E+00 0.34320202E+04</pdfrwt>
<totfact> 0.65951821E-01</totfact>
</mgrwt>
</event>
<event>
12    6  0.1540825E-007  0.1701415E+04  0.7818608E-02  0.8760557E-01
         -1   -1    0    0    0  501 -0.00000000000E+00  0.00000000000E+00  0.46314941081E+03  0.46314941081E+03  0.00000000000E+00 0.  1.
          2   -1    0    0  501    0  0.00000000000E+00 -0.00000000000E+00 -0.15625706171E+04  0.15625706171E+04  0.00000000000E+00 0. -1.
         24    2    1    2    0    0  0.32948185593E+03  0.28150462469E+03 -0.90933554681E+03  0.10106236235E+04  0.81644501009E+02 0.  0.
        254    2    1    2    0    0 -0.32948185593E+03 -0.28150462469E+03 -0.19008565950E+03  0.10150964044E+04  0.89804510202E+03 0.  0.
         23    2    4    4    0    0 -0.41701736313E+03 -0.43531114755E+03  0.14342310062E+03  0.62653207188E+03  0.92590361076E+02 0.  0.
         23    2    4    4    0    0  0.87535507201E+02  0.15380652286E+03 -0.33350876012E+03  0.38856433256E+03  0.91843540710E+02 0.  0.
          2    1    3    3  502    0  0.27963882204E+03  0.19784722568E+03 -0.67780538306E+03  0.75944817651E+03  0.00000000000E+00 0. -1.
         -1    1    3    3    0  502  0.49843033890E+02  0.83657399013E+02 -0.23153016374E+03  0.25117544697E+03  0.00000000000E+00 0.  1.
         11    1    5    5    0    0 -0.35164969361E+03 -0.34736093002E+03  0.15059299860E+03  0.51671595093E+03  0.00000000000E+00 0. -1.
        -11    1    5    5    0    0 -0.65367669521E+02 -0.87950217538E+02 -0.71698979771E+01  0.10981612095E+03  0.00000000000E+00 0.  1.
          4    1    6    6  503    0  0.36762014829E+02  0.58858841550E+02 -0.22597934399E+03  0.23639473953E+03  0.00000000000E+00 0. -1.
         -4    1    6    6    0  503  0.50773492372E+02  0.94947681309E+02 -0.10752941612E+03  0.15216959304E+03  0.00000000000E+00 0.  1.
<mgrwt>
<rscale>  0 0.17014155E+04</rscale>
<asrwt>0</asrwt>
<pdfrwt beam="1">  1        2 0.24039548E+00 0.17014155E+04</pdfrwt>
<pdfrwt beam="2">  1       -1 0.71253756E-01 0.17014155E+04</pdfrwt>
<totfact> 0.25236552E+01</totfact>
</mgrwt>
</event>
<event>
12    6  0.1540825E-007  0.1864371E+04  0.7818608E-02  0.8672797E-01
         -1   -1    0    0    0  501 -0.00000000000E+00  0.00000000000E+00  0.64704041971E+03  0.64704041971E+03  0.00000000000E+00 0.  1.
          2   -1    0    0  501    0  0.00000000000E+00 -0.00000000000E+00 -0.13429915140E+04  0.13429915140E+04  0.00000000000E+00 0. -1.
         24    2    1    2    0    0  0.67810577199E+03 -0.20999461623E+03 -0.30206521106E+03  0.77552716362E+03  0.79207404552E+02 0.  0.
        254    2    1    2    0    0 -0.67810577199E+03  0.20999461623E+03 -0.39388588319E+03  0.12145047700E+04  0.90329982323E+03 0.  0.
         23    2    4    4    0    0 -0.33992634301E+03  0.55080808526E+03 -0.16178856923E+03  0.67346406855E+03  0.91863186553E+02 0.  0.
         23    2    4    4    0    0 -0.33817942898E+03 -0.34081346903E+03 -0.23209731396E+03  0.54104070150E+03  0.91305698998E+02 0.  0.
          2    1    3    3  502    0  0.50491536513E+03 -0.16919786677E+03 -0.19074232983E+03  0.56564130016E+03  0.00000000000E+00 0. -1.
         -1    1    3    3    0  502  0.17319040686E+03 -0.40796749457E+02 -0.11132288123E+03  0.20988586346E+03  0.00000000000E+00 0.  1.
         11    1    5    5    0    0 -0.33054924606E+03  0.50037082108E+03 -0.16524943107E+03  0.62204592847E+03  0.00000000000E+00 0. -1.
        -11    1    5    5    0    0 -0.93770969454E+01  0.50437264181E+02  0.34608618340E+01  0.51418140085E+02  0.00000000000E+00 0.  1.
          2    1    6    6  503    0 -0.33069795854E+03 -0.32189562762E+03 -0.23880386826E+03  0.51962026746E+03  0.00000000000E+00 0. -1.
         -2    1    6    6    0  503 -0.74814704400E+01 -0.18917841411E+02  0.67065542984E+01  0.21420434033E+02  0.00000000000E+00 0.  1.
<mgrwt>
<rscale>  0 0.18643710E+04</rscale>
<asrwt>0</asrwt>
<pdfrwt beam="1">  1        2 0.20661408E+00 0.18643710E+04</pdfrwt>
<pdfrwt beam="2">  1       -1 0.99544680E-01 0.18643710E+04</pdfrwt>
<totfact> 0.16093137E+01</totfact>
</mgrwt>
</event>
<event>
12    6  0.1540825E-007  0.1863883E+04  0.7818608E-02  0.8673046E-01
         -1   -1    0    0    0  501 -0.00000000000E+00  0.00000000000E+00  0.47770488401E+03  0.47770488401E+03  0.00000000000E+00 0.  1.
          2   -1    0    0  501    0  0.00000000000E+00 -0.00000000000E+00 -0.18180988920E+04  0.18180988920E+04  0.00000000000E+00 0. -1.
         24    2    1    2    0    0 -0.22230423533E+03 -0.51539442956E+03  0.30148609470E+01  0.56654830685E+03  0.76924011466E+02 0.  0.
        254    2    1    2    0    0  0.22230423533E+03  0.51539442956E+03 -0.13434088689E+04  0.17292554692E+04  0.93302009487E+03 0.  0.
         23    2    4    4    0    0  0.22979827070E+03  0.39126447100E+03 -0.96349207408E+02  0.47279891667E+03  0.91435848299E+02 0.  0.
         23    2    4    4    0    0 -0.74940353708E+01  0.12412995856E+03 -0.12470596615E+04  0.12564565525E+04  0.89782301745E+02 0.  0.
          4    1    3    3  502    0 -0.80738363251E+02 -0.24499831741E+03  0.32118577932E+02  0.25995088359E+03  0.00000000000E+00 0. -1.
         -3    1    3    3    0  502 -0.14156587207E+03 -0.27039611216E+03 -0.29103716985E+02  0.30659742326E+03  0.00000000000E+00 0.  1.
         11    1    5    5    0    0  0.26947793183E+02  0.12204155923E+03 -0.13736901664E+02  0.12573395804E+03  0.00000000000E+00 0. -1.
        -11    1    5    5    0    0  0.20285047751E+03  0.26922291177E+03 -0.82612305744E+02  0.34706495863E+03  0.00000000000E+00 0.  1.
          3    1    6    6  503    0  0.16016497065E+02  0.43632202045E+02 -0.17321971032E+03  0.17934705260E+03  0.00000000000E+00 0. -1.
         -3    1    6    6    0  503 -0.23510532436E+02  0.80497756515E+02 -0.10738399512E+04  0.10771094999E+04  0.00000000000E+00 0.  1.
<mgrwt>
<rscale>  0 0.18638827E+04</rscale>
<asrwt>0</asrwt>
<pdfrwt beam="1">  1        2 0.27970752E+00 0.18638827E+04</pdfrwt>
<pdfrwt beam="2">  1       -1 0.73493058E-01 0.18638827E+04</pdfrwt>
<totfact> 0.16823369E+01</totfact>
</mgrwt>
</event>
<event>
12    6  0.1540825E-007  0.1509096E+04  0.7818608E-02  0.8878426E-01
          2   -1    0    0  501    0  0.00000000000E+00  0.00000000000E+00  0.21953635059E+04  0.21953635059E+04  0.00000000000E+00 0. -1.
         -1   -1    0    0    0  501 -0.00000000000E+00 -0.00000000000E+00 -0.25933884957E+03  0.25933884957E+03  0.00000000000E+00 0.  1.
         24    2    1    2    0    0 -0.53468837571E+02  0.46528739200E+02 -0.14655248235E+03  0.18201694142E+03  0.81416808567E+02 0.  0.
        254    2    1    2    0    0  0.53468837571E+02 -0.46528739200E+02  0.20825771387E+04  0.22726854141E+04  0.90716460057E+03 0.  0.
         23    2    4    4    0    0  0.71381372704E+01  0.40676260893E+03  0.12685346725E+04  0.13354174764E+04  0.93020685145E+02 0.  0.
         23    2    4    4    0    0  0.46330700301E+02 -0.45329134813E+03  0.81404246617E+03  0.93726793766E+03  0.90479114503E+02 0.  0.
          2    1    3    3  502    0  0.81925162215E+01  0.36528434104E+02 -0.24017130203E+02  0.44477706362E+02  0.00000000000E+00 0. -1.
         -1    1    3    3    0  502 -0.61661353793E+02  0.10000305096E+02 -0.12253535215E+03  0.13753923506E+03  0.00000000000E+00 0.  1.
         11    1    5    5    0    0  0.46499547459E+02  0.22255132943E+03  0.63518309858E+03  0.67464721957E+03  0.00000000000E+00 0. -1.
        -11    1    5    5    0    0 -0.39361410189E+02  0.18421127950E+03  0.63335157396E+03  0.66077025685E+03  0.00000000000E+00 0.  1.
          3    1    6    6  503    0 -0.10712278380E+02 -0.29131665502E+03  0.54566009305E+03  0.61864778634E+03  0.00000000000E+00 0. -1.
         -3    1    6    6    0  503  0.57042978681E+02 -0.16197469311E+03  0.26838237312E+03  0.31862015132E+03  0.00000000000E+00 0.  1.
<mgrwt>
<rscale>  0 0.15090965E+04</rscale>
<asrwt>0</asrwt>
<pdfrwt beam="1">  1        2 0.33774822E+00 0.15090965E+04</pdfrwt>
<pdfrwt beam="2">  1       -1 0.39898286E-01 0.15090965E+04</pdfrwt>
<totfact> 0.34996091E+01</totfact>
</mgrwt>
</event>
<event>
12    6  0.1540825E-007  0.1477001E+04  0.7818608E-02  0.8899893E-01
         -3   -1    0    0    0  501 -0.00000000000E+00  0.00000000000E+00  0.33094014491E+03  0.33094014491E+03  0.00000000000E+00 0.  1.
          2   -1    0    0  501    0  0.00000000000E+00 -0.00000000000E+00 -0.16479804273E+04  0.16479804273E+04  0.00000000000E+00 0. -1.
         24    2    1    2    0    0  0.16694305046E+03 -0.21767325281E+03 -0.90051391240E+03  0.94503461939E+03  0.83147449336E+02 0.  0.
        254    2    1    2    0    0 -0.16694305046E+03  0.21767325281E+03 -0.41652636998E+03  0.10338859528E+04  0.90563476051E+03 0.  0.
         23    2    4    4    0    0 -0.19581754251E+03  0.47319053267E+03 -0.52761026141E+03  0.74081033829E+03  0.90407849283E+02 0.  0.
         23    2    4    4    0    0  0.28874492043E+02 -0.25551727986E+03  0.11108389143E+03  0.29307561452E+03  0.86202484249E+02 0.  0.
          4    1    3    3  502    0  0.47372105712E+02 -0.81106035498E+02 -0.44260083161E+03  0.45245751352E+03  0.00000000000E+00 0. -1.
         -3    1    3    3    0  502  0.11957094475E+03 -0.13656721731E+03 -0.45791308079E+03  0.49257710587E+03  0.00000000000E+00 0.  1.
         11    1    5    5    0    0 -0.15531856755E+03  0.25909931832E+03 -0.31166495685E+03  0.43404073485E+03  0.00000000000E+00 0. -1.
        -11    1    5    5    0    0 -0.40498974957E+02  0.21409121436E+03 -0.21594530455E+03  0.30676960344E+03  0.00000000000E+00 0.  1.
          2    1    6    6  503    0 -0.29947488093E+02 -0.66623145114E+02  0.23672266572E+02  0.76784579915E+02  0.00000000000E+00 0.  1.
         -2    1    6    6    0  503  0.58821980136E+02 -0.18889413475E+03  0.87411624856E+02  0.21629103460E+03  0.00000000000E+00 0. -1.
<mgrwt>
<rscale>  0 0.14770009E+04</rscale>
<asrwt>0</asrwt>
<pdfrwt beam="1">  1        2 0.25353545E+00 0.14770009E+04</pdfrwt>
<pdfrwt beam="2">  1       -3 0.50913868E-01 0.14770009E+04</pdfrwt>
<totfact> 0.24862715E+01</totfact>
</mgrwt>
</event>
<event>
12    6  0.1540825E-007  0.1566082E+04  0.7818608E-02  0.8841660E-01
          2   -1    0    0  501    0  0.00000000000E+00  0.00000000000E+00  0.13571386130E+04  0.13571386130E+04  0.00000000000E+00 0. -1.
         -1   -1    0    0    0  501 -0.00000000000E+00 -0.00000000000E+00 -0.45179871523E+03  0.45179871523E+03  0.00000000000E+00 0.  1.
         24    2    1    2    0    0  0.11033515895E+03  0.31396706575E+03  0.76209451135E+03  0.83556280644E+03  0.81412490463E+02 0.  0.
        254    2    1    2    0    0 -0.11033515895E+03 -0.31396706575E+03  0.14324538646E+03  0.97337452182E+03  0.90343209668E+03 0.  0.
         23    2    4    4    0    0  0.29600195092E+03 -0.42896390377E+03  0.53966392800E+02  0.53201865235E+03  0.92218703169E+02 0.  0.
         23    2    4    4    0    0 -0.40633710987E+03  0.11499683802E+03  0.89278993664E+02  0.44135586947E+03  0.92141983855E+02 0.  0.
          4    1    3    3  502    0  0.12106845828E+03  0.25953197230E+03  0.61704353209E+03  0.68026254985E+03  0.00000000000E+00 0. -1.
         -3    1    3    3    0  502 -0.10733299322E+02  0.54435093452E+02  0.14505097926E+03  0.15530025659E+03  0.00000000000E+00 0.  1.
         11    1    5    5    0    0  0.59320258982E+02 -0.16033256968E+03  0.91267642081E+01  0.17119790843E+03  0.00000000000E+00 0. -1.
        -11    1    5    5    0    0  0.23668169194E+03 -0.26863133409E+03  0.44839628592E+02  0.36082074393E+03  0.00000000000E+00 0.  1.
          4    1    6    6  503    0 -0.19748862813E+02 -0.34314705739E+01 -0.13510891729E+02  0.24173058723E+02  0.00000000000E+00 0. -1.
         -4    1    6    6    0  503 -0.38658824706E+03  0.11842830860E+03  0.10278988539E+03  0.41718281075E+03  0.00000000000E+00 0.  1.
<mgrwt>
<rscale>  0 0.15660824E+04</rscale>
<asrwt>0</asrwt>
<pdfrwt beam="1">  1        2 0.20879055E+00 0.15660824E+04</pdfrwt>
<pdfrwt beam="2">  1       -1 0.69507495E-01 0.15660824E+04</pdfrwt>
<totfact> 0.35135313E+01</totfact>
</mgrwt>
</event>
<event>
12    6  0.1540825E-007  0.1203187E+04  0.7818608E-02  0.9110071E-01
          2   -1    0    0  501    0  0.00000000000E+00  0.00000000000E+00  0.37110411132E+03  0.37110411132E+03  0.00000000000E+00 0. -1.
         -1   -1    0    0    0  501 -0.00000000000E+00 -0.00000000000E+00 -0.97523798607E+03  0.97523798607E+03  0.00000000000E+00 0.  1.
         24    2    1    2    0    0 -0.16720227650E+03  0.21338932918E+02 -0.34053404580E+03  0.38732729567E+03  0.75146831590E+02 0.  0.
        254    2    1    2    0    0  0.16720227650E+03 -0.21338932918E+02 -0.26359982895E+03  0.95901480172E+03  0.90653878503E+03 0.  0.
         23    2    4    4    0    0 -0.84384941114E+02 -0.35769435552E+03 -0.35548768795E+03  0.51954174685E+03  0.92119814249E+02 0.  0.
         23    2    4    4    0    0  0.25158721761E+03  0.33635542260E+03  0.91887859006E+02  0.43947305487E+03  0.90896033726E+02 0.  0.
          2    1    3    3  502    0 -0.75891111194E+02 -0.27446963855E+02 -0.13789585072E+03  0.15977503631E+03  0.00000000000E+00 0. -1.
         -1    1    3    3    0  502 -0.91311165307E+02  0.48785896773E+02 -0.20263819508E+03  0.22755225936E+03  0.00000000000E+00 0.  1.
         11    1    5    5    0    0 -0.21139942119E+02 -0.69909841170E+01 -0.16611121839E+02  0.27779495685E+02  0.00000000000E+00 0. -1.
        -11    1    5    5    0    0 -0.63244998994E+02 -0.35070337140E+03 -0.33887656611E+03  0.49176225116E+03  0.00000000000E+00 0.  1.
          4    1    6    6  503    0  0.44593746140E+02  0.59393303520E+02 -0.18450489980E+02  0.76528342974E+02  0.00000000000E+00 0. -1.
         -4    1    6    6    0  503  0.20699347147E+03  0.27696211908E+03  0.11033834899E+03  0.36294471190E+03  0.00000000000E+00 0.  1.
<mgrwt>
<rscale>  0 0.12031871E+04</rscale>
<asrwt>0</asrwt>
<pdfrwt beam="1">  1        2 0.57092940E-01 0.12031871E+04</pdfrwt>
<pdfrwt beam="2">  1       -1 0.15003661E+00 0.12031871E+04</pdfrwt>
<totfact> 0.34078556E+01</totfact>
</mgrwt>
</event>
<event>
12    6  0.1540825E-007  0.2136813E+04  0.7818608E-02  0.8545198E-01
         -1   -1    0    0    0  501 -0.00000000000E+00  0.00000000000E+00  0.39293076504E+03  0.39293076504E+03  0.00000000000E+00 0.  1.
          2   -1    0    0  501    0  0.00000000000E+00 -0.00000000000E+00 -0.29050720029E+04  0.29050720029E+04  0.00000000000E+00 0. -1.
         24    2    1    2    0    0  0.20360017683E+03 -0.65189670645E+03 -0.19242550341E+03  0.71405678988E+03  0.80169675804E+02 0.  0.
        254    2    1    2    0    0 -0.20360017683E+03  0.65189670645E+03 -0.23197157345E+04  0.25839459781E+04  0.91064448660E+03 0.  0.
         23    2    4    4    0    0 -0.11160082410E+03 -0.13387972814E+03 -0.83243190405E+02  0.20985205475E+03  0.82036154133E+02 0.  0.
         23    2    4    4    0    0 -0.91999352733E+02  0.78577643460E+03 -0.22364725441E+04  0.23740939234E+04  0.92757912664E+02 0.  0.
          2    1    3    3  502    0  0.10523152584E+02 -0.10750427875E+03 -0.10796948542E+02  0.10855634845E+03  0.00000000000E+00 0. -1.
         -1    1    3    3    0  502  0.19307702425E+03 -0.54439242770E+03 -0.18162855486E+03  0.60550044143E+03  0.00000000000E+00 0.  1.
         11    1    5    5    0    0 -0.76220028248E+02 -0.13086898627E+03 -0.45735044898E+02  0.15820201834E+03  0.00000000000E+00 0.  1.
        -11    1    5    5    0    0 -0.35380795849E+02 -0.30107418708E+01 -0.37508145507E+02  0.51650036408E+02  0.00000000000E+00 0. -1.
          4    1    6    6  503    0  0.11945253058E+01  0.10244387535E+02 -0.91914694525E+01  0.13815117711E+02  0.00000000000E+00 0. -1.
         -4    1    6    6    0  503 -0.93193878039E+02  0.77553204706E+03 -0.22272810746E+04  0.23602788056E+04  0.00000000000E+00 0.  1.
<mgrwt>
<rscale>  0 0.21368127E+04</rscale>
<asrwt>0</asrwt>
<pdfrwt beam="1">  1        2 0.44693415E+00 0.21368127E+04</pdfrwt>
<pdfrwt beam="2">  1       -1 0.60450887E-01 0.21368127E+04</pdfrwt>
<totfact> 0.57945659E+00</totfact>
</mgrwt>
</event>
<event>
12    6  0.1540825E-007  0.1458464E+04  0.7818608E-02  0.8912554E-01
         -1   -1    0    0    0  501 -0.00000000000E+00  0.00000000000E+00  0.12115052053E+04  0.12115052053E+04  0.00000000000E+00 0.  1.
          2   -1    0    0  501    0  0.00000000000E+00 -0.00000000000E+00 -0.43894092468E+03  0.43894092468E+03  0.00000000000E+00 0. -1.
         24    2    1    2    0    0  0.92351979877E+02  0.21853802569E+03  0.66115712216E+03  0.70693530292E+03  0.79630556186E+02 0.  0.
        254    2    1    2    0    0 -0.92351979877E+02 -0.21853802569E+03  0.11140715849E+03  0.94351082710E+03  0.90637374688E+03 0.  0.
         23    2    4    4    0    0 -0.97827988643E+01 -0.56100305377E+03  0.11998276995E+03  0.57980893040E+03  0.83441004306E+02 0.  0.
         23    2    4    4    0    0 -0.82569181013E+02  0.34246502808E+03 -0.85756114598E+01  0.36370189669E+03  0.90030902674E+02 0.  0.
          4    1    3    3  502    0  0.30342897133E+02  0.31980557072E+02  0.60035673185E+02  0.74483081917E+02  0.00000000000E+00 0. -1.
         -3    1    3    3    0  502  0.62009082745E+02  0.18655746862E+03  0.60112144897E+03  0.63245222101E+03  0.00000000000E+00 0.  1.
         11    1    5    5    0    0  0.19299894813E+02 -0.31918837444E+02  0.10254077682E+02  0.38683901467E+02  0.00000000000E+00 0. -1.
        -11    1    5    5    0    0 -0.29082693677E+02 -0.52908421632E+03  0.10972869227E+03  0.54112502894E+03  0.00000000000E+00 0.  1.
          3    1    6    6  503    0 -0.95563151005E+01  0.83553700396E+02 -0.39515220714E+02  0.92919301958E+02  0.00000000000E+00 0. -1.
         -3    1    6    6    0  503 -0.73012865913E+02  0.25891132768E+03  0.30939609254E+02  0.27078259474E+03  0.00000000000E+00 0.  1.
<mgrwt>
<rscale>  0 0.14584639E+04</rscale>
<asrwt>0</asrwt>
<pdfrwt beam="1">  1        2 0.67529374E-01 0.14584639E+04</pdfrwt>
<pdfrwt beam="2">  1       -1 0.18638541E+00 0.14584639E+04</pdfrwt>
<totfact> 0.14861632E+01</totfact>
</mgrwt>
</event>
<event>
12    6  0.1540825E-007  0.1282946E+04  0.7818608E-02  0.9043199E-01
          2   -1    0    0  501    0  0.00000000000E+00  0.00000000000E+00  0.45358106365E+03  0.45358106365E+03  0.00000000000E+00 0. -1.
         -1   -1    0    0    0  501 -0.00000000000E+00 -0.00000000000E+00 -0.90719795160E+03  0.90719795160E+03  0.00000000000E+00 0.  1.
         24    2    1    2    0    0  0.18698170578E+03  0.24632308758E+03 -0.58409525150E+02  0.32432936299E+03  0.78362244110E+02 0.  0.
        254    2    1    2    0    0 -0.18698170578E+03 -0.24632308758E+03 -0.39520736280E+03  0.10364496523E+04  0.90686371649E+03 0.  0.
         23    2    4    4    0    0 -0.45991028377E+03 -0.91698500903E+02 -0.50219949481E+03  0.69323336716E+03  0.91880817177E+02 0.  0.
         23    2    4    4    0    0  0.27292857799E+03 -0.15462458667E+03  0.10699213200E+03  0.34321628511E+03  0.89170233611E+02 0.  0.
          2    1    3    3  502    0  0.21246165199E+02  0.28802516199E+01  0.71782285403E+01  0.22610226669E+02  0.00000000000E+00 0. -1.
         -1    1    3    3    0  502  0.16573554058E+03  0.24344283596E+03 -0.65587753690E+02  0.30171913632E+03  0.00000000000E+00 0.  1.
         11    1    5    5    0    0 -0.24596952059E+03 -0.64523531373E+02 -0.33372871938E+03  0.41957019592E+03  0.00000000000E+00 0. -1.
        -11    1    5    5    0    0 -0.21394076319E+03 -0.27174969530E+02 -0.16847077542E+03  0.27366317124E+03  0.00000000000E+00 0.  1.
          1    1    6    6  503    0  0.12802499379E+03 -0.46000932251E+02  0.85914332320E+02  0.16089672868E+03  0.00000000000E+00 0. -1.
         -1    1    6    6    0  503  0.14490358421E+03 -0.10862365442E+03  0.21077799685E+02  0.18231955643E+03  0.00000000000E+00 0.  1.
<mgrwt>
<rscale>  0 0.12829463E+04</rscale>
<asrwt>0</asrwt>
<pdfrwt beam="1">  1        2 0.69781703E-01 0.12829463E+04</pdfrwt>
<pdfrwt beam="2">  1       -1 0.13956891E+00 0.12829463E+04</pdfrwt>
<totfact> 0.32697229E+01</totfact>
</mgrwt>
</event>
<event>
12    6  0.1540825E-007  0.1969160E+04  0.7818608E-02  0.8621176E-01
         -1   -1    0    0    0  501 -0.00000000000E+00  0.00000000000E+00  0.72043446947E+03  0.72043446947E+03  0.00000000000E+00 0.  1.
          2   -1    0    0  501    0  0.00000000000E+00 -0.00000000000E+00 -0.13455743195E+04  0.13455743195E+04  0.00000000000E+00 0. -1.
         24    2    1    2    0    0  0.14015214375E+02 -0.52984753945E+03  0.34999870216E+03  0.63769190583E+03  0.56718902996E+02 0.  0.
        254    2    1    2    0    0 -0.14015214375E+02  0.52984753945E+03 -0.97513855215E+03  0.14283168831E+04  0.89903230274E+03 0.  0.
         23    2    4    4    0    0 -0.11237794119E+03 -0.22733348115E+03 -0.32828320622E+03  0.42334943669E+03  0.84531465962E+02 0.  0.
         23    2    4    4    0    0  0.98362726813E+02  0.75718102060E+03 -0.64685534593E+03  0.10049674464E+04  0.92408905501E+02 0.  0.
          4    1    3    3  502    0 -0.60654090658E+01 -0.21743087744E+02  0.27367506781E+02  0.35475787224E+02  0.00000000000E+00 0. -1.
         -3    1    3    3    0  502  0.20080623441E+02 -0.50810445171E+03  0.32263119538E+03  0.60221611861E+03  0.00000000000E+00 0.  1.
         11    1    5    5    0    0 -0.86745825764E+02 -0.87822548017E+02 -0.17886004594E+03  0.21732131571E+03  0.00000000000E+00 0. -1.
        -11    1    5    5    0    0 -0.25632115425E+02 -0.13951093313E+03 -0.14942316028E+03  0.20602812098E+03  0.00000000000E+00 0.  1.
          1    1    6    6  503    0  0.11397984516E+03  0.58897755567E+03 -0.51588519314E+03  0.79121646765E+03  0.00000000000E+00 0. -1.
         -1    1    6    6    0  503 -0.15617118349E+02  0.16820346493E+03 -0.13097015279E+03  0.21375097877E+03  0.00000000000E+00 0.  1.
<mgrwt>
<rscale>  0 0.19691603E+04</rscale>
<asrwt>0</asrwt>
<pdfrwt beam="1">  1        2 0.20701143E+00 0.19691603E+04</pdfrwt>
<pdfrwt beam="2">  1       -1 0.11083607E+00 0.19691603E+04</pdfrwt>
<totfact> 0.12377303E+01</totfact>
</mgrwt>
</event>
<event>
12    6  0.1540825E-007  0.2511728E+04  0.7818608E-02  0.8398819E-01
         -1   -1    0    0    0  501 -0.00000000000E+00  0.00000000000E+00  0.63426679365E+03  0.63426679365E+03  0.00000000000E+00 0.  1.
          2   -1    0    0  501    0  0.00000000000E+00 -0.00000000000E+00 -0.24866413920E+04  0.24866413920E+04  0.00000000000E+00 0. -1.
         24    2    1    2    0    0  0.83457374760E+03 -0.12407327345E+02 -0.16874058542E+04  0.18842108643E+04  0.79023933957E+02 0.  0.
        254    2    1    2    0    0 -0.83457374760E+03  0.12407327345E+02 -0.16496874414E+03  0.12366973214E+04  0.89751785292E+03 0.  0.
         23    2    4    4    0    0 -0.22665590752E+03  0.30965186096E+03 -0.35243579800E+03  0.52853783967E+03  0.88792346773E+02 0.  0.
         23    2    4    4    0    0 -0.60791784008E+03 -0.29724453362E+03  0.18746705386E+03  0.70815948175E+03  0.91801646233E+02 0.  0.
          2    1    3    3  502    0  0.36023737972E+03 -0.39652999166E+02 -0.77284946650E+03  0.85360390578E+03  0.00000000000E+00 0. -1.
         -1    1    3    3    0  502  0.47433636788E+03  0.27245671822E+02 -0.91455638773E+03  0.10306069585E+04  0.00000000000E+00 0.  1.
         11    1    5    5    0    0 -0.10034343597E+03  0.83775455108E+02 -0.82443214890E+02  0.15454454278E+03  0.00000000000E+00 0. -1.
        -11    1    5    5    0    0 -0.12631247155E+03  0.22587640586E+03 -0.26999258311E+03  0.37399329690E+03  0.00000000000E+00 0.  1.
          3    1    6    6  503    0 -0.19474930950E+03 -0.12550496470E+03  0.29039698464E+02  0.23349966553E+03  0.00000000000E+00 0. -1.
         -3    1    6    6    0  503 -0.41316853058E+03 -0.17173956892E+03  0.15842735539E+03  0.47465981622E+03  0.00000000000E+00 0.  1.
<mgrwt>
<rscale>  0 0.25117277E+04</rscale>
<asrwt>0</asrwt>
<pdfrwt beam="1">  1        2 0.38256022E+00 0.25117277E+04</pdfrwt>
<pdfrwt beam="2">  1       -1 0.97579506E-01 0.25117277E+04</pdfrwt>
<totfact> 0.36188479E+00</totfact>
</mgrwt>
</event>
<event>
12    6  0.1540825E-007  0.1117155E+04  0.7818608E-02  0.9188631E-01
          2   -1    0    0  501    0  0.00000000000E+00  0.00000000000E+00  0.12159971787E+04  0.12159971787E+04  0.00000000000E+00 0. -1.
         -1   -1    0    0    0  501 -0.00000000000E+00 -0.00000000000E+00 -0.25658664335E+03  0.25658664335E+03  0.00000000000E+00 0.  1.
         24    2    1    2    0    0 -0.20885608192E+03  0.35796570517E+02  0.18147391377E+03  0.29020744777E+03  0.79908222007E+02 0.  0.
        254    2    1    2    0    0  0.20885608192E+03 -0.35796570517E+02  0.77793662155E+03  0.11823763742E+04  0.86482729248E+03 0.  0.
         23    2    4    4    0    0  0.33653086445E+02 -0.33379641431E+03  0.24252011811E+02  0.34863794343E+03  0.91693397190E+02 0.  0.
         23    2    4    4    0    0  0.17520299548E+03  0.29799984379E+03  0.75368460974E+03  0.83373843082E+03  0.87059080739E+02 0.  0.
          2    1    3    3  502    0 -0.17319197276E+02  0.38523983696E+01  0.56655959639E+02  0.59369127753E+02  0.00000000000E+00 0. -1.
         -1    1    3    3    0  502 -0.19153688465E+03  0.31944172148E+02  0.12481795413E+03  0.23083832002E+03  0.00000000000E+00 0.  1.
         11    1    5    5    0    0 -0.56589290513E+01 -0.79152195882E+02 -0.30869363489E+02  0.85146997558E+02  0.00000000000E+00 0.  1.
        -11    1    5    5    0    0  0.39312015496E+02 -0.25464421843E+03  0.55121375299E+02  0.26349094587E+03  0.00000000000E+00 0. -1.
          4    1    6    6  503    0  0.18427845641E+03  0.26918368126E+03  0.68574386297E+03  0.75938333492E+03  0.00000000000E+00 0. -1.
         -4    1    6    6    0  503 -0.90754609336E+01  0.28816162531E+02  0.67940746770E+02  0.74355095897E+02  0.00000000000E+00 0.  1.
<mgrwt>
<rscale>  0 0.11171547E+04</rscale>
<asrwt>0</asrwt>
<pdfrwt beam="1">  1        2 0.18707649E+00 0.11171547E+04</pdfrwt>
<pdfrwt beam="2">  1       -1 0.39474869E-01 0.11171547E+04</pdfrwt>
<totfact> 0.13061505E+02</totfact>
</mgrwt>
</event>
<event>
12    6  0.1540825E-007  0.2519675E+04  0.7818608E-02  0.8396009E-01
          2   -1    0    0  501    0  0.00000000000E+00  0.00000000000E+00  0.14305813376E+04  0.14305813376E+04  0.00000000000E+00 0. -1.
         -1   -1    0    0    0  501 -0.00000000000E+00 -0.00000000000E+00 -0.11094727745E+04  0.11094727745E+04  0.00000000000E+00 0.  1.
         24    2    1    2    0    0 -0.51681589544E+03  0.18497188726E+03  0.10984758691E+04  0.12307280766E+04  0.82031059095E+02 0.  0.
        254    2    1    2    0    0  0.51681589544E+03 -0.18497188726E+03 -0.77736730597E+03  0.13093260355E+04  0.89928942505E+03 0.  0.
         23    2    4    4    0    0  0.44285211075E+03  0.26532279533E+03 -0.18588232154E+03  0.55680440462E+03  0.94682257236E+02 0.  0.
         23    2    4    4    0    0  0.73963784690E+02 -0.45029468259E+03 -0.59148498443E+03  0.75252163088E+03  0.90544881275E+02 0.  0.
          4    1    3    3  502    0 -0.32520462087E+03  0.92473590156E+02  0.74550028897E+03  0.81858419919E+03  0.00000000000E+00 0. -1.
         -3    1    3    3    0  502 -0.19161127456E+03  0.92498297106E+02  0.35297558014E+03  0.41214387741E+03  0.00000000000E+00 0.  1.
         11    1    5    5    0    0  0.32004237622E+03  0.17372742046E+03 -0.17270644307E+03  0.40303331708E+03  0.00000000000E+00 0. -1.
        -11    1    5    5    0    0  0.12280973452E+03  0.91595374867E+02 -0.13175878464E+02  0.15377108754E+03  0.00000000000E+00 0.  1.
          1    1    6    6  503    0  0.44396687253E+02 -0.19729198656E+03 -0.19276362406E+03  0.27937968530E+03  0.00000000000E+00 0. -1.
         -1    1    6    6    0  503  0.29567097437E+02 -0.25300269603E+03 -0.39872136038E+03  0.47314194558E+03  0.00000000000E+00 0.  1.
<mgrwt>
<rscale>  0 0.25196754E+04</rscale>
<asrwt>0</asrwt>
<pdfrwt beam="1">  1        2 0.22008944E+00 0.25196754E+04</pdfrwt>
<pdfrwt beam="2">  1       -1 0.17068812E+00 0.25196754E+04</pdfrwt>
<totfact> 0.34292011E+00</totfact>
</mgrwt>
</event>
<event>
12    6  0.1540825E-007  0.1416816E+04  0.7818608E-02  0.8941735E-01
          2   -1    0    0  501    0  0.00000000000E+00  0.00000000000E+00  0.10942612352E+04  0.10942612352E+04  0.00000000000E+00 0. -1.
         -1   -1    0    0    0  501 -0.00000000000E+00 -0.00000000000E+00 -0.45861268926E+03  0.45861268926E+03  0.00000000000E+00 0.  1.
         24    2    1    2    0    0  0.56784285149E+02  0.41363048249E+03  0.36623095175E+03  0.56108491106E+03  0.79853217328E+02 0.  0.
        254    2    1    2    0    0 -0.56784285149E+02 -0.41363048249E+03  0.26941759421E+03  0.99178901340E+03  0.85833849730E+03 0.  0.
         23    2    4    4    0    0 -0.40140875129E+03 -0.32558795176E+02  0.20724859207E+02  0.41328606551E+03  0.90480889658E+02 0.  0.
         23    2    4    4    0    0  0.34462446615E+03 -0.38107168732E+03  0.24869273500E+03  0.57850294790E+03  0.93999631608E+02 0.  0.
          4    1    3    3  502    0  0.19269836055E+02  0.19751402584E+02  0.38218651091E+02  0.47139259400E+02  0.00000000000E+00 0. -1.
         -3    1    3    3    0  502  0.37514449094E+02  0.39387907991E+03  0.32801230065E+03  0.51394565166E+03  0.00000000000E+00 0.  1.
         11    1    5    5    0    0 -0.29351465029E+02 -0.27721756891E+02 -0.26784716423E+01  0.40462062661E+02  0.00000000000E+00 0.  1.
        -11    1    5    5    0    0 -0.37205728627E+03 -0.48370382852E+01  0.23403330849E+02  0.37282400284E+03  0.00000000000E+00 0. -1.
          2    1    6    6  503    0  0.34057541648E+03 -0.37130340546E+03  0.22351681096E+03  0.55119651486E+03  0.00000000000E+00 0. -1.
         -2    1    6    6    0  503  0.40490496668E+01 -0.97682818559E+01  0.25175924042E+02  0.27306433033E+02  0.00000000000E+00 0.  1.
<mgrwt>
<rscale>  0 0.14168163E+04</rscale>
<asrwt>0</asrwt>
<pdfrwt beam="1">  1        2 0.16834788E+00 0.14168163E+04</pdfrwt>
<pdfrwt beam="2">  1       -1 0.70555798E-01 0.14168163E+04</pdfrwt>
<totfact> 0.49442591E+01</totfact>
</mgrwt>
</event>
<event>
12    6  0.1540825E-007  0.1434839E+04  0.7818608E-02  0.8928979E-01
          2   -1    0    0  501    0  0.00000000000E+00  0.00000000000E+00  0.76789275123E+03  0.76789275123E+03  0.00000000000E+00 0. -1.
         -1   -1    0    0    0  501 -0.00000000000E+00 -0.00000000000E+00 -0.67026376792E+03  0.67026376792E+03  0.00000000000E+00 0.  1.
         24    2    1    2    0    0  0.43627030742E+03  0.28249861174E+02  0.46628777768E+01  0.44377462988E+03  0.76054874290E+02 0.  0.
        254    2    1    2    0    0 -0.43627030742E+03 -0.28249861174E+02  0.92966105535E+02  0.99438188926E+03  0.88826955881E+03 0.  0.
         23    2    4    4    0    0 -0.63079176014E+03 -0.24464001993E+03  0.48861237295E+02  0.68448413865E+03  0.91564903438E+02 0.  0.
         23    2    4    4    0    0  0.19452145271E+03  0.21639015876E+03  0.44104868240E+02  0.30989775061E+03  0.97098300997E+02 0.  0.
          2    1    3    3  502    0  0.14511756509E+03  0.14043147872E+02 -0.34042384316E+02  0.14971707194E+03  0.00000000000E+00 0. -1.
         -1    1    3    3    0  502  0.29115274233E+03  0.14206713302E+02  0.38705262093E+02  0.29405755794E+03  0.00000000000E+00 0.  1.
         11    1    5    5    0    0 -0.53307366317E+02  0.24087739378E+01 -0.73455706330E+01  0.53864969168E+02  0.00000000000E+00 0.  1.
        -11    1    5    5    0    0 -0.57748439382E+03 -0.24704879387E+03  0.56206807928E+02  0.63061916948E+03  0.00000000000E+00 0. -1.
          4    1    6    6  503    0  0.17280346725E+03  0.17013980496E+03  0.70285970240E+02  0.25248506716E+03  0.00000000000E+00 0. -1.
         -4    1    6    6    0  503  0.21717985464E+02  0.46250353796E+02 -0.26181102000E+02  0.57412683449E+02  0.00000000000E+00 0.  1.
<mgrwt>
<rscale>  0 0.14348389E+04</rscale>
<asrwt>0</asrwt>
<pdfrwt beam="1">  1        2 0.11813735E+00 0.14348389E+04</pdfrwt>
<pdfrwt beam="2">  1       -1 0.10311750E+00 0.14348389E+04</pdfrwt>
<totfact> 0.35809462E+01</totfact>
</mgrwt>
</event>
<event>
12    6  0.1540825E-007  0.1481287E+04  0.7818608E-02  0.8896993E-01
          2   -1    0    0  501    0  0.00000000000E+00  0.00000000000E+00  0.15994213603E+04  0.15994213603E+04  0.00000000000E+00 0. -1.
         -1   -1    0    0    0  501 -0.00000000000E+00 -0.00000000000E+00 -0.34296960594E+03  0.34296960594E+03  0.00000000000E+00 0.  1.
         24    2    1    2    0    0 -0.28899333105E+03  0.34519453772E+03  0.25726163463E+03  0.52440322904E+03  0.78350390659E+02 0.  0.
        254    2    1    2    0    0  0.28899333105E+03 -0.34519453772E+03  0.99919011972E+03  0.14179877372E+04  0.89979548411E+03 0.  0.
         23    2    4    4    0    0 -0.59980600254E+02 -0.98862437582E+02  0.96833875894E+03  0.97959302709E+03  0.92472118492E+02 0.  0.
         23    2    4    4    0    0  0.34897393130E+03 -0.24633210014E+03  0.30851360785E+02  0.43839471010E+03  0.93679277838E+02 0.  0.
          4    1    3    3  502    0 -0.18660116954E+03  0.26090570981E+03  0.15135595737E+03  0.35468353742E+03  0.00000000000E+00 0. -1.
         -3    1    3    3    0  502 -0.10239216151E+03  0.84288827909E+02  0.10590567726E+03  0.16971969162E+03  0.00000000000E+00 0.  1.
         11    1    5    5    0    0 -0.98846559436E+01  0.14274922705E+02  0.49420471913E+02  0.52381894634E+02  0.00000000000E+00 0. -1.
        -11    1    5    5    0    0 -0.50095944310E+02 -0.11313736029E+03  0.91891828702E+03  0.92721113246E+03  0.00000000000E+00 0.  1.
          4    1    6    6  503    0  0.91015867294E+02 -0.11772128385E+03  0.17726420866E+02  0.14985464546E+03  0.00000000000E+00 0. -1.
         -4    1    6    6    0  503  0.25795806401E+03 -0.12861081629E+03  0.13124939919E+02  0.28854006464E+03  0.00000000000E+00 0.  1.
<mgrwt>
<rscale>  0 0.14812872E+04</rscale>
<asrwt>0</asrwt>
<pdfrwt beam="1">  1        2 0.24606482E+00 0.14812872E+04</pdfrwt>
<pdfrwt beam="2">  1       -1 0.52764556E-01 0.14812872E+04</pdfrwt>
<totfact> 0.44538002E+01</totfact>
</mgrwt>
</event>
<event>
12    6  0.1540825E-007  0.1360635E+04  0.7818608E-02  0.8982816E-01
          2   -1    0    0  501    0  0.00000000000E+00  0.00000000000E+00  0.88101752966E+03  0.88101752966E+03  0.00000000000E+00 0. -1.
         -1   -1    0    0    0  501 -0.00000000000E+00 -0.00000000000E+00 -0.52533790195E+03  0.52533790195E+03  0.00000000000E+00 0.  1.
         24    2    1    2    0    0  0.95353825394E+02 -0.19758587847E+03  0.40868145953E+03  0.47054634205E+03  0.79125174634E+02 0.  0.
        254    2    1    2    0    0 -0.95353825394E+02  0.19758587847E+03 -0.53001831823E+02  0.93580908955E+03  0.90818331108E+03 0.  0.
         23    2    4    4    0    0  0.32931377343E+03  0.29284334254E+03 -0.16270879921E+03  0.47839317874E+03  0.90449408425E+02 0.  0.
         23    2    4    4    0    0 -0.42466759882E+03 -0.95257464070E+02  0.10970696739E+03  0.45741591082E+03  0.88188110444E+02 0.  0.
          2    1    3    3  502    0  0.10483826087E+03 -0.19207445526E+03  0.36553768103E+03  0.42602987402E+03  0.00000000000E+00 0. -1.
         -1    1    3    3    0  502 -0.94844354730E+01 -0.55114232050E+01  0.43143778500E+02  0.44516468023E+02  0.00000000000E+00 0.  1.
         11    1    5    5    0    0  0.10079250773E+03  0.13960480533E+03 -0.38124128833E+02  0.17635781946E+03  0.00000000000E+00 0.  1.
        -11    1    5    5    0    0  0.22852126569E+03  0.15323853721E+03 -0.12458467038E+03  0.30203535928E+03  0.00000000000E+00 0. -1.
          3    1    6    6  503    0 -0.42527048295E+03 -0.99388782437E+02  0.11406568508E+03  0.45138021031E+03  0.00000000000E+00 0. -1.
         -3    1    6    6    0  503  0.60288412747E+00  0.41313183664E+01 -0.43587176937E+01  0.60357005102E+01  0.00000000000E+00 0.  1.
<mgrwt>
<rscale>  0 0.13606350E+04</rscale>
<asrwt>0</asrwt>
<pdfrwt beam="1">  1        2 0.13554116E+00 0.13606350E+04</pdfrwt>
<pdfrwt beam="2">  1       -1 0.80821216E-01 0.13606350E+04</pdfrwt>
<totfact> 0.51378636E+01</totfact>
</mgrwt>
</event>
<event>
12    6  0.1540825E-007  0.1286600E+04  0.7818608E-02  0.9040260E-01
         -1   -1    0    0    0  501 -0.00000000000E+00  0.00000000000E+00  0.24860873304E+03  0.24860873304E+03  0.00000000000E+00 0.  1.
          2   -1    0    0  501    0  0.00000000000E+00 -0.00000000000E+00 -0.16646024531E+04  0.16646024531E+04  0.00000000000E+00 0. -1.
         24    2    1    2    0    0  0.30499989034E+03  0.32438741447E+02 -0.50550731181E+03  0.59668891715E+03  0.80142476248E+02 0.  0.
        254    2    1    2    0    0 -0.30499989034E+03 -0.32438741447E+02 -0.91048640823E+03  0.13165222690E+04  0.90009342853E+03 0.  0.
         23    2    4    4    0    0 -0.20561138653E+03 -0.43705877909E+03 -0.31384262390E+03  0.58308577978E+03  0.90528533337E+02 0.  0.
         23    2    4    4    0    0 -0.99388503817E+02  0.40462003765E+03 -0.59664378432E+03  0.73343648919E+03  0.91377397416E+02 0.  0.
          4    1    3    3  502    0  0.21858674628E+03  0.50397595247E+02 -0.40463927041E+03  0.46265864567E+03  0.00000000000E+00 0. -1.
         -3    1    3    3    0  502  0.86413144061E+02 -0.17958853800E+02 -0.10086804140E+03  0.13403027148E+03  0.00000000000E+00 0.  1.
         11    1    5    5    0    0  0.23847037043E+01 -0.12537841317E+02 -0.27687053655E+02  0.30487000783E+02  0.00000000000E+00 0.  1.
        -11    1    5    5    0    0 -0.20799609023E+03 -0.42452093778E+03 -0.28615557025E+03  0.55259877899E+03  0.00000000000E+00 0. -1.
          4    1    6    6  503    0 -0.53809676740E+02  0.35460086356E+03 -0.49313510740E+03  0.60977002870E+03  0.00000000000E+00 0. -1.
         -4    1    6    6    0  503 -0.45578827076E+02  0.50019174087E+02 -0.10350867692E+03  0.12366646050E+03  0.00000000000E+00 0.  1.
<mgrwt>
<rscale>  0 0.12865997E+04</rscale>
<asrwt>0</asrwt>
<pdfrwt beam="1">  1        2 0.25609268E+00 0.12865997E+04</pdfrwt>
<pdfrwt beam="2">  1       -1 0.38247499E-01 0.12865997E+04</pdfrwt>
<totfact> 0.75811339E+01</totfact>
</mgrwt>
</event>
<event>
12    6  0.1810898E-007  0.2023682E+04  0.7818608E-02  0.8595628E-01
         -1   -1    0    0    0  501 -0.00000000000E+00  0.00000000000E+00  0.49221663069E+03  0.49221663069E+03  0.00000000000E+00 0.  1.
          2   -1    0    0  501    0  0.00000000000E+00 -0.00000000000E+00 -0.20800236211E+04  0.20800236211E+04  0.00000000000E+00 0. -1.
         24    2    1    2    0    0  0.57384545819E+03 -0.41293841145E+03 -0.11310668863E+04  0.13361929903E+04  0.79263261681E+02 0.  0.
        254    2    1    2    0    0 -0.57384545819E+03  0.41293841145E+03 -0.45674010412E+03  0.12360472614E+04  0.90519863470E+03 0.  0.
         23    2    4    4    0    0  0.16303202363E+03 -0.12544122064E+03 -0.37691216799E+02  0.22775919108E+03  0.90214637016E+02 0.  0.
         23    2    4    4    0    0 -0.73687748183E+03  0.53837963209E+03 -0.41904888732E+03  0.10082880704E+04  0.90563852544E+02 0.  0.
          2    1    3    3  502    0  0.45395358666E+03 -0.33451765006E+03 -0.95673480314E+03  0.11105482432E+04  0.00000000000E+00 0. -1.
         -1    1    3    3    0  502  0.11989187154E+03 -0.78420761386E+02 -0.17433208312E+03  0.22564474707E+03  0.00000000000E+00 0.  1.
         11    1    5    5    0    0  0.19327689124E+02 -0.15505968287E+02 -0.39719606442E+02  0.46814973623E+02  0.00000000000E+00 0. -1.
        -11    1    5    5    0    0  0.14370433451E+03 -0.10993525235E+03  0.20283896431E+01  0.18094421746E+03  0.00000000000E+00 0.  1.
          1    1    6    6  503    0 -0.57160747832E+02  0.50977585368E+02 -0.10080995031E+02  0.77250836652E+02  0.00000000000E+00 0. -1.
         -1    1    6    6    0  503 -0.67971673400E+03  0.48740204672E+03 -0.40896789229E+03  0.93103723371E+03  0.00000000000E+00 0.  1.
<mgrwt>
<rscale>  0 0.20236820E+04</rscale>
<asrwt>0</asrwt>
<pdfrwt beam="1">  1        2 0.32000363E+00 0.20236820E+04</pdfrwt>
<pdfrwt beam="2">  1       -1 0.75725637E-01 0.20236820E+04</pdfrwt>
<totfact> 0.11151267E+01</totfact>
</mgrwt>
</event>
<event>
12    6  0.1540825E-007  0.1029549E+04  0.7818608E-02  0.9276717E-01
         -1   -1    0    0    0  501 -0.00000000000E+00  0.00000000000E+00  0.26222435468E+03  0.26222435468E+03  0.00000000000E+00 0.  1.
          2   -1    0    0  501    0  0.00000000000E+00 -0.00000000000E+00 -0.10105568372E+04  0.10105568372E+04  0.00000000000E+00 0. -1.
         24    2    1    2    0    0  0.47027947107E+02 -0.86397251752E+02 -0.16283961215E+03  0.20683627312E+03  0.81168908285E+02 0.  0.
        254    2    1    2    0    0 -0.47027947107E+02  0.86397251752E+02 -0.58549287034E+03  0.10659449187E+04  0.88530252209E+03 0.  0.
         23    2    4    4    0    0  0.82908723434E+02  0.20507905009E+03  0.16509439297E+03  0.29055674048E+03  0.90751240412E+02 0.  0.
         23    2    4    4    0    0 -0.12993667054E+03 -0.11868179834E+03 -0.75058726332E+03  0.77538817825E+03  0.82925746973E+02 0.  0.
          4    1    3    3  502    0  0.46618377557E+01 -0.45198985560E+02 -0.13317591812E+03  0.14071427147E+03  0.00000000000E+00 0. -1.
         -3    1    3    3    0  502  0.42366109351E+02 -0.41198266192E+02 -0.29663694029E+02  0.66122001650E+02  0.00000000000E+00 0.  1.
         11    1    5    5    0    0  0.78376696927E+02  0.80683544621E+02  0.59101510716E+02  0.12706584735E+03  0.00000000000E+00 0.  1.
        -11    1    5    5    0    0  0.45320265063E+01  0.12439550547E+03  0.10599288226E+03  0.16349089313E+03  0.00000000000E+00 0. -1.
          4    1    6    6  503    0 -0.48999476998E+02 -0.52633558867E+02 -0.47961579749E+03  0.48497685869E+03  0.00000000000E+00 0. -1.
         -4    1    6    6    0  503 -0.80937193542E+02 -0.66048239473E+02 -0.27097146582E+03  0.29041131956E+03  0.00000000000E+00 0.  1.
<mgrwt>
<rscale>  0 0.10295487E+04</rscale>
<asrwt>0</asrwt>
<pdfrwt beam="1">  1        2 0.15547028E+00 0.10295487E+04</pdfrwt>
<pdfrwt beam="2">  1       -1 0.40342209E-01 0.10295487E+04</pdfrwt>
<totfact> 0.16886813E+02</totfact>
</mgrwt>
</event>
<event>
12    6  0.1540825E-007  0.1788789E+04  0.7818608E-02  0.8712284E-01
          2   -1    0    0  501    0  0.00000000000E+00  0.00000000000E+00  0.12446006268E+04  0.12446006268E+04  0.00000000000E+00 0. -1.
         -3   -1    0    0    0  501 -0.00000000000E+00 -0.00000000000E+00 -0.64272948618E+03  0.64272948618E+03  0.00000000000E+00 0.  1.
         24    2    1    2    0    0 -0.28472590130E+03 -0.17545860300E+03 -0.38187677683E+03  0.51204048258E+03  0.67089663020E+02 0.  0.
        254    2    1    2    0    0  0.28472590130E+03  0.17545860300E+03  0.98374791744E+03  0.13752896304E+04  0.90100335302E+03 0.  0.
         23    2    4    4    0    0 -0.17220105754E+03 -0.14878871283E+01  0.83172329702E+03  0.85413771504E+03  0.90178575241E+02 0.  0.
         23    2    4    4    0    0  0.45692695884E+03  0.17694649013E+03  0.15202462042E+03  0.52115191535E+03  0.91627111584E+02 0.  0.
          4    1    3    3  502    0 -0.13103941293E+03 -0.92241678860E+02 -0.23107319346E+03  0.28120219736E+03  0.00000000000E+00 0. -1.
         -3    1    3    3    0  502 -0.15368648837E+03 -0.83216924138E+02 -0.15080358336E+03  0.23083828522E+03  0.00000000000E+00 0.  1.
         11    1    5    5    0    0 -0.81191027489E+01  0.25934347703E+02  0.14738708594E+03  0.14987148935E+03  0.00000000000E+00 0. -1.
        -11    1    5    5    0    0 -0.16408195479E+03 -0.27422234831E+02  0.68433621108E+03  0.70426622569E+03  0.00000000000E+00 0.  1.
          1    1    6    6  503    0  0.25652465423E+03  0.78313614360E+02  0.12582881768E+03  0.29626139097E+03  0.00000000000E+00 0. -1.
         -1    1    6    6    0  503  0.20040230461E+03  0.98632875766E+02  0.26195802747E+02  0.22489052438E+03  0.00000000000E+00 0.  1.
<mgrwt>
<rscale>  0 0.17887890E+04</rscale>
<asrwt>0</asrwt>
<pdfrwt beam="1">  1        2 0.19147702E+00 0.17887890E+04</pdfrwt>
<pdfrwt beam="2">  1       -3 0.98881459E-01 0.17887890E+04</pdfrwt>
<totfact> 0.95957934E+00</totfact>
</mgrwt>
</event>
<event>
12    6  0.1540825E-007  0.1705905E+04  0.7818608E-02  0.8758004E-01
          2   -1    0    0  501    0  0.00000000000E+00  0.00000000000E+00  0.22911900016E+04  0.22911900016E+04  0.00000000000E+00 0. -1.
         -1   -1    0    0    0  501 -0.00000000000E+00 -0.00000000000E+00 -0.31753281069E+03  0.31753281069E+03  0.00000000000E+00 0.  1.
         24    2    1    2    0    0 -0.14031010701E+03 -0.45718143683E+03  0.12621824738E+04  0.13521689868E+04  0.80960357461E+02 0.  0.
        254    2    1    2    0    0  0.14031010701E+03  0.45718143683E+03  0.71147471715E+03  0.12565538255E+04  0.91871075476E+03 0.  0.
         23    2    4    4    0    0 -0.57526185184E+01  0.66123574640E+03  0.22957035211E+03  0.70603023320E+03  0.92251496960E+02 0.  0.
         23    2    4    4    0    0  0.14606272553E+03 -0.20405430958E+03  0.48190436504E+03  0.55052359229E+03  0.88723883924E+02 0.  0.
          2    1    3    3  502    0 -0.58407546196E+02 -0.23293028887E+03  0.74022353570E+03  0.77820231542E+03  0.00000000000E+00 0. -1.
         -1    1    3    3    0  502 -0.81902560814E+02 -0.22425114795E+03  0.52195893807E+03  0.57396667138E+03  0.00000000000E+00 0.  1.
         11    1    5    5    0    0 -0.23120838313E+02  0.11726142755E+03  0.12816321432E+02  0.12020429963E+03  0.00000000000E+00 0. -1.
        -11    1    5    5    0    0  0.17368219795E+02  0.54397431885E+03  0.21675403068E+03  0.58582593357E+03  0.00000000000E+00 0.  1.
          1    1    6    6  503    0  0.63918755341E+02 -0.77244931190E+02  0.28638491300E+03  0.30342825358E+03  0.00000000000E+00 0. -1.
         -1    1    6    6    0  503  0.82143970187E+02 -0.12680937839E+03  0.19551945204E+03  0.24709533871E+03  0.00000000000E+00 0.  1.
<mgrwt>
<rscale>  0 0.17059050E+04</rscale>
<asrwt>0</asrwt>
<pdfrwt beam="1">  1        2 0.35249076E+00 0.17059050E+04</pdfrwt>
<pdfrwt beam="2">  1       -1 0.48851203E-01 0.17059050E+04</pdfrwt>
<totfact> 0.20855656E+01</totfact>
</mgrwt>
</event>
<event>
12    6  0.1540825E-007  0.2220760E+04  0.7818608E-02  0.8509837E-01
         -1   -1    0    0    0  501 -0.00000000000E+00  0.00000000000E+00  0.68748217353E+03  0.68748217353E+03  0.00000000000E+00 0.  1.
          2   -1    0    0  501    0  0.00000000000E+00 -0.00000000000E+00 -0.17934186733E+04  0.17934186733E+04  0.00000000000E+00 0. -1.
         24    2    1    2    0    0 -0.38995130179E+02  0.42700467221E+03  0.45612534771E+03  0.63066626488E+03  0.76393681498E+02 0.  0.
        254    2    1    2    0    0  0.38995130179E+02 -0.42700467221E+03 -0.15620618475E+04  0.18502345819E+04  0.89413487942E+03 0.  0.
         23    2    4    4    0    0 -0.33465812329E+03 -0.42456387026E+03 -0.12093575604E+04  0.13278753187E+04  0.91959849101E+02 0.  0.
         23    2    4    4    0    0  0.37365325346E+03 -0.24408019497E+01 -0.35270428710E+03  0.52235926320E+03  0.94000927548E+02 0.  0.
          2    1    3    3  502    0  0.13770926340E+02  0.20600776605E+02  0.36550279972E+02  0.44158276405E+02  0.00000000000E+00 0. -1.
         -1    1    3    3    0  502 -0.52766056519E+02  0.40640389560E+03  0.41957506774E+03  0.58650798848E+03  0.00000000000E+00 0.  1.
         11    1    5    5    0    0 -0.36223521312E+02 -0.10522704840E+03 -0.24560732579E+03  0.26964390164E+03  0.00000000000E+00 0.  1.
        -11    1    5    5    0    0 -0.29843460197E+03 -0.31933682186E+03 -0.96375023457E+03  0.10582314171E+04  0.00000000000E+00 0. -1.
          1    1    6    6  503    0  0.27137191189E+03 -0.29370865820E+02 -0.29486833418E+03  0.40181176790E+03  0.00000000000E+00 0. -1.
         -1    1    6    6    0  503  0.10228134157E+03  0.26930063870E+02 -0.57835952919E+02  0.12054749530E+03  0.00000000000E+00 0.  1.
<mgrwt>
<rscale>  0 0.22207597E+04</rscale>
<asrwt>0</asrwt>
<pdfrwt beam="1">  1        2 0.27591056E+00 0.22207597E+04</pdfrwt>
<pdfrwt beam="2">  1       -1 0.10576649E+00 0.22207597E+04</pdfrwt>
<totfact> 0.75665868E+00</totfact>
</mgrwt>
</event>
<event>
12    6  0.1540825E-007  0.1310699E+04  0.7818608E-02  0.9021123E-01
          2   -1    0    0  501    0  0.00000000000E+00  0.00000000000E+00  0.59742236904E+03  0.59742236904E+03  0.00000000000E+00 0. -1.
         -1   -1    0    0    0  501 -0.00000000000E+00 -0.00000000000E+00 -0.71889388273E+03  0.71889388273E+03  0.00000000000E+00 0.  1.
         24    2    1    2    0    0 -0.26051488847E+02 -0.34599911347E+03 -0.75662521006E+01  0.35629235314E+03  0.80578695327E+02 0.  0.
        254    2    1    2    0    0  0.26051488847E+02  0.34599911347E+03 -0.11390526159E+03  0.96002389864E+03  0.88784988075E+03 0.  0.
         23    2    4    4    0    0 -0.32977693350E+03 -0.68084426604E+02  0.10790971854E+03  0.36409514425E+03  0.86789698094E+02 0.  0.
         23    2    4    4    0    0  0.35582842235E+03  0.41408354008E+03 -0.22181498013E+03  0.59592875439E+03  0.88601075522E+02 0.  0.
          4    1    3    3  502    0  0.23846029062E+02 -0.66053893919E+02  0.12077231065E+02  0.71257347088E+02  0.00000000000E+00 0. -1.
         -3    1    3    3    0  502 -0.49897517909E+02 -0.27994521955E+03 -0.19643483165E+02  0.28503500605E+03  0.00000000000E+00 0.  1.
         11    1    5    5    0    0 -0.98587025703E+01  0.14305881331E+02  0.58434324751E+01  0.18330247138E+02  0.00000000000E+00 0. -1.
        -11    1    5    5    0    0 -0.31991823093E+03 -0.82390307936E+02  0.10206628606E+03  0.34576489711E+03  0.00000000000E+00 0.  1.
          1    1    6    6  503    0  0.18096699429E+02  0.20941828566E+02  0.82373930169E+01  0.28877419511E+02  0.00000000000E+00 0. -1.
         -1    1    6    6    0  503  0.33773172292E+03  0.39314171151E+03 -0.23005237315E+03  0.56705133488E+03  0.00000000000E+00 0.  1.
<mgrwt>
<rscale>  0 0.13106995E+04</rscale>
<asrwt>0</asrwt>
<pdfrwt beam="1">  1        2 0.91911133E-01 0.13106995E+04</pdfrwt>
<pdfrwt beam="2">  1       -1 0.11059906E+00 0.13106995E+04</pdfrwt>
<totfact> 0.42065136E+01</totfact>
</mgrwt>
</event>
<event>
12    6  0.1540825E-007  0.1748062E+04  0.7818608E-02  0.8734418E-01
         -1   -1    0    0    0  501 -0.00000000000E+00  0.00000000000E+00  0.60410287661E+03  0.60410287661E+03  0.00000000000E+00 0.  1.
          2   -1    0    0  501    0  0.00000000000E+00 -0.00000000000E+00 -0.12645701135E+04  0.12645701135E+04  0.00000000000E+00 0. -1.
         24    2    1    2    0    0  0.30973085481E+03 -0.29003094921E+03 -0.74497865952E+03  0.86047874304E+03  0.73343780743E+02 0.  0.
        254    2    1    2    0    0 -0.30973085481E+03  0.29003094921E+03  0.84511422599E+02  0.10081942471E+04  0.91063840540E+03 0.  0.
         23    2    4    4    0    0 -0.35698034518E+03  0.58510854165E+03  0.38114030221E+02  0.69235690308E+03  0.90102328432E+02 0.  0.
         23    2    4    4    0    0  0.47249490368E+02 -0.29507759244E+03  0.46397392378E+02  0.31583734401E+03  0.91089022123E+02 0.  0.
          2    1    3    3  502    0  0.19378869014E+03 -0.21750899763E+03 -0.46178806715E+03  0.54599673940E+03  0.00000000000E+00 0. -1.
         -1    1    3    3    0  502  0.11594216467E+03 -0.72521951583E+02 -0.28319059237E+03  0.31448200364E+03  0.00000000000E+00 0.  1.
         11    1    5    5    0    0 -0.52979752383E+02  0.50127402940E+02  0.24309082955E+02  0.76880050743E+02  0.00000000000E+00 0. -1.
        -11    1    5    5    0    0 -0.30400059279E+03  0.53498113871E+03  0.13804947266E+02  0.61547685234E+03  0.00000000000E+00 0.  1.
          2    1    6    6  503    0 -0.23039762631E+02 -0.30786561366E+02  0.11247862071E-01  0.38453129253E+02  0.00000000000E+00 0. -1.
         -2    1    6    6    0  503  0.70289252998E+02 -0.26429103107E+03  0.46386144516E+02  0.27738421476E+03  0.00000000000E+00 0.  1.
<mgrwt>
<rscale>  0 0.17480623E+04</rscale>
<asrwt>0</asrwt>
<pdfrwt beam="1">  1        2 0.19454925E+00 0.17480623E+04</pdfrwt>
<pdfrwt beam="2">  1       -1 0.92938905E-01 0.17480623E+04</pdfrwt>
<totfact> 0.21080891E+01</totfact>
</mgrwt>
</event>
<event>
12    6  0.1540825E-007  0.1283358E+04  0.7818608E-02  0.9042867E-01
          2   -1    0    0  501    0  0.00000000000E+00  0.00000000000E+00  0.87889267926E+03  0.87889267926E+03  0.00000000000E+00 0. -1.
         -1   -1    0    0    0  501 -0.00000000000E+00 -0.00000000000E+00 -0.46848964702E+03  0.46848964702E+03  0.00000000000E+00 0.  1.
         24    2    1    2    0    0 -0.12568842888E+03  0.16908600722E+03  0.34072632727E+03  0.40841528066E+03  0.79504417424E+02 0.  0.
        254    2    1    2    0    0  0.12568842888E+03 -0.16908600722E+03  0.69676704975E+02  0.93896704562E+03  0.91236868126E+03 0.  0.
         23    2    4    4    0    0 -0.37102510633E+02 -0.49664233740E+03 -0.11467023193E+03  0.51935214535E+03  0.92450966453E+02 0.  0.
         23    2    4    4    0    0  0.16279093951E+03  0.32755633018E+03  0.18434693690E+03  0.41961490026E+03  0.91097925062E+02 0.  0.
          2    1    3    3  502    0 -0.70425706192E+02  0.11943885555E+03  0.28005363772E+03  0.31249873649E+03  0.00000000000E+00 0. -1.
         -1    1    3    3    0  502 -0.55262722688E+02  0.49647151675E+02  0.60672689541E+02  0.95916544164E+02  0.00000000000E+00 0.  1.
         11    1    5    5    0    0 -0.59674708995E+02 -0.23509328108E+03 -0.74798508030E+02  0.25382028781E+03  0.00000000000E+00 0.  1.
        -11    1    5    5    0    0  0.22572198363E+02 -0.26154905632E+03 -0.39871723897E+02  0.26553185754E+03  0.00000000000E+00 0. -1.
          4    1    6    6  503    0  0.59407537073E+01  0.10026279928E+03  0.41209495257E+02  0.10856400864E+03  0.00000000000E+00 0. -1.
         -4    1    6    6    0  503  0.15685018581E+03  0.22729353090E+03  0.14313744165E+03  0.31105089162E+03  0.00000000000E+00 0.  1.
<mgrwt>
<rscale>  0 0.12833583E+04</rscale>
<asrwt>0</asrwt>
<pdfrwt beam="1">  1        2 0.13521426E+00 0.12833583E+04</pdfrwt>
<pdfrwt beam="2">  1       -1 0.72075330E-01 0.12833583E+04</pdfrwt>
<totfact> 0.65955236E+01</totfact>
</mgrwt>
</event>
<event>
12    6  0.1540825E-007  0.1623478E+04  0.7818608E-02  0.8806253E-01
          2   -1    0    0  501    0  0.00000000000E+00  0.00000000000E+00  0.67210370214E+03  0.67210370214E+03  0.00000000000E+00 0. -1.
         -1   -1    0    0    0  501 -0.00000000000E+00 -0.00000000000E+00 -0.98038483022E+03  0.98038483022E+03  0.00000000000E+00 0.  1.
         24    2    1    2    0    0  0.17369214225E+03 -0.29106356086E+03  0.30091593720E+03  0.45983605245E+03  0.77536037636E+02 0.  0.
        254    2    1    2    0    0 -0.17369214225E+03  0.29106356086E+03 -0.60919706527E+03  0.11926524799E+04  0.96768378966E+03 0.  0.
         23    2    4    4    0    0 -0.27434192119E+03  0.59403167681E+03 -0.53998035879E+03  0.85335891265E+03  0.92225393152E+02 0.  0.
         23    2    4    4    0    0  0.10064977894E+03 -0.30296811596E+03 -0.69216706482E+02  0.33929356727E+03  0.91701227055E+02 0.  0.
          4    1    3    3  502    0  0.26596406295E+02 -0.95220070639E+02  0.11915677832E+03  0.15483077375E+03  0.00000000000E+00 0. -1.
         -3    1    3    3    0  502  0.14709573596E+03 -0.19584349022E+03  0.18175915887E+03  0.30500527869E+03  0.00000000000E+00 0.  1.
         11    1    5    5    0    0 -0.42379246804E+02  0.64989366928E+02 -0.31333133879E+02  0.83674271147E+02  0.00000000000E+00 0. -1.
        -11    1    5    5    0    0 -0.23196267439E+03  0.52904230989E+03 -0.50864722491E+03  0.76968464150E+03  0.00000000000E+00 0.  1.
          3    1    6    6  503    0 -0.71040358783E+01 -0.57992046415E+02 -0.38361533204E+02  0.69893862413E+02  0.00000000000E+00 0. -1.
         -3    1    6    6    0  503  0.10775381482E+03 -0.24497606954E+03 -0.30855173278E+02  0.26939970485E+03  0.00000000000E+00 0.  1.
<mgrwt>
<rscale>  0 0.16234781E+04</rscale>
<asrwt>0</asrwt>
<pdfrwt beam="1">  1        2 0.10340057E+00 0.16234781E+04</pdfrwt>
<pdfrwt beam="2">  1       -1 0.15082843E+00 0.16234781E+04</pdfrwt>
<totfact> 0.16209251E+01</totfact>
</mgrwt>
</event>
<event>
12    6  0.1540825E-007  0.1354407E+04  0.7818608E-02  0.8987499E-01
          2   -1    0    0  501    0  0.00000000000E+00  0.00000000000E+00  0.50459438076E+03  0.50459438076E+03  0.00000000000E+00 0. -1.
         -1   -1    0    0    0  501 -0.00000000000E+00 -0.00000000000E+00 -0.90885744384E+03  0.90885744384E+03  0.00000000000E+00 0.  1.
         24    2    1    2    0    0 -0.45652800005E+02 -0.37215107039E+03 -0.16159036458E+03  0.41640676698E+03  0.81869117016E+02 0.  0.
        254    2    1    2    0    0  0.45652800005E+02  0.37215107039E+03 -0.24267269851E+03  0.99704505762E+03  0.89141921170E+03 0.  0.
         23    2    4    4    0    0  0.40780728828E+03  0.35214828443E+03 -0.29159822067E+03  0.61985298297E+03  0.94196600817E+02 0.  0.
         23    2    4    4    0    0 -0.36215448827E+03  0.20002785959E+02  0.48925522159E+02  0.37719207465E+03  0.91236887472E+02 0.  0.
          4    1    3    3  502    0 -0.79914538894E+01 -0.15390589854E+00  0.20729182337E+01  0.82573610976E+01  0.00000000000E+00 0. -1.
         -3    1    3    3    0  502 -0.37661346115E+02 -0.37199716449E+03 -0.16366328281E+03  0.40814940588E+03  0.00000000000E+00 0.  1.
         11    1    5    5    0    0  0.18677589567E+03  0.14434610712E+03 -0.77166986148E+02  0.24834608432E+03  0.00000000000E+00 0. -1.
        -11    1    5    5    0    0  0.22103139261E+03  0.20780217731E+03 -0.21443123452E+03  0.37150689866E+03  0.00000000000E+00 0.  1.
          3    1    6    6  503    0 -0.17820774918E+03  0.42860897721E+02 -0.74688684917E+01  0.18344165944E+03  0.00000000000E+00 0. -1.
         -3    1    6    6    0  503 -0.18394673909E+03 -0.22858111762E+02  0.56394390651E+02  0.19375041520E+03  0.00000000000E+00 0.  1.
<mgrwt>
<rscale>  0 0.13544067E+04</rscale>
<asrwt>0</asrwt>
<pdfrwt beam="1">  1        2 0.77629906E-01 0.13544067E+04</pdfrwt>
<pdfrwt beam="2">  1       -1 0.13982422E+00 0.13544067E+04</pdfrwt>
<totfact> 0.28613298E+01</totfact>
</mgrwt>
</event>
<event>
12    6  0.1540825E-007  0.1624398E+04  0.7818608E-02  0.8805698E-01
         -1   -1    0    0    0  501 -0.00000000000E+00  0.00000000000E+00  0.30458755834E+03  0.30458755834E+03  0.00000000000E+00 0.  1.
          2   -1    0    0  501    0  0.00000000000E+00 -0.00000000000E+00 -0.21657728264E+04  0.21657728264E+04  0.00000000000E+00 0. -1.
         24    2    1    2    0    0  0.19829039892E+03 -0.26819322117E+03 -0.13465132605E+04  0.13894747912E+04  0.79344492022E+02 0.  0.
        254    2    1    2    0    0 -0.19829039892E+03  0.26819322117E+03 -0.51467200756E+03  0.10808855936E+04  0.89004477688E+03 0.  0.
         23    2    4    4    0    0  0.12457142596E+03  0.50804699771E+03 -0.22463192754E+03  0.57667423738E+03  0.91999354016E+02 0.  0.
         23    2    4    4    0    0 -0.32286182487E+03 -0.23985377654E+03 -0.29004008003E+03  0.50421135620E+03  0.91303075637E+02 0.  0.
          4    1    3    3  502    0  0.18569895088E+03 -0.19797597740E+03 -0.10548005203E+04  0.10891660689E+04  0.00000000000E+00 0. -1.
         -3    1    3    3    0  502  0.12591448039E+02 -0.70217243772E+02 -0.29171274020E+03  0.30030872229E+03  0.00000000000E+00 0.  1.
         11    1    5    5    0    0  0.94449126168E+02  0.21354381738E+03 -0.77014286930E+02  0.24587151068E+03  0.00000000000E+00 0.  1.
        -11    1    5    5    0    0  0.30122299787E+02  0.29450318033E+03 -0.14761764061E+03  0.33080272669E+03  0.00000000000E+00 0. -1.
          1    1    6    6  503    0 -0.29536914612E+03 -0.23691081814E+03 -0.24382251936E+03  0.45035440397E+03  0.00000000000E+00 0. -1.
         -1    1    6    6    0  503 -0.27492678756E+02 -0.29429583956E+01 -0.46217560668E+02  0.53856952229E+02  0.00000000000E+00 0.  1.
<mgrwt>
<rscale>  0 0.16243983E+04</rscale>
<asrwt>0</asrwt>
<pdfrwt beam="1">  1        2 0.33319582E+00 0.16243983E+04</pdfrwt>
<pdfrwt beam="2">  1       -1 0.46859624E-01 0.16243983E+04</pdfrwt>
<totfact> 0.26723953E+01</totfact>
</mgrwt>
</event>
<event>
12    6  0.1540825E-007  0.2018341E+04  0.7818608E-02  0.8598093E-01
         -1   -1    0    0    0  501 -0.00000000000E+00  0.00000000000E+00  0.51771788699E+03  0.51771788699E+03  0.00000000000E+00 0.  1.
          2   -1    0    0  501    0  0.00000000000E+00 -0.00000000000E+00 -0.19671438067E+04  0.19671438067E+04  0.00000000000E+00 0. -1.
         24    2    1    2    0    0 -0.65292825553E+03  0.19306402480E+02 -0.75593761191E+00  0.65800798018E+03  0.79283582758E+02 0.  0.
        254    2    1    2    0    0  0.65292825553E+03 -0.19306402480E+02 -0.14486699821E+04  0.18268537135E+04  0.90114467731E+03 0.  0.
         23    2    4    4    0    0  0.43488664396E+03 -0.38367150192E+03 -0.45461636257E+03  0.74217663379E+03  0.88430221961E+02 0.  0.
         23    2    4    4    0    0  0.21804161158E+03  0.36436509944E+03 -0.99405361952E+03  0.10846770797E+04  0.89876018372E+02 0.  0.
          4    1    3    3  502    0 -0.20992302806E+03 -0.15333146090E+02  0.29895033228E+02  0.21259467559E+03  0.00000000000E+00 0. -1.
         -3    1    3    3    0  502 -0.44300522748E+03  0.34639548570E+02 -0.30650970840E+02  0.44541330460E+03  0.00000000000E+00 0.  1.
         11    1    5    5    0    0  0.65278469274E+02 -0.36423919543E+02 -0.29275706430E+02  0.80281052887E+02  0.00000000000E+00 0. -1.
        -11    1    5    5    0    0  0.36960817468E+03 -0.34724758237E+03 -0.42534065614E+03  0.66189558091E+03  0.00000000000E+00 0.  1.
          2    1    6    6  503    0  0.70949477745E+02  0.49687540664E+02 -0.20525163713E+03  0.22277996910E+03  0.00000000000E+00 0. -1.
         -2    1    6    6    0  503  0.14709213383E+03  0.31467755877E+03 -0.78880198239E+03  0.86189711060E+03  0.00000000000E+00 0.  1.
<mgrwt>
<rscale>  0 0.20183414E+04</rscale>
<asrwt>0</asrwt>
<pdfrwt beam="1">  1        2 0.30263751E+00 0.20183414E+04</pdfrwt>
<pdfrwt beam="2">  1       -1 0.79648906E-01 0.20183414E+04</pdfrwt>
<totfact> 0.11588686E+01</totfact>
</mgrwt>
</event>
<event>
12    6  0.1540825E-007  0.2523942E+04  0.7818608E-02  0.8394505E-01
         -1   -1    0    0    0  501 -0.00000000000E+00  0.00000000000E+00  0.14566831707E+04  0.14566831707E+04  0.00000000000E+00 0.  1.
          2   -1    0    0  501    0  0.00000000000E+00 -0.00000000000E+00 -0.10932858720E+04  0.10932858720E+04  0.00000000000E+00 0. -1.
         24    2    1    2    0    0 -0.22804303852E+03  0.98723930224E+03 -0.27057430985E+03  0.10518157516E+04  0.80379417675E+02 0.  0.
        254    2    1    2    0    0  0.22804303852E+03 -0.98723930224E+03  0.63397160856E+03  0.14981532912E+04  0.90327084321E+03 0.  0.
         23    2    4    4    0    0  0.36545856848E+03 -0.46126092496E+02  0.63242842919E+02  0.38538992794E+03  0.94011476399E+02 0.  0.
         23    2    4    4    0    0 -0.13741552995E+03 -0.94111320975E+03  0.57072876564E+03  0.11127633633E+04  0.89072314887E+02 0.  0.
          2    1    3    3  502    0 -0.23115577746E+03  0.92055520586E+03 -0.26108267607E+03  0.98438764937E+03  0.00000000000E+00 0. -1.
         -1    1    3    3    0  502  0.31127389402E+01  0.66684096384E+02 -0.94916337767E+01  0.67428102198E+02  0.00000000000E+00 0.  1.
         11    1    5    5    0    0  0.10392343711E+03 -0.54541642011E+02  0.59280214878E+01  0.11751601139E+03  0.00000000000E+00 0.  1.
        -11    1    5    5    0    0  0.26153513136E+03  0.84155495144E+01  0.57314821431E+02  0.26787391655E+03  0.00000000000E+00 0. -1.
          4    1    6    6  503    0 -0.82200958361E+02 -0.68769115728E+03  0.37314757678E+03  0.78671166218E+03  0.00000000000E+00 0. -1.
         -4    1    6    6    0  503 -0.55214571592E+02 -0.25342205247E+03  0.19758118886E+03  0.32605170109E+03  0.00000000000E+00 0.  1.
<mgrwt>
<rscale>  0 0.25239423E+04</rscale>
<asrwt>0</asrwt>
<pdfrwt beam="1">  1        2 0.16819783E+00 0.25239423E+04</pdfrwt>
<pdfrwt beam="2">  1       -1 0.22410510E+00 0.25239423E+04</pdfrwt>
<totfact> 0.23055462E+00</totfact>
</mgrwt>
</event>
<event>
12    6  0.1540825E-007  0.1618052E+04  0.7818608E-02  0.8809534E-01
         -1   -1    0    0    0  501 -0.00000000000E+00  0.00000000000E+00  0.19858801713E+03  0.19858801713E+03  0.00000000000E+00 0.  1.
          2   -1    0    0  501    0  0.00000000000E+00 -0.00000000000E+00 -0.32958822326E+04  0.32958822326E+04  0.00000000000E+00 0. -1.
         24    2    1    2    0    0  0.30582159536E+03 -0.39413357692E+03 -0.16196294118E+04  0.16965686856E+04  0.79232244222E+02 0.  0.
        254    2    1    2    0    0 -0.30582159536E+03  0.39413357692E+03 -0.14776648037E+04  0.17979015642E+04  0.89447673971E+03 0.  0.
         23    2    4    4    0    0 -0.45015996346E+03  0.22894725034E+02 -0.12424634883E+04  0.13249534299E+04  0.92832701774E+02 0.  0.
         23    2    4    4    0    0  0.14433836809E+03  0.37123885188E+03 -0.23520131538E+03  0.47294813430E+03  0.98531362157E+02 0.  0.
          4    1    3    3  502    0  0.13897350270E+03 -0.20606636420E+03 -0.92619841778E+03  0.95896845100E+03  0.00000000000E+00 0. -1.
         -3    1    3    3    0  502  0.16684809266E+03 -0.18806721271E+03 -0.69343099405E+03  0.73760023456E+03  0.00000000000E+00 0.  1.
         11    1    5    5    0    0  0.25165002568E+01  0.21064994641E+01 -0.36738181901E+02  0.36884469942E+02  0.00000000000E+00 0. -1.
        -11    1    5    5    0    0 -0.45267646371E+03  0.20788225570E+02 -0.12057253064E+04  0.12880689600E+04  0.00000000000E+00 0.  1.
          3    1    6    6  503    0  0.97077979775E+02  0.12047879197E+03 -0.78476813849E+02  0.17348741678E+03  0.00000000000E+00 0. -1.
         -3    1    6    6    0  503  0.47260388319E+02  0.25076005992E+03 -0.15672450153E+03  0.29946071751E+03  0.00000000000E+00 0.  1.
<mgrwt>
<rscale>  0 0.16180516E+04</rscale>
<asrwt>0</asrwt>
<pdfrwt beam="1">  1        2 0.50705876E+00 0.16180516E+04</pdfrwt>
<pdfrwt beam="2">  1       -1 0.30552005E-01 0.16180516E+04</pdfrwt>
<totfact> 0.12185413E+01</totfact>
</mgrwt>
</event>
<event>
12    6  0.1540825E-007  0.1778988E+04  0.7818608E-02  0.8717554E-01
         -1   -1    0    0    0  501 -0.00000000000E+00  0.00000000000E+00  0.21633812411E+03  0.21633812411E+03  0.00000000000E+00 0.  1.
          2   -1    0    0  501    0  0.00000000000E+00 -0.00000000000E+00 -0.36572378996E+04  0.36572378996E+04  0.00000000000E+00 0. -1.
         24    2    1    2    0    0  0.19259152170E+03  0.60715812730E+03 -0.16372695845E+04  0.17586294192E+04  0.79957838867E+02 0.  0.
        254    2    1    2    0    0 -0.19259152170E+03 -0.60715812730E+03 -0.18036301910E+04  0.21149466045E+04  0.90232188727E+03 0.  0.
         23    2    4    4    0    0 -0.60531488846E+02 -0.63427624931E+02 -0.14310945017E+04  0.14366752281E+04  0.91198210025E+02 0.  0.
         23    2    4    4    0    0 -0.13206003285E+03 -0.54373050237E+03 -0.37253568922E+03  0.67827137632E+03  0.90479327576E+02 0.  0.
          2    1    3    3  502    0  0.22245154900E+02  0.13759282069E+03 -0.29036781692E+03  0.32208710053E+03  0.00000000000E+00 0. -1.
         -1    1    3    3    0  502  0.17034636680E+03  0.46956530660E+03 -0.13469017676E+04  0.14365423187E+04  0.00000000000E+00 0.  1.
         11    1    5    5    0    0  0.55448244896E+01 -0.60056082863E+02 -0.69911704499E+03  0.70171370285E+03  0.00000000000E+00 0. -1.
        -11    1    5    5    0    0 -0.66076313336E+02 -0.33715420684E+01 -0.73197745674E+03  0.73496152529E+03  0.00000000000E+00 0.  1.
          1    1    6    6  503    0 -0.59773567902E+02 -0.17381849747E+03 -0.76883362852E+02  0.19924056054E+03  0.00000000000E+00 0. -1.
         -1    1    6    6    0  503 -0.72286464950E+02 -0.36991200490E+03 -0.29565232636E+03  0.47903081578E+03  0.00000000000E+00 0.  1.
<mgrwt>
<rscale>  0 0.17789885E+04</rscale>
<asrwt>0</asrwt>
<pdfrwt beam="1">  1        2 0.56265198E+00 0.17789885E+04</pdfrwt>
<pdfrwt beam="2">  1       -1 0.33282789E-01 0.17789885E+04</pdfrwt>
<totfact> 0.57959120E+00</totfact>
</mgrwt>
</event>
<event>
12    6  0.1540825E-007  0.2374731E+04  0.7818608E-02  0.8449025E-01
         -1   -1    0    0    0  501 -0.00000000000E+00  0.00000000000E+00  0.57673893610E+03  0.57673893610E+03  0.00000000000E+00 0.  1.
          2   -1    0    0  501    0  0.00000000000E+00 -0.00000000000E+00 -0.24444976534E+04  0.24444976534E+04  0.00000000000E+00 0. -1.
         24    2    1    2    0    0 -0.52214370197E+03  0.72657603321E+03 -0.14018669502E+04  0.16649543692E+04  0.79343101877E+02 0.  0.
        254    2    1    2    0    0  0.52214370197E+03 -0.72657603321E+03 -0.46589176706E+03  0.13562822203E+04  0.90658675532E+03 0.  0.
         23    2    4    4    0    0  0.16273318977E+03 -0.80025605745E+03 -0.95243705270E+02  0.82746300783E+03  0.93444193987E+02 0.  0.
         23    2    4    4    0    0  0.35941051220E+03  0.73680024243E+02 -0.37064806179E+03  0.52881921246E+03  0.87550622555E+02 0.  0.
          4    1    3    3  502    0 -0.43436149685E+03  0.64339657371E+03 -0.12388790074E+04  0.14620021395E+04  0.00000000000E+00 0. -1.
         -3    1    3    3    0  502 -0.87782205117E+02  0.83179459497E+02 -0.16298794277E+03  0.20295222961E+03  0.00000000000E+00 0.  1.
         11    1    5    5    0    0  0.72383813249E+01 -0.10478249933E+03  0.15816877442E+02  0.10621647680E+03  0.00000000000E+00 0. -1.
        -11    1    5    5    0    0  0.15549480845E+03 -0.69547355812E+03 -0.11106058271E+03  0.72124653103E+03  0.00000000000E+00 0.  1.
          4    1    6    6  503    0  0.14189959237E+03 -0.68268904608E+01 -0.17487554417E+03  0.22530769339E+03  0.00000000000E+00 0. -1.
         -4    1    6    6    0  503  0.21751091983E+03  0.80506914704E+02 -0.19577251762E+03  0.30351151908E+03  0.00000000000E+00 0.  1.
<mgrwt>
<rscale>  0 0.23747311E+04</rscale>
<asrwt>0</asrwt>
<pdfrwt beam="1">  1        2 0.37607656E+00 0.23747311E+04</pdfrwt>
<pdfrwt beam="2">  1       -1 0.88729068E-01 0.23747311E+04</pdfrwt>
<totfact> 0.47885555E+00</totfact>
</mgrwt>
</event>
<event>
12    6  0.1540825E-007  0.1368320E+04  0.7818608E-02  0.8977075E-01
         -1   -1    0    0    0  501 -0.00000000000E+00  0.00000000000E+00  0.17905060599E+03  0.17905060599E+03  0.00000000000E+00 0.  1.
          2   -1    0    0  501    0  0.00000000000E+00 -0.00000000000E+00 -0.26142057370E+04  0.26142057370E+04  0.00000000000E+00 0. -1.
         24    2    1    2    0    0  0.16842318009E+03  0.25084043929E+03 -0.22078629287E+03  0.38261695506E+03  0.79761228728E+02 0.  0.
        254    2    1    2    0    0 -0.16842318009E+03 -0.25084043929E+03 -0.22143688382E+04  0.24106393880E+04  0.90358486802E+03 0.  0.
         23    2    4    4    0    0  0.34772987722E+03 -0.20232660354E+03 -0.76534130783E+03  0.86961516686E+03  0.92903708008E+02 0.  0.
         23    2    4    4    0    0 -0.51615305731E+03 -0.48513835751E+02 -0.14490275303E+04  0.15410242211E+04  0.79418483125E+02 0.  0.
          4    1    3    3  502    0  0.79906401064E+02  0.87730951966E+02 -0.13001405188E+03  0.17602672113E+03  0.00000000000E+00 0. -1.
         -3    1    3    3    0  502  0.88516779025E+02  0.16310948732E+03 -0.90772240989E+02  0.20659023394E+03  0.00000000000E+00 0.  1.
         11    1    5    5    0    0  0.29366325293E+03 -0.12744439922E+03 -0.60970898503E+03  0.68864012912E+03  0.00000000000E+00 0.  1.
        -11    1    5    5    0    0  0.54066624292E+02 -0.74882204317E+02 -0.15563232280E+03  0.18097503774E+03  0.00000000000E+00 0. -1.
          1    1    6    6  503    0 -0.29555439479E+03  0.11744168481E+02 -0.81309831289E+03  0.86522782676E+03  0.00000000000E+00 0. -1.
         -1    1    6    6    0  503 -0.22059866252E+03 -0.60258004233E+02 -0.63592921745E+03  0.67579639433E+03  0.00000000000E+00 0.  1.
<mgrwt>
<rscale>  0 0.13683203E+04</rscale>
<asrwt>0</asrwt>
<pdfrwt beam="1">  1        2 0.40218550E+00 0.13683203E+04</pdfrwt>
<pdfrwt beam="2">  1       -1 0.27546247E-01 0.13683203E+04</pdfrwt>
<totfact> 0.39488750E+01</totfact>
</mgrwt>
</event>
<event>
12    6  0.1540825E-007  0.1492410E+04  0.7818608E-02  0.8889516E-01
          2   -1    0    0  501    0  0.00000000000E+00  0.00000000000E+00  0.15596315125E+04  0.15596315125E+04  0.00000000000E+00 0. -1.
         -1   -1    0    0    0  501 -0.00000000000E+00 -0.00000000000E+00 -0.35702164420E+03  0.35702164420E+03  0.00000000000E+00 0.  1.
         24    2    1    2    0    0 -0.24981904166E+03 -0.18331072833E+03  0.83032658513E+03  0.88983358831E+03  0.79681868829E+02 0.  0.
        254    2    1    2    0    0  0.24981904166E+03  0.18331072833E+03  0.37228328317E+03  0.10268195684E+04  0.90540113012E+03 0.  0.
         23    2    4    4    0    0 -0.14483841639E+03  0.30452426541E+01  0.53116116299E+03  0.55668553974E+03  0.82335707462E+02 0.  0.
         23    2    4    4    0    0  0.39465745805E+03  0.18026548567E+03 -0.15887787981E+03  0.47013402866E+03  0.86796714762E+02 0.  0.
          4    1    3    3  502    0 -0.22202475123E+03 -0.15929011504E+03  0.78667053519E+03  0.83277779860E+03  0.00000000000E+00 0. -1.
         -3    1    3    3    0  502 -0.27794290429E+02 -0.24020613284E+02  0.43656049937E+02  0.57055789708E+02  0.00000000000E+00 0.  1.
         11    1    5    5    0    0 -0.13215837432E+03  0.57832239903E+01  0.52655849910E+03  0.54292092846E+03  0.00000000000E+00 0. -1.
        -11    1    5    5    0    0 -0.12680042074E+02 -0.27379813363E+01  0.46026638817E+01  0.13764611277E+02  0.00000000000E+00 0.  1.
          2    1    6    6  503    0  0.30442199317E+03  0.16143374226E+03 -0.15510525803E+03  0.37787728714E+03  0.00000000000E+00 0. -1.
         -2    1    6    6    0  503  0.90235464879E+02  0.18831743417E+02 -0.37726217845E+01  0.92256741527E+02  0.00000000000E+00 0.  1.
<mgrwt>
<rscale>  0 0.14924104E+04</rscale>
<asrwt>0</asrwt>
<pdfrwt beam="1">  1        2 0.23994331E+00 0.14924104E+04</pdfrwt>
<pdfrwt beam="2">  1       -1 0.54926408E-01 0.14924104E+04</pdfrwt>
<totfact> 0.43347641E+01</totfact>
</mgrwt>
</event>
<event>
12    6  0.1540825E-007  0.1476745E+04  0.7818608E-02  0.8900066E-01
          2   -1    0    0  501    0  0.00000000000E+00  0.00000000000E+00  0.12620192370E+04  0.12620192370E+04  0.00000000000E+00 0. -1.
         -1   -1    0    0    0  501 -0.00000000000E+00 -0.00000000000E+00 -0.43200124154E+03  0.43200124154E+03  0.00000000000E+00 0.  1.
         24    2    1    2    0    0 -0.39168130897E+03 -0.14606697576E+03  0.44617211601E+03  0.61680603107E+03  0.81426737982E+02 0.  0.
        254    2    1    2    0    0  0.39168130897E+03  0.14606697576E+03  0.38384587940E+03  0.10772144474E+04  0.91558915317E+03 0.  0.
         23    2    4    4    0    0  0.60054404754E+02 -0.28932123425E+03  0.41866746150E+03  0.52076065217E+03  0.92714105807E+02 0.  0.
         23    2    4    4    0    0  0.33162690422E+03  0.43538821001E+03 -0.34821582093E+02  0.55645379526E+03  0.94281422643E+02 0.  0.
          2    1    3    3  502    0 -0.26402384014E+03 -0.73727957277E+02  0.33414110251E+03  0.43219749679E+03  0.00000000000E+00 0. -1.
         -1    1    3    3    0  502 -0.12765746883E+03 -0.72339018483E+02  0.11203101350E+03  0.18460853428E+03  0.00000000000E+00 0.  1.
         11    1    5    5    0    0  0.10046466826E+02 -0.23507572771E+03  0.30420558525E+03  0.38458102833E+03  0.00000000000E+00 0.  1.
        -11    1    5    5    0    0  0.50007937928E+02 -0.54245506540E+02  0.11446187625E+03  0.13617962384E+03  0.00000000000E+00 0. -1.
          1    1    6    6  503    0  0.12913524379E+03  0.13954987472E+03 -0.53347468786E+02  0.19747412780E+03  0.00000000000E+00 0. -1.
         -1    1    6    6    0  503  0.20249166043E+03  0.29583833529E+03  0.18525886693E+02  0.35897966746E+03  0.00000000000E+00 0.  1.
<mgrwt>
<rscale>  0 0.14767449E+04</rscale>
<asrwt>0</asrwt>
<pdfrwt beam="1">  1        2 0.19415680E+00 0.14767449E+04</pdfrwt>
<pdfrwt beam="2">  1       -1 0.66461730E-01 0.14767449E+04</pdfrwt>
<totfact> 0.44048354E+01</totfact>
</mgrwt>
</event>
<event>
12    6  0.1540825E-007  0.1870532E+04  0.7818608E-02  0.8669665E-01
         -3   -1    0    0    0  501 -0.00000000000E+00  0.00000000000E+00  0.81104304589E+03  0.81104304589E+03  0.00000000000E+00 0.  1.
          2   -1    0    0  501    0  0.00000000000E+00 -0.00000000000E+00 -0.10785155936E+04  0.10785155936E+04  0.00000000000E+00 0. -1.
         24    2    1    2    0    0 -0.56789796383E+03 -0.40908385103E+03  0.56781646168E+02  0.70678172294E+03  0.80365129550E+02 0.  0.
        254    2    1    2    0    0  0.56789796383E+03  0.40908385103E+03 -0.32425419385E+03  0.11827769165E+04  0.89663970330E+03 0.  0.
         23    2    4    4    0    0  0.78353389444E+03  0.34102162500E+03 -0.12599679727E+03  0.86843477591E+03  0.89903585258E+02 0.  0.
         23    2    4    4    0    0 -0.21563593060E+03  0.68062226028E+02 -0.19825739658E+03  0.31434214061E+03  0.91507731293E+02 0.  0.
          4    1    3    3  502    0 -0.16260795431E+03 -0.94290171704E+02 -0.15177786353E+02  0.18857981993E+03  0.00000000000E+00 0. -1.
         -3    1    3    3    0  502 -0.40529000952E+03 -0.31479367932E+03  0.71959432521E+02  0.51820190301E+03  0.00000000000E+00 0.  1.
         11    1    5    5    0    0  0.30044484990E+03  0.16995283126E+03 -0.76568658669E+02  0.35357295170E+03  0.00000000000E+00 0.  1.
        -11    1    5    5    0    0  0.48308904454E+03  0.17106879374E+03 -0.49428138602E+02  0.51486182421E+03  0.00000000000E+00 0. -1.
          1    1    6    6  503    0 -0.47663041066E+02  0.52507606648E+02 -0.33087851885E+02  0.78253563381E+02  0.00000000000E+00 0. -1.
         -1    1    6    6    0  503 -0.16797288954E+03  0.15554619380E+02 -0.16516954470E+03  0.23608857723E+03  0.00000000000E+00 0.  1.
<mgrwt>
<rscale>  0 0.18705321E+04</rscale>
<asrwt>0</asrwt>
<pdfrwt beam="1">  1        2 0.16592548E+00 0.18705321E+04</pdfrwt>
<pdfrwt beam="2">  1       -3 0.12477585E+00 0.18705321E+04</pdfrwt>
<totfact> 0.68590313E+00</totfact>
</mgrwt>
</event>
<event>
12    6  0.1540825E-007  0.1486139E+04  0.7818608E-02  0.8893723E-01
          2   -1    0    0  501    0  0.00000000000E+00  0.00000000000E+00  0.10020587906E+04  0.10020587906E+04  0.00000000000E+00 0. -1.
         -1   -1    0    0    0  501 -0.00000000000E+00 -0.00000000000E+00 -0.55101810748E+03  0.55101810748E+03  0.00000000000E+00 0.  1.
         24    2    1    2    0    0  0.22665768221E+03  0.20038707470E+03  0.50251640336E+03  0.59194627081E+03  0.79680407044E+02 0.  0.
        254    2    1    2    0    0 -0.22665768221E+03 -0.20038707470E+03 -0.51475720211E+02  0.96113062730E+03  0.91082031617E+03 0.  0.
         23    2    4    4    0    0  0.23560592785E+00 -0.53564306644E+03 -0.45604424517E+01  0.54357795512E+03  0.92426433051E+02 0.  0.
         23    2    4    4    0    0 -0.22689328814E+03  0.33525599174E+03 -0.46915277760E+02  0.41755267218E+03  0.90950791985E+02 0.  0.
          2    1    3    3  502    0  0.16931240523E+03  0.12845792467E+03  0.40811049955E+03  0.46013292516E+03  0.00000000000E+00 0. -1.
         -1    1    3    3    0  502  0.57345276981E+02  0.71929150033E+02  0.94405903807E+02  0.13181334565E+03  0.00000000000E+00 0.  1.
         11    1    5    5    0    0  0.15828626443E+02 -0.46860878070E+03 -0.30883076300E+02  0.46989200798E+03  0.00000000000E+00 0.  1.
        -11    1    5    5    0    0 -0.15593020515E+02 -0.67034285738E+02  0.26322633848E+02  0.73685947140E+02  0.00000000000E+00 0. -1.
          2    1    6    6  503    0 -0.71853956496E+02  0.14130911616E+03 -0.58513624214E+02  0.16898254819E+03  0.00000000000E+00 0. -1.
         -2    1    6    6    0  503 -0.15503933164E+03  0.19394687558E+03  0.11598346454E+02  0.24857012399E+03  0.00000000000E+00 0.  1.
<mgrwt>
<rscale>  0 0.14861393E+04</rscale>
<asrwt>0</asrwt>
<pdfrwt beam="1">  1        2 0.15416289E+00 0.14861393E+04</pdfrwt>
<pdfrwt beam="2">  1       -1 0.84772016E-01 0.14861393E+04</pdfrwt>
<totfact> 0.38169036E+01</totfact>
</mgrwt>
</event>
<event>
12    6  0.1540825E-007  0.1099124E+04  0.7818608E-02  0.9206047E-01
          2   -1    0    0  501    0  0.00000000000E+00  0.00000000000E+00  0.99688149554E+03  0.99688149554E+03  0.00000000000E+00 0. -1.
         -1   -1    0    0    0  501 -0.00000000000E+00 -0.00000000000E+00 -0.30296291570E+03  0.30296291570E+03  0.00000000000E+00 0.  1.
         24    2    1    2    0    0  0.11442001317E+03  0.57161930136E+02 -0.16604128084E+02  0.15315744868E+03  0.82595891819E+02 0.  0.
        254    2    1    2    0    0 -0.11442001317E+03 -0.57161930136E+02  0.71052270792E+03  0.11466869626E+04  0.89089227518E+03 0.  0.
         23    2    4    4    0    0 -0.18768342145E+03 -0.10945191145E+03  0.89341879538E+03  0.92376211803E+03  0.89075917974E+02 0.  0.
         23    2    4    4    0    0  0.73263408287E+02  0.52289981317E+02 -0.18289608746E+03  0.22292484454E+03  0.90237122981E+02 0.  0.
          4    1    3    3  502    0  0.10308760671E+03  0.19236233386E+02  0.10186832003E+02  0.10536061350E+03  0.00000000000E+00 0. -1.
         -3    1    3    3    0  502  0.11332406459E+02  0.37925696750E+02 -0.26790960086E+02  0.47796835172E+02  0.00000000000E+00 0.  1.
         11    1    5    5    0    0 -0.11714051426E+03 -0.18661688432E+02  0.40648684499E+03  0.42344033092E+03  0.00000000000E+00 0.  1.
        -11    1    5    5    0    0 -0.70542907189E+02 -0.90790223021E+02  0.48693195038E+03  0.50032178711E+03  0.00000000000E+00 0. -1.
          2    1    6    6  503    0  0.30210845641E+02  0.66000383823E+02 -0.15123797761E+03  0.16775479644E+03  0.00000000000E+00 0. -1.
         -2    1    6    6    0  503  0.43052562645E+02 -0.13710402506E+02 -0.31658109852E+02  0.55170048093E+02  0.00000000000E+00 0.  1.
<mgrwt>
<rscale>  0 0.10991235E+04</rscale>
<asrwt>0</asrwt>
<pdfrwt beam="1">  1        2 0.15336638E+00 0.10991235E+04</pdfrwt>
<pdfrwt beam="2">  1       -1 0.46609680E-01 0.10991235E+04</pdfrwt>
<totfact> 0.13132093E+02</totfact>
</mgrwt>
</event>
<event>
12    6  0.1540825E-007  0.1977621E+04  0.7818608E-02  0.8617156E-01
         -1   -1    0    0    0  501 -0.00000000000E+00  0.00000000000E+00  0.10324473384E+04  0.10324473384E+04  0.00000000000E+00 0.  1.
          2   -1    0    0  501    0  0.00000000000E+00 -0.00000000000E+00 -0.94701763770E+03  0.94701763770E+03  0.00000000000E+00 0. -1.
         24    2    1    2    0    0  0.76649060832E+03 -0.14318471647E+03  0.13109060901E+03  0.79492876499E+03  0.81959001728E+02 0.  0.
        254    2    1    2    0    0 -0.76649060832E+03  0.14318471647E+03 -0.45660908315E+02  0.11845362111E+04  0.89052310536E+03 0.  0.
         23    2    4    4    0    0 -0.20078838510E+03 -0.35302362994E+03  0.55895884927E+02  0.41981005732E+03  0.90412805452E+02 0.  0.
         23    2    4    4    0    0 -0.56570222322E+03  0.49620834641E+03 -0.10155679324E+03  0.76472615378E+03  0.90832701262E+02 0.  0.
          4    1    3    3  502    0  0.12431602105E+03  0.46496841589E+01  0.88675824191E+01  0.12471858991E+03  0.00000000000E+00 0. -1.
         -3    1    3    3    0  502  0.64217458728E+03 -0.14783440063E+03  0.12222302659E+03  0.67021017508E+03  0.00000000000E+00 0.  1.
         11    1    5    5    0    0 -0.47403775062E+02 -0.13697710613E+03 -0.14467220867E+02  0.14566793049E+03  0.00000000000E+00 0.  1.
        -11    1    5    5    0    0 -0.15338461004E+03 -0.21604652381E+03  0.70363105794E+02  0.27414212683E+03  0.00000000000E+00 0. -1.
          4    1    6    6  503    0 -0.37722621788E+03  0.32598899578E+03 -0.11025904875E+03  0.51061286966E+03  0.00000000000E+00 0. -1.
         -4    1    6    6    0  503 -0.18847600535E+03  0.17021935062E+03  0.87022555101E+01  0.25411328412E+03  0.00000000000E+00 0.  1.
<mgrwt>
<rscale>  0 0.19776206E+04</rscale>
<asrwt>0</asrwt>
<pdfrwt beam="1">  1        2 0.14569502E+00 0.19776206E+04</pdfrwt>
<pdfrwt beam="2">  1       -1 0.15883805E+00 0.19776206E+04</pdfrwt>
<totfact> 0.86374111E+00</totfact>
</mgrwt>
</event>
<event>
12    6  0.1540825E-007  0.1399297E+04  0.7818608E-02  0.8954328E-01
         -1   -1    0    0    0  501 -0.00000000000E+00  0.00000000000E+00  0.30321375604E+03  0.30321375604E+03  0.00000000000E+00 0.  1.
          2   -1    0    0  501    0  0.00000000000E+00 -0.00000000000E+00 -0.16143982171E+04  0.16143982171E+04  0.00000000000E+00 0. -1.
         24    2    1    2    0    0 -0.90912696845E+02 -0.77004125570E+02 -0.84835803007E+03  0.86037293867E+03  0.79595807737E+02 0.  0.
        254    2    1    2    0    0  0.90912696845E+02  0.77004125570E+02 -0.46282643098E+03  0.10572390345E+04  0.94305424923E+03 0.  0.
         23    2    4    4    0    0 -0.34211541824E+03  0.29144640347E+03 -0.21511875190E+03  0.50692227953E+03  0.93328208882E+02 0.  0.
         23    2    4    4    0    0  0.43302811508E+03 -0.21444227790E+03 -0.24770767908E+03  0.55031675494E+03  0.89390142024E+02 0.  0.
          2    1    3    3  502    0 -0.91842903084E+02 -0.90802234950E+02 -0.78144450866E+03  0.79204525429E+03  0.00000000000E+00 0. -1.
         -1    1    3    3    0  502  0.93020623946E+00  0.13798109379E+02 -0.66913521405E+02  0.68327684381E+02  0.00000000000E+00 0.  1.
         11    1    5    5    0    0 -0.23421208651E+03  0.18511190536E+03 -0.94056233170E+02  0.31299887215E+03  0.00000000000E+00 0.  1.
        -11    1    5    5    0    0 -0.10790333173E+03  0.10633449811E+03 -0.12106251873E+03  0.19392340737E+03  0.00000000000E+00 0. -1.
          1    1    6    6  503    0  0.73760432013E+01  0.74194378074E+01 -0.69344628407E+00  0.10484986335E+02  0.00000000000E+00 0. -1.
         -1    1    6    6    0  503  0.42565207188E+03 -0.22186171570E+03 -0.24701423280E+03  0.53983176860E+03  0.00000000000E+00 0.  1.
<mgrwt>
<rscale>  0 0.13992966E+04</rscale>
<asrwt>0</asrwt>
<pdfrwt beam="1">  1        2 0.24836896E+00 0.13992966E+04</pdfrwt>
<pdfrwt beam="2">  1       -1 0.46648270E-01 0.13992966E+04</pdfrwt>
<totfact> 0.55567819E+01</totfact>
</mgrwt>
</event>
<event>
12    6  0.1540825E-007  0.1892601E+04  0.7818608E-02  0.8658548E-01
         -1   -1    0    0    0  501 -0.00000000000E+00  0.00000000000E+00  0.38214657149E+03  0.38214657149E+03  0.00000000000E+00 0.  1.
          2   -1    0    0  501    0  0.00000000000E+00 -0.00000000000E+00 -0.23433015539E+04  0.23433015539E+04  0.00000000000E+00 0. -1.
         24    2    1    2    0    0 -0.12769878729E+03 -0.67501212262E+03 -0.11286868825E+04  0.13236672284E+04  0.78819457735E+02 0.  0.
        254    2    1    2    0    0  0.12769878729E+03  0.67501212262E+03 -0.83246809989E+03  0.14017808969E+04  0.89444854506E+03 0.  0.
         23    2    4    4    0    0  0.31186879229E+03 -0.11014826699E+02 -0.53559129052E+03  0.62613518726E+03  0.88338962182E+02 0.  0.
         23    2    4    4    0    0 -0.18417000500E+03  0.68602694931E+03 -0.29687680937E+03  0.77564570968E+03  0.94545550301E+02 0.  0.
          4    1    3    3  502    0 -0.37945422805E+02 -0.30328748571E+03 -0.56747355887E+03  0.64455363944E+03  0.00000000000E+00 0. -1.
         -3    1    3    3    0  502 -0.89753364490E+02 -0.37172463691E+03 -0.56121332365E+03  0.67911358900E+03  0.00000000000E+00 0.  1.
         11    1    5    5    0    0  0.75657057659E+02  0.16836007702E+02 -0.20262415427E+03  0.21694236429E+03  0.00000000000E+00 0. -1.
        -11    1    5    5    0    0  0.23621173463E+03 -0.27850834401E+02 -0.33296713625E+03  0.40919282298E+03  0.00000000000E+00 0.  1.
          2    1    6    6  503    0 -0.57406265103E+02  0.36827483395E+03 -0.12765754791E+03  0.39397751476E+03  0.00000000000E+00 0. -1.
         -2    1    6    6    0  503 -0.12676373989E+03  0.31775211536E+03 -0.16921926146E+03  0.38166819493E+03  0.00000000000E+00 0.  1.
<mgrwt>
<rscale>  0 0.18926010E+04</rscale>
<asrwt>0</asrwt>
<pdfrwt beam="1">  1        2 0.36050793E+00 0.18926010E+04</pdfrwt>
<pdfrwt beam="2">  1       -1 0.58791781E-01 0.18926010E+04</pdfrwt>
<totfact> 0.13406807E+01</totfact>
</mgrwt>
</event>
<event>
12    6  0.1540825E-007  0.3232929E+04  0.7818608E-02  0.8180174E-01
         -1   -1    0    0    0  501 -0.00000000000E+00  0.00000000000E+00  0.16768215752E+04  0.16768215752E+04  0.00000000000E+00 0.  1.
          2   -1    0    0  501    0  0.00000000000E+00 -0.00000000000E+00 -0.15582799426E+04  0.15582799426E+04  0.00000000000E+00 0. -1.
         24    2    1    2    0    0 -0.14769388381E+03 -0.89846768696E+03  0.12343288118E+04  0.15359393068E+04  0.80524969526E+02 0.  0.
        254    2    1    2    0    0  0.14769388381E+03  0.89846768696E+03 -0.11157871792E+04  0.16991622109E+04  0.90172807538E+03 0.  0.
         23    2    4    4    0    0  0.17953902026E+03  0.59302639321E+03 -0.12115145994E+04  0.13642887844E+04  0.97988263601E+02 0.  0.
         23    2    4    4    0    0 -0.31845136455E+02  0.30544129375E+03  0.95727420148E+02  0.33487342657E+03  0.93101966755E+02 0.  0.
          2    1    3    3  502    0  0.80123908561E+01 -0.10251758636E+03  0.12863988996E+03  0.16468841857E+03  0.00000000000E+00 0. -1.
         -1    1    3    3    0  502 -0.15570627466E+03 -0.79595010060E+03  0.11056889219E+04  0.13712508883E+04  0.00000000000E+00 0.  1.
         11    1    5    5    0    0  0.13822297408E+03  0.53493604857E+03 -0.10215546826E+04  0.11613940486E+04  0.00000000000E+00 0. -1.
        -11    1    5    5    0    0  0.41316046185E+02  0.58090344640E+02 -0.18995991677E+03  0.20289473574E+03  0.00000000000E+00 0.  1.
          3    1    6    6  503    0  0.26638130480E+00  0.24374165049E+03  0.10365621129E+03  0.26486727484E+03  0.00000000000E+00 0. -1.
         -3    1    6    6    0  503 -0.32111517760E+02  0.61699643254E+02 -0.79287911453E+01  0.70006151727E+02  0.00000000000E+00 0.  1.
<mgrwt>
<rscale>  0 0.32329290E+04</rscale>
<asrwt>0</asrwt>
<pdfrwt beam="1">  1        2 0.23973538E+00 0.32329290E+04</pdfrwt>
<pdfrwt beam="2">  1       -1 0.25797255E+00 0.32329290E+04</pdfrwt>
<totfact> 0.69591968E-01</totfact>
</mgrwt>
</event>
<event>
12    6  0.1540825E-007  0.2413585E+04  0.7818608E-02  0.8434435E-01
          2   -1    0    0  501    0  0.00000000000E+00  0.00000000000E+00  0.28552450099E+04  0.28552450099E+04  0.00000000000E+00 0. -1.
         -1   -1    0    0    0  501 -0.00000000000E+00 -0.00000000000E+00 -0.51006084800E+03  0.51006084800E+03  0.00000000000E+00 0.  1.
         24    2    1    2    0    0 -0.49125825270E+03  0.41392790041E+03 -0.12621786280E+03  0.65953857210E+03  0.79932481568E+02 0.  0.
        254    2    1    2    0    0  0.49125825270E+03 -0.41392790041E+03  0.24714020247E+04  0.27057672858E+04  0.89480593409E+03 0.  0.
         23    2    4    4    0    0  0.35715538632E+03 -0.65731701838E+03  0.13419804007E+04  0.15391179423E+04  0.91361982105E+02 0.  0.
         23    2    4    4    0    0  0.13410286639E+03  0.24338911796E+03  0.11294216239E+04  0.11666493435E+04  0.90860577178E+02 0.  0.
          2    1    3    3  502    0 -0.28267709626E+03  0.19669507313E+03 -0.91924139198E+02  0.35643420138E+03  0.00000000000E+00 0. -1.
         -1    1    3    3    0  502 -0.20858115644E+03  0.21723282729E+03 -0.34293723597E+02  0.30310437072E+03  0.00000000000E+00 0.  1.
         11    1    5    5    0    0  0.78611255964E+01 -0.68974746318E+02  0.12283165971E+03  0.14109191881E+03  0.00000000000E+00 0. -1.
        -11    1    5    5    0    0  0.34929426072E+03 -0.58834227206E+03  0.12191487410E+04  0.13980260235E+04  0.00000000000E+00 0.  1.
          3    1    6    6  503    0  0.82666044255E+02  0.13002661136E+03  0.79535887747E+03  0.81014587483E+03  0.00000000000E+00 0. -1.
         -3    1    6    6    0  503  0.51436822131E+02  0.11336250661E+03  0.33406274648E+03  0.35650346865E+03  0.00000000000E+00 0.  1.
<mgrwt>
<rscale>  0 0.24135855E+04</rscale>
<asrwt>0</asrwt>
<pdfrwt beam="1">  1        2 0.43926845E+00 0.24135855E+04</pdfrwt>
<pdfrwt beam="2">  1       -1 0.78470901E-01 0.24135855E+04</pdfrwt>
<totfact> 0.35544947E+00</totfact>
</mgrwt>
</event>
<event>
12    6  0.1540825E-007  0.1587733E+04  0.7818608E-02  0.8828120E-01
         -1   -1    0    0    0  501 -0.00000000000E+00  0.00000000000E+00  0.60658806764E+03  0.60658806764E+03  0.00000000000E+00 0.  1.
          2   -1    0    0  501    0  0.00000000000E+00 -0.00000000000E+00 -0.10389655180E+04  0.10389655180E+04  0.00000000000E+00 0. -1.
         24    2    1    2    0    0 -0.37987749930E+03  0.10159365926E+03  0.23108067180E+03  0.46287559356E+03  0.78913573964E+02 0.  0.
        254    2    1    2    0    0  0.37987749930E+03 -0.10159365926E+03 -0.66345812220E+03  0.11826779921E+04  0.89661717977E+03 0.  0.
         23    2    4    4    0    0  0.12469471359E+03 -0.22658461616E+03 -0.80655199514E+03  0.85186983381E+03  0.90921576133E+02 0.  0.
         23    2    4    4    0    0  0.25518278571E+03  0.12499095689E+03  0.14309387294E+03  0.33080815831E+03  0.90648704922E+02 0.  0.
          2    1    3    3  502    0 -0.42141033984E+02  0.37853985688E+02  0.42697796470E+02  0.70935835803E+02  0.00000000000E+00 0. -1.
         -1    1    3    3    0  502 -0.33773646532E+03  0.63739673575E+02  0.18838287533E+03  0.39193975775E+03  0.00000000000E+00 0.  1.
         11    1    5    5    0    0  0.96234497480E+02 -0.10995534848E+03 -0.54202830901E+03  0.56137861104E+03  0.00000000000E+00 0.  1.
        -11    1    5    5    0    0  0.28460216112E+02 -0.11662926768E+03 -0.26452368613E+03  0.29049122276E+03  0.00000000000E+00 0. -1.
          3    1    6    6  503    0  0.15766924924E+01 -0.74766602218E+00 -0.92071086782E+01  0.93710092257E+01  0.00000000000E+00 0. -1.
         -3    1    6    6    0  503  0.25360609322E+03  0.12573862291E+03  0.15230098162E+03  0.32143714908E+03  0.00000000000E+00 0.  1.
<mgrwt>
<rscale>  0 0.15877331E+04</rscale>
<asrwt>0</asrwt>
<pdfrwt beam="1">  1        2 0.15984085E+00 0.15877331E+04</pdfrwt>
<pdfrwt beam="2">  1       -1 0.93321241E-01 0.15877331E+04</pdfrwt>
<totfact> 0.29032638E+01</totfact>
</mgrwt>
</event>
<event>
12    6  0.1540825E-007  0.2981309E+04  0.7818608E-02  0.8249088E-01
         -1   -1    0    0    0  501 -0.00000000000E+00  0.00000000000E+00  0.16189469954E+04  0.16189469954E+04  0.00000000000E+00 0.  1.
          2   -1    0    0  501    0  0.00000000000E+00 -0.00000000000E+00 -0.13725287375E+04  0.13725287375E+04  0.00000000000E+00 0. -1.
         24    2    1    2    0    0  0.11264477008E+04 -0.35225950857E+03 -0.55541924452E+03  0.13070257504E+04  0.82792457660E+02 0.  0.
        254    2    1    2    0    0 -0.11264477008E+04  0.35225950857E+03  0.80183750245E+03  0.16844499824E+04  0.89524140809E+03 0.  0.
         23    2    4    4    0    0  0.82434848922E+02  0.22879678992E+03  0.18635034854E+03  0.31927494766E+03  0.89814054606E+02 0.  0.
         23    2    4    4    0    0 -0.12088825497E+04  0.12346271864E+03  0.61548715391E+03  0.13651750347E+04  0.90765504719E+02 0.  0.
          2    1    3    3  502    0  0.47352464269E+03 -0.14707552772E+03 -0.27869155017E+03  0.56879326493E+03  0.00000000000E+00 0. -1.
         -1    1    3    3    0  502  0.65292305813E+03 -0.20518398085E+03 -0.27672769436E+03  0.73823248551E+03  0.00000000000E+00 0.  1.
         11    1    5    5    0    0  0.40848290706E+02  0.51968281860E+02  0.95568544599E+02  0.11620082569E+03  0.00000000000E+00 0.  1.
        -11    1    5    5    0    0  0.41586558217E+02  0.17682850806E+03  0.90781803940E+02  0.20307412197E+03  0.00000000000E+00 0. -1.
          3    1    6    6  503    0 -0.88288820320E+03  0.10979127357E+03  0.48914244840E+03  0.10152861852E+04  0.00000000000E+00 0. -1.
         -3    1    6    6    0  503 -0.32599434655E+03  0.13671445078E+02  0.12634470550E+03  0.34988884950E+03  0.00000000000E+00 0.  1.
<mgrwt>
<rscale>  0 0.29813093E+04</rscale>
<asrwt>0</asrwt>
<pdfrwt beam="1">  1        2 0.21115827E+00 0.29813093E+04</pdfrwt>
<pdfrwt beam="2">  1       -1 0.24906877E+00 0.29813093E+04</pdfrwt>
<totfact> 0.10359566E+00</totfact>
</mgrwt>
</event>
<event>
12    6  0.1540825E-007  0.1678355E+04  0.7818608E-02  0.8773806E-01
          2   -1    0    0  501    0  0.00000000000E+00  0.00000000000E+00  0.15258944514E+04  0.15258944514E+04  0.00000000000E+00 0. -1.
         -1   -1    0    0    0  501 -0.00000000000E+00 -0.00000000000E+00 -0.46151240032E+03  0.46151240032E+03  0.00000000000E+00 0.  1.
         24    2    1    2    0    0  0.18208468387E+03  0.24813256399E+03  0.98678851893E+03  0.10367606143E+04  0.79977427741E+02 0.  0.
        254    2    1    2    0    0 -0.18208468387E+03 -0.24813256399E+03  0.77593532149E+02  0.95064623737E+03  0.89609313744E+03 0.  0.
         23    2    4    4    0    0  0.25688334052E+03 -0.32946376084E+03  0.21049254716E+03  0.47672029596E+03  0.91758965910E+02 0.  0.
         23    2    4    4    0    0 -0.43896802439E+03  0.81331196850E+02 -0.13289901502E+03  0.47392594141E+03  0.87383978647E+02 0.  0.
          2    1    3    3  502    0  0.18658038540E+03  0.23053732790E+03  0.88522111672E+03  0.93358241482E+03  0.00000000000E+00 0. -1.
         -3    1    3    3    0  502 -0.44957015299E+01  0.17595236087E+02  0.10156740221E+03  0.10317819953E+03  0.00000000000E+00 0.  1.
         11    1    5    5    0    0  0.63006422275E+02 -0.79710355372E+02  0.97907696952E+02  0.14110091114E+03  0.00000000000E+00 0.  1.
        -11    1    5    5    0    0  0.19387691825E+03 -0.24975340547E+03  0.11258485021E+03  0.33561938482E+03  0.00000000000E+00 0. -1.
          4    1    6    6  503    0 -0.41517858278E+03  0.72382768108E+02 -0.10143070945E+03  0.43347515446E+03  0.00000000000E+00 0. -1.
         -4    1    6    6    0  503 -0.23789441615E+02  0.89484287419E+01 -0.31468305562E+02  0.40450786942E+02  0.00000000000E+00 0.  1.
<mgrwt>
<rscale>  0 0.16783554E+04</rscale>
<asrwt>0</asrwt>
<pdfrwt beam="1">  1        2 0.23475299E+00 0.16783554E+04</pdfrwt>
<pdfrwt beam="2">  1       -1 0.71001908E-01 0.16783554E+04</pdfrwt>
<totfact> 0.26708871E+01</totfact>
</mgrwt>
</event>
<event>
12    6  0.1540825E-007  0.1766951E+04  0.7818608E-02  0.8724075E-01
          2   -1    0    0  501    0  0.00000000000E+00  0.00000000000E+00  0.27975552350E+04  0.27975552350E+04  0.00000000000E+00 0. -1.
         -1   -1    0    0    0  501 -0.00000000000E+00 -0.00000000000E+00 -0.27900402132E+03  0.27900402132E+03  0.00000000000E+00 0.  1.
         24    2    1    2    0    0  0.40871930487E+03 -0.44129417041E+03  0.13686695334E+04  0.14971565771E+04  0.80184223887E+02 0.  0.
        254    2    1    2    0    0 -0.40871930487E+03  0.44129417041E+03  0.11498816803E+04  0.15794026792E+04  0.90027380800E+03 0.  0.
         23    2    4    4    0    0  0.23753618192E+03  0.18499417950E+02  0.51801603188E+03  0.57774201805E+03  0.93164177365E+02 0.  0.
         23    2    4    4    0    0 -0.64625548679E+03  0.42279475246E+03  0.63186564838E+03  0.10016606611E+04  0.87568975846E+02 0.  0.
          2    1    3    3  502    0  0.30228384658E+03 -0.30442759383E+03  0.88873845859E+03  0.98686763629E+03  0.00000000000E+00 0. -1.
         -1    1    3    3    0  502  0.10643545830E+03 -0.13686657658E+03  0.47993107482E+03  0.51028894085E+03  0.00000000000E+00 0.  1.
         11    1    5    5    0    0  0.21984167936E+03  0.20321636111E+02  0.38719038893E+03  0.44571260938E+03  0.00000000000E+00 0. -1.
        -11    1    5    5    0    0  0.17694502561E+02 -0.18222181614E+01  0.13082564295E+03  0.13202940867E+03  0.00000000000E+00 0.  1.
          3    1    6    6  503    0 -0.52959507204E+03  0.32279636032E+03  0.46762167063E+03  0.77674864494E+03  0.00000000000E+00 0. -1.
         -3    1    6    6    0  503 -0.11666041475E+03  0.99998392136E+02  0.16424397775E+03  0.22491201619E+03  0.00000000000E+00 0.  1.
<mgrwt>
<rscale>  0 0.17669512E+04</rscale>
<asrwt>0</asrwt>
<pdfrwt beam="1">  1        2 0.43039309E+00 0.17669512E+04</pdfrwt>
<pdfrwt beam="2">  1       -1 0.42923698E-01 0.17669512E+04</pdfrwt>
<totfact> 0.13410749E+01</totfact>
</mgrwt>
</event>
<event>
12    6  0.1540825E-007  0.3990776E+04  0.7818608E-02  0.8006410E-01
         -1   -1    0    0    0  501 -0.00000000000E+00  0.00000000000E+00  0.20487853005E+04  0.20487853005E+04  0.00000000000E+00 0.  1.
          2   -1    0    0  501    0  0.00000000000E+00 -0.00000000000E+00 -0.19433822665E+04  0.19433822665E+04  0.00000000000E+00 0. -1.
         24    2    1    2    0    0 -0.13316002229E+04  0.46384335765E+03  0.13123069323E+04  0.19279336419E+04  0.80429029935E+02 0.  0.
        254    2    1    2    0    0  0.13316002229E+04 -0.46384335765E+03 -0.12069038983E+04  0.20642339251E+04  0.90340182846E+03 0.  0.
         23    2    4    4    0    0  0.82205848779E+03 -0.50192837836E+03 -0.28914387796E+03  0.10099425940E+04  0.93099982301E+02 0.  0.
         23    2    4    4    0    0  0.50954173513E+03  0.38085020707E+02 -0.91776002036E+03  0.10542913311E+04  0.90352128875E+02 0.  0.
          4    1    3    3  502    0 -0.42870779429E+03  0.13140923181E+03  0.37217179982E+03  0.58272687227E+03  0.00000000000E+00 0. -1.
         -3    1    3    3    0  502 -0.90289242863E+03  0.33243412585E+03  0.94013513245E+03  0.13452067696E+04  0.00000000000E+00 0.  1.
         11    1    5    5    0    0  0.38760996506E+03 -0.26892816259E+03 -0.18056866111E+03  0.50514243835E+03  0.00000000000E+00 0. -1.
        -11    1    5    5    0    0  0.43444852273E+03 -0.23300021577E+03 -0.10857521686E+03  0.50480015568E+03  0.00000000000E+00 0.  1.
          1    1    6    6  503    0  0.26527473696E+03  0.65041856580E+02 -0.48600067975E+03  0.55749241241E+03  0.00000000000E+00 0. -1.
         -1    1    6    6    0  503  0.24426699817E+03 -0.26956835872E+02 -0.43175934060E+03  0.49679891867E+03  0.00000000000E+00 0.  1.
<mgrwt>
<rscale>  0 0.39907759E+04</rscale>
<asrwt>0</asrwt>
<pdfrwt beam="1">  1        2 0.29898189E+00 0.39907759E+04</pdfrwt>
<pdfrwt beam="2">  1       -1 0.31519774E+00 0.39907759E+04</pdfrwt>
<totfact> 0.16973357E-01</totfact>
</mgrwt>
</event>
<event>
12    6  0.1540825E-007  0.2377292E+04  0.7818608E-02  0.8448054E-01
         -1   -1    0    0    0  501 -0.00000000000E+00  0.00000000000E+00  0.81208698321E+03  0.81208698321E+03  0.00000000000E+00 0.  1.
          2   -1    0    0  501    0  0.00000000000E+00 -0.00000000000E+00 -0.17398126650E+04  0.17398126650E+04  0.00000000000E+00 0. -1.
         24    2    1    2    0    0  0.41704895445E+03  0.67845323962E+03 -0.10825572410E+04  0.13463376297E+04  0.80412711738E+02 0.  0.
        254    2    1    2    0    0 -0.41704895445E+03 -0.67845323962E+03  0.15483155928E+03  0.12055620185E+04  0.89172772746E+03 0.  0.
         23    2    4    4    0    0 -0.61833789425E+03 -0.39079278621E+03 -0.12410484243E+03  0.74747827589E+03  0.90890086371E+02 0.  0.
         23    2    4    4    0    0  0.20128893980E+03 -0.28766045341E+03  0.27893640171E+03  0.45808374260E+03  0.93645209648E+02 0.  0.
          4    1    3    3  502    0  0.22111025240E+03  0.42528895169E+03 -0.61634682249E+03  0.78079692734E+03  0.00000000000E+00 0. -1.
         -3    1    3    3    0  502  0.19593870205E+03  0.25316428794E+03 -0.46621041853E+03  0.56554070233E+03  0.00000000000E+00 0.  1.
         11    1    5    5    0    0 -0.20496620699E+03 -0.15282032973E+03 -0.43748294639E+01  0.25570361421E+03  0.00000000000E+00 0. -1.
        -11    1    5    5    0    0 -0.41337168726E+03 -0.23797245648E+03 -0.11973001297E+03  0.49177466169E+03  0.00000000000E+00 0.  1.
          3    1    6    6  503    0 -0.82093651567E+01 -0.24331972595E+02  0.10972396086E+02  0.27925473005E+02  0.00000000000E+00 0. -1.
         -3    1    6    6    0  503  0.20949830496E+03 -0.26332848082E+03  0.26796400563E+03  0.43015826960E+03  0.00000000000E+00 0.  1.
<mgrwt>
<rscale>  0 0.23772919E+04</rscale>
<asrwt>0</asrwt>
<pdfrwt beam="1">  1        2 0.26766349E+00 0.23772919E+04</pdfrwt>
<pdfrwt beam="2">  1       -1 0.12493646E+00 0.23772919E+04</pdfrwt>
<totfact> 0.53561670E+00</totfact>
</mgrwt>
</event>
<event>
12    6  0.1540825E-007  0.2272414E+04  0.7818608E-02  0.8488878E-01
         -1   -1    0    0    0  501 -0.00000000000E+00  0.00000000000E+00  0.81035018344E+03  0.81035018344E+03  0.00000000000E+00 0.  1.
          2   -1    0    0  501    0  0.00000000000E+00 -0.00000000000E+00 -0.15930966777E+04  0.15930966777E+04  0.00000000000E+00 0. -1.
         24    2    1    2    0    0 -0.60403432052E+03  0.83502140848E+02 -0.11062874172E+04  0.12659556841E+04  0.83317925938E+02 0.  0.
        254    2    1    2    0    0  0.60403432052E+03 -0.83502140848E+02  0.32354092289E+03  0.11374911771E+04  0.90408925514E+03 0.  0.
         23    2    4    4    0    0  0.58858131841E+03 -0.42322264075E+03  0.28478529510E+03  0.78425769812E+03  0.91717505041E+02 0.  0.
         23    2    4    4    0    0  0.15453002111E+02  0.33972049990E+03  0.38755627794E+02  0.35323347896E+03  0.87310243647E+02 0.  0.
          2    1    3    3  502    0 -0.52965519377E+03  0.75965685905E+02 -0.90649418403E+03  0.10526334193E+04  0.00000000000E+00 0. -1.
         -1    1    3    3    0  502 -0.74379126750E+02  0.75364549422E+01 -0.19979323312E+03  0.21332226478E+03  0.00000000000E+00 0.  1.
         11    1    5    5    0    0  0.15108390322E+02 -0.50350325089E+00 -0.38109005825E+01  0.15589738192E+02  0.00000000000E+00 0.  1.
        -11    1    5    5    0    0  0.57347292809E+03 -0.42271913750E+03  0.28859619568E+03  0.76866795993E+03  0.00000000000E+00 0. -1.
          1    1    6    6  503    0  0.13916188222E+02  0.27687530336E+03  0.65595488437E+02  0.28487955702E+03  0.00000000000E+00 0. -1.
         -1    1    6    6    0  503  0.15368138892E+01  0.62845196546E+02 -0.26839860643E+02  0.68353921945E+02  0.00000000000E+00 0.  1.
<mgrwt>
<rscale>  0 0.22724139E+04</rscale>
<asrwt>0</asrwt>
<pdfrwt beam="1">  1        2 0.24509179E+00 0.22724139E+04</pdfrwt>
<pdfrwt beam="2">  1       -1 0.12466926E+00 0.22724139E+04</pdfrwt>
<totfact> 0.65597970E+00</totfact>
</mgrwt>
</event>
<event>
12    6  0.1540825E-007  0.1314459E+04  0.7818608E-02  0.9018177E-01
         -1   -1    0    0    0  501 -0.00000000000E+00  0.00000000000E+00  0.50426216624E+03  0.50426216624E+03  0.00000000000E+00 0.  1.
          2   -1    0    0  501    0  0.00000000000E+00 -0.00000000000E+00 -0.85659944243E+03  0.85659944243E+03  0.00000000000E+00 0. -1.
         24    2    1    2    0    0  0.21136536678E+03  0.21769154640E+03 -0.10767926707E+03  0.33177425372E+03  0.80089969558E+02 0.  0.
        254    2    1    2    0    0 -0.21136536678E+03 -0.21769154640E+03 -0.24465800911E+03  0.10290873550E+04  0.95241709091E+03 0.  0.
         23    2    4    4    0    0  0.17875795686E+03  0.66325527984E+02 -0.44873783196E+03  0.49592671113E+03  0.90687254793E+02 0.  0.
         23    2    4    4    0    0 -0.39012332364E+03 -0.28401707438E+03  0.20407982284E+03  0.53316064382E+03  0.98741034207E+02 0.  0.
          4    1    3    3  502    0  0.13791364458E+03  0.16249851553E+03 -0.38073327224E+02  0.21650754988E+03  0.00000000000E+00 0. -1.
         -3    1    3    3    0  502  0.73451722205E+02  0.55193030871E+02 -0.69605939843E+02  0.11526670384E+03  0.00000000000E+00 0.  1.
         11    1    5    5    0    0  0.87606244976E+02  0.49120571361E+02 -0.13188670271E+03  0.16577631629E+03  0.00000000000E+00 0. -1.
        -11    1    5    5    0    0  0.91151711883E+02  0.17204956623E+02 -0.31685112925E+03  0.33015039485E+03  0.00000000000E+00 0.  1.
          4    1    6    6  503    0  0.25891478387E+01 -0.14849687265E+02  0.13817010652E+02  0.20448146169E+02  0.00000000000E+00 0. -1.
         -4    1    6    6    0  503 -0.39271247148E+03 -0.26916738712E+03  0.19026281219E+03  0.51271249765E+03  0.00000000000E+00 0.  1.
<mgrwt>
<rscale>  0 0.13144591E+04</rscale>
<asrwt>0</asrwt>
<pdfrwt beam="1">  1        2 0.13178453E+00 0.13144591E+04</pdfrwt>
<pdfrwt beam="2">  1       -1 0.77578795E-01 0.13144591E+04</pdfrwt>
<totfact> 0.58465955E+01</totfact>
</mgrwt>
</event>
<event>
12    6  0.1540825E-007  0.1595511E+04  0.7818608E-02  0.8823311E-01
         -1   -1    0    0    0  501 -0.00000000000E+00  0.00000000000E+00  0.56306757333E+03  0.56306757333E+03  0.00000000000E+00 0.  1.
          2   -1    0    0  501    0  0.00000000000E+00 -0.00000000000E+00 -0.11302616652E+04  0.11302616652E+04  0.00000000000E+00 0. -1.
         24    2    1    2    0    0 -0.44772160735E+03  0.18860523339E+03  0.47660956415E+02  0.49463955803E+03  0.79813243602E+02 0.  0.
        254    2    1    2    0    0  0.44772160735E+03 -0.18860523339E+03 -0.61485504828E+03  0.11986896805E+04  0.90707422407E+03 0.  0.
         23    2    4    4    0    0  0.38368210120E+03  0.31157825397E+03 -0.20913027488E+03  0.54501040225E+03  0.94909976089E+02 0.  0.
         23    2    4    4    0    0  0.64039506147E+02 -0.50018348737E+03 -0.40572477341E+03  0.65367927824E+03  0.91648391506E+02 0.  0.
          4    1    3    3  502    0 -0.55292586559E+02  0.48018978000E+02  0.24202005855E+02  0.77128655271E+02  0.00000000000E+00 0. -1.
         -3    1    3    3    0  502 -0.39242902079E+03  0.14058625539E+03  0.23458950561E+02  0.41751090276E+03  0.00000000000E+00 0.  1.
         11    1    5    5    0    0  0.70719759738E+02  0.26372226179E+02 -0.58850820618E+02  0.95708922355E+02  0.00000000000E+00 0. -1.
        -11    1    5    5    0    0  0.31296234146E+03  0.28520602780E+03 -0.15027945426E+03  0.44930147989E+03  0.00000000000E+00 0.  1.
          4    1    6    6  503    0  0.66917689952E+02 -0.38630080164E+03 -0.26777986088E+03  0.47477609509E+03  0.00000000000E+00 0.  1.
         -4    1    6    6    0  503 -0.28781838056E+01 -0.11388268573E+03 -0.13794491252E+03  0.17890318315E+03  0.00000000000E+00 0. -1.
<mgrwt>
<rscale>  0 0.15955108E+04</rscale>
<asrwt>0</asrwt>
<pdfrwt beam="1">  1        2 0.17388641E+00 0.15955108E+04</pdfrwt>
<pdfrwt beam="2">  1       -1 0.86625782E-01 0.15955108E+04</pdfrwt>
<totfact> 0.30004465E+01</totfact>
</mgrwt>
</event>
<event>
12    6  0.1540825E-007  0.1914381E+04  0.7818608E-02  0.8647731E-01
         -1   -1    0    0    0  501 -0.00000000000E+00  0.00000000000E+00  0.15102740524E+04  0.15102740524E+04  0.00000000000E+00 0.  1.
          2   -1    0    0  501    0  0.00000000000E+00 -0.00000000000E+00 -0.60665395515E+03  0.60665395515E+03  0.00000000000E+00 0. -1.
         24    2    1    2    0    0  0.73686491015E+03  0.85869993850E+02  0.24515292075E+03  0.78505713473E+03  0.76623746798E+02 0.  0.
        254    2    1    2    0    0 -0.73686491015E+03 -0.85869993850E+02  0.65846717652E+03  0.13318708729E+04  0.88879550389E+03 0.  0.
         23    2    4    4    0    0 -0.26007224584E+03 -0.45151405482E+03  0.18190910439E+03  0.55948437243E+03  0.91811360860E+02 0.  0.
         23    2    4    4    0    0 -0.47679266432E+03  0.36564406097E+03  0.47655807213E+03  0.77238650042E+03  0.91904765109E+02 0.  0.
          4    1    3    3  502    0  0.68216612684E+03  0.58726557734E+02  0.22744480374E+03  0.72147804675E+03  0.00000000000E+00 0. -1.
         -3    1    3    3    0  502  0.54698783317E+02  0.27143436116E+02  0.17708117012E+02  0.63579087982E+02  0.00000000000E+00 0.  1.
         11    1    5    5    0    0 -0.12430537298E+03 -0.29232891687E+03  0.84537782692E+02  0.32871668362E+03  0.00000000000E+00 0.  1.
        -11    1    5    5    0    0 -0.13576687286E+03 -0.15918513795E+03  0.97371321699E+02  0.23076768881E+03  0.00000000000E+00 0. -1.
          1    1    6    6  503    0 -0.42127810565E+03  0.32986389473E+03  0.45657941025E+03  0.70338480877E+03  0.00000000000E+00 0. -1.
         -1    1    6    6    0  503 -0.55514558662E+02  0.35780166241E+02  0.19978661884E+02  0.69001691649E+02  0.00000000000E+00 0.  1.
<mgrwt>
<rscale>  0 0.19143811E+04</rscale>
<asrwt>0</asrwt>
<pdfrwt beam="1">  1        2 0.93331378E-01 0.19143811E+04</pdfrwt>
<pdfrwt beam="2">  1       -1 0.23234985E+00 0.19143811E+04</pdfrwt>
<totfact> 0.47607459E+00</totfact>
</mgrwt>
</event>
<event>
12    6  0.1540825E-007  0.2273443E+04  0.7818608E-02  0.8488466E-01
          2   -1    0    0  501    0  0.00000000000E+00  0.00000000000E+00  0.21586666934E+04  0.21586666934E+04  0.00000000000E+00 0. -1.
         -1   -1    0    0    0  501 -0.00000000000E+00 -0.00000000000E+00 -0.59858053413E+03  0.59858053413E+03  0.00000000000E+00 0.  1.
         24    2    1    2    0    0  0.95507808785E+03 -0.50840437348E+02  0.60394465181E+03  0.11340818550E+04  0.81446961155E+02 0.  0.
        254    2    1    2    0    0 -0.95507808785E+03  0.50840437348E+02  0.95614150745E+03  0.16231653725E+04  0.89760812175E+03 0.  0.
         23    2    4    4    0    0 -0.73388846088E+03 -0.29076411978E+03  0.90323937330E+03  0.12024331533E+04  0.82873857484E+02 0.  0.
         23    2    4    4    0    0 -0.22118962697E+03  0.34160455713E+03  0.52902134155E+02  0.42073221922E+03  0.92727773427E+02 0.  0.
          2    1    3    3  502    0  0.70449312092E+03 -0.59963054034E+02  0.47818822272E+03  0.85356317963E+03  0.00000000000E+00 0. -1.
         -1    1    3    3    0  502  0.25058496693E+03  0.91226166855E+01  0.12575642909E+03  0.28051867539E+03  0.00000000000E+00 0.  1.
         11    1    5    5    0    0 -0.96839104202E+02 -0.58976121722E+02  0.16449345490E+03  0.19978511391E+03  0.00000000000E+00 0.  1.
        -11    1    5    5    0    0 -0.63704935668E+03 -0.23178799806E+03  0.73874591840E+03  0.10026480394E+04  0.00000000000E+00 0. -1.
          3    1    6    6  503    0  0.35272619694E+01  0.45632818358E+02  0.48857386743E+01  0.46028970559E+02  0.00000000000E+00 0. -1.
         -3    1    6    6    0  503 -0.22471688894E+03  0.29597173877E+03  0.48016395481E+02  0.37470324866E+03  0.00000000000E+00 0.  1.
<mgrwt>
<rscale>  0 0.22734431E+04</rscale>
<asrwt>0</asrwt>
<pdfrwt beam="1">  1        2 0.33210256E+00 0.22734431E+04</pdfrwt>
<pdfrwt beam="2">  1       -1 0.92089314E-01 0.22734431E+04</pdfrwt>
<totfact> 0.64653643E+00</totfact>
</mgrwt>
</event>
<event>
12    6  0.1540825E-007  0.2695143E+04  0.7818608E-02  0.8336582E-01
          2   -1    0    0  501    0  0.00000000000E+00  0.00000000000E+00  0.12967978707E+04  0.12967978707E+04  0.00000000000E+00 0. -1.
         -1   -1    0    0    0  501 -0.00000000000E+00 -0.00000000000E+00 -0.14003334262E+04  0.14003334262E+04  0.00000000000E+00 0.  1.
         24    2    1    2    0    0  0.90398138284E+03 -0.20856982002E+02  0.73774530984E+03  0.11697397488E+04  0.80034889639E+02 0.  0.
        254    2    1    2    0    0 -0.90398138284E+03  0.20856982002E+02 -0.84128086536E+03  0.15273915481E+04  0.89864013514E+03 0.  0.
         23    2    4    4    0    0 -0.10176771247E+04  0.17014493725E+03 -0.81237326684E+03  0.13163860386E+04  0.91136425219E+02 0.  0.
         23    2    4    4    0    0  0.11369574190E+03 -0.14928795525E+03 -0.28907598514E+02  0.21100550949E+03  0.92054660253E+02 0.  0.
          4    1    3    3  502    0  0.63204736411E+03  0.20203503356E+02  0.52938376477E+03  0.82470553680E+03  0.00000000000E+00 0. -1.
         -3    1    3    3    0  502  0.27193401874E+03 -0.41060485358E+02  0.20836154507E+03  0.34503421203E+03  0.00000000000E+00 0.  1.
         11    1    5    5    0    0 -0.28063392872E+03  0.31588091345E+02 -0.27141681939E+03  0.39168903395E+03  0.00000000000E+00 0.  1.
        -11    1    5    5    0    0 -0.73704319602E+03  0.13855684591E+03 -0.54095644745E+03  0.92469700464E+03  0.00000000000E+00 0. -1.
          4    1    6    6  503    0  0.11720707254E+03 -0.15218038086E+03 -0.10857419669E+02  0.19239087747E+03  0.00000000000E+00 0. -1.
         -4    1    6    6    0  503 -0.35113306371E+01  0.28924256146E+01 -0.18050178846E+02  0.18614632017E+02  0.00000000000E+00 0.  1.
<mgrwt>
<rscale>  0 0.26951433E+04</rscale>
<asrwt>0</asrwt>
<pdfrwt beam="1">  1        2 0.19950736E+00 0.26951433E+04</pdfrwt>
<pdfrwt beam="2">  1       -1 0.21543591E+00 0.26951433E+04</pdfrwt>
<totfact> 0.19607746E+00</totfact>
</mgrwt>
</event>
<event>
12    6  0.1540825E-007  0.1090500E+04  0.7818608E-02  0.9214501E-01
         -1   -1    0    0    0  501 -0.00000000000E+00  0.00000000000E+00  0.25636003736E+03  0.25636003736E+03  0.00000000000E+00 0.  1.
          2   -1    0    0  501    0  0.00000000000E+00 -0.00000000000E+00 -0.11596882615E+04  0.11596882615E+04  0.00000000000E+00 0. -1.
         24    2    1    2    0    0  0.16298071629E+03 -0.27728345378E+02 -0.46699710883E+02  0.18982375941E+03  0.80750366083E+02 0.  0.
        254    2    1    2    0    0 -0.16298071629E+03  0.27728345378E+02 -0.85662851325E+03  0.12262245394E+04  0.86167432152E+03 0.  0.
         23    2    4    4    0    0 -0.26330645717E+03 -0.13251546949E+03  0.34749278659E+02  0.31046977326E+03  0.91067709405E+02 0.  0.
         23    2    4    4    0    0  0.10032574088E+03  0.16024381487E+03 -0.89137779191E+03  0.91575476617E+03  0.91154206563E+02 0.  0.
          2    1    3    3  502    0  0.14129231483E+03 -0.46906727846E+02 -0.56533534183E+02  0.15924760543E+03  0.00000000000E+00 0. -1.
         -1    1    3    3    0  502  0.21688401457E+02  0.19178382468E+02  0.98338233008E+01  0.30576153986E+02  0.00000000000E+00 0.  1.
         11    1    5    5    0    0 -0.25413602485E+03 -0.11608272368E+03  0.52863296016E+02  0.28434986536E+03  0.00000000000E+00 0. -1.
        -11    1    5    5    0    0 -0.91704323206E+01 -0.16432745808E+02 -0.18114017357E+02  0.26119907897E+02  0.00000000000E+00 0.  1.
          2    1    6    6  503    0  0.87643774670E+02  0.13745351785E+03 -0.85823661037E+03  0.87358169634E+03  0.00000000000E+00 0. -1.
         -2    1    6    6    0  503  0.12681966210E+02  0.22790297016E+02 -0.33141181540E+02  0.42173069830E+02  0.00000000000E+00 0.  1.
<mgrwt>
<rscale>  0 0.10905003E+04</rscale>
<asrwt>0</asrwt>
<pdfrwt beam="1">  1        2 0.17841358E+00 0.10905003E+04</pdfrwt>
<pdfrwt beam="2">  1       -1 0.39440005E-01 0.10905003E+04</pdfrwt>
<totfact> 0.14164891E+02</totfact>
</mgrwt>
</event>
<event>
12    6  0.1540825E-007  0.1378119E+04  0.7818608E-02  0.8969811E-01
          2   -1    0    0  501    0  0.00000000000E+00  0.00000000000E+00  0.57047033370E+03  0.57047033370E+03  0.00000000000E+00 0. -1.
         -1   -1    0    0    0  501 -0.00000000000E+00 -0.00000000000E+00 -0.83230140638E+03  0.83230140638E+03  0.00000000000E+00 0.  1.
         24    2    1    2    0    0  0.30259690403E+03  0.65374464898E+02 -0.30423650754E+03  0.44166902716E+03  0.81688249110E+02 0.  0.
        254    2    1    2    0    0 -0.30259690403E+03 -0.65374464898E+02  0.42405434869E+02  0.96110271292E+03  0.90889025569E+03 0.  0.
         23    2    4    4    0    0  0.15644666934E+03 -0.32777305500E+03 -0.13099500287E+03  0.39725754951E+03  0.93504726834E+02 0.  0.
         23    2    4    4    0    0 -0.45904357336E+03  0.26239859010E+03  0.17340043774E+03  0.56384516341E+03  0.90992495066E+02 0.  0.
          4    1    3    3  502    0  0.18805903517E+02  0.45251850326E+01  0.23558358084E+01  0.19485616978E+02  0.00000000000E+00 0. -1.
         -3    1    3    3    0  502  0.28379100051E+03  0.60849279866E+02 -0.30659234335E+03  0.42218341018E+03  0.00000000000E+00 0.  1.
         11    1    5    5    0    0 -0.10823130312E+00  0.61471668953E+01 -0.10569800210E+01  0.62383156075E+01  0.00000000000E+00 0.  1.
        -11    1    5    5    0    0  0.15655490064E+03 -0.33392022190E+03 -0.12993802285E+03  0.39101923391E+03  0.00000000000E+00 0. -1.
          3    1    6    6  503    0 -0.44923580773E+03  0.24732563150E+03  0.14994706651E+03  0.53429102715E+03  0.00000000000E+00 0. -1.
         -3    1    6    6    0  503 -0.98077656314E+01  0.15072958606E+02  0.23453371226E+02  0.29554136253E+02  0.00000000000E+00 0.  1.
<mgrwt>
<rscale>  0 0.13781194E+04</rscale>
<asrwt>0</asrwt>
<pdfrwt beam="1">  1        2 0.87764667E-01 0.13781194E+04</pdfrwt>
<pdfrwt beam="2">  1       -1 0.12804637E+00 0.13781194E+04</pdfrwt>
<totfact> 0.30950227E+01</totfact>
</mgrwt>
</event>
<event>
12    6  0.1540825E-007  0.1632564E+04  0.7818608E-02  0.8800789E-01
          2   -1    0    0  501    0  0.00000000000E+00  0.00000000000E+00  0.24819947666E+03  0.24819947666E+03  0.00000000000E+00 0. -1.
         -1   -1    0    0    0  501 -0.00000000000E+00 -0.00000000000E+00 -0.26846004354E+04  0.26846004354E+04  0.00000000000E+00 0.  1.
         24    2    1    2    0    0 -0.19281554819E+02 -0.35393802349E+03 -0.16245619271E+04  0.16647122889E+04  0.80135179586E+02 0.  0.
        254    2    1    2    0    0  0.19281554819E+02  0.35393802349E+03 -0.81183903165E+03  0.12680876232E+04  0.90736966222E+03 0.  0.
         23    2    4    4    0    0  0.36850767882E+03  0.45548136837E+03 -0.43158820713E+03  0.73348600354E+03  0.92044285933E+02 0.  0.
         23    2    4    4    0    0 -0.34922612400E+03 -0.10154334488E+03 -0.38025082452E+03  0.53460161964E+03  0.94542401046E+02 0.  0.
          4    1    3    3  502    0  0.16035370459E+02 -0.13145011921E+02 -0.99678720715E+02  0.10181243444E+03  0.00000000000E+00 0. -1.
         -1    1    3    3    0  502 -0.35316925278E+02 -0.34079301157E+03 -0.15248832064E+04  0.15628998545E+04  0.00000000000E+00 0.  1.
         11    1    5    5    0    0  0.28833756422E+03  0.29054749010E+03 -0.30958350458E+03  0.51322348080E+03  0.00000000000E+00 0. -1.
        -11    1    5    5    0    0  0.80170114603E+02  0.16493387827E+03 -0.12200470255E+03  0.22026252274E+03  0.00000000000E+00 0.  1.
          3    1    6    6  503    0 -0.31532767093E+03 -0.88609679918E+02 -0.37506187678E+03  0.49795042609E+03  0.00000000000E+00 0. -1.
         -3    1    6    6    0  503 -0.33898453069E+02 -0.12933664959E+02 -0.51889477429E+01  0.36651193547E+02  0.00000000000E+00 0.  1.
<mgrwt>
<rscale>  0 0.16325641E+04</rscale>
<asrwt>0</asrwt>
<pdfrwt beam="1">  1        2 0.38184535E-01 0.16325641E+04</pdfrwt>
<pdfrwt beam="2">  1       -1 0.41301545E+00 0.16325641E+04</pdfrwt>
<totfact> 0.87008265E-01</totfact>
</mgrwt>
</event>
<event>
12    6  0.1540825E-007  0.1713548E+04  0.7818608E-02  0.8753675E-01
         -1   -1    0    0    0  501 -0.00000000000E+00  0.00000000000E+00  0.76947176751E+03  0.76947176751E+03  0.00000000000E+00 0.  1.
          2   -1    0    0  501    0  0.00000000000E+00 -0.00000000000E+00 -0.95398108581E+03  0.95398108581E+03  0.00000000000E+00 0. -1.
         24    2    1    2    0    0 -0.12728857795E+03  0.11611550513E+03 -0.66027815170E+03  0.68731699503E+03  0.82171901736E+02 0.  0.
        254    2    1    2    0    0  0.12728857795E+03 -0.11611550513E+03  0.47576883339E+03  0.10361358583E+04  0.90417716262E+03 0.  0.
         23    2    4    4    0    0  0.15675529587E+03 -0.46850535479E+03  0.10122297003E+03  0.51304885269E+03  0.94358599715E+02 0.  0.
         23    2    4    4    0    0 -0.29466717923E+02  0.35238984966E+03  0.37454586336E+03  0.52308700560E+03  0.91041298639E+02 0.  0.
          4    1    3    3  502    0 -0.11587554452E+03  0.11332638243E+03 -0.65441255213E+03  0.67418528548E+03  0.00000000000E+00 0. -1.
         -3    1    3    3    0  502 -0.11413033423E+02  0.27891226979E+01 -0.58655995709E+01  0.13131709548E+02  0.00000000000E+00 0.  1.
         11    1    5    5    0    0  0.77277245561E+02 -0.10215824922E+03  0.26215801297E+02  0.13074918280E+03  0.00000000000E+00 0. -1.
        -11    1    5    5    0    0  0.79478050307E+02 -0.36634710557E+03  0.75007168735E+02  0.38229966990E+03  0.00000000000E+00 0.  1.
          4    1    6    6  503    0  0.26007136768E+02  0.86594722812E+02  0.12526871562E+03  0.15449035016E+03  0.00000000000E+00 0. -1.
         -4    1    6    6    0  503 -0.55473854691E+02  0.26579512685E+03  0.24927714774E+03  0.36859665543E+03  0.00000000000E+00 0.  1.
<mgrwt>
<rscale>  0 0.17135478E+04</rscale>
<asrwt>0</asrwt>
<pdfrwt beam="1">  1        2 0.14676632E+00 0.17135478E+04</pdfrwt>
<pdfrwt beam="2">  1       -1 0.11838027E+00 0.17135478E+04</pdfrwt>
<totfact> 0.18736782E+01</totfact>
</mgrwt>
</event>
<event>
12    6  0.1540825E-007  0.1627222E+04  0.7818608E-02  0.8803997E-01
          2   -1    0    0  501    0  0.00000000000E+00  0.00000000000E+00  0.15379589503E+04  0.15379589503E+04  0.00000000000E+00 0. -1.
         -1   -1    0    0    0  501 -0.00000000000E+00 -0.00000000000E+00 -0.43041645224E+03  0.43041645224E+03  0.00000000000E+00 0.  1.
         24    2    1    2    0    0  0.35581868144E+03 -0.14163100133E+03  0.87030975524E+03  0.95412663303E+03  0.79071405617E+02 0.  0.
        254    2    1    2    0    0 -0.35581868144E+03  0.14163100133E+03  0.23723274284E+03  0.10142487695E+04  0.90871057969E+03 0.  0.
         23    2    4    4    0    0 -0.34012165374E+03  0.25768681225E+03 -0.25048730768E+03  0.50455828131E+03  0.98741761097E+02 0.  0.
         23    2    4    4    0    0 -0.15697027699E+02 -0.11605581091E+03  0.48772005052E+03  0.50969048823E+03  0.90543901988E+02 0.  0.
          2    1    3    3  502    0  0.25160695778E+03 -0.94346510390E+02  0.69101594077E+03  0.74142454479E+03  0.00000000000E+00 0. -1.
         -1    1    3    3    0  502  0.10421172365E+03 -0.47284490944E+02  0.17929381447E+03  0.21270208823E+03  0.00000000000E+00 0.  1.
         11    1    5    5    0    0 -0.34692917604E+03  0.25541480844E+03 -0.24610514375E+03  0.49614949293E+03  0.00000000000E+00 0. -1.
        -11    1    5    5    0    0  0.68075223058E+01  0.22720038079E+01 -0.43821639358E+01  0.84087883793E+01  0.00000000000E+00 0.  1.
          3    1    6    6  503    0  0.21829537536E+02 -0.50284492614E+02  0.33245298636E+03  0.33694220135E+03  0.00000000000E+00 0. -1.
         -3    1    6    6    0  503 -0.37526565235E+02 -0.65771318297E+02  0.15526706415E+03  0.17274828688E+03  0.00000000000E+00 0.  1.
<mgrwt>
<rscale>  0 0.16272220E+04</rscale>
<asrwt>0</asrwt>
<pdfrwt beam="1">  1        2 0.23660907E+00 0.16272220E+04</pdfrwt>
<pdfrwt beam="2">  1       -1 0.66217916E-01 0.16272220E+04</pdfrwt>
<totfact> 0.30448974E+01</totfact>
</mgrwt>
</event>
<event>
12    6  0.1540825E-007  0.1339776E+04  0.7818608E-02  0.8998603E-01
         -1   -1    0    0    0  501 -0.00000000000E+00  0.00000000000E+00  0.75449545700E+03  0.75449545700E+03  0.00000000000E+00 0.  1.
          2   -1    0    0  501    0  0.00000000000E+00 -0.00000000000E+00 -0.59476861361E+03  0.59476861361E+03  0.00000000000E+00 0. -1.
         24    2    1    2    0    0 -0.22160320638E+03  0.22157130714E+02  0.33208427931E+03  0.40817399757E+03  0.82019047820E+02 0.  0.
        254    2    1    2    0    0  0.22160320638E+03 -0.22157130714E+02 -0.17235743592E+03  0.94109007305E+03  0.89796688155E+03 0.  0.
         23    2    4    4    0    0  0.22123283553E+03  0.26314012698E+03  0.24156658044E+03  0.43015777268E+03  0.92166168811E+02 0.  0.
         23    2    4    4    0    0  0.37037085258E+00 -0.28529725769E+03 -0.41392401636E+03  0.51093230037E+03  0.91236296632E+02 0.  0.
          2    1    3    3  502    0 -0.49527654355E+02  0.99787826929E+01  0.25988253074E+02  0.56815085565E+02  0.00000000000E+00 0. -1.
         -1    1    3    3    0  502 -0.17207555202E+03  0.12178348021E+02  0.30609602624E+03  0.35135891200E+03  0.00000000000E+00 0.  1.
         11    1    5    5    0    0  0.12119307195E+03  0.77312761000E+02  0.81238538329E+02  0.16512033131E+03  0.00000000000E+00 0. -1.
        -11    1    5    5    0    0  0.10003976358E+03  0.18582736598E+03  0.16032804211E+03  0.26503744137E+03  0.00000000000E+00 0.  1.
          3    1    6    6  503    0 -0.38652467785E+02 -0.83907609473E+02 -0.15697113378E+03  0.18213851057E+03  0.00000000000E+00 0. -1.
         -3    1    6    6    0  503  0.39022838638E+02 -0.20138964822E+03 -0.25695288258E+03  0.32879378980E+03  0.00000000000E+00 0.  1.
<mgrwt>
<rscale>  0 0.13397764E+04</rscale>
<asrwt>0</asrwt>
<pdfrwt beam="1">  1        2 0.91502863E-01 0.13397764E+04</pdfrwt>
<pdfrwt beam="2">  1       -1 0.11607622E+00 0.13397764E+04</pdfrwt>
<totfact> 0.37598303E+01</totfact>
</mgrwt>
</event>
<event>
12    6  0.1540825E-007  0.1638252E+04  0.7818608E-02  0.8797387E-01
          2   -1    0    0  501    0  0.00000000000E+00  0.00000000000E+00  0.29099329343E+04  0.29099329343E+04  0.00000000000E+00 0. -1.
         -1   -1    0    0    0  501 -0.00000000000E+00 -0.00000000000E+00 -0.23057840832E+03  0.23057840832E+03  0.00000000000E+00 0.  1.
         24    2    1    2    0    0 -0.46113517925E+03  0.26275029816E+03  0.13564707343E+04  0.14605185477E+04  0.10685598928E+03 0.  0.
        254    2    1    2    0    0  0.46113517925E+03 -0.26275029816E+03  0.13228837917E+04  0.16799927949E+04  0.88919676786E+03 0.  0.
         23    2    4    4    0    0  0.37164076567E+03 -0.30216726568E+03  0.14306928463E+04  0.15113642589E+04  0.88983074935E+02 0.  0.
         23    2    4    4    0    0  0.89494413577E+02  0.39416967520E+02 -0.10780905459E+03  0.16862853599E+03  0.85146012878E+02 0.  0.
          2    1    3    3  502    0 -0.31950390220E+03  0.23279960324E+03  0.10362803592E+04  0.11091236999E+04  0.00000000000E+00 0. -1.
         -3    1    3    3    0  502 -0.14163127704E+03  0.29950694921E+02  0.32019037514E+03  0.35139484785E+03  0.00000000000E+00 0.  1.
         11    1    5    5    0    0  0.24443860755E+02 -0.54196215637E+02  0.21017480749E+03  0.21842202687E+03  0.00000000000E+00 0.  1.
        -11    1    5    5    0    0  0.34719690491E+03 -0.24797105004E+03  0.12205180388E+04  0.12929422321E+04  0.00000000000E+00 0. -1.
          1    1    6    6  503    0  0.80996724837E+02  0.51194343928E+02 -0.11716174275E+03  0.15135456468E+03  0.00000000000E+00 0. -1.
         -1    1    6    6    0  503  0.84976887394E+01 -0.11777376409E+02  0.93526881628E+01  0.17273971311E+02  0.00000000000E+00 0.  1.
<mgrwt>
<rscale>  0 0.16382524E+04</rscale>
<asrwt>0</asrwt>
<pdfrwt beam="1">  1        2 0.44768196E+00 0.16382524E+04</pdfrwt>
<pdfrwt beam="2">  1       -1 0.35473603E-01 0.16382524E+04</pdfrwt>
<totfact> 0.16413340E+01</totfact>
</mgrwt>
</event>
<event>
12    6  0.1540825E-007  0.1718257E+04  0.7818608E-02  0.8751019E-01
         -1   -1    0    0    0  501 -0.00000000000E+00  0.00000000000E+00  0.63929147092E+03  0.63929147092E+03  0.00000000000E+00 0.  1.
          2   -1    0    0  501    0  0.00000000000E+00 -0.00000000000E+00 -0.11545628370E+04  0.11545628370E+04  0.00000000000E+00 0. -1.
         24    2    1    2    0    0  0.12911160951E+03  0.16056267874E+03  0.42074209159E+03  0.47415103258E+03  0.73110276608E+02 0.  0.
        254    2    1    2    0    0 -0.12911160951E+03 -0.16056267874E+03 -0.93601345766E+03  0.13197032753E+04  0.90721847450E+03 0.  0.
         23    2    4    4    0    0  0.20376586304E+03  0.45344533516E+02  0.68207863943E+02  0.23758366561E+03  0.90647844976E+02 0.  0.
         23    2    4    4    0    0 -0.33287747255E+03 -0.20590721226E+03 -0.10042213216E+04  0.10821196097E+04  0.96525619319E+02 0.  0.
          2    1    3    3  502    0  0.49359315332E+02  0.13952078252E+02  0.11195523380E+03  0.12314616061E+03  0.00000000000E+00 0. -1.
         -1    1    3    3    0  502  0.79752294175E+02  0.14661060049E+03  0.30878685779E+03  0.35100487197E+03  0.00000000000E+00 0.  1.
         11    1    5    5    0    0  0.13540431755E+03  0.17714751493E+02  0.86455595921E+02  0.16162521987E+03  0.00000000000E+00 0.  1.
        -11    1    5    5    0    0  0.68361545491E+02  0.27629782024E+02 -0.18247731977E+02  0.75958445738E+02  0.00000000000E+00 0. -1.
          4    1    6    6  503    0 -0.23152967773E+03 -0.13846878174E+03 -0.56117423114E+03  0.62265248163E+03  0.00000000000E+00 0. -1.
         -4    1    6    6    0  503 -0.10134779482E+03 -0.67438430517E+02 -0.44304709046E+03  0.45946712808E+03  0.00000000000E+00 0.  1.
<mgrwt>
<rscale>  0 0.17182575E+04</rscale>
<asrwt>0</asrwt>
<pdfrwt beam="1">  1        2 0.17762505E+00 0.17182575E+04</pdfrwt>
<pdfrwt beam="2">  1       -1 0.98352534E-01 0.17182575E+04</pdfrwt>
<totfact> 0.21643350E+01</totfact>
</mgrwt>
</event>
<event>
12    6  0.1540825E-007  0.2040518E+04  0.7818608E-02  0.8587908E-01
         -1   -1    0    0    0  501 -0.00000000000E+00  0.00000000000E+00  0.92832735910E+03  0.92832735910E+03  0.00000000000E+00 0.  1.
          2   -1    0    0  501    0  0.00000000000E+00 -0.00000000000E+00 -0.11212948317E+04  0.11212948317E+04  0.00000000000E+00 0. -1.
         24    2    1    2    0    0  0.58876084527E+03  0.42158410390E+03  0.30254952248E+03  0.78876767444E+03  0.79030001328E+02 0.  0.
        254    2    1    2    0    0 -0.58876084527E+03 -0.42158410390E+03 -0.49551699508E+03  0.12608545164E+04  0.90545266548E+03 0.  0.
         23    2    4    4    0    0  0.10751173057E+03 -0.34762364790E+03 -0.40088583826E+03  0.54850973451E+03  0.88048286467E+02 0.  0.
         23    2    4    4    0    0 -0.69627257584E+03 -0.73960456005E+02 -0.94631156818E+02  0.71234478185E+03  0.90633235978E+02 0.  0.
          2    1    3    3  502    0  0.18577154718E+03  0.12746761374E+03  0.55433530855E+02  0.23201710419E+03  0.00000000000E+00 0. -1.
         -1    1    3    3    0  502  0.40298929808E+03  0.29411649016E+03  0.24711599163E+03  0.55675057025E+03  0.00000000000E+00 0.  1.
         11    1    5    5    0    0  0.95162503835E+02 -0.16329228710E+03 -0.21859582468E+03  0.28897129223E+03  0.00000000000E+00 0.  1.
        -11    1    5    5    0    0  0.12349226737E+02 -0.18433136080E+03 -0.18229001358E+03  0.25953844229E+03  0.00000000000E+00 0. -1.
          4    1    6    6  503    0 -0.59413128110E+03 -0.30687413401E+02 -0.73916926292E+02  0.59949763011E+03  0.00000000000E+00 0. -1.
         -4    1    6    6    0  503 -0.10214129474E+03 -0.43273042604E+02 -0.20714230525E+02  0.11284715173E+03  0.00000000000E+00 0.  1.
<mgrwt>
<rscale>  0 0.20405182E+04</rscale>
<asrwt>0</asrwt>
<pdfrwt beam="1">  1        2 0.17250690E+00 0.20405182E+04</pdfrwt>
<pdfrwt beam="2">  1       -1 0.14281959E+00 0.20405182E+04</pdfrwt>
<totfact> 0.88787919E+00</totfact>
</mgrwt>
</event>
<event>
12    6  0.1540825E-007  0.1548387E+04  0.7818608E-02  0.8852899E-01
         -1   -1    0    0    0  501 -0.00000000000E+00  0.00000000000E+00  0.48569343258E+03  0.48569343258E+03  0.00000000000E+00 0.  1.
          2   -1    0    0  501    0  0.00000000000E+00 -0.00000000000E+00 -0.12340611407E+04  0.12340611407E+04  0.00000000000E+00 0. -1.
         24    2    1    2    0    0  0.19302528335E+02  0.38757807751E+03 -0.61513946162E+03  0.73182281117E+03  0.81109283873E+02 0.  0.
        254    2    1    2    0    0 -0.19302528335E+02 -0.38757807751E+03 -0.13322824649E+03  0.98793176212E+03  0.89870464957E+03 0.  0.
         23    2    4    4    0    0  0.28554990548E+03 -0.49076709302E+03 -0.25576280931E+03  0.62992427610E+03  0.94862484029E+02 0.  0.
         23    2    4    4    0    0 -0.30485243382E+03  0.10318901551E+03  0.12253456282E+03  0.35800748602E+03  0.97834869219E+02 0.  0.
          2    1    3    3  502    0  0.78482087023E+01  0.10277379266E+03 -0.23568707349E+03  0.25724005024E+03  0.00000000000E+00 0. -1.
         -1    1    3    3    0  502  0.11454319633E+02  0.28480428486E+03 -0.37945238813E+03  0.47458276093E+03  0.00000000000E+00 0.  1.
         11    1    5    5    0    0  0.26835903110E+02 -0.17415265706E+02  0.20209065233E+01  0.32055284096E+02  0.00000000000E+00 0. -1.
        -11    1    5    5    0    0  0.25871400237E+03 -0.47335182731E+03 -0.25778371583E+03  0.59786899200E+03  0.00000000000E+00 0.  1.
          3    1    6    6  503    0 -0.43225127943E+02  0.10058809288E+02  0.57766530469E+02  0.72846162372E+02  0.00000000000E+00 0. -1.
         -3    1    6    6    0  503 -0.26162730588E+03  0.93130206217E+02  0.64768032348E+02  0.28516132365E+03  0.00000000000E+00 0.  1.
<mgrwt>
<rscale>  0 0.15483868E+04</rscale>
<asrwt>0</asrwt>
<pdfrwt beam="1">  1        2 0.18985556E+00 0.15483868E+04</pdfrwt>
<pdfrwt beam="2">  1       -1 0.74722068E-01 0.15483868E+04</pdfrwt>
<totfact> 0.35753213E+01</totfact>
</mgrwt>
</event>
<event>
12    6  0.1540825E-007  0.1553709E+04  0.7818608E-02  0.8849502E-01
          2   -1    0    0  501    0  0.00000000000E+00  0.00000000000E+00  0.25061369861E+03  0.25061369861E+03  0.00000000000E+00 0. -1.
         -1   -1    0    0    0  501 -0.00000000000E+00 -0.00000000000E+00 -0.24080997895E+04  0.24080997895E+04  0.00000000000E+00 0.  1.
         24    2    1    2    0    0 -0.54618183541E+03 -0.55719391018E+02 -0.75661923751E+03  0.93832645976E+03  0.81022383566E+02 0.  0.
        254    2    1    2    0    0  0.54618183541E+03  0.55719391018E+02 -0.14008668534E+04  0.17203870284E+04  0.83419682245E+03 0.  0.
         23    2    4    4    0    0  0.52113032386E+03  0.15929260291E+03 -0.14667426066E+04  0.15672872204E+04  0.90024493899E+02 0.  0.
         23    2    4    4    0    0  0.25051511553E+02 -0.10357321190E+03  0.65875753208E+02  0.15309980795E+03  0.88005385514E+02 0.  0.
          4    1    3    3  502    0 -0.20240667768E+03 -0.13447202354E+02 -0.21644685390E+03  0.29664546345E+03  0.00000000000E+00 0. -1.
         -3    1    3    3    0  502 -0.34377515772E+03 -0.42272188664E+02 -0.54017238361E+03  0.64168099631E+03  0.00000000000E+00 0.  1.
         11    1    5    5    0    0  0.50953145786E+03  0.13785102312E+03 -0.14076165033E+04  0.15033327747E+04  0.00000000000E+00 0.  1.
        -11    1    5    5    0    0  0.11598865990E+02  0.21441579790E+02 -0.59126103346E+02  0.63954445764E+02  0.00000000000E+00 0. -1.
          4    1    6    6  503    0  0.83439093419E+01 -0.51901525744E+02 -0.15913185957E+02  0.54923753376E+02  0.00000000000E+00 0. -1.
         -4    1    6    6    0  503  0.16707602211E+02 -0.51671686151E+02  0.81788939166E+02  0.98176054571E+02  0.00000000000E+00 0.  1.
<mgrwt>
<rscale>  0 0.15537088E+04</rscale>
<asrwt>0</asrwt>
<pdfrwt beam="1">  1        2 0.38555952E-01 0.15537088E+04</pdfrwt>
<pdfrwt beam="2">  1       -1 0.37047691E+00 0.15537088E+04</pdfrwt>
<totfact> 0.16869419E+00</totfact>
</mgrwt>
</event>
<event>
12    6  0.1540825E-007  0.1422110E+04  0.7818608E-02  0.8937968E-01
         -1   -1    0    0    0  501 -0.00000000000E+00  0.00000000000E+00  0.33673180901E+03  0.33673180901E+03  0.00000000000E+00 0.  1.
          2   -1    0    0  501    0  0.00000000000E+00 -0.00000000000E+00 -0.15014891960E+04  0.15014891960E+04  0.00000000000E+00 0. -1.
         24    2    1    2    0    0 -0.63886893711E+02 -0.27473758831E+02 -0.89180128086E+03  0.89825456204E+03  0.81947489722E+02 0.  0.
        254    2    1    2    0    0  0.63886893711E+02  0.27473758831E+02 -0.27295610617E+03  0.93996644302E+03  0.89676949964E+03 0.  0.
         23    2    4    4    0    0  0.94543792368E+02  0.43508625347E+03 -0.25032121935E+03  0.52008274249E+03  0.97912050015E+02 0.  0.
         23    2    4    4    0    0 -0.30656898657E+02 -0.40761249464E+03 -0.22634886816E+02  0.41988370053E+03  0.93285543598E+02 0.  0.
          2    1    3    3  502    0 -0.56205208805E+02 -0.54294349441E+02 -0.58696054913E+03  0.59213983831E+03  0.00000000000E+00 0. -1.
         -1    1    3    3    0  502 -0.76816849058E+01  0.26820590610E+02 -0.30484073172E+03  0.30611472373E+03  0.00000000000E+00 0.  1.
         11    1    5    5    0    0  0.49209849138E+02  0.28595348467E+03 -0.21261274218E+03  0.35971541916E+03  0.00000000000E+00 0. -1.
        -11    1    5    5    0    0  0.45333943230E+02  0.14913276880E+03 -0.37708477177E+02  0.16036732332E+03  0.00000000000E+00 0.  1.
          4    1    6    6  503    0  0.19068727588E+02 -0.18675673049E+02  0.34578808448E+01  0.26913826848E+02  0.00000000000E+00 0. -1.
         -4    1    6    6    0  503 -0.49725626245E+02 -0.38893682159E+03 -0.26092767661E+02  0.39296987368E+03  0.00000000000E+00 0.  1.
<mgrwt>
<rscale>  0 0.14221099E+04</rscale>
<asrwt>0</asrwt>
<pdfrwt beam="1">  1        2 0.23099834E+00 0.14221099E+04</pdfrwt>
<pdfrwt beam="2">  1       -1 0.51804893E-01 0.14221099E+04</pdfrwt>
<totfact> 0.52609644E+01</totfact>
</mgrwt>
</event>
<event>
12    6  0.1540825E-007  0.1075353E+04  0.7818608E-02  0.9229553E-01
          2   -1    0    0  501    0  0.00000000000E+00  0.00000000000E+00  0.50499011275E+03  0.50499011275E+03  0.00000000000E+00 0. -1.
         -1   -1    0    0    0  501 -0.00000000000E+00 -0.00000000000E+00 -0.57247900095E+03  0.57247900095E+03  0.00000000000E+00 0.  1.
         24    2    1    2    0    0 -0.81619891329E+02  0.14847430130E+02  0.10764008305E+03  0.15657514530E+03  0.77763332016E+02 0.  0.
        254    2    1    2    0    0  0.81619891329E+02 -0.14847430130E+02 -0.17512897125E+03  0.92089396839E+03  0.90027400918E+03 0.  0.
         23    2    4    4    0    0 -0.12882257320E+03  0.16544833810E+02 -0.49872752375E+03  0.52306526022E+03  0.89437892477E+02 0.  0.
         23    2    4    4    0    0  0.21044246453E+03 -0.31392263939E+02  0.32359855251E+03  0.39782870817E+03  0.90995344620E+02 0.  0.
          2    1    3    3  502    0 -0.73008518751E+02 -0.17926250962E+02  0.51931601567E+02  0.91370047199E+02  0.00000000000E+00 0. -1.
         -1    1    3    3    0  502 -0.86113725782E+01  0.32773681092E+02  0.55708481479E+02  0.65205098104E+02  0.00000000000E+00 0.  1.
         11    1    5    5    0    0 -0.12815211280E+03 -0.12337887961E+02 -0.41283713932E+03  0.43244617133E+03  0.00000000000E+00 0. -1.
        -11    1    5    5    0    0 -0.67046040366E+00  0.28882721771E+02 -0.85890384429E+02  0.90619088891E+02  0.00000000000E+00 0.  1.
          3    1    6    6  503    0  0.12320723179E+03  0.26971696767E+02  0.16602421505E+03  0.20849828386E+03  0.00000000000E+00 0. -1.
         -3    1    6    6    0  503  0.87235232749E+02 -0.58363960706E+02  0.15757433746E+03  0.18933042430E+03  0.00000000000E+00 0.  1.
<mgrwt>
<rscale>  0 0.10753534E+04</rscale>
<asrwt>0</asrwt>
<pdfrwt beam="1">  1        2 0.77690786E-01 0.10753534E+04</pdfrwt>
<pdfrwt beam="2">  1       -1 0.88073693E-01 0.10753534E+04</pdfrwt>
<totfact> 0.87738839E+01</totfact>
</mgrwt>
</event>
<event>
12    6  0.1540825E-007  0.1885991E+04  0.7818608E-02  0.8661861E-01
         -1   -1    0    0    0  501 -0.00000000000E+00  0.00000000000E+00  0.91856041567E+03  0.91856041567E+03  0.00000000000E+00 0.  1.
          2   -1    0    0  501    0  0.00000000000E+00 -0.00000000000E+00 -0.96808097830E+03  0.96808097830E+03  0.00000000000E+00 0. -1.
         24    2    1    2    0    0 -0.21117318660E+02  0.23192735965E+03  0.64663447716E+03  0.69064427913E+03  0.67949480803E+02 0.  0.
        254    2    1    2    0    0  0.21117318660E+02 -0.23192735965E+03 -0.69615503980E+03  0.11959971148E+04  0.94421449786E+03 0.  0.
         23    2    4    4    0    0 -0.13049639869E+03 -0.44770620023E+03 -0.77269821792E+03  0.90702517698E+03  0.90343698711E+02 0.  0.
         23    2    4    4    0    0  0.15161371735E+03  0.21577884058E+03  0.76543178127E+02  0.28897193786E+03  0.89992752059E+02 0.  0.
          4    1    3    3  502    0 -0.78754293411E+01  0.14009526355E+03  0.29035877946E+03  0.32248554397E+03  0.00000000000E+00 0. -1.
         -3    1    3    3    0  502 -0.13241889318E+02  0.91832096099E+02  0.35627569770E+03  0.36815873517E+03  0.00000000000E+00 0.  1.
         11    1    5    5    0    0  0.13210992476E+02 -0.52691877135E+02 -0.77894949846E+02  0.94966243738E+02  0.00000000000E+00 0. -1.
        -11    1    5    5    0    0 -0.14370739116E+03 -0.39501432310E+03 -0.69480326808E+03  0.81205893324E+03  0.00000000000E+00 0.  1.
          2    1    6    6  503    0  0.41863524906E+02  0.20282097300E+02 -0.11810509436E+02  0.47993815452E+02  0.00000000000E+00 0. -1.
         -2    1    6    6    0  503  0.10975019244E+03  0.19549674328E+03  0.88353687563E+02  0.24097812241E+03  0.00000000000E+00 0.  1.
<mgrwt>
<rscale>  0 0.18859914E+04</rscale>
<asrwt>0</asrwt>
<pdfrwt beam="1">  1        2 0.14893553E+00 0.18859914E+04</pdfrwt>
<pdfrwt beam="2">  1       -1 0.14131699E+00 0.18859914E+04</pdfrwt>
<totfact> 0.11558791E+01</totfact>
</mgrwt>
</event>
<event>
12    6  0.1540825E-007  0.2988417E+04  0.7818608E-02  0.8247046E-01
          2   -1    0    0  501    0  0.00000000000E+00  0.00000000000E+00  0.22011609282E+04  0.22011609282E+04  0.00000000000E+00 0. -1.
         -1   -1    0    0    0  501 -0.00000000000E+00 -0.00000000000E+00 -0.10143099460E+04  0.10143099460E+04  0.00000000000E+00 0.  1.
         24    2    1    2    0    0  0.83303378028E+03  0.91791801428E+03  0.11345070986E+04  0.16822550157E+04  0.79729673907E+02 0.  0.
        254    2    1    2    0    0 -0.83303378028E+03 -0.91791801428E+03  0.52343883593E+02  0.15332158586E+04  0.90082863346E+03 0.  0.
         23    2    4    4    0    0 -0.63828786209E+03 -0.44312860078E+03  0.42768723566E+03  0.89078058999E+03  0.82458087823E+02 0.  0.
         23    2    4    4    0    0 -0.19474591819E+03 -0.47478941350E+03 -0.37534335206E+03  0.64243526860E+03  0.92138388191E+02 0.  0.
          2    1    3    3  502    0  0.72283767344E+03  0.77597553401E+03  0.10020157564E+04  0.14589955132E+04  0.00000000000E+00 0. -1.
         -1    1    3    3    0  502  0.11019610684E+03  0.14194248027E+03  0.13249134216E+03  0.22325950241E+03  0.00000000000E+00 0.  1.
         11    1    5    5    0    0 -0.42771865793E+03 -0.30790626785E+03  0.33192330150E+03  0.62283432645E+03  0.00000000000E+00 0. -1.
        -11    1    5    5    0    0 -0.21056920415E+03 -0.13522233293E+03  0.95763934151E+02  0.26794626354E+03  0.00000000000E+00 0.  1.
          3    1    6    6  503    0 -0.17481795451E+03 -0.45943802278E+03 -0.37319874102E+03  0.61718871854E+03  0.00000000000E+00 0. -1.
         -3    1    6    6    0  503 -0.19927963678E+02 -0.15351390722E+02 -0.21446110469E+01  0.25246550062E+02  0.00000000000E+00 0.  1.
<mgrwt>
<rscale>  0 0.29884173E+04</rscale>
<asrwt>0</asrwt>
<pdfrwt beam="1">  1        2 0.33864014E+00 0.29884173E+04</pdfrwt>
<pdfrwt beam="2">  1       -1 0.15604768E+00 0.29884173E+04</pdfrwt>
<totfact> 0.15735909E+00</totfact>
</mgrwt>
</event>
<event>
12    6  0.1739969E-007  0.2707856E+04  0.7818608E-02  0.8332460E-01
         -1   -1    0    0    0  501 -0.00000000000E+00  0.00000000000E+00  0.12191882713E+04  0.12191882713E+04  0.00000000000E+00 0.  1.
          2   -1    0    0  501    0  0.00000000000E+00 -0.00000000000E+00 -0.15035590638E+04  0.15035590638E+04  0.00000000000E+00 0. -1.
         24    2    1    2    0    0  0.17620858365E+03  0.99897479509E+03  0.52228269008E+03  0.11436933803E+04  0.79090035462E+02 0.  0.
        254    2    1    2    0    0 -0.17620858365E+03 -0.99897479509E+03 -0.80665348258E+03  0.15790539549E+04  0.90206510032E+03 0.  0.
         23    2    4    4    0    0  0.66326208084E+02 -0.59400324772E+03 -0.90520180134E+03  0.10885724547E+04  0.91436665695E+02 0.  0.
         23    2    4    4    0    0 -0.24253479173E+03 -0.40497154736E+03  0.98548318755E+02  0.49048150014E+03  0.89639564242E+02 0.  0.
          2    1    3    3  502    0 -0.11623331027E+00  0.12223192136E+01 -0.23944841314E+01  0.26909345398E+01  0.00000000000E+00 0. -1.
         -1    1    3    3    0  502  0.17632481696E+03  0.99775247587E+03  0.52467717421E+03  0.11410024458E+04  0.00000000000E+00 0.  1.
         11    1    5    5    0    0 -0.19957234369E+01 -0.73939575852E+02 -0.17040246746E+03  0.18576341056E+03  0.00000000000E+00 0. -1.
        -11    1    5    5    0    0  0.68321931521E+02 -0.52006367187E+03 -0.73479933388E+03  0.90280904415E+03  0.00000000000E+00 0.  1.
          4    1    6    6  503    0 -0.68668823085E+02 -0.20048827300E+03  0.37411359700E+02  0.21519889570E+03  0.00000000000E+00 0. -1.
         -4    1    6    6    0  503 -0.17386596865E+03 -0.20448327437E+03  0.61136959055E+02  0.27528260445E+03  0.00000000000E+00 0.  1.
<mgrwt>
<rscale>  0 0.27078564E+04</rscale>
<asrwt>0</asrwt>
<pdfrwt beam="1">  1        2 0.23131678E+00 0.27078564E+04</pdfrwt>
<pdfrwt beam="2">  1       -1 0.18756743E+00 0.27078564E+04</pdfrwt>
<totfact> 0.23189686E+00</totfact>
</mgrwt>
</event>
<event>
12    6  0.1540825E-007  0.1773941E+04  0.7818608E-02  0.8720281E-01
          2   -1    0    0  501    0  0.00000000000E+00  0.00000000000E+00  0.60002083651E+03  0.60002083651E+03  0.00000000000E+00 0. -1.
         -1   -1    0    0    0  501 -0.00000000000E+00 -0.00000000000E+00 -0.13111486928E+04  0.13111486928E+04  0.00000000000E+00 0.  1.
         24    2    1    2    0    0 -0.42190614180E+03 -0.30848506178E+03  0.16196783851E+03  0.55741265882E+03  0.10633656790E+03 0.  0.
        254    2    1    2    0    0  0.42190614180E+03  0.30848506178E+03 -0.87309569484E+03  0.13537568705E+04  0.89285706939E+03 0.  0.
         23    2    4    4    0    0  0.26979658339E+03 -0.29210391393E+03 -0.32224025848E+03  0.51982699596E+03  0.90919902096E+02 0.  0.
         23    2    4    4    0    0  0.15210955841E+03  0.60058897571E+03 -0.55085543636E+03  0.83392987458E+03  0.90293346666E+02 0.  0.
          2    1    3    3  502    0 -0.23598647608E+03 -0.18550998700E+03  0.14636898271E+03  0.33395725964E+03  0.00000000000E+00 0. -1.
         -1    1    3    3    0  502 -0.18591966572E+03 -0.12297507478E+03  0.15598855794E+02  0.22345539918E+03  0.00000000000E+00 0.  1.
         11    1    5    5    0    0  0.26428820958E+03 -0.27085123425E+03 -0.27519591234E+03  0.46791178548E+03  0.00000000000E+00 0. -1.
        -11    1    5    5    0    0  0.55083738083E+01 -0.21252679682E+02 -0.47044346136E+02  0.51915210479E+02  0.00000000000E+00 0.  1.
          4    1    6    6  503    0  0.14425216730E+03  0.46987300265E+03 -0.46976749026E+03  0.67990500902E+03  0.00000000000E+00 0. -1.
         -4    1    6    6    0  503  0.78573911087E+01  0.13071597306E+03 -0.81087946101E+02  0.15402486556E+03  0.00000000000E+00 0.  1.
<mgrwt>
<rscale>  0 0.17739409E+04</rscale>
<asrwt>0</asrwt>
<pdfrwt beam="1">  1        2 0.92310899E-01 0.17739409E+04</pdfrwt>
<pdfrwt beam="2">  1       -1 0.20171518E+00 0.17739409E+04</pdfrwt>
<totfact> 0.78480953E+00</totfact>
</mgrwt>
</event>
<event>
12    6  0.1540825E-007  0.1016040E+04  0.7818608E-02  0.9291126E-01
          2   -1    0    0  501    0  0.00000000000E+00  0.00000000000E+00  0.52581134531E+03  0.52581134531E+03  0.00000000000E+00 0. -1.
         -1   -1    0    0    0  501 -0.00000000000E+00 -0.00000000000E+00 -0.49083026770E+03  0.49083026770E+03  0.00000000000E+00 0.  1.
         24    2    1    2    0    0 -0.55696001390E+02  0.17182810329E+02  0.50339483255E+02  0.11102413118E+03  0.79968747568E+02 0.  0.
        254    2    1    2    0    0  0.55696001390E+02 -0.17182810329E+02 -0.15358405643E+02  0.90561748183E+03  0.90360934548E+03 0.  0.
         23    2    4    4    0    0  0.38285892247E+03 -0.15854324597E+03 -0.22736522359E+03  0.48111508733E+03  0.89776761999E+02 0.  0.
         23    2    4    4    0    0 -0.32716292108E+03  0.14136043564E+03  0.21200681795E+03  0.42450239451E+03  0.90758153309E+02 0.  0.
          2    1    3    3  502    0  0.97024092482E+01 -0.17459333003E+02 -0.24430246796E+01  0.20122957628E+02  0.00000000000E+00 0. -1.
         -3    1    3    3    0  502 -0.65398410638E+02  0.34642143332E+02  0.52782507935E+02  0.90901173548E+02  0.00000000000E+00 0.  1.
         11    1    5    5    0    0  0.13730332115E+03 -0.94640956532E+02 -0.12077140063E+03  0.20590008223E+03  0.00000000000E+00 0.  1.
        -11    1    5    5    0    0  0.24555560133E+03 -0.63902289435E+02 -0.10659382296E+03  0.27521500510E+03  0.00000000000E+00 0. -1.
          3    1    6    6  503    0 -0.29027733200E+03  0.13002587007E+03  0.15046322617E+03  0.35186195985E+03  0.00000000000E+00 0. -1.
         -3    1    6    6    0  503 -0.36885589082E+02  0.11334565571E+02  0.61543591774E+02  0.72640434657E+02  0.00000000000E+00 0.  1.
<mgrwt>
<rscale>  0 0.10160396E+04</rscale>
<asrwt>0</asrwt>
<pdfrwt beam="1">  1        2 0.80894054E-01 0.10160396E+04</pdfrwt>
<pdfrwt beam="2">  1       -1 0.75512348E-01 0.10160396E+04</pdfrwt>
<totfact> 0.11676956E+02</totfact>
</mgrwt>
</event>
<event>
12    6  0.1540825E-007  0.1524372E+04  0.7818608E-02  0.8868406E-01
          2   -1    0    0  501    0  0.00000000000E+00  0.00000000000E+00  0.29183903636E+04  0.29183903636E+04  0.00000000000E+00 0. -1.
         -1   -1    0    0    0  501 -0.00000000000E+00 -0.00000000000E+00 -0.19905753167E+03  0.19905753167E+03  0.00000000000E+00 0.  1.
         24    2    1    2    0    0 -0.27122260013E+03  0.90554337159E+02  0.17157303346E+04  0.17416101443E+04  0.87826686658E+02 0.  0.
        254    2    1    2    0    0  0.27122260013E+03 -0.90554337159E+02  0.10036024974E+04  0.13758377510E+04  0.89663245401E+03 0.  0.
         23    2    4    4    0    0 -0.21805587169E+03 -0.31436670659E+03  0.46641188714E+03  0.61002089719E+03  0.90612676557E+02 0.  0.
         23    2    4    4    0    0  0.48927847182E+03  0.22381236943E+03  0.53719061027E+03  0.76581685385E+03  0.91740406430E+02 0.  0.
          4    1    3    3  502    0 -0.19024626365E+03  0.21986997184E+02  0.10179616826E+04  0.10358199921E+04  0.00000000000E+00 0. -1.
         -3    1    3    3    0  502 -0.80976336481E+02  0.68567339974E+02  0.69776865200E+03  0.70579015216E+03  0.00000000000E+00 0.  1.
         11    1    5    5    0    0 -0.21083035915E+03 -0.26652275546E+03  0.37148138937E+03  0.50347019988E+03  0.00000000000E+00 0. -1.
        -11    1    5    5    0    0 -0.72255125427E+01 -0.47843951132E+02  0.94930497764E+02  0.10655069731E+03  0.00000000000E+00 0.  1.
          4    1    6    6  503    0  0.47411670351E+03  0.21043877296E+03  0.53548134853E+03  0.74552759864E+03  0.00000000000E+00 0. -1.
         -4    1    6    6    0  503  0.15161768313E+02  0.13373596476E+02  0.17092617385E+01  0.20289255205E+02  0.00000000000E+00 0.  1.
<mgrwt>
<rscale>  0 0.15243721E+04</rscale>
<asrwt>0</asrwt>
<pdfrwt beam="1">  1        2 0.44898310E+00 0.15243721E+04</pdfrwt>
<pdfrwt beam="2">  1       -1 0.30624238E-01 0.15243721E+04</pdfrwt>
<totfact> 0.21281992E+01</totfact>
</mgrwt>
</event>
<event>
12    6  0.1540825E-007  0.1967234E+04  0.7818608E-02  0.8622095E-01
          2   -1    0    0  501    0  0.00000000000E+00  0.00000000000E+00  0.32532040724E+04  0.32532040724E+04  0.00000000000E+00 0. -1.
         -1   -1    0    0    0  501 -0.00000000000E+00 -0.00000000000E+00 -0.29739970749E+03  0.29739970749E+03  0.00000000000E+00 0.  1.
         24    2    1    2    0    0  0.28470928196E+03  0.58823178865E+03  0.19407109452E+04  0.20493488334E+04  0.79972842243E+02 0.  0.
        254    2    1    2    0    0 -0.28470928196E+03 -0.58823178865E+03  0.10150934196E+04  0.15012549465E+04  0.89234284403E+03 0.  0.
         23    2    4    4    0    0  0.91114223707E+02 -0.66682143817E+03  0.80939913980E+03  0.10562013063E+04  0.86496241455E+02 0.  0.
         23    2    4    4    0    0 -0.37582350567E+03  0.78589649518E+02  0.20569427984E+03  0.44505364016E+03  0.91339834886E+02 0.  0.
          4    1    3    3  502    0  0.28679453369E+03  0.58952898310E+03  0.19283052150E+04  0.20367023662E+04  0.00000000000E+00 0. -1.
         -3    1    3    3    0  502 -0.20852517331E+01 -0.12971944540E+01  0.12405730225E+02  0.12646467122E+02  0.00000000000E+00 0.  1.
         11    1    5    5    0    0  0.77834008808E+02 -0.49969258264E+03  0.54831976586E+03  0.74592585134E+03  0.00000000000E+00 0. -1.
        -11    1    5    5    0    0  0.13280214898E+02 -0.16712885553E+03  0.26107937395E+03  0.31027545497E+03  0.00000000000E+00 0.  1.
          1    1    6    6  503    0 -0.26040536383E+03  0.43885079258E+02  0.18582194969E+03  0.32290346960E+03  0.00000000000E+00 0. -1.
         -1    1    6    6    0  503 -0.11541814183E+03  0.34704570260E+02  0.19872330149E+02  0.12215017056E+03  0.00000000000E+00 0.  1.
<mgrwt>
<rscale>  0 0.19672335E+04</rscale>
<asrwt>0</asrwt>
<pdfrwt beam="1">  1        2 0.50049291E+00 0.19672335E+04</pdfrwt>
<pdfrwt beam="2">  1       -1 0.45753804E-01 0.19672335E+04</pdfrwt>
<totfact> 0.60477255E+00</totfact>
</mgrwt>
</event>
<event>
12    6  0.1540825E-007  0.1438294E+04  0.7818608E-02  0.8926557E-01
          2   -1    0    0  501    0  0.00000000000E+00  0.00000000000E+00  0.87353969146E+03  0.87353969146E+03  0.00000000000E+00 0. -1.
         -1   -1    0    0    0  501 -0.00000000000E+00 -0.00000000000E+00 -0.59204194842E+03  0.59204194842E+03  0.00000000000E+00 0.  1.
         24    2    1    2    0    0  0.16469881127E+03 -0.40397128358E+03  0.13064756603E+01  0.44291929695E+03  0.76533001655E+02 0.  0.
        254    2    1    2    0    0 -0.16469881127E+03  0.40397128358E+03  0.28019126738E+03  0.10226623429E+04  0.88148319606E+03 0.  0.
         23    2    4    4    0    0 -0.15315852007E+02 -0.25774754779E+03  0.18694175220E+03  0.33194569089E+03  0.92586982188E+02 0.  0.
         23    2    4    4    0    0 -0.14938295927E+03  0.66171883138E+03  0.93249515178E+02  0.69071665204E+03  0.90592168566E+02 0.  0.
          4    1    3    3  502    0  0.15833012657E+02 -0.84429716049E+02  0.25406928342E+02  0.89579982416E+02  0.00000000000E+00 0. -1.
         -3    1    3    3    0  502  0.14886579861E+03 -0.31954156753E+03 -0.24100452682E+02  0.35333931454E+03  0.00000000000E+00 0.  1.
         11    1    5    5    0    0  0.19366419903E+02 -0.10771824482E+02  0.29919169198E+02  0.37232339546E+02  0.00000000000E+00 0.  1.
        -11    1    5    5    0    0 -0.34682271910E+02 -0.24697572331E+03  0.15702258300E+03  0.29471335135E+03  0.00000000000E+00 0. -1.
          4    1    6    6  503    0 -0.11663306788E+03  0.59071342381E+03  0.10633551814E+03  0.61143508569E+03  0.00000000000E+00 0. -1.
         -4    1    6    6    0  503 -0.32749891381E+02  0.71005407565E+02 -0.13086002965E+02  0.79281566348E+02  0.00000000000E+00 0.  1.
<mgrwt>
<rscale>  0 0.14382936E+04</rscale>
<asrwt>0</asrwt>
<pdfrwt beam="1">  1        2 0.13439072E+00 0.14382936E+04</pdfrwt>
<pdfrwt beam="2">  1       -1 0.91083377E-01 0.14382936E+04</pdfrwt>
<totfact> 0.39850660E+01</totfact>
</mgrwt>
</event>
<event>
12    6  0.1540825E-007  0.2915449E+04  0.7818608E-02  0.8268296E-01
         -1   -1    0    0    0  501 -0.00000000000E+00  0.00000000000E+00  0.55701378278E+03  0.55701378278E+03  0.00000000000E+00 0.  1.
          2   -1    0    0  501    0  0.00000000000E+00 -0.00000000000E+00 -0.38149150673E+04  0.38149150673E+04  0.00000000000E+00 0. -1.
         24    2    1    2    0    0 -0.42912778538E+02  0.36951169264E+03  0.42067106673E+03  0.56715997776E+03  0.79535504178E+02 0.  0.
        254    2    1    2    0    0  0.42912778538E+02 -0.36951169264E+03 -0.36785723512E+04  0.38047688723E+04  0.89777014367E+03 0.  0.
         23    2    4    4    0    0  0.18474745547E+02 -0.56993232522E+03 -0.13870891864E+04  0.15025284582E+04  0.91712513268E+02 0.  0.
         23    2    4    4    0    0  0.24438032992E+02  0.20042063259E+03 -0.22914831648E+04  0.23022404141E+04  0.93006356031E+02 0.  0.
          2    1    3    3  502    0 -0.20989406547E+01 -0.19155911660E+01  0.16430188988E+02  0.16674116216E+02  0.00000000000E+00 0. -1.
         -1    1    3    3    0  502 -0.40813837884E+02  0.37142728380E+03  0.40424087774E+03  0.55048586154E+03  0.00000000000E+00 0.  1.
         11    1    5    5    0    0 -0.17032086480E+01 -0.54693742044E+03 -0.13102991787E+04  0.14198687899E+04  0.00000000000E+00 0. -1.
        -11    1    5    5    0    0  0.20177954195E+02 -0.22994904785E+02 -0.76790007666E+02  0.82659668272E+02  0.00000000000E+00 0.  1.
          1    1    6    6  503    0  0.16121973989E+02  0.69185913934E+02 -0.40527227947E+03  0.41145136923E+03  0.00000000000E+00 0. -1.
         -1    1    6    6    0  503  0.83160590024E+01  0.13123471865E+03 -0.18862108853E+04  0.18907890448E+04  0.00000000000E+00 0.  1.
<mgrwt>
<rscale>  0 0.29154487E+04</rscale>
<asrwt>0</asrwt>
<pdfrwt beam="1">  1        2 0.58691000E+00 0.29154487E+04</pdfrwt>
<pdfrwt beam="2">  1       -1 0.85694430E-01 0.29154487E+04</pdfrwt>
<totfact> 0.63007879E-01</totfact>
</mgrwt>
</event>
<event>
12    6  0.1540825E-007  0.2325533E+04  0.7818608E-02  0.8467921E-01
         -1   -1    0    0    0  501 -0.00000000000E+00  0.00000000000E+00  0.77275208047E+03  0.77275208047E+03  0.00000000000E+00 0.  1.
          2   -1    0    0  501    0  0.00000000000E+00 -0.00000000000E+00 -0.17496243819E+04  0.17496243819E+04  0.00000000000E+00 0. -1.
         24    2    1    2    0    0 -0.19113957775E+03 -0.29415177828E+03 -0.14150661407E+04  0.14600103670E+04  0.78475998290E+02 0.  0.
        254    2    1    2    0    0  0.19113957775E+03  0.29415177828E+03  0.43819383920E+03  0.10623660955E+04  0.90196910878E+03 0.  0.
         23    2    4    4    0    0 -0.11085914691E+03  0.52515292991E+03  0.38642254201E+03  0.66787927118E+03  0.93085926182E+02 0.  0.
         23    2    4    4    0    0  0.30199872467E+03 -0.23100115163E+03  0.51771297195E+02  0.39448682427E+03  0.91514073007E+02 0.  0.
          4    1    3    3  502    0 -0.19376529642E+03 -0.25583367471E+03 -0.12756185174E+04  0.13153700853E+04  0.00000000000E+00 0. -1.
         -3    1    3    3    0  502  0.26257186688E+01 -0.38318103567E+02 -0.13944762321E+03  0.14464028166E+03  0.00000000000E+00 0.  1.
         11    1    5    5    0    0 -0.25177815026E+02  0.33062372126E+03  0.22015172286E+03  0.39801099044E+03  0.00000000000E+00 0. -1.
        -11    1    5    5    0    0 -0.85681331888E+02  0.19452920865E+03  0.16627081914E+03  0.26986828074E+03  0.00000000000E+00 0.  1.
          2    1    6    6  503    0  0.98727107884E+01 -0.37869317456E+02 -0.58875682462E+01  0.39575485882E+02  0.00000000000E+00 0. -1.
         -2    1    6    6    0  503  0.29212601388E+03 -0.19313183417E+03  0.57658865441E+02  0.35491133839E+03  0.00000000000E+00 0.  1.
<mgrwt>
<rscale>  0 0.23255330E+04</rscale>
<asrwt>0</asrwt>
<pdfrwt beam="1">  1        2 0.26917298E+00 0.23255330E+04</pdfrwt>
<pdfrwt beam="2">  1       -1 0.11888494E+00 0.23255330E+04</pdfrwt>
<totfact> 0.60044832E+00</totfact>
</mgrwt>
</event>
<event>
12    6  0.1540825E-007  0.1992593E+04  0.7818608E-02  0.8610091E-01
          2   -1    0    0  501    0  0.00000000000E+00  0.00000000000E+00  0.12169611693E+04  0.12169611693E+04  0.00000000000E+00 0. -1.
         -1   -1    0    0    0  501 -0.00000000000E+00 -0.00000000000E+00 -0.81564390648E+03  0.81564390648E+03  0.00000000000E+00 0.  1.
         24    2    1    2    0    0  0.64162862105E+03  0.11625744313E+02 -0.31105068786E+03  0.71788813733E+03  0.82391759389E+02 0.  0.
        254    2    1    2    0    0 -0.64162862105E+03 -0.11625744313E+02  0.71236795073E+03  0.13147169385E+04  0.89954993518E+03 0.  0.
         23    2    4    4    0    0 -0.30849122657E+03  0.68718294822E+01  0.87512038193E+03  0.93245722187E+03  0.91797215873E+02 0.  0.
         23    2    4    4    0    0 -0.33313739448E+03 -0.18497573795E+02 -0.16275243120E+03  0.38225971663E+03  0.91167172044E+02 0.  0.
          4    1    3    3  502    0  0.10331049035E+03  0.29619153824E+02 -0.37842316548E+02  0.11394030284E+03  0.00000000000E+00 0. -1.
         -3    1    3    3    0  502  0.53831813070E+03 -0.17993409511E+02 -0.27320837131E+03  0.60394783449E+03  0.00000000000E+00 0.  1.
         11    1    5    5    0    0 -0.26178581156E+03  0.69576621676E+01  0.81671627060E+03  0.85767458098E+03  0.00000000000E+00 0.  1.
        -11    1    5    5    0    0 -0.46705415012E+02 -0.85832685414E-01  0.58404111330E+02  0.74782640892E+02  0.00000000000E+00 0. -1.
          4    1    6    6  503    0 -0.16731795813E+03 -0.29866337821E+02 -0.37266812014E+02  0.17400032335E+03  0.00000000000E+00 0. -1.
         -4    1    6    6    0  503 -0.16581943635E+03  0.11368764026E+02 -0.12548561919E+03  0.20825939328E+03  0.00000000000E+00 0.  1.
<mgrwt>
<rscale>  0 0.19925932E+04</rscale>
<asrwt>0</asrwt>
<pdfrwt beam="1">  1        2 0.18722480E+00 0.19925932E+04</pdfrwt>
<pdfrwt beam="2">  1       -1 0.12548368E+00 0.19925932E+04</pdfrwt>
<totfact> 0.10871214E+01</totfact>
</mgrwt>
</event>
<event>
12    6  0.1540825E-007  0.4263020E+04  0.7818608E-02  0.7953492E-01
          2   -1    0    0  501    0  0.00000000000E+00  0.00000000000E+00  0.13126990056E+04  0.13126990056E+04  0.00000000000E+00 0. -1.
         -3   -1    0    0    0  501 -0.00000000000E+00 -0.00000000000E+00 -0.34610635353E+04  0.34610635353E+04  0.00000000000E+00 0.  1.
         24    2    1    2    0    0  0.37120628684E+02  0.11088399052E+04  0.88387458421E+03  0.14207676611E+04  0.80265743902E+02 0.  0.
        254    2    1    2    0    0 -0.37120628684E+02 -0.11088399052E+04 -0.30322391139E+04  0.33529948798E+04  0.90398934952E+03 0.  0.
         23    2    4    4    0    0 -0.14070522745E+03 -0.10804370969E+04 -0.17555388826E+04  0.20683102251E+04  0.94064540524E+02 0.  0.
         23    2    4    4    0    0  0.10358459877E+03 -0.28402808395E+02 -0.12767002313E+04  0.12846846547E+04  0.94417651477E+02 0.  0.
          4    1    3    3  502    0 -0.11829794686E+01  0.73248100808E+03  0.61828358870E+03  0.95854286429E+03  0.00000000000E+00 0. -1.
         -3    1    3    3    0  502  0.38303608153E+02  0.37635889717E+03  0.26559099551E+03  0.46222479680E+03  0.00000000000E+00 0.  1.
         11    1    5    5    0    0 -0.55831297085E+02 -0.72246181818E+03 -0.11199927253E+04  0.13339609879E+04  0.00000000000E+00 0. -1.
        -11    1    5    5    0    0 -0.84873930368E+02 -0.35797527867E+03 -0.63554615727E+03  0.73434923723E+03  0.00000000000E+00 0.  1.
          3    1    6    6  503    0  0.10570731649E+02 -0.18766391124E+02 -0.70956387947E+03  0.70989070769E+03  0.00000000000E+00 0. -1.
         -3    1    6    6    0  503  0.93013867120E+02 -0.96364172705E+01 -0.56713635178E+03  0.57479394701E+03  0.00000000000E+00 0.  1.
<mgrwt>
<rscale>  0 0.42630199E+04</rscale>
<asrwt>0</asrwt>
<pdfrwt beam="1">  1        2 0.20195370E+00 0.42630199E+04</pdfrwt>
<pdfrwt beam="2">  1       -3 0.53247130E+00 0.42630199E+04</pdfrwt>
<totfact> 0.16011449E-02</totfact>
</mgrwt>
</event>
<event>
12    6  0.1540825E-007  0.2158847E+04  0.7818608E-02  0.8535755E-01
          2   -1    0    0  501    0  0.00000000000E+00  0.00000000000E+00  0.76807306585E+03  0.76807306585E+03  0.00000000000E+00 0. -1.
         -1   -1    0    0    0  501 -0.00000000000E+00 -0.00000000000E+00 -0.15169840947E+04  0.15169840947E+04  0.00000000000E+00 0.  1.
         24    2    1    2    0    0 -0.52200598748E+03 -0.49191378614E+03  0.24722557716E+03  0.76285515025E+03  0.79737508769E+02 0.  0.
        254    2    1    2    0    0  0.52200598748E+03  0.49191378614E+03 -0.99613660599E+03  0.15222020103E+04  0.90018964577E+03 0.  0.
         23    2    4    4    0    0  0.27701672306E+03  0.19778172564E+03  0.93976498064E+02  0.36333354658E+03  0.85579249998E+02 0.  0.
         23    2    4    4    0    0  0.24498926441E+03  0.29413206050E+03 -0.10901131041E+04  0.11588684637E+04  0.89978485358E+02 0.  0.
          4    1    3    3  502    0 -0.32153824134E+03 -0.33947068905E+03  0.13165002046E+03  0.48575602647E+03  0.00000000000E+00 0. -1.
         -3    1    3    3    0  502 -0.20046774613E+03 -0.15244309709E+03  0.11557555670E+03  0.27709912377E+03  0.00000000000E+00 0.  1.
         11    1    5    5    0    0  0.93473719463E+02  0.23597239521E+02  0.41249520119E+02  0.10486033022E+03  0.00000000000E+00 0.  1.
        -11    1    5    5    0    0  0.18354300360E+03  0.17418448612E+03  0.52726977945E+02  0.25847321637E+03  0.00000000000E+00 0. -1.
          1    1    6    6  503    0  0.24095623749E+03  0.29224935479E+03 -0.10109185546E+04  0.10795489419E+04  0.00000000000E+00 0. -1.
         -1    1    6    6    0  503  0.40330269226E+01  0.18827057085E+01 -0.79194549418E+02  0.79319521837E+02  0.00000000000E+00 0.  1.
<mgrwt>
<rscale>  0 0.21588466E+04</rscale>
<asrwt>0</asrwt>
<pdfrwt beam="1">  1        2 0.11816509E+00 0.21588466E+04</pdfrwt>
<pdfrwt beam="2">  1       -1 0.23338217E+00 0.21588466E+04</pdfrwt>
<totfact> 0.34102048E+00</totfact>
</mgrwt>
</event>
<event>
12    6  0.1540825E-007  0.1813216E+04  0.7818608E-02  0.8699303E-01
         -3   -1    0    0    0  501 -0.00000000000E+00  0.00000000000E+00  0.69973447771E+03  0.69973447771E+03  0.00000000000E+00 0.  1.
          2   -1    0    0  501    0  0.00000000000E+00 -0.00000000000E+00 -0.11746434319E+04  0.11746434319E+04  0.00000000000E+00 0. -1.
         24    2    1    2    0    0  0.11586547953E+03 -0.63401560225E+03 -0.40268378985E+03  0.76437495642E+03  0.81940503742E+02 0.  0.
        254    2    1    2    0    0 -0.11586547953E+03  0.63401560225E+03 -0.72225164392E+02  0.11100029532E+04  0.90082711358E+03 0.  0.
         23    2    4    4    0    0 -0.72141470690E+02 -0.19409141166E+03 -0.15104411244E+03  0.27207112823E+03  0.91282567035E+02 0.  0.
         23    2    4    4    0    0 -0.43724008835E+02  0.82810701391E+03  0.78818948044E+02  0.83793182500E+03  0.90798135119E+02 0.  0.
          2    1    3    3  502    0  0.10069698443E+02 -0.71582508190E+02 -0.17035596823E+02  0.74267529006E+02  0.00000000000E+00 0. -1.
         -1    1    3    3    0  502  0.10579578108E+03 -0.56243309406E+03 -0.38564819303E+03  0.69010742742E+03  0.00000000000E+00 0.  1.
         11    1    5    5    0    0 -0.57125063920E+02 -0.71440291354E+02 -0.10728191428E+03  0.14098367738E+03  0.00000000000E+00 0. -1.
        -11    1    5    5    0    0 -0.15016406770E+02 -0.12265112030E+03 -0.43762198160E+02  0.13108745085E+03  0.00000000000E+00 0.  1.
          1    1    6    6  503    0  0.15727738949E+02  0.74016771601E+02  0.24572204558E+02  0.79559018895E+02  0.00000000000E+00 0. -1.
         -1    1    6    6    0  503 -0.59451747784E+02  0.75409024231E+03  0.54246743485E+02  0.75837280610E+03  0.00000000000E+00 0.  1.
<mgrwt>
<rscale>  0 0.18132165E+04</rscale>
<asrwt>0</asrwt>
<pdfrwt beam="1">  1        2 0.18071437E+00 0.18132165E+04</pdfrwt>
<pdfrwt beam="2">  1       -3 0.10765146E+00 0.18132165E+04</pdfrwt>
<totfact> 0.86166829E+00</totfact>
</mgrwt>
</event>
<event>
12    6  0.1540825E-007  0.1465886E+04  0.7818608E-02  0.8907461E-01
          2   -1    0    0  501    0  0.00000000000E+00  0.00000000000E+00  0.88677393418E+03  0.88677393418E+03  0.00000000000E+00 0. -1.
         -1   -1    0    0    0  501 -0.00000000000E+00 -0.00000000000E+00 -0.60579765590E+03  0.60579765590E+03  0.00000000000E+00 0.  1.
         24    2    1    2    0    0 -0.42165532760E+02  0.16112387303E+03 -0.34390188693E+03  0.39004034393E+03  0.78256804509E+02 0.  0.
        254    2    1    2    0    0  0.42165532760E+02 -0.16112387303E+03  0.62487816521E+03  0.11025312461E+04  0.89295217832E+03 0.  0.
         23    2    4    4    0    0  0.21853386764E+03 -0.25464553543E+03  0.76574569763E+03  0.84123729337E+03  0.93339757370E+02 0.  0.
         23    2    4    4    0    0 -0.17636833488E+03  0.93521662399E+02 -0.14086753242E+03  0.26129395277E+03  0.92621688495E+02 0.  0.
          2    1    3    3  502    0  0.40092597104E+01  0.10488877922E+03 -0.15123892265E+03  0.18409492632E+03  0.00000000000E+00 0. -1.
         -1    1    3    3    0  502 -0.46174792471E+02  0.56235093806E+02 -0.19266296427E+03  0.20594541762E+03  0.00000000000E+00 0.  1.
         11    1    5    5    0    0  0.17807071873E+03 -0.14549363017E+03  0.54889302468E+03  0.59511438382E+03  0.00000000000E+00 0. -1.
        -11    1    5    5    0    0  0.40463148910E+02 -0.10915190526E+03  0.21685267295E+03  0.24612290955E+03  0.00000000000E+00 0.  1.
          1    1    6    6  503    0 -0.14671635942E+03  0.30670214135E+02 -0.10568838919E+03  0.18340225671E+03  0.00000000000E+00 0. -1.
         -1    1    6    6    0  503 -0.29651975462E+02  0.62851448264E+02 -0.35179143234E+02  0.77891696068E+02  0.00000000000E+00 0.  1.
<mgrwt>
<rscale>  0 0.14658862E+04</rscale>
<asrwt>0</asrwt>
<pdfrwt beam="1">  1        2 0.13642676E+00 0.14658862E+04</pdfrwt>
<pdfrwt beam="2">  1       -1 0.93199639E-01 0.14658862E+04</pdfrwt>
<totfact> 0.37003101E+01</totfact>
</mgrwt>
</event>
<event>
12    6  0.1540825E-007  0.1837860E+04  0.7818608E-02  0.8686421E-01
         -1   -1    0    0    0  501 -0.00000000000E+00  0.00000000000E+00  0.26153633319E+03  0.26153633319E+03  0.00000000000E+00 0.  1.
          2   -1    0    0  501    0  0.00000000000E+00 -0.00000000000E+00 -0.32287393751E+04  0.32287393751E+04  0.00000000000E+00 0. -1.
         24    2    1    2    0    0 -0.11277764973E+02  0.66104735229E+03 -0.70923211538E+03  0.97270480052E+03  0.77676544248E+02 0.  0.
        254    2    1    2    0    0  0.11277764973E+02 -0.66104735229E+03 -0.22579709265E+04  0.25175709077E+04  0.89589049587E+03 0.  0.
         23    2    4    4    0    0  0.28428177436E+03 -0.55118385187E+03 -0.74448720912E+03  0.97331033450E+03  0.91934960218E+02 0.  0.
         23    2    4    4    0    0 -0.27300400939E+03 -0.10986350042E+03 -0.15134837174E+04  0.15442605732E+04  0.86640506700E+02 0.  0.
          2    1    3    3  502    0  0.28541526276E+02  0.23218058386E+03 -0.27605597495E+03  0.36184160008E+03  0.00000000000E+00 0. -1.
         -1    1    3    3    0  502 -0.39819291249E+02  0.42886676843E+03 -0.43317614043E+03  0.61086320045E+03  0.00000000000E+00 0.  1.
         11    1    5    5    0    0  0.18220006614E+03 -0.28447900076E+03 -0.35150596546E+03  0.48752600928E+03  0.00000000000E+00 0. -1.
        -11    1    5    5    0    0  0.10208170822E+03 -0.26670485111E+03 -0.39298124367E+03  0.48578432522E+03  0.00000000000E+00 0.  1.
          1    1    6    6  503    0 -0.22786046702E+03 -0.12109070481E+03 -0.13418150042E+04  0.13664006941E+04  0.00000000000E+00 0. -1.
         -1    1    6    6    0  503 -0.45143542367E+02  0.11227204385E+02 -0.17166871315E+03  0.17785987915E+03  0.00000000000E+00 0.  1.
<mgrwt>
<rscale>  0 0.18378603E+04</rscale>
<asrwt>0</asrwt>
<pdfrwt beam="1">  1        2 0.49672916E+00 0.18378603E+04</pdfrwt>
<pdfrwt beam="2">  1       -1 0.40236357E-01 0.18378603E+04</pdfrwt>
<totfact> 0.80587346E+00</totfact>
</mgrwt>
</event>
<event>
12    6  0.1540825E-007  0.1185179E+04  0.7818608E-02  0.9125929E-01
         -1   -1    0    0    0  501 -0.00000000000E+00  0.00000000000E+00  0.16532807718E+03  0.16532807718E+03  0.00000000000E+00 0.  1.
          2   -1    0    0  501    0  0.00000000000E+00 -0.00000000000E+00 -0.21240317713E+04  0.21240317713E+04  0.00000000000E+00 0. -1.
         24    2    1    2    0    0 -0.59382500251E+02  0.78811531581E+02 -0.83503260524E+03  0.84473892643E+03  0.81036184314E+02 0.  0.
        254    2    1    2    0    0  0.59382500251E+02 -0.78811531581E+02 -0.11236710889E+04  0.14446209221E+04  0.90252720379E+03 0.  0.
         23    2    4    4    0    0  0.41211971513E+03 -0.37239710480E+02 -0.23749255375E+03  0.48559583722E+03  0.90394404686E+02 0.  0.
         23    2    4    4    0    0 -0.35273721488E+03 -0.41571821102E+02 -0.88617853515E+03  0.95902508485E+03  0.90911815176E+02 0.  0.
          4    1    3    3  502    0 -0.61725140395E+01  0.64203985901E+02 -0.59293133819E+03  0.59642922761E+03  0.00000000000E+00 0. -1.
         -3    1    3    3    0  502 -0.53209986211E+02  0.14607545680E+02 -0.24210126705E+03  0.24830969882E+03  0.00000000000E+00 0.  1.
         11    1    5    5    0    0  0.36193760647E+03 -0.11624681199E+02 -0.22941431371E+03  0.42867807446E+03  0.00000000000E+00 0.  1.
        -11    1    5    5    0    0  0.50182108665E+02 -0.25615029281E+02 -0.80782400420E+01  0.56917762757E+02  0.00000000000E+00 0. -1.
          1    1    6    6  503    0 -0.18486821494E+03  0.23123552804E+02 -0.47365278336E+03  0.50897732245E+03  0.00000000000E+00 0. -1.
         -1    1    6    6    0  503 -0.16786899994E+03 -0.64695373906E+02 -0.41252575179E+03  0.45004776239E+03  0.00000000000E+00 0.  1.
<mgrwt>
<rscale>  0 0.11851786E+04</rscale>
<asrwt>0</asrwt>
<pdfrwt beam="1">  1        2 0.32677413E+00 0.11851786E+04</pdfrwt>
<pdfrwt beam="2">  1       -1 0.25435088E-01 0.11851786E+04</pdfrwt>
<totfact> 0.87364337E+01</totfact>
</mgrwt>
</event>
<event>
12    6  0.1540825E-007  0.1903363E+04  0.7818608E-02  0.8653184E-01
          2   -1    0    0  501    0  0.00000000000E+00  0.00000000000E+00  0.11449380838E+04  0.11449380838E+04  0.00000000000E+00 0. -1.
         -1   -1    0    0    0  501 -0.00000000000E+00 -0.00000000000E+00 -0.79104508068E+03  0.79104508068E+03  0.00000000000E+00 0.  1.
         24    2    1    2    0    0  0.66811309889E+03 -0.10084311199E+03  0.45743264656E+03  0.81988382018E+03  0.80127437965E+02 0.  0.
        254    2    1    2    0    0 -0.66811309889E+03  0.10084311199E+03 -0.10353964346E+03  0.11160993443E+04  0.88227707801E+03 0.  0.
         23    2    4    4    0    0  0.19590548094E+03 -0.52277271988E+02  0.33162077797E+02  0.22316785828E+03  0.87133799045E+02 0.  0.
         23    2    4    4    0    0 -0.86401857983E+03  0.15312038398E+03 -0.13670172126E+03  0.89293148600E+03  0.93087699514E+02 0.  0.
          4    1    3    3  502    0  0.48932784544E+03 -0.41626086869E+02  0.31061179060E+03  0.58108016305E+03  0.00000000000E+00 0. -1.
         -3    1    3    3    0  502  0.17878525345E+03 -0.59217025119E+02  0.14682085596E+03  0.23880365713E+03  0.00000000000E+00 0.  1.
         11    1    5    5    0    0  0.26284177782E+02  0.60771280736E+01 -0.22737225561E+02  0.35281311109E+02  0.00000000000E+00 0.  1.
        -11    1    5    5    0    0  0.16962130316E+03 -0.58354400062E+02  0.55899303358E+02  0.18788654717E+03  0.00000000000E+00 0. -1.
          3    1    6    6  503    0 -0.64882635092E+03  0.78142636096E+02 -0.11999134847E+03  0.66443948478E+03  0.00000000000E+00 0. -1.
         -3    1    6    6    0  503 -0.21519222891E+03  0.74977747880E+02 -0.16710372791E+02  0.22849200122E+03  0.00000000000E+00 0.  1.
<mgrwt>
<rscale>  0 0.19033630E+04</rscale>
<asrwt>0</asrwt>
<pdfrwt beam="1">  1        2 0.17614432E+00 0.19033630E+04</pdfrwt>
<pdfrwt beam="2">  1       -1 0.12169924E+00 0.19033630E+04</pdfrwt>
<totfact> 0.13057457E+01</totfact>
</mgrwt>
</event>
<event>
12    6  0.1540825E-007  0.1230352E+04  0.7818608E-02  0.9086696E-01
         -1   -1    0    0    0  501 -0.00000000000E+00  0.00000000000E+00  0.22929334562E+03  0.22929334562E+03  0.00000000000E+00 0.  1.
          2   -1    0    0  501    0  0.00000000000E+00 -0.00000000000E+00 -0.16504701017E+04  0.16504701017E+04  0.00000000000E+00 0. -1.
         24    2    1    2    0    0 -0.15863938274E+03 -0.49663208137E+02  0.63375782481E+01  0.18486883909E+03  0.80643876213E+02 0.  0.
        254    2    1    2    0    0  0.15863938274E+03  0.49663208137E+02 -0.14275143343E+04  0.16948946082E+04  0.89846406177E+03 0.  0.
         23    2    4    4    0    0 -0.11235888443E+03 -0.60492372937E+02 -0.13761898978E+04  0.13849976710E+04  0.89644118466E+02 0.  0.
         23    2    4    4    0    0  0.27099826716E+03  0.11015558107E+03 -0.51324436581E+02  0.30989693721E+03  0.88473730856E+02 0.  0.
          2    1    3    3  502    0 -0.27070443856E+02 -0.21717326166E+02 -0.29636097099E+02  0.45637149753E+02  0.00000000000E+00 0. -1.
         -1    1    3    3    0  502 -0.13156893888E+03 -0.27945881971E+02  0.35973675347E+02  0.13923168934E+03  0.00000000000E+00 0.  1.
         11    1    5    5    0    0 -0.36173422253E+01 -0.17168190276E+00 -0.50146038305E+03  0.50147345932E+03  0.00000000000E+00 0. -1.
        -11    1    5    5    0    0 -0.10874154220E+03 -0.60320691034E+02 -0.87472951472E+03  0.88352421172E+03  0.00000000000E+00 0.  1.
          4    1    6    6  503    0  0.15498984736E+03  0.90952655341E+02 -0.65904148010E+02  0.19140949564E+03  0.00000000000E+00 0.  1.
         -4    1    6    6    0  503  0.11600841981E+03  0.19202925733E+02  0.14579711429E+02  0.11848744156E+03  0.00000000000E+00 0. -1.
<mgrwt>
<rscale>  0 0.12303525E+04</rscale>
<asrwt>0</asrwt>
<pdfrwt beam="1">  1        2 0.25391848E+00 0.12303525E+04</pdfrwt>
<pdfrwt beam="2">  1       -1 0.35275900E-01 0.12303525E+04</pdfrwt>
<totfact> 0.89690156E+01</totfact>
</mgrwt>
</event>
<event>
12    6  0.1540825E-007  0.1706407E+04  0.7818608E-02  0.8757719E-01
          2   -1    0    0  501    0  0.00000000000E+00  0.00000000000E+00  0.82794700552E+03  0.82794700552E+03  0.00000000000E+00 0. -1.
         -1   -1    0    0    0  501 -0.00000000000E+00 -0.00000000000E+00 -0.87922993333E+03  0.87922993333E+03  0.00000000000E+00 0.  1.
         24    2    1    2    0    0 -0.13499441463E+03  0.17152890295E+03 -0.59738509720E+03  0.64097207321E+03  0.79564990709E+02 0.  0.
        254    2    1    2    0    0  0.13499441463E+03 -0.17152890295E+03  0.54610216939E+03  0.10662048656E+04  0.88933659521E+03 0.  0.
         23    2    4    4    0    0 -0.28232084173E+03  0.26953378121E+02 -0.51271450040E+02  0.30584763503E+03  0.10238394405E+03 0.  0.
         23    2    4    4    0    0  0.41731525636E+03 -0.19848228108E+03  0.59737361943E+03  0.76035723061E+03  0.87980894846E+02 0.  0.
          2    1    3    3  502    0  0.98793521434E+01  0.16361418942E+02 -0.35424575804E+02  0.40251685672E+02  0.00000000000E+00 0. -1.
         -1    1    3    3    0  502 -0.14487376678E+03  0.15516748401E+03 -0.56196052140E+03  0.60072038754E+03  0.00000000000E+00 0.  1.
         11    1    5    5    0    0 -0.89892492079E+02  0.56241034519E+00  0.30752124995E+02  0.95008787116E+02  0.00000000000E+00 0. -1.
        -11    1    5    5    0    0 -0.19242834965E+03  0.26390967776E+02 -0.82023575035E+02  0.21083884792E+03  0.00000000000E+00 0.  1.
          3    1    6    6  503    0  0.47667233090E+02 -0.65287967024E+01  0.30688068598E+02  0.57066170811E+02  0.00000000000E+00 0. -1.
         -3    1    6    6    0  503  0.36964802327E+03 -0.19195348437E+03  0.56668555083E+03  0.70329105980E+03  0.00000000000E+00 0.  1.
<mgrwt>
<rscale>  0 0.17064065E+04</rscale>
<asrwt>0</asrwt>
<pdfrwt beam="1">  1        2 0.12737646E+00 0.17064065E+04</pdfrwt>
<pdfrwt beam="2">  1       -1 0.13526614E+00 0.17064065E+04</pdfrwt>
<totfact> 0.16369327E+01</totfact>
</mgrwt>
</event>
<event>
12    6  0.1540825E-007  0.3689806E+04  0.7818608E-02  0.8070225E-01
         -1   -1    0    0    0  501 -0.00000000000E+00  0.00000000000E+00  0.12904354257E+04  0.12904354257E+04  0.00000000000E+00 0.  1.
          2   -1    0    0  501    0  0.00000000000E+00 -0.00000000000E+00 -0.26376107385E+04  0.26376107385E+04  0.00000000000E+00 0. -1.
         24    2    1    2    0    0  0.36052756856E+03  0.14921518393E+04  0.22609659407E+03  0.15537111499E+04  0.80008926985E+02 0.  0.
        254    2    1    2    0    0 -0.36052756856E+03 -0.14921518393E+04 -0.15732719069E+04  0.23743350143E+04  0.89765529464E+03 0.  0.
         23    2    4    4    0    0 -0.60833610119E+03 -0.66878847933E+03 -0.89513413267E+03  0.12754663694E+04  0.90545579224E+02 0.  0.
         23    2    4    4    0    0  0.24780853263E+03 -0.82336335996E+03 -0.67813777422E+03  0.10988686449E+04  0.91132686566E+02 0.  0.
          2    1    3    3  502    0  0.26766880474E+02  0.20727336032E+03  0.15234314002E+02  0.20954903033E+03  0.00000000000E+00 0. -1.
         -1    1    3    3    0  502  0.33376068808E+03  0.12848784790E+04  0.21086228007E+03  0.13441621196E+04  0.00000000000E+00 0.  1.
         11    1    5    5    0    0 -0.40564196495E+03 -0.46162272879E+03 -0.54928332818E+03  0.82422880444E+03  0.00000000000E+00 0. -1.
        -11    1    5    5    0    0 -0.20269413625E+03 -0.20716575054E+03 -0.34585080449E+03  0.45123756497E+03  0.00000000000E+00 0.  1.
          2    1    6    6  503    0  0.20696953796E+03 -0.63163439563E+03 -0.47790204258E+03  0.81865057362E+03  0.00000000000E+00 0. -1.
         -2    1    6    6    0  503  0.40838994669E+02 -0.19172896434E+03 -0.20023573164E+03  0.28021807129E+03  0.00000000000E+00 0.  1.
<mgrwt>
<rscale>  0 0.36898056E+04</rscale>
<asrwt>0</asrwt>
<pdfrwt beam="1">  1        2 0.40578626E+00 0.36898056E+04</pdfrwt>
<pdfrwt beam="2">  1       -1 0.19852853E+00 0.36898056E+04</pdfrwt>
<totfact> 0.40949933E-01</totfact>
</mgrwt>
</event>
<event>
12    6  0.1540825E-007  0.1568792E+04  0.7818608E-02  0.8839953E-01
          2   -1    0    0  501    0  0.00000000000E+00  0.00000000000E+00  0.90477695183E+03  0.90477695183E+03  0.00000000000E+00 0. -1.
         -1   -1    0    0    0  501 -0.00000000000E+00 -0.00000000000E+00 -0.68003213994E+03  0.68003213994E+03  0.00000000000E+00 0.  1.
         24    2    1    2    0    0  0.31997279918E+03  0.39374596970E+03  0.20820742006E+03  0.55430404749E+03  0.80524321956E+02 0.  0.
        254    2    1    2    0    0 -0.31997279918E+03 -0.39374596970E+03  0.16537391834E+02  0.10305050443E+04  0.89679913030E+03 0.  0.
         23    2    4    4    0    0  0.27108904433E+03 -0.29641531137E+03  0.84422902667E+02  0.42065308150E+03  0.92035219956E+02 0.  0.
         23    2    4    4    0    0 -0.59106184351E+03 -0.97330658339E+02 -0.67885510832E+02  0.60985196279E+03  0.92106536305E+02 0.  0.
          2    1    3    3  502    0  0.27855400909E+03  0.31054585608E+03  0.19476973723E+03  0.46039799658E+03  0.00000000000E+00 0. -1.
         -1    1    3    3    0  502  0.41418790087E+02  0.83200113620E+02  0.13437682829E+02  0.93906050915E+02  0.00000000000E+00 0.  1.
         11    1    5    5    0    0  0.96301148243E+02 -0.83617693929E+02 -0.13797994185E+02  0.12828177787E+03  0.00000000000E+00 0. -1.
        -11    1    5    5    0    0  0.17478789609E+03 -0.21279761744E+03  0.98220896852E+02  0.29237130363E+03  0.00000000000E+00 0.  1.
          1    1    6    6  503    0 -0.40047439075E+02 -0.32671521756E+01  0.18492952101E+02  0.44231899543E+02  0.00000000000E+00 0. -1.
         -1    1    6    6    0  503 -0.55101440443E+03 -0.94063506164E+02 -0.86378462934E+02  0.56562006324E+03  0.00000000000E+00 0.  1.
<mgrwt>
<rscale>  0 0.15687924E+04</rscale>
<asrwt>0</asrwt>
<pdfrwt beam="1">  1        2 0.13919645E+00 0.15687924E+04</pdfrwt>
<pdfrwt beam="2">  1       -1 0.10462033E+00 0.15687924E+04</pdfrwt>
<totfact> 0.27419722E+01</totfact>
</mgrwt>
</event>
<event>
12    6  0.1540825E-007  0.2394091E+04  0.7818608E-02  0.8441719E-01
          2   -1    0    0  501    0  0.00000000000E+00  0.00000000000E+00  0.19923600482E+04  0.19923600482E+04  0.00000000000E+00 0. -1.
         -1   -1    0    0    0  501 -0.00000000000E+00 -0.00000000000E+00 -0.71920620442E+03  0.71920620442E+03  0.00000000000E+00 0.  1.
         24    2    1    2    0    0  0.62026666829E+03 -0.30793570827E+03  0.14129006678E+04  0.15759043831E+04  0.87356668186E+02 0.  0.
        254    2    1    2    0    0 -0.62026666829E+03  0.30793570827E+03 -0.13974682396E+03  0.11356618696E+04  0.88918140271E+03 0.  0.
         23    2    4    4    0    0 -0.78765189077E+03  0.42201524314E+03 -0.16405347577E+03  0.91310548683E+03  0.91409631228E+02 0.  0.
         23    2    4    4    0    0  0.16738522249E+03 -0.11407953487E+03  0.24306651809E+02  0.22255638272E+03  0.88930181534E+02 0.  0.
          2    1    3    3  502    0  0.61354149875E+03 -0.31324527151E+03  0.13875574191E+04  0.15491518202E+04  0.00000000000E+00 0. -1.
         -1    1    3    3    0  502  0.67251695392E+01  0.53095632425E+01  0.25343248695E+02  0.26752562897E+02  0.00000000000E+00 0.  1.
         11    1    5    5    0    0 -0.54021836072E+03  0.29940880236E+03 -0.71024501416E+02  0.62171214239E+03  0.00000000000E+00 0. -1.
        -11    1    5    5    0    0 -0.24743353005E+03  0.12260644078E+03 -0.93028974350E+02  0.29139334444E+03  0.00000000000E+00 0.  1.
          2    1    6    6  503    0  0.26898665150E+02  0.11331756267E+02 -0.10552534796E+02  0.31037120961E+02  0.00000000000E+00 0.  1.
         -2    1    6    6    0  503  0.14048655734E+03 -0.12541129113E+03  0.34859186605E+02  0.19151926176E+03  0.00000000000E+00 0. -1.
<mgrwt>
<rscale>  0 0.23940908E+04</rscale>
<asrwt>0</asrwt>
<pdfrwt beam="1">  1        2 0.30651693E+00 0.23940908E+04</pdfrwt>
<pdfrwt beam="2">  1       -1 0.11064711E+00 0.23940908E+04</pdfrwt>
<totfact> 0.51987236E+00</totfact>
</mgrwt>
</event>
<event>
12    6  0.1540825E-007  0.1470595E+04  0.7818608E-02  0.8904246E-01
          2   -1    0    0  501    0  0.00000000000E+00  0.00000000000E+00  0.74372332094E+03  0.74372332094E+03  0.00000000000E+00 0. -1.
         -1   -1    0    0    0  501 -0.00000000000E+00 -0.00000000000E+00 -0.72696748222E+03  0.72696748222E+03  0.00000000000E+00 0.  1.
         24    2    1    2    0    0 -0.81251613058E+02 -0.16126436427E+03 -0.41079356844E+03  0.45576922301E+03  0.79788526522E+02 0.  0.
        254    2    1    2    0    0  0.81251613058E+02  0.16126436427E+03  0.42754940715E+03  0.10149215802E+04  0.90258478743E+03 0.  0.
         23    2    4    4    0    0  0.36170380991E+03 -0.21987222905E+03  0.25698515621E+03  0.50373262233E+03  0.92367424323E+02 0.  0.
         23    2    4    4    0    0 -0.28045219685E+03  0.38113659332E+03  0.17056425094E+03  0.51118895782E+03  0.91123264918E+02 0.  0.
          4    1    3    3  502    0 -0.12720590164E+02 -0.17216716548E+02 -0.13886524054E+03  0.14050545816E+03  0.00000000000E+00 0. -1.
         -3    1    3    3    0  502 -0.68531022894E+02 -0.14404764772E+03 -0.27192832790E+03  0.31526376485E+03  0.00000000000E+00 0.  1.
         11    1    5    5    0    0  0.35009636033E+03 -0.19539068927E+03  0.21831515947E+03  0.45651559867E+03  0.00000000000E+00 0. -1.
        -11    1    5    5    0    0  0.11607449577E+02 -0.24481539782E+02  0.38669996740E+02  0.47217023664E+02  0.00000000000E+00 0.  1.
          3    1    6    6  503    0 -0.24358288637E+03  0.31645647202E+03  0.17627351171E+03  0.43651995619E+03  0.00000000000E+00 0. -1.
         -3    1    6    6    0  503 -0.36869310481E+02  0.64680121300E+02 -0.57092607663E+01  0.74669001635E+02  0.00000000000E+00 0.  1.
<mgrwt>
<rscale>  0 0.14705953E+04</rscale>
<asrwt>0</asrwt>
<pdfrwt beam="1">  1        2 0.11441897E+00 0.14705953E+04</pdfrwt>
<pdfrwt beam="2">  1       -1 0.11184115E+00 0.14705953E+04</pdfrwt>
<totfact> 0.30768264E+01</totfact>
</mgrwt>
</event>
<event>
12    6  0.1540825E-007  0.2087610E+04  0.7818608E-02  0.8566721E-01
          2   -1    0    0  501    0  0.00000000000E+00  0.00000000000E+00  0.62346847189E+03  0.62346847189E+03  0.00000000000E+00 0. -1.
         -1   -1    0    0    0  501 -0.00000000000E+00 -0.00000000000E+00 -0.17475280395E+04  0.17475280395E+04  0.00000000000E+00 0.  1.
         24    2    1    2    0    0 -0.68561618000E+03  0.44917701721E+03 -0.69927055887E+03  0.10819953960E+04  0.99524787714E+02 0.  0.
        254    2    1    2    0    0  0.68561618000E+03 -0.44917701721E+03 -0.42478900869E+03  0.12890011154E+04  0.89958247784E+03 0.  0.
         23    2    4    4    0    0 -0.20730611512E+03 -0.12868676881E+03 -0.62163975487E+02  0.26935383699E+03  0.95660962873E+02 0.  0.
         23    2    4    4    0    0  0.89292229512E+03 -0.32049024840E+03 -0.36262503321E+03  0.10196472784E+04  0.90329580732E+02 0.  0.
          4    1    3    3  502    0 -0.22372020406E+03  0.12253308217E+03 -0.16450968772E+03  0.30352680818E+03  0.00000000000E+00 0. -1.
         -3    1    3    3    0  502 -0.46189597594E+03  0.32664393504E+03 -0.53476087115E+03  0.77846858781E+03  0.00000000000E+00 0.  1.
         11    1    5    5    0    0 -0.54914113650E+02 -0.86530290839E+02 -0.10543334960E+02  0.10302530283E+03  0.00000000000E+00 0. -1.
        -11    1    5    5    0    0 -0.15239200147E+03 -0.42156477974E+02 -0.51620640528E+02  0.16632853416E+03  0.00000000000E+00 0.  1.
          3    1    6    6  503    0  0.52812246323E+03 -0.14215182383E+03 -0.20590611863E+03  0.58439524885E+03  0.00000000000E+00 0. -1.
         -3    1    6    6    0  503  0.36479983189E+03 -0.17833842457E+03 -0.15671891457E+03  0.43525202953E+03  0.00000000000E+00 0.  1.
<mgrwt>
<rscale>  0 0.20876098E+04</rscale>
<asrwt>0</asrwt>
<pdfrwt beam="1">  1        2 0.95918228E-01 0.20876098E+04</pdfrwt>
<pdfrwt beam="2">  1       -1 0.26885046E+00 0.20876098E+04</pdfrwt>
<totfact> 0.26206164E+00</totfact>
</mgrwt>
</event>
<event>
12    6  0.1540825E-007  0.2570661E+04  0.7818608E-02  0.8378236E-01
         -1   -1    0    0    0  501 -0.00000000000E+00  0.00000000000E+00  0.82834543454E+03  0.82834543454E+03  0.00000000000E+00 0.  1.
          2   -1    0    0  501    0  0.00000000000E+00 -0.00000000000E+00 -0.19944263404E+04  0.19944263404E+04  0.00000000000E+00 0. -1.
         24    2    1    2    0    0 -0.66470574385E+03  0.82227959641E+03 -0.94397421628E+03  0.14196801931E+04  0.80169002952E+02 0.  0.
        254    2    1    2    0    0  0.66470574385E+03 -0.82227959641E+03 -0.22210668961E+03  0.14030915819E+04  0.89518553667E+03 0.  0.
         23    2    4    4    0    0  0.46729808662E+03  0.47283423460E+02 -0.15869682117E+03  0.50396456505E+03  0.90511755507E+02 0.  0.
         23    2    4    4    0    0  0.19740765722E+03 -0.86956301987E+03 -0.63409868438E+02  0.89912701685E+03  0.96431075688E+02 0.  0.
          2    1    3    3  502    0 -0.54660115423E+03  0.71017455554E+03 -0.82404683211E+03  0.12174456467E+04  0.00000000000E+00 0. -1.
         -1    1    3    3    0  502 -0.11810458961E+03  0.11210504087E+03 -0.11992738417E+03  0.20223454638E+03  0.00000000000E+00 0.  1.
         11    1    5    5    0    0  0.31077707574E+03  0.72817099954E+02 -0.11725593180E+03  0.34004951756E+03  0.00000000000E+00 0. -1.
        -11    1    5    5    0    0  0.15652101088E+03 -0.25533676494E+02 -0.41440889379E+02  0.16391504749E+03  0.00000000000E+00 0.  1.
          2    1    6    6  503    0  0.77855450711E+02 -0.16931865559E+03 -0.19880446580E+02  0.18741801005E+03  0.00000000000E+00 0. -1.
         -2    1    6    6    0  503  0.11955220651E+03 -0.70024436428E+03 -0.43529421858E+02  0.71170900680E+03  0.00000000000E+00 0.  1.
<mgrwt>
<rscale>  0 0.25706606E+04</rscale>
<asrwt>0</asrwt>
<pdfrwt beam="1">  1        2 0.30683482E+00 0.25706606E+04</pdfrwt>
<pdfrwt beam="2">  1       -1 0.12743776E+00 0.25706606E+04</pdfrwt>
<totfact> 0.36200076E+00</totfact>
</mgrwt>
</event>
<event>
12    6  0.1540825E-007  0.2940975E+04  0.7818608E-02  0.8260789E-01
          2   -1    0    0  501    0  0.00000000000E+00  0.00000000000E+00  0.34007969381E+04  0.34007969381E+04  0.00000000000E+00 0. -1.
         -1   -1    0    0    0  501 -0.00000000000E+00 -0.00000000000E+00 -0.63583157620E+03  0.63583157620E+03  0.00000000000E+00 0.  1.
         24    2    1    2    0    0  0.90405547607E+03 -0.19306642209E+03 -0.42625604141E+02  0.92876985164E+03  0.78775300910E+02 0.  0.
        254    2    1    2    0    0 -0.90405547607E+03  0.19306642209E+03  0.28075909661E+04  0.31078586627E+04  0.96001431620E+03 0.  0.
         23    2    4    4    0    0 -0.75795668627E+03 -0.27552976587E+03  0.14579508017E+04  0.16686396512E+04  0.91229135565E+02 0.  0.
         23    2    4    4    0    0 -0.14609878980E+03  0.46859618796E+03  0.13496401644E+04  0.14392190115E+04  0.94316202415E+02 0.  0.
          4    1    3    3  502    0  0.99751424963E+02 -0.46598300064E+02 -0.10658086361E+02  0.11061348542E+03  0.00000000000E+00 0. -1.
         -3    1    3    3    0  502  0.80430405111E+03 -0.14646812202E+03 -0.31967517779E+02  0.81815636622E+03  0.00000000000E+00 0.  1.
         11    1    5    5    0    0 -0.12280186354E+03 -0.17915441316E+02  0.26961631991E+03  0.29680670594E+03  0.00000000000E+00 0.  1.
        -11    1    5    5    0    0 -0.63515482273E+03 -0.25761432455E+03  0.11883344818E+04  0.13718329453E+04  0.00000000000E+00 0. -1.
          2    1    6    6  503    0 -0.14688556183E+03  0.45993273775E+03  0.12629465215E+04  0.13520900147E+04  0.00000000000E+00 0. -1.
         -2    1    6    6    0  503  0.78677202855E+00  0.86634502028E+01  0.86693642837E+02  0.87128996826E+02  0.00000000000E+00 0.  1.
<mgrwt>
<rscale>  0 0.29409754E+04</rscale>
<asrwt>0</asrwt>
<pdfrwt beam="1">  1        2 0.52319952E+00 0.29409754E+04</pdfrwt>
<pdfrwt beam="2">  1       -1 0.97820244E-01 0.29409754E+04</pdfrwt>
<totfact> 0.93209014E-01</totfact>
</mgrwt>
</event>
<event>
12    6  0.1540825E-007  0.3424922E+04  0.7818608E-02  0.8131817E-01
          2   -1    0    0  501    0  0.00000000000E+00  0.00000000000E+00  0.40808936063E+04  0.40808936063E+04  0.00000000000E+00 0. -1.
         -1   -1    0    0    0  501 -0.00000000000E+00 -0.00000000000E+00 -0.71859816370E+03  0.71859816370E+03  0.00000000000E+00 0.  1.
         24    2    1    2    0    0  0.12384832598E+04  0.90308164111E+03  0.91289075337E+03  0.17858220612E+04  0.79960436498E+02 0.  0.
        254    2    1    2    0    0 -0.12384832598E+04 -0.90308164111E+03  0.24494046893E+04  0.30136697088E+04  0.85628531865E+03 0.  0.
         23    2    4    4    0    0 -0.93820781003E+03 -0.85694407543E+03  0.12955235690E+04  0.18169776046E+04  0.91865414761E+02 0.  0.
         23    2    4    4    0    0 -0.30027544974E+03 -0.46137565687E+02  0.11538811202E+04  0.11966921042E+04  0.91303516274E+02 0.  0.
          2    1    3    3  502    0  0.29275958147E+03  0.23842120226E+03  0.19266776552E+03  0.42387935796E+03  0.00000000000E+00 0. -1.
         -1    1    3    3    0  502  0.94572367830E+03  0.66466043885E+03  0.72022298785E+03  0.13619427032E+04  0.00000000000E+00 0.  1.
         11    1    5    5    0    0 -0.23438269081E+03 -0.17176945129E+03  0.32859057190E+03  0.43864764229E+03  0.00000000000E+00 0.  1.
        -11    1    5    5    0    0 -0.70382511922E+03 -0.68517462413E+03  0.96693299715E+03  0.13783299623E+04  0.00000000000E+00 0. -1.
          3    1    6    6  503    0 -0.30292031400E+03 -0.36540300452E+02  0.11356075316E+04  0.11758828071E+04  0.00000000000E+00 0. -1.
         -3    1    6    6    0  503  0.26448642621E+01 -0.95972652348E+01  0.18273588614E+02  0.20809297148E+02  0.00000000000E+00 0.  1.
<mgrwt>
<rscale>  0 0.34249220E+04</rscale>
<asrwt>0</asrwt>
<pdfrwt beam="1">  1        2 0.62782977E+00 0.34249220E+04</pdfrwt>
<pdfrwt beam="2">  1       -1 0.11055357E+00 0.34249220E+04</pdfrwt>
<totfact> 0.20721987E-01</totfact>
</mgrwt>
</event>
<event>
12    6  0.1540825E-007  0.1749126E+04  0.7818608E-02  0.8733832E-01
          2   -1    0    0  501    0  0.00000000000E+00  0.00000000000E+00  0.79114238996E+03  0.79114238996E+03  0.00000000000E+00 0. -1.
         -1   -1    0    0    0  501 -0.00000000000E+00 -0.00000000000E+00 -0.96677923205E+03  0.96677923205E+03  0.00000000000E+00 0.  1.
         24    2    1    2    0    0 -0.20320979487E+03 -0.62522796699E+03 -0.15115898975E+03  0.67926813866E+03  0.79699012452E+02 0.  0.
        254    2    1    2    0    0  0.20320979487E+03  0.62522796699E+03 -0.24477852343E+02  0.10786534833E+04  0.85480403628E+03 0.  0.
         23    2    4    4    0    0  0.56311973355E+02  0.26207932178E+03 -0.42508677428E+03  0.51072324646E+03  0.91010216749E+02 0.  0.
         23    2    4    4    0    0  0.14689782151E+03  0.36314864521E+03  0.40060892194E+03  0.56793023689E+03  0.92743394122E+02 0.  0.
          2    1    3    3  502    0 -0.81086020718E+02 -0.19363854273E+03 -0.82262031928E+02  0.22547254796E+03  0.00000000000E+00 0. -1.
         -1    1    3    3    0  502 -0.12212377415E+03 -0.43158942426E+03 -0.68896957818E+02  0.45379559071E+03  0.00000000000E+00 0.  1.
         11    1    5    5    0    0  0.52870888807E+02  0.25120541319E+03 -0.34606893295E+03  0.43088652434E+03  0.00000000000E+00 0.  1.
        -11    1    5    5    0    0  0.34410845479E+01  0.10873908596E+02 -0.79017841328E+02  0.79836722122E+02  0.00000000000E+00 0. -1.
          1    1    6    6  503    0 -0.43638867770E+01  0.91707830259E+02  0.93081822947E+02  0.13074247742E+03  0.00000000000E+00 0. -1.
         -1    1    6    6    0  503  0.15126170829E+03  0.27144081495E+03  0.30752709899E+03  0.43718775947E+03  0.00000000000E+00 0.  1.
<mgrwt>
<rscale>  0 0.17491255E+04</rscale>
<asrwt>0</asrwt>
<pdfrwt beam="1">  1        2 0.12171421E+00 0.17491255E+04</pdfrwt>
<pdfrwt beam="2">  1       -1 0.14873527E+00 0.17491255E+04</pdfrwt>
<totfact> 0.13504473E+01</totfact>
</mgrwt>
</event>
<event>
12    6  0.1540825E-007  0.4386631E+04  0.7818608E-02  0.7930791E-01
          2   -1    0    0  501    0  0.00000000000E+00  0.00000000000E+00  0.24518144651E+04  0.24518144651E+04  0.00000000000E+00 0. -1.
         -1   -1    0    0    0  501 -0.00000000000E+00 -0.00000000000E+00 -0.19620706040E+04  0.19620706040E+04  0.00000000000E+00 0.  1.
         24    2    1    2    0    0  0.60780781405E+03  0.13950936949E+04 -0.12221131538E+04  0.19533713596E+04  0.79889620417E+02 0.  0.
        254    2    1    2    0    0 -0.60780781405E+03 -0.13950936949E+04  0.17118570149E+04  0.24605137096E+04  0.89886401607E+03 0.  0.
         23    2    4    4    0    0 -0.67352508914E+03 -0.10547406372E+04  0.82015160278E+03  0.14990010580E+04  0.90783605802E+02 0.  0.
         23    2    4    4    0    0  0.65717275089E+02 -0.34035305771E+03  0.89170541213E+03  0.96151265157E+03  0.95963914958E+02 0.  0.
          2    1    3    3  502    0  0.52949103613E+02  0.94241482338E+02 -0.11014752584E+03  0.15432932973E+03  0.00000000000E+00 0. -1.
         -1    1    3    3    0  502  0.55485871044E+03  0.13008522125E+04 -0.11119656280E+04  0.17990420298E+04  0.00000000000E+00 0.  1.
         11    1    5    5    0    0 -0.51363455655E+03 -0.85476470469E+03  0.68136751494E+03  0.12077685409E+04  0.00000000000E+00 0. -1.
        -11    1    5    5    0    0 -0.15989053259E+03 -0.19997593246E+03  0.13878408784E+03  0.29123251709E+03  0.00000000000E+00 0.  1.
          1    1    6    6  503    0  0.33003109591E+02 -0.15858345051E+03  0.54658052421E+03  0.57007735042E+03  0.00000000000E+00 0. -1.
         -1    1    6    6    0  503  0.32714165498E+02 -0.18176960719E+03  0.34512488792E+03  0.39143530115E+03  0.00000000000E+00 0.  1.
<mgrwt>
<rscale>  0 0.43866311E+04</rscale>
<asrwt>0</asrwt>
<pdfrwt beam="1">  1        2 0.37720223E+00 0.43866311E+04</pdfrwt>
<pdfrwt beam="2">  1       -1 0.30185701E+00 0.43866311E+04</pdfrwt>
<totfact> 0.10367174E-01</totfact>
</mgrwt>
</event>
<event>
12    6  0.1540825E-007  0.1111548E+04  0.7818608E-02  0.9194009E-01
          2   -1    0    0  501    0  0.00000000000E+00  0.00000000000E+00  0.23652582969E+04  0.23652582969E+04  0.00000000000E+00 0. -1.
         -1   -1    0    0    0  501 -0.00000000000E+00 -0.00000000000E+00 -0.13059244077E+03  0.13059244077E+03  0.00000000000E+00 0.  1.
         24    2    1    2    0    0  0.13255657119E+03  0.10144962298E+03  0.30548403936E+03  0.35930669422E+03  0.88980512713E+02 0.  0.
        254    2    1    2    0    0 -0.13255657119E+03 -0.10144962298E+03  0.19291818167E+04  0.21365440434E+04  0.90289240603E+03 0.  0.
         23    2    4    4    0    0 -0.48853323593E+03 -0.10522512431E+03  0.14228732215E+04  0.15108985187E+04  0.92244674412E+02 0.  0.
         23    2    4    4    0    0  0.35597666473E+03  0.37755013310E+01  0.50630859524E+03  0.62564552472E+03  0.91379914345E+02 0.  0.
          4    1    3    3  502    0  0.98588856005E+02  0.77546417759E+02  0.28821159705E+03  0.31432329553E+03  0.00000000000E+00 0. -1.
         -1    1    3    3    0  502  0.33967715188E+02  0.23903205223E+02  0.17272442302E+02  0.44983398694E+02  0.00000000000E+00 0.  1.
         11    1    5    5    0    0 -0.43543854991E+03 -0.10900277794E+03  0.11856136023E+04  0.12677412790E+04  0.00000000000E+00 0.  1.
        -11    1    5    5    0    0 -0.53094686013E+02  0.37776536233E+01  0.23725961916E+03  0.24315723973E+03  0.00000000000E+00 0. -1.
          4    1    6    6  503    0  0.40994091099E+02  0.21150576483E+02  0.32506306910E+02  0.56431572542E+02  0.00000000000E+00 0. -1.
         -4    1    6    6    0  503  0.31498257363E+03 -0.17375075152E+02  0.47380228833E+03  0.56921395218E+03  0.00000000000E+00 0.  1.
<mgrwt>
<rscale>  0 0.11115482E+04</rscale>
<asrwt>0</asrwt>
<pdfrwt beam="1">  1        2 0.36388586E+00 0.11115482E+04</pdfrwt>
<pdfrwt beam="2">  1       -1 0.20091146E-01 0.11115482E+04</pdfrwt>
<totfact> 0.96092010E+01</totfact>
</mgrwt>
</event>
<event>
12    6  0.1540825E-007  0.1509063E+04  0.7818608E-02  0.8878449E-01
         -1   -1    0    0    0  501 -0.00000000000E+00  0.00000000000E+00  0.25416287893E+03  0.25416287893E+03  0.00000000000E+00 0.  1.
          2   -1    0    0  501    0  0.00000000000E+00 -0.00000000000E+00 -0.22399709216E+04  0.22399709216E+04  0.00000000000E+00 0. -1.
         24    2    1    2    0    0  0.44797459209E+03  0.49544441424E+02 -0.38384665105E+03  0.59771194907E+03  0.82373756138E+02 0.  0.
        254    2    1    2    0    0 -0.44797459209E+03 -0.49544441424E+02 -0.16019613916E+04  0.18964218515E+04  0.90939521203E+03 0.  0.
         23    2    4    4    0    0  0.73297297071E+02 -0.14425614723E+03 -0.12270223962E+04  0.12409952269E+04  0.91120045368E+02 0.  0.
         23    2    4    4    0    0 -0.52127188916E+03  0.94711705809E+02 -0.37493899547E+03  0.65542662460E+03  0.91159861068E+02 0.  0.
          4    1    3    3  502    0  0.93927380051E+02  0.44866048901E+02 -0.86746060798E+02  0.13549979384E+03  0.00000000000E+00 0. -1.
         -3    1    3    3    0  502  0.35404721204E+03  0.46783925234E+01 -0.29710059026E+03  0.46221215523E+03  0.00000000000E+00 0.  1.
         11    1    5    5    0    0  0.11359217375E+02  0.11420763602E+02 -0.65527653252E+02  0.67478433602E+02  0.00000000000E+00 0. -1.
        -11    1    5    5    0    0  0.61938079695E+02 -0.15567691084E+03 -0.11614947429E+04  0.11735167933E+04  0.00000000000E+00 0.  1.
          1    1    6    6  503    0 -0.34827060392E+02 -0.63078340652E-01 -0.14479305234E+01  0.34857203233E+02  0.00000000000E+00 0. -1.
         -1    1    6    6    0  503 -0.48644482877E+03  0.94774784150E+02 -0.37349106494E+03  0.62056942137E+03  0.00000000000E+00 0.  1.
<mgrwt>
<rscale>  0 0.15090626E+04</rscale>
<asrwt>0</asrwt>
<pdfrwt beam="1">  1        2 0.34461091E+00 0.15090626E+04</pdfrwt>
<pdfrwt beam="2">  1       -1 0.39101982E-01 0.15090626E+04</pdfrwt>
<totfact> 0.34274241E+01</totfact>
</mgrwt>
</event>
<event>
12    6  0.1540825E-007  0.2111503E+04  0.7818608E-02  0.8556193E-01
          2   -1    0    0  501    0  0.00000000000E+00  0.00000000000E+00  0.91863051765E+03  0.91863051765E+03  0.00000000000E+00 0. -1.
         -1   -1    0    0    0  501 -0.00000000000E+00 -0.00000000000E+00 -0.12133402150E+04  0.12133402150E+04  0.00000000000E+00 0.  1.
         24    2    1    2    0    0 -0.58890996996E+03 -0.60827440804E+02  0.51273991304E+03  0.78711539090E+03  0.78316600276E+02 0.  0.
        254    2    1    2    0    0  0.58890996996E+03  0.60827440804E+02 -0.80744961041E+03  0.13448553418E+04  0.89785638422E+03 0.  0.
         23    2    4    4    0    0  0.61602771515E+03 -0.28004760030E+03 -0.69067407082E+03  0.97106223875E+03  0.89523154288E+02 0.  0.
         23    2    4    4    0    0 -0.27117745186E+02  0.34087504111E+03 -0.11677553959E+03  0.37379310303E+03  0.95674403433E+02 0.  0.
          2    1    3    3  502    0 -0.46304061180E+03 -0.74338124477E+02  0.37907686078E+03  0.60301909696E+03  0.00000000000E+00 0. -1.
         -1    1    3    3    0  502 -0.12586935816E+03  0.13510683673E+02  0.13366305227E+03  0.18409629393E+03  0.00000000000E+00 0.  1.
         11    1    5    5    0    0  0.34743458994E+03 -0.20394694251E+03 -0.38862798999E+03  0.55976500806E+03  0.00000000000E+00 0.  1.
        -11    1    5    5    0    0  0.26859312521E+03 -0.76100657788E+02 -0.30204608083E+03  0.41129723068E+03  0.00000000000E+00 0. -1.
          1    1    6    6  503    0 -0.42587236658E+02  0.11889605821E+03 -0.91763292487E+01  0.12662602577E+03  0.00000000000E+00 0. -1.
         -1    1    6    6    0  503  0.15469491472E+02  0.22197898290E+03 -0.10759921034E+03  0.24716707726E+03  0.00000000000E+00 0.  1.
<mgrwt>
<rscale>  0 0.21115031E+04</rscale>
<asrwt>0</asrwt>
<pdfrwt beam="1">  1        2 0.14132777E+00 0.21115031E+04</pdfrwt>
<pdfrwt beam="2">  1       -1 0.18666772E+00 0.21115031E+04</pdfrwt>
<totfact> 0.55802869E+00</totfact>
</mgrwt>
</event>
<event>
12    6  0.1540825E-007  0.1566337E+04  0.7818608E-02  0.8841499E-01
          2   -1    0    0  501    0  0.00000000000E+00  0.00000000000E+00  0.17539056677E+04  0.17539056677E+04  0.00000000000E+00 0. -1.
         -1   -1    0    0    0  501 -0.00000000000E+00 -0.00000000000E+00 -0.34970701606E+03  0.34970701606E+03  0.00000000000E+00 0.  1.
         24    2    1    2    0    0 -0.32484085136E+03  0.20884141558E+03 -0.15022634503E+01  0.39492663313E+03  0.82634576199E+02 0.  0.
        254    2    1    2    0    0  0.32484085136E+03 -0.20884141558E+03  0.14057009151E+04  0.17086860507E+04  0.89133419175E+03 0.  0.
         23    2    4    4    0    0  0.50076381268E+03  0.17514718497E+03  0.79301666669E+03  0.95845173990E+03  0.91177692324E+02 0.  0.
         23    2    4    4    0    0 -0.17592296132E+03 -0.38398860055E+03  0.61268424845E+03  0.75023431078E+03  0.95254391475E+02 0.  0.
          2    1    3    3  502    0 -0.10248439239E+03  0.25510424498E+02 -0.13602913356E+02  0.10648413823E+03  0.00000000000E+00 0. -1.
         -1    1    3    3    0  502 -0.22235645897E+03  0.18333099109E+03  0.12100649906E+02  0.28844249490E+03  0.00000000000E+00 0.  1.
         11    1    5    5    0    0  0.23184625204E+03  0.10045182703E+03  0.30301997402E+03  0.39454322804E+03  0.00000000000E+00 0. -1.
        -11    1    5    5    0    0  0.26891756064E+03  0.74695357935E+02  0.48999669267E+03  0.56390851186E+03  0.00000000000E+00 0.  1.
          3    1    6    6  503    0 -0.18741344919E+03 -0.36313010194E+03  0.56984238033E+03  0.70121866083E+03  0.00000000000E+00 0. -1.
         -3    1    6    6    0  503  0.11490487875E+02 -0.20858498617E+02  0.42841868121E+02  0.49015649952E+02  0.00000000000E+00 0.  1.
<mgrwt>
<rscale>  0 0.15663373E+04</rscale>
<asrwt>0</asrwt>
<pdfrwt beam="1">  1        2 0.26983164E+00 0.15663373E+04</pdfrwt>
<pdfrwt beam="2">  1       -1 0.53801081E-01 0.15663373E+04</pdfrwt>
<totfact> 0.34952854E+01</totfact>
</mgrwt>
</event>
<event>
12    6  0.1540825E-007  0.1181595E+04  0.7818608E-02  0.9129121E-01
         -1   -1    0    0    0  501 -0.00000000000E+00  0.00000000000E+00  0.12363748843E+03  0.12363748843E+03  0.00000000000E+00 0.  1.
          2   -1    0    0  501    0  0.00000000000E+00 -0.00000000000E+00 -0.28231037803E+04  0.28231037803E+04  0.00000000000E+00 0. -1.
         24    2    1    2    0    0  0.10862235755E+03  0.26619169921E+02 -0.47812834447E+02  0.14488304455E+03  0.78725044883E+02 0.  0.
        254    2    1    2    0    0 -0.10862235755E+03 -0.26619169921E+02 -0.26516534574E+04  0.28018582242E+04  0.89812919638E+03 0.  0.
         23    2    4    4    0    0 -0.46482240668E+03  0.10858726229E+03 -0.11224004350E+04  0.12231646066E+04  0.92183811099E+02 0.  0.
         23    2    4    4    0    0  0.35620004912E+03 -0.13520643221E+03 -0.15292530225E+04  0.15786936176E+04  0.92192610086E+02 0.  0.
          4    1    3    3  502    0 -0.40567574500E+01  0.13624891800E+02  0.10186215455E+02  0.17488680421E+02  0.00000000000E+00 0. -1.
         -3    1    3    3    0  502  0.11267911500E+03  0.12994278121E+02 -0.57999049902E+02  0.12739436413E+03  0.00000000000E+00 0.  1.
         11    1    5    5    0    0 -0.13320129134E+03  0.25933959285E+02 -0.22332274500E+03  0.26132011537E+03  0.00000000000E+00 0. -1.
        -11    1    5    5    0    0 -0.33162111533E+03  0.82653303006E+02 -0.89907768999E+03  0.96184449121E+03  0.00000000000E+00 0.  1.
          2    1    6    6  503    0  0.33223594786E+03 -0.12979074303E+03 -0.14921789582E+04  0.15342178480E+04  0.00000000000E+00 0. -1.
         -2    1    6    6    0  503  0.23964101264E+02 -0.54156891785E+01 -0.37074064301E+02  0.44475769611E+02  0.00000000000E+00 0.  1.
<mgrwt>
<rscale>  0 0.11815946E+04</rscale>
<asrwt>0</asrwt>
<pdfrwt beam="1">  1        2 0.43432359E+00 0.11815946E+04</pdfrwt>
<pdfrwt beam="2">  1       -1 0.19021155E-01 0.11815946E+04</pdfrwt>
<totfact> 0.56713824E+01</totfact>
</mgrwt>
</event>
<event>
12    6  0.1540825E-007  0.2584960E+04  0.7818608E-02  0.8373328E-01
         -1   -1    0    0    0  501 -0.00000000000E+00  0.00000000000E+00  0.10360761918E+04  0.10360761918E+04  0.00000000000E+00 0.  1.
          2   -1    0    0  501    0  0.00000000000E+00 -0.00000000000E+00 -0.16123370676E+04  0.16123370676E+04  0.00000000000E+00 0. -1.
         24    2    1    2    0    0  0.54746815658E+02  0.83276730242E+02  0.90463386653E+03  0.91373622051E+03  0.81358592517E+02 0.  0.
        254    2    1    2    0    0 -0.54746815658E+02 -0.83276730242E+02 -0.14808947424E+04  0.17346770389E+04  0.89784350727E+03 0.  0.
         23    2    4    4    0    0 -0.25318559808E+03 -0.19592994944E+02 -0.34120858003E+02  0.27064609771E+03  0.87167911124E+02 0.  0.
         23    2    4    4    0    0  0.19843878242E+03 -0.63683735297E+02 -0.14467738844E+04  0.14640309412E+04  0.82452141437E+02 0.  0.
          2    1    3    3  502    0  0.37295862939E+02  0.18526453990E+01  0.15244400153E+03  0.15695090726E+03  0.00000000000E+00 0. -1.
         -1    1    3    3    0  502  0.17450952718E+02  0.81424084843E+02  0.75218986500E+03  0.75678531325E+03  0.00000000000E+00 0.  1.
         11    1    5    5    0    0 -0.15666159297E+03  0.56241120331E+01  0.18508643243E+02  0.15785137067E+03  0.00000000000E+00 0.  1.
        -11    1    5    5    0    0 -0.96524005110E+02 -0.25217106977E+02 -0.52629501246E+02  0.11279472704E+03  0.00000000000E+00 0. -1.
          3    1    6    6  503    0  0.14211005557E+03 -0.48477654433E+01 -0.87296688582E+03  0.88447156679E+03  0.00000000000E+00 0. -1.
         -3    1    6    6    0  503  0.56328726851E+02 -0.58835969854E+02 -0.57380699858E+03  0.57955937439E+03  0.00000000000E+00 0.  1.
<mgrwt>
<rscale>  0 0.25849596E+04</rscale>
<asrwt>0</asrwt>
<pdfrwt beam="1">  1        2 0.24805186E+00 0.25849596E+04</pdfrwt>
<pdfrwt beam="2">  1       -1 0.15939634E+00 0.25849596E+04</pdfrwt>
<totfact> 0.32692212E+00</totfact>
</mgrwt>
</event>
<event>
12    6  0.1540825E-007  0.2387325E+04  0.7818608E-02  0.8444264E-01
          2   -1    0    0  501    0  0.00000000000E+00  0.00000000000E+00  0.16082669793E+04  0.16082669793E+04  0.00000000000E+00 0. -1.
         -1   -1    0    0    0  501 -0.00000000000E+00 -0.00000000000E+00 -0.88594111868E+03  0.88594111868E+03  0.00000000000E+00 0.  1.
         24    2    1    2    0    0  0.62281262448E+03 -0.61438320195E+03 -0.24408602495E+03  0.91180768298E+03  0.80330436984E+02 0.  0.
        254    2    1    2    0    0 -0.62281262448E+03  0.61438320195E+03  0.96641188554E+03  0.15824004150E+04  0.89703782346E+03 0.  0.
         23    2    4    4    0    0  0.88267938336E+01 -0.10004249126E+03  0.49669466193E+03  0.51505566233E+03  0.92143017952E+02 0.  0.
         23    2    4    4    0    0 -0.63163941832E+03  0.71442569321E+03  0.46971722361E+03  0.10673447526E+04  0.96011066812E+02 0.  0.
          4    1    3    3  502    0  0.53415087682E+02 -0.33643314733E+02 -0.34447810075E+02  0.71914503664E+02  0.00000000000E+00 0. -1.
         -3    1    3    3    0  502  0.56939753680E+03 -0.58073988722E+03 -0.20963821487E+03  0.83989317931E+03  0.00000000000E+00 0.  1.
         11    1    5    5    0    0  0.17045773585E+02 -0.10786175547E+03  0.48970112487E+03  0.50172891923E+03  0.00000000000E+00 0.  1.
        -11    1    5    5    0    0 -0.82189797519E+01  0.78192642142E+01  0.69935370627E+01  0.13326743100E+02  0.00000000000E+00 0. -1.
          3    1    6    6  503    0 -0.61938825215E+02  0.55023687761E+02  0.70706160431E+02  0.10891916914E+03  0.00000000000E+00 0. -1.
         -3    1    6    6    0  503 -0.56970059310E+03  0.65940200545E+03  0.39901106318E+03  0.95842558350E+03  0.00000000000E+00 0.  1.
<mgrwt>
<rscale>  0 0.23873247E+04</rscale>
<asrwt>0</asrwt>
<pdfrwt beam="1">  1        2 0.24742569E+00 0.23873247E+04</pdfrwt>
<pdfrwt beam="2">  1       -1 0.13629863E+00 0.23873247E+04</pdfrwt>
<totfact> 0.50836657E+00</totfact>
</mgrwt>
</event>
<event>
12    6  0.1540825E-007  0.1220231E+04  0.7818608E-02  0.9095330E-01
         -1   -1    0    0    0  501 -0.00000000000E+00  0.00000000000E+00  0.50836198020E+03  0.50836198020E+03  0.00000000000E+00 0.  1.
          2   -1    0    0  501    0  0.00000000000E+00 -0.00000000000E+00 -0.73223606516E+03  0.73223606516E+03  0.00000000000E+00 0. -1.
         24    2    1    2    0    0  0.87672991351E+02  0.24172659363E+03 -0.96964389487E+02  0.28631152887E+03  0.80336164064E+02 0.  0.
        254    2    1    2    0    0 -0.87672991351E+02 -0.24172659363E+03 -0.12690969547E+03  0.95428651648E+03  0.91018590698E+03 0.  0.
         23    2    4    4    0    0 -0.17638922923E+03 -0.13446049910E+03  0.36420655400E+03  0.43569173191E+03  0.89376088922E+02 0.  0.
         23    2    4    4    0    0  0.88716237877E+02 -0.10726609453E+03 -0.49111624948E+03  0.51859478457E+03  0.91481113832E+02 0.  0.
          2    1    3    3  502    0  0.16644022275E+02  0.78888686703E+02 -0.69700307382E+02  0.10657664480E+03  0.00000000000E+00 0. -1.
         -1    1    3    3    0  502  0.71028969076E+02  0.16283790693E+03 -0.27264082105E+02  0.17973488407E+03  0.00000000000E+00 0.  1.
         11    1    5    5    0    0 -0.16459263724E+03 -0.85885204097E+02  0.31442824744E+03  0.36514672024E+03  0.00000000000E+00 0. -1.
        -11    1    5    5    0    0 -0.11796591989E+02 -0.48575295001E+02  0.49778306567E+02  0.70545011671E+02  0.00000000000E+00 0.  1.
          4    1    6    6  503    0  0.82380327620E+02 -0.10014652315E+03 -0.49220649644E+03  0.50900204284E+03  0.00000000000E+00 0. -1.
         -4    1    6    6    0  503  0.63359102576E+01 -0.71195713808E+01  0.10902469673E+01  0.95927417295E+01  0.00000000000E+00 0.  1.
<mgrwt>
<rscale>  0 0.12202311E+04</rscale>
<asrwt>0</asrwt>
<pdfrwt beam="1">  1        2 0.11265170E+00 0.12202311E+04</pdfrwt>
<pdfrwt beam="2">  1       -1 0.78209536E-01 0.12202311E+04</pdfrwt>
<totfact> 0.71284825E+01</totfact>
</mgrwt>
</event>
<event>
12    6  0.1540825E-007  0.1506910E+04  0.7818608E-02  0.8879871E-01
          2   -1    0    0  501    0  0.00000000000E+00  0.00000000000E+00  0.77971475842E+03  0.77971475842E+03  0.00000000000E+00 0. -1.
         -1   -1    0    0    0  501 -0.00000000000E+00 -0.00000000000E+00 -0.72807999659E+03  0.72807999659E+03  0.00000000000E+00 0.  1.
         24    2    1    2    0    0  0.31414424354E+03 -0.23161120696E+03  0.29734227926E+03  0.49726502735E+03  0.80806679505E+02 0.  0.
        254    2    1    2    0    0 -0.31414424354E+03  0.23161120696E+03 -0.24570751743E+03  0.10105297277E+04  0.89914836898E+03 0.  0.
         23    2    4    4    0    0 -0.56840111388E+03  0.29637686937E+02  0.25555084841E+02  0.57715208678E+03  0.92158831225E+02 0.  0.
         23    2    4    4    0    0  0.25425687034E+03  0.20197352002E+03 -0.27126260227E+03  0.43337764088E+03  0.93770578122E+02 0.  0.
          2    1    3    3  502    0  0.22224256857E+03 -0.18194441884E+03  0.25656398317E+03  0.38512414659E+03  0.00000000000E+00 0. -1.
         -1    1    3    3    0  502  0.91901674968E+02 -0.49666788120E+02  0.40778296088E+02  0.11214088075E+03  0.00000000000E+00 0.  1.
         11    1    5    5    0    0 -0.20605721120E+03  0.95203727828E+00 -0.33945147976E+02  0.20883666760E+03  0.00000000000E+00 0.  1.
        -11    1    5    5    0    0 -0.36234390267E+03  0.28685649658E+02  0.59500232817E+02  0.36831541918E+03  0.00000000000E+00 0. -1.
          3    1    6    6  503    0  0.25880412147E+03  0.19639753537E+03 -0.24713492963E+03  0.40819999833E+03  0.00000000000E+00 0. -1.
         -3    1    6    6    0  503 -0.45472511303E+01  0.55759846459E+01 -0.24127672638E+02  0.25177642553E+02  0.00000000000E+00 0.  1.
<mgrwt>
<rscale>  0 0.15069104E+04</rscale>
<asrwt>0</asrwt>
<pdfrwt beam="1">  1        2 0.11995612E+00 0.15069104E+04</pdfrwt>
<pdfrwt beam="2">  1       -1 0.11201231E+00 0.15069104E+04</pdfrwt>
<totfact> 0.28736602E+01</totfact>
</mgrwt>
</event>
<event>
12    6  0.1540825E-007  0.2500784E+04  0.7818608E-02  0.8402706E-01
         -1   -1    0    0    0  501 -0.00000000000E+00  0.00000000000E+00  0.12294842235E+04  0.12294842235E+04  0.00000000000E+00 0.  1.
          2   -1    0    0  501    0  0.00000000000E+00 -0.00000000000E+00 -0.12716556945E+04  0.12716556945E+04  0.00000000000E+00 0. -1.
         24    2    1    2    0    0  0.65749461975E+03 -0.14606155914E+03  0.84971444062E+03  0.10867128497E+04  0.72780719626E+02 0.  0.
        254    2    1    2    0    0 -0.65749461975E+03  0.14606155914E+03 -0.89188591163E+03  0.14144270682E+04  0.86689693607E+03 0.  0.
         23    2    4    4    0    0  0.19184892992E+03  0.49739344870E+02 -0.97173410257E+02  0.24358945600E+03  0.10302008091E+03 0.  0.
         23    2    4    4    0    0 -0.84934354967E+03  0.96322214268E+02 -0.79471250137E+03  0.11708376122E+04  0.92899515231E+02 0.  0.
          4    1    3    3  502    0  0.48147361603E+02 -0.28435846393E+02  0.55483044818E+02  0.78772673254E+02  0.00000000000E+00 0. -1.
         -3    1    3    3    0  502  0.60934725815E+03 -0.11762571275E+03  0.79423139580E+03  0.10079401765E+04  0.00000000000E+00 0.  1.
         11    1    5    5    0    0  0.10034093551E+03  0.66150358110E+02 -0.90376976009E+02  0.15037343851E+03  0.00000000000E+00 0.  1.
        -11    1    5    5    0    0  0.91507994417E+02 -0.16411013240E+02 -0.67964342481E+01  0.93216017488E+02  0.00000000000E+00 0. -1.
          4    1    6    6  503    0 -0.15560865758E+03  0.22855914378E+02 -0.10038784338E+03  0.18658554669E+03  0.00000000000E+00 0. -1.
         -4    1    6    6    0  503 -0.69373489209E+03  0.73466299890E+02 -0.69432465799E+03  0.98425206549E+03  0.00000000000E+00 0.  1.
<mgrwt>
<rscale>  0 0.25007844E+04</rscale>
<asrwt>0</asrwt>
<pdfrwt beam="1">  1        2 0.19563934E+00 0.25007844E+04</pdfrwt>
<pdfrwt beam="2">  1       -1 0.18915142E+00 0.25007844E+04</pdfrwt>
<totfact> 0.31270114E+00</totfact>
</mgrwt>
</event>
<event>
12    6  0.1540825E-007  0.1632060E+04  0.7818608E-02  0.8801091E-01
         -1   -1    0    0    0  501 -0.00000000000E+00  0.00000000000E+00  0.41445408771E+03  0.41445408771E+03  0.00000000000E+00 0.  1.
          2   -1    0    0  501    0  0.00000000000E+00 -0.00000000000E+00 -0.16067044175E+04  0.16067044175E+04  0.00000000000E+00 0. -1.
         24    2    1    2    0    0  0.64747886508E+02  0.33585342789E+03 -0.96590046387E+03  0.10278225479E+04  0.80409389603E+02 0.  0.
        254    2    1    2    0    0 -0.64747886508E+02 -0.33585342789E+03 -0.22634986587E+03  0.99333595732E+03  0.90470561427E+03 0.  0.
         23    2    4    4    0    0 -0.30572613915E+03 -0.28074326095E+02  0.22464652699E+03  0.39000805847E+03  0.85927781545E+02 0.  0.
         23    2    4    4    0    0  0.24097825264E+03 -0.30777910180E+03 -0.45099639286E+03  0.60332789885E+03  0.88364661506E+02 0.  0.
          4    1    3    3  502    0  0.18420268232E+02  0.25922843744E+03 -0.76294878279E+03  0.80599598896E+03  0.00000000000E+00 0. -1.
         -3    1    3    3    0  502  0.46327618276E+02  0.76624990447E+02 -0.20295168108E+03  0.22182655889E+03  0.00000000000E+00 0.  1.
         11    1    5    5    0    0 -0.16524841020E+03 -0.22763105797E+02  0.69675911639E+02  0.18077590747E+03  0.00000000000E+00 0.  1.
        -11    1    5    5    0    0 -0.14047772895E+03 -0.53112202983E+01  0.15497061535E+03  0.20923215101E+03  0.00000000000E+00 0. -1.
          1    1    6    6  503    0  0.52220760588E+02 -0.12973843794E+03 -0.18271157602E+03  0.23009256860E+03  0.00000000000E+00 0. -1.
         -1    1    6    6    0  503  0.18875749205E+03 -0.17804066386E+03 -0.26828481684E+03  0.37323533024E+03  0.00000000000E+00 0.  1.
<mgrwt>
<rscale>  0 0.16320603E+04</rscale>
<asrwt>0</asrwt>
<pdfrwt beam="1">  1        2 0.24718529E+00 0.16320603E+04</pdfrwt>
<pdfrwt beam="2">  1       -1 0.63762168E-01 0.16320603E+04</pdfrwt>
<totfact> 0.30055846E+01</totfact>
</mgrwt>
</event>
<event>
12    6  0.1540825E-007  0.1376199E+04  0.7818608E-02  0.8971230E-01
         -1   -1    0    0    0  501 -0.00000000000E+00  0.00000000000E+00  0.40494776517E+03  0.40494776517E+03  0.00000000000E+00 0.  1.
          2   -1    0    0  501    0  0.00000000000E+00 -0.00000000000E+00 -0.11692386697E+04  0.11692386697E+04  0.00000000000E+00 0. -1.
         24    2    1    2    0    0  0.24877876553E+02 -0.37407557584E+03 -0.34723464725E+03  0.51736702486E+03  0.80902984989E+02 0.  0.
        254    2    1    2    0    0 -0.24877876553E+02  0.37407557584E+03 -0.41705625729E+03  0.10568194100E+04  0.89575660669E+03 0.  0.
         23    2    4    4    0    0 -0.17608536459E+03 -0.10125678223E+03 -0.49563803158E+03  0.54345171473E+03  0.91780805839E+02 0.  0.
         23    2    4    4    0    0  0.15120748804E+03  0.47533235807E+03  0.78581774294E+02  0.51336769528E+03  0.92556686601E+02 0.  0.
          4    1    3    3  502    0  0.39772126004E+02 -0.89558132285E+02 -0.10211312567E+03  0.14152586866E+03  0.00000000000E+00 0. -1.
         -3    1    3    3    0  502 -0.14894249450E+02 -0.28451744356E+03 -0.24512152158E+03  0.37584115620E+03  0.00000000000E+00 0.  1.
         11    1    5    5    0    0 -0.12824701600E+03 -0.11328837449E+03 -0.41538520264E+03  0.44925095379E+03  0.00000000000E+00 0.  1.
        -11    1    5    5    0    0 -0.47838348587E+02  0.12031592267E+02 -0.80252828941E+02  0.94200760937E+02  0.00000000000E+00 0. -1.
          4    1    6    6  503    0  0.35558104879E+02  0.73506795454E+02 -0.19346875014E+02  0.83916204473E+02  0.00000000000E+00 0. -1.
         -4    1    6    6    0  503  0.11564938316E+03  0.40182556262E+03  0.97928649308E+02  0.42945149080E+03  0.00000000000E+00 0.  1.
<mgrwt>
<rscale>  0 0.13761985E+04</rscale>
<asrwt>0</asrwt>
<pdfrwt beam="1">  1        2 0.17988287E+00 0.13761985E+04</pdfrwt>
<pdfrwt beam="2">  1       -1 0.62299657E-01 0.13761985E+04</pdfrwt>
<totfact> 0.57423680E+01</totfact>
</mgrwt>
</event>
<event>
12    6  0.1540825E-007  0.1943561E+04  0.7818608E-02  0.8633472E-01
          2   -1    0    0  501    0  0.00000000000E+00  0.00000000000E+00  0.75050708013E+03  0.75050708013E+03  0.00000000000E+00 0. -1.
         -1   -1    0    0    0  501 -0.00000000000E+00 -0.00000000000E+00 -0.12582917478E+04  0.12582917478E+04  0.00000000000E+00 0.  1.
         24    2    1    2    0    0  0.45282510132E+02  0.28450283840E+03  0.52659617093E+03  0.60568603178E+03  0.80991796351E+02 0.  0.
        254    2    1    2    0    0 -0.45282510132E+02 -0.28450283840E+03 -0.10343808386E+04  0.14031127962E+04  0.90321062256E+03 0.  0.
         23    2    4    4    0    0  0.39750278180E+03 -0.83612706083E+02 -0.66816980398E+03  0.78748905281E+03  0.93212526987E+02 0.  0.
         23    2    4    4    0    0 -0.44278529193E+03 -0.20089013232E+03 -0.36621103466E+03  0.61562374338E+03  0.92013105053E+02 0.  0.
          4    1    3    3  502    0  0.40738282579E+02  0.14162574086E+03  0.34051136749E+03  0.37103294939E+03  0.00000000000E+00 0. -1.
         -3    1    3    3    0  502  0.45442275538E+01  0.14287709754E+03  0.18608480343E+03  0.23465308239E+03  0.00000000000E+00 0.  1.
         11    1    5    5    0    0  0.15283150072E+03 -0.77349356458E+02 -0.25256867273E+03  0.30517425351E+03  0.00000000000E+00 0. -1.
        -11    1    5    5    0    0  0.24467128107E+03 -0.62633496253E+01 -0.41560113125E+03  0.48231479930E+03  0.00000000000E+00 0.  1.
          2    1    6    6  503    0 -0.28905369668E+03 -0.84063067633E+02 -0.20655461158E+03  0.36508005487E+03  0.00000000000E+00 0. -1.
         -2    1    6    6    0  503 -0.15373159525E+03 -0.11682706468E+03 -0.15965642308E+03  0.25054368851E+03  0.00000000000E+00 0.  1.
<mgrwt>
<rscale>  0 0.19435605E+04</rscale>
<asrwt>0</asrwt>
<pdfrwt beam="1">  1        2 0.11546263E+00 0.19435605E+04</pdfrwt>
<pdfrwt beam="2">  1       -1 0.19358334E+00 0.19435605E+04</pdfrwt>
<totfact> 0.66560375E+00</totfact>
</mgrwt>
</event>
<event>
12    6  0.1540825E-007  0.1201182E+04  0.7818608E-02  0.9111823E-01
          2   -1    0    0  501    0  0.00000000000E+00  0.00000000000E+00  0.76028925738E+03  0.76028925738E+03  0.00000000000E+00 0. -1.
         -1   -1    0    0    0  501 -0.00000000000E+00 -0.00000000000E+00 -0.47443687111E+03  0.47443687111E+03  0.00000000000E+00 0.  1.
         24    2    1    2    0    0 -0.19258496049E+03 -0.97185909168E+02  0.65051383343E+02  0.23890147200E+03  0.79423944135E+02 0.  0.
        254    2    1    2    0    0  0.19258496049E+03  0.97185909168E+02  0.22080100293E+03  0.99582465650E+03  0.94677325461E+03 0.  0.
         23    2    4    4    0    0  0.54685008035E+03  0.46630486379E+02  0.27845782422E+03  0.62212361028E+03  0.90992384072E+02 0.  0.
         23    2    4    4    0    0 -0.35426511986E+03  0.50555422790E+02 -0.57656821298E+02  0.37370104621E+03  0.90931496075E+02 0.  0.
          4    1    3    3  502    0 -0.78916892654E+02 -0.36014390580E+02  0.67311734839E+02  0.10979882478E+03  0.00000000000E+00 0. -1.
         -3    1    3    3    0  502 -0.11366806784E+03 -0.61171518588E+02 -0.22603514959E+01  0.12910264723E+03  0.00000000000E+00 0.  1.
         11    1    5    5    0    0  0.20613030792E+03 -0.26241827509E+02  0.98141546607E+02  0.22980448326E+03  0.00000000000E+00 0. -1.
        -11    1    5    5    0    0  0.34071977243E+03  0.72872313887E+02  0.18031627762E+03  0.39231912702E+03  0.00000000000E+00 0.  1.
          4    1    6    6  503    0 -0.35097972878E+01  0.15941645589E+02  0.11748425460E+01  0.16365665159E+02  0.00000000000E+00 0. -1.
         -4    1    6    6    0  503 -0.35075532257E+03  0.34613777200E+02 -0.58831663844E+02  0.35733538106E+03  0.00000000000E+00 0.  1.
<mgrwt>
<rscale>  0 0.12011815E+04</rscale>
<asrwt>0</asrwt>
<pdfrwt beam="1">  1        2 0.11696758E+00 0.12011815E+04</pdfrwt>
<pdfrwt beam="2">  1       -1 0.72990288E-01 0.12011815E+04</pdfrwt>
<totfact> 0.78565008E+01</totfact>
</mgrwt>
</event>
<event>
12    6  0.1540825E-007  0.1520652E+04  0.7818608E-02  0.8870834E-01
          2   -1    0    0  501    0  0.00000000000E+00  0.00000000000E+00  0.14325226869E+04  0.14325226869E+04  0.00000000000E+00 0. -1.
         -1   -1    0    0    0  501 -0.00000000000E+00 -0.00000000000E+00 -0.40355082352E+03  0.40355082352E+03  0.00000000000E+00 0.  1.
         24    2    1    2    0    0  0.52648076655E+02  0.22438492465E+03  0.96804672281E+03  0.99777718834E+03  0.72968799151E+02 0.  0.
        254    2    1    2    0    0 -0.52648076655E+02 -0.22438492465E+03  0.60925140576E+02  0.83829632207E+03  0.80368428905E+03 0.  0.
         23    2    4    4    0    0 -0.41373573472E+03 -0.15289198274E+03  0.82187366528E+02  0.45848444059E+03  0.94339824449E+02 0.  0.
         23    2    4    4    0    0  0.36108765806E+03 -0.71492941915E+02 -0.21262225953E+02  0.37981188148E+03  0.91156160052E+02 0.  0.
          4    1    3    3  502    0  0.60086906146E+02  0.22222601640E+03  0.88791535187E+03  0.91727232092E+03  0.00000000000E+00 0. -1.
         -3    1    3    3    0  502 -0.74388294916E+01  0.21589082591E+01  0.80131370942E+02  0.80504867419E+02  0.00000000000E+00 0.  1.
         11    1    5    5    0    0 -0.28297624542E+03 -0.79569077529E+02  0.92649193000E+02  0.30820555889E+03  0.00000000000E+00 0. -1.
        -11    1    5    5    0    0 -0.13075948930E+03 -0.73322905211E+02 -0.10461826471E+02  0.15027888170E+03  0.00000000000E+00 0.  1.
          3    1    6    6  503    0  0.99114497783E+02 -0.41426253649E+02 -0.41915437557E+02  0.11531141343E+03  0.00000000000E+00 0. -1.
         -3    1    6    6    0  503  0.26197316028E+03 -0.30066688266E+02  0.20653211605E+02  0.26450046805E+03  0.00000000000E+00 0.  1.
<mgrwt>
<rscale>  0 0.15206521E+04</rscale>
<asrwt>0</asrwt>
<pdfrwt beam="1">  1        2 0.22038810E+00 0.15206521E+04</pdfrwt>
<pdfrwt beam="2">  1       -1 0.62084743E-01 0.15206521E+04</pdfrwt>
<totfact> 0.40107871E+01</totfact>
</mgrwt>
</event>
<event>
12    6  0.1540825E-007  0.1974976E+04  0.7818608E-02  0.8618410E-01
         -1   -1    0    0    0  501 -0.00000000000E+00  0.00000000000E+00  0.69530664343E+03  0.69530664343E+03  0.00000000000E+00 0.  1.
          2   -1    0    0  501    0  0.00000000000E+00 -0.00000000000E+00 -0.14024502095E+04  0.14024502095E+04  0.00000000000E+00 0. -1.
         24    2    1    2    0    0 -0.37948273688E+03  0.38261311518E+03  0.32894716112E+03  0.63640007636E+03  0.79992992672E+02 0.  0.
        254    2    1    2    0    0  0.37948273688E+03 -0.38261311518E+03 -0.10360907272E+04  0.14613567766E+04  0.87845300954E+03 0.  0.
         23    2    4    4    0    0  0.55879562099E+03  0.10046884328E+02 -0.73358568328E+03  0.92663203886E+03  0.90252395002E+02 0.  0.
         23    2    4    4    0    0 -0.17931288411E+03 -0.39265999951E+03 -0.30250504390E+03  0.53472473771E+03  0.89923622637E+02 0.  0.
          4    1    3    3  502    0 -0.47192755365E+02  0.60816135347E+02  0.80300291961E+02  0.11123801224E+03  0.00000000000E+00 0. -1.
         -3    1    3    3    0  502 -0.33228998151E+03  0.32179697983E+03  0.24864686916E+03  0.52516206412E+03  0.00000000000E+00 0.  1.
         11    1    5    5    0    0  0.39619768654E+03 -0.30582467615E+02 -0.48835474652E+03  0.62960166185E+03  0.00000000000E+00 0. -1.
        -11    1    5    5    0    0  0.16259793445E+03  0.40629351943E+02 -0.24523093676E+03  0.29703037701E+03  0.00000000000E+00 0.  1.
          3    1    6    6  503    0 -0.90888337429E+02 -0.13337914156E+03 -0.15415315804E+03  0.22319023594E+03  0.00000000000E+00 0. -1.
         -3    1    6    6    0  503 -0.88424546684E+02 -0.25928085795E+03 -0.14835188586E+03  0.31153450177E+03  0.00000000000E+00 0.  1.
<mgrwt>
<rscale>  0 0.19749764E+04</rscale>
<asrwt>0</asrwt>
<pdfrwt beam="1">  1        2 0.21576157E+00 0.19749764E+04</pdfrwt>
<pdfrwt beam="2">  1       -1 0.10697025E+00 0.19749764E+04</pdfrwt>
<totfact> 0.12474123E+01</totfact>
</mgrwt>
</event>
<event>
12    6  0.1540825E-007  0.1842058E+04  0.7818608E-02  0.8684248E-01
          2   -1    0    0  501    0  0.00000000000E+00  0.00000000000E+00  0.18513251964E+04  0.18513251964E+04  0.00000000000E+00 0. -1.
         -1   -1    0    0    0  501 -0.00000000000E+00 -0.00000000000E+00 -0.45820925947E+03  0.45820925947E+03  0.00000000000E+00 0.  1.
         24    2    1    2    0    0  0.87273482322E+02  0.40770026850E+02  0.14044919284E+04  0.14100672421E+04  0.80082422938E+02 0.  0.
        254    2    1    2    0    0 -0.87273482322E+02 -0.40770026850E+02 -0.11375991445E+02  0.89946721381E+03  0.89422200808E+03 0.  0.
         23    2    4    4    0    0  0.64773812956E+02  0.17503312136E+03 -0.38300084710E+03  0.43460310905E+03  0.85778628446E+02 0.  0.
         23    2    4    4    0    0 -0.15204729528E+03 -0.21580314821E+03  0.37162485566E+03  0.46486410476E+03  0.91127513814E+02 0.  0.
          2    1    3    3  502    0  0.63075286290E+02  0.64036735387E+02  0.90657584142E+03  0.91102082933E+03  0.00000000000E+00 0. -1.
         -1    1    3    3    0  502  0.24198196032E+02 -0.23266708536E+02  0.49791608697E+03  0.49904641276E+03  0.00000000000E+00 0.  1.
         11    1    5    5    0    0  0.35786733250E+02  0.32356894180E+02 -0.42551471967E+02  0.64329516120E+02  0.00000000000E+00 0. -1.
        -11    1    5    5    0    0  0.28987079706E+02  0.14267622718E+03 -0.34044937514E+03  0.37027359293E+03  0.00000000000E+00 0.  1.
          4    1    6    6  503    0 -0.37382113712E+01 -0.36063856746E+02  0.15857054649E+02  0.39572997988E+02  0.00000000000E+00 0. -1.
         -4    1    6    6    0  503 -0.14830908391E+03 -0.17973929146E+03  0.35576780101E+03  0.42529110677E+03  0.00000000000E+00 0.  1.
<mgrwt>
<rscale>  0 0.18420579E+04</rscale>
<asrwt>0</asrwt>
<pdfrwt beam="1">  1        2 0.28481926E+00 0.18420579E+04</pdfrwt>
<pdfrwt beam="2">  1       -1 0.70493733E-01 0.18420579E+04</pdfrwt>
<totfact> 0.17608365E+01</totfact>
</mgrwt>
</event>
<event>
12    6  0.1540825E-007  0.1557418E+04  0.7818608E-02  0.8847143E-01
          2   -1    0    0  501    0  0.00000000000E+00  0.00000000000E+00  0.44772084638E+03  0.44772084638E+03  0.00000000000E+00 0. -1.
         -3   -1    0    0    0  501 -0.00000000000E+00 -0.00000000000E+00 -0.13543886287E+04  0.13543886287E+04  0.00000000000E+00 0.  1.
         24    2    1    2    0    0  0.35978284153E+03 -0.38685808602E+03 -0.46296993890E+03  0.70710360447E+03  0.80941159844E+02 0.  0.
        254    2    1    2    0    0 -0.35978284153E+03  0.38685808602E+03 -0.44369784342E+03  0.10950058706E+04  0.85033358667E+03 0.  0.
         23    2    4    4    0    0  0.23623947387E+02  0.10692472178E+03 -0.57711515556E+03  0.59428301280E+03  0.90107766068E+02 0.  0.
         23    2    4    4    0    0 -0.38340678892E+03  0.27993336424E+03  0.13341731214E+03  0.50072285781E+03  0.86946805293E+02 0.  0.
          2    1    3    3  502    0  0.25734437850E+03 -0.27684551033E+03 -0.37739286153E+03  0.53413007561E+03  0.00000000000E+00 0. -1.
         -1    1    3    3    0  502  0.10243846303E+03 -0.11001257568E+03 -0.85577077375E+02  0.17297352886E+03  0.00000000000E+00 0.  1.
         11    1    5    5    0    0 -0.31377777671E+02  0.42610975864E+02 -0.15545880137E+03  0.16421844938E+03  0.00000000000E+00 0. -1.
        -11    1    5    5    0    0  0.55001725058E+02  0.64313745912E+02 -0.42165635420E+03  0.43006456342E+03  0.00000000000E+00 0.  1.
          1    1    6    6  503    0 -0.16818860217E+03  0.16330302642E+03  0.94975686662E+02  0.25293411275E+03  0.00000000000E+00 0. -1.
         -1    1    6    6    0  503 -0.21521818674E+03  0.11663033782E+03  0.38441625475E+02  0.24778874505E+03  0.00000000000E+00 0.  1.
<mgrwt>
<rscale>  0 0.15574184E+04</rscale>
<asrwt>0</asrwt>
<pdfrwt beam="1">  1        2 0.68880131E-01 0.15574184E+04</pdfrwt>
<pdfrwt beam="2">  1       -3 0.20836748E+00 0.15574184E+04</pdfrwt>
<totfact> 0.54580754E+00</totfact>
</mgrwt>
</event>
<event>
12    6  0.1540825E-007  0.1738555E+04  0.7818608E-02  0.8739675E-01
          2   -1    0    0  501    0  0.00000000000E+00  0.00000000000E+00  0.18066557147E+04  0.18066557147E+04  0.00000000000E+00 0. -1.
         -1   -1    0    0    0  501 -0.00000000000E+00 -0.00000000000E+00 -0.41825553797E+03  0.41825553797E+03  0.00000000000E+00 0.  1.
         24    2    1    2    0    0  0.56468889384E+03  0.13748505819E+03  0.74479247785E+03  0.94826192300E+03  0.81909410328E+02 0.  0.
        254    2    1    2    0    0 -0.56468889384E+03 -0.13748505819E+03  0.64360769892E+03  0.12766493297E+04  0.93692419804E+03 0.  0.
         23    2    4    4    0    0  0.12350208209E+03 -0.83359945753E+02  0.54647881040E+03  0.57374170704E+03  0.91317092341E+02 0.  0.
         23    2    4    4    0    0 -0.68819097593E+03 -0.54125112434E+02  0.97128888525E+02  0.70290762266E+03  0.90048641607E+02 0.  0.
          4    1    3    3  502    0  0.41599356879E+03  0.12555318232E+03  0.50906319179E+03  0.66929782915E+03  0.00000000000E+00 0. -1.
         -3    1    3    3    0  502  0.14869532505E+03  0.11931875862E+02  0.23572928606E+03  0.27896409385E+03  0.00000000000E+00 0.  1.
         11    1    5    5    0    0  0.88338655378E+02 -0.92501282197E+02  0.32431206001E+03  0.34862374777E+03  0.00000000000E+00 0. -1.
        -11    1    5    5    0    0  0.35163426715E+02  0.91413364443E+01  0.22216675039E+03  0.22511795928E+03  0.00000000000E+00 0.  1.
          1    1    6    6  503    0 -0.33204999153E+03  0.11242020445E+02  0.71959652676E+02  0.33994377699E+03  0.00000000000E+00 0. -1.
         -1    1    6    6    0  503 -0.35614098440E+03 -0.65367132879E+02  0.25169235849E+02  0.36296384567E+03  0.00000000000E+00 0.  1.
<mgrwt>
<rscale>  0 0.17385554E+04</rscale>
<asrwt>0</asrwt>
<pdfrwt beam="1">  1        2 0.27794703E+00 0.17385554E+04</pdfrwt>
<pdfrwt beam="2">  1       -1 0.64347007E-01 0.17385554E+04</pdfrwt>
<totfact> 0.22640875E+01</totfact>
</mgrwt>
</event>
<event>
12    6  0.1540825E-007  0.2404750E+04  0.7818608E-02  0.8437727E-01
         -1   -1    0    0    0  501 -0.00000000000E+00  0.00000000000E+00  0.10537163350E+04  0.10537163350E+04  0.00000000000E+00 0.  1.
          2   -1    0    0  501    0  0.00000000000E+00 -0.00000000000E+00 -0.13720068422E+04  0.13720068422E+04  0.00000000000E+00 0. -1.
         24    2    1    2    0    0  0.95752418584E+02 -0.97876039359E+03  0.18093084873E+03  0.10032512317E+04  0.81465502245E+02 0.  0.
        254    2    1    2    0    0 -0.95752418584E+02  0.97876039359E+03 -0.49922135591E+03  0.14224719456E+04  0.89836743040E+03 0.  0.
         23    2    4    4    0    0 -0.28485984504E+03  0.38313794222E+03  0.15796866274E+03  0.51105315068E+03  0.91002254531E+02 0.  0.
         23    2    4    4    0    0  0.18910742646E+03  0.59562245138E+03 -0.65719001865E+03  0.91141879489E+03  0.90872304574E+02 0.  0.
          2    1    3    3  502    0  0.20475994901E+02 -0.17110449527E+03  0.76292700374E+00  0.17232700522E+03  0.00000000000E+00 0. -1.
         -3    1    3    3    0  502  0.75276423683E+02 -0.80765589832E+03  0.18016792173E+03  0.83092422643E+03  0.00000000000E+00 0.  1.
         11    1    5    5    0    0 -0.18138878387E+03  0.31015893308E+03  0.12138916330E+03  0.37925688346E+03  0.00000000000E+00 0.  1.
        -11    1    5    5    0    0 -0.10347106117E+03  0.72979009136E+02  0.36579499443E+02  0.13179626722E+03  0.00000000000E+00 0. -1.
          3    1    6    6  503    0  0.12891176947E+03  0.48092443967E+03 -0.47714622245E+03  0.68961951725E+03  0.00000000000E+00 0. -1.
         -3    1    6    6    0  503  0.60195656987E+02  0.11469801171E+03 -0.18004379620E+03  0.22179927764E+03  0.00000000000E+00 0.  1.
<mgrwt>
<rscale>  0 0.24047503E+04</rscale>
<asrwt>0</asrwt>
<pdfrwt beam="1">  1        2 0.21107797E+00 0.24047503E+04</pdfrwt>
<pdfrwt beam="2">  1       -1 0.16211021E+00 0.24047503E+04</pdfrwt>
<totfact> 0.43325892E+00</totfact>
</mgrwt>
</event>
<event>
12    6  0.1540825E-007  0.1466351E+04  0.7818608E-02  0.8907143E-01
          2   -1    0    0  501    0  0.00000000000E+00  0.00000000000E+00  0.13606353746E+04  0.13606353746E+04  0.00000000000E+00 0. -1.
         -1   -1    0    0    0  501 -0.00000000000E+00 -0.00000000000E+00 -0.39507015121E+03  0.39507015121E+03  0.00000000000E+00 0.  1.
         24    2    1    2    0    0  0.20520468577E+03 -0.10004246159E+03  0.77083536896E+03  0.80685307233E+03  0.68609453473E+02 0.  0.
        254    2    1    2    0    0 -0.20520468577E+03  0.10004246159E+03  0.19472985442E+03  0.94885245346E+03  0.90015765567E+03 0.  0.
         23    2    4    4    0    0 -0.18542131969E+03 -0.38395087363E+03  0.93381590168E+02  0.44588354645E+03  0.91064133759E+02 0.  0.
         23    2    4    4    0    0 -0.19783366082E+02  0.48399333522E+03  0.10134826426E+03  0.50296890701E+03  0.89807130259E+02 0.  0.
          4    1    3    3  502    0  0.20097820864E+03 -0.84303958851E+02  0.66586122880E+03  0.70062156250E+03  0.00000000000E+00 0. -1.
         -3    1    3    3    0  502  0.42264771245E+01 -0.15738502735E+02  0.10497414016E+03  0.10623150983E+03  0.00000000000E+00 0.  1.
         11    1    5    5    0    0 -0.19493211252E+03 -0.37585897439E+03  0.89034032364E+02  0.43266101748E+03  0.00000000000E+00 0. -1.
        -11    1    5    5    0    0  0.95107928359E+01 -0.80918992376E+01  0.43475578036E+01  0.13222528975E+02  0.00000000000E+00 0.  1.
          1    1    6    6  503    0 -0.27901219142E+01  0.15901672202E+02  0.22940047059E+02  0.28051625946E+02  0.00000000000E+00 0.  1.
         -1    1    6    6    0  503 -0.16993244168E+02  0.46809166302E+03  0.78408217197E+02  0.47491728107E+03  0.00000000000E+00 0. -1.
<mgrwt>
<rscale>  0 0.14663511E+04</rscale>
<asrwt>0</asrwt>
<pdfrwt beam="1">  1        2 0.20932852E+00 0.14663511E+04</pdfrwt>
<pdfrwt beam="2">  1       -1 0.60780024E-01 0.14663511E+04</pdfrwt>
<totfact> 0.46201559E+01</totfact>
</mgrwt>
</event>
<event>
12    6  0.1540825E-007  0.2050765E+04  0.7818608E-02  0.8583247E-01
          2   -1    0    0  501    0  0.00000000000E+00  0.00000000000E+00  0.84097188860E+03  0.84097188860E+03  0.00000000000E+00 0. -1.
         -3   -1    0    0    0  501 -0.00000000000E+00 -0.00000000000E+00 -0.12502312121E+04  0.12502312121E+04  0.00000000000E+00 0.  1.
         24    2    1    2    0    0  0.54393541644E+03  0.57619301801E+03  0.74084973667E+02  0.80009073390E+03  0.82416429734E+02 0.  0.
        254    2    1    2    0    0 -0.54393541644E+03 -0.57619301801E+03 -0.48334429714E+03  0.12911123668E+04  0.89748833018E+03 0.  0.
         23    2    4    4    0    0 -0.32810194287E+03 -0.70144027765E+03 -0.61527359899E+03  0.99325451341E+03  0.91233649264E+02 0.  0.
         23    2    4    4    0    0 -0.21583347357E+03  0.12524725964E+03  0.13192930185E+03  0.29785785337E+03  0.95094667410E+02 0.  0.
          4    1    3    3  502    0  0.53087912558E+03  0.54103921126E+03  0.79697138182E+02  0.76217301706E+03  0.00000000000E+00 0. -1.
         -3    1    3    3    0  502  0.13056290860E+02  0.35153806750E+02 -0.56121645144E+01  0.37917716843E+02  0.00000000000E+00 0.  1.
         11    1    5    5    0    0 -0.27516119570E+03 -0.50167691305E+03 -0.43065347094E+03  0.71613952603E+03  0.00000000000E+00 0. -1.
        -11    1    5    5    0    0 -0.52940747173E+02 -0.19976336460E+03 -0.18462012806E+03  0.27711498738E+03  0.00000000000E+00 0.  1.
          4    1    6    6  503    0 -0.15628667939E+03  0.37861419207E+02  0.88399484807E+02  0.18350335728E+03  0.00000000000E+00 0. -1.
         -4    1    6    6    0  503 -0.59546794180E+02  0.87385840433E+02  0.43529817045E+02  0.11435449610E+03  0.00000000000E+00 0.  1.
<mgrwt>
<rscale>  0 0.20507650E+04</rscale>
<asrwt>0</asrwt>
<pdfrwt beam="1">  1        2 0.12938029E+00 0.20507650E+04</pdfrwt>
<pdfrwt beam="2">  1       -3 0.19234326E+00 0.20507650E+04</pdfrwt>
<totfact> 0.30714293E+00</totfact>
</mgrwt>
</event>
<event>
12    6  0.1540825E-007  0.1682916E+04  0.7818608E-02  0.8771168E-01
          2   -1    0    0  501    0  0.00000000000E+00  0.00000000000E+00  0.16793627322E+04  0.16793627322E+04  0.00000000000E+00 0. -1.
         -1   -1    0    0    0  501 -0.00000000000E+00 -0.00000000000E+00 -0.42161941948E+03  0.42161941948E+03  0.00000000000E+00 0.  1.
         24    2    1    2    0    0 -0.11772385471E+03  0.58142358826E+03  0.36422038758E+03  0.70108817499E+03  0.83401699185E+02 0.  0.
        254    2    1    2    0    0  0.11772385471E+03 -0.58142358826E+03  0.89352292518E+03  0.13998939767E+04  0.89967084722E+03 0.  0.
         23    2    4    4    0    0 -0.12614642383E+03 -0.31275865749E+03  0.95846554059E+03  0.10199273817E+04  0.88683557660E+02 0.  0.
         23    2    4    4    0    0  0.24387027854E+03 -0.26866493077E+03 -0.64942615412E+02  0.37996659502E+03  0.92214490473E+02 0.  0.
          2    1    3    3  502    0 -0.12226217165E+03  0.50284734158E+03  0.33812290873E+03  0.61816712057E+03  0.00000000000E+00 0. -1.
         -1    1    3    3    0  502  0.45383169399E+01  0.78576246680E+02  0.26097478851E+02  0.82921054415E+02  0.00000000000E+00 0.  1.
         11    1    5    5    0    0 -0.37141965345E+02 -0.12839403881E+03  0.50503665612E+03  0.52242375407E+03  0.00000000000E+00 0.  1.
        -11    1    5    5    0    0 -0.89004458489E+02 -0.18436461868E+03  0.45342888447E+03  0.49750362765E+03  0.00000000000E+00 0. -1.
          3    1    6    6  503    0  0.14240239704E+03 -0.21529632698E+03 -0.28662964710E+02  0.25971622329E+03  0.00000000000E+00 0. -1.
         -3    1    6    6    0  503  0.10146788150E+03 -0.53368603797E+02 -0.36279650702E+02  0.12025037174E+03  0.00000000000E+00 0.  1.
<mgrwt>
<rscale>  0 0.16829164E+04</rscale>
<asrwt>0</asrwt>
<pdfrwt beam="1">  1        2 0.25836349E+00 0.16829164E+04</pdfrwt>
<pdfrwt beam="2">  1       -1 0.64864527E-01 0.16829164E+04</pdfrwt>
<totfact> 0.26339354E+01</totfact>
</mgrwt>
</event>
<event>
12    6  0.1540825E-007  0.2098652E+04  0.7818608E-02  0.8561838E-01
          2   -1    0    0  501    0  0.00000000000E+00  0.00000000000E+00  0.22189902786E+04  0.22189902786E+04  0.00000000000E+00 0. -1.
         -1   -1    0    0    0  501 -0.00000000000E+00 -0.00000000000E+00 -0.49620977406E+03  0.49620977406E+03  0.00000000000E+00 0.  1.
         24    2    1    2    0    0 -0.36068688057E+03  0.67376335257E+03  0.12565627355E+04  0.14728730848E+04  0.79706553533E+02 0.  0.
        254    2    1    2    0    0  0.36068688057E+03 -0.67376335257E+03  0.46621776908E+03  0.12423269679E+04  0.86137402203E+03 0.  0.
         23    2    4    4    0    0 -0.17726513772E+03 -0.55954264334E+03  0.23590435055E+03  0.63845786156E+03  0.86409950923E+02 0.  0.
         23    2    4    4    0    0  0.53795201828E+03 -0.11422070924E+03  0.23031341853E+03  0.60386910632E+03  0.95785606542E+02 0.  0.
          2    1    3    3  502    0 -0.31848750254E+03  0.54166628853E+03  0.10615378805E+04  0.12335717770E+04  0.00000000000E+00 0. -1.
         -1    1    3    3    0  502 -0.42199378026E+02  0.13209706404E+03  0.19502485500E+03  0.23930130777E+03  0.00000000000E+00 0.  1.
         11    1    5    5    0    0 -0.16478796786E+03 -0.40792576457E+03  0.19276694548E+03  0.48033071838E+03  0.00000000000E+00 0. -1.
        -11    1    5    5    0    0 -0.12477169860E+02 -0.15161687876E+03  0.43137405080E+02  0.15812714318E+03  0.00000000000E+00 0.  1.
          1    1    6    6  503    0  0.48947988096E+03 -0.13117468477E+03  0.21270635165E+03  0.54958288167E+03  0.00000000000E+00 0. -1.
         -1    1    6    6    0  503  0.48472137326E+02  0.16953975532E+02  0.17607066873E+02  0.54286224653E+02  0.00000000000E+00 0.  1.
<mgrwt>
<rscale>  0 0.20986516E+04</rscale>
<asrwt>0</asrwt>
<pdfrwt beam="1">  1        2 0.34138311E+00 0.20986516E+04</pdfrwt>
<pdfrwt beam="2">  1       -1 0.76339966E-01 0.20986516E+04</pdfrwt>
<totfact> 0.91046542E+00</totfact>
</mgrwt>
</event>
<event>
12    6  0.1540825E-007  0.1098659E+04  0.7818608E-02  0.9206500E-01
          2   -1    0    0  501    0  0.00000000000E+00  0.00000000000E+00  0.29872133894E+04  0.29872133894E+04  0.00000000000E+00 0. -1.
         -1   -1    0    0    0  501 -0.00000000000E+00 -0.00000000000E+00 -0.10101821776E+03  0.10101821776E+03  0.00000000000E+00 0.  1.
         24    2    1    2    0    0  0.14975513165E+03  0.38150017401E+02  0.67079960511E+03  0.69297544394E+03  0.79754826808E+02 0.  0.
        254    2    1    2    0    0 -0.14975513165E+03 -0.38150017401E+02  0.22153955666E+04  0.23952561633E+04  0.89743665401E+03 0.  0.
         23    2    4    4    0    0 -0.34586868925E+03 -0.20590341425E+03  0.45751071472E+03  0.61620780963E+03  0.91513082979E+02 0.  0.
         23    2    4    4    0    0  0.19611355760E+03  0.16775339685E+03  0.17578848518E+04  0.17790483536E+04  0.90841414340E+02 0.  0.
          2    1    3    3  502    0  0.12073743223E+03  0.96491368837E+01  0.59237354455E+03  0.60462967978E+03  0.00000000000E+00 0. -1.
         -1    1    3    3    0  502  0.29017699422E+02  0.28500880517E+02  0.78426060560E+02  0.88345764159E+02  0.00000000000E+00 0.  1.
         11    1    5    5    0    0 -0.25807857337E+03 -0.11094030450E+03  0.28042642893E+03  0.39692730221E+03  0.00000000000E+00 0.  1.
        -11    1    5    5    0    0 -0.87790115880E+02 -0.94963109750E+02  0.17708428579E+03  0.21928050742E+03  0.00000000000E+00 0. -1.
          3    1    6    6  503    0  0.23477092361E+02 -0.10257298239E+02  0.16532415730E+03  0.16729752843E+03  0.00000000000E+00 0. -1.
         -3    1    6    6    0  503  0.17263646524E+03  0.17801069509E+03  0.15925606945E+04  0.16117508252E+04  0.00000000000E+00 0.  1.
<mgrwt>
<rscale>  0 0.10986591E+04</rscale>
<asrwt>0</asrwt>
<pdfrwt beam="1">  1        2 0.45957122E+00 0.10986591E+04</pdfrwt>
<pdfrwt beam="2">  1       -1 0.15541267E-01 0.10986591E+04</pdfrwt>
<totfact> 0.63454472E+01</totfact>
</mgrwt>
</event>
<event>
12    6  0.1540825E-007  0.2627706E+04  0.7818608E-02  0.8358851E-01
          2   -1    0    0  501    0  0.00000000000E+00  0.00000000000E+00  0.18289345009E+04  0.18289345009E+04  0.00000000000E+00 0. -1.
         -1   -1    0    0    0  501 -0.00000000000E+00 -0.00000000000E+00 -0.94383358971E+03  0.94383358971E+03  0.00000000000E+00 0.  1.
         24    2    1    2    0    0 -0.70755115444E+03  0.85566628549E+03  0.41151367281E+02  0.11139504056E+04  0.79991516876E+02 0.  0.
        254    2    1    2    0    0  0.70755115444E+03 -0.85566628549E+03  0.84394954386E+03  0.16588176850E+04  0.89812685695E+03 0.  0.
         23    2    4    4    0    0  0.23852931761E+03 -0.60024899076E+03 -0.49445468943E+01  0.65177311351E+03  0.87112896192E+02 0.  0.
         23    2    4    4    0    0  0.46902183683E+03 -0.25541729473E+03  0.84889409076E+03  0.10070445715E+04  0.91093983058E+02 0.  0.
          4    1    3    3  502    0 -0.62087100620E+03  0.77047983010E+03  0.58264608061E+02  0.99121881514E+03  0.00000000000E+00 0. -1.
         -3    1    3    3    0  502 -0.86680148238E+02  0.85186455399E+02 -0.17113240780E+02  0.12273159044E+03  0.00000000000E+00 0.  1.
         11    1    5    5    0    0  0.98722538507E+02 -0.18241718074E+03 -0.34127015253E+02  0.21020661409E+03  0.00000000000E+00 0. -1.
        -11    1    5    5    0    0  0.13980677910E+03 -0.41783181003E+03  0.29182468359E+02  0.44156649942E+03  0.00000000000E+00 0.  1.
          3    1    6    6  503    0  0.88459944816E+01  0.72518560672E+01  0.12558708618E+02  0.16987118559E+02  0.00000000000E+00 0. -1.
         -3    1    6    6    0  503  0.46017584235E+03 -0.26266915080E+03  0.83633538214E+03  0.99005745292E+03  0.00000000000E+00 0.  1.
<mgrwt>
<rscale>  0 0.26277061E+04</rscale>
<asrwt>0</asrwt>
<pdfrwt beam="1">  1        2 0.28137454E+00 0.26277061E+04</pdfrwt>
<pdfrwt beam="2">  1       -1 0.14520517E+00 0.26277061E+04</pdfrwt>
<totfact> 0.31793249E+00</totfact>
</mgrwt>
</event>
<event>
12    6  0.1540825E-007  0.1967187E+04  0.7818608E-02  0.8622117E-01
         -1   -1    0    0    0  501 -0.00000000000E+00  0.00000000000E+00  0.79977354295E+03  0.79977354295E+03  0.00000000000E+00 0.  1.
          2   -1    0    0  501    0  0.00000000000E+00 -0.00000000000E+00 -0.12096629281E+04  0.12096629281E+04  0.00000000000E+00 0. -1.
         24    2    1    2    0    0 -0.58004044497E+03  0.85944813797E+02  0.35578674037E+03  0.69029277073E+03  0.78015869450E+02 0.  0.
        254    2    1    2    0    0  0.58004044497E+03 -0.85944813797E+02 -0.76567612547E+03  0.13191437003E+04  0.90002596853E+03 0.  0.
         23    2    4    4    0    0  0.55926019587E+03 -0.40988570446E+03 -0.67186418540E+03  0.96977456068E+03  0.91010754931E+02 0.  0.
         23    2    4    4    0    0  0.20780249099E+02  0.32394089067E+03 -0.93811940071E+02  0.34936913959E+03  0.88817769613E+02 0.  0.
          2    1    3    3  502    0 -0.11443370905E+03  0.32423373404E+02  0.41386712269E+02  0.12593335088E+03  0.00000000000E+00 0. -1.
         -1    1    3    3    0  502 -0.46560673592E+03  0.53521440394E+02  0.31440002810E+03  0.56435941986E+03  0.00000000000E+00 0.  1.
         11    1    5    5    0    0  0.48368071485E+03 -0.35828209753E+03 -0.53612442179E+03  0.80606605869E+03  0.00000000000E+00 0. -1.
        -11    1    5    5    0    0  0.75579481017E+02 -0.51603606932E+02 -0.13573976361E+03  0.16370850199E+03  0.00000000000E+00 0.  1.
          2    1    6    6  503    0 -0.30345647950E+02  0.20168690703E+03 -0.60284366489E+02  0.21267973966E+03  0.00000000000E+00 0. -1.
         -2    1    6    6    0  503  0.51125897049E+02  0.12225398363E+03 -0.33527573582E+02  0.13668939993E+03  0.00000000000E+00 0.  1.
<mgrwt>
<rscale>  0 0.19671872E+04</rscale>
<asrwt>0</asrwt>
<pdfrwt beam="1">  1        2 0.18610199E+00 0.19671872E+04</pdfrwt>
<pdfrwt beam="2">  1       -1 0.12304208E+00 0.19671872E+04</pdfrwt>
<totfact> 0.11554660E+01</totfact>
</mgrwt>
</event>
<event>
12    6  0.1540825E-007  0.2010174E+04  0.7818608E-02  0.8601879E-01
          2   -1    0    0  501    0  0.00000000000E+00  0.00000000000E+00  0.21365738452E+04  0.21365738452E+04  0.00000000000E+00 0. -1.
         -1   -1    0    0    0  501 -0.00000000000E+00 -0.00000000000E+00 -0.47281275923E+03  0.47281275923E+03  0.00000000000E+00 0.  1.
         24    2    1    2    0    0 -0.71315981154E+03 -0.33480804680E+03  0.43876564758E+03  0.90542884444E+03  0.81195774835E+02 0.  0.
        254    2    1    2    0    0  0.71315981154E+03  0.33480804680E+03  0.12249954384E+04  0.17039577600E+04  0.88440085861E+03 0.  0.
         23    2    4    4    0    0  0.24002721491E+03 -0.29484128389E+03  0.43221008513E+03  0.58286795134E+03  0.91569888197E+02 0.  0.
         23    2    4    4    0    0  0.47313259663E+03  0.62964933069E+03  0.79278535324E+03  0.11210898086E+04  0.89560086329E+02 0.  0.
          4    1    3    3  502    0 -0.14410881962E+03 -0.69128913647E+02  0.12778384096E+03  0.20463349825E+03  0.00000000000E+00 0. -1.
         -3    1    3    3    0  502 -0.56905099192E+03 -0.26567913316E+03  0.31098180662E+03  0.70079534620E+03  0.00000000000E+00 0.  1.
         11    1    5    5    0    0  0.24834886338E+03 -0.28755254487E+03  0.41842464982E+03  0.56519272074E+03  0.00000000000E+00 0.  1.
        -11    1    5    5    0    0 -0.83216484737E+01 -0.72887390182E+01  0.13785435311E+02  0.17675230593E+02  0.00000000000E+00 0. -1.
          1    1    6    6  503    0  0.37417836271E+03  0.43453674643E+03  0.55647139367E+03  0.79905697112E+03  0.00000000000E+00 0. -1.
         -1    1    6    6    0  503  0.98954233925E+02  0.19511258426E+03  0.23631395957E+03  0.32203283751E+03  0.00000000000E+00 0.  1.
<mgrwt>
<rscale>  0 0.20101735E+04</rscale>
<asrwt>0</asrwt>
<pdfrwt beam="1">  1        2 0.32870366E+00 0.20101735E+04</pdfrwt>
<pdfrwt beam="2">  1       -1 0.72740426E-01 0.20101735E+04</pdfrwt>
<totfact> 0.11289134E+01</totfact>
</mgrwt>
</event>
<event>
12    6  0.1540825E-007  0.3475834E+04  0.7818608E-02  0.8119541E-01
         -1   -1    0    0    0  501 -0.00000000000E+00  0.00000000000E+00  0.15678278179E+04  0.15678278179E+04  0.00000000000E+00 0.  1.
          2   -1    0    0  501    0  0.00000000000E+00 -0.00000000000E+00 -0.19264591570E+04  0.19264591570E+04  0.00000000000E+00 0. -1.
         24    2    1    2    0    0  0.96422092068E+02  0.12973252216E+04 -0.11394471571E+04  0.17310753050E+04  0.77019070934E+02 0.  0.
        254    2    1    2    0    0 -0.96422092068E+02 -0.12973252216E+04  0.78081581794E+03  0.17632116700E+04  0.89827173021E+03 0.  0.
         23    2    4    4    0    0  0.37924434656E+03 -0.76173163790E+03  0.47896381629E+03  0.98068753280E+03  0.90996357626E+02 0.  0.
         23    2    4    4    0    0 -0.47566643863E+03 -0.53559358370E+03  0.30185200165E+03  0.78252413721E+03  0.90057463237E+02 0.  0.
          4    1    3    3  502    0  0.43993113515E+02  0.92367880007E+03 -0.84180587154E+03  0.12505019173E+04  0.00000000000E+00 0. -1.
         -3    1    3    3    0  502  0.52428978553E+02  0.37364642152E+03 -0.29764128551E+03  0.48057338768E+03  0.00000000000E+00 0.  1.
         11    1    5    5    0    0  0.31232338341E+03 -0.68713867988E+03  0.40911002650E+03  0.85853158066E+03  0.00000000000E+00 0.  1.
        -11    1    5    5    0    0  0.66920963154E+02 -0.74592958024E+02  0.69853789781E+02  0.12215595214E+03  0.00000000000E+00 0. -1.
          4    1    6    6  503    0 -0.10585369335E+03 -0.18014503854E+03  0.82057899703E+02  0.22447881462E+03  0.00000000000E+00 0. -1.
         -4    1    6    6    0  503 -0.36981274527E+03 -0.35544854515E+03  0.21979410195E+03  0.55804532260E+03  0.00000000000E+00 0.  1.
<mgrwt>
<rscale>  0 0.34758344E+04</rscale>
<asrwt>0</asrwt>
<pdfrwt beam="1">  1        2 0.29637833E+00 0.34758344E+04</pdfrwt>
<pdfrwt beam="2">  1       -1 0.24120428E+00 0.34758344E+04</pdfrwt>
<totfact> 0.54739098E-01</totfact>
</mgrwt>
</event>
<event>
12    6  0.1540825E-007  0.1170858E+04  0.7818608E-02  0.9138754E-01
          2   -1    0    0  501    0  0.00000000000E+00  0.00000000000E+00  0.92400696435E+03  0.92400696435E+03  0.00000000000E+00 0. -1.
         -1   -1    0    0    0  501 -0.00000000000E+00 -0.00000000000E+00 -0.37091412271E+03  0.37091412271E+03  0.00000000000E+00 0.  1.
         24    2    1    2    0    0 -0.99846008937E+02 -0.88800630915E+01 -0.17579493686E+03  0.21829780017E+03  0.81865674801E+02 0.  0.
        254    2    1    2    0    0  0.99846008937E+02  0.88800630915E+01  0.72888777849E+03  0.10766232869E+04  0.78599760001E+03 0.  0.
         23    2    4    4    0    0 -0.30305762090E+03  0.13650244364E+03  0.22606557210E+03  0.41373027571E+03  0.97929870029E+02 0.  0.
         23    2    4    4    0    0  0.40290362984E+03 -0.12762238055E+03  0.50282220640E+03  0.66289301118E+03  0.89320580359E+02 0.  0.
          2    1    3    3  502    0  0.12493187324E+02  0.79205785430E+01 -0.30264615154E+02  0.33686231970E+02  0.00000000000E+00 0. -1.
         -1    1    3    3    0  502 -0.11233919626E+03 -0.16800641634E+02 -0.14553032171E+03  0.18461156820E+03  0.00000000000E+00 0.  1.
         11    1    5    5    0    0 -0.23682832632E+03  0.14747781535E+03  0.18974113779E+03  0.33740044686E+03  0.00000000000E+00 0. -1.
        -11    1    5    5    0    0 -0.66229294578E+02 -0.10975371713E+02  0.36324434308E+02  0.76329828850E+02  0.00000000000E+00 0.  1.
          3    1    6    6  503    0  0.29934481696E+03 -0.95506814962E+02  0.30834436207E+03  0.44023302553E+03  0.00000000000E+00 0. -1.
         -3    1    6    6    0  503  0.10355881288E+03 -0.32115565584E+02  0.19447784433E+03  0.22265998566E+03  0.00000000000E+00 0.  1.
<mgrwt>
<rscale>  0 0.11708582E+04</rscale>
<asrwt>0</asrwt>
<pdfrwt beam="1">  1        2 0.14215492E+00 0.11708582E+04</pdfrwt>
<pdfrwt beam="2">  1       -1 0.57063712E-01 0.11708582E+04</pdfrwt>
<totfact> 0.99075493E+01</totfact>
</mgrwt>
</event>
<event>
12    6  0.1540825E-007  0.1720085E+04  0.7818608E-02  0.8749991E-01
          2   -1    0    0  501    0  0.00000000000E+00  0.00000000000E+00  0.13767385393E+04  0.13767385393E+04  0.00000000000E+00 0. -1.
         -1   -1    0    0    0  501 -0.00000000000E+00 -0.00000000000E+00 -0.53726486398E+03  0.53726486398E+03  0.00000000000E+00 0.  1.
         24    2    1    2    0    0  0.11775015056E+03  0.23393716844E+03  0.93539895663E+03  0.97471056812E+03  0.80608850645E+02 0.  0.
        254    2    1    2    0    0 -0.11775015056E+03 -0.23393716844E+03 -0.95925281298E+02  0.93929283518E+03  0.89692679406E+03 0.  0.
         23    2    4    4    0    0 -0.17747415621E+03 -0.51356718638E+03 -0.24650196445E+03  0.60376271941E+03  0.92292317254E+02 0.  0.
         23    2    4    4    0    0  0.59724005652E+02  0.27963001794E+03  0.15057668315E+03  0.33553011577E+03  0.90261937116E+02 0.  0.
          2    1    3    3  502    0  0.42870905421E+02  0.13792027481E+03  0.62057194784E+03  0.63715732687E+03  0.00000000000E+00 0. -1.
         -1    1    3    3    0  502  0.74879245141E+02  0.96016893630E+02  0.31482700879E+03  0.33755324125E+03  0.00000000000E+00 0.  1.
         11    1    5    5    0    0 -0.69944669454E+02 -0.33462916695E+03 -0.16579821204E+03  0.37994471081E+03  0.00000000000E+00 0.  1.
        -11    1    5    5    0    0 -0.10752948676E+03 -0.17893801944E+03 -0.80703752402E+02  0.22381800860E+03  0.00000000000E+00 0. -1.
          1    1    6    6  503    0  0.71263554653E+02  0.26545415802E+03  0.15653703137E+03  0.31630404111E+03  0.00000000000E+00 0.  1.
         -1    1    6    6    0  503 -0.11539549001E+02  0.14175859924E+02 -0.59603482243E+01  0.19226074656E+02  0.00000000000E+00 0. -1.
<mgrwt>
<rscale>  0 0.17200852E+04</rscale>
<asrwt>0</asrwt>
<pdfrwt beam="1">  1        2 0.21180593E+00 0.17200852E+04</pdfrwt>
<pdfrwt beam="2">  1       -1 0.82656133E-01 0.17200852E+04</pdfrwt>
<totfact> 0.23503208E+01</totfact>
</mgrwt>
</event>
<event>
12    6  0.1540825E-007  0.1918661E+04  0.7818608E-02  0.8645623E-01
          2   -1    0    0  501    0  0.00000000000E+00  0.00000000000E+00  0.11610805924E+04  0.11610805924E+04  0.00000000000E+00 0. -1.
         -1   -1    0    0    0  501 -0.00000000000E+00 -0.00000000000E+00 -0.79263682502E+03  0.79263682502E+03  0.00000000000E+00 0.  1.
         24    2    1    2    0    0 -0.35022291070E+03 -0.50888104258E+03  0.58680167720E+03  0.85599502616E+03  0.82312051227E+02 0.  0.
        254    2    1    2    0    0  0.35022291070E+03  0.50888104258E+03 -0.21835790986E+03  0.10977223912E+04  0.88073734378E+03 0.  0.
         23    2    4    4    0    0 -0.84469609009E+02  0.60760132748E+03 -0.14406984574E+03  0.63686459704E+03  0.92335835459E+02 0.  0.
         23    2    4    4    0    0  0.43469251971E+03 -0.98720284900E+02 -0.74288064127E+02  0.46085779419E+03  0.90376482846E+02 0.  0.
          4    1    3    3  502    0 -0.19904271941E+03 -0.30544575018E+03  0.39944567059E+03  0.54080676235E+03  0.00000000000E+00 0. -1.
         -3    1    3    3    0  502 -0.15118019129E+03 -0.20343529240E+03  0.18735600662E+03  0.31518826382E+03  0.00000000000E+00 0.  1.
         11    1    5    5    0    0 -0.37945289238E+01  0.57856533504E+00 -0.90007821549E+01  0.97850532447E+01  0.00000000000E+00 0.  1.
        -11    1    5    5    0    0 -0.80675080085E+02  0.60702276214E+03 -0.13506906358E+03  0.62707954379E+03  0.00000000000E+00 0. -1.
          3    1    6    6  503    0  0.49054937354E+02 -0.40933631380E+02  0.60167350570E-01  0.63890161033E+02  0.00000000000E+00 0. -1.
         -3    1    6    6    0  503  0.38563758235E+03 -0.57786653520E+02 -0.74348231478E+02  0.39696763316E+03  0.00000000000E+00 0.  1.
<mgrwt>
<rscale>  0 0.19186612E+04</rscale>
<asrwt>0</asrwt>
<pdfrwt beam="1">  1        2 0.17862778E+00 0.19186612E+04</pdfrwt>
<pdfrwt beam="2">  1       -1 0.12194413E+00 0.19186612E+04</pdfrwt>
<totfact> 0.12686760E+01</totfact>
</mgrwt>
</event>
<event>
12    6  0.1540825E-007  0.2549540E+04  0.7818608E-02  0.8385546E-01
          2   -1    0    0  501    0  0.00000000000E+00  0.00000000000E+00  0.18178838449E+04  0.18178838449E+04  0.00000000000E+00 0. -1.
         -1   -1    0    0    0  501 -0.00000000000E+00 -0.00000000000E+00 -0.89391795667E+03  0.89391795667E+03  0.00000000000E+00 0.  1.
         24    2    1    2    0    0  0.52045928416E+03  0.92455986216E+02 -0.65803274139E+03  0.84778446113E+03  0.79406724711E+02 0.  0.
        254    2    1    2    0    0 -0.52045928416E+03 -0.92455986216E+02  0.15819986296E+04  0.18640173404E+04  0.83211477904E+03 0.  0.
         23    2    4    4    0    0 -0.13861410654E+03 -0.34897361064E+03  0.11955155233E+04  0.12563356904E+04  0.90141827560E+02 0.  0.
         23    2    4    4    0    0 -0.38184517762E+03  0.25651762443E+03  0.38648310632E+03  0.60768165004E+03  0.91108534218E+02 0.  0.
          2    1    3    3  502    0  0.10466992834E+02 -0.12077578993E+01 -0.38393524412E+02  0.39813054830E+02  0.00000000000E+00 0. -1.
         -1    1    3    3    0  502  0.50999229133E+03  0.93663744115E+02 -0.61963921698E+03  0.80797140630E+03  0.00000000000E+00 0.  1.
         11    1    5    5    0    0 -0.72352128900E+02 -0.26846936960E+03  0.94307861693E+03  0.98321305458E+03  0.00000000000E+00 0. -1.
        -11    1    5    5    0    0 -0.66261977639E+02 -0.80504241039E+02  0.25243690637E+03  0.27312263583E+03  0.00000000000E+00 0.  1.
          2    1    6    6  503    0 -0.18154138351E+03  0.86105192410E+02  0.21193596263E+03  0.29204148737E+03  0.00000000000E+00 0. -1.
         -2    1    6    6    0  503 -0.20030379411E+03  0.17041243202E+03  0.17454714369E+03  0.31564016267E+03  0.00000000000E+00 0.  1.
<mgrwt>
<rscale>  0 0.25495404E+04</rscale>
<asrwt>0</asrwt>
<pdfrwt beam="1">  1        2 0.27967444E+00 0.25495404E+04</pdfrwt>
<pdfrwt beam="2">  1       -1 0.13752584E+00 0.25495404E+04</pdfrwt>
<totfact> 0.37442465E+00</totfact>
</mgrwt>
</event>
<event>
12    6  0.1540825E-007  0.1417586E+04  0.7818608E-02  0.8941187E-01
          2   -1    0    0  501    0  0.00000000000E+00  0.00000000000E+00  0.55493578396E+03  0.55493578396E+03  0.00000000000E+00 0. -1.
         -1   -1    0    0    0  501 -0.00000000000E+00 -0.00000000000E+00 -0.90530717935E+03  0.90530717935E+03  0.00000000000E+00 0.  1.
         24    2    1    2    0    0 -0.21268930070E+03 -0.51947387729E+02 -0.47833143289E+03  0.53210595161E+03  0.80003214448E+02 0.  0.
        254    2    1    2    0    0  0.21268930070E+03  0.51947387729E+02  0.12796003750E+03  0.92813701169E+03  0.89282096277E+03 0.  0.
         23    2    4    4    0    0  0.81908051809E+02 -0.41090505070E+03  0.60128529549E+02  0.43434849025E+03  0.97423207081E+02 0.  0.
         23    2    4    4    0    0  0.13078124889E+03  0.46285243843E+03  0.67831507950E+02  0.49378852144E+03  0.88824971785E+02 0.  0.
          4    1    3    3  502    0 -0.81476875904E+02 -0.14618549803E+02 -0.99330266324E+02  0.12930075450E+03  0.00000000000E+00 0. -1.
         -3    1    3    3    0  502 -0.13121242480E+03 -0.37328837926E+02 -0.37900116657E+03  0.40280519711E+03  0.00000000000E+00 0.  1.
         11    1    5    5    0    0  0.53047413313E+02 -0.22275927670E+03 -0.15535490090E+02  0.22951486851E+03  0.00000000000E+00 0.  1.
        -11    1    5    5    0    0  0.28860638496E+02 -0.18814577400E+03  0.75664019639E+02  0.20483362174E+03  0.00000000000E+00 0. -1.
          4    1    6    6  503    0  0.58259523125E+02  0.18245642868E+03  0.70664658110E+02  0.20415193927E+03  0.00000000000E+00 0. -1.
         -4    1    6    6    0  503  0.72521725770E+02  0.28039600975E+03 -0.28331501593E+01  0.28963658217E+03  0.00000000000E+00 0.  1.
<mgrwt>
<rscale>  0 0.14175858E+04</rscale>
<asrwt>0</asrwt>
<pdfrwt beam="1">  1        2 0.85374737E-01 0.14175858E+04</pdfrwt>
<pdfrwt beam="2">  1       -1 0.13927803E+00 0.14175858E+04</pdfrwt>
<totfact> 0.25718684E+01</totfact>
</mgrwt>
</event>
<event>
12    6  0.1540825E-007  0.1888151E+04  0.7818608E-02  0.8660777E-01
          2   -1    0    0  501    0  0.00000000000E+00  0.00000000000E+00  0.23797916821E+04  0.23797916821E+04  0.00000000000E+00 0. -1.
         -1   -1    0    0    0  501 -0.00000000000E+00 -0.00000000000E+00 -0.37451961902E+03  0.37451961902E+03  0.00000000000E+00 0.  1.
         24    2    1    2    0    0 -0.99351286285E+02 -0.14127860007E+03 -0.25471152205E+03  0.31644320164E+03  0.73675093996E+02 0.  0.
        254    2    1    2    0    0  0.99351286285E+02  0.14127860007E+03  0.22599835852E+04  0.24378680995E+04  0.89768855651E+03 0.  0.
         23    2    4    4    0    0 -0.28290726513E+03 -0.69533964191E+02  0.30042824529E+03  0.42817239143E+03  0.90570267640E+02 0.  0.
         23    2    4    4    0    0  0.38225855141E+03  0.21081256426E+03  0.19595553399E+04  0.20096957081E+04  0.91957444862E+02 0.  0.
          2    1    3    3  502    0  0.24724859792E+01  0.61263088675E+01 -0.24693659340E+01  0.70528444881E+01  0.00000000000E+00 0. -1.
         -1    1    3    3    0  502 -0.10182377226E+03 -0.14740490893E+03 -0.25224215611E+03  0.30939035715E+03  0.00000000000E+00 0.  1.
         11    1    5    5    0    0 -0.13653013278E+03  0.48759772458E+01  0.17232378740E+03  0.21990848100E+03  0.00000000000E+00 0.  1.
        -11    1    5    5    0    0 -0.14637713235E+03 -0.74409941436E+02  0.12810445789E+03  0.20826391044E+03  0.00000000000E+00 0. -1.
          1    1    6    6  503    0  0.19368692789E+03  0.15830741578E+03  0.10679114059E+04  0.10968184147E+04  0.00000000000E+00 0. -1.
         -1    1    6    6    0  503  0.18857162352E+03  0.52505148480E+02  0.89164393392E+03  0.91287729335E+03  0.00000000000E+00 0.  1.
<mgrwt>
<rscale>  0 0.18881511E+04</rscale>
<asrwt>0</asrwt>
<pdfrwt beam="1">  1        2 0.36612179E+00 0.18881511E+04</pdfrwt>
<pdfrwt beam="2">  1       -1 0.57618404E-01 0.18881511E+04</pdfrwt>
<totfact> 0.13302042E+01</totfact>
</mgrwt>
</event>
<event>
12    6  0.1540825E-007  0.1407425E+04  0.7818608E-02  0.8948461E-01
         -1   -1    0    0    0  501 -0.00000000000E+00  0.00000000000E+00  0.22161701326E+03  0.22161701326E+03  0.00000000000E+00 0.  1.
          2   -1    0    0  501    0  0.00000000000E+00 -0.00000000000E+00 -0.22345378193E+04  0.22345378193E+04  0.00000000000E+00 0. -1.
         24    2    1    2    0    0 -0.67606404228E+02 -0.38117674645E+03 -0.44166349730E+03  0.59278205939E+03  0.80359113749E+02 0.  0.
        254    2    1    2    0    0  0.67606404228E+02  0.38117674645E+03 -0.15712573087E+04  0.18633727731E+04  0.92381936739E+03 0.  0.
         23    2    4    4    0    0  0.43360061084E+03  0.35901583413E+03 -0.63319630386E+03  0.85206056829E+03  0.90375848237E+02 0.  0.
         23    2    4    4    0    0 -0.36599420661E+03  0.22160912324E+02 -0.93806100487E+03  0.10113122049E+04  0.91384142683E+02 0.  0.
          4    1    3    3  502    0 -0.10067810674E+02 -0.65985554826E+02 -0.12825269482E+03  0.14458287584E+03  0.00000000000E+00 0. -1.
         -3    1    3    3    0  502 -0.57538593554E+02 -0.31519119162E+03 -0.31341080248E+03  0.44819918355E+03  0.00000000000E+00 0.  1.
         11    1    5    5    0    0  0.36426454685E+03  0.33912059544E+03 -0.54314013278E+03  0.73667675556E+03  0.00000000000E+00 0.  1.
        -11    1    5    5    0    0  0.69336063987E+02  0.19895238689E+02 -0.90056171076E+02  0.11538381273E+03  0.00000000000E+00 0. -1.
          3    1    6    6  503    0 -0.52622916294E+02 -0.28944978411E+02 -0.13471516996E+03  0.14749630542E+03  0.00000000000E+00 0. -1.
         -3    1    6    6    0  503 -0.31337129031E+03  0.51105890735E+02 -0.80334583490E+03  0.86381589944E+03  0.00000000000E+00 0.  1.
<mgrwt>
<rscale>  0 0.14074254E+04</rscale>
<asrwt>0</asrwt>
<pdfrwt beam="1">  1        2 0.34377505E+00 0.14074254E+04</pdfrwt>
<pdfrwt beam="2">  1       -1 0.34094925E-01 0.14074254E+04</pdfrwt>
<totfact> 0.44567829E+01</totfact>
</mgrwt>
</event>
<event>
12    6  0.1540825E-007  0.2335688E+04  0.7818608E-02  0.8463981E-01
          2   -1    0    0  501    0  0.00000000000E+00  0.00000000000E+00  0.15740730443E+04  0.15740730443E+04  0.00000000000E+00 0. -1.
         -1   -1    0    0    0  501 -0.00000000000E+00 -0.00000000000E+00 -0.86645252035E+03  0.86645252035E+03  0.00000000000E+00 0.  1.
         24    2    1    2    0    0 -0.82728500493E+03 -0.28852236746E+03 -0.16694228638E+03  0.89587710026E+03  0.84145207126E+02 0.  0.
        254    2    1    2    0    0  0.82728500493E+03  0.28852236746E+03  0.87456281036E+03  0.15446484644E+04  0.92381444753E+03 0.  0.
         23    2    4    4    0    0  0.31723248314E+03 -0.16166388207E+03  0.76640547793E+03  0.84998297886E+03  0.91225263039E+02 0.  0.
         23    2    4    4    0    0  0.51005252180E+03  0.45018624953E+03  0.10815733243E+03  0.69466548557E+03  0.89671032231E+02 0.  0.
          4    1    3    3  502    0 -0.21214156278E+03 -0.94547853925E+02 -0.76693104344E+02  0.24459184695E+03  0.00000000000E+00 0. -1.
         -3    1    3    3    0  502 -0.61514344215E+03 -0.19397451353E+03 -0.90249182038E+02  0.65128525331E+03  0.00000000000E+00 0.  1.
         11    1    5    5    0    0  0.31347075251E+03 -0.17021169500E+03  0.75645007966E+03  0.83633286245E+03  0.00000000000E+00 0.  1.
        -11    1    5    5    0    0  0.37617306270E+01  0.85478129276E+01  0.99553982676E+01  0.13650116403E+02  0.00000000000E+00 0. -1.
          2    1    6    6  503    0  0.45787243119E+03  0.36185911278E+03  0.92935831253E+02  0.59095367795E+03  0.00000000000E+00 0.  1.
         -2    1    6    6    0  503  0.52180090608E+02  0.88327136748E+02  0.15221501180E+02  0.10371180762E+03  0.00000000000E+00 0. -1.
<mgrwt>
<rscale>  0 0.23356880E+04</rscale>
<asrwt>0</asrwt>
<pdfrwt beam="1">  1        2 0.24216508E+00 0.23356880E+04</pdfrwt>
<pdfrwt beam="2">  1       -1 0.13330039E+00 0.23356880E+04</pdfrwt>
<totfact> 0.56494525E+00</totfact>
</mgrwt>
</event>
<event>
12    6  0.1540825E-007  0.3685790E+04  0.7818608E-02  0.8071118E-01
         -1   -1    0    0    0  501 -0.00000000000E+00  0.00000000000E+00  0.20813961221E+04  0.20813961221E+04  0.00000000000E+00 0.  1.
          2   -1    0    0  501    0  0.00000000000E+00 -0.00000000000E+00 -0.16317230533E+04  0.16317230533E+04  0.00000000000E+00 0. -1.
         24    2    1    2    0    0 -0.13663313746E+04  0.10351670879E+04 -0.38974919651E+02  0.17164039942E+04  0.78046791681E+02 0.  0.
        254    2    1    2    0    0  0.13663313746E+04 -0.10351670879E+04  0.48864798848E+03  0.19967151812E+04  0.89981238756E+03 0.  0.
         23    2    4    4    0    0  0.13978202840E+04 -0.11176471254E+04  0.52831841854E+03  0.18682769922E+04  0.91114901107E+02 0.  0.
         23    2    4    4    0    0 -0.31488909350E+02  0.82480037449E+02 -0.39670430063E+02  0.12843818892E+03  0.84428178716E+02 0.  0.
          2    1    3    3  502    0 -0.13046321744E+03  0.11541632107E+03 -0.23534457991E+02  0.17577101293E+03  0.00000000000E+00 0. -1.
         -1    1    3    3    0  502 -0.12358681572E+04  0.91975076683E+03 -0.15440461660E+02  0.15406329813E+04  0.00000000000E+00 0.  1.
         11    1    5    5    0    0  0.88781954941E+03 -0.72965345522E+03  0.29641271232E+03  0.11867932478E+04  0.00000000000E+00 0. -1.
        -11    1    5    5    0    0  0.51000073459E+03 -0.38799367014E+03  0.23190570622E+03  0.68148374443E+03  0.00000000000E+00 0.  1.
          4    1    6    6  503    0 -0.52609808390E+02  0.82414134211E+02 -0.20470320202E+02  0.99894521701E+02  0.00000000000E+00 0. -1.
         -4    1    6    6    0  503  0.21120899040E+02  0.65903238284E-01 -0.19200109861E+02  0.28543667217E+02  0.00000000000E+00 0.  1.
<mgrwt>
<rscale>  0 0.36857900E+04</rscale>
<asrwt>0</asrwt>
<pdfrwt beam="1">  1        2 0.25103432E+00 0.36857900E+04</pdfrwt>
<pdfrwt beam="2">  1       -1 0.32021479E+00 0.36857900E+04</pdfrwt>
<totfact> 0.24057575E-01</totfact>
</mgrwt>
</event>
<event>
12    6  0.1540825E-007  0.1259687E+04  0.7818608E-02  0.9062159E-01
          2   -1    0    0  501    0  0.00000000000E+00  0.00000000000E+00  0.42032867803E+03  0.42032867803E+03  0.00000000000E+00 0. -1.
         -3   -1    0    0    0  501 -0.00000000000E+00 -0.00000000000E+00 -0.94379242541E+03  0.94379242541E+03  0.00000000000E+00 0.  1.
         24    2    1    2    0    0  0.34248085090E+02  0.71993884751E+02 -0.43056744981E+03  0.44522136391E+03  0.80484056009E+02 0.  0.
        254    2    1    2    0    0 -0.34248085090E+02 -0.71993884751E+02 -0.92896297573E+02  0.91889973953E+03  0.91070904159E+03 0.  0.
         23    2    4    4    0    0  0.11063878698E+03 -0.34041758847E+02 -0.47557009477E+03  0.49797645559E+03  0.91727055686E+02 0.  0.
         23    2    4    4    0    0 -0.14488687207E+03 -0.37952125904E+02  0.38267379720E+03  0.42092328394E+03  0.91129612871E+02 0.  0.
          2    1    3    3  502    0  0.11010936354E+02 -0.14779709847E+02 -0.34714376141E+02  0.39303542505E+02  0.00000000000E+00 0. -1.
         -1    1    3    3    0  502  0.23237148737E+02  0.86773594598E+02 -0.39585307367E+03  0.40591782140E+03  0.00000000000E+00 0.  1.
         11    1    5    5    0    0  0.10996287634E+03 -0.40745353415E+02 -0.47690200819E+03  0.49110848437E+03  0.00000000000E+00 0. -1.
        -11    1    5    5    0    0  0.67591063704E+00  0.67035945679E+01  0.13319134184E+01  0.68679712197E+01  0.00000000000E+00 0.  1.
          3    1    6    6  503    0 -0.96776049007E+02 -0.22323417166E+02  0.13196829230E+03  0.16516527719E+03  0.00000000000E+00 0.  1.
         -3    1    6    6    0  503 -0.48110823060E+02 -0.15628708738E+02  0.25070550490E+03  0.25575800675E+03  0.00000000000E+00 0. -1.
<mgrwt>
<rscale>  0 0.12596873E+04</rscale>
<asrwt>0</asrwt>
<pdfrwt beam="1">  1        2 0.64665952E-01 0.12596873E+04</pdfrwt>
<pdfrwt beam="2">  1       -3 0.14519883E+00 0.12596873E+04</pdfrwt>
<totfact> 0.16239870E+01</totfact>
</mgrwt>
</event>
<event>
12    6  0.1540825E-007  0.1105884E+04  0.7818608E-02  0.9199475E-01
         -1   -1    0    0    0  501 -0.00000000000E+00  0.00000000000E+00  0.42223321852E+03  0.42223321852E+03  0.00000000000E+00 0.  1.
          2   -1    0    0  501    0  0.00000000000E+00 -0.00000000000E+00 -0.72411433330E+03  0.72411433330E+03  0.00000000000E+00 0. -1.
         24    2    1    2    0    0 -0.64310780056E+02  0.12659102240E+03 -0.15282550107E+03  0.22315920809E+03  0.79266859381E+02 0.  0.
        254    2    1    2    0    0  0.64310780056E+02 -0.12659102240E+03 -0.14905561371E+03  0.92318834372E+03  0.89994331967E+03 0.  0.
         23    2    4    4    0    0 -0.35828996204E+03 -0.23839963169E+03 -0.18062603221E+03  0.47584950284E+03  0.92741061872E+02 0.  0.
         23    2    4    4    0    0  0.42260074210E+03  0.11180860929E+03  0.31570418498E+02  0.44733884088E+03  0.89570055824E+02 0.  0.
          4    1    3    3  502    0 -0.70979092155E+02  0.11360872195E+03 -0.15847663100E+03  0.20750859210E+03  0.00000000000E+00 0. -1.
         -1    1    3    3    0  502  0.66683120993E+01  0.12982300454E+02  0.56511299281E+01  0.15650615988E+02  0.00000000000E+00 0.  1.
         11    1    5    5    0    0 -0.29663708911E+03 -0.22364557429E+03 -0.17915000918E+03  0.41243863947E+03  0.00000000000E+00 0.  1.
        -11    1    5    5    0    0 -0.61652872929E+02 -0.14754057401E+02 -0.14760230242E+01  0.63410863376E+02  0.00000000000E+00 0. -1.
          3    1    6    6  503    0  0.24357725510E+03  0.32913089125E+02 -0.14955347229E+02  0.24624543254E+03  0.00000000000E+00 0. -1.
         -3    1    6    6    0  503  0.17902348700E+03  0.78895520163E+02  0.46525765728E+02  0.20109340833E+03  0.00000000000E+00 0.  1.
<mgrwt>
<rscale>  0 0.11058845E+04</rscale>
<asrwt>0</asrwt>
<pdfrwt beam="1">  1        2 0.11140221E+00 0.11058845E+04</pdfrwt>
<pdfrwt beam="2">  1       -1 0.64958957E-01 0.11058845E+04</pdfrwt>
<totfact> 0.10688947E+02</totfact>
</mgrwt>
</event>
<event>
12    6  0.1540825E-007  0.1394710E+04  0.7818608E-02  0.8957657E-01
         -1   -1    0    0    0  501 -0.00000000000E+00  0.00000000000E+00  0.32425184562E+03  0.32425184562E+03  0.00000000000E+00 0.  1.
          2   -1    0    0  501    0  0.00000000000E+00 -0.00000000000E+00 -0.14997715056E+04  0.14997715056E+04  0.00000000000E+00 0. -1.
         24    2    1    2    0    0  0.20361725401E+03  0.34212501741E+03 -0.21238285044E+03  0.45833179278E+03  0.80324612935E+02 0.  0.
        254    2    1    2    0    0 -0.20361725401E+03 -0.34212501741E+03 -0.96313680959E+03  0.13656915585E+04  0.88259356742E+03 0.  0.
         23    2    4    4    0    0  0.10713321907E+02  0.28467171830E+03 -0.28456258638E+03  0.41310899368E+03  0.92360232923E+02 0.  0.
         23    2    4    4    0    0 -0.21433057592E+03 -0.62679673571E+03 -0.67857422321E+03  0.95258256480E+03  0.90215423823E+02 0.  0.
          4    1    3    3  502    0  0.20212379814E+03  0.34553508224E+03 -0.20429298436E+03  0.44942646372E+03  0.00000000000E+00 0. -1.
         -3    1    3    3    0  502  0.14934558712E+01 -0.34100648278E+01 -0.80898660718E+01  0.89053290579E+01  0.00000000000E+00 0.  1.
         11    1    5    5    0    0  0.46841977081E+02  0.22409698218E+03 -0.21719976681E+03  0.31557783024E+03  0.00000000000E+00 0. -1.
        -11    1    5    5    0    0 -0.36128655174E+02  0.60574736116E+02 -0.67362819572E+02  0.97531163434E+02  0.00000000000E+00 0.  1.
          4    1    6    6  503    0 -0.21963075756E+03 -0.59819041739E+03 -0.63080844605E+03  0.89665419239E+03  0.00000000000E+00 0. -1.
         -4    1    6    6    0  503  0.53001816404E+01 -0.28606318321E+02 -0.47765777163E+02  0.55928372417E+02  0.00000000000E+00 0.  1.
<mgrwt>
<rscale>  0 0.13947095E+04</rscale>
<asrwt>0</asrwt>
<pdfrwt beam="1">  1        2 0.23073407E+00 0.13947095E+04</pdfrwt>
<pdfrwt beam="2">  1       -1 0.49884901E-01 0.13947095E+04</pdfrwt>
<totfact> 0.56788346E+01</totfact>
</mgrwt>
</event>
<event>
12    6  0.1540825E-007  0.2697611E+04  0.7818608E-02  0.8335780E-01
         -1   -1    0    0    0  501 -0.00000000000E+00  0.00000000000E+00  0.10104825266E+04  0.10104825266E+04  0.00000000000E+00 0.  1.
          2   -1    0    0  501    0  0.00000000000E+00 -0.00000000000E+00 -0.18004039098E+04  0.18004039098E+04  0.00000000000E+00 0. -1.
         24    2    1    2    0    0 -0.52138905995E+03  0.12172151491E+02  0.77630833956E+03  0.93863239453E+03  0.79883796136E+02 0.  0.
        254    2    1    2    0    0  0.52138905995E+03 -0.12172151491E+02 -0.15662297227E+04  0.18722540419E+04  0.88332606665E+03 0.  0.
         23    2    4    4    0    0  0.63900502861E+03 -0.28332877872E+03 -0.94737611511E+03  0.11800252283E+04  0.79595304631E+02 0.  0.
         23    2    4    4    0    0 -0.11761596866E+03  0.27115662723E+03 -0.61885360759E+03  0.69222881359E+03  0.94029304784E+02 0.  0.
          2    1    3    3  502    0 -0.81148013719E+02 -0.26285518325E+02  0.13940932021E+03  0.16343465718E+03  0.00000000000E+00 0. -1.
         -1    1    3    3    0  502 -0.44024104623E+03  0.38457669816E+02  0.63689901934E+03  0.77519773735E+03  0.00000000000E+00 0.  1.
         11    1    5    5    0    0  0.46207461561E+03 -0.24054785131E+03 -0.72216834372E+03  0.89045119790E+03  0.00000000000E+00 0.  1.
        -11    1    5    5    0    0  0.17693041300E+03 -0.42780927414E+02 -0.22520777138E+03  0.28957403041E+03  0.00000000000E+00 0. -1.
          1    1    6    6  503    0 -0.11415688865E+03  0.15113904600E+03 -0.40091962153E+03  0.44340878360E+03  0.00000000000E+00 0. -1.
         -1    1    6    6    0  503 -0.34590800105E+01  0.12001758124E+03 -0.21793398606E+03  0.24882002999E+03  0.00000000000E+00 0.  1.
<mgrwt>
<rscale>  0 0.26976113E+04</rscale>
<asrwt>0</asrwt>
<pdfrwt beam="1">  1        2 0.27698521E+00 0.26976113E+04</pdfrwt>
<pdfrwt beam="2">  1       -1 0.15545885E+00 0.26976113E+04</pdfrwt>
<totfact> 0.27264274E+00</totfact>
</mgrwt>
</event>
<event>
12    6  0.1540825E-007  0.1039813E+04  0.7818608E-02  0.9265925E-01
          2   -1    0    0  501    0  0.00000000000E+00  0.00000000000E+00  0.26580335873E+03  0.26580335873E+03  0.00000000000E+00 0. -1.
         -1   -1    0    0    0  501 -0.00000000000E+00 -0.00000000000E+00 -0.10169283168E+04  0.10169283168E+04  0.00000000000E+00 0.  1.
         24    2    1    2    0    0  0.66806200102E+02 -0.34442779526E+02 -0.18662688520E+03  0.21692638195E+03  0.81105409634E+02 0.  0.
        254    2    1    2    0    0 -0.66806200102E+02  0.34442779526E+02 -0.56449807283E+03  0.10658052936E+04  0.90090702966E+03 0.  0.
         23    2    4    4    0    0 -0.25211949819E+03  0.37823574017E+03 -0.45492381264E+03  0.64973786164E+03  0.92612618140E+02 0.  0.
         23    2    4    4    0    0  0.18531329808E+03 -0.34379296065E+03 -0.10957426020E+03  0.41606743191E+03  0.92579539643E+02 0.  0.
          2    1    3    3  502    0  0.80922875583E+02 -0.40422760618E+02 -0.13079470304E+03  0.15902756274E+03  0.00000000000E+00 0. -1.
         -1    1    3    3    0  502 -0.14116675481E+02  0.59799810919E+01 -0.55832182163E+02  0.57898819208E+02  0.00000000000E+00 0.  1.
         11    1    5    5    0    0 -0.11147037813E+03  0.93485013216E+02 -0.16121056418E+03  0.21714957725E+03  0.00000000000E+00 0.  1.
        -11    1    5    5    0    0 -0.14064912005E+03  0.28475072696E+03 -0.29371324846E+03  0.43258828439E+03  0.00000000000E+00 0. -1.
          4    1    6    6  503    0  0.12346544103E+03 -0.14612428630E+03 -0.27444221455E+02  0.19325943047E+03  0.00000000000E+00 0. -1.
         -4    1    6    6    0  503  0.61847857053E+02 -0.19766867435E+03 -0.82130038742E+02  0.22280800143E+03  0.00000000000E+00 0.  1.
<mgrwt>
<rscale>  0 0.10398134E+04</rscale>
<asrwt>0</asrwt>
<pdfrwt beam="1">  1        2 0.40892824E-01 0.10398134E+04</pdfrwt>
<pdfrwt beam="2">  1       -1 0.15645051E+00 0.10398134E+04</pdfrwt>
<totfact> 0.44663724E+01</totfact>
</mgrwt>
</event>
<event>
12    6  0.1540825E-007  0.1268654E+04  0.7818608E-02  0.9054799E-01
          2   -1    0    0  501    0  0.00000000000E+00  0.00000000000E+00  0.72941020880E+03  0.72941020880E+03  0.00000000000E+00 0. -1.
         -1   -1    0    0    0  501 -0.00000000000E+00 -0.00000000000E+00 -0.55163828454E+03  0.55163828454E+03  0.00000000000E+00 0.  1.
         24    2    1    2    0    0  0.47037016998E+02  0.27068257455E+03 -0.79335009081E+02  0.29607746291E+03  0.76722117026E+02 0.  0.
        254    2    1    2    0    0 -0.47037016998E+02 -0.27068257455E+03  0.25710693335E+03  0.98497103043E+03  0.91026502651E+03 0.  0.
         23    2    4    4    0    0 -0.42811504540E+03 -0.98278743877E+02  0.32180158139E+03  0.55197644064E+03  0.90446280372E+02 0.  0.
         23    2    4    4    0    0  0.38107802841E+03 -0.17240383068E+03 -0.64694648045E+02  0.43299458979E+03  0.91407728003E+02 0.  0.
          4    1    3    3  502    0 -0.12274348457E+02  0.69274682703E+02  0.33256633634E+01  0.70432246382E+02  0.00000000000E+00 0. -1.
         -3    1    3    3    0  502  0.59311365455E+02  0.20140789185E+03 -0.82660672444E+02  0.22564521653E+03  0.00000000000E+00 0.  1.
         11    1    5    5    0    0 -0.31703151135E+02 -0.18374745960E+02  0.59801296929E+02  0.70134985530E+02  0.00000000000E+00 0.  1.
        -11    1    5    5    0    0 -0.39641189427E+03 -0.79903997917E+02  0.26200028446E+03  0.48184145511E+03  0.00000000000E+00 0. -1.
          4    1    6    6  503    0  0.15341513971E+03 -0.21379239548E+02 -0.26090509810E+02  0.15707957116E+03  0.00000000000E+00 0. -1.
         -4    1    6    6    0  503  0.22766288870E+03 -0.15102459113E+03 -0.38604138235E+02  0.27591501863E+03  0.00000000000E+00 0.  1.
<mgrwt>
<rscale>  0 0.12686538E+04</rscale>
<asrwt>0</asrwt>
<pdfrwt beam="1">  1        2 0.11221696E+00 0.12686538E+04</pdfrwt>
<pdfrwt beam="2">  1       -1 0.84867428E-01 0.12686538E+04</pdfrwt>
<totfact> 0.59936607E+01</totfact>
</mgrwt>
</event>
<event>
12    6  0.1540825E-007  0.1507472E+04  0.7818608E-02  0.8879499E-01
         -1   -1    0    0    0  501 -0.00000000000E+00  0.00000000000E+00  0.63454172802E+03  0.63454172802E+03  0.00000000000E+00 0.  1.
          2   -1    0    0  501    0  0.00000000000E+00 -0.00000000000E+00 -0.89532064607E+03  0.89532064607E+03  0.00000000000E+00 0. -1.
         24    2    1    2    0    0  0.14007310157E+03 -0.36402732222E+03 -0.36942231452E+03  0.54321676307E+03  0.80468876642E+02 0.  0.
        254    2    1    2    0    0 -0.14007310157E+03  0.36402732222E+03  0.10864339647E+03  0.98664561103E+03  0.89973874489E+03 0.  0.
         23    2    4    4    0    0 -0.49551671468E+03  0.34801795847E+03  0.90667428813E+02  0.61910303088E+03  0.91731489921E+02 0.  0.
         23    2    4    4    0    0  0.35544361311E+03  0.16009363746E+02  0.17975967657E+02  0.36754258015E+03  0.90376717030E+02 0.  0.
          2    1    3    3  502    0  0.13113875172E+03 -0.29027005730E+03 -0.33178954962E+03  0.45993302078E+03  0.00000000000E+00 0. -1.
         -1    1    3    3    0  502  0.89343498512E+01 -0.73757264918E+02 -0.37632764902E+02  0.83283742289E+02  0.00000000000E+00 0.  1.
         11    1    5    5    0    0 -0.43005897259E+03  0.26018642813E+03  0.67681772577E+02  0.50717701015E+03  0.00000000000E+00 0. -1.
        -11    1    5    5    0    0 -0.65457742096E+02  0.87831530349E+02  0.22985656236E+02  0.11192602073E+03  0.00000000000E+00 0.  1.
          1    1    6    6  503    0  0.34604756783E+03  0.23537451415E+02  0.32858140050E+02  0.34840004045E+03  0.00000000000E+00 0. -1.
         -1    1    6    6    0  503  0.93960452799E+01 -0.75280876688E+01 -0.14882172393E+02  0.19142539696E+02  0.00000000000E+00 0.  1.
<mgrwt>
<rscale>  0 0.15074725E+04</rscale>
<asrwt>0</asrwt>
<pdfrwt beam="1">  1        2 0.13774164E+00 0.15074725E+04</pdfrwt>
<pdfrwt beam="2">  1       -1 0.97621805E-01 0.15074725E+04</pdfrwt>
<totfact> 0.32787019E+01</totfact>
</mgrwt>
</event>
<event>
12    6  0.1540825E-007  0.1342068E+04  0.7818608E-02  0.8996854E-01
         -1   -1    0    0    0  501 -0.00000000000E+00  0.00000000000E+00  0.59105908018E+03  0.59105908018E+03  0.00000000000E+00 0.  1.
          2   -1    0    0  501    0  0.00000000000E+00 -0.00000000000E+00 -0.76182997463E+03  0.76182997463E+03  0.00000000000E+00 0. -1.
         24    2    1    2    0    0 -0.13263860073E+03  0.23436383926E+02 -0.37436539024E+03  0.40602588763E+03  0.81026622311E+02 0.  0.
        254    2    1    2    0    0  0.13263860073E+03 -0.23436383926E+02  0.20359449580E+03  0.94686316718E+03  0.91485347250E+03 0.  0.
         23    2    4    4    0    0 -0.52698193350E+02 -0.41779705916E+03 -0.51754853189E+02  0.43379265328E+03  0.90366027831E+02 0.  0.
         23    2    4    4    0    0  0.18533679408E+03  0.39436067523E+03  0.25534934899E+03  0.51307051390E+03  0.90376948382E+02 0.  0.
          4    1    3    3  502    0 -0.12908479935E+03  0.21310533956E+01 -0.26781767630E+03  0.29731083827E+03  0.00000000000E+00 0. -1.
         -3    1    3    3    0  502 -0.35538013838E+01  0.21305330531E+02 -0.10654771394E+03  0.10871504937E+03  0.00000000000E+00 0.  1.
         11    1    5    5    0    0  0.24149354275E+02 -0.15536344913E+03 -0.17377293702E+02  0.15818648164E+03  0.00000000000E+00 0. -1.
        -11    1    5    5    0    0 -0.76847547625E+02 -0.26243361003E+03 -0.34377559487E+02  0.27560617164E+03  0.00000000000E+00 0.  1.
          3    1    6    6  503    0  0.75152361462E+01  0.10531388236E+03  0.56795015669E+02  0.11988814119E+03  0.00000000000E+00 0. -1.
         -3    1    6    6    0  503  0.17782155793E+03  0.28904679287E+03  0.19855433332E+03  0.39318237271E+03  0.00000000000E+00 0.  1.
<mgrwt>
<rscale>  0 0.13420678E+04</rscale>
<asrwt>0</asrwt>
<pdfrwt beam="1">  1        2 0.11720461E+00 0.13420678E+04</pdfrwt>
<pdfrwt beam="2">  1       -1 0.90932166E-01 0.13420678E+04</pdfrwt>
<totfact> 0.48436559E+01</totfact>
</mgrwt>
</event>
<event>
12    6  0.1540825E-007  0.2125095E+04  0.7818608E-02  0.8550269E-01
          2   -1    0    0  501    0  0.00000000000E+00  0.00000000000E+00  0.27397901170E+04  0.27397901170E+04  0.00000000000E+00 0. -1.
         -1   -1    0    0    0  501 -0.00000000000E+00 -0.00000000000E+00 -0.41207780878E+03  0.41207780878E+03  0.00000000000E+00 0.  1.
         24    2    1    2    0    0 -0.19119095174E+03  0.16937186326E+03 -0.25824578208E+03  0.37257191714E+03  0.82934560877E+02 0.  0.
        254    2    1    2    0    0  0.19119095174E+03 -0.16937186326E+03  0.25859580903E+04  0.27792960086E+04  0.98593420205E+03 0.  0.
         23    2    4    4    0    0  0.28683725249E+03 -0.11350366565E+03  0.17922998400E+03  0.36827895995E+03  0.91363634156E+02 0.  0.
         23    2    4    4    0    0 -0.95646300746E+02 -0.55868197613E+02  0.24067281063E+04  0.24110170487E+04  0.91616380012E+02 0.  0.
          4    1    3    3  502    0 -0.41394742278E+02  0.68816932144E+02 -0.40966471558E+02  0.90152906941E+02  0.00000000000E+00 0. -1.
         -3    1    3    3    0  502 -0.14979620946E+03  0.10055493112E+03 -0.21727931052E+03  0.28241901020E+03  0.00000000000E+00 0.  1.
         11    1    5    5    0    0  0.27832738922E+03 -0.87591361414E+02  0.14922015024E+03  0.32772707460E+03  0.00000000000E+00 0.  1.
        -11    1    5    5    0    0  0.85098632644E+01 -0.25912304231E+02  0.30009833754E+02  0.40551885348E+02  0.00000000000E+00 0. -1.
          4    1    6    6  503    0 -0.10350465521E+03 -0.19706263380E+02  0.19165500035E+04  0.19194440514E+04  0.00000000000E+00 0.  1.
         -4    1    6    6    0  503  0.78583544621E+01 -0.36161934233E+02  0.49017810277E+03  0.49157299728E+03  0.00000000000E+00 0. -1.
<mgrwt>
<rscale>  0 0.21250945E+04</rscale>
<asrwt>0</asrwt>
<pdfrwt beam="1">  1        2 0.42150616E+00 0.21250945E+04</pdfrwt>
<pdfrwt beam="2">  1       -1 0.63396588E-01 0.21250945E+04</pdfrwt>
<totfact> 0.66448068E+00</totfact>
</mgrwt>
</event>
<event>
12    6  0.1974883E-007  0.2698795E+04  0.7818608E-02  0.8335396E-01
         -1   -1    0    0    0  501 -0.00000000000E+00  0.00000000000E+00  0.11094431292E+04  0.11094431292E+04  0.00000000000E+00 0.  1.
          2   -1    0    0  501    0  0.00000000000E+00 -0.00000000000E+00 -0.16412499594E+04  0.16412499594E+04  0.00000000000E+00 0. -1.
         24    2    1    2    0    0  0.10633714236E+02 -0.48206307908E+03  0.87761054809E+03  0.10045390003E+04  0.80002755664E+02 0.  0.
        254    2    1    2    0    0 -0.10633714236E+02  0.48206307908E+03 -0.14094173782E+04  0.17461540883E+04  0.91109761597E+03 0.  0.
         23    2    4    4    0    0 -0.15098978359E+03  0.22650419325E+03 -0.14121898221E+04  0.14410491889E+04  0.90777788649E+02 0.  0.
         23    2    4    4    0    0  0.14035606935E+03  0.25555888583E+03  0.27724438725E+01  0.30510489935E+03  0.89839539358E+02 0.  0.
          4    1    3    3  502    0  0.23632630091E+02 -0.41325500981E+02  0.95154501654E+02  0.10639867208E+03  0.00000000000E+00 0. -1.
         -3    1    3    3    0  502 -0.12998915855E+02 -0.44073757810E+03  0.78245604644E+03  0.89814032822E+03  0.00000000000E+00 0.  1.
         11    1    5    5    0    0 -0.65527554163E+02  0.54979967495E+02 -0.28062568580E+03  0.29337251526E+03  0.00000000000E+00 0.  1.
        -11    1    5    5    0    0 -0.85462229425E+02  0.17152422576E+03 -0.11315641363E+04  0.11476766737E+04  0.00000000000E+00 0. -1.
          2    1    6    6  503    0  0.11078465633E+03  0.24079039165E+03  0.23494148837E+02  0.26609251741E+03  0.00000000000E+00 0. -1.
         -2    1    6    6    0  503  0.29571413021E+02  0.14768494180E+02 -0.20721704965E+02  0.39012381945E+02  0.00000000000E+00 0.  1.
<mgrwt>
<rscale>  0 0.26987949E+04</rscale>
<asrwt>0</asrwt>
<pdfrwt beam="1">  1        2 0.25250000E+00 0.26987949E+04</pdfrwt>
<pdfrwt beam="2">  1       -1 0.17068356E+00 0.26987949E+04</pdfrwt>
<totfact> 0.25695135E+00</totfact>
</mgrwt>
</event>
<event>
12    6  0.1540825E-007  0.1829175E+04  0.7818608E-02  0.8690936E-01
         -1   -1    0    0    0  501 -0.00000000000E+00  0.00000000000E+00  0.63864395279E+03  0.63864395279E+03  0.00000000000E+00 0.  1.
          2   -1    0    0  501    0  0.00000000000E+00 -0.00000000000E+00 -0.13097604411E+04  0.13097604411E+04  0.00000000000E+00 0. -1.
         24    2    1    2    0    0  0.31605714546E+03 -0.54903169922E+03  0.50307337214E+02  0.64052056712E+03  0.80049002407E+02 0.  0.
        254    2    1    2    0    0 -0.31605714546E+03  0.54903169922E+03 -0.72142382554E+03  0.13078838268E+04  0.88813278420E+03 0.  0.
         23    2    4    4    0    0 -0.65680215179E+00  0.71452954647E+03 -0.52610970544E+03  0.89198500692E+03  0.91065505259E+02 0.  0.
         23    2    4    4    0    0 -0.31540034330E+03 -0.16549784725E+03 -0.19531412010E+03  0.41589881986E+03  0.89203749094E+02 0.  0.
          2    1    3    3  502    0  0.76374225497E+02 -0.18849758045E+03  0.41066517774E+02  0.20748691293E+03  0.00000000000E+00 0. -1.
         -1    1    3    3    0  502  0.23968291996E+03 -0.36053411876E+03  0.92408194401E+01  0.43303365418E+03  0.00000000000E+00 0.  1.
         11    1    5    5    0    0  0.32977947412E+02  0.18383850643E+03 -0.10986692485E+03  0.21669075347E+03  0.00000000000E+00 0. -1.
        -11    1    5    5    0    0 -0.33634749564E+02  0.53069104004E+03 -0.41624278059E+03  0.67529425345E+03  0.00000000000E+00 0.  1.
          1    1    6    6  503    0 -0.10790883693E+03 -0.25491460367E+02 -0.95804204653E+02  0.14653524241E+03  0.00000000000E+00 0. -1.
         -1    1    6    6    0  503 -0.20749150638E+03 -0.14000638688E+03 -0.99509915444E+02  0.26936357745E+03  0.00000000000E+00 0.  1.
<mgrwt>
<rscale>  0 0.18291753E+04</rscale>
<asrwt>0</asrwt>
<pdfrwt beam="1">  1        2 0.20150160E+00 0.18291753E+04</pdfrwt>
<pdfrwt beam="2">  1       -1 0.98252917E-01 0.18291753E+04</pdfrwt>
<totfact> 0.17383428E+01</totfact>
</mgrwt>
</event>
<event>
12    6  0.1540825E-007  0.2671803E+04  0.7818608E-02  0.8344212E-01
         -1   -1    0    0    0  501 -0.00000000000E+00  0.00000000000E+00  0.63049294036E+03  0.63049294036E+03  0.00000000000E+00 0.  1.
          2   -1    0    0  501    0  0.00000000000E+00 -0.00000000000E+00 -0.28305351197E+04  0.28305351197E+04  0.00000000000E+00 0. -1.
         24    2    1    2    0    0  0.11265260157E+04 -0.22416539850E+03 -0.13313690979E+04  0.17601838096E+04  0.79952352049E+02 0.  0.
        254    2    1    2    0    0 -0.11265260157E+04  0.22416539850E+03 -0.86867308142E+03  0.17008442505E+04  0.90496809452E+03 0.  0.
         23    2    4    4    0    0 -0.56345415286E+03 -0.17863625186E+03 -0.16804131077E+02  0.59897234640E+03  0.95362466815E+02 0.  0.
         23    2    4    4    0    0 -0.56307186284E+03  0.40280165036E+03 -0.85186895034E+03  0.11018719041E+04  0.95613242824E+02 0.  0.
          2    1    3    3  502    0  0.59755475635E+03 -0.99210759406E+02 -0.64817947419E+03  0.88715900062E+03  0.00000000000E+00 0. -1.
         -1    1    3    3    0  502  0.52897125935E+03 -0.12495463910E+03 -0.68318962372E+03  0.87302480894E+03  0.00000000000E+00 0.  1.
         11    1    5    5    0    0 -0.41976259351E+03 -0.17128825806E+03  0.53519137517E+01  0.45339711649E+03  0.00000000000E+00 0. -1.
        -11    1    5    5    0    0 -0.14369155935E+03 -0.73479938003E+01 -0.22156044829E+02  0.14557522991E+03  0.00000000000E+00 0.  1.
          1    1    6    6  503    0 -0.54422336085E+03  0.36468760519E+03 -0.81446682966E+03  0.10452427146E+04  0.00000000000E+00 0. -1.
         -1    1    6    6    0  503 -0.18848501983E+02  0.38114045172E+02 -0.37402120674E+02  0.56629189446E+02  0.00000000000E+00 0.  1.
<mgrwt>
<rscale>  0 0.26718027E+04</rscale>
<asrwt>0</asrwt>
<pdfrwt beam="1">  1        2 0.43546693E+00 0.26718027E+04</pdfrwt>
<pdfrwt beam="2">  1       -1 0.96998915E-01 0.26718027E+04</pdfrwt>
<totfact> 0.22622811E+00</totfact>
</mgrwt>
</event>
<event>
12    6  0.1540825E-007  0.1455792E+04  0.7818608E-02  0.8914395E-01
          2   -1    0    0  501    0  0.00000000000E+00  0.00000000000E+00  0.11698779838E+04  0.11698779838E+04  0.00000000000E+00 0. -1.
         -1   -1    0    0    0  501 -0.00000000000E+00 -0.00000000000E+00 -0.45289540066E+03  0.45289540066E+03  0.00000000000E+00 0.  1.
         24    2    1    2    0    0 -0.70537889776E+02 -0.43646764538E+03  0.28489495944E+03  0.53170094720E+03  0.77853452000E+02 0.  0.
        254    2    1    2    0    0  0.70537889776E+02  0.43646764538E+03  0.43208762370E+03  0.10910724373E+04  0.89903267429E+03 0.  0.
         23    2    4    4    0    0 -0.25212951090E+03  0.46025652853E+03 -0.14249322838E+02  0.53205505557E+03  0.86453320530E+02 0.  0.
         23    2    4    4    0    0  0.32266740067E+03 -0.23788883157E+02  0.44633694654E+03  0.55901738169E+03  0.92755596967E+02 0.  0.
          2    1    3    3  502    0 -0.31494869476E+02 -0.25496226207E+03  0.12065235087E+03  0.28382154896E+03  0.00000000000E+00 0. -1.
         -1    1    3    3    0  502 -0.39043020300E+02 -0.18150538330E+03  0.16424260858E+03  0.24787939825E+03  0.00000000000E+00 0.  1.
         11    1    5    5    0    0 -0.42294269847E+02  0.34360331539E+02 -0.17588794099E+02  0.57260835859E+02  0.00000000000E+00 0. -1.
        -11    1    5    5    0    0 -0.20983524105E+03  0.42589619699E+03  0.33394712603E+01  0.47479421971E+03  0.00000000000E+00 0.  1.
          1    1    6    6  503    0  0.35568630519E+02  0.13273960126E+02  0.10389238047E+03  0.11061171825E+03  0.00000000000E+00 0. -1.
         -1    1    6    6    0  503  0.28709877016E+03 -0.37062843282E+02  0.34244456607E+03  0.44840566344E+03  0.00000000000E+00 0.  1.
<mgrwt>
<rscale>  0 0.14557917E+04</rscale>
<asrwt>0</asrwt>
<pdfrwt beam="1">  1        2 0.17998123E+00 0.14557917E+04</pdfrwt>
<pdfrwt beam="2">  1       -1 0.69676216E-01 0.14557917E+04</pdfrwt>
<totfact> 0.45472614E+01</totfact>
</mgrwt>
</event>
<event>
12    6  0.1540825E-007  0.1442700E+04  0.7818608E-02  0.8923477E-01
          2   -1    0    0  501    0  0.00000000000E+00  0.00000000000E+00  0.69502457249E+03  0.69502457249E+03  0.00000000000E+00 0. -1.
         -1   -1    0    0    0  501 -0.00000000000E+00 -0.00000000000E+00 -0.74867232524E+03  0.74867232524E+03  0.00000000000E+00 0.  1.
         24    2    1    2    0    0 -0.42440627212E+03  0.29755756755E+02  0.10612064116E+03  0.44547740358E+03  0.78628479171E+02 0.  0.
        254    2    1    2    0    0  0.42440627212E+03 -0.29755756755E+02 -0.15976839391E+03  0.99821949416E+03  0.88876888444E+03 0.  0.
         23    2    4    4    0    0 -0.16562059071E+03  0.25376233219E+03 -0.11184247964E+03  0.33568436405E+03  0.91376970379E+02 0.  0.
         23    2    4    4    0    0  0.59002686283E+03 -0.28351808894E+03 -0.47925914271E+02  0.66253513010E+03  0.90231367851E+02 0.  0.
          2    1    3    3  502    0 -0.25220934053E+03 -0.33325632632E+00  0.97690411772E+02  0.27046825889E+03  0.00000000000E+00 0. -1.
         -1    1    3    3    0  502 -0.17219693159E+03  0.30089013081E+02  0.84302293889E+01  0.17500914469E+03  0.00000000000E+00 0.  1.
         11    1    5    5    0    0 -0.93057424667E+02  0.62928443297E+02 -0.40431422317E+02  0.11939167966E+03  0.00000000000E+00 0. -1.
        -11    1    5    5    0    0 -0.72563166040E+02  0.19083388889E+03 -0.71411057324E+02  0.21629268439E+03  0.00000000000E+00 0.  1.
          3    1    6    6  503    0  0.45640516948E+03 -0.18206011443E+03 -0.56049126258E+02  0.49456351316E+03  0.00000000000E+00 0. -1.
         -3    1    6    6    0  503  0.13362169335E+03 -0.10145797451E+03  0.81232119875E+01  0.16797161695E+03  0.00000000000E+00 0.  1.
<mgrwt>
<rscale>  0 0.14426998E+04</rscale>
<asrwt>0</asrwt>
<pdfrwt beam="1">  1        2 0.10692686E+00 0.14426998E+04</pdfrwt>
<pdfrwt beam="2">  1       -1 0.11518036E+00 0.14426998E+04</pdfrwt>
<totfact> 0.31345863E+01</totfact>
</mgrwt>
</event>
<event>
12    6  0.1540825E-007  0.2281251E+04  0.7818608E-02  0.8485351E-01
         -1   -1    0    0    0  501 -0.00000000000E+00  0.00000000000E+00  0.61506253212E+03  0.61506253212E+03  0.00000000000E+00 0.  1.
          2   -1    0    0  501    0  0.00000000000E+00 -0.00000000000E+00 -0.21152743523E+04  0.21152743523E+04  0.00000000000E+00 0. -1.
         24    2    1    2    0    0 -0.34283492770E+03  0.36095886573E+03 -0.16267095264E+04  0.17030535899E+04  0.79878386362E+02 0.  0.
        254    2    1    2    0    0  0.34283492770E+03 -0.36095886573E+03  0.12649770623E+03  0.10272832945E+04  0.88965285757E+03 0.  0.
         23    2    4    4    0    0 -0.25780719072E+03 -0.30112308406E+03  0.84998613434E+02  0.41539003195E+03  0.90467977852E+02 0.  0.
         23    2    4    4    0    0  0.60064211842E+03 -0.59835781675E+02  0.41499092791E+02  0.61189326251E+03  0.91323134035E+02 0.  0.
          2    1    3    3  502    0 -0.31482019035E+03  0.29065396339E+03 -0.13894432024E+04  0.14540095912E+04  0.00000000000E+00 0. -1.
         -1    1    3    3    0  502 -0.28014737349E+02  0.70304902345E+02 -0.23726632402E+03  0.24904399876E+03  0.00000000000E+00 0.  1.
         11    1    5    5    0    0 -0.81537572737E+02 -0.16412730221E+03  0.42653907546E+02  0.18816350052E+03  0.00000000000E+00 0. -1.
        -11    1    5    5    0    0 -0.17626961798E+03 -0.13699578184E+03  0.42344705889E+02  0.22722653142E+03  0.00000000000E+00 0.  1.
          2    1    6    6  503    0  0.96855195442E+02  0.18373233468E+02 -0.11832010552E+02  0.99289984721E+02  0.00000000000E+00 0. -1.
         -2    1    6    6    0  503  0.50378692298E+03 -0.78209015142E+02  0.53331103342E+02  0.51260327779E+03  0.00000000000E+00 0.  1.
<mgrwt>
<rscale>  0 0.22812505E+04</rscale>
<asrwt>0</asrwt>
<pdfrwt beam="1">  1        2 0.32542683E+00 0.22812505E+04</pdfrwt>
<pdfrwt beam="2">  1       -1 0.94625003E-01 0.22812505E+04</pdfrwt>
<totfact> 0.64308441E+00</totfact>
</mgrwt>
</event>
<event>
12    6  0.1540825E-007  0.1463521E+04  0.7818608E-02  0.8909080E-01
          2   -1    0    0  501    0  0.00000000000E+00  0.00000000000E+00  0.19716400968E+04  0.19716400968E+04  0.00000000000E+00 0. -1.
         -3   -1    0    0    0  501 -0.00000000000E+00 -0.00000000000E+00 -0.27158768174E+03  0.27158768174E+03  0.00000000000E+00 0.  1.
         24    2    1    2    0    0  0.89680483583E+02 -0.26189840248E+03 -0.15178097453E+02  0.28859475518E+03  0.80144842089E+02 0.  0.
        254    2    1    2    0    0 -0.89680483583E+02  0.26189840248E+03  0.17152305125E+04  0.19546330234E+04  0.89551168758E+03 0.  0.
         23    2    4    4    0    0  0.17931179305E+03  0.45059411182E+03  0.14206573017E+04  0.15039057894E+04  0.90981765834E+02 0.  0.
         23    2    4    4    0    0 -0.26899227664E+03 -0.18869570934E+03  0.29457321083E+03  0.45072723400E+03  0.91753731913E+02 0.  0.
          4    1    3    3  502    0  0.18386300142E+02 -0.13018687625E+03 -0.38548133328E+02  0.13701327440E+03  0.00000000000E+00 0. -1.
         -3    1    3    3    0  502  0.71294183441E+02 -0.13171152624E+03  0.23370035875E+02  0.15158148077E+03  0.00000000000E+00 0.  1.
         11    1    5    5    0    0  0.16607039373E+03  0.40015544456E+03  0.11642349139E+04  0.12422345553E+04  0.00000000000E+00 0. -1.
        -11    1    5    5    0    0  0.13241399321E+02  0.50438667256E+02  0.25642238777E+03  0.26167123411E+03  0.00000000000E+00 0.  1.
          1    1    6    6  503    0 -0.27344949559E+03 -0.17080882915E+03  0.27411814436E+03  0.42319149308E+03  0.00000000000E+00 0. -1.
         -1    1    6    6    0  503  0.44572189490E+01 -0.17886880185E+02  0.20455066476E+02  0.27535740920E+02  0.00000000000E+00 0.  1.
<mgrwt>
<rscale>  0 0.14635206E+04</rscale>
<asrwt>0</asrwt>
<pdfrwt beam="1">  1        2 0.30332924E+00 0.14635206E+04</pdfrwt>
<pdfrwt beam="2">  1       -3 0.41782721E-01 0.14635206E+04</pdfrwt>
<totfact> 0.24644174E+01</totfact>
</mgrwt>
</event>
<event>
12    6  0.1540825E-007  0.1589810E+04  0.7818608E-02  0.8826833E-01
          2   -1    0    0  501    0  0.00000000000E+00  0.00000000000E+00  0.21571185847E+04  0.21571185847E+04  0.00000000000E+00 0. -1.
         -1   -1    0    0    0  501 -0.00000000000E+00 -0.00000000000E+00 -0.29292502348E+03  0.29292502348E+03  0.00000000000E+00 0.  1.
         24    2    1    2    0    0 -0.38226780275E+03  0.36763498411E+03  0.78681124109E+03  0.95227586468E+03  0.80456440274E+02 0.  0.
        254    2    1    2    0    0  0.38226780275E+03 -0.36763498411E+03  0.10773823201E+04  0.14977677435E+04  0.89513764036E+03 0.  0.
         23    2    4    4    0    0  0.42285092483E+03  0.10895506333E+03  0.85124234393E+03  0.96069268066E+03  0.87423041113E+02 0.  0.
         23    2    4    4    0    0 -0.40583122079E+02 -0.47659004744E+03  0.22613997617E+03  0.53707506282E+03  0.92332394984E+02 0.  0.
          4    1    3    3  502    0 -0.61042481457E+02  0.41153330887E+02  0.15834106092E+03  0.17461864951E+03  0.00000000000E+00 0. -1.
         -3    1    3    3    0  502 -0.32122532130E+03  0.32648165322E+03  0.62847018017E+03  0.77765721517E+03  0.00000000000E+00 0.  1.
         11    1    5    5    0    0  0.93798531002E+02  0.18676949354E+02  0.11757519230E+03  0.15156160035E+03  0.00000000000E+00 0. -1.
        -11    1    5    5    0    0  0.32905239383E+03  0.90278113978E+02  0.73366715163E+03  0.80913108031E+03  0.00000000000E+00 0.  1.
          3    1    6    6  503    0 -0.21070697940E+02 -0.24018917422E+02  0.28613800221E+02  0.42890934577E+02  0.00000000000E+00 0. -1.
         -3    1    6    6    0  503 -0.19512424139E+02 -0.45257113002E+03  0.19752617595E+03  0.49418412825E+03  0.00000000000E+00 0.  1.
<mgrwt>
<rscale>  0 0.15898101E+04</rscale>
<asrwt>0</asrwt>
<pdfrwt beam="1">  1        2 0.33186439E+00 0.15898101E+04</pdfrwt>
<pdfrwt beam="2">  1       -1 0.45065390E-01 0.15898101E+04</pdfrwt>
<totfact> 0.29159133E+01</totfact>
</mgrwt>
</event>
<event>
12    6  0.1540825E-007  0.1494872E+04  0.7818608E-02  0.8887870E-01
          2   -1    0    0  501    0  0.00000000000E+00  0.00000000000E+00  0.33310014618E+04  0.33310014618E+04  0.00000000000E+00 0. -1.
         -1   -1    0    0    0  501 -0.00000000000E+00 -0.00000000000E+00 -0.16771559939E+03  0.16771559939E+03  0.00000000000E+00 0.  1.
         24    2    1    2    0    0 -0.47077091425E+01 -0.34780728312E+03  0.26334329843E+03  0.44321557667E+03  0.78091522332E+02 0.  0.
        254    2    1    2    0    0  0.47077091425E+01  0.34780728312E+03  0.28999425640E+04  0.30555014845E+04  0.89745773095E+03 0.  0.
         23    2    4    4    0    0 -0.41543422396E+03  0.30235570601E+03  0.17791864205E+04  0.18541842955E+04  0.92143991701E+02 0.  0.
         23    2    4    4    0    0  0.42014193310E+03  0.45451577106E+02  0.11207561435E+04  0.12013171891E+04  0.92106274563E+02 0.  0.
          2    1    3    3  502    0  0.24199659225E+01 -0.14244540890E+02 -0.47504586991E+01  0.15209537735E+02  0.00000000000E+00 0. -1.
         -1    1    3    3    0  502 -0.71276750651E+01 -0.33356274223E+03  0.26809375713E+03  0.42800603894E+03  0.00000000000E+00 0.  1.
         11    1    5    5    0    0 -0.25236104234E+03  0.21540922775E+03  0.12652622550E+04  0.13080427382E+04  0.00000000000E+00 0. -1.
        -11    1    5    5    0    0 -0.16307318162E+03  0.86946478264E+02  0.51392416553E+03  0.54614155725E+03  0.00000000000E+00 0.  1.
          3    1    6    6  503    0  0.10966246747E+03  0.20850337881E+02  0.41778516322E+03  0.43244078898E+03  0.00000000000E+00 0. -1.
         -3    1    6    6    0  503  0.31047946562E+03  0.24601239226E+02  0.70297098025E+03  0.76887640009E+03  0.00000000000E+00 0.  1.
<mgrwt>
<rscale>  0 0.14948724E+04</rscale>
<asrwt>0</asrwt>
<pdfrwt beam="1">  1        2 0.51246171E+00 0.14948724E+04</pdfrwt>
<pdfrwt beam="2">  1       -1 0.25802402E-01 0.14948724E+04</pdfrwt>
<totfact> 0.15686958E+01</totfact>
</mgrwt>
</event>
<event>
12    6  0.1540825E-007  0.1813788E+04  0.7818608E-02  0.8699001E-01
          2   -1    0    0  501    0  0.00000000000E+00  0.00000000000E+00  0.34039537171E+04  0.34039537171E+04  0.00000000000E+00 0. -1.
         -1   -1    0    0    0  501 -0.00000000000E+00 -0.00000000000E+00 -0.24161803094E+03  0.24161803094E+03  0.00000000000E+00 0.  1.
         24    2    1    2    0    0  0.34445873498E+03 -0.29504269952E+03  0.18152959287E+03  0.49485203936E+03  0.78889372689E+02 0.  0.
        254    2    1    2    0    0 -0.34445873498E+03  0.29504269952E+03  0.29808060933E+04  0.31507197087E+04  0.91440018714E+03 0.  0.
         23    2    4    4    0    0  0.17752823498E+03  0.12805697793E+03  0.20724646121E+04  0.20860281085E+04  0.92134886115E+02 0.  0.
         23    2    4    4    0    0 -0.52198696996E+03  0.16698572159E+03  0.90834148120E+03  0.10646916002E+04  0.90162791790E+02 0.  0.
          4    1    3    3  502    0  0.46252019123E+02 -0.52910119964E+02  0.68020077315E+00  0.70279390582E+02  0.00000000000E+00 0. -1.
         -3    1    3    3    0  502  0.29820671586E+03 -0.24213257956E+03  0.18084939210E+03  0.42457264878E+03  0.00000000000E+00 0.  1.
         11    1    5    5    0    0  0.12279023951E+03  0.13459720385E+03  0.15563576727E+04  0.15669853400E+04  0.00000000000E+00 0.  1.
        -11    1    5    5    0    0  0.54737995470E+02 -0.65402259163E+01  0.51610693940E+03  0.51904276857E+03  0.00000000000E+00 0. -1.
          3    1    6    6  503    0 -0.39552338575E+03  0.15128791718E+03  0.75155828403E+03  0.86265093569E+03  0.00000000000E+00 0. -1.
         -3    1    6    6    0  503 -0.12646358422E+03  0.15697804404E+02  0.15678319717E+03  0.20204066450E+03  0.00000000000E+00 0.  1.
<mgrwt>
<rscale>  0 0.18137879E+04</rscale>
<asrwt>0</asrwt>
<pdfrwt beam="1">  1        2 0.52368515E+00 0.18137879E+04</pdfrwt>
<pdfrwt beam="2">  1       -1 0.37172007E-01 0.18137879E+04</pdfrwt>
<totfact> 0.71313362E+00</totfact>
</mgrwt>
</event>
<event>
12    6  0.1540825E-007  0.1471489E+04  0.7818608E-02  0.8903637E-01
          2   -1    0    0  501    0  0.00000000000E+00  0.00000000000E+00  0.67977078555E+03  0.67977078555E+03  0.00000000000E+00 0. -1.
         -1   -1    0    0    0  501 -0.00000000000E+00 -0.00000000000E+00 -0.79632715871E+03  0.79632715871E+03  0.00000000000E+00 0.  1.
         24    2    1    2    0    0  0.13388547094E+03  0.10185149666E+03  0.38790997598E+03  0.42942055982E+03  0.75025469203E+02 0.  0.
        254    2    1    2    0    0 -0.13388547094E+03 -0.10185149666E+03 -0.50446634914E+03  0.10466773844E+04  0.90152548660E+03 0.  0.
         23    2    4    4    0    0  0.14715111993E+03  0.18609265031E+03 -0.57532542071E+03  0.62840538333E+03  0.87235654888E+02 0.  0.
         23    2    4    4    0    0 -0.28103659088E+03 -0.28794414697E+03  0.70859071567E+02  0.41827200112E+03  0.89649660956E+02 0.  0.
          2    1    3    3  502    0  0.35607287368E+02  0.22749740059E+02  0.19059135041E+03  0.19521908830E+03  0.00000000000E+00 0. -1.
         -1    1    3    3    0  502  0.98278183575E+02  0.79101756599E+02  0.19731862557E+03  0.23420147152E+03  0.00000000000E+00 0.  1.
         11    1    5    5    0    0  0.15198564321E+03  0.18620216731E+03 -0.51992070323E+03  0.57279003178E+03  0.00000000000E+00 0.  1.
        -11    1    5    5    0    0 -0.48345232802E+01 -0.10951700068E+00 -0.55404717478E+02  0.55615351551E+02  0.00000000000E+00 0. -1.
          1    1    6    6  503    0 -0.15556937633E+02  0.17700856837E+01 -0.78447746668E+01  0.17512624059E+02  0.00000000000E+00 0. -1.
         -1    1    6    6    0  503 -0.26547965324E+03 -0.28971423265E+03  0.78703846234E+02  0.40075937706E+03  0.00000000000E+00 0.  1.
<mgrwt>
<rscale>  0 0.14714890E+04</rscale>
<asrwt>0</asrwt>
<pdfrwt beam="1">  1        2 0.10458012E+00 0.14714890E+04</pdfrwt>
<pdfrwt beam="2">  1       -1 0.12251187E+00 0.14714890E+04</pdfrwt>
<totfact> 0.27672533E+01</totfact>
</mgrwt>
</event>
<event>
12    6  0.1540825E-007  0.1849041E+04  0.7818608E-02  0.8680646E-01
          2   -1    0    0  501    0  0.00000000000E+00  0.00000000000E+00  0.99357160140E+03  0.99357160140E+03  0.00000000000E+00 0. -1.
         -1   -1    0    0    0  501 -0.00000000000E+00 -0.00000000000E+00 -0.86026808262E+03  0.86026808262E+03  0.00000000000E+00 0.  1.
         24    2    1    2    0    0  0.33078992097E+03  0.15439747232E+03 -0.55064382776E+03  0.66596808604E+03  0.83930419369E+02 0.  0.
        254    2    1    2    0    0 -0.33078992097E+03 -0.15439747232E+03  0.68394734654E+03  0.11878715980E+04  0.89999689397E+03 0.  0.
         23    2    4    4    0    0 -0.35585338331E+03  0.95619731568E+02  0.80833976297E+03  0.89315935979E+03  0.92442988377E+02 0.  0.
         23    2    4    4    0    0  0.25063462340E+02 -0.25001720389E+03 -0.12439241643E+03  0.29471223818E+03  0.90802261446E+02 0.  0.
          2    1    3    3  502    0  0.23301170569E+03  0.84267522273E+02 -0.42530578247E+03  0.49221994972E+03  0.00000000000E+00 0. -1.
         -1    1    3    3    0  502  0.97778215282E+02  0.70129950050E+02 -0.12533804529E+03  0.17374813632E+03  0.00000000000E+00 0.  1.
         11    1    5    5    0    0 -0.42309396139E+02 -0.18217820160E+02  0.87692739078E+02  0.99055491821E+02  0.00000000000E+00 0. -1.
        -11    1    5    5    0    0 -0.31354398717E+03  0.11383755173E+03  0.72064702389E+03  0.79410386797E+03  0.00000000000E+00 0.  1.
          2    1    6    6  503    0  0.37856135368E+02 -0.39412376210E+02 -0.13228492770E+02  0.56226465338E+02  0.00000000000E+00 0. -1.
         -2    1    6    6    0  503 -0.12792673027E+02 -0.21060482768E+03 -0.11116392366E+03  0.23848577284E+03  0.00000000000E+00 0.  1.
<mgrwt>
<rscale>  0 0.18490408E+04</rscale>
<asrwt>0</asrwt>
<pdfrwt beam="1">  1        2 0.15285717E+00 0.18490408E+04</pdfrwt>
<pdfrwt beam="2">  1       -1 0.13234894E+00 0.18490408E+04</pdfrwt>
<totfact> 0.13222435E+01</totfact>
</mgrwt>
</event>
<event>
12    6  0.1540825E-007  0.1869507E+04  0.7818608E-02  0.8670185E-01
          2   -1    0    0  501    0  0.00000000000E+00  0.00000000000E+00  0.64622722254E+03  0.64622722254E+03  0.00000000000E+00 0. -1.
         -1   -1    0    0    0  501 -0.00000000000E+00 -0.00000000000E+00 -0.13521002217E+04  0.13521002217E+04  0.00000000000E+00 0.  1.
         24    2    1    2    0    0  0.38932040886E+03  0.54976635967E+03 -0.17736765851E+02  0.67858008285E+03  0.79642356856E+02 0.  0.
        254    2    1    2    0    0 -0.38932040886E+03 -0.54976635967E+03 -0.68813623332E+03  0.13197473614E+04  0.90243459116E+03 0.  0.
         23    2    4    4    0    0 -0.50435785139E+03  0.24554240418E+02 -0.44542542328E+03  0.67931133097E+03  0.89890620790E+02 0.  0.
         23    2    4    4    0    0  0.11503744253E+03 -0.57432060009E+03 -0.24271081004E+03  0.64043603042E+03  0.90399153092E+02 0.  0.
          4    1    3    3  502    0  0.34988193791E+03  0.51912719233E+03 -0.13824540317E+01  0.62602901168E+03  0.00000000000E+00 0. -1.
         -3    1    3    3    0  502  0.39438470952E+02  0.30639167345E+02 -0.16354311819E+02  0.52551071176E+02  0.00000000000E+00 0.  1.
         11    1    5    5    0    0 -0.12834765891E+03 -0.30291897962E+02 -0.96353608304E+02  0.16332402905E+03  0.00000000000E+00 0.  1.
        -11    1    5    5    0    0 -0.37601019248E+03  0.54846138380E+02 -0.34907181497E+03  0.51598730193E+03  0.00000000000E+00 0. -1.
          2    1    6    6  503    0  0.46588714230E+02 -0.35083391903E+03 -0.18646372561E+03  0.40002958391E+03  0.00000000000E+00 0. -1.
         -2    1    6    6    0  503  0.68448728303E+02 -0.22348668106E+03 -0.56247084435E+02  0.24040644651E+03  0.00000000000E+00 0.  1.
<mgrwt>
<rscale>  0 0.18695069E+04</rscale>
<asrwt>0</asrwt>
<pdfrwt beam="1">  1        2 0.99419575E-01 0.18695069E+04</pdfrwt>
<pdfrwt beam="2">  1       -1 0.20801541E+00 0.18695069E+04</pdfrwt>
<totfact> 0.64380338E+00</totfact>
</mgrwt>
</event>
<event>
12    6  0.1540825E-007  0.2000931E+04  0.7818608E-02  0.8606185E-01
          2   -1    0    0  501    0  0.00000000000E+00  0.00000000000E+00  0.17819376148E+04  0.17819376148E+04  0.00000000000E+00 0. -1.
         -1   -1    0    0    0  501 -0.00000000000E+00 -0.00000000000E+00 -0.56170970294E+03  0.56170970294E+03  0.00000000000E+00 0.  1.
         24    2    1    2    0    0  0.27006256536E+03  0.42195726427E+03 -0.19203393180E+03  0.54307916453E+03  0.84120306163E+02 0.  0.
        254    2    1    2    0    0 -0.27006256536E+03 -0.42195726427E+03  0.14122618437E+04  0.18005681532E+04  0.99828875441E+03 0.  0.
         23    2    4    4    0    0  0.23184044560E+03 -0.53114780732E+03  0.63820182017E+03  0.86720216224E+03  0.94180897665E+02 0.  0.
         23    2    4    4    0    0 -0.50190301096E+03  0.10919054305E+03  0.77406002352E+03  0.93336599098E+03  0.90409877848E+02 0.  0.
          2    1    3    3  502    0  0.72101209821E+02  0.16817278070E+03 -0.98992566372E+02  0.20803893103E+03  0.00000000000E+00 0. -1.
         -1    1    3    3    0  502  0.19796135554E+03  0.25378448357E+03 -0.93041365432E+02  0.33504023350E+03  0.00000000000E+00 0.  1.
         11    1    5    5    0    0  0.58482130638E+02 -0.24198121476E+03  0.24567804360E+03  0.34976101699E+03  0.00000000000E+00 0.  1.
        -11    1    5    5    0    0  0.17335831496E+03 -0.28916659256E+03  0.39252377657E+03  0.51744114524E+03  0.00000000000E+00 0. -1.
          1    1    6    6  503    0 -0.45861638764E+03  0.72086232567E+02  0.69861306590E+03  0.83880011432E+03  0.00000000000E+00 0. -1.
         -1    1    6    6    0  503 -0.43286623318E+02  0.37104310487E+02  0.75446957614E+02  0.94565876658E+02  0.00000000000E+00 0.  1.
<mgrwt>
<rscale>  0 0.20009314E+04</rscale>
<asrwt>0</asrwt>
<pdfrwt beam="1">  1        2 0.27414425E+00 0.20009314E+04</pdfrwt>
<pdfrwt beam="2">  1       -1 0.86416878E-01 0.20009314E+04</pdfrwt>
<totfact> 0.12337396E+01</totfact>
</mgrwt>
</event>
<event>
12    6  0.1540825E-007  0.2254614E+04  0.7818608E-02  0.8496034E-01
         -1   -1    0    0    0  501 -0.00000000000E+00  0.00000000000E+00  0.50164570112E+03  0.50164570112E+03  0.00000000000E+00 0.  1.
          2   -1    0    0  501    0  0.00000000000E+00 -0.00000000000E+00 -0.25333049313E+04  0.25333049313E+04  0.00000000000E+00 0. -1.
         24    2    1    2    0    0  0.18392280264E+03  0.12615678772E+03 -0.20899163210E+04  0.21032562951E+04  0.78699945845E+02 0.  0.
        254    2    1    2    0    0 -0.18392280264E+03 -0.12615678772E+03  0.58257090883E+02  0.93169433731E+03  0.90272770928E+03 0.  0.
         23    2    4    4    0    0 -0.52506104680E+03 -0.19689373456E+03  0.49964379231E+02  0.56968953277E+03  0.87140570227E+02 0.  0.
         23    2    4    4    0    0  0.34113824416E+03  0.70736946839E+02  0.82927116516E+01  0.36200480454E+03  0.97978018803E+02 0.  0.
          2    1    3    3  502    0  0.18302834292E+03  0.13216150272E+03 -0.19192418978E+04  0.19324739324E+04  0.00000000000E+00 0. -1.
         -1    1    3    3    0  502  0.89445972510E+00 -0.60047149986E+01 -0.17067442324E+03  0.17078236270E+03  0.00000000000E+00 0.  1.
         11    1    5    5    0    0 -0.13105184919E+03 -0.90835132966E+02  0.12838396873E+02  0.15997010030E+03  0.00000000000E+00 0.  1.
        -11    1    5    5    0    0 -0.39400919761E+03 -0.10605860160E+03  0.37125982359E+02  0.40971943247E+03  0.00000000000E+00 0. -1.
          2    1    6    6  503    0  0.19054951818E+02  0.24030769985E+01 -0.24491803742E+02  0.31124177393E+02  0.00000000000E+00 0.  1.
         -2    1    6    6    0  503  0.32208329234E+03  0.68333869840E+02  0.32784515394E+02  0.33088062714E+03  0.00000000000E+00 0. -1.
<mgrwt>
<rscale>  0 0.22546144E+04</rscale>
<asrwt>0</asrwt>
<pdfrwt beam="1">  1        2 0.38973922E+00 0.22546144E+04</pdfrwt>
<pdfrwt beam="2">  1       -1 0.77176263E-01 0.22546144E+04</pdfrwt>
<totfact> 0.58038018E+00</totfact>
</mgrwt>
</event>
<event>
12    6  0.1540825E-007  0.3475053E+04  0.7818608E-02  0.8119728E-01
         -1   -1    0    0    0  501 -0.00000000000E+00  0.00000000000E+00  0.10875867771E+04  0.10875867771E+04  0.00000000000E+00 0.  1.
          2   -1    0    0  501    0  0.00000000000E+00 -0.00000000000E+00 -0.27758696612E+04  0.27758696612E+04  0.00000000000E+00 0. -1.
         24    2    1    2    0    0  0.21123581556E+03  0.29240373606E+03 -0.25417028208E+04  0.25683293095E+04  0.77082412284E+02 0.  0.
        254    2    1    2    0    0 -0.21123581556E+03 -0.29240373606E+03  0.85341993665E+03  0.12951271288E+04  0.90493545449E+03 0.  0.
         23    2    4    4    0    0  0.43142874039E+02  0.24598043350E+03  0.57124598497E+03  0.62992715720E+03  0.90103089782E+02 0.  0.
         23    2    4    4    0    0 -0.25437868960E+03 -0.53838416956E+03  0.28217395168E+03  0.66519997158E+03  0.91119873966E+02 0.  0.
          2    1    3    3  502    0  0.21587778100E+03  0.27106735592E+03 -0.24198216118E+04  0.24445075906E+04  0.00000000000E+00 0. -1.
         -1    1    3    3    0  502 -0.46419654380E+01  0.21336380141E+02 -0.12188120902E+03  0.12382171890E+03  0.00000000000E+00 0.  1.
         11    1    5    5    0    0  0.38379860031E+02  0.15780137303E+03  0.26138007879E+03  0.30772363018E+03  0.00000000000E+00 0.  1.
        -11    1    5    5    0    0  0.47630140086E+01  0.88179060470E+02  0.30986590618E+03  0.32220352702E+03  0.00000000000E+00 0. -1.
          3    1    6    6  503    0 -0.50278812886E+02 -0.13347878350E+03  0.27910559821E+02  0.14533940972E+03  0.00000000000E+00 0. -1.
         -3    1    6    6    0  503 -0.20409987672E+03 -0.40490538606E+03  0.25426339186E+03  0.51986056186E+03  0.00000000000E+00 0.  1.
<mgrwt>
<rscale>  0 0.34750535E+04</rscale>
<asrwt>0</asrwt>
<pdfrwt beam="1">  1        2 0.42705686E+00 0.34750535E+04</pdfrwt>
<pdfrwt beam="2">  1       -1 0.16732105E+00 0.34750535E+04</pdfrwt>
<totfact> 0.57580257E-01</totfact>
</mgrwt>
</event>
<event>
12    6  0.1540825E-007  0.1204948E+04  0.7818608E-02  0.9108536E-01
          2   -1    0    0  501    0  0.00000000000E+00  0.00000000000E+00  0.34709912928E+03  0.34709912928E+03  0.00000000000E+00 0. -1.
         -1   -1    0    0    0  501 -0.00000000000E+00 -0.00000000000E+00 -0.10457392749E+04  0.10457392749E+04  0.00000000000E+00 0.  1.
         24    2    1    2    0    0 -0.10184692861E+03  0.52570107475E+01  0.12375506307E+03  0.17936317638E+03  0.80345506256E+02 0.  0.
        254    2    1    2    0    0  0.10184692861E+03 -0.52570107475E+01 -0.82239520869E+03  0.12134752278E+04  0.88644673625E+03 0.  0.
         23    2    4    4    0    0 -0.32818746561E+03 -0.17557500662E+03 -0.54613711022E+03  0.66733976993E+03  0.92428512002E+02 0.  0.
         23    2    4    4    0    0  0.43003439422E+03  0.17031799588E+03 -0.27625809847E+03  0.54613545789E+03  0.89485202450E+02 0.  0.
          4    1    3    3  502    0  0.10536659175E+02 -0.67907708728E+01  0.29994720715E+02  0.32508753073E+02  0.00000000000E+00 0. -1.
         -3    1    3    3    0  502 -0.11238358779E+03  0.12047781620E+02  0.93760342354E+02  0.14685442331E+03  0.00000000000E+00 0.  1.
         11    1    5    5    0    0 -0.32766268845E+03 -0.16879477842E+03 -0.50255527543E+03  0.62323055083E+03  0.00000000000E+00 0. -1.
        -11    1    5    5    0    0 -0.52477715891E+00 -0.67802282004E+01 -0.43581834792E+02  0.44109219097E+02  0.00000000000E+00 0.  1.
          3    1    6    6  503    0  0.37987702414E+03  0.12497501005E+03 -0.21096476553E+03  0.45214095026E+03  0.00000000000E+00 0. -1.
         -3    1    6    6    0  503  0.50157370077E+02  0.45342985829E+02 -0.65293332943E+02  0.93994507625E+02  0.00000000000E+00 0.  1.
<mgrwt>
<rscale>  0 0.12049484E+04</rscale>
<asrwt>0</asrwt>
<pdfrwt beam="1">  1        2 0.53399866E-01 0.12049484E+04</pdfrwt>
<pdfrwt beam="2">  1       -1 0.16088297E+00 0.12049484E+04</pdfrwt>
<totfact> 0.30321790E+01</totfact>
</mgrwt>
</event>
<event>
12    6  0.1540825E-007  0.1814958E+04  0.7818608E-02  0.8698385E-01
          2   -1    0    0  501    0  0.00000000000E+00  0.00000000000E+00  0.21080000268E+04  0.21080000268E+04  0.00000000000E+00 0. -1.
         -1   -1    0    0    0  501 -0.00000000000E+00 -0.00000000000E+00 -0.39066341921E+03  0.39066341921E+03  0.00000000000E+00 0.  1.
         24    2    1    2    0    0 -0.51987633899E+03 -0.24954117417E+03  0.14313498562E+03  0.59952514164E+03  0.80003536810E+02 0.  0.
        254    2    1    2    0    0  0.51987633899E+03  0.24954117417E+03  0.15742016220E+04  0.18991383044E+04  0.89222942512E+03 0.  0.
         23    2    4    4    0    0  0.34144641347E+03  0.11337625079E+03  0.72015237799E+02  0.37781781937E+03  0.90112610919E+02 0.  0.
         23    2    4    4    0    0  0.17842992552E+03  0.13616492338E+03  0.15021863842E+04  0.15213204850E+04  0.86452070990E+02 0.  0.
          4    1    3    3  502    0 -0.23903068295E+03 -0.78889004290E+02  0.85794447477E+02  0.26593200185E+03  0.00000000000E+00 0. -1.
         -1    1    3    3    0  502 -0.28084565604E+03 -0.17065216988E+03  0.57340538147E+02  0.33359313980E+03  0.00000000000E+00 0.  1.
         11    1    5    5    0    0  0.67044247248E+02  0.59783867866E+02  0.32126852037E+02  0.95400086834E+02  0.00000000000E+00 0.  1.
        -11    1    5    5    0    0  0.27440216622E+03  0.53592382928E+02  0.39888385762E+02  0.28241773254E+03  0.00000000000E+00 0. -1.
          4    1    6    6  503    0  0.17993440285E+03  0.14525399294E+03  0.14510572245E+04  0.14693679528E+04  0.00000000000E+00 0. -1.
         -4    1    6    6    0  503 -0.15044773262E+01 -0.90890695592E+01  0.51129159657E+02  0.51952532227E+02  0.00000000000E+00 0.  1.
<mgrwt>
<rscale>  0 0.18149584E+04</rscale>
<asrwt>0</asrwt>
<pdfrwt beam="1">  1        2 0.32430769E+00 0.18149584E+04</pdfrwt>
<pdfrwt beam="2">  1       -1 0.60102066E-01 0.18149584E+04</pdfrwt>
<totfact> 0.17531287E+01</totfact>
</mgrwt>
</event>
<event>
12    6  0.1540825E-007  0.2079412E+04  0.7818608E-02  0.8570367E-01
         -1   -1    0    0    0  501 -0.00000000000E+00  0.00000000000E+00  0.17542456814E+04  0.17542456814E+04  0.00000000000E+00 0.  1.
          2   -1    0    0  501    0  0.00000000000E+00 -0.00000000000E+00 -0.61621265469E+03  0.61621265469E+03  0.00000000000E+00 0. -1.
         24    2    1    2    0    0 -0.31569138903E+03  0.11574311990E+03 -0.41834417308E+03  0.54240693919E+03  0.78332098261E+02 0.  0.
        254    2    1    2    0    0  0.31569138903E+03 -0.11574311990E+03  0.15563771998E+04  0.18280513969E+04  0.89800022202E+03 0.  0.
         23    2    4    4    0    0 -0.28320375804E+02 -0.44943502415E+03  0.61718215027E+03  0.76950517209E+03  0.91817855813E+02 0.  0.
         23    2    4    4    0    0  0.34401176483E+03  0.33369190424E+03  0.93919504951E+03  0.10585462248E+04  0.93479343721E+02 0.  0.
          4    1    3    3  502    0 -0.15910319454E+03  0.46994902040E+02 -0.14693714444E+03  0.22161424085E+03  0.00000000000E+00 0. -1.
         -3    1    3    3    0  502 -0.15658819449E+03  0.68748217861E+02 -0.27140702865E+03  0.32079269834E+03  0.00000000000E+00 0.  1.
         11    1    5    5    0    0 -0.34775942091E+02 -0.29186895014E+03  0.46657462183E+03  0.55144240673E+03  0.00000000000E+00 0. -1.
        -11    1    5    5    0    0  0.64555662865E+01 -0.15756607400E+03  0.15060752844E+03  0.21806276536E+03  0.00000000000E+00 0.  1.
          2    1    6    6  503    0  0.17139629612E+03  0.16218591094E+03  0.36153171588E+03  0.43172461317E+03  0.00000000000E+00 0. -1.
         -2    1    6    6    0  503  0.17261546871E+03  0.17150599331E+03  0.57766333363E+03  0.62682161163E+03  0.00000000000E+00 0.  1.
<mgrwt>
<rscale>  0 0.20794118E+04</rscale>
<asrwt>0</asrwt>
<pdfrwt beam="1">  1        2 0.94801948E-01 0.20794118E+04</pdfrwt>
<pdfrwt beam="2">  1       -1 0.26988395E+00 0.20794118E+04</pdfrwt>
<totfact> 0.26195494E+00</totfact>
</mgrwt>
</event>
<event>
12    6  0.1540825E-007  0.3666131E+04  0.7818608E-02  0.8075509E-01
          2   -1    0    0  501    0  0.00000000000E+00  0.00000000000E+00  0.13047611025E+04  0.13047611025E+04  0.00000000000E+00 0. -1.
         -1   -1    0    0    0  501 -0.00000000000E+00 -0.00000000000E+00 -0.25752823402E+04  0.25752823402E+04  0.00000000000E+00 0.  1.
         24    2    1    2    0    0  0.14604563413E+04  0.91144439289E+03 -0.60773030582E+03  0.18273915577E+04  0.79750701243E+02 0.  0.
        254    2    1    2    0    0 -0.14604563413E+04 -0.91144439289E+03 -0.66279093191E+03  0.20526518850E+04  0.90023571101E+03 0.  0.
         23    2    4    4    0    0  0.37987696151E+02  0.66336262964E+02  0.45065361526E+02  0.12633765477E+03  0.89926366321E+02 0.  0.
         23    2    4    4    0    0 -0.14984440375E+04 -0.97778065585E+03 -0.70785629343E+03  0.19263142302E+04  0.90754818486E+02 0.  0.
          4    1    3    3  502    0  0.10877115597E+04  0.69479157183E+03 -0.48899460493E+03  0.13802055967E+04  0.00000000000E+00 0. -1.
         -3    1    3    3    0  502  0.37274478164E+03  0.21665282106E+03 -0.11873570089E+03  0.44718596107E+03  0.00000000000E+00 0.  1.
         11    1    5    5    0    0  0.43775797462E+02  0.45559484839E+02  0.69378436737E+02  0.93836850897E+02  0.00000000000E+00 0. -1.
        -11    1    5    5    0    0 -0.57881013100E+01  0.20776778124E+02 -0.24313075211E+02  0.32500803870E+02  0.00000000000E+00 0.  1.
          1    1    6    6  503    0 -0.83066776016E+03 -0.51655149120E+03 -0.42962585721E+03  0.10683692002E+04  0.00000000000E+00 0. -1.
         -1    1    6    6    0  503 -0.66777627732E+03 -0.46122916465E+03 -0.27823043622E+03  0.85794503001E+03  0.00000000000E+00 0.  1.
<mgrwt>
<rscale>  0 0.36661305E+04</rscale>
<asrwt>0</asrwt>
<pdfrwt beam="1">  1        2 0.20073248E+00 0.36661305E+04</pdfrwt>
<pdfrwt beam="2">  1       -1 0.39619728E+00 0.36661305E+04</pdfrwt>
<totfact> 0.11509930E-01</totfact>
</mgrwt>
</event>
<event>
12    6  0.1540825E-007  0.2615239E+04  0.7818608E-02  0.8363043E-01
         -1   -1    0    0    0  501 -0.00000000000E+00  0.00000000000E+00  0.43166551349E+03  0.43166551349E+03  0.00000000000E+00 0.  1.
          2   -1    0    0  501    0  0.00000000000E+00 -0.00000000000E+00 -0.39610959826E+04  0.39610959826E+04  0.00000000000E+00 0. -1.
         24    2    1    2    0    0  0.11370878207E+03  0.92200856785E+03 -0.41901084141E+03  0.10222305603E+04  0.79722938413E+02 0.  0.
        254    2    1    2    0    0 -0.11370878207E+03 -0.92200856785E+03 -0.31104196277E+04  0.33705309358E+04  0.90704963609E+03 0.  0.
         23    2    4    4    0    0 -0.39306268726E+03 -0.91071588057E+03 -0.25479974762E+04  0.27358549385E+04  0.93324243775E+02 0.  0.
         23    2    4    4    0    0  0.27935390519E+03 -0.11292687277E+02 -0.56242215150E+03  0.63467599729E+03  0.91262346593E+02 0.  0.
          4    1    3    3  502    0  0.46634648631E+02  0.32790533579E+03 -0.19112927244E+03  0.38239651995E+03  0.00000000000E+00 0. -1.
         -3    1    3    3    0  502  0.67074133436E+02  0.59410323206E+03 -0.22788156897E+03  0.63983404035E+03  0.00000000000E+00 0.  1.
         11    1    5    5    0    0 -0.15415412131E+03 -0.25307533734E+03 -0.78792245344E+03  0.84180307206E+03  0.00000000000E+00 0.  1.
        -11    1    5    5    0    0 -0.23890856594E+03 -0.65764054323E+03 -0.17600750228E+04  0.18940518664E+04  0.00000000000E+00 0. -1.
          1    1    6    6  503    0  0.25635763803E+03  0.13876471377E+02 -0.52257868370E+03  0.58223730187E+03  0.00000000000E+00 0. -1.
         -1    1    6    6    0  503  0.22996267164E+02 -0.25169158654E+02 -0.39843467801E+02  0.52438695419E+02  0.00000000000E+00 0.  1.
<mgrwt>
<rscale>  0 0.26152388E+04</rscale>
<asrwt>0</asrwt>
<pdfrwt beam="1">  1        2 0.60939942E+00 0.26152388E+04</pdfrwt>
<pdfrwt beam="2">  1       -1 0.66410075E-01 0.26152388E+04</pdfrwt>
<totfact> 0.85043554E-01</totfact>
</mgrwt>
</event>
<event>
12    6  0.1540825E-007  0.1807766E+04  0.7818608E-02  0.8702180E-01
         -1   -1    0    0    0  501 -0.00000000000E+00  0.00000000000E+00  0.31294194761E+03  0.31294194761E+03  0.00000000000E+00 0.  1.
          2   -1    0    0  501    0  0.00000000000E+00 -0.00000000000E+00 -0.26107233279E+04  0.26107233279E+04  0.00000000000E+00 0. -1.
         24    2    1    2    0    0 -0.29008909394E+03  0.42550019612E+03 -0.14969441298E+03  0.54254411792E+03  0.82119445234E+02 0.  0.
        254    2    1    2    0    0  0.29008909394E+03 -0.42550019612E+03 -0.21480869674E+04  0.23811211576E+04  0.88896470609E+03 0.  0.
         23    2    4    4    0    0 -0.14282462081E+03  0.73999589686E+02 -0.69565434934E+02  0.19798531152E+03  0.92108752343E+02 0.  0.
         23    2    4    4    0    0  0.43291371474E+03 -0.49949978581E+03 -0.20785215324E+04  0.21831358461E+04  0.94424792255E+02 0.  0.
          4    1    3    3  502    0 -0.67205292155E+02  0.53291597975E+02 -0.79566644152E+01  0.86138575661E+02  0.00000000000E+00 0. -1.
         -3    1    3    3    0  502 -0.22288380178E+03  0.37220859815E+03 -0.14173774856E+03  0.45640554226E+03  0.00000000000E+00 0.  1.
         11    1    5    5    0    0 -0.84637109227E+02  0.56474263741E+00 -0.60117851331E+02  0.10381673873E+03  0.00000000000E+00 0.  1.
        -11    1    5    5    0    0 -0.58187511578E+02  0.73434847049E+02 -0.94475836035E+01  0.94168572787E+02  0.00000000000E+00 0. -1.
          2    1    6    6  503    0  0.15589034995E+03 -0.15374095603E+03 -0.55925197403E+03  0.60058376037E+03  0.00000000000E+00 0.  1.
         -2    1    6    6    0  503  0.27702336480E+03 -0.34575882978E+03 -0.15192695584E+04  0.15825520857E+04  0.00000000000E+00 0. -1.
<mgrwt>
<rscale>  0 0.18077664E+04</rscale>
<asrwt>0</asrwt>
<pdfrwt beam="1">  1        2 0.40164973E+00 0.18077664E+04</pdfrwt>
<pdfrwt beam="2">  1       -1 0.48144916E-01 0.18077664E+04</pdfrwt>
<totfact> 0.13917971E+01</totfact>
</mgrwt>
</event>
<event>
12    6  0.1540825E-007  0.1361758E+04  0.7818608E-02  0.8981975E-01
         -1   -1    0    0    0  501 -0.00000000000E+00  0.00000000000E+00  0.14605188090E+04  0.14605188090E+04  0.00000000000E+00 0.  1.
          2   -1    0    0  501    0  0.00000000000E+00 -0.00000000000E+00 -0.31741902705E+03  0.31741902705E+03  0.00000000000E+00 0. -1.
         24    2    1    2    0    0  0.10584365614E+03 -0.31566803088E+03  0.55004192497E+03  0.64917020701E+03  0.89591591033E+02 0.  0.
        254    2    1    2    0    0 -0.10584365614E+03  0.31566803088E+03  0.59305785693E+03  0.11287676290E+04  0.90086045163E+03 0.  0.
         23    2    4    4    0    0 -0.18519051603E+02  0.55909742544E+03  0.63542457649E+03  0.85097399319E+03  0.86368155506E+02 0.  0.
         23    2    4    4    0    0 -0.87324604541E+02 -0.24342939456E+03 -0.42366719560E+02  0.27779363579E+03  0.92146125619E+02 0.  0.
          4    1    3    3  502    0  0.18561569043E+02 -0.18378664235E+03  0.26204824473E+03  0.32061089239E+03  0.00000000000E+00 0. -1.
         -3    1    3    3    0  502  0.87282087101E+02 -0.13188138853E+03  0.28799368024E+03  0.32855931462E+03  0.00000000000E+00 0.  1.
         11    1    5    5    0    0  0.18788310942E+02  0.26016876107E+03  0.34516851546E+03  0.43264545407E+03  0.00000000000E+00 0.  1.
        -11    1    5    5    0    0 -0.37307362545E+02  0.29892866437E+03  0.29025606103E+03  0.41832853912E+03  0.00000000000E+00 0. -1.
          4    1    6    6  503    0 -0.85380576220E+02 -0.18360929691E+03 -0.66688271592E+02  0.21318898253E+03  0.00000000000E+00 0. -1.
         -4    1    6    6    0  503 -0.19440283210E+01 -0.59820097654E+02  0.24321552032E+02  0.64604653259E+02  0.00000000000E+00 0.  1.
<mgrwt>
<rscale>  0 0.13617584E+04</rscale>
<asrwt>0</asrwt>
<pdfrwt beam="1">  1        2 0.48833697E-01 0.13617584E+04</pdfrwt>
<pdfrwt beam="2">  1       -1 0.22469520E+00 0.13617584E+04</pdfrwt>
<totfact> 0.11800208E+01</totfact>
</mgrwt>
</event>
<event>
12    6  0.1540825E-007  0.1331411E+04  0.7818608E-02  0.9005020E-01
          2   -1    0    0  501    0  0.00000000000E+00  0.00000000000E+00  0.11881714824E+04  0.11881714824E+04  0.00000000000E+00 0. -1.
         -1   -1    0    0    0  501 -0.00000000000E+00 -0.00000000000E+00 -0.37297981665E+03  0.37297981665E+03  0.00000000000E+00 0.  1.
         24    2    1    2    0    0 -0.98616434281E+02 -0.11705506018E+03  0.60654344948E+03  0.63085506667E+03  0.81584746167E+02 0.  0.
        254    2    1    2    0    0  0.98616434281E+02  0.11705506018E+03  0.20864821628E+03  0.93029623240E+03  0.89358262832E+03 0.  0.
         23    2    4    4    0    0 -0.52442650008E+02  0.48236019655E+03  0.55351342428E+02  0.49657738523E+03  0.90020762329E+02 0.  0.
         23    2    4    4    0    0  0.15105908429E+03 -0.36530513638E+03  0.15329687385E+03  0.43371884717E+03  0.91353255290E+02 0.  0.
          4    1    3    3  502    0 -0.66918070432E+02 -0.19432792381E+02  0.21083925987E+03  0.22205597284E+03  0.00000000000E+00 0. -1.
         -3    1    3    3    0  502 -0.31698363850E+02 -0.97622267796E+02  0.39570418961E+03  0.40879909382E+03  0.00000000000E+00 0.  1.
         11    1    5    5    0    0  0.19952529041E+02  0.20912668041E+03  0.10122830908E+02  0.21032009790E+03  0.00000000000E+00 0. -1.
        -11    1    5    5    0    0 -0.72395179049E+02  0.27323351614E+03  0.45228511521E+02  0.28625728732E+03  0.00000000000E+00 0.  1.
          4    1    6    6  503    0  0.16803757793E+02 -0.10843053388E+03  0.76859251213E+02  0.13396600856E+03  0.00000000000E+00 0. -1.
         -4    1    6    6    0  503  0.13425532650E+03 -0.25687460250E+03  0.76437622638E+02  0.29975283861E+03  0.00000000000E+00 0.  1.
<mgrwt>
<rscale>  0 0.13314113E+04</rscale>
<asrwt>0</asrwt>
<pdfrwt beam="1">  1        2 0.18279561E+00 0.13314113E+04</pdfrwt>
<pdfrwt beam="2">  1       -1 0.57381511E-01 0.13314113E+04</pdfrwt>
<totfact> 0.66029630E+01</totfact>
</mgrwt>
</event>
<event>
12    6  0.1540825E-007  0.1546107E+04  0.7818608E-02  0.8854358E-01
          4   -1    0    0  501    0  0.00000000000E+00  0.00000000000E+00  0.11091515553E+04  0.11091515553E+04  0.00000000000E+00 0. -1.
         -3   -1    0    0    0  501 -0.00000000000E+00 -0.00000000000E+00 -0.53880057308E+03  0.53880057308E+03  0.00000000000E+00 0.  1.
         24    2    1    2    0    0  0.26488468762E+02 -0.77419919823E+02 -0.34557738279E+03  0.36374872677E+03  0.78701497856E+02 0.  0.
        254    2    1    2    0    0 -0.26488468762E+02  0.77419919823E+02  0.91592836501E+03  0.12842034016E+04  0.89641403599E+03 0.  0.
         23    2    4    4    0    0 -0.19877338558E+03  0.10234598233E+03  0.10303138149E+04  0.10581465399E+04  0.90232942110E+02 0.  0.
         23    2    4    4    0    0  0.17228491681E+03 -0.24926062511E+02 -0.11438544988E+03  0.22605686171E+03  0.87830930938E+02 0.  0.
          2    1    3    3  502    0  0.50051819895E+02 -0.46530867746E+02 -0.15728637406E+03  0.17149142775E+03  0.00000000000E+00 0. -1.
         -1    1    3    3    0  502 -0.23563351133E+02 -0.30889052077E+02 -0.18829100873E+03  0.19225729902E+03  0.00000000000E+00 0.  1.
         11    1    5    5    0    0 -0.10159001084E+03  0.27569145252E+02  0.30782336870E+03  0.32532416816E+03  0.00000000000E+00 0.  1.
        -11    1    5    5    0    0 -0.97183374739E+02  0.74776837083E+02  0.72249044618E+03  0.73282237173E+03  0.00000000000E+00 0. -1.
          2    1    6    6  503    0  0.39634773417E+02 -0.12785422263E+02 -0.77269645861E+02  0.87778018078E+02  0.00000000000E+00 0. -1.
         -2    1    6    6    0  503  0.13265014340E+03 -0.12140640249E+02 -0.37115804016E+02  0.13827884363E+03  0.00000000000E+00 0.  1.
<mgrwt>
<rscale>  0 0.15461067E+04</rscale>
<asrwt>0</asrwt>
<pdfrwt beam="1">  1        4 0.17063870E+00 0.15461067E+04</pdfrwt>
<pdfrwt beam="2">  1       -3 0.82892396E-01 0.15461067E+04</pdfrwt>
<totfact> 0.61862681E-01</totfact>
</mgrwt>
</event>
<event>
12    6  0.1540825E-007  0.2302983E+04  0.7818608E-02  0.8476746E-01
          2   -1    0    0  501    0  0.00000000000E+00  0.00000000000E+00  0.24427372990E+04  0.24427372990E+04  0.00000000000E+00 0. -1.
         -1   -1    0    0    0  501 -0.00000000000E+00 -0.00000000000E+00 -0.54280620891E+03  0.54280620891E+03  0.00000000000E+00 0.  1.
         24    2    1    2    0    0  0.95875704466E+03  0.58993365582E+02  0.58734534544E+03  0.11289744152E+04  0.83146782494E+02 0.  0.
        254    2    1    2    0    0 -0.95875704466E+03 -0.58993365582E+02  0.13125857447E+04  0.18565690927E+04  0.89513807379E+03 0.  0.
         23    2    4    4    0    0 -0.28958623974E+03 -0.43710018968E+03  0.45353576521E+03  0.70014797241E+03  0.97957781114E+02 0.  0.
         23    2    4    4    0    0 -0.66917080492E+03  0.37810682409E+03  0.85904997944E+03  0.11564211203E+04  0.92674720211E+02 0.  0.
          4    1    3    3  502    0  0.15793808467E+02  0.10659696269E+02  0.52573008269E+01  0.19766454473E+02  0.00000000000E+00 0. -1.
         -3    1    3    3    0  502  0.94296323619E+03  0.48333669312E+02  0.58208804461E+03  0.11092079607E+04  0.00000000000E+00 0.  1.
         11    1    5    5    0    0 -0.17615505388E+02 -0.46746803011E+02  0.12689075097E+02  0.51542043505E+02  0.00000000000E+00 0.  1.
        -11    1    5    5    0    0 -0.27197073435E+03 -0.39035338667E+03  0.44084669012E+03  0.64860592890E+03  0.00000000000E+00 0. -1.
          3    1    6    6  503    0 -0.47700447858E+03  0.31614504564E+03  0.63334663676E+03  0.85358592113E+03  0.00000000000E+00 0. -1.
         -3    1    6    6    0  503 -0.19216632635E+03  0.61961778457E+02  0.22570334268E+03  0.30283519919E+03  0.00000000000E+00 0.  1.
<mgrwt>
<rscale>  0 0.23029833E+04</rscale>
<asrwt>0</asrwt>
<pdfrwt beam="1">  1        2 0.37580573E+00 0.23029833E+04</pdfrwt>
<pdfrwt beam="2">  1       -1 0.83508649E-01 0.23029833E+04</pdfrwt>
<totfact> 0.55113233E+00</totfact>
</mgrwt>
</event>
<event>
12    6  0.1540825E-007  0.2066394E+04  0.7818608E-02  0.8576193E-01
          2   -1    0    0  501    0  0.00000000000E+00  0.00000000000E+00  0.14522877130E+04  0.14522877130E+04  0.00000000000E+00 0. -1.
         -1   -1    0    0    0  501 -0.00000000000E+00 -0.00000000000E+00 -0.73504453580E+03  0.73504453580E+03  0.00000000000E+00 0.  1.
         24    2    1    2    0    0 -0.75383137215E+03 -0.10761676685E+03 -0.74747272634E+02  0.76939919073E+03  0.80900270603E+02 0.  0.
        254    2    1    2    0    0  0.75383137215E+03  0.10761676685E+03  0.79199044988E+03  0.14179330581E+04  0.89634936181E+03 0.  0.
         23    2    4    4    0    0  0.89867065489E+02 -0.33046738853E+03  0.37105741284E+03  0.51322287558E+03  0.91811393905E+02 0.  0.
         23    2    4    4    0    0  0.66396430667E+03  0.43808415538E+03  0.42093303704E+03  0.90471018253E+03  0.92463857680E+02 0.  0.
          4    1    3    3  502    0 -0.39042688383E+03 -0.30714526899E+02 -0.70467051059E+02  0.39792227767E+03  0.00000000000E+00 0. -1.
         -3    1    3    3    0  502 -0.36340448833E+03 -0.76902239947E+02 -0.42802215751E+01  0.37147691307E+03  0.00000000000E+00 0.  1.
         11    1    5    5    0    0  0.10006804779E+03 -0.25122519563E+03  0.25064410698E+03  0.36871422738E+03  0.00000000000E+00 0. -1.
        -11    1    5    5    0    0 -0.10200982305E+02 -0.79242192899E+02  0.12041330586E+03  0.14450864820E+03  0.00000000000E+00 0.  1.
          1    1    6    6  503    0  0.53339219797E+03  0.30526785522E+03  0.32388743853E+03  0.69469329428E+03  0.00000000000E+00 0. -1.
         -1    1    6    6    0  503  0.13057210870E+03  0.13281630016E+03  0.97045598510E+02  0.21001688824E+03  0.00000000000E+00 0.  1.
<mgrwt>
<rscale>  0 0.20663941E+04</rscale>
<asrwt>0</asrwt>
<pdfrwt beam="1">  1        2 0.22342888E+00 0.20663941E+04</pdfrwt>
<pdfrwt beam="2">  1       -1 0.11308377E+00 0.20663941E+04</pdfrwt>
<totfact> 0.10165350E+01</totfact>
</mgrwt>
</event>
<event>
12    6  0.1540825E-007  0.1862931E+04  0.7818608E-02  0.8673531E-01
         -1   -1    0    0    0  501 -0.00000000000E+00  0.00000000000E+00  0.31685541383E+03  0.31685541383E+03  0.00000000000E+00 0.  1.
          2   -1    0    0  501    0  0.00000000000E+00 -0.00000000000E+00 -0.27382467305E+04  0.27382467305E+04  0.00000000000E+00 0. -1.
         24    2    1    2    0    0 -0.16856854312E+03  0.10028277783E+03  0.18762060092E+03  0.28298008819E+03  0.80026565360E+02 0.  0.
        254    2    1    2    0    0  0.16856854312E+03 -0.10028277783E+03 -0.26090119176E+04  0.27721220561E+04  0.91610344330E+03 0.  0.
         23    2    4    4    0    0 -0.40993487050E+02 -0.29055013694E+03 -0.25542672888E+03  0.39975513545E+03  0.91986446995E+02 0.  0.
         23    2    4    4    0    0  0.20956203017E+03  0.19026735911E+03 -0.23535851887E+04  0.23723669207E+04  0.92971251120E+02 0.  0.
          4    1    3    3  502    0 -0.10194474137E+03  0.56262214135E+02  0.16122771742E+03  0.19887821373E+03  0.00000000000E+00 0. -1.
         -3    1    3    3    0  502 -0.66623801749E+02  0.44020563696E+02  0.26392883494E+02  0.84101874454E+02  0.00000000000E+00 0.  1.
         11    1    5    5    0    0 -0.70521143252E+02 -0.21985385189E+03 -0.19287006824E+03  0.30084516127E+03  0.00000000000E+00 0. -1.
        -11    1    5    5    0    0  0.29527656202E+02 -0.70696285056E+02 -0.62556660639E+02  0.98909974177E+02  0.00000000000E+00 0.  1.
          1    1    6    6  503    0  0.24591252243E+02 -0.46872773869E+01 -0.11405083476E+03  0.11676597606E+03  0.00000000000E+00 0. -1.
         -1    1    6    6    0  503  0.18497077793E+03  0.19495463650E+03 -0.22395343539E+04  0.22556009446E+04  0.00000000000E+00 0.  1.
<mgrwt>
<rscale>  0 0.18629313E+04</rscale>
<asrwt>0</asrwt>
<pdfrwt beam="1">  1        2 0.42126872E+00 0.18629313E+04</pdfrwt>
<pdfrwt beam="2">  1       -1 0.48746988E-01 0.18629313E+04</pdfrwt>
<totfact> 0.11370342E+01</totfact>
</mgrwt>
</event>
<event>
12    6  0.1540825E-007  0.3425825E+04  0.7818608E-02  0.8131597E-01
          2   -1    0    0  501    0  0.00000000000E+00  0.00000000000E+00  0.22905761659E+04  0.22905761659E+04  0.00000000000E+00 0. -1.
         -1   -1    0    0    0  501 -0.00000000000E+00 -0.00000000000E+00 -0.12809307409E+04  0.12809307409E+04  0.00000000000E+00 0.  1.
         24    2    1    2    0    0 -0.14238575490E+04  0.11311570382E+03  0.12052547821E+04  0.18705895916E+04  0.79377883126E+02 0.  0.
        254    2    1    2    0    0  0.14238575490E+04 -0.11311570382E+03 -0.19560935709E+03  0.17009173151E+04  0.90260246506E+03 0.  0.
         23    2    4    4    0    0  0.38325610931E+03 -0.26663182576E+03 -0.40419378272E+03  0.62463207709E+03  0.93887389562E+02 0.  0.
         23    2    4    4    0    0  0.10406014397E+04  0.15351612194E+03  0.20858442563E+03  0.10762852380E+04  0.91999429094E+02 0.  0.
          2    1    3    3  502    0 -0.11348039175E+04  0.11715705031E+03  0.93897459751E+03  0.14775584592E+04  0.00000000000E+00 0. -1.
         -1    1    3    3    0  502 -0.28905363150E+03 -0.40413464898E+01  0.26628018460E+03  0.39303113245E+03  0.00000000000E+00 0.  1.
         11    1    5    5    0    0  0.69794492500E+02 -0.93651157408E+01 -0.67722800438E+02  0.97700328942E+02  0.00000000000E+00 0. -1.
        -11    1    5    5    0    0  0.31346161681E+03 -0.25726671002E+03 -0.33647098228E+03  0.52693174815E+03  0.00000000000E+00 0.  1.
          2    1    6    6  503    0  0.31149872905E+03  0.21237987824E+02  0.27206439204E+02  0.31340501058E+03  0.00000000000E+00 0. -1.
         -2    1    6    6    0  503  0.72910271063E+03  0.13227813411E+03  0.18137798642E+03  0.76288022741E+03  0.00000000000E+00 0.  1.
<mgrwt>
<rscale>  0 0.34258251E+04</rscale>
<asrwt>0</asrwt>
<pdfrwt beam="1">  1        2 0.35239633E+00 0.34258251E+04</pdfrwt>
<pdfrwt beam="2">  1       -1 0.19706627E+00 0.34258251E+04</pdfrwt>
<totfact> 0.68026163E-01</totfact>
</mgrwt>
</event>
<event>
12    6  0.1540825E-007  0.1681181E+04  0.7818608E-02  0.8772171E-01
         -1   -1    0    0    0  501 -0.00000000000E+00  0.00000000000E+00  0.10714196414E+04  0.10714196414E+04  0.00000000000E+00 0.  1.
          2   -1    0    0  501    0  0.00000000000E+00 -0.00000000000E+00 -0.65949188902E+03  0.65949188902E+03  0.00000000000E+00 0. -1.
         24    2    1    2    0    0 -0.11623115910E+03  0.39150488909E+02  0.74339382098E+03  0.75744965064E+03  0.77802037544E+02 0.  0.
        254    2    1    2    0    0  0.11623115910E+03 -0.39150488909E+02 -0.33146606860E+03  0.97346187979E+03  0.90703684250E+03 0.  0.
         23    2    4    4    0    0 -0.33095225010E+03  0.58643076839E+02 -0.36592436485E+03  0.50559405914E+03  0.93575154501E+02 0.  0.
         23    2    4    4    0    0  0.44718340920E+03 -0.97793565748E+02  0.34458296250E+02  0.46786782065E+03  0.90423119026E+02 0.  0.
          4    1    3    3  502    0  0.15867042500E+01 -0.10294298252E+02  0.15465084412E+03  0.15500120578E+03  0.00000000000E+00 0. -1.
         -3    1    3    3    0  502 -0.11781786335E+03  0.49444787161E+02  0.58874297686E+03  0.60244844486E+03  0.00000000000E+00 0.  1.
         11    1    5    5    0    0 -0.11331355633E+03  0.28306819007E+02 -0.19458931571E+03  0.22694986195E+03  0.00000000000E+00 0.  1.
        -11    1    5    5    0    0 -0.21763869377E+03  0.30336257832E+02 -0.17133504914E+03  0.27864419719E+03  0.00000000000E+00 0. -1.
          4    1    6    6  503    0  0.42720242731E+03 -0.73381453238E+02  0.41825652478E+02  0.43547231460E+03  0.00000000000E+00 0. -1.
         -4    1    6    6    0  503  0.19980981894E+02 -0.24412112510E+02 -0.73673562284E+01  0.32395506054E+02  0.00000000000E+00 0.  1.
<mgrwt>
<rscale>  0 0.16811812E+04</rscale>
<asrwt>0</asrwt>
<pdfrwt beam="1">  1        2 0.10146029E+00 0.16811812E+04</pdfrwt>
<pdfrwt beam="2">  1       -1 0.16483379E+00 0.16811812E+04</pdfrwt>
<totfact> 0.12917232E+01</totfact>
</mgrwt>
</event>
<event>
12    6  0.1540825E-007  0.2893608E+04  0.7818608E-02  0.8274782E-01
          2   -1    0    0  501    0  0.00000000000E+00  0.00000000000E+00  0.11657070754E+04  0.11657070754E+04  0.00000000000E+00 0. -1.
         -1   -1    0    0    0  501 -0.00000000000E+00 -0.00000000000E+00 -0.17956836500E+04  0.17956836500E+04  0.00000000000E+00 0.  1.
         24    2    1    2    0    0  0.32415530117E+03 -0.36013995527E+03  0.95647941028E+03  0.10751916523E+04  0.80042365571E+02 0.  0.
        254    2    1    2    0    0 -0.32415530117E+03  0.36013995527E+03 -0.15864559849E+04  0.18861990730E+04  0.89784570198E+03 0.  0.
         23    2    4    4    0    0 -0.44909184249E+03  0.36176898605E+03 -0.44526953875E+03  0.73454278720E+03  0.93423026302E+02 0.  0.
         23    2    4    4    0    0  0.12493654132E+03 -0.16290307779E+01 -0.11411864461E+04  0.11516562858E+04  0.91618244884E+02 0.  0.
          2    1    3    3  502    0  0.27639269411E+03 -0.34267605778E+03  0.85770925969E+03  0.96409801166E+03  0.00000000000E+00 0. -1.
         -1    1    3    3    0  502  0.47762607058E+02 -0.17463897489E+02  0.98770150591E+02  0.11109364066E+03  0.00000000000E+00 0.  1.
         11    1    5    5    0    0 -0.20241784641E+03  0.14905149759E+03 -0.25126145587E+03  0.35541757510E+03  0.00000000000E+00 0.  1.
        -11    1    5    5    0    0 -0.24667399608E+03  0.21271748846E+03 -0.19400808287E+03  0.37912521211E+03  0.00000000000E+00 0. -1.
          4    1    6    6  503    0  0.63883336086E+01 -0.19730668029E+02 -0.42446616988E+03  0.42497251610E+03  0.00000000000E+00 0. -1.
         -4    1    6    6    0  503  0.11854820771E+03  0.18101637251E+02 -0.71672027623E+03  0.72668376973E+03  0.00000000000E+00 0.  1.
<mgrwt>
<rscale>  0 0.28936075E+04</rscale>
<asrwt>0</asrwt>
<pdfrwt beam="1">  1        2 0.17933955E+00 0.28936075E+04</pdfrwt>
<pdfrwt beam="2">  1       -1 0.27625902E+00 0.28936075E+04</pdfrwt>
<totfact> 0.91960961E-01</totfact>
</mgrwt>
</event>
<event>
12    6  0.1540825E-007  0.1458365E+04  0.7818608E-02  0.8912622E-01
          2   -1    0    0  501    0  0.00000000000E+00  0.00000000000E+00  0.14134965818E+04  0.14134965818E+04  0.00000000000E+00 0. -1.
         -1   -1    0    0    0  501 -0.00000000000E+00 -0.00000000000E+00 -0.37616440494E+03  0.37616440494E+03  0.00000000000E+00 0.  1.
         24    2    1    2    0    0 -0.93329791027E+02 -0.79165319637E+02 -0.20533481703E+03  0.25289512988E+03  0.82558839054E+02 0.  0.
        254    2    1    2    0    0  0.93329791027E+02  0.79165319637E+02  0.12426669939E+04  0.15367658568E+04  0.89579598311E+03 0.  0.
         23    2    4    4    0    0  0.18224276013E+03 -0.28883637938E+03  0.16452949623E+03  0.39005109183E+03  0.91820593752E+02 0.  0.
         23    2    4    4    0    0 -0.88912969103E+02  0.36800169901E+03  0.10781374976E+04  0.11467147650E+04  0.96143236480E+02 0.  0.
          4    1    3    3  502    0 -0.14316462151E+02  0.36594999824E+01 -0.87035878572E+02  0.88281352433E+02  0.00000000000E+00 0. -1.
         -3    1    3    3    0  502 -0.79013328876E+02 -0.82824819619E+02 -0.11829893846E+03  0.16461377745E+03  0.00000000000E+00 0.  1.
         11    1    5    5    0    0  0.18174823790E+03 -0.22491311487E+03  0.14302499932E+03  0.32260576816E+03  0.00000000000E+00 0. -1.
        -11    1    5    5    0    0  0.49452222845E+00 -0.63923264506E+02  0.21504496913E+02  0.67445323669E+02  0.00000000000E+00 0.  1.
          1    1    6    6  503    0 -0.91959852731E+02  0.27371903362E+03  0.89934074236E+03  0.94455941833E+03  0.00000000000E+00 0. -1.
         -1    1    6    6    0  503  0.30468836279E+01  0.94282665391E+02  0.17879675526E+03  0.20215534666E+03  0.00000000000E+00 0.  1.
<mgrwt>
<rscale>  0 0.14583650E+04</rscale>
<asrwt>0</asrwt>
<pdfrwt beam="1">  1        2 0.21746101E+00 0.14583650E+04</pdfrwt>
<pdfrwt beam="2">  1       -1 0.57871448E-01 0.14583650E+04</pdfrwt>
<totfact> 0.47490503E+01</totfact>
</mgrwt>
</event>
<event>
12    6  0.1540825E-007  0.1271090E+04  0.7818608E-02  0.9052810E-01
         -1   -1    0    0    0  501 -0.00000000000E+00  0.00000000000E+00  0.17330383877E+03  0.17330383877E+03  0.00000000000E+00 0.  1.
          2   -1    0    0  501    0  0.00000000000E+00 -0.00000000000E+00 -0.23306907750E+04  0.23306907750E+04  0.00000000000E+00 0. -1.
         24    2    1    2    0    0 -0.22913889850E+03  0.18167892189E+03 -0.33961332119E+03  0.45524259408E+03  0.79979660352E+02 0.  0.
        254    2    1    2    0    0  0.22913889850E+03 -0.18167892189E+03 -0.18177736150E+04  0.20487520197E+04  0.89865013059E+03 0.  0.
         23    2    4    4    0    0  0.10710803085E+03 -0.21225637495E+03 -0.18682337767E+04  0.18855594158E+04  0.92260321140E+02 0.  0.
         23    2    4    4    0    0  0.12203086765E+03  0.30577453064E+02  0.50460161683E+02  0.16319260395E+03  0.90879506876E+02 0.  0.
          2    1    3    3  502    0 -0.22597817171E+03  0.18108438214E+03 -0.34409127842E+03  0.44972935798E+03  0.00000000000E+00 0. -1.
         -1    1    3    3    0  502 -0.31607267890E+01  0.59453974347E+00  0.44779572280E+01  0.55132360984E+01  0.00000000000E+00 0.  1.
         11    1    5    5    0    0  0.47370664570E+02 -0.15983306843E+03 -0.14737770058E+04  0.14831753950E+04  0.00000000000E+00 0.  1.
        -11    1    5    5    0    0  0.59737366280E+02 -0.52423306522E+02 -0.39445677093E+03  0.40238402072E+03  0.00000000000E+00 0. -1.
          1    1    6    6  503    0  0.79772969866E+01 -0.25269961398E+02 -0.11517221845E+00  0.26499461899E+02  0.00000000000E+00 0. -1.
         -1    1    6    6    0  503  0.11405357067E+03  0.55847414462E+02  0.50575333901E+02  0.13669314205E+03  0.00000000000E+00 0.  1.
<mgrwt>
<rscale>  0 0.12710903E+04</rscale>
<asrwt>0</asrwt>
<pdfrwt beam="1">  1        2 0.35856778E+00 0.12710903E+04</pdfrwt>
<pdfrwt beam="2">  1       -1 0.26662131E-01 0.12710903E+04</pdfrwt>
<totfact> 0.61278669E+01</totfact>
</mgrwt>
</event>
<event>
12    6  0.1540825E-007  0.2354759E+04  0.7818608E-02  0.8456638E-01
         -1   -1    0    0    0  501 -0.00000000000E+00  0.00000000000E+00  0.14520304803E+04  0.14520304803E+04  0.00000000000E+00 0.  1.
          2   -1    0    0  501    0  0.00000000000E+00 -0.00000000000E+00 -0.95467826236E+03  0.95467826236E+03  0.00000000000E+00 0. -1.
         24    2    1    2    0    0 -0.10079126032E+03  0.95680754927E+03  0.50238878467E+03  0.10884993799E+04  0.82442978005E+02 0.  0.
        254    2    1    2    0    0  0.10079126032E+03 -0.95680754927E+03 -0.50365666855E+01  0.13182093628E+04  0.90111652555E+03 0.  0.
         23    2    4    4    0    0  0.39019168885E+02 -0.54966409005E+02  0.33069805957E+03  0.34968075504E+03  0.91496569259E+02 0.  0.
         23    2    4    4    0    0  0.61772091439E+02 -0.90184114027E+03 -0.33573462626E+03  0.96852860774E+03  0.90535579646E+02 0.  0.
          2    1    3    3  502    0 -0.12931411947E+02  0.24079151623E+03  0.16448575016E+03  0.29189610773E+03  0.00000000000E+00 0. -1.
         -1    1    3    3    0  502 -0.87859848377E+02  0.71601603304E+03  0.33790303451E+03  0.79660327219E+03  0.00000000000E+00 0.  1.
         11    1    5    5    0    0 -0.25459495072E+02 -0.36331553913E+02  0.99600875769E+02  0.10903440811E+03  0.00000000000E+00 0.  1.
        -11    1    5    5    0    0  0.64478663957E+02 -0.18634855093E+02  0.23109718380E+03  0.24064634693E+03  0.00000000000E+00 0. -1.
          4    1    6    6  503    0  0.54036356704E+01 -0.66106666882E+03 -0.23782295220E+03  0.70256536813E+03  0.00000000000E+00 0. -1.
         -4    1    6    6    0  503  0.56368455769E+02 -0.24077447144E+03 -0.97911674056E+02  0.26596323961E+03  0.00000000000E+00 0.  1.
<mgrwt>
<rscale>  0 0.23547585E+04</rscale>
<asrwt>0</asrwt>
<pdfrwt beam="1">  1        2 0.14687358E+00 0.23547585E+04</pdfrwt>
<pdfrwt beam="2">  1       -1 0.22338930E+00 0.23547585E+04</pdfrwt>
<totfact> 0.28980613E+00</totfact>
</mgrwt>
</event>
<event>
12    6  0.1540825E-007  0.1460424E+04  0.7818608E-02  0.8911206E-01
          2   -1    0    0  501    0  0.00000000000E+00  0.00000000000E+00  0.17686225769E+04  0.17686225769E+04  0.00000000000E+00 0. -1.
         -1   -1    0    0    0  501 -0.00000000000E+00 -0.00000000000E+00 -0.30148285525E+03  0.30148285525E+03  0.00000000000E+00 0.  1.
         24    2    1    2    0    0  0.47179572986E+02 -0.17928585007E+03 -0.12388237071E+03  0.23851119387E+03  0.84684235155E+02 0.  0.
        254    2    1    2    0    0 -0.47179572986E+02  0.17928585007E+03  0.15910220924E+04  0.18315942383E+04  0.88826619162E+03 0.  0.
         23    2    4    4    0    0  0.18381614363E+03  0.45489496051E+03  0.11540765577E+04  0.12580795600E+04  0.10076546302E+03 0.  0.
         23    2    4    4    0    0 -0.23099571662E+03 -0.27560911044E+03  0.43694553467E+03  0.57351467827E+03  0.93157302840E+02 0.  0.
          2    1    3    3  502    0  0.36524553110E+02 -0.22057509085E+02 -0.93020499456E+01  0.43670411266E+02  0.00000000000E+00 0. -1.
         -1    1    3    3    0  502  0.10655019876E+02 -0.15722834099E+03 -0.11458032077E+03  0.19484078260E+03  0.00000000000E+00 0.  1.
         11    1    5    5    0    0  0.45867212778E+02  0.13405749938E+03  0.45619918991E+03  0.47769542097E+03  0.00000000000E+00 0.  1.
        -11    1    5    5    0    0  0.13794893086E+03  0.32083746113E+03  0.69787736781E+03  0.78038413906E+03  0.00000000000E+00 0. -1.
          3    1    6    6  503    0 -0.22918853340E+03 -0.26665813651E+03  0.44057820341E+03  0.56368705762E+03  0.00000000000E+00 0. -1.
         -3    1    6    6    0  503 -0.18071832229E+01 -0.89509739308E+01 -0.36326687415E+01  0.98276206529E+01  0.00000000000E+00 0.  1.
<mgrwt>
<rscale>  0 0.14604238E+04</rscale>
<asrwt>0</asrwt>
<pdfrwt beam="1">  1        2 0.27209577E+00 0.14604238E+04</pdfrwt>
<pdfrwt beam="2">  1       -1 0.46381979E-01 0.14604238E+04</pdfrwt>
<totfact> 0.45883639E+01</totfact>
</mgrwt>
</event>
<event>
12    6  0.1540825E-007  0.1449049E+04  0.7818608E-02  0.8919060E-01
         -1   -1    0    0    0  501 -0.00000000000E+00  0.00000000000E+00  0.36520324502E+03  0.36520324502E+03  0.00000000000E+00 0.  1.
          2   -1    0    0  501    0  0.00000000000E+00 -0.00000000000E+00 -0.14373788465E+04  0.14373788465E+04  0.00000000000E+00 0. -1.
         24    2    1    2    0    0 -0.76609209094E+02  0.37437777767E+03 -0.91923017760E+02  0.40078708420E+03  0.78439494752E+02 0.  0.
        254    2    1    2    0    0  0.76609209094E+02 -0.37437777767E+03 -0.98025258376E+03  0.14017950074E+04  0.92634033885E+03 0.  0.
         23    2    4    4    0    0  0.94510985996E+02 -0.56682363926E+03 -0.23655565933E+03  0.62790610531E+03  0.89922925983E+02 0.  0.
         23    2    4    4    0    0 -0.17901776902E+02  0.19244586160E+03 -0.74369692442E+03  0.77388890205E+03  0.91994750198E+02 0.  0.
          2    1    3    3  502    0  0.47784398071E+01 -0.17981614175E+01 -0.10398856940E+00  0.51066314823E+01  0.00000000000E+00 0. -1.
         -1    1    3    3    0  502 -0.81387648901E+02  0.37617593909E+03 -0.91819029191E+02  0.39568045272E+03  0.00000000000E+00 0.  1.
         11    1    5    5    0    0  0.94639240999E+02 -0.53850566497E+03 -0.24383752684E+03  0.59866658220E+03  0.00000000000E+00 0. -1.
        -11    1    5    5    0    0 -0.12825500292E+00 -0.28317974293E+02  0.72818675069E+01  0.29239523111E+02  0.00000000000E+00 0.  1.
          2    1    6    6  503    0 -0.22726283975E+02  0.12122834868E+01 -0.79598024780E+02  0.82787675190E+02  0.00000000000E+00 0.  1.
         -2    1    6    6    0  503  0.48245070727E+01  0.19123357811E+03 -0.66409889964E+03  0.69110122686E+03  0.00000000000E+00 0. -1.
<mgrwt>
<rscale>  0 0.14490485E+04</rscale>
<asrwt>0</asrwt>
<pdfrwt beam="1">  1        2 0.22113520E+00 0.14490485E+04</pdfrwt>
<pdfrwt beam="2">  1       -1 0.56185116E-01 0.14490485E+04</pdfrwt>
<totfact> 0.48798612E+01</totfact>
</mgrwt>
</event>
<event>
12    6  0.1540825E-007  0.1216139E+04  0.7818608E-02  0.9098847E-01
          2   -1    0    0  501    0  0.00000000000E+00  0.00000000000E+00  0.48358583421E+03  0.48358583421E+03  0.00000000000E+00 0. -1.
         -1   -1    0    0    0  501 -0.00000000000E+00 -0.00000000000E+00 -0.76459691087E+03  0.76459691087E+03  0.00000000000E+00 0.  1.
         24    2    1    2    0    0 -0.72627212893E+02 -0.86524141562E+00  0.19854282221E+03  0.22459021706E+03  0.75802721921E+02 0.  0.
        254    2    1    2    0    0  0.72627212893E+02  0.86524141562E+00 -0.47955389887E+03  0.10235925280E+04  0.90138463533E+03 0.  0.
         23    2    4    4    0    0  0.19572250474E+03 -0.29576966701E+03 -0.57048207595E+03  0.67799915260E+03  0.91902432879E+02 0.  0.
         23    2    4    4    0    0 -0.12309529185E+03  0.29663490842E+03  0.90928177078E+02  0.34559337542E+03  0.89566332842E+02 0.  0.
          4    1    3    3  502    0 -0.25014771134E+02 -0.34329520915E+02  0.53528401946E+02  0.68334066146E+02  0.00000000000E+00 0. -1.
         -3    1    3    3    0  502 -0.47612441759E+02  0.33464279499E+02  0.14501442026E+03  0.15625615091E+03  0.00000000000E+00 0.  1.
         11    1    5    5    0    0  0.56871914593E+02 -0.34823837577E+02 -0.69521795219E+02  0.96334803386E+02  0.00000000000E+00 0.  1.
        -11    1    5    5    0    0  0.13885059015E+03 -0.26094582943E+03 -0.50096028073E+03  0.58166434922E+03  0.00000000000E+00 0. -1.
          2    1    6    6  503    0 -0.13336109978E+03  0.26193706927E+03  0.64878493473E+02  0.30100735889E+03  0.00000000000E+00 0. -1.
         -2    1    6    6    0  503  0.10265807926E+02  0.34697839152E+02  0.26049683605E+02  0.44586016531E+02  0.00000000000E+00 0.  1.
<mgrwt>
<rscale>  0 0.12161385E+04</rscale>
<asrwt>0</asrwt>
<pdfrwt beam="1">  1        2 0.74397821E-01 0.12161385E+04</pdfrwt>
<pdfrwt beam="2">  1       -1 0.11763029E+00 0.12161385E+04</pdfrwt>
<totfact> 0.46926615E+01</totfact>
</mgrwt>
</event>
<event>
12    6  0.1540825E-007  0.1570742E+04  0.7818608E-02  0.8838726E-01
         -1   -1    0    0    0  501 -0.00000000000E+00  0.00000000000E+00  0.99563203387E+03  0.99563203387E+03  0.00000000000E+00 0.  1.
          2   -1    0    0  501    0  0.00000000000E+00 -0.00000000000E+00 -0.61951393839E+03  0.61951393839E+03  0.00000000000E+00 0. -1.
         24    2    1    2    0    0  0.19857872978E+03  0.41632756737E+03 -0.13812322701E+03  0.48824663261E+03  0.80898659707E+02 0.  0.
        254    2    1    2    0    0 -0.19857872978E+03 -0.41632756737E+03  0.51424132249E+03  0.11268993396E+04  0.89033467228E+03 0.  0.
         23    2    4    4    0    0  0.14471594142E+03 -0.14153820787E+03  0.62446756294E+03  0.66390040362E+03  0.99137484207E+02 0.  0.
         23    2    4    4    0    0 -0.34329467120E+03 -0.27478935950E+03 -0.11022624045E+03  0.46299893602E+03  0.94115712304E+02 0.  0.
          2    1    3    3  502    0  0.13405791202E+03  0.28996869507E+03 -0.13367598196E+03  0.34629847826E+03  0.00000000000E+00 0. -1.
         -1    1    3    3    0  502  0.64520817758E+02  0.12635887230E+03 -0.44472450490E+01  0.14194815435E+03  0.00000000000E+00 0.  1.
         11    1    5    5    0    0  0.15427733379E+03 -0.14150224407E+03  0.61763582224E+03  0.65214905483E+03  0.00000000000E+00 0. -1.
        -11    1    5    5    0    0 -0.95613923714E+01 -0.35963801693E-01  0.68317407017E+01  0.11751348794E+02  0.00000000000E+00 0.  1.
          3    1    6    6  503    0 -0.61233316166E+02 -0.10102903116E+03 -0.22042963779E+02  0.12017602256E+03  0.00000000000E+00 0.  1.
         -3    1    6    6    0  503 -0.28206135503E+03 -0.17376032834E+03 -0.88183276674E+02  0.34282291346E+03  0.00000000000E+00 0. -1.
<mgrwt>
<rscale>  0 0.15707424E+04</rscale>
<asrwt>0</asrwt>
<pdfrwt beam="1">  1        2 0.95309837E-01 0.15707424E+04</pdfrwt>
<pdfrwt beam="2">  1       -1 0.15317416E+00 0.15707424E+04</pdfrwt>
<totfact> 0.17265712E+01</totfact>
</mgrwt>
</event>
<event>
12    6  0.1540825E-007  0.4850166E+04  0.7818608E-02  0.7852046E-01
          4   -1    0    0  501    0  0.00000000000E+00  0.00000000000E+00  0.14950528832E+04  0.14950528832E+04  0.00000000000E+00 0. -1.
         -3   -1    0    0    0  501 -0.00000000000E+00 -0.00000000000E+00 -0.39336580997E+04  0.39336580997E+04  0.00000000000E+00 0.  1.
         24    2    1    2    0    0  0.18259488670E+04 -0.82020374943E+02 -0.28139341917E+04  0.33563821407E+04  0.79112786180E+02 0.  0.
        254    2    1    2    0    0 -0.18259488670E+04  0.82020374943E+02  0.37532897515E+03  0.20723288422E+04  0.90158659253E+03 0.  0.
         23    2    4    4    0    0 -0.63282744474E+03 -0.38311901936E+03  0.23126091577E+03  0.78010145472E+03  0.88464177373E+02 0.  0.
         23    2    4    4    0    0 -0.11931214222E+04  0.46513939431E+03  0.14406805939E+03  0.12922273874E+04  0.95930343691E+02 0.  0.
          2    1    3    3  502    0  0.34587750487E+03 -0.46505996364E+02 -0.54195040287E+03  0.64459622652E+03  0.00000000000E+00 0. -1.
         -1    1    3    3    0  502  0.14800713621E+04 -0.35514378579E+02 -0.22719837888E+04  0.27117859142E+04  0.00000000000E+00 0.  1.
         11    1    5    5    0    0 -0.21792508342E+03 -0.17746948744E+03  0.68656309669E+02  0.28931030022E+03  0.00000000000E+00 0. -1.
        -11    1    5    5    0    0 -0.41490236132E+03 -0.20564953192E+03  0.16260460610E+03  0.49079115449E+03  0.00000000000E+00 0.  1.
          1    1    6    6  503    0 -0.83270287243E+03  0.31595572123E+03  0.14373367700E+03  0.90215379035E+03  0.00000000000E+00 0. -1.
         -1    1    6    6    0  503 -0.36041854979E+03  0.14918367308E+03  0.33438238842E+00  0.39007359710E+03  0.00000000000E+00 0.  1.
<mgrwt>
<rscale>  0 0.48501657E+04</rscale>
<asrwt>0</asrwt>
<pdfrwt beam="1">  1        4 0.23000814E+00 0.48501657E+04</pdfrwt>
<pdfrwt beam="2">  1       -3 0.60517816E+00 0.48501657E+04</pdfrwt>
<totfact> 0.11838420E-04</totfact>
</mgrwt>
</event>
<event>
12    6  0.1540825E-007  0.1623352E+04  0.7818608E-02  0.8806329E-01
         -1   -1    0    0    0  501 -0.00000000000E+00  0.00000000000E+00  0.33134929223E+03  0.33134929223E+03  0.00000000000E+00 0.  1.
          2   -1    0    0  501    0  0.00000000000E+00 -0.00000000000E+00 -0.19882885503E+04  0.19882885503E+04  0.00000000000E+00 0. -1.
         24    2    1    2    0    0 -0.31398571505E+03  0.46395392640E+03 -0.61863847873E+03  0.83852874603E+03  0.81096334541E+02 0.  0.
        254    2    1    2    0    0  0.31398571505E+03 -0.46395392640E+03 -0.10383007793E+04  0.14811090965E+04  0.89541910425E+03 0.  0.
         23    2    4    4    0    0  0.27105451948E+03 -0.58364598657E+03 -0.28039545190E+03  0.70782406101E+03  0.90995064284E+02 0.  0.
         23    2    4    4    0    0  0.42931195563E+02  0.11969206017E+03 -0.75790532741E+03  0.77328503546E+03  0.85906832821E+02 0.  0.
          4    1    3    3  502    0 -0.20345901185E+02  0.10617882791E+02 -0.45647906042E+02  0.51092332654E+02  0.00000000000E+00 0. -1.
         -3    1    3    3    0  502 -0.29363981386E+03  0.45333604361E+03 -0.57299057269E+03  0.78743641337E+03  0.00000000000E+00 0.  1.
         11    1    5    5    0    0  0.11672758461E+03 -0.15878869162E+03 -0.10165091109E+03  0.22174779666E+03  0.00000000000E+00 0. -1.
        -11    1    5    5    0    0  0.15432693487E+03 -0.42485729495E+03 -0.17874454081E+03  0.48607626435E+03  0.00000000000E+00 0.  1.
          1    1    6    6  503    0 -0.19087939340E+02  0.17042966828E+02 -0.61226058241E+02  0.66358438456E+02  0.00000000000E+00 0. -1.
         -1    1    6    6    0  503  0.62019134904E+02  0.10264909334E+03 -0.69667926917E+03  0.70692659700E+03  0.00000000000E+00 0.  1.
<mgrwt>
<rscale>  0 0.16233521E+04</rscale>
<asrwt>0</asrwt>
<pdfrwt beam="1">  1        2 0.30589055E+00 0.16233521E+04</pdfrwt>
<pdfrwt beam="2">  1       -1 0.50976814E-01 0.16233521E+04</pdfrwt>
<totfact> 0.28609219E+01</totfact>
</mgrwt>
</event>
<event>
12    6  0.1540825E-007  0.1386760E+04  0.7818608E-02  0.8963458E-01
         -1   -1    0    0    0  501 -0.00000000000E+00  0.00000000000E+00  0.30277307177E+03  0.30277307177E+03  0.00000000000E+00 0.  1.
          2   -1    0    0  501    0  0.00000000000E+00 -0.00000000000E+00 -0.15879088299E+04  0.15879088299E+04  0.00000000000E+00 0. -1.
         24    2    1    2    0    0  0.12192528892E+03 -0.11933396145E+03 -0.84983827540E+03  0.87053680613E+03  0.80640350143E+02 0.  0.
        254    2    1    2    0    0 -0.12192528892E+03  0.11933396145E+03 -0.43529748274E+03  0.10201450955E+04  0.90670047261E+03 0.  0.
         23    2    4    4    0    0  0.20546493967E+03  0.41165494944E+03 -0.16879213243E+03  0.49849429404E+03  0.91269591793E+02 0.  0.
         23    2    4    4    0    0 -0.32739022859E+03 -0.29232098799E+03 -0.26650535031E+03  0.52165080149E+03  0.91970294986E+02 0.  0.
          2    1    3    3  502    0  0.92827388714E+02 -0.10155012206E+03 -0.78797990491E+03  0.79990104508E+03  0.00000000000E+00 0. -1.
         -3    1    3    3    0  502  0.29097900204E+02 -0.17783839387E+02 -0.61858370486E+02  0.70635761048E+02  0.00000000000E+00 0.  1.
         11    1    5    5    0    0  0.14926239556E+03  0.36361847037E+03 -0.15863295164E+03  0.42386562502E+03  0.00000000000E+00 0.  1.
        -11    1    5    5    0    0  0.56202544112E+02  0.48036479066E+02 -0.10159180796E+02  0.74628669023E+02  0.00000000000E+00 0. -1.
          1    1    6    6  503    0  0.19050229566E+00 -0.72381137929E+01  0.56262584797E+01  0.91695892429E+01  0.00000000000E+00 0. -1.
         -1    1    6    6    0  503 -0.32758073089E+03 -0.28508287420E+03 -0.27213160879E+03  0.51248121225E+03  0.00000000000E+00 0.  1.
<mgrwt>
<rscale>  0 0.13867603E+04</rscale>
<asrwt>0</asrwt>
<pdfrwt beam="1">  1        2 0.24429367E+00 0.13867603E+04</pdfrwt>
<pdfrwt beam="2">  1       -1 0.46580473E-01 0.13867603E+04</pdfrwt>
<totfact> 0.57707998E+01</totfact>
</mgrwt>
</event>
<event>
12    6  0.1540825E-007  0.1021492E+04  0.7818608E-02  0.9285282E-01
         -1   -1    0    0    0  501 -0.00000000000E+00  0.00000000000E+00  0.45138395865E+03  0.45138395865E+03  0.00000000000E+00 0.  1.
          2   -1    0    0  501    0  0.00000000000E+00 -0.00000000000E+00 -0.57791497479E+03  0.57791497479E+03  0.00000000000E+00 0. -1.
         24    2    1    2    0    0 -0.78967249738E+02  0.33325791292E+02  0.11426470320E+02  0.11746613757E+03  0.79506568000E+02 0.  0.
        254    2    1    2    0    0  0.78967249738E+02 -0.33325791292E+02 -0.13795748647E+03  0.91183279587E+03  0.89725155038E+03 0.  0.
         23    2    4    4    0    0 -0.25305305020E+03  0.27651217206E+03  0.88984104400E+02  0.39603903103E+03  0.91836353111E+02 0.  0.
         23    2    4    4    0    0  0.33202029994E+03 -0.30983796336E+03 -0.22694159087E+03  0.51579376484E+03  0.91124525094E+02 0.  0.
          4    1    3    3  502    0 -0.25955523469E+02 -0.22381419529E+02  0.20653857597E+02  0.40014984347E+02  0.00000000000E+00 0. -1.
         -3    1    3    3    0  502 -0.53011726269E+02  0.55707210821E+02 -0.92273872764E+01  0.77451153222E+02  0.00000000000E+00 0.  1.
         11    1    5    5    0    0 -0.21613215902E+03  0.23441701223E+03  0.39448122878E+02  0.32127962927E+03  0.00000000000E+00 0.  1.
        -11    1    5    5    0    0 -0.36920891181E+02  0.42095159833E+02  0.49535981522E+02  0.74759401765E+02  0.00000000000E+00 0. -1.
          1    1    6    6  503    0  0.79135002902E+00 -0.20808211867E+01 -0.17259878436E+02  0.17402857676E+02  0.00000000000E+00 0. -1.
         -1    1    6    6    0  503  0.33122894991E+03 -0.30775714217E+03 -0.20968171243E+03  0.49839090716E+03  0.00000000000E+00 0.  1.
<mgrwt>
<rscale>  0 0.10214921E+04</rscale>
<asrwt>0</asrwt>
<pdfrwt beam="1">  1        2 0.88909996E-01 0.10214921E+04</pdfrwt>
<pdfrwt beam="2">  1       -1 0.69443686E-01 0.10214921E+04</pdfrwt>
<totfact> 0.12409633E+02</totfact>
</mgrwt>
</event>
<event>
12    6  0.1540825E-007  0.3056954E+04  0.7818608E-02  0.8227652E-01
         -1   -1    0    0    0  501 -0.00000000000E+00  0.00000000000E+00  0.12895681902E+04  0.12895681902E+04  0.00000000000E+00 0.  1.
          2   -1    0    0  501    0  0.00000000000E+00 -0.00000000000E+00 -0.18116471760E+04  0.18116471760E+04  0.00000000000E+00 0. -1.
         24    2    1    2    0    0 -0.57399744260E+03 -0.11960035716E+04  0.20811945133E+03  0.13453918591E+04  0.82873042626E+02 0.  0.
        254    2    1    2    0    0  0.57399744260E+03  0.11960035716E+04 -0.73019843719E+03  0.17558235071E+04  0.88872314191E+03 0.  0.
         23    2    4    4    0    0  0.17725933400E+03  0.64949454261E+03 -0.82394369110E+03  0.10680042240E+04  0.92118315269E+02 0.  0.
         23    2    4    4    0    0  0.39673810860E+03  0.54650902899E+03  0.93745253911E+02  0.68781928309E+03  0.90741104091E+02 0.  0.
          4    1    3    3  502    0 -0.34973744001E+03 -0.66336323767E+03  0.14767861036E+03  0.76431409381E+03  0.00000000000E+00 0. -1.
         -3    1    3    3    0  502 -0.22426000259E+03 -0.53264033394E+03  0.60440840975E+02  0.58107776532E+03  0.00000000000E+00 0.  1.
         11    1    5    5    0    0  0.16202895409E+03  0.53009379836E+03 -0.72218375825E+03  0.91038574116E+03  0.00000000000E+00 0. -1.
        -11    1    5    5    0    0  0.15230379913E+02  0.11940074425E+03 -0.10175993285E+03  0.15761848284E+03  0.00000000000E+00 0.  1.
          1    1    6    6  503    0  0.31919925104E+03  0.43744181023E+03  0.37997155474E+02  0.54285106891E+03  0.00000000000E+00 0. -1.
         -1    1    6    6    0  503  0.77538857559E+02  0.10906721877E+03  0.55748098438E+02  0.14496821417E+03  0.00000000000E+00 0.  1.
<mgrwt>
<rscale>  0 0.30569544E+04</rscale>
<asrwt>0</asrwt>
<pdfrwt beam="1">  1        2 0.27871495E+00 0.30569544E+04</pdfrwt>
<pdfrwt beam="2">  1       -1 0.19839511E+00 0.30569544E+04</pdfrwt>
<totfact> 0.12726593E+00</totfact>
</mgrwt>
</event>
<event>
12    6  0.1540825E-007  0.1409336E+04  0.7818608E-02  0.8947088E-01
          2   -1    0    0  501    0  0.00000000000E+00  0.00000000000E+00  0.13161330247E+04  0.13161330247E+04  0.00000000000E+00 0. -1.
         -1   -1    0    0    0  501 -0.00000000000E+00 -0.00000000000E+00 -0.37728479347E+03  0.37728479347E+03  0.00000000000E+00 0.  1.
         24    2    1    2    0    0  0.20694740018E+03  0.33723588049E+03  0.40445632507E+03  0.57064825786E+03  0.74156926715E+02 0.  0.
        254    2    1    2    0    0 -0.20694740018E+03 -0.33723588049E+03  0.53439190617E+03  0.11227695603E+04  0.90469967984E+03 0.  0.
         23    2    4    4    0    0 -0.36374033948E+03 -0.37511015343E+03 -0.27273918920E+02  0.53116036345E+03  0.91503023291E+02 0.  0.
         23    2    4    4    0    0  0.15679293930E+03  0.37874272946E+02  0.56166582510E+03  0.59160919689E+03  0.92273812063E+02 0.  0.
          4    1    3    3  502    0  0.19778872875E+03  0.30602080565E+03  0.33961405854E+03  0.49810322571E+03  0.00000000000E+00 0. -1.
         -3    1    3    3    0  502  0.91586714219E+01  0.31215074836E+02  0.64842266533E+02  0.72545032142E+02  0.00000000000E+00 0.  1.
         11    1    5    5    0    0 -0.21193672198E+03 -0.19979306949E+03 -0.58745048055E+02  0.29712863445E+03  0.00000000000E+00 0. -1.
        -11    1    5    5    0    0 -0.15180361750E+03 -0.17531708394E+03  0.31471129134E+02  0.23403172900E+03  0.00000000000E+00 0.  1.
          1    1    6    6  503    0  0.31117301353E+01 -0.15983009248E+02  0.11573256044E+03  0.11687243043E+03  0.00000000000E+00 0. -1.
         -1    1    6    6    0  503  0.15368120917E+03  0.53857282194E+02  0.44593326466E+03  0.47473676646E+03  0.00000000000E+00 0.  1.
<mgrwt>
<rscale>  0 0.14093360E+04</rscale>
<asrwt>0</asrwt>
<pdfrwt beam="1">  1        2 0.20248200E+00 0.14093360E+04</pdfrwt>
<pdfrwt beam="2">  1       -1 0.58043815E-01 0.14093360E+04</pdfrwt>
<totfact> 0.53931634E+01</totfact>
</mgrwt>
</event>
<event>
12    6  0.1540825E-007  0.2063820E+04  0.7818608E-02  0.8577351E-01
          2   -1    0    0  501    0  0.00000000000E+00  0.00000000000E+00  0.10515356447E+04  0.10515356447E+04  0.00000000000E+00 0. -1.
         -1   -1    0    0    0  501 -0.00000000000E+00 -0.00000000000E+00 -0.10126507244E+04  0.10126507244E+04  0.00000000000E+00 0.  1.
         24    2    1    2    0    0  0.13595832288E+03 -0.34435677231E+03 -0.72516167925E+03  0.81802368150E+03  0.78974870992E+02 0.  0.
        254    2    1    2    0    0 -0.13595832288E+03  0.34435677231E+03  0.76404659951E+03  0.12461626876E+04  0.91218856909E+03 0.  0.
         23    2    4    4    0    0 -0.38828622685E+03  0.18852722748E+03  0.20243281033E+02  0.44080146390E+03  0.87105859073E+02 0.  0.
         23    2    4    4    0    0  0.25232790397E+03  0.15582954483E+03  0.74380331847E+03  0.80536122371E+03  0.86087780326E+02 0.  0.
          4    1    3    3  502    0  0.67037857906E+02 -0.20877096747E+03 -0.34763589246E+03  0.41101107647E+03  0.00000000000E+00 0. -1.
         -3    1    3    3    0  502  0.68920464976E+02 -0.13558580484E+03 -0.37752578679E+03  0.40701260504E+03  0.00000000000E+00 0.  1.
         11    1    5    5    0    0 -0.23228749018E+02 -0.80231636422E+01  0.85811749751E+01  0.26030414897E+02  0.00000000000E+00 0.  1.
        -11    1    5    5    0    0 -0.36505747784E+03  0.19655039112E+03  0.11662106058E+02  0.41477104900E+03  0.00000000000E+00 0. -1.
          1    1    6    6  503    0  0.15130015014E+03  0.12631218557E+03  0.55843817678E+03  0.59219903828E+03  0.00000000000E+00 0. -1.
         -1    1    6    6    0  503  0.10102775384E+03  0.29517359259E+02  0.18536514169E+03  0.21316218543E+03  0.00000000000E+00 0.  1.
<mgrwt>
<rscale>  0 0.20638201E+04</rscale>
<asrwt>0</asrwt>
<pdfrwt beam="1">  1        2 0.16177471E+00 0.20638201E+04</pdfrwt>
<pdfrwt beam="2">  1       -1 0.15579242E+00 0.20638201E+04</pdfrwt>
<totfact> 0.77478942E+00</totfact>
</mgrwt>
</event>
<event>
12    6  0.1540825E-007  0.1298245E+04  0.7818608E-02  0.9030958E-01
         -1   -1    0    0    0  501 -0.00000000000E+00  0.00000000000E+00  0.28992722973E+03  0.28992722973E+03  0.00000000000E+00 0.  1.
          2   -1    0    0  501    0  0.00000000000E+00 -0.00000000000E+00 -0.14533307563E+04  0.14533307563E+04  0.00000000000E+00 0. -1.
         24    2    1    2    0    0  0.58740958187E+02 -0.11804677786E+03 -0.70549292294E+03  0.72252097524E+03  0.83251146614E+02 0.  0.
        254    2    1    2    0    0 -0.58740958187E+02  0.11804677786E+03 -0.45791060363E+03  0.10207370108E+04  0.90268288028E+03 0.  0.
         23    2    4    4    0    0  0.60554692511E+02  0.47538701757E+03 -0.10654116913E+03  0.49749088860E+03  0.80538663098E+02 0.  0.
         23    2    4    4    0    0 -0.11929565070E+03 -0.35734023971E+03 -0.35136943450E+03  0.52324612220E+03  0.91665291694E+02 0.  0.
          4    1    3    3  502    0  0.52605699968E+02 -0.11312883157E+03 -0.70340736834E+03  0.71438604272E+03  0.00000000000E+00 0. -1.
         -3    1    3    3    0  502  0.61352582186E+01 -0.49179462867E+01 -0.20855546006E+01  0.81349325184E+01  0.00000000000E+00 0.  1.
         11    1    5    5    0    0  0.55689684716E+02  0.14269879620E+03 -0.30467286536E+02  0.15618112232E+03  0.00000000000E+00 0. -1.
        -11    1    5    5    0    0  0.48650077959E+01  0.33268822137E+03 -0.76073882597E+02  0.34130976628E+03  0.00000000000E+00 0.  1.
          2    1    6    6  503    0 -0.99297235668E+02 -0.20621453149E+03 -0.25615545098E+03  0.34351126485E+03  0.00000000000E+00 0. -1.
         -2    1    6    6    0  503 -0.19998415030E+02 -0.15112570823E+03 -0.95213983517E+02  0.17973485735E+03  0.00000000000E+00 0.  1.
<mgrwt>
<rscale>  0 0.12982452E+04</rscale>
<asrwt>0</asrwt>
<pdfrwt beam="1">  1        2 0.22358935E+00 0.12982452E+04</pdfrwt>
<pdfrwt beam="2">  1       -1 0.44604189E-01 0.12982452E+04</pdfrwt>
<totfact> 0.75013819E+01</totfact>
</mgrwt>
</event>
<event>
12    6  0.1540825E-007  0.1465476E+04  0.7818608E-02  0.8907741E-01
         -1   -1    0    0    0  501 -0.00000000000E+00  0.00000000000E+00  0.35532432962E+03  0.35532432962E+03  0.00000000000E+00 0.  1.
          2   -1    0    0  501    0  0.00000000000E+00 -0.00000000000E+00 -0.15110278877E+04  0.15110278877E+04  0.00000000000E+00 0. -1.
         24    2    1    2    0    0 -0.28882094440E+03 -0.41302267121E+02  0.76519322706E+02  0.31218624580E+03  0.80508571752E+02 0.  0.
        254    2    1    2    0    0  0.28882094440E+03  0.41302267121E+02 -0.12322228808E+04  0.15541659715E+04  0.90107448298E+03 0.  0.
         23    2    4    4    0    0  0.23816051780E+03  0.12170819769E+03 -0.13507694776E+04  0.13800463436E+04  0.91741000817E+02 0.  0.
         23    2    4    4    0    0  0.50660426603E+02 -0.80405930569E+02  0.11854659677E+03  0.17411962796E+03  0.85045615637E+02 0.  0.
          2    1    3    3  502    0 -0.13602790789E+03  0.60664167411E+01  0.67472110067E+02  0.15196341262E+03  0.00000000000E+00 0. -1.
         -1    1    3    3    0  502 -0.15279303652E+03 -0.47368683862E+02  0.90472126390E+01  0.16022283319E+03  0.00000000000E+00 0.  1.
         11    1    5    5    0    0  0.14892551913E+03  0.69130770785E+02 -0.59594158814E+03  0.61814581628E+03  0.00000000000E+00 0. -1.
        -11    1    5    5    0    0  0.89234998673E+02  0.52577426904E+02 -0.75482788943E+03  0.76190052728E+03  0.00000000000E+00 0.  1.
          1    1    6    6  503    0  0.16828534871E+02 -0.99495241065E+01 -0.11288431923E+02  0.22574793712E+02  0.00000000000E+00 0. -1.
         -1    1    6    6    0  503  0.33831891732E+02 -0.70456406462E+02  0.12983502870E+03  0.15154483424E+03  0.00000000000E+00 0.  1.
<mgrwt>
<rscale>  0 0.14654760E+04</rscale>
<asrwt>0</asrwt>
<pdfrwt beam="1">  1        2 0.23246583E+00 0.14654760E+04</pdfrwt>
<pdfrwt beam="2">  1       -1 0.54665281E-01 0.14654760E+04</pdfrwt>
<totfact> 0.46692658E+01</totfact>
</mgrwt>
</event>
<event>
12    6  0.1540825E-007  0.2207880E+04  0.7818608E-02  0.8515155E-01
          2   -1    0    0  501    0  0.00000000000E+00  0.00000000000E+00  0.10796997847E+04  0.10796997847E+04  0.00000000000E+00 0. -1.
         -3   -1    0    0    0  501 -0.00000000000E+00 -0.00000000000E+00 -0.11287243721E+04  0.11287243721E+04  0.00000000000E+00 0.  1.
         24    2    1    2    0    0  0.21345260077E+03  0.44279010014E+03  0.75337155114E+03  0.90318290996E+03  0.80904815771E+02 0.  0.
        254    2    1    2    0    0 -0.21345260077E+03 -0.44279010014E+03 -0.80239613844E+03  0.13052412468E+04  0.90453859172E+03 0.  0.
         23    2    4    4    0    0  0.31590356199E+03 -0.15649386907E+03 -0.10601368322E+03  0.37971120992E+03  0.93039294797E+02 0.  0.
         23    2    4    4    0    0 -0.52935616276E+03 -0.28629623106E+03 -0.69638245523E+03  0.92553003692E+03  0.97333685402E+02 0.  0.
          4    1    3    3  502    0  0.19730959097E+03  0.36902213700E+03  0.67623233543E+03  0.79523492363E+03  0.00000000000E+00 0. -1.
         -3    1    3    3    0  502  0.16143009804E+02  0.73767963140E+02  0.77139215711E+02  0.10794798633E+03  0.00000000000E+00 0.  1.
         11    1    5    5    0    0  0.12504262954E+03 -0.92340583054E+02 -0.76898116813E+01  0.15563282329E+03  0.00000000000E+00 0. -1.
        -11    1    5    5    0    0  0.19086093245E+03 -0.64153286019E+02 -0.98323871538E+02  0.22407838663E+03  0.00000000000E+00 0.  1.
          4    1    6    6  503    0 -0.43300975694E+03 -0.23299792726E+03 -0.62094924796E+03  0.79206278302E+03  0.00000000000E+00 0. -1.
         -4    1    6    6    0  503 -0.96346405822E+02 -0.53298303800E+02 -0.75433207270E+02  0.13346725389E+03  0.00000000000E+00 0.  1.
<mgrwt>
<rscale>  0 0.22078799E+04</rscale>
<asrwt>0</asrwt>
<pdfrwt beam="1">  1        2 0.16610766E+00 0.22078799E+04</pdfrwt>
<pdfrwt beam="2">  1       -3 0.17364990E+00 0.22078799E+04</pdfrwt>
<totfact> 0.28212970E+00</totfact>
</mgrwt>
</event>
<event>
12    6  0.1540825E-007  0.1973213E+04  0.7818608E-02  0.8619248E-01
          2   -1    0    0  501    0  0.00000000000E+00  0.00000000000E+00  0.98578772816E+03  0.98578772816E+03  0.00000000000E+00 0. -1.
         -1   -1    0    0    0  501 -0.00000000000E+00 -0.00000000000E+00 -0.98742609242E+03  0.98742609242E+03  0.00000000000E+00 0.  1.
         24    2    1    2    0    0 -0.71684557350E+03 -0.29704000746E+03  0.19519695749E+02  0.78024176316E+03  0.79346381033E+02 0.  0.
        254    2    1    2    0    0  0.71684557350E+03  0.29704000746E+03 -0.21158060004E+02  0.11929720574E+04  0.90588869294E+03 0.  0.
         23    2    4    4    0    0  0.25769480029E+03 -0.35691338924E+02 -0.41398428925E+03  0.49721761227E+03  0.90343126079E+02 0.  0.
         23    2    4    4    0    0  0.45915077321E+03  0.33273134639E+03  0.39282622925E+03  0.69575444515E+03  0.90731582988E+02 0.  0.
          4    1    3    3  502    0 -0.47397667676E+03 -0.22360837704E+03 -0.14302943945E+02  0.52427013133E+03  0.00000000000E+00 0. -1.
         -3    1    3    3    0  502 -0.24286889674E+03 -0.73431630424E+02  0.33822639693E+02  0.25597163184E+03  0.00000000000E+00 0.  1.
         11    1    5    5    0    0  0.24834472845E+03 -0.51094463993E+02 -0.36014565683E+03  0.44044368826E+03  0.00000000000E+00 0. -1.
        -11    1    5    5    0    0  0.93500718395E+01  0.15403125069E+02 -0.53838632425E+02  0.56773924003E+02  0.00000000000E+00 0.  1.
          1    1    6    6  503    0  0.37047387089E+03  0.24110957395E+03  0.34033829199E+03  0.55786635376E+03  0.00000000000E+00 0. -1.
         -1    1    6    6    0  503  0.88676902322E+02  0.91621772438E+02  0.52487937262E+02  0.13788809139E+03  0.00000000000E+00 0.  1.
<mgrwt>
<rscale>  0 0.19732131E+04</rscale>
<asrwt>0</asrwt>
<pdfrwt beam="1">  1        2 0.15165965E+00 0.19732131E+04</pdfrwt>
<pdfrwt beam="2">  1       -1 0.15191171E+00 0.19732131E+04</pdfrwt>
<totfact> 0.92127943E+00</totfact>
</mgrwt>
</event>
<event>
12    6  0.1540825E-007  0.1326461E+04  0.7818608E-02  0.9008841E-01
          2   -1    0    0  501    0  0.00000000000E+00  0.00000000000E+00  0.15649682842E+04  0.15649682842E+04  0.00000000000E+00 0. -1.
         -1   -1    0    0    0  501 -0.00000000000E+00 -0.00000000000E+00 -0.28107563576E+03  0.28107563576E+03  0.00000000000E+00 0.  1.
         24    2    1    2    0    0 -0.37290376772E+02 -0.34712744801E+03  0.40926982136E+03  0.54362360007E+03  0.78337695383E+02 0.  0.
        254    2    1    2    0    0  0.37290376772E+02  0.34712744801E+03  0.87462282709E+03  0.13024203199E+04  0.89969192653E+03 0.  0.
         23    2    4    4    0    0 -0.66213794989E+02  0.27871692095E+03  0.10366943465E+04  0.10795154575E+04  0.92471975580E+02 0.  0.
         23    2    4    4    0    0  0.10350417176E+03  0.68410527060E+02 -0.16207151943E+03  0.22290486237E+03  0.89589544423E+02 0.  0.
          2    1    3    3  502    0 -0.47894572424E+02 -0.33565174835E+03  0.40333144278E+03  0.52690818838E+03  0.00000000000E+00 0. -1.
         -1    1    3    3    0  502  0.10604195652E+02 -0.11475699658E+02  0.59383785762E+01  0.16715411697E+02  0.00000000000E+00 0.  1.
         11    1    5    5    0    0 -0.42309980596E+02  0.27043262457E+03  0.97840973174E+03  0.10159771366E+04  0.00000000000E+00 0.  1.
        -11    1    5    5    0    0 -0.23903814393E+02  0.82842963799E+01  0.58284614787E+02  0.63538320956E+02  0.00000000000E+00 0. -1.
          3    1    6    6  503    0  0.11936226194E+03  0.62172368108E+02 -0.13304089086E+03  0.18924225631E+03  0.00000000000E+00 0. -1.
         -3    1    6    6    0  503 -0.15858090178E+02  0.62381589515E+01 -0.29030628577E+02  0.33662606060E+02  0.00000000000E+00 0.  1.
<mgrwt>
<rscale>  0 0.13264606E+04</rscale>
<asrwt>0</asrwt>
<pdfrwt beam="1">  1        2 0.24076435E+00 0.13264606E+04</pdfrwt>
<pdfrwt beam="2">  1       -1 0.43242406E-01 0.13264606E+04</pdfrwt>
<totfact> 0.68596223E+01</totfact>
</mgrwt>
</event>
<event>
12    6  0.1540825E-007  0.1558909E+04  0.7818608E-02  0.8846197E-01
         -1   -1    0    0    0  501 -0.00000000000E+00  0.00000000000E+00  0.79143179579E+03  0.79143179579E+03  0.00000000000E+00 0.  1.
          2   -1    0    0  501    0  0.00000000000E+00 -0.00000000000E+00 -0.76765859801E+03  0.76765859801E+03  0.00000000000E+00 0. -1.
         24    2    1    2    0    0 -0.21278575864E+03  0.12245979524E+03 -0.44079777742E+03  0.51082969476E+03  0.79813006097E+02 0.  0.
        254    2    1    2    0    0  0.21278575864E+03 -0.12245979524E+03  0.46457097520E+03  0.10482606990E+04  0.90705574339E+03 0.  0.
         23    2    4    4    0    0  0.23594730983E+03  0.21634725456E+03 -0.13058598075E+03  0.35696497671E+03  0.88848346420E+02 0.  0.
         23    2    4    4    0    0 -0.23161551192E+02 -0.33880704979E+03  0.59515695595E+03  0.69129572232E+03  0.91385442159E+02 0.  0.
          4    1    3    3  502    0 -0.17169459276E+03  0.68003150683E+02 -0.36358961754E+03  0.40780003883E+03  0.00000000000E+00 0. -1.
         -3    1    3    3    0  502 -0.41091165880E+02  0.54456644556E+02 -0.77208159880E+02  0.10302965593E+03  0.00000000000E+00 0.  1.
         11    1    5    5    0    0  0.98731386659E+02  0.11042072425E+03 -0.10540785478E+03  0.18180054704E+03  0.00000000000E+00 0.  1.
        -11    1    5    5    0    0  0.13721592317E+03  0.10592653031E+03 -0.25178125969E+02  0.17516442967E+03  0.00000000000E+00 0. -1.
          3    1    6    6  503    0 -0.12248152988E+02 -0.11980652067E+03  0.13096300578E+03  0.17791831983E+03  0.00000000000E+00 0. -1.
         -3    1    6    6    0  503 -0.10913398204E+02 -0.21900052912E+03  0.46419395017E+03  0.51337740249E+03  0.00000000000E+00 0.  1.
<mgrwt>
<rscale>  0 0.15589091E+04</rscale>
<asrwt>0</asrwt>
<pdfrwt beam="1">  1        2 0.11810132E+00 0.15589091E+04</pdfrwt>
<pdfrwt beam="2">  1       -1 0.12175874E+00 0.15589091E+04</pdfrwt>
<totfact> 0.23872080E+01</totfact>
</mgrwt>
</event>
<event>
12    6  0.1540825E-007  0.2088402E+04  0.7818608E-02  0.8566370E-01
         -1   -1    0    0    0  501 -0.00000000000E+00  0.00000000000E+00  0.38590583235E+03  0.38590583235E+03  0.00000000000E+00 0.  1.
          2   -1    0    0  501    0  0.00000000000E+00 -0.00000000000E+00 -0.28254440262E+04  0.28254440262E+04  0.00000000000E+00 0. -1.
         24    2    1    2    0    0  0.76989510177E+03  0.20110985054E+02 -0.43327171567E+03  0.88747743295E+03  0.82151658197E+02 0.  0.
        254    2    1    2    0    0 -0.76989510177E+03 -0.20110985054E+02 -0.20062664781E+04  0.23238724256E+04  0.88438393785E+03 0.  0.
         23    2    4    4    0    0 -0.81515086059E+03  0.24576525223E+03 -0.17129518528E+04  0.19151502002E+04  0.93406394388E+02 0.  0.
         23    2    4    4    0    0  0.45255758817E+02 -0.26587623728E+03 -0.29331462533E+03  0.40872222537E+03  0.91006213107E+02 0.  0.
          4    1    3    3  502    0  0.43827244693E+03  0.36136996209E+02 -0.28371276817E+03  0.52333694219E+03  0.00000000000E+00 0. -1.
         -3    1    3    3    0  502  0.33162265484E+03 -0.16026011155E+02 -0.14955894750E+03  0.36414049076E+03  0.00000000000E+00 0.  1.
         11    1    5    5    0    0 -0.81100313931E+03  0.24991548972E+03 -0.16855927378E+04  0.18871689701E+04  0.00000000000E+00 0. -1.
        -11    1    5    5    0    0 -0.41477212824E+01 -0.41502374960E+01 -0.27359115055E+02  0.27981230132E+02  0.00000000000E+00 0.  1.
          4    1    6    6  503    0  0.13723134654E+02 -0.19277762607E+03 -0.14948470211E+03  0.24433013261E+03  0.00000000000E+00 0. -1.
         -4    1    6    6    0  503  0.31532624163E+02 -0.73098611208E+02 -0.14382992322E+03  0.16439209276E+03  0.00000000000E+00 0.  1.
<mgrwt>
<rscale>  0 0.20884016E+04</rscale>
<asrwt>0</asrwt>
<pdfrwt beam="1">  1        2 0.43468370E+00 0.20884016E+04</pdfrwt>
<pdfrwt beam="2">  1       -1 0.59370128E-01 0.20884016E+04</pdfrwt>
<totfact> 0.67458869E+00</totfact>
</mgrwt>
</event>
<event>
12    6  0.1540825E-007  0.2786074E+04  0.7818608E-02  0.8307605E-01
         -1   -1    0    0    0  501 -0.00000000000E+00  0.00000000000E+00  0.88381172065E+03  0.88381172065E+03  0.00000000000E+00 0.  1.
          2   -1    0    0  501    0  0.00000000000E+00 -0.00000000000E+00 -0.21956630674E+04  0.21956630674E+04  0.00000000000E+00 0. -1.
         24    2    1    2    0    0 -0.10217426166E+03 -0.38588471663E+02  0.78526857730E+03  0.79691822759E+03  0.80642873738E+02 0.  0.
        254    2    1    2    0    0  0.10217426166E+03  0.38588471663E+02 -0.20971199241E+04  0.22825565605E+04  0.89455230476E+03 0.  0.
         23    2    4    4    0    0 -0.40367654917E+02 -0.19715999758E+02 -0.20954159395E+04  0.20979609786E+04  0.93027092692E+02 0.  0.
         23    2    4    4    0    0  0.14254191657E+03  0.58304471421E+02 -0.17039845982E+01  0.18459558191E+03  0.10175959871E+03 0.  0.
          4    1    3    3  502    0 -0.25716307989E+01 -0.36807039828E+01 -0.98478854891E-01  0.44911652007E+01  0.00000000000E+00 0. -1.
         -3    1    3    3    0  502 -0.99602630856E+02 -0.34907767680E+02  0.78536705615E+03  0.79242706239E+03  0.00000000000E+00 0.  1.
         11    1    5    5    0    0 -0.40336477693E+02  0.31953632135E+02 -0.98405161129E+03  0.98539618415E+03  0.00000000000E+00 0. -1.
        -11    1    5    5    0    0 -0.31177223845E-01 -0.51669631894E+02 -0.11113643282E+04  0.11125647944E+04  0.00000000000E+00 0.  1.
          1    1    6    6  503    0  0.89637943293E+02  0.63188807021E+01  0.41259400614E+02  0.98879862814E+02  0.00000000000E+00 0. -1.
         -1    1    6    6    0  503  0.52903973280E+02  0.51985590719E+02 -0.42963385212E+02  0.85715719096E+02  0.00000000000E+00 0.  1.
<mgrwt>
<rscale>  0 0.27860745E+04</rscale>
<asrwt>0</asrwt>
<pdfrwt beam="1">  1        2 0.33779432E+00 0.27860745E+04</pdfrwt>
<pdfrwt beam="2">  1       -1 0.13597104E+00 0.27860745E+04</pdfrwt>
<totfact> 0.23264114E+00</totfact>
</mgrwt>
</event>
<event>
12    6  0.1540825E-007  0.2856028E+04  0.7818608E-02  0.8286082E-01
         -1   -1    0    0    0  501 -0.00000000000E+00  0.00000000000E+00  0.82840452167E+03  0.82840452167E+03  0.00000000000E+00 0.  1.
          2   -1    0    0  501    0  0.00000000000E+00 -0.00000000000E+00 -0.24616282607E+04  0.24616282607E+04  0.00000000000E+00 0. -1.
         24    2    1    2    0    0  0.43718775371E+03  0.11698640958E+04 -0.39675751957E+03  0.13127550329E+04  0.78702685047E+02 0.  0.
        254    2    1    2    0    0 -0.43718775371E+03 -0.11698640958E+04 -0.12364662194E+04  0.19772777494E+04  0.90612551664E+03 0.  0.
         23    2    4    4    0    0  0.81736671346E+02 -0.68373552107E+03 -0.21077617294E+03  0.72591027399E+03  0.91345413621E+02 0.  0.
         23    2    4    4    0    0 -0.51892442506E+03 -0.48612857469E+03 -0.10256900465E+04  0.12513674754E+04  0.90977673058E+02 0.  0.
          4    1    3    3  502    0  0.38213290674E+03  0.10658943646E+04 -0.34093715225E+03  0.11825373131E+04  0.00000000000E+00 0. -1.
         -3    1    3    3    0  502  0.55054846972E+02  0.10396973112E+03 -0.55820367325E+02  0.13021771989E+03  0.00000000000E+00 0.  1.
         11    1    5    5    0    0  0.61768365852E+02 -0.57011390777E+03 -0.20955912987E+03  0.61054093046E+03  0.00000000000E+00 0. -1.
        -11    1    5    5    0    0  0.19968305493E+02 -0.11362161330E+03 -0.12170430703E+01  0.11536934353E+03  0.00000000000E+00 0.  1.
          1    1    6    6  503    0 -0.35154502566E+03 -0.30927642396E+03 -0.74340351373E+03  0.87856963054E+03  0.00000000000E+00 0. -1.
         -1    1    6    6    0  503 -0.16737939940E+03 -0.17685215073E+03 -0.28228653274E+03  0.37279784485E+03  0.00000000000E+00 0.  1.
<mgrwt>
<rscale>  0 0.28560280E+04</rscale>
<asrwt>0</asrwt>
<pdfrwt beam="1">  1        2 0.37871204E+00 0.28560280E+04</pdfrwt>
<pdfrwt beam="2">  1       -1 0.12744685E+00 0.28560280E+04</pdfrwt>
<totfact> 0.19229679E+00</totfact>
</mgrwt>
</event>
<event>
12    6  0.1540825E-007  0.1272901E+04  0.7818608E-02  0.9051335E-01
         -1   -1    0    0    0  501 -0.00000000000E+00  0.00000000000E+00  0.98531554263E+02  0.98531554263E+02  0.00000000000E+00 0.  1.
          2   -1    0    0  501    0  0.00000000000E+00 -0.00000000000E+00 -0.41110635499E+04  0.41110635499E+04  0.00000000000E+00 0. -1.
         24    2    1    2    0    0  0.75125857937E+02 -0.23413937698E+03 -0.16414697603E+04  0.16617894617E+04  0.81584917234E+02 0.  0.
        254    2    1    2    0    0 -0.75125857937E+02  0.23413937698E+03 -0.23710622354E+04  0.25478056425E+04  0.89939553338E+03 0.  0.
         23    2    4    4    0    0  0.94582971462E+02  0.47821508016E+02  0.20369042447E+02  0.14130367671E+03  0.91208530535E+02 0.  0.
         23    2    4    4    0    0 -0.16970882940E+03  0.18631786897E+03 -0.23914312779E+04  0.24065019658E+04  0.93769502708E+02 0.  0.
          2    1    3    3  502    0  0.64425244977E+02 -0.13968307183E+03 -0.12243239281E+04  0.12339493724E+04  0.00000000000E+00 0. -1.
         -1    1    3    3    0  502  0.10700612960E+02 -0.94456305149E+02 -0.41714583213E+03  0.42784008924E+03  0.00000000000E+00 0.  1.
         11    1    5    5    0    0  0.60051854296E+01 -0.76992283450E+01 -0.25378647678E+02  0.27192207103E+02  0.00000000000E+00 0. -1.
        -11    1    5    5    0    0  0.88577786032E+02  0.55520736361E+02  0.45747690125E+02  0.11411146961E+03  0.00000000000E+00 0.  1.
          4    1    6    6  503    0 -0.17162990055E+02 -0.10108417286E+02 -0.15062043487E+03  0.15193177327E+03  0.00000000000E+00 0. -1.
         -4    1    6    6    0  503 -0.15254583934E+03  0.19642628625E+03 -0.22408108430E+04  0.22545701926E+04  0.00000000000E+00 0.  1.
<mgrwt>
<rscale>  0 0.12729014E+04</rscale>
<asrwt>0</asrwt>
<pdfrwt beam="1">  1        2 0.63247137E+00 0.12729014E+04</pdfrwt>
<pdfrwt beam="2">  1       -1 0.15158699E-01 0.12729014E+04</pdfrwt>
<totfact> 0.10412736E+01</totfact>
</mgrwt>
</event>
<event>
12    6  0.1540825E-007  0.1489295E+04  0.7818608E-02  0.8891603E-01
          2   -1    0    0  501    0  0.00000000000E+00  0.00000000000E+00  0.95313922435E+03  0.95313922435E+03  0.00000000000E+00 0. -1.
         -1   -1    0    0    0  501 -0.00000000000E+00 -0.00000000000E+00 -0.58176163980E+03  0.58176163980E+03  0.00000000000E+00 0.  1.
         24    2    1    2    0    0 -0.15941179202E+03  0.13267300717E+03 -0.31213811077E+03  0.38302545512E+03  0.79145769376E+02 0.  0.
        254    2    1    2    0    0  0.15941179202E+03 -0.13267300717E+03  0.68351569532E+03  0.11518754090E+04  0.90366421081E+03 0.  0.
         23    2    4    4    0    0  0.28442321063E+03 -0.44922976277E+03  0.56080984655E+03  0.77784893458E+03  0.88528744132E+02 0.  0.
         23    2    4    4    0    0 -0.12501141862E+03  0.31655675560E+03  0.12270584877E+03  0.37402647445E+03  0.94884371547E+02 0.  0.
          4    1    3    3  502    0 -0.42913883957E+02  0.80945582411E+02 -0.16166592806E+03  0.18582158390E+03  0.00000000000E+00 0. -1.
         -3    1    3    3    0  502 -0.11649790806E+03  0.51727424759E+02 -0.15047218271E+03  0.19720387122E+03  0.00000000000E+00 0.  1.
         11    1    5    5    0    0  0.11015428043E+03 -0.12747619892E+03  0.13126310157E+03  0.21357469097E+03  0.00000000000E+00 0. -1.
        -11    1    5    5    0    0  0.17426893021E+03 -0.32175356385E+03  0.42954674498E+03  0.56427424361E+03  0.00000000000E+00 0.  1.
          2    1    6    6  503    0  0.13768533992E+02  0.42768110693E+02  0.27367204622E+02  0.52608437625E+02  0.00000000000E+00 0. -1.
         -2    1    6    6    0  503 -0.13877995261E+03  0.27378864491E+03  0.95338644150E+02  0.32141803682E+03  0.00000000000E+00 0.  1.
<mgrwt>
<rscale>  0 0.14892949E+04</rscale>
<asrwt>0</asrwt>
<pdfrwt beam="1">  1        2 0.14663680E+00 0.14892949E+04</pdfrwt>
<pdfrwt beam="2">  1       -1 0.89501791E-01 0.14892949E+04</pdfrwt>
<totfact> 0.36469063E+01</totfact>
</mgrwt>
</event>
<event>
12    6  0.1540825E-007  0.1925491E+04  0.7818608E-02  0.8642271E-01
          2   -1    0    0  501    0  0.00000000000E+00  0.00000000000E+00  0.26352038504E+04  0.26352038504E+04  0.00000000000E+00 0. -1.
         -1   -1    0    0    0  501 -0.00000000000E+00 -0.00000000000E+00 -0.35172931719E+03  0.35172931719E+03  0.00000000000E+00 0.  1.
         24    2    1    2    0    0 -0.23732017126E+03  0.96103155551E+02  0.20154999055E+04  0.20331973316E+04  0.78069454914E+02 0.  0.
        254    2    1    2    0    0  0.23732017126E+03 -0.96103155551E+02  0.26797462772E+03  0.95373583604E+03  0.87877469447E+03 0.  0.
         23    2    4    4    0    0  0.49760699373E+03  0.16472947491E+03  0.12650778386E+03  0.54681694304E+03  0.90862696989E+02 0.  0.
         23    2    4    4    0    0 -0.26028682247E+03 -0.26083263046E+03  0.14146684385E+03  0.40691889299E+03  0.98930412401E+02 0.  0.
          2    1    3    3  502    0 -0.10901958226E+03  0.69406174556E+01  0.96023512495E+03  0.96642896101E+03  0.00000000000E+00 0. -1.
         -1    1    3    3    0  502 -0.12830058899E+03  0.89162538095E+02  0.10552647806E+04  0.10667683706E+04  0.00000000000E+00 0.  1.
         11    1    5    5    0    0  0.29473776686E+03  0.13067893752E+03  0.44928466796E+02  0.32552404374E+03  0.00000000000E+00 0.  1.
        -11    1    5    5    0    0  0.20286922687E+03  0.34050537396E+02  0.81579317066E+02  0.22129289930E+03  0.00000000000E+00 0. -1.
          2    1    6    6  503    0 -0.14213667708E+03 -0.12471323463E+03  0.21297501340E+02  0.19028875275E+03  0.00000000000E+00 0. -1.
         -2    1    6    6    0  503 -0.11815014540E+03 -0.13611939584E+03  0.12016934251E+03  0.21663014024E+03  0.00000000000E+00 0.  1.
<mgrwt>
<rscale>  0 0.19254905E+04</rscale>
<asrwt>0</asrwt>
<pdfrwt beam="1">  1        2 0.40541596E+00 0.19254905E+04</pdfrwt>
<pdfrwt beam="2">  1       -1 0.54112204E-01 0.19254905E+04</pdfrwt>
<totfact> 0.10657617E+01</totfact>
</mgrwt>
</event>
<event>
12    6  0.1540825E-007  0.2647491E+04  0.7818608E-02  0.8352246E-01
         -1   -1    0    0    0  501 -0.00000000000E+00  0.00000000000E+00  0.60547414982E+03  0.60547414982E+03  0.00000000000E+00 0.  1.
          2   -1    0    0  501    0  0.00000000000E+00 -0.00000000000E+00 -0.28940987043E+04  0.28940987043E+04  0.00000000000E+00 0. -1.
         24    2    1    2    0    0  0.19586368458E+03 -0.11519211517E+04 -0.93888679714E+03  0.15010202159E+04  0.79172898824E+02 0.  0.
        254    2    1    2    0    0 -0.19586368458E+03  0.11519211517E+04 -0.13497377574E+04  0.19985526383E+04  0.89840731938E+03 0.  0.
         23    2    4    4    0    0 -0.17896920155E+03  0.82552167490E+03 -0.14182989705E+04  0.16531230757E+04  0.87908605266E+02 0.  0.
         23    2    4    4    0    0 -0.16894483024E+02  0.32639947682E+03  0.68561213184E+02  0.34542956251E+03  0.88311384769E+02 0.  0.
          2    1    3    3  502    0  0.19125122185E+03 -0.11439765104E+04 -0.92150876003E+03  0.14813634534E+04  0.00000000000E+00 0. -1.
         -1    1    3    3    0  502  0.46124627259E+01 -0.79446413334E+01 -0.17378037110E+02  0.19656762503E+02  0.00000000000E+00 0.  1.
         11    1    5    5    0    0 -0.12194648614E+03  0.63049784496E+03 -0.11416754238E+04  0.13098936031E+04  0.00000000000E+00 0. -1.
        -11    1    5    5    0    0 -0.57022715411E+02  0.19502382994E+03 -0.27662354672E+03  0.34322947268E+03  0.00000000000E+00 0.  1.
          1    1    6    6  503    0 -0.48336471304E+02  0.11384993871E+03  0.23860607505E+02  0.12596647012E+03  0.00000000000E+00 0. -1.
         -1    1    6    6    0  503  0.31441988280E+02  0.21254953810E+03  0.44700605679E+02  0.21946309239E+03  0.00000000000E+00 0.  1.
<mgrwt>
<rscale>  0 0.26474909E+04</rscale>
<asrwt>0</asrwt>
<pdfrwt beam="1">  1        2 0.44524595E+00 0.26474909E+04</pdfrwt>
<pdfrwt beam="2">  1       -1 0.93149869E-01 0.26474909E+04</pdfrwt>
<totfact> 0.22704762E+00</totfact>
</mgrwt>
</event>
<event>
12    6  0.1540825E-007  0.3227017E+04  0.7818608E-02  0.8181718E-01
         -1   -1    0    0    0  501 -0.00000000000E+00  0.00000000000E+00  0.14254382872E+04  0.14254382872E+04  0.00000000000E+00 0.  1.
          2   -1    0    0  501    0  0.00000000000E+00 -0.00000000000E+00 -0.18263922371E+04  0.18263922371E+04  0.00000000000E+00 0. -1.
         24    2    1    2    0    0  0.80398928512E+02  0.14548350740E+04 -0.49389341420E+03  0.15405282888E+04  0.79294536304E+02 0.  0.
        254    2    1    2    0    0 -0.80398928512E+02 -0.14548350740E+04  0.92939464240E+02  0.17113022356E+04  0.89269732667E+03 0.  0.
         23    2    4    4    0    0  0.30851604058E+02  0.82702150560E+02 -0.92918709220E+02  0.15587715660E+03  0.88726175656E+02 0.  0.
         23    2    4    4    0    0 -0.11125053257E+03 -0.15375372246E+04  0.18585817346E+03  0.15554250790E+04  0.91687063312E+02 0.  0.
          2    1    3    3  502    0  0.19437027613E+01  0.38819311094E+03 -0.16253127476E+03  0.42084924218E+03  0.00000000000E+00 0. -1.
         -1    1    3    3    0  502  0.78455225751E+02  0.10666419631E+04 -0.33136213944E+03  0.11196790466E+04  0.00000000000E+00 0.  1.
         11    1    5    5    0    0  0.53194164995E+02  0.75156180036E+02 -0.45031844151E+02  0.10249847596E+03  0.00000000000E+00 0.  1.
        -11    1    5    5    0    0 -0.22342560937E+02  0.75459705241E+01 -0.47886865070E+02  0.53378680637E+02  0.00000000000E+00 0. -1.
          2    1    6    6  503    0 -0.43845880449E+02 -0.92216308568E+03  0.15020842626E+03  0.93534474348E+03  0.00000000000E+00 0. -1.
         -2    1    6    6    0  503 -0.67404652122E+02 -0.61537413892E+03  0.35649747205E+02  0.62008033548E+03  0.00000000000E+00 0.  1.
<mgrwt>
<rscale>  0 0.32270168E+04</rscale>
<asrwt>0</asrwt>
<pdfrwt beam="1">  1        2 0.28098342E+00 0.32270168E+04</pdfrwt>
<pdfrwt beam="2">  1       -1 0.21929820E+00 0.32270168E+04</pdfrwt>
<totfact> 0.88729895E-01</totfact>
</mgrwt>
</event>
<event>
12    6  0.1540825E-007  0.2647507E+04  0.7818608E-02  0.8352241E-01
          2   -1    0    0  501    0  0.00000000000E+00  0.00000000000E+00  0.14269454525E+04  0.14269454525E+04  0.00000000000E+00 0. -1.
         -1   -1    0    0    0  501 -0.00000000000E+00 -0.00000000000E+00 -0.12280242370E+04  0.12280242370E+04  0.00000000000E+00 0.  1.
         24    2    1    2    0    0 -0.31847732406E+03 -0.49136996106E+03 -0.93017711558E+03  0.11019753568E+04  0.79044140061E+02 0.  0.
        254    2    1    2    0    0  0.31847732406E+03  0.49136996106E+03  0.11290983311E+04  0.15529943326E+04  0.89109826132E+03 0.  0.
         23    2    4    4    0    0  0.46561882893E+03  0.66718099841E+03  0.88014820063E+03  0.12021049069E+04  0.91999856380E+02 0.  0.
         23    2    4    4    0    0 -0.14714150488E+03 -0.17581103735E+03  0.24895013048E+03  0.35088942576E+03  0.92666489814E+02 0.  0.
          2    1    3    3  502    0 -0.35048781565E+02 -0.93298757113E+02 -0.12183040144E+03  0.15740305551E+03  0.00000000000E+00 0. -1.
         -1    1    3    3    0  502 -0.28342854249E+03 -0.39807120394E+03 -0.80834671414E+03  0.94457230129E+03  0.00000000000E+00 0.  1.
         11    1    5    5    0    0  0.28047419031E+02  0.86251776938E+02  0.11486880960E+03  0.14635870373E+03  0.00000000000E+00 0.  1.
        -11    1    5    5    0    0  0.43757140990E+03  0.58092922147E+03  0.76527939103E+03  0.10557462031E+04  0.00000000000E+00 0. -1.
          3    1    6    6  503    0 -0.15764964890E+03 -0.16119006922E+03  0.21061207366E+03  0.30853378386E+03  0.00000000000E+00 0. -1.
         -3    1    6    6    0  503  0.10508144024E+02 -0.14620968127E+02  0.38338056821E+02  0.42355641898E+02  0.00000000000E+00 0.  1.
<mgrwt>
<rscale>  0 0.26475072E+04</rscale>
<asrwt>0</asrwt>
<pdfrwt beam="1">  1        2 0.21953007E+00 0.26475072E+04</pdfrwt>
<pdfrwt beam="2">  1       -1 0.18892681E+00 0.26475072E+04</pdfrwt>
<totfact> 0.25202511E+00</totfact>
</mgrwt>
</event>
<event>
12    6  0.1540825E-007  0.1448756E+04  0.7818608E-02  0.8919264E-01
          4   -1    0    0  501    0  0.00000000000E+00  0.00000000000E+00  0.16819441250E+03  0.16819441250E+03  0.00000000000E+00 0. -1.
         -3   -1    0    0    0  501 -0.00000000000E+00 -0.00000000000E+00 -0.31197429015E+04  0.31197429015E+04  0.00000000000E+00 0.  1.
         24    2    1    2    0    0  0.45664633454E+02  0.15256745363E+02 -0.19770172552E+04  0.19792354965E+04  0.80361037468E+02 0.  0.
        254    2    1    2    0    0 -0.45664633454E+02 -0.15256745363E+02 -0.97453123385E+03  0.13087018175E+04  0.87216471746E+03 0.  0.
         23    2    4    4    0    0 -0.15828413557E+02  0.17373177188E+03 -0.10618982673E+04  0.10796940507E+04  0.87624458871E+02 0.  0.
         23    2    4    4    0    0 -0.29836219897E+02 -0.18898851724E+03  0.87367033462E+02  0.22900776680E+03  0.90579793825E+02 0.  0.
          4    1    3    3  502    0  0.52122832468E+02  0.39782930880E+02 -0.11854627890E+04  0.11872748188E+04  0.00000000000E+00 0. -1.
         -3    1    3    3    0  502 -0.64581990139E+01 -0.24526185518E+02 -0.79155446621E+03  0.79196067774E+03  0.00000000000E+00 0.  1.
         11    1    5    5    0    0 -0.51756797908E+02  0.88078839743E+02 -0.53312435497E+03  0.54282430491E+03  0.00000000000E+00 0.  1.
        -11    1    5    5    0    0  0.35928384351E+02  0.85652932137E+02 -0.52877391235E+03  0.53686974581E+03  0.00000000000E+00 0. -1.
          1    1    6    6  503    0  0.19835551690E+02 -0.24918199854E+02 -0.80040647840E+01  0.32839470883E+02  0.00000000000E+00 0. -1.
         -1    1    6    6    0  503 -0.49671771587E+02 -0.16407031739E+03  0.95371098246E+02  0.19616829591E+03  0.00000000000E+00 0.  1.
<mgrwt>
<rscale>  0 0.14487558E+04</rscale>
<asrwt>0</asrwt>
<pdfrwt beam="1">  1        4 0.25876064E-01 0.14487558E+04</pdfrwt>
<pdfrwt beam="2">  1       -3 0.47996044E+00 0.14487558E+04</pdfrwt>
<totfact> 0.12538563E-01</totfact>
</mgrwt>
</event>
<event>
12    6  0.1545542E-007  0.1964482E+04  0.7818608E-02  0.8623409E-01
         -1   -1    0    0    0  501 -0.00000000000E+00  0.00000000000E+00  0.14886779081E+04  0.14886779081E+04  0.00000000000E+00 0.  1.
          2   -1    0    0  501    0  0.00000000000E+00 -0.00000000000E+00 -0.64808981097E+03  0.64808981097E+03  0.00000000000E+00 0. -1.
         24    2    1    2    0    0  0.20530921247E+03 -0.64183910873E+03 -0.73912142976E+02  0.68266928316E+03  0.80405416930E+02 0.  0.
        254    2    1    2    0    0 -0.20530921247E+03  0.64183910873E+03  0.91450024013E+03  0.14540984359E+04  0.90773468479E+03 0.  0.
         23    2    4    4    0    0 -0.16034685483E+03  0.30434590514E+03 -0.10877222395E+03  0.37181433769E+03  0.89871915447E+02 0.  0.
         23    2    4    4    0    0 -0.44962357640E+02  0.33749320360E+03  0.10232724641E+04  0.10822840982E+04  0.91263670128E+02 0.  0.
          4    1    3    3  502    0  0.18312168126E+03 -0.58979334294E+03 -0.45190850449E+02  0.61921882279E+03  0.00000000000E+00 0. -1.
         -1    1    3    3    0  502  0.22187531207E+02 -0.52045765792E+02 -0.28721292527E+02  0.63450460379E+02  0.00000000000E+00 0.  1.
         11    1    5    5    0    0 -0.23570893296E+02  0.12749718361E+03 -0.19658736678E+02  0.13113956217E+03  0.00000000000E+00 0.  1.
        -11    1    5    5    0    0 -0.13677596153E+03  0.17684872153E+03 -0.89113487271E+02  0.24067477552E+03  0.00000000000E+00 0. -1.
          2    1    6    6  503    0 -0.45795521272E+02  0.26634042726E+03  0.90264496658E+03  0.94223266164E+03  0.00000000000E+00 0. -1.
         -2    1    6    6    0  503  0.83316363254E+00  0.71152776339E+02  0.12062749749E+03  0.14005143660E+03  0.00000000000E+00 0.  1.
<mgrwt>
<rscale>  0 0.19644816E+04</rscale>
<asrwt>0</asrwt>
<pdfrwt beam="1">  1        2 0.99706125E-01 0.19644816E+04</pdfrwt>
<pdfrwt beam="2">  1       -1 0.22902737E+00 0.19644816E+04</pdfrwt>
<totfact> 0.45990191E+00</totfact>
</mgrwt>
</event>
<event>
12    6  0.1540825E-007  0.1879414E+04  0.7818608E-02  0.8665172E-01
         -1   -1    0    0    0  501 -0.00000000000E+00  0.00000000000E+00  0.19048084855E+03  0.19048084855E+03  0.00000000000E+00 0.  1.
          2   -1    0    0  501    0  0.00000000000E+00 -0.00000000000E+00 -0.46358972327E+04  0.46358972327E+04  0.00000000000E+00 0. -1.
         24    2    1    2    0    0  0.32552830934E+03 -0.52815171083E+03 -0.28226271056E+04  0.28914757761E+04  0.92170908151E+02 0.  0.
        254    2    1    2    0    0 -0.32552830934E+03  0.52815171083E+03 -0.16227892785E+04  0.19349023052E+04  0.85175640783E+03 0.  0.
         23    2    4    4    0    0 -0.34100204255E+03 -0.13803930538E+03 -0.64474720180E+03  0.74802403658E+03  0.92215845763E+02 0.  0.
         23    2    4    4    0    0  0.15473733210E+02  0.66619101621E+03 -0.97804207674E+03  0.11868782686E+04  0.89798742466E+02 0.  0.
          4    1    3    3  502    0 -0.71871245676E+00 -0.21729477511E+02 -0.57135283753E+02  0.61132048797E+02  0.00000000000E+00 0. -1.
         -3    1    3    3    0  502  0.32624702180E+03 -0.50642223332E+03 -0.27654918219E+04  0.28303437273E+04  0.00000000000E+00 0.  1.
         11    1    5    5    0    0 -0.41920934505E+02 -0.52442921007E+02 -0.94429431140E+02  0.11586432660E+03  0.00000000000E+00 0.  1.
        -11    1    5    5    0    0 -0.29908110805E+03 -0.85596384376E+02 -0.55031777066E+03  0.63215970998E+03  0.00000000000E+00 0. -1.
          1    1    6    6  503    0 -0.63213008618E+01  0.60842877325E+03 -0.85745558128E+03  0.10514064889E+04  0.00000000000E+00 0. -1.
         -1    1    6    6    0  503  0.21795034072E+02  0.57762242959E+02 -0.12058649546E+03  0.13547177975E+03  0.00000000000E+00 0.  1.
<mgrwt>
<rscale>  0 0.18794144E+04</rscale>
<asrwt>0</asrwt>
<pdfrwt beam="1">  1        2 0.71321503E+00 0.18794144E+04</pdfrwt>
<pdfrwt beam="2">  1       -1 0.29304743E-01 0.18794144E+04</pdfrwt>
<totfact> 0.10418402E+00</totfact>
</mgrwt>
</event>
<event>
12    6  0.1540825E-007  0.2134545E+04  0.7818608E-02  0.8546177E-01
         -1   -1    0    0    0  501 -0.00000000000E+00  0.00000000000E+00  0.18760377698E+04  0.18760377698E+04  0.00000000000E+00 0.  1.
          2   -1    0    0  501    0  0.00000000000E+00 -0.00000000000E+00 -0.60716816213E+03  0.60716816213E+03  0.00000000000E+00 0. -1.
         24    2    1    2    0    0 -0.30841126235E+03  0.40994273126E+02  0.14737371500E+04  0.15083071969E+04  0.79318193559E+02 0.  0.
        254    2    1    2    0    0  0.30841126235E+03 -0.40994273126E+02 -0.20486754234E+03  0.97489873499E+03  0.90092108223E+03 0.  0.
         23    2    4    4    0    0  0.16109067313E+03  0.19468178902E+03 -0.49490462751E+03  0.56306316664E+03  0.90875383634E+02 0.  0.
         23    2    4    4    0    0  0.14732058922E+03 -0.23567606215E+03  0.29003708517E+03  0.41183556835E+03  0.90776992151E+02 0.  0.
          4    1    3    3  502    0 -0.19467580273E+02  0.17606460107E+02  0.65915524739E+02  0.70949492745E+02  0.00000000000E+00 0. -1.
         -3    1    3    3    0  502 -0.28894368207E+03  0.23387813019E+02  0.14078216253E+04  0.14373577042E+04  0.00000000000E+00 0.  1.
         11    1    5    5    0    0  0.67611419430E+02  0.54674546287E+02 -0.25933005029E+03  0.27351907618E+03  0.00000000000E+00 0. -1.
        -11    1    5    5    0    0  0.93479253695E+02  0.14000724274E+03 -0.23557457722E+03  0.28954409047E+03  0.00000000000E+00 0.  1.
          4    1    6    6  503    0  0.47176552729E+02 -0.18377278144E+02  0.72731756421E+02  0.88618620343E+02  0.00000000000E+00 0. -1.
         -4    1    6    6    0  503  0.10014403649E+03 -0.21729878401E+03  0.21730532875E+03  0.32321694801E+03  0.00000000000E+00 0.  1.
<mgrwt>
<rscale>  0 0.21345448E+04</rscale>
<asrwt>0</asrwt>
<pdfrwt beam="1">  1        2 0.93410488E-01 0.21345448E+04</pdfrwt>
<pdfrwt beam="2">  1       -1 0.28862119E+00 0.21345448E+04</pdfrwt>
<totfact> 0.20079440E+00</totfact>
</mgrwt>
</event>
<event>
12    6  0.1540825E-007  0.2330373E+04  0.7818608E-02  0.8466041E-01
          2   -1    0    0  501    0  0.00000000000E+00  0.00000000000E+00  0.15640205642E+04  0.15640205642E+04  0.00000000000E+00 0. -1.
         -1   -1    0    0    0  501 -0.00000000000E+00 -0.00000000000E+00 -0.86805772991E+03  0.86805772991E+03  0.00000000000E+00 0.  1.
         24    2    1    2    0    0 -0.19003094270E+03  0.96071953785E+03  0.45597577204E+03  0.10828624045E+04  0.74721435417E+02 0.  0.
        254    2    1    2    0    0  0.19003094270E+03 -0.96071953785E+03  0.23998706230E+03  0.13492158896E+04  0.89649090186E+03 0.  0.
         23    2    4    4    0    0 -0.19630578840E+02 -0.10096989218E+04  0.37370566290E+03  0.10806943863E+04  0.91472191438E+02 0.  0.
         23    2    4    4    0    0  0.20966152154E+03  0.48979383961E+02 -0.13371860060E+03  0.26852150330E+03  0.88691600047E+02 0.  0.
          2    1    3    3  502    0 -0.19483240375E+03  0.93461915818E+03  0.43552889815E+03  0.10493607852E+04  0.00000000000E+00 0. -1.
         -1    1    3    3    0  502  0.48014610564E+01  0.26100379661E+02  0.20446873890E+02  0.33501619343E+02  0.00000000000E+00 0.  1.
         11    1    5    5    0    0 -0.47996243205E+02 -0.40801287033E+03  0.17322681972E+03  0.44585386932E+03  0.00000000000E+00 0. -1.
        -11    1    5    5    0    0  0.28365664366E+02 -0.60168605148E+03  0.20047884318E+03  0.63484051700E+03  0.00000000000E+00 0.  1.
          1    1    6    6  503    0  0.20042947856E+03  0.27599559066E+02 -0.95408051971E+02  0.22368819351E+03  0.00000000000E+00 0. -1.
         -1    1    6    6    0  503  0.92320429823E+01  0.21379824895E+02 -0.38310548628E+02  0.44833309785E+02  0.00000000000E+00 0.  1.
<mgrwt>
<rscale>  0 0.23303735E+04</rscale>
<asrwt>0</asrwt>
<pdfrwt beam="1">  1        2 0.24061855E+00 0.23303735E+04</pdfrwt>
<pdfrwt beam="2">  1       -1 0.13354734E+00 0.23303735E+04</pdfrwt>
<totfact> 0.56989592E+00</totfact>
</mgrwt>
</event>
<event>
12    6  0.1540825E-007  0.1503242E+04  0.7818608E-02  0.8882300E-01
         -1   -1    0    0    0  501 -0.00000000000E+00  0.00000000000E+00  0.19003154949E+03  0.19003154949E+03  0.00000000000E+00 0.  1.
          2   -1    0    0  501    0  0.00000000000E+00 -0.00000000000E+00 -0.29728428220E+04  0.29728428220E+04  0.00000000000E+00 0. -1.
         24    2    1    2    0    0  0.22467160656E+03  0.53347547684E+02 -0.17879658083E+04  0.18045947471E+04  0.80107289700E+02 0.  0.
        254    2    1    2    0    0 -0.22467160656E+03 -0.53347547684E+02 -0.99484546422E+03  0.13582796244E+04  0.89547906109E+03 0.  0.
         23    2    4    4    0    0 -0.42758388532E+03 -0.25378709045E+03 -0.92109812049E+03  0.10501641980E+04  0.84777525881E+02 0.  0.
         23    2    4    4    0    0  0.20291227876E+03  0.20043954277E+03 -0.73747343728E+02  0.30811542645E+03  0.90260966839E+02 0.  0.
          4    1    3    3  502    0  0.18628616054E+03  0.59897372011E+02 -0.16383612804E+04  0.16500054284E+04  0.00000000000E+00 0. -1.
         -3    1    3    3    0  502  0.38385446024E+02 -0.65498243273E+01 -0.14960452794E+03  0.15458931866E+03  0.00000000000E+00 0.  1.
         11    1    5    5    0    0 -0.21749018302E+03 -0.14577540736E+03 -0.40070130963E+03  0.47865853031E+03  0.00000000000E+00 0.  1.
        -11    1    5    5    0    0 -0.21009370230E+03 -0.10801168310E+03 -0.52039681086E+03  0.57150566768E+03  0.00000000000E+00 0. -1.
          4    1    6    6  503    0  0.66825916224E+02  0.46936724262E+02  0.17629846669E+02  0.83543824770E+02  0.00000000000E+00 0. -1.
         -4    1    6    6    0  503  0.13608636253E+03  0.15350281851E+03 -0.91377190397E+02  0.22457160168E+03  0.00000000000E+00 0.  1.
<mgrwt>
<rscale>  0 0.15032417E+04</rscale>
<asrwt>0</asrwt>
<pdfrwt beam="1">  1        2 0.45736044E+00 0.15032417E+04</pdfrwt>
<pdfrwt beam="2">  1       -1 0.29235623E-01 0.15032417E+04</pdfrwt>
<totfact> 0.21413686E+01</totfact>
</mgrwt>
</event>
<event>
12    6  0.1540825E-007  0.1597375E+04  0.7818608E-02  0.8822162E-01
         -1   -1    0    0    0  501 -0.00000000000E+00  0.00000000000E+00  0.76997907083E+03  0.76997907083E+03  0.00000000000E+00 0.  1.
          2   -1    0    0  501    0  0.00000000000E+00 -0.00000000000E+00 -0.82846594730E+03  0.82846594730E+03  0.00000000000E+00 0. -1.
         24    2    1    2    0    0  0.17163767525E+03  0.47698125859E+03 -0.13700561959E+03  0.53128553162E+03  0.80766104915E+02 0.  0.
        254    2    1    2    0    0 -0.17163767525E+03 -0.47698125859E+03  0.78518743116E+02  0.10671594865E+04  0.93578499882E+03 0.  0.
         23    2    4    4    0    0 -0.19867211463E+03 -0.73867732921E+03 -0.23446654096E+02  0.77038613986E+03  0.88488717224E+02 0.  0.
         23    2    4    4    0    0  0.27034439377E+02  0.26169607063E+03  0.10196539721E+03  0.29677334665E+03  0.91987948968E+02 0.  0.
          4    1    3    3  502    0  0.15008518987E+03  0.41464635063E+03 -0.89399771852E+02  0.44994386262E+03  0.00000000000E+00 0. -1.
         -3    1    3    3    0  502  0.21552485384E+02  0.62334907959E+02 -0.47605847737E+02  0.81341668998E+02  0.00000000000E+00 0.  1.
         11    1    5    5    0    0 -0.16483136270E+03 -0.57086240692E+03 -0.53456677484E+02  0.59658266999E+03  0.00000000000E+00 0. -1.
        -11    1    5    5    0    0 -0.33840751926E+02 -0.16781492229E+03  0.30010023388E+02  0.17380346987E+03  0.00000000000E+00 0.  1.
          4    1    6    6  503    0  0.31806284481E+02  0.24981750223E+03  0.68560939514E+02  0.26100005092E+03  0.00000000000E+00 0. -1.
         -4    1    6    6    0  503 -0.47718451040E+01  0.11878568398E+02  0.33404457699E+02  0.35773295725E+02  0.00000000000E+00 0.  1.
<mgrwt>
<rscale>  0 0.15973746E+04</rscale>
<asrwt>0</asrwt>
<pdfrwt beam="1">  1        2 0.12745630E+00 0.15973746E+04</pdfrwt>
<pdfrwt beam="2">  1       -1 0.11845832E+00 0.15973746E+04</pdfrwt>
<totfact> 0.22999881E+01</totfact>
</mgrwt>
</event>
<event>
12    6  0.1540825E-007  0.1696600E+04  0.7818608E-02  0.8763306E-01
         -1   -1    0    0    0  501 -0.00000000000E+00  0.00000000000E+00  0.32789691480E+03  0.32789691480E+03  0.00000000000E+00 0.  1.
          2   -1    0    0  501    0  0.00000000000E+00 -0.00000000000E+00 -0.21946303413E+04  0.21946303413E+04  0.00000000000E+00 0. -1.
         24    2    1    2    0    0  0.88996523389E+02  0.58750072400E+03 -0.81419266636E+03  0.10111417498E+04  0.80127763345E+02 0.  0.
        254    2    1    2    0    0 -0.88996523389E+02 -0.58750072400E+03 -0.10525407602E+04  0.15113855063E+04  0.90739551184E+03 0.  0.
         23    2    4    4    0    0  0.29807983586E+03 -0.13585920443E+03 -0.51986314108E+02  0.34416700091E+03  0.91864224218E+02 0.  0.
         23    2    4    4    0    0 -0.38707635924E+03 -0.45164151956E+03 -0.10005544461E+04  0.11672185054E+04  0.86496645343E+02 0.  0.
          4    1    3    3  502    0  0.80127523866E+02  0.58485370718E+03 -0.80093745185E+03  0.99497491459E+03  0.00000000000E+00 0. -1.
         -3    1    3    3    0  502  0.88689995238E+01  0.26470168141E+01 -0.13255214507E+02  0.16166835256E+02  0.00000000000E+00 0.  1.
         11    1    5    5    0    0  0.17242864492E+02 -0.12414292419E+02 -0.29795452980E+02  0.36595082326E+02  0.00000000000E+00 0. -1.
        -11    1    5    5    0    0  0.28083697136E+03 -0.12344491201E+03 -0.22190861128E+02  0.30757191859E+03  0.00000000000E+00 0.  1.
          3    1    6    6  503    0 -0.51454280978E+02 -0.11329396128E+03 -0.21446835805E+03  0.24795108650E+03  0.00000000000E+00 0. -1.
         -3    1    6    6    0  503 -0.33562207827E+03 -0.33834755828E+03 -0.78608608801E+03  0.91926741886E+03  0.00000000000E+00 0.  1.
<mgrwt>
<rscale>  0 0.16965996E+04</rscale>
<asrwt>0</asrwt>
<pdfrwt beam="1">  1        2 0.33763543E+00 0.16965996E+04</pdfrwt>
<pdfrwt beam="2">  1       -1 0.50445681E-01 0.16965996E+04</pdfrwt>
<totfact> 0.22255312E+01</totfact>
</mgrwt>
</event>
<event>
12    6  0.1540825E-007  0.1019971E+04  0.7818608E-02  0.9286909E-01
          2   -1    0    0  501    0  0.00000000000E+00  0.00000000000E+00  0.14982170980E+04  0.14982170980E+04  0.00000000000E+00 0. -1.
         -1   -1    0    0    0  501 -0.00000000000E+00 -0.00000000000E+00 -0.17359631459E+03  0.17359631459E+03  0.00000000000E+00 0.  1.
         24    2    1    2    0    0 -0.32966307701E+02 -0.34984108073E+02  0.23179557980E+03  0.25480742431E+03  0.94270713434E+02 0.  0.
        254    2    1    2    0    0  0.32966307701E+02  0.34984108073E+02  0.10928252036E+04  0.14170059883E+04  0.90073768650E+03 0.  0.
         23    2    4    4    0    0  0.25171956893E+03 -0.32913906699E+03  0.74709695464E+03  0.86039202234E+03  0.10210438615E+03 0.  0.
         23    2    4    4    0    0 -0.21875326123E+03  0.36412317506E+03  0.34572824898E+03  0.55661396594E+03  0.99259301929E+02 0.  0.
          4    1    3    3  502    0 -0.40593867926E+02 -0.36056149140E+02  0.23849614744E+03  0.24459828362E+03  0.00000000000E+00 0. -1.
         -3    1    3    3    0  502  0.76275602253E+01  0.10720410670E+01 -0.67005676439E+01  0.10209140698E+02  0.00000000000E+00 0.  1.
         11    1    5    5    0    0  0.10467834429E+03 -0.67967775275E+02  0.18119845268E+03  0.22002284766E+03  0.00000000000E+00 0.  1.
        -11    1    5    5    0    0  0.14704122464E+03 -0.26117129171E+03  0.56589850196E+03  0.64036917468E+03  0.00000000000E+00 0. -1.
          3    1    6    6  503    0 -0.22550122515E+03  0.35831940347E+03  0.34727546859E+03  0.54757999282E+03  0.00000000000E+00 0. -1.
         -3    1    6    6    0  503  0.67479639259E+01  0.58037715886E+01 -0.15472196097E+01  0.90339731192E+01  0.00000000000E+00 0.  1.
<mgrwt>
<rscale>  0 0.10199705E+04</rscale>
<asrwt>0</asrwt>
<pdfrwt beam="1">  1        2 0.23049493E+00 0.10199705E+04</pdfrwt>
<pdfrwt beam="2">  1       -1 0.26707126E-01 0.10199705E+04</pdfrwt>
<totfact> 0.18056047E+02</totfact>
</mgrwt>
</event>
<event>
12    6  0.1540825E-007  0.1062482E+04  0.7818608E-02  0.9242551E-01
         -1   -1    0    0    0  501 -0.00000000000E+00  0.00000000000E+00  0.15613766715E+03  0.15613766715E+03  0.00000000000E+00 0.  1.
          2   -1    0    0  501    0  0.00000000000E+00 -0.00000000000E+00 -0.18074885920E+04  0.18074885920E+04  0.00000000000E+00 0. -1.
         24    2    1    2    0    0  0.71544796312E+02 -0.23199283707E+02 -0.36790118761E+02  0.11507819659E+03  0.78946905255E+02 0.  0.
        254    2    1    2    0    0 -0.71544796312E+02  0.23199283707E+02 -0.16145608061E+04  0.18485480626E+04  0.89703203867E+03 0.  0.
         23    2    4    4    0    0  0.18598808619E+03  0.70501267543E+02 -0.15480101091E+04  0.15633229923E+04  0.89897072350E+02 0.  0.
         23    2    4    4    0    0 -0.25753288250E+03 -0.47301983836E+02 -0.66550697033E+02  0.28522507025E+03  0.91453169321E+02 0.  0.
          4    1    3    3  502    0  0.75603726066E+02 -0.25608999284E+02 -0.54562753324E+02  0.96689390782E+02  0.00000000000E+00 0. -1.
         -3    1    3    3    0  502 -0.40589297546E+01  0.24097155775E+01  0.17772634563E+02  0.18388805813E+02  0.00000000000E+00 0.  1.
         11    1    5    5    0    0 -0.24912715464E+01  0.77163307306E+01 -0.11780027831E+02  0.14300952750E+02  0.00000000000E+00 0.  1.
        -11    1    5    5    0    0  0.18847935774E+03  0.62784936812E+02 -0.15362300812E+04  0.15490220396E+04  0.00000000000E+00 0. -1.
          1    1    6    6  503    0 -0.21783228126E+03 -0.46233831929E+02 -0.88759555174E+02  0.23972219048E+03  0.00000000000E+00 0. -1.
         -1    1    6    6    0  503 -0.39700601246E+02 -0.10681519071E+01  0.22208858141E+02  0.45502879774E+02  0.00000000000E+00 0.  1.
<mgrwt>
<rscale>  0 0.10624821E+04</rscale>
<asrwt>0</asrwt>
<pdfrwt beam="1">  1        2 0.27807515E+00 0.10624821E+04</pdfrwt>
<pdfrwt beam="2">  1       -1 0.24021181E-01 0.10624821E+04</pdfrwt>
<totfact> 0.14543938E+02</totfact>
</mgrwt>
</event>
<event>
12    6  0.1540825E-007  0.1966675E+04  0.7818608E-02  0.8622361E-01
          2   -1    0    0  501    0  0.00000000000E+00  0.00000000000E+00  0.17674372185E+04  0.17674372185E+04  0.00000000000E+00 0. -1.
         -1   -1    0    0    0  501 -0.00000000000E+00 -0.00000000000E+00 -0.54709319682E+03  0.54709319682E+03  0.00000000000E+00 0.  1.
         24    2    1    2    0    0 -0.18746780591E+02 -0.62904920222E+03  0.10235028758E+04  0.12040624448E+04  0.78446755741E+02 0.  0.
        254    2    1    2    0    0  0.18746780591E+02  0.62904920222E+03  0.19684114580E+03  0.11104679705E+04  0.89349780987E+03 0.  0.
         23    2    4    4    0    0 -0.71446568124E+02  0.80150339746E+03  0.31157914096E+03  0.86700855561E+03  0.84320615416E+02 0.  0.
         23    2    4    4    0    0  0.90193348715E+02 -0.17245419524E+03 -0.11473799516E+03  0.24345941490E+03  0.90732516541E+02 0.  0.
          4    1    3    3  502    0  0.20094318000E+01 -0.29593798027E+03  0.41001780418E+03  0.50566582416E+03  0.00000000000E+00 0. -1.
         -1    1    3    3    0  502 -0.20756212391E+02 -0.33311122195E+03  0.61348507165E+03  0.69839662061E+03  0.00000000000E+00 0.  1.
         11    1    5    5    0    0  0.12805816825E+02  0.32072191646E+03  0.12454346967E+03  0.34429291669E+03  0.00000000000E+00 0.  1.
        -11    1    5    5    0    0 -0.84252384949E+02  0.48078148100E+03  0.18703567129E+03  0.52271563893E+03  0.00000000000E+00 0. -1.
          3    1    6    6  503    0  0.83901450913E+02 -0.73563330569E+02 -0.37146989061E+02  0.11760491429E+03  0.00000000000E+00 0. -1.
         -3    1    6    6    0  503  0.62918978021E+01 -0.98890864673E+02 -0.77591006102E+02  0.12585450060E+03  0.00000000000E+00 0.  1.
<mgrwt>
<rscale>  0 0.19666752E+04</rscale>
<asrwt>0</asrwt>
<pdfrwt beam="1">  1        2 0.27191342E+00 0.19666752E+04</pdfrwt>
<pdfrwt beam="2">  1       -1 0.84168185E-01 0.19666752E+04</pdfrwt>
<totfact> 0.13347300E+01</totfact>
</mgrwt>
</event>
<event>
12    6  0.1540825E-007  0.1757157E+04  0.7818608E-02  0.8729421E-01
          2   -1    0    0  501    0  0.00000000000E+00  0.00000000000E+00  0.64434380202E+03  0.64434380202E+03  0.00000000000E+00 0. -1.
         -1   -1    0    0    0  501 -0.00000000000E+00 -0.00000000000E+00 -0.11979626553E+04  0.11979626553E+04  0.00000000000E+00 0.  1.
         24    2    1    2    0    0  0.39199528976E+03  0.11885663796E+02  0.32965134611E+03  0.51903969588E+03  0.83250343624E+02 0.  0.
        254    2    1    2    0    0 -0.39199528976E+03 -0.11885663796E+02 -0.88327019940E+03  0.13232667615E+04  0.90391764039E+03 0.  0.
         23    2    4    4    0    0 -0.49103487322E+02  0.13051561567E+03  0.14872118484E+03  0.22280147194E+03  0.89872279818E+02 0.  0.
         23    2    4    4    0    0 -0.34289180244E+03 -0.14240127947E+03 -0.10319913842E+04  0.11004652895E+04  0.90358860618E+02 0.  0.
          2    1    3    3  502    0  0.21892835407E+03  0.46239805742E+02  0.19959834821E+03  0.29984536757E+03  0.00000000000E+00 0. -1.
         -1    1    3    3    0  502  0.17306693570E+03 -0.34354141946E+02  0.13005299790E+03  0.21919432831E+03  0.00000000000E+00 0.  1.
         11    1    5    5    0    0  0.20606529241E+02  0.31923026317E+02  0.66919115272E+02  0.76953730549E+02  0.00000000000E+00 0.  1.
        -11    1    5    5    0    0 -0.69710016563E+02  0.98592589354E+02  0.81802069566E+02  0.14584774140E+03  0.00000000000E+00 0. -1.
          2    1    6    6  503    0 -0.71754947315E+02  0.55584493374E+01 -0.23234578274E+03  0.24323698646E+03  0.00000000000E+00 0.  1.
         -2    1    6    6    0  503 -0.27113685513E+03 -0.14795972881E+03 -0.79964560150E+03  0.85722830305E+03  0.00000000000E+00 0. -1.
<mgrwt>
<rscale>  0 0.17571566E+04</rscale>
<asrwt>0</asrwt>
<pdfrwt beam="1">  1        2 0.99129816E-01 0.17571566E+04</pdfrwt>
<pdfrwt beam="2">  1       -1 0.18430195E+00 0.17571566E+04</pdfrwt>
<totfact> 0.95326216E+00</totfact>
</mgrwt>
</event>
<event>
12    6  0.1540825E-007  0.2013834E+04  0.7818608E-02  0.8600180E-01
         -1   -1    0    0    0  501 -0.00000000000E+00  0.00000000000E+00  0.41563071133E+03  0.41563071133E+03  0.00000000000E+00 0.  1.
          2   -1    0    0  501    0  0.00000000000E+00 -0.00000000000E+00 -0.24393823951E+04  0.24393823951E+04  0.00000000000E+00 0. -1.
         24    2    1    2    0    0 -0.14272562284E+03  0.34678436620E+03 -0.18153462698E+04  0.18553208574E+04  0.78124287400E+02 0.  0.
        254    2    1    2    0    0  0.14272562284E+03 -0.34678436620E+03 -0.20840541392E+03  0.99969224907E+03  0.90295170205E+03 0.  0.
         23    2    4    4    0    0 -0.15281102447E+03 -0.31091382730E+03  0.25469570188E+03  0.44137055747E+03  0.99596441878E+02 0.  0.
         23    2    4    4    0    0  0.29553664731E+03 -0.35870538892E+02 -0.46310111581E+03  0.55832169160E+03  0.92907816595E+02 0.  0.
          2    1    3    3  502    0 -0.11166367493E+03  0.28181841586E+03 -0.12944220635E+04  0.13294430693E+04  0.00000000000E+00 0. -1.
         -1    1    3    3    0  502 -0.31061947914E+02  0.64965950334E+02 -0.52092420630E+03  0.52587778810E+03  0.00000000000E+00 0.  1.
         11    1    5    5    0    0 -0.74626707204E+02 -0.54598802888E+02  0.67745641152E+02  0.11462829755E+03  0.00000000000E+00 0. -1.
        -11    1    5    5    0    0 -0.78184317270E+02 -0.25631502442E+03  0.18695006073E+03  0.32674225992E+03  0.00000000000E+00 0.  1.
          2    1    6    6  503    0  0.49945182713E+02 -0.43196275236E+02 -0.10484259245E+03  0.12390483712E+03  0.00000000000E+00 0. -1.
         -2    1    6    6    0  503  0.24559146460E+03  0.73257363435E+01 -0.35825852335E+03  0.43441685448E+03  0.00000000000E+00 0.  1.
<mgrwt>
<rscale>  0 0.20138344E+04</rscale>
<asrwt>0</asrwt>
<pdfrwt beam="1">  1        2 0.37528960E+00 0.20138344E+04</pdfrwt>
<pdfrwt beam="2">  1       -1 0.63943187E-01 0.20138344E+04</pdfrwt>
<totfact> 0.98912922E+00</totfact>
</mgrwt>
</event>
<event>
12    6  0.1540825E-007  0.1247907E+04  0.7818608E-02  0.9071927E-01
         -1   -1    0    0    0  501 -0.00000000000E+00  0.00000000000E+00  0.11929052035E+04  0.11929052035E+04  0.00000000000E+00 0.  1.
          2   -1    0    0  501    0  0.00000000000E+00 -0.00000000000E+00 -0.32636095827E+03  0.32636095827E+03  0.00000000000E+00 0. -1.
         24    2    1    2    0    0 -0.23699485982E+02 -0.96134368529E+02 -0.88424824217E+02  0.15438988153E+03  0.78827682528E+02 0.  0.
        254    2    1    2    0    0  0.23699485982E+02  0.96134368529E+02  0.95496906944E+03  0.13648762802E+04  0.97011228954E+03 0.  0.
         23    2    4    4    0    0 -0.40575988600E+03  0.20850641956E+03  0.71253394875E+03  0.85095112877E+03  0.91088876084E+02 0.  0.
         23    2    4    4    0    0  0.42945937199E+03 -0.11237205103E+03  0.24243512069E+03  0.51392515147E+03  0.91002436943E+02 0.  0.
          4    1    3    3  502    0 -0.40399471369E+02 -0.10049090842E+03 -0.69066733229E+02  0.12845525914E+03  0.00000000000E+00 0. -1.
         -3    1    3    3    0  502  0.16699985388E+02  0.43565398907E+01 -0.19358090988E+02  0.25934622389E+02  0.00000000000E+00 0.  1.
         11    1    5    5    0    0 -0.75099132527E+02  0.10768251932E+02  0.79495566599E+02  0.10988803422E+03  0.00000000000E+00 0. -1.
        -11    1    5    5    0    0 -0.33066075348E+03  0.19773816763E+03  0.63303838215E+03  0.74106309455E+03  0.00000000000E+00 0.  1.
          1    1    6    6  503    0  0.84984210436E+01 -0.80389205001E+01 -0.69814719869E+01  0.13623081668E+02  0.00000000000E+00 0. -1.
         -1    1    6    6    0  503  0.42096095094E+03 -0.10433313053E+03  0.24941659268E+03  0.50030206980E+03  0.00000000000E+00 0.  1.
<mgrwt>
<rscale>  0 0.12479065E+04</rscale>
<asrwt>0</asrwt>
<pdfrwt beam="1">  1        2 0.50209379E-01 0.12479065E+04</pdfrwt>
<pdfrwt beam="2">  1       -1 0.18352388E+00 0.12479065E+04</pdfrwt>
<totfact> 0.22107599E+01</totfact>
</mgrwt>
</event>
<event>
12    6  0.1540825E-007  0.1743916E+04  0.7818608E-02  0.8736706E-01
          2   -1    0    0  501    0  0.00000000000E+00  0.00000000000E+00  0.15921725055E+04  0.15921725055E+04  0.00000000000E+00 0. -1.
         -1   -1    0    0    0  501 -0.00000000000E+00 -0.00000000000E+00 -0.47753049669E+03  0.47753049669E+03  0.00000000000E+00 0.  1.
         24    2    1    2    0    0  0.40130096076E+03  0.21297796324E+02  0.98840505829E+03  0.10700189057E+04  0.80621598214E+02 0.  0.
        254    2    1    2    0    0 -0.40130096076E+03 -0.21297796324E+02  0.12623695051E+03  0.99968409647E+03  0.90660711878E+03 0.  0.
         23    2    4    4    0    0 -0.63304006278E+03  0.15277399140E+03 -0.29328698586E+02  0.65836185582E+03  0.92198411657E+02 0.  0.
         23    2    4    4    0    0  0.23173910202E+03 -0.17407178772E+03  0.15556564910E+03  0.34132224065E+03  0.91083489712E+02 0.  0.
          4    1    3    3  502    0  0.38220243151E+03  0.11202352264E+02  0.87998193651E+03  0.95946464236E+03  0.00000000000E+00 0. -1.
         -3    1    3    3    0  502  0.19098529251E+02  0.10095444059E+02  0.10842312177E+03  0.11055426335E+03  0.00000000000E+00 0.  1.
         11    1    5    5    0    0 -0.45883053906E+03  0.15016090257E+03 -0.34964521862E+02  0.48404160774E+03  0.00000000000E+00 0. -1.
        -11    1    5    5    0    0 -0.17420952371E+03  0.26130888242E+01  0.56358232762E+01  0.17432024808E+03  0.00000000000E+00 0.  1.
          4    1    6    6  503    0  0.18715147471E+03 -0.88426145357E+02  0.11264092833E+03  0.23565406087E+03  0.00000000000E+00 0. -1.
         -4    1    6    6    0  503  0.44587627305E+02 -0.85645642364E+02  0.42924720769E+02  0.10566817978E+03  0.00000000000E+00 0.  1.
<mgrwt>
<rscale>  0 0.17439162E+04</rscale>
<asrwt>0</asrwt>
<pdfrwt beam="1">  1        2 0.24494961E+00 0.17439162E+04</pdfrwt>
<pdfrwt beam="2">  1       -1 0.73466231E-01 0.17439162E+04</pdfrwt>
<totfact> 0.22718961E+01</totfact>
</mgrwt>
</event>
<event>
12    6  0.1540825E-007  0.2051318E+04  0.7818608E-02  0.8582997E-01
          2   -1    0    0  501    0  0.00000000000E+00  0.00000000000E+00  0.18596128959E+04  0.18596128959E+04  0.00000000000E+00 0. -1.
         -1   -1    0    0    0  501 -0.00000000000E+00 -0.00000000000E+00 -0.56569634289E+03  0.56569634289E+03  0.00000000000E+00 0.  1.
         24    2    1    2    0    0 -0.25657773907E+03  0.41201583537E+03 -0.26479934478E+03  0.55869218427E+03  0.80181537730E+02 0.  0.
        254    2    1    2    0    0  0.25657773907E+03 -0.41201583537E+03  0.15587158978E+04  0.18666170545E+04  0.90502750973E+03 0.  0.
         23    2    4    4    0    0 -0.26038717661E+03 -0.37208468494E+03  0.98466336349E+03  0.10882519451E+04  0.92097025102E+02 0.  0.
         23    2    4    4    0    0  0.51696491568E+03 -0.39931150432E+02  0.57405253428E+03  0.77836510942E+03  0.86421702317E+02 0.  0.
          4    1    3    3  502    0 -0.39004868842E+02  0.78882932438E+02 -0.83990757245E+02  0.12164844481E+03  0.00000000000E+00 0. -1.
         -3    1    3    3    0  502 -0.21757287022E+03  0.33313290293E+03 -0.18080858754E+03  0.43704373946E+03  0.00000000000E+00 0.  1.
         11    1    5    5    0    0 -0.30509117821E+02 -0.10541558828E+03  0.27393256207E+03  0.29509710450E+03  0.00000000000E+00 0.  1.
        -11    1    5    5    0    0 -0.22987805879E+03 -0.26666909666E+03  0.71073080143E+03  0.79315484057E+03  0.00000000000E+00 0. -1.
          4    1    6    6  503    0  0.32161429332E+03 -0.48139568313E+02  0.40873949958E+03  0.52232284099E+03  0.00000000000E+00 0. -1.
         -4    1    6    6    0  503  0.19535062236E+03  0.82084178804E+01  0.16531303470E+03  0.25604226843E+03  0.00000000000E+00 0.  1.
<mgrwt>
<rscale>  0 0.20513178E+04</rscale>
<asrwt>0</asrwt>
<pdfrwt beam="1">  1        2 0.28609429E+00 0.20513178E+04</pdfrwt>
<pdfrwt beam="2">  1       -1 0.87030208E-01 0.20513178E+04</pdfrwt>
<totfact> 0.10953433E+01</totfact>
</mgrwt>
</event>
<event>
12    6  0.1540825E-007  0.2053549E+04  0.7818608E-02  0.8581986E-01
          2   -1    0    0  501    0  0.00000000000E+00  0.00000000000E+00  0.22484328818E+04  0.22484328818E+04  0.00000000000E+00 0. -1.
         -1   -1    0    0    0  501 -0.00000000000E+00 -0.00000000000E+00 -0.46888918979E+03  0.46888918979E+03  0.00000000000E+00 0.  1.
         24    2    1    2    0    0 -0.16649720380E+03  0.82712542494E+03  0.78857418417E+03  0.11574708842E+04  0.77664769046E+02 0.  0.
        254    2    1    2    0    0  0.16649720380E+03 -0.82712542494E+03  0.99096950785E+03  0.15598511874E+04  0.85980077573E+03 0.  0.
         23    2    4    4    0    0  0.43756197998E+02 -0.36709941494E+03 -0.74484923706E+02  0.38828520889E+03  0.92416525951E+02 0.  0.
         23    2    4    4    0    0  0.12274100580E+03 -0.46002601000E+03  0.10654544316E+04  0.11715659785E+04  0.10336542919E+03 0.  0.
          4    1    3    3  502    0 -0.72305050693E+02  0.39209263508E+03  0.42500014545E+03  0.58274332126E+03  0.00000000000E+00 0. -1.
         -3    1    3    3    0  502 -0.94192153108E+02  0.43503278986E+03  0.36357403872E+03  0.57472756293E+03  0.00000000000E+00 0.  1.
         11    1    5    5    0    0  0.57106816067E+02 -0.11465889510E+03 -0.30816747816E+02  0.13174795108E+03  0.00000000000E+00 0. -1.
        -11    1    5    5    0    0 -0.13350618069E+02 -0.25244051984E+03 -0.43668175890E+02  0.25653725781E+03  0.00000000000E+00 0.  1.
          1    1    6    6  503    0  0.12291591948E+03 -0.26489760562E+03  0.64735615554E+03  0.71017537048E+03  0.00000000000E+00 0. -1.
         -1    1    6    6    0  503 -0.17491367253E+00 -0.19512840437E+03  0.41809827601E+03  0.46139060805E+03  0.00000000000E+00 0.  1.
<mgrwt>
<rscale>  0 0.20535490E+04</rscale>
<asrwt>0</asrwt>
<pdfrwt beam="1">  1        2 0.34591274E+00 0.20535490E+04</pdfrwt>
<pdfrwt beam="2">  1       -1 0.72136800E-01 0.20535490E+04</pdfrwt>
<totfact> 0.99008771E+00</totfact>
</mgrwt>
</event>
<event>
12    6  0.1540825E-007  0.1886604E+04  0.7818608E-02  0.8661553E-01
         -1   -1    0    0    0  501 -0.00000000000E+00  0.00000000000E+00  0.55191575428E+03  0.55191575428E+03  0.00000000000E+00 0.  1.
          2   -1    0    0  501    0  0.00000000000E+00 -0.00000000000E+00 -0.16122369698E+04  0.16122369698E+04  0.00000000000E+00 0. -1.
         24    2    1    2    0    0  0.10647115303E+03  0.71410209975E+03 -0.39972700847E+03  0.82938532755E+03  0.82585864140E+02 0.  0.
        254    2    1    2    0    0 -0.10647115303E+03 -0.71410209975E+03 -0.66059420700E+03  0.13347673965E+04  0.90771216866E+03 0.  0.
         23    2    4    4    0    0  0.16564580331E+03 -0.82728611533E+03 -0.52008883485E+03  0.99532115228E+03  0.91274044891E+02 0.  0.
         23    2    4    4    0    0 -0.27211695634E+03  0.11318401558E+03 -0.14050537216E+03  0.33944624422E+03  0.92864060849E+02 0.  0.
          4    1    3    3  502    0  0.23026077762E+02  0.71275584447E+02 -0.17695587037E+02  0.76964556751E+02  0.00000000000E+00 0. -1.
         -3    1    3    3    0  502  0.83445075266E+02  0.64282651530E+03 -0.38203142144E+03  0.75242077080E+03  0.00000000000E+00 0.  1.
         11    1    5    5    0    0  0.17601542608E+03 -0.80472769764E+03 -0.50303512845E+03  0.96520072421E+03  0.00000000000E+00 0. -1.
        -11    1    5    5    0    0 -0.10369622768E+02 -0.22558417688E+02 -0.17053706397E+02  0.30120428065E+02  0.00000000000E+00 0.  1.
          3    1    6    6  503    0 -0.22660690759E+03  0.12667271656E+03 -0.10442656902E+03  0.27982418767E+03  0.00000000000E+00 0. -1.
         -3    1    6    6    0  503 -0.45510048748E+02 -0.13488700976E+02 -0.36078803135E+02  0.59622056545E+02  0.00000000000E+00 0.  1.
<mgrwt>
<rscale>  0 0.18866043E+04</rscale>
<asrwt>0</asrwt>
<pdfrwt beam="1">  1        2 0.24803646E+00 0.18866043E+04</pdfrwt>
<pdfrwt beam="2">  1       -1 0.84910116E-01 0.18866043E+04</pdfrwt>
<totfact> 0.16088633E+01</totfact>
</mgrwt>
</event>
<event>
12    6  0.1540825E-007  0.1420943E+04  0.7818608E-02  0.8938797E-01
         -1   -1    0    0    0  501 -0.00000000000E+00  0.00000000000E+00  0.50693579226E+03  0.50693579226E+03  0.00000000000E+00 0.  1.
          2   -1    0    0  501    0  0.00000000000E+00 -0.00000000000E+00 -0.99572690610E+03  0.99572690610E+03  0.00000000000E+00 0. -1.
         24    2    1    2    0    0 -0.62784608042E+02  0.29345071077E+03 -0.46433951354E+03  0.55869405506E+03  0.80452698319E+02 0.  0.
        254    2    1    2    0    0  0.62784608042E+02 -0.29345071077E+03 -0.24451600305E+02  0.94396864330E+03  0.89466401075E+03 0.  0.
         23    2    4    4    0    0  0.30173785801E+03  0.18357156285E+03 -0.13953659582E+03  0.39041211799E+03  0.90591978981E+02 0.  0.
         23    2    4    4    0    0 -0.23895324997E+03 -0.47702227362E+03  0.11508499551E+03  0.55355652531E+03  0.92365390264E+02 0.  0.
          4    1    3    3  502    0 -0.49958830688E+02  0.19259214621E+03 -0.23558607423E+03  0.30836409959E+03  0.00000000000E+00 0. -1.
         -3    1    3    3    0  502 -0.12825777354E+02  0.10085856457E+03 -0.22875343931E+03  0.25032995547E+03  0.00000000000E+00 0.  1.
         11    1    5    5    0    0  0.73075558666E+02  0.13565112539E+02 -0.57295537611E+02  0.93844702475E+02  0.00000000000E+00 0. -1.
        -11    1    5    5    0    0  0.22866229935E+03  0.17000645031E+03 -0.82241058206E+02  0.29656741552E+03  0.00000000000E+00 0.  1.
          3    1    6    6  503    0 -0.34465958354E+02 -0.84778056687E+02  0.55976628604E+02  0.10727816241E+03  0.00000000000E+00 0. -1.
         -3    1    6    6    0  503 -0.20448729162E+03 -0.39224421694E+03  0.59108366909E+02  0.44627836290E+03  0.00000000000E+00 0.  1.
<mgrwt>
<rscale>  0 0.14209428E+04</rscale>
<asrwt>0</asrwt>
<pdfrwt beam="1">  1        2 0.15318875E+00 0.14209428E+04</pdfrwt>
<pdfrwt beam="2">  1       -1 0.77990123E-01 0.14209428E+04</pdfrwt>
<totfact> 0.46289750E+01</totfact>
</mgrwt>
</event>
<event>
12    6  0.1540825E-007  0.1625214E+04  0.7818608E-02  0.8805206E-01
          2   -1    0    0  501    0  0.00000000000E+00  0.00000000000E+00  0.11741475816E+04  0.11741475816E+04  0.00000000000E+00 0. -1.
         -1   -1    0    0    0  501 -0.00000000000E+00 -0.00000000000E+00 -0.56239100892E+03  0.56239100892E+03  0.00000000000E+00 0.  1.
         24    2    1    2    0    0 -0.11367393298E+03 -0.37366719655E+03  0.64189726026E+03  0.75570609536E+03  0.80688741560E+02 0.  0.
        254    2    1    2    0    0  0.11367393298E+03  0.37366719655E+03 -0.30140687620E+02  0.98083249513E+03  0.89920797686E+03 0.  0.
         23    2    4    4    0    0  0.12774862388E+03  0.35685730739E+03  0.38872210375E+03  0.55159009335E+03  0.97364821114E+02 0.  0.
         23    2    4    4    0    0 -0.14074690901E+02  0.16809889159E+02 -0.41886279137E+03  0.42924240179E+03  0.91226817303E+02 0.  0.
          2    1    3    3  502    0 -0.76185500954E+02 -0.22360153450E+03  0.31191877326E+03  0.39127381448E+03  0.00000000000E+00 0. -1.
         -1    1    3    3    0  502 -0.37488432022E+02 -0.15006566205E+03  0.32997848700E+03  0.36443228088E+03  0.00000000000E+00 0.  1.
         11    1    5    5    0    0  0.86994627098E+02  0.27405282585E+03  0.23090428971E+03  0.36876795889E+03  0.00000000000E+00 0. -1.
        -11    1    5    5    0    0  0.40753996779E+02  0.82804481545E+02  0.15781781404E+03  0.18282213446E+03  0.00000000000E+00 0.  1.
          2    1    6    6  503    0  0.11521501926E+02  0.11874243285E+01 -0.25613717906E+01  0.11862361005E+02  0.00000000000E+00 0. -1.
         -2    1    6    6    0  503 -0.25596192827E+02  0.15622464830E+02 -0.41630141958E+03  0.41738004078E+03  0.00000000000E+00 0.  1.
<mgrwt>
<rscale>  0 0.16252139E+04</rscale>
<asrwt>0</asrwt>
<pdfrwt beam="1">  1        2 0.18063809E+00 0.16252139E+04</pdfrwt>
<pdfrwt beam="2">  1       -1 0.86521694E-01 0.16252139E+04</pdfrwt>
<totfact> 0.28224718E+01</totfact>
</mgrwt>
</event>
<event>
12    6  0.1540825E-007  0.1289603E+04  0.7818608E-02  0.9037851E-01
         -1   -1    0    0    0  501 -0.00000000000E+00  0.00000000000E+00  0.40540219294E+03  0.40540219294E+03  0.00000000000E+00 0.  1.
          2   -1    0    0  501    0  0.00000000000E+00 -0.00000000000E+00 -0.10255719466E+04  0.10255719466E+04  0.00000000000E+00 0. -1.
         24    2    1    2    0    0  0.39415933606E+02 -0.30450466751E+03 -0.40170321667E+02  0.31981066340E+03  0.79928075938E+02 0.  0.
        254    2    1    2    0    0 -0.39415933606E+02  0.30450466751E+03 -0.57999943197E+03  0.11111634761E+04  0.89666505519E+03 0.  0.
         23    2    4    4    0    0  0.38838415605E+03 -0.24900854308E+02 -0.26514637385E+03  0.47956761205E+03  0.90665262059E+02 0.  0.
         23    2    4    4    0    0 -0.42780008966E+03  0.32940552182E+03 -0.31485305812E+03  0.63159586407E+03  0.90884392406E+02 0.  0.
          4    1    3    3  502    0  0.31986306495E+02 -0.23739571373E+03 -0.64448560060E+02  0.24805939933E+03  0.00000000000E+00 0. -1.
         -3    1    3    3    0  502  0.74296271116E+01 -0.67108953782E+02  0.24278238392E+02  0.71751264074E+02  0.00000000000E+00 0.  1.
         11    1    5    5    0    0  0.16587404837E+03 -0.54060438467E+02 -0.13039543709E+03  0.21780656772E+03  0.00000000000E+00 0. -1.
        -11    1    5    5    0    0  0.22251010768E+03  0.29159584159E+02 -0.13475093676E+03  0.26176104433E+03  0.00000000000E+00 0.  1.
          4    1    6    6  503    0 -0.10750531184E+03  0.81756139263E+02 -0.12652940213E+03  0.18507065673E+03  0.00000000000E+00 0.  1.
         -4    1    6    6    0  503 -0.32029477782E+03  0.24764938256E+03 -0.18832365600E+03  0.44652520734E+03  0.00000000000E+00 0. -1.
<mgrwt>
<rscale>  0 0.12896032E+04</rscale>
<asrwt>0</asrwt>
<pdfrwt beam="1">  1        2 0.15778030E+00 0.12896032E+04</pdfrwt>
<pdfrwt beam="2">  1       -1 0.62369568E-01 0.12896032E+04</pdfrwt>
<totfact> 0.70771869E+01</totfact>
</mgrwt>
</event>
<event>
12    6  0.1540825E-007  0.1566425E+04  0.7818608E-02  0.8841444E-01
         -1   -1    0    0    0  501 -0.00000000000E+00  0.00000000000E+00  0.22711379125E+03  0.22711379125E+03  0.00000000000E+00 0.  1.
          2   -1    0    0  501    0  0.00000000000E+00 -0.00000000000E+00 -0.27009444978E+04  0.27009444978E+04  0.00000000000E+00 0. -1.
         24    2    1    2    0    0 -0.23785533787E+03  0.27922373870E+03 -0.14964342661E+04  0.15427752294E+04  0.79365217353E+02 0.  0.
        254    2    1    2    0    0  0.23785533787E+03 -0.27922373870E+03 -0.97739644040E+03  0.13852830596E+04  0.91058458995E+03 0.  0.
         23    2    4    4    0    0  0.33572981146E+03 -0.35264502774E+03 -0.11268325827E+03  0.50791883636E+03  0.90614600046E+02 0.  0.
         23    2    4    4    0    0 -0.97874473587E+02  0.73421289041E+02 -0.86471318213E+03  0.87736422323E+03  0.84077313163E+02 0.  0.
          4    1    3    3  502    0 -0.23646746822E+03  0.24310665628E+03 -0.13520348877E+04  0.13939211051E+04  0.00000000000E+00 0. -1.
         -3    1    3    3    0  502 -0.13878696524E+01  0.36117082425E+02 -0.14439937843E+03  0.14885412429E+03  0.00000000000E+00 0.  1.
         11    1    5    5    0    0  0.14408785759E+03 -0.10072251329E+03 -0.13984447995E+02  0.17635730825E+03  0.00000000000E+00 0. -1.
        -11    1    5    5    0    0  0.19164195387E+03 -0.25192251445E+03 -0.98698810279E+02  0.33156152811E+03  0.00000000000E+00 0.  1.
          2    1    6    6  503    0 -0.40979862411E+02  0.72787799909E+02 -0.36574299181E+03  0.37516043101E+03  0.00000000000E+00 0.  1.
         -2    1    6    6    0  503 -0.56894611176E+02  0.63348913129E+00 -0.49897019032E+03  0.50220379222E+03  0.00000000000E+00 0. -1.
<mgrwt>
<rscale>  0 0.15664249E+04</rscale>
<asrwt>0</asrwt>
<pdfrwt beam="1">  1        2 0.41552990E+00 0.15664249E+04</pdfrwt>
<pdfrwt beam="2">  1       -1 0.34940585E-01 0.15664249E+04</pdfrwt>
<totfact> 0.22683383E+01</totfact>
</mgrwt>
</event>
<event>
12    6  0.1540825E-007  0.1693629E+04  0.7818608E-02  0.8765007E-01
         -1   -1    0    0    0  501 -0.00000000000E+00  0.00000000000E+00  0.49682515878E+03  0.49682515878E+03  0.00000000000E+00 0.  1.
          2   -1    0    0  501    0  0.00000000000E+00 -0.00000000000E+00 -0.14433538262E+04  0.14433538262E+04  0.00000000000E+00 0. -1.
         24    2    1    2    0    0  0.75758119821E+02 -0.17803888895E+03 -0.99264930605E+03  0.10147862931E+04  0.83674590316E+02 0.  0.
        254    2    1    2    0    0 -0.75758119821E+02  0.17803888895E+03  0.46120638655E+02  0.92539269191E+03  0.90376290155E+03 0.  0.
         23    2    4    4    0    0  0.28491182902E+03 -0.18084406499E+03 -0.13947200749E+03  0.37636731091E+03  0.91217244474E+02 0.  0.
         23    2    4    4    0    0 -0.36066994884E+03  0.35888295394E+03  0.18559264614E+03  0.54902538100E+03  0.90024730241E+02 0.  0.
          4    1    3    3  502    0  0.82911122145E+02 -0.18270990735E+03 -0.97098541626E+03  0.99149878618E+03  0.00000000000E+00 0. -1.
         -3    1    3    3    0  502 -0.71530023239E+01  0.46710184000E+01 -0.21663889796E+02  0.23287506870E+02  0.00000000000E+00 0.  1.
         11    1    5    5    0    0  0.23397038738E+03 -0.10560098196E+03 -0.84898237929E+02  0.27037274339E+03  0.00000000000E+00 0.  1.
        -11    1    5    5    0    0  0.50941441636E+02 -0.75243083033E+02 -0.54573769557E+02  0.10599456752E+03  0.00000000000E+00 0. -1.
          4    1    6    6  503    0 -0.85963243698E+02  0.14273914595E+03  0.48308955753E+02  0.17348745851E+03  0.00000000000E+00 0. -1.
         -4    1    6    6    0  503 -0.27470670514E+03  0.21614380799E+03  0.13728369039E+03  0.37553792249E+03  0.00000000000E+00 0.  1.
<mgrwt>
<rscale>  0 0.16936286E+04</rscale>
<asrwt>0</asrwt>
<pdfrwt beam="1">  1        2 0.22205443E+00 0.16936286E+04</pdfrwt>
<pdfrwt beam="2">  1       -1 0.76434641E-01 0.16936286E+04</pdfrwt>
<totfact> 0.25479962E+01</totfact>
</mgrwt>
</event>
<event>
12    6  0.1540825E-007  0.1321417E+04  0.7818608E-02  0.9012752E-01
         -1   -1    0    0    0  501 -0.00000000000E+00  0.00000000000E+00  0.38696302261E+03  0.38696302261E+03  0.00000000000E+00 0.  1.
          2   -1    0    0  501    0  0.00000000000E+00 -0.00000000000E+00 -0.11281070991E+04  0.11281070991E+04  0.00000000000E+00 0. -1.
         24    2    1    2    0    0 -0.10103784040E+03 -0.61032280344E+01  0.18046903032E+03  0.22239691509E+03  0.81519459945E+02 0.  0.
        254    2    1    2    0    0  0.10103784040E+03  0.61032280344E+01 -0.92161310676E+03  0.12926732066E+04  0.90077045125E+03 0.  0.
         23    2    4    4    0    0 -0.16028845908E+03  0.10494077721E+02  0.11639022901E+03  0.21854404318E+03  0.91718578383E+02 0.  0.
         23    2    4    4    0    0  0.26132629948E+03 -0.43908496865E+01 -0.10380033358E+04  0.10741291634E+04  0.89396981014E+02 0.  0.
          2    1    3    3  502    0 -0.19492787124E+02  0.25632620009E+02  0.15680871968E+02  0.35817449715E+02  0.00000000000E+00 0. -1.
         -1    1    3    3    0  502 -0.81545053279E+02 -0.31735848044E+02  0.16478815835E+03  0.18657946537E+03  0.00000000000E+00 0.  1.
         11    1    5    5    0    0 -0.41871570523E+02  0.44131377697E+02  0.49592192795E+02  0.78486893821E+02  0.00000000000E+00 0. -1.
        -11    1    5    5    0    0 -0.11841688856E+03 -0.33637299976E+02  0.66798036211E+02  0.14005714936E+03  0.00000000000E+00 0.  1.
          4    1    6    6  503    0  0.49235153715E+02 -0.28288530645E+02 -0.32287319444E+03  0.32782837128E+03  0.00000000000E+00 0. -1.
         -4    1    6    6    0  503  0.21209114577E+03  0.23897680959E+02 -0.71513014133E+03  0.74630079211E+03  0.00000000000E+00 0.  1.
<mgrwt>
<rscale>  0 0.13214170E+04</rscale>
<asrwt>0</asrwt>
<pdfrwt beam="1">  1        2 0.17355494E+00 0.13214170E+04</pdfrwt>
<pdfrwt beam="2">  1       -1 0.59532773E-01 0.13214170E+04</pdfrwt>
<totfact> 0.66839222E+01</totfact>
</mgrwt>
</event>
<event>
12    6  0.1540825E-007  0.1520596E+04  0.7818608E-02  0.8870871E-01
          2   -1    0    0  501    0  0.00000000000E+00  0.00000000000E+00  0.30431331055E+04  0.30431331055E+04  0.00000000000E+00 0. -1.
         -1   -1    0    0    0  501 -0.00000000000E+00 -0.00000000000E+00 -0.18995314829E+03  0.18995314829E+03  0.00000000000E+00 0.  1.
         24    2    1    2    0    0 -0.37331383831E+03  0.21827034574E+03  0.14254489115E+04  0.14916627575E+04  0.78409291839E+02 0.  0.
        254    2    1    2    0    0  0.37331383831E+03 -0.21827034574E+03  0.14277310457E+04  0.17414234963E+04  0.89840675026E+03 0.  0.
         23    2    4    4    0    0  0.39925238816E+03  0.18809997561E+03  0.11625910460E+04  0.12468379871E+04  0.90570168796E+02 0.  0.
         23    2    4    4    0    0 -0.25938549858E+02 -0.40637032135E+03  0.26513999969E+03  0.49458550922E+03  0.92227761874E+02 0.  0.
          4    1    3    3  502    0 -0.28233034313E+03  0.19602527590E+03  0.10561137709E+04  0.11106361368E+04  0.00000000000E+00 0. -1.
         -3    1    3    3    0  502 -0.90983495179E+02  0.22245069845E+02  0.36933514064E+03  0.38102662065E+03  0.00000000000E+00 0.  1.
         11    1    5    5    0    0  0.32137910663E+03  0.12638474543E+03  0.81071108571E+03  0.88119810404E+03  0.00000000000E+00 0.  1.
        -11    1    5    5    0    0  0.77873281531E+02  0.61715230176E+02  0.35187996027E+03  0.36563988301E+03  0.00000000000E+00 0. -1.
          1    1    6    6  503    0 -0.37289844492E+02 -0.18581137270E+03  0.16821359018E+03  0.25340128383E+03  0.00000000000E+00 0. -1.
         -1    1    6    6    0  503  0.11351294634E+02 -0.22055894865E+03  0.96926409510E+02  0.24118422539E+03  0.00000000000E+00 0.  1.
<mgrwt>
<rscale>  0 0.15205956E+04</rscale>
<asrwt>0</asrwt>
<pdfrwt beam="1">  1        2 0.46817429E+00 0.15205956E+04</pdfrwt>
<pdfrwt beam="2">  1       -1 0.29223563E-01 0.15205956E+04</pdfrwt>
<totfact> 0.19341321E+01</totfact>
</mgrwt>
</event>
<event>
12    6  0.1540825E-007  0.4359121E+04  0.7818608E-02  0.7935776E-01
         -1   -1    0    0    0  501 -0.00000000000E+00  0.00000000000E+00  0.21437851982E+04  0.21437851982E+04  0.00000000000E+00 0.  1.
          2   -1    0    0  501    0  0.00000000000E+00 -0.00000000000E+00 -0.22159329547E+04  0.22159329547E+04  0.00000000000E+00 0. -1.
         24    2    1    2    0    0  0.92215776817E+03 -0.60246777712E+03 -0.18072693427E+04  0.21178880855E+04  0.76714364822E+02 0.  0.
        254    2    1    2    0    0 -0.92215776817E+03  0.60246777712E+03  0.17351215862E+04  0.22418300674E+04  0.89543998135E+03 0.  0.
         23    2    4    4    0    0 -0.41740218985E+03  0.73783499880E+02  0.94684281197E+02  0.44355469574E+03  0.90039225133E+02 0.  0.
         23    2    4    4    0    0 -0.50475557833E+03  0.52868427724E+03  0.16404373050E+04  0.17982753716E+04  0.92057056959E+02 0.  0.
          2    1    3    3  502    0  0.87479982544E+03 -0.55287427729E+03 -0.16750188328E+04  0.19689166542E+04  0.00000000000E+00 0. -1.
         -1    1    3    3    0  502  0.47357942728E+02 -0.49593499825E+02 -0.13225050988E+03  0.14897143124E+03  0.00000000000E+00 0.  1.
         11    1    5    5    0    0 -0.34754558795E+03  0.94052587139E+02  0.70358790193E+02  0.36685717140E+03  0.00000000000E+00 0.  1.
        -11    1    5    5    0    0 -0.69856601899E+02 -0.20269087259E+02  0.24325491004E+02  0.76697524340E+02  0.00000000000E+00 0. -1.
          3    1    6    6  503    0 -0.10571552801E+03  0.71565111069E+02  0.23481447608E+03  0.26727359795E+03  0.00000000000E+00 0. -1.
         -3    1    6    6    0  503 -0.39904005031E+03  0.45711916617E+03  0.14056228289E+04  0.15310017737E+04  0.00000000000E+00 0.  1.
<mgrwt>
<rscale>  0 0.43591211E+04</rscale>
<asrwt>0</asrwt>
<pdfrwt beam="1">  1        2 0.34091276E+00 0.43591211E+04</pdfrwt>
<pdfrwt beam="2">  1       -1 0.32981311E+00 0.43591211E+04</pdfrwt>
<totfact> 0.93089778E-02</totfact>
</mgrwt>
</event>
<event>
12    6  0.1540825E-007  0.1435248E+04  0.7818608E-02  0.8928692E-01
         -1   -1    0    0    0  501 -0.00000000000E+00  0.00000000000E+00  0.27416431696E+03  0.27416431696E+03  0.00000000000E+00 0.  1.
          2   -1    0    0  501    0  0.00000000000E+00 -0.00000000000E+00 -0.18783775245E+04  0.18783775245E+04  0.00000000000E+00 0. -1.
         24    2    1    2    0    0 -0.78950566978E+02 -0.11226331716E+03 -0.10783294891E+04  0.10899631315E+04  0.79930573627E+02 0.  0.
        254    2    1    2    0    0  0.78950566978E+02  0.11226331716E+03 -0.52588371850E+03  0.10625787100E+04  0.91306274984E+03 0.  0.
         23    2    4    4    0    0  0.22467234052E+03  0.31773365553E+03  0.74399638826E+02  0.40518482774E+03  0.84894651898E+02 0.  0.
         23    2    4    4    0    0 -0.14572177354E+03 -0.20547033837E+03 -0.60028335732E+03  0.65739388225E+03  0.91507989355E+02 0.  0.
          4    1    3    3  502    0 -0.41961535519E+02 -0.21212049250E+02 -0.58829014884E+03  0.59016609587E+03  0.00000000000E+00 0. -1.
         -3    1    3    3    0  502 -0.36989031459E+02 -0.91051267912E+02 -0.49003934023E+03  0.49979703562E+03  0.00000000000E+00 0.  1.
         11    1    5    5    0    0  0.20320407660E+03  0.31731925056E+03  0.69551414053E+02  0.38317202758E+03  0.00000000000E+00 0. -1.
        -11    1    5    5    0    0  0.21468263917E+02  0.41440496375E+00  0.48482247730E+01  0.22012800152E+02  0.00000000000E+00 0.  1.
          4    1    6    6  503    0 -0.77413020216E+02 -0.17625118439E+03 -0.45988804505E+03  0.49855217347E+03  0.00000000000E+00 0. -1.
         -4    1    6    6    0  503 -0.68308753323E+02 -0.29219153976E+02 -0.14039531228E+03  0.15884170878E+03  0.00000000000E+00 0.  1.
<mgrwt>
<rscale>  0 0.14352478E+04</rscale>
<asrwt>0</asrwt>
<pdfrwt beam="1">  1        2 0.28898117E+00 0.14352478E+04</pdfrwt>
<pdfrwt beam="2">  1       -1 0.42179124E-01 0.14352478E+04</pdfrwt>
<totfact> 0.47699915E+01</totfact>
</mgrwt>
</event>
<event>
12    6  0.1540825E-007  0.1726015E+04  0.7818608E-02  0.8746665E-01
         -1   -1    0    0    0  501 -0.00000000000E+00  0.00000000000E+00  0.13353409901E+03  0.13353409901E+03  0.00000000000E+00 0.  1.
          2   -1    0    0  501    0  0.00000000000E+00 -0.00000000000E+00 -0.55774646896E+04  0.55774646896E+04  0.00000000000E+00 0. -1.
         24    2    1    2    0    0  0.15441522920E+03 -0.16948413566E+03 -0.39309308692E+04  0.39384102985E+04  0.79304764393E+02 0.  0.
        254    2    1    2    0    0 -0.15441522920E+03  0.16948413566E+03 -0.15129997214E+04  0.17725884902E+04  0.89461324780E+03 0.  0.
         23    2    4    4    0    0 -0.39214135833E+02 -0.26638483388E+03 -0.12501275036E+03  0.31032303568E+03  0.90407801378E+02 0.  0.
         23    2    4    4    0    0 -0.11520109337E+03  0.43586896953E+03 -0.13879869711E+04  0.14622654545E+04  0.91974871533E+02 0.  0.
          4    1    3    3  502    0  0.15524626043E+03 -0.16668204587E+03 -0.34690251325E+04  0.34764953150E+04  0.00000000000E+00 0. -1.
         -3    1    3    3    0  502 -0.83103123056E+00 -0.28020897848E+01 -0.46190573674E+03  0.46191498347E+03  0.00000000000E+00 0.  1.
         11    1    5    5    0    0 -0.83198346845E+01 -0.96620228807E+02  0.45148407920E+00  0.96978822955E+02  0.00000000000E+00 0. -1.
        -11    1    5    5    0    0 -0.30894301148E+02 -0.16976460507E+03 -0.12546423444E+03  0.21334421272E+03  0.00000000000E+00 0.  1.
          1    1    6    6  503    0 -0.44122630532E+02  0.14588365460E+03 -0.61543916180E+03  0.63403013263E+03  0.00000000000E+00 0. -1.
         -1    1    6    6    0  503 -0.71078462835E+02  0.28998531493E+03 -0.77254780928E+03  0.82823532186E+03  0.00000000000E+00 0.  1.
<mgrwt>
<rscale>  0 0.17260147E+04</rscale>
<asrwt>0</asrwt>
<pdfrwt beam="1">  1        2 0.85807164E+00 0.17260147E+04</pdfrwt>
<pdfrwt beam="2">  1       -1 0.20543704E-01 0.17260147E+04</pdfrwt>
<totfact> 0.95462828E-02</totfact>
</mgrwt>
</event>
<event>
12    6  0.1540825E-007  0.2425646E+04  0.7818608E-02  0.8429964E-01
         -1   -1    0    0    0  501 -0.00000000000E+00  0.00000000000E+00  0.12757170180E+04  0.12757170180E+04  0.00000000000E+00 0.  1.
          2   -1    0    0  501    0  0.00000000000E+00 -0.00000000000E+00 -0.11530298055E+04  0.11530298055E+04  0.00000000000E+00 0. -1.
         24    2    1    2    0    0  0.32700283876E+03  0.95498651812E+03 -0.22059862544E+03  0.10363607100E+04  0.80309783125E+02 0.  0.
        254    2    1    2    0    0 -0.32700283876E+03 -0.95498651812E+03  0.34328583799E+03  0.13923861135E+04  0.89552432474E+03 0.  0.
         23    2    4    4    0    0 -0.33863666847E+03 -0.40879036539E+03  0.57865691382E+03  0.79056242278E+03  0.91437215267E+02 0.  0.
         23    2    4    4    0    0  0.11633829708E+02 -0.54619615274E+03 -0.23537107583E+03  0.60182369074E+03  0.91250359668E+02 0.  0.
          4    1    3    3  502    0  0.64710090664E+02  0.15880088406E+03 -0.67129662019E+02  0.18415077555E+03  0.00000000000E+00 0. -1.
         -3    1    3    3    0  502  0.26229274809E+03  0.79618563406E+03 -0.15346896343E+03  0.85220993442E+03  0.00000000000E+00 0.  1.
         11    1    5    5    0    0 -0.91957111218E+02 -0.14932393691E+03  0.14029116117E+03  0.22457817868E+03  0.00000000000E+00 0. -1.
        -11    1    5    5    0    0 -0.24667955725E+03 -0.25946642848E+03  0.43836575264E+03  0.56598424410E+03  0.00000000000E+00 0.  1.
          2    1    6    6  503    0  0.18065967352E+02 -0.54123819157E+03 -0.22016224126E+03  0.58458239083E+03  0.00000000000E+00 0.  1.
         -2    1    6    6    0  503 -0.64321376432E+01 -0.49579611636E+01 -0.15208834568E+02  0.17241299907E+02  0.00000000000E+00 0. -1.
<mgrwt>
<rscale>  0 0.24256461E+04</rscale>
<asrwt>0</asrwt>
<pdfrwt beam="1">  1        2 0.17738920E+00 0.24256461E+04</pdfrwt>
<pdfrwt beam="2">  1       -1 0.19626416E+00 0.24256461E+04</pdfrwt>
<totfact> 0.33033502E+00</totfact>
</mgrwt>
</event>
<event>
12    6  0.1569391E-007  0.2375497E+04  0.7818608E-02  0.8448735E-01
         -1   -1    0    0    0  501 -0.00000000000E+00  0.00000000000E+00  0.52651674648E+03  0.52651674648E+03  0.00000000000E+00 0.  1.
          2   -1    0    0  501    0  0.00000000000E+00 -0.00000000000E+00 -0.26793950608E+04  0.26793950608E+04  0.00000000000E+00 0. -1.
         24    2    1    2    0    0  0.14159977664E+03 -0.77897490758E+03 -0.17833952439E+04  0.19529748525E+04  0.82217851038E+02 0.  0.
        254    2    1    2    0    0 -0.14159977664E+03  0.77897490758E+03 -0.36948307037E+03  0.12529369548E+04  0.89804279961E+03 0.  0.
         23    2    4    4    0    0  0.44157191658E+02  0.23993064963E+03 -0.58249068004E+03  0.63777301390E+03  0.89120428201E+02 0.  0.
         23    2    4    4    0    0 -0.18575696830E+03  0.53904425795E+03  0.21300760967E+03  0.61516394086E+03  0.89331232273E+02 0.  0.
          2    1    3    3  502    0  0.92697851211E+02 -0.61812906302E+03 -0.14692265795E+04  0.15966537421E+04  0.00000000000E+00 0. -1.
         -1    1    3    3    0  502  0.48901925428E+02 -0.16084584456E+03 -0.31416866440E+03  0.35632111040E+03  0.00000000000E+00 0.  1.
         11    1    5    5    0    0  0.33534706276E+02  0.20320140890E+03 -0.38508597939E+03  0.43669966868E+03  0.00000000000E+00 0. -1.
        -11    1    5    5    0    0  0.10622485383E+02  0.36729240734E+02 -0.19740470065E+03  0.20107334522E+03  0.00000000000E+00 0.  1.
          3    1    6    6  503    0 -0.94419399223E+02  0.22032370500E+03  0.13287379732E+03  0.27406751713E+03  0.00000000000E+00 0. -1.
         -3    1    6    6    0  503 -0.91337569075E+02  0.31872055295E+03  0.80133812352E+02  0.34109642373E+03  0.00000000000E+00 0.  1.
<mgrwt>
<rscale>  0 0.23754969E+04</rscale>
<asrwt>0</asrwt>
<pdfrwt beam="1">  1        2 0.41221462E+00 0.23754969E+04</pdfrwt>
<pdfrwt beam="2">  1       -1 0.81002577E-01 0.23754969E+04</pdfrwt>
<totfact> 0.42529325E+00</totfact>
</mgrwt>
</event>
<event>
12    6  0.1540825E-007  0.1363990E+04  0.7818608E-02  0.8980305E-01
          2   -1    0    0  501    0  0.00000000000E+00  0.00000000000E+00  0.85941494227E+03  0.85941494227E+03  0.00000000000E+00 0. -1.
         -1   -1    0    0    0  501 -0.00000000000E+00 -0.00000000000E+00 -0.54120199654E+03  0.54120199654E+03  0.00000000000E+00 0.  1.
         24    2    1    2    0    0  0.32140381119E+03  0.11146444862E+03  0.22821258007E+03  0.41734666017E+03  0.79828064595E+02 0.  0.
        254    2    1    2    0    0 -0.32140381119E+03 -0.11146444862E+03  0.90000365661E+02  0.98327027864E+03  0.91814794118E+03 0.  0.
         23    2    4    4    0    0  0.25567035760E+02  0.85669567020E+01 -0.37294329439E+03  0.38493221435E+03  0.91427800722E+02 0.  0.
         23    2    4    4    0    0 -0.34697084695E+03 -0.12003140533E+03  0.46294366005E+03  0.59833806430E+03  0.94314897577E+02 0.  0.
          2    1    3    3  502    0  0.24271845505E+03  0.11895059037E+03  0.17270457993E+03  0.32076216002E+03  0.00000000000E+00 0. -1.
         -1    1    3    3    0  502  0.78685356142E+02 -0.74861417507E+01  0.55508000144E+02  0.96584500151E+02  0.00000000000E+00 0.  1.
         11    1    5    5    0    0  0.87974929617E+01 -0.13026392896E+02 -0.34663079370E+03  0.34698701695E+03  0.00000000000E+00 0. -1.
        -11    1    5    5    0    0  0.16769542798E+02  0.21593349597E+02 -0.26312500697E+02  0.37945197396E+02  0.00000000000E+00 0.  1.
          2    1    6    6  503    0 -0.70599732917E+02 -0.25148371441E+02  0.16396242976E+03  0.18027878757E+03  0.00000000000E+00 0.  1.
         -2    1    6    6    0  503 -0.27637111403E+03 -0.94883033884E+02  0.29898123029E+03  0.41805927673E+03  0.00000000000E+00 0. -1.
<mgrwt>
<rscale>  0 0.13639899E+04</rscale>
<asrwt>0</asrwt>
<pdfrwt beam="1">  1        2 0.13221768E+00 0.13639899E+04</pdfrwt>
<pdfrwt beam="2">  1       -1 0.83261846E-01 0.13639899E+04</pdfrwt>
<totfact> 0.49873577E+01</totfact>
</mgrwt>
</event>
<event>
12    6  0.1540825E-007  0.2320628E+04  0.7818608E-02  0.8469832E-01
          2   -1    0    0  501    0  0.00000000000E+00  0.00000000000E+00  0.12270085491E+04  0.12270085491E+04  0.00000000000E+00 0. -1.
         -1   -1    0    0    0  501 -0.00000000000E+00 -0.00000000000E+00 -0.10972448913E+04  0.10972448913E+04  0.00000000000E+00 0.  1.
         24    2    1    2    0    0 -0.58058824483E+03  0.26339097274E+03  0.80563253493E+03  0.10305283754E+04  0.80544625306E+02 0.  0.
        254    2    1    2    0    0  0.58058824483E+03 -0.26339097274E+03 -0.67586887711E+03  0.12937250650E+04  0.90026012365E+03 0.  0.
         23    2    4    4    0    0  0.51556494677E+03  0.63964269455E+01  0.35410717749E+02  0.52476990507E+03  0.91002229157E+02 0.  0.
         23    2    4    4    0    0  0.65023298051E+02 -0.26978739969E+03 -0.71127959486E+03  0.76895515994E+03  0.91433613159E+02 0.  0.
          4    1    3    3  502    0 -0.45784644409E+03  0.22270946886E+03  0.68658942037E+03  0.85476774977E+03  0.00000000000E+00 0. -1.
         -3    1    3    3    0  502 -0.12274180073E+03  0.40681503883E+02  0.11904311456E+03  0.17576062565E+03  0.00000000000E+00 0.  1.
         11    1    5    5    0    0  0.43703514686E+03  0.38297614656E+02  0.25860792538E+02  0.43947150928E+03  0.00000000000E+00 0.  1.
        -11    1    5    5    0    0  0.78529799915E+02 -0.31901187711E+02  0.95499252107E+01  0.85298395785E+02  0.00000000000E+00 0. -1.
          3    1    6    6  503    0  0.51564703938E+02 -0.53680251360E+02 -0.15266228231E+03  0.16984186915E+03  0.00000000000E+00 0. -1.
         -3    1    6    6    0  503  0.13458594113E+02 -0.21610714833E+03 -0.55861731256E+03  0.59911329079E+03  0.00000000000E+00 0.  1.
<mgrwt>
<rscale>  0 0.23206282E+04</rscale>
<asrwt>0</asrwt>
<pdfrwt beam="1">  1        2 0.18877055E+00 0.23206282E+04</pdfrwt>
<pdfrwt beam="2">  1       -1 0.16880691E+00 0.23206282E+04</pdfrwt>
<totfact> 0.47279727E+00</totfact>
</mgrwt>
</event>
<event>
12    6  0.1540825E-007  0.1398200E+04  0.7818608E-02  0.8955123E-01
         -1   -1    0    0    0  501 -0.00000000000E+00  0.00000000000E+00  0.24726112143E+04  0.24726112143E+04  0.00000000000E+00 0.  1.
          2   -1    0    0  501    0  0.00000000000E+00 -0.00000000000E+00 -0.19766177103E+03  0.19766177103E+03  0.00000000000E+00 0. -1.
         24    2    1    2    0    0 -0.41925364901E+02 -0.10474293468E+02  0.14965312255E+04  0.14993793391E+04  0.81640960795E+02 0.  0.
        254    2    1    2    0    0  0.41925364901E+02  0.10474293468E+02  0.77841821774E+03  0.11708936462E+04  0.87360721267E+03 0.  0.
         23    2    4    4    0    0 -0.24786125008E+03 -0.31859021894E+03  0.27563792751E+03  0.49740833095E+03  0.92216341956E+02 0.  0.
         23    2    4    4    0    0  0.28978661498E+03  0.32906451241E+03  0.50278029024E+03  0.67348531529E+03  0.92383516434E+02 0.  0.
          4    1    3    3  502    0 -0.17840228528E+02  0.93687074420E+01  0.79812430824E+02  0.82316891020E+02  0.00000000000E+00 0. -1.
         -3    1    3    3    0  502 -0.24085136373E+02 -0.19843000910E+02  0.14167187947E+04  0.14170624480E+04  0.00000000000E+00 0.  1.
         11    1    5    5    0    0 -0.62172911865E+02 -0.27163985880E+02  0.55835147669E+02  0.87868747652E+02  0.00000000000E+00 0. -1.
        -11    1    5    5    0    0 -0.18568833821E+03 -0.29142623306E+03  0.21980277984E+03  0.40953958330E+03  0.00000000000E+00 0.  1.
          2    1    6    6  503    0  0.78283884496E+02  0.57895915937E+02  0.66262414465E+02  0.11777525727E+03  0.00000000000E+00 0. -1.
         -2    1    6    6    0  503  0.21150273048E+03  0.27116859647E+03  0.43651787577E+03  0.55571005802E+03  0.00000000000E+00 0.  1.
<mgrwt>
<rscale>  0 0.13981999E+04</rscale>
<asrwt>0</asrwt>
<pdfrwt beam="1">  1        2 0.30409505E-01 0.13981999E+04</pdfrwt>
<pdfrwt beam="2">  1       -1 0.38040170E+00 0.13981999E+04</pdfrwt>
<totfact> 0.19192571E+00</totfact>
</mgrwt>
</event>
<event>
12    6  0.1540825E-007  0.2136128E+04  0.7818608E-02  0.8545493E-01
          2   -1    0    0  501    0  0.00000000000E+00  0.00000000000E+00  0.22362762740E+04  0.22362762740E+04  0.00000000000E+00 0. -1.
         -1   -1    0    0    0  501 -0.00000000000E+00 -0.00000000000E+00 -0.51011633633E+03  0.51011633633E+03  0.00000000000E+00 0.  1.
         24    2    1    2    0    0  0.45925063246E+03  0.47074638786E+03 -0.25046872447E+02  0.66309097575E+03  0.80925837672E+02 0.  0.
        254    2    1    2    0    0 -0.45925063246E+03 -0.47074638786E+03  0.17512068101E+04  0.20833016346E+04  0.91700987113E+03 0.  0.
         23    2    4    4    0    0 -0.13784477436E+03 -0.45529519323E+03  0.25089189634E+03  0.54546944554E+03  0.91078414428E+02 0.  0.
         23    2    4    4    0    0 -0.32140585810E+03 -0.15451194629E+02  0.15003149138E+04  0.15378321891E+04  0.10218872779E+03 0.  0.
          2    1    3    3  502    0  0.25769613382E+02  0.46879343486E+02 -0.19051802588E+02  0.56786591740E+02  0.00000000000E+00 0. -1.
         -1    1    3    3    0  502  0.43348101908E+03  0.42386704437E+03 -0.59950698592E+01  0.60630438401E+03  0.00000000000E+00 0.  1.
         11    1    5    5    0    0 -0.73831201523E+02 -0.21949737961E+03  0.71552815020E+02  0.24238389243E+03  0.00000000000E+00 0. -1.
        -11    1    5    5    0    0 -0.64013572840E+02 -0.23579781362E+03  0.17933908132E+03  0.30308555311E+03  0.00000000000E+00 0.  1.
          3    1    6    6  503    0 -0.21269782861E+03 -0.58531534424E+02  0.99600005424E+03  0.10201384293E+04  0.00000000000E+00 0. -1.
         -3    1    6    6    0  503 -0.10870802949E+03  0.43080339796E+02  0.50431485956E+03  0.51769375979E+03  0.00000000000E+00 0.  1.
<mgrwt>
<rscale>  0 0.21361283E+04</rscale>
<asrwt>0</asrwt>
<pdfrwt beam="1">  1        2 0.34404250E+00 0.21361283E+04</pdfrwt>
<pdfrwt beam="2">  1       -1 0.78479438E-01 0.21361283E+04</pdfrwt>
<totfact> 0.83709938E+00</totfact>
</mgrwt>
</event>
<event>
12    6  0.1540825E-007  0.1598619E+04  0.7818608E-02  0.8821397E-01
         -1   -1    0    0    0  501 -0.00000000000E+00  0.00000000000E+00  0.18399625043E+03  0.18399625043E+03  0.00000000000E+00 0.  1.
          2   -1    0    0  501    0  0.00000000000E+00 -0.00000000000E+00 -0.34723299207E+04  0.34723299207E+04  0.00000000000E+00 0. -1.
         24    2    1    2    0    0  0.31513993967E+03 -0.28557159797E+03 -0.18753982825E+04  0.19255664941E+04  0.99112490929E+02 0.  0.
        254    2    1    2    0    0 -0.31513993967E+03  0.28557159797E+03 -0.14129353877E+04  0.17307596771E+04  0.90458738144E+03 0.  0.
         23    2    4    4    0    0  0.19005111458E+03  0.13568552358E+03 -0.35076160631E+02  0.25292740238E+03  0.90619790163E+02 0.  0.
         23    2    4    4    0    0 -0.50519105425E+03  0.14988607438E+03 -0.13778592271E+04  0.14778322747E+04  0.88364844564E+02 0.  0.
          2    1    3    3  502    0  0.28256431021E+03 -0.27248343618E+03 -0.18012548318E+04  0.18435316057E+04  0.00000000000E+00 0. -1.
         -1    1    3    3    0  502  0.32575629464E+02 -0.13088161786E+02 -0.74143450781E+02  0.82034888356E+02  0.00000000000E+00 0.  1.
         11    1    5    5    0    0  0.63250898038E+02  0.31992678475E+02 -0.52494595457E+02  0.88203685472E+02  0.00000000000E+00 0. -1.
        -11    1    5    5    0    0  0.12680021654E+03  0.10369284511E+03  0.17418434826E+02  0.16472371691E+03  0.00000000000E+00 0.  1.
          1    1    6    6  503    0 -0.58091771572E+02 -0.15235794832E+01 -0.21758439461E+03  0.22521088783E+03  0.00000000000E+00 0. -1.
         -1    1    6    6    0  503 -0.44709928268E+03  0.15140965387E+03 -0.11602748325E+04  0.12526213869E+04  0.00000000000E+00 0.  1.
<mgrwt>
<rscale>  0 0.15986190E+04</rscale>
<asrwt>0</asrwt>
<pdfrwt beam="1">  1        2 0.53420456E+00 0.15986190E+04</pdfrwt>
<pdfrwt beam="2">  1       -1 0.28307118E-01 0.15986190E+04</pdfrwt>
<totfact> 0.10606418E+01</totfact>
</mgrwt>
</event>
<event>
12    6  0.1540825E-007  0.1505274E+04  0.7818608E-02  0.8880953E-01
         -1   -1    0    0    0  501 -0.00000000000E+00  0.00000000000E+00  0.61168681718E+03  0.61168681718E+03  0.00000000000E+00 0.  1.
          2   -1    0    0  501    0  0.00000000000E+00 -0.00000000000E+00 -0.92606610356E+03  0.92606610356E+03  0.00000000000E+00 0. -1.
         24    2    1    2    0    0 -0.15788478689E+03  0.28716646049E+03  0.25415324058E+03  0.42228214558E+03  0.79599992556E+02 0.  0.
        254    2    1    2    0    0  0.15788478689E+03 -0.28716646049E+03 -0.56853252696E+03  0.11154707752E+04  0.90202751291E+03 0.  0.
         23    2    4    4    0    0  0.52051842859E+03 -0.22427559225E+03 -0.27939873178E+03  0.63842153832E+03  0.90991392415E+02 0.  0.
         23    2    4    4    0    0 -0.36263364170E+03 -0.62890868234E+02 -0.28913379518E+03  0.47704923683E+03  0.92299531131E+02 0.  0.
          2    1    3    3  502    0 -0.16932987932E+00 -0.81815388594E-01  0.18860073243E+02  0.18861010818E+02  0.00000000000E+00 0. -1.
         -3    1    3    3    0  502 -0.15771545701E+03  0.28724827588E+03  0.23529316734E+03  0.40342113476E+03  0.00000000000E+00 0.  1.
         11    1    5    5    0    0  0.17030423438E+03 -0.12066715076E+03 -0.95941715926E+02  0.22971483708E+03  0.00000000000E+00 0. -1.
        -11    1    5    5    0    0  0.35021419421E+03 -0.10360844149E+03 -0.18345701585E+03  0.40870670124E+03  0.00000000000E+00 0.  1.
          1    1    6    6  503    0 -0.39136719803E+01  0.97923012216E+01 -0.20445570583E+02  0.23004941818E+02  0.00000000000E+00 0. -1.
         -1    1    6    6    0  503 -0.35871996972E+03 -0.72683169456E+02 -0.26868822460E+03  0.45404429502E+03  0.00000000000E+00 0.  1.
<mgrwt>
<rscale>  0 0.15052740E+04</rscale>
<asrwt>0</asrwt>
<pdfrwt beam="1">  1        2 0.14247171E+00 0.15052740E+04</pdfrwt>
<pdfrwt beam="2">  1       -1 0.94105665E-01 0.15052740E+04</pdfrwt>
<totfact> 0.33958630E+01</totfact>
</mgrwt>
</event>
<event>
12    6  0.1540825E-007  0.1776439E+04  0.7818608E-02  0.8718930E-01
         -1   -1    0    0    0  501 -0.00000000000E+00  0.00000000000E+00  0.42450749755E+03  0.42450749755E+03  0.00000000000E+00 0.  1.
          2   -1    0    0  501    0  0.00000000000E+00 -0.00000000000E+00 -0.18584688416E+04  0.18584688416E+04  0.00000000000E+00 0. -1.
         24    2    1    2    0    0  0.27074851623E+03  0.26656501581E+03  0.14612073856E+03  0.41549293656E+03  0.83195212562E+02 0.  0.
        254    2    1    2    0    0 -0.27074851623E+03 -0.26656501581E+03 -0.15800820826E+04  0.18674834026E+04  0.92003978418E+03 0.  0.
         23    2    4    4    0    0 -0.11902699841E+03  0.32909863066E+03 -0.72556798876E+03  0.81086554046E+03  0.92631977969E+02 0.  0.
         23    2    4    4    0    0 -0.15172151783E+03 -0.59566364647E+03 -0.85451409383E+03  0.10566178621E+04  0.91718979999E+02 0.  0.
          2    1    3    3  502    0  0.53943152120E+02  0.28073383053E+02 -0.18536244825E+01  0.60839250656E+02  0.00000000000E+00 0. -1.
         -1    1    3    3    0  502  0.21680536411E+03  0.23849163276E+03  0.14797436305E+03  0.35465368590E+03  0.00000000000E+00 0.  1.
         11    1    5    5    0    0 -0.34637575606E+02  0.51727792694E+02 -0.67849033174E+02  0.92081580588E+02  0.00000000000E+00 0. -1.
        -11    1    5    5    0    0 -0.84389422801E+02  0.27737083796E+03 -0.65771895559E+03  0.71878395987E+03  0.00000000000E+00 0.  1.
          4    1    6    6  503    0 -0.74725447457E+02 -0.18219330689E+03 -0.33023145963E+03  0.38448811491E+03  0.00000000000E+00 0. -1.
         -4    1    6    6    0  503 -0.76996070370E+02 -0.41347033957E+03 -0.52428263419E+03  0.67212974720E+03  0.00000000000E+00 0.  1.
<mgrwt>
<rscale>  0 0.17764391E+04</rscale>
<asrwt>0</asrwt>
<pdfrwt beam="1">  1        2 0.28591828E+00 0.17764391E+04</pdfrwt>
<pdfrwt beam="2">  1       -1 0.65308846E-01 0.17764391E+04</pdfrwt>
<totfact> 0.20501889E+01</totfact>
</mgrwt>
</event>
<event>
12    6  0.1540825E-007  0.2624098E+04  0.7818608E-02  0.8360061E-01
         -1   -1    0    0    0  501 -0.00000000000E+00  0.00000000000E+00  0.84729407343E+03  0.84729407343E+03  0.00000000000E+00 0.  1.
          2   -1    0    0  501    0  0.00000000000E+00 -0.00000000000E+00 -0.20317296059E+04  0.20317296059E+04  0.00000000000E+00 0. -1.
         24    2    1    2    0    0 -0.10297431997E+04 -0.51984978174E+03 -0.52261918308E+03  0.12692955905E+04  0.85823263643E+02 0.  0.
        254    2    1    2    0    0  0.10297431997E+04  0.51984978174E+03 -0.66181634938E+03  0.16097280889E+04  0.90697783155E+03 0.  0.
         23    2    4    4    0    0  0.11614262907E+04  0.36315440485E+03 -0.44852175445E+03  0.13005086719E+04  0.96741361701E+02 0.  0.
         23    2    4    4    0    0 -0.13168309101E+03  0.15669537689E+03 -0.21329459493E+03  0.30921941695E+03  0.90709348995E+02 0.  0.
          4    1    3    3  502    0 -0.41154618004E+03 -0.22535912402E+03 -0.16979949502E+03  0.49898783712E+03  0.00000000000E+00 0. -1.
         -3    1    3    3    0  502 -0.61819701963E+03 -0.29449065772E+03 -0.35281968807E+03  0.77030775333E+03  0.00000000000E+00 0.  1.
         11    1    5    5    0    0  0.48013333891E+01 -0.28882127314E+01  0.26076800534E+01  0.61801755926E+01  0.00000000000E+00 0. -1.
        -11    1    5    5    0    0  0.11566249573E+04  0.36604261758E+03 -0.45112943450E+03  0.12943284963E+04  0.00000000000E+00 0.  1.
          4    1    6    6  503    0 -0.11509165338E+03  0.88980007122E+02 -0.18146419859E+03  0.23257855816E+03  0.00000000000E+00 0. -1.
         -4    1    6    6    0  503 -0.16591437634E+02  0.67715369766E+02 -0.31830396345E+02  0.76640858795E+02  0.00000000000E+00 0.  1.
<mgrwt>
<rscale>  0 0.26240979E+04</rscale>
<asrwt>0</asrwt>
<pdfrwt beam="1">  1        2 0.31257378E+00 0.26240979E+04</pdfrwt>
<pdfrwt beam="2">  1       -1 0.13035294E+00 0.26240979E+04</pdfrwt>
<totfact> 0.32449233E+00</totfact>
</mgrwt>
</event>
<event>
12    6  0.1540825E-007  0.1947276E+04  0.7818608E-02  0.8631675E-01
          2   -1    0    0  501    0  0.00000000000E+00  0.00000000000E+00  0.78842132454E+03  0.78842132454E+03  0.00000000000E+00 0. -1.
         -1   -1    0    0    0  501 -0.00000000000E+00 -0.00000000000E+00 -0.12023662694E+04  0.12023662694E+04  0.00000000000E+00 0.  1.
         24    2    1    2    0    0 -0.32950719281E+03 -0.61710375512E+03  0.18223799380E+03  0.72755921412E+03  0.82095608677E+02 0.  0.
        254    2    1    2    0    0  0.32950719281E+03  0.61710375512E+03 -0.59618293864E+03  0.12632283798E+04  0.86655629275E+03 0.  0.
         23    2    4    4    0    0  0.14736624335E+03  0.42435614764E+03  0.13670027943E+03  0.47854045598E+03  0.92298710115E+02 0.  0.
         23    2    4    4    0    0  0.18214094946E+03  0.19274760748E+03 -0.73288321807E+03  0.78468792382E+03  0.91051418409E+02 0.  0.
          4    1    3    3  502    0 -0.15477025472E+02 -0.53623111232E+01  0.84692333511E+00  0.16401523624E+02  0.00000000000E+00 0. -1.
         -3    1    3    3    0  502 -0.31403016734E+03 -0.61174144400E+03  0.18139107047E+03  0.71115769049E+03  0.00000000000E+00 0.  1.
         11    1    5    5    0    0  0.12442224657E+03  0.40499439900E+03  0.14429337396E+03  0.44757338664E+03  0.00000000000E+00 0. -1.
        -11    1    5    5    0    0  0.22943996779E+02  0.19361748641E+02 -0.75930945241E+01  0.30967069334E+02  0.00000000000E+00 0.  1.
          3    1    6    6  503    0  0.18443980482E+03  0.19006499179E+03 -0.65213931696E+03  0.70386677108E+03  0.00000000000E+00 0. -1.
         -3    1    6    6    0  503 -0.22988553586E+01  0.26826156864E+01 -0.80743901115E+02  0.80821152740E+02  0.00000000000E+00 0.  1.
<mgrwt>
<rscale>  0 0.19472763E+04</rscale>
<asrwt>0</asrwt>
<pdfrwt beam="1">  1        2 0.12129559E+00 0.19472763E+04</pdfrwt>
<pdfrwt beam="2">  1       -1 0.18497942E+00 0.19472763E+04</pdfrwt>
<totfact> 0.71703787E+00</totfact>
</mgrwt>
</event>
<event>
12    6  0.1540825E-007  0.2236145E+04  0.7818608E-02  0.8503532E-01
         -1   -1    0    0    0  501 -0.00000000000E+00  0.00000000000E+00  0.11300063353E+04  0.11300063353E+04  0.00000000000E+00 0.  1.
          2   -1    0    0  501    0  0.00000000000E+00 -0.00000000000E+00 -0.11062651894E+04  0.11062651894E+04  0.00000000000E+00 0. -1.
         24    2    1    2    0    0 -0.86501230573E+03 -0.36143658588E+03  0.47423195853E+02  0.94096489814E+03  0.65446813168E+02 0.  0.
        254    2    1    2    0    0  0.86501230573E+03  0.36143658588E+03 -0.23682049985E+02  0.12953066266E+04  0.89351873107E+03 0.  0.
         23    2    4    4    0    0  0.73450999989E+03 -0.10558032355E+03 -0.19732776833E+03  0.77317051096E+03  0.90566253166E+02 0.  0.
         23    2    4    4    0    0  0.13050230584E+03  0.46701690942E+03  0.17364571834E+03  0.52213611565E+03  0.85660038783E+02 0.  0.
          2    1    3    3  502    0 -0.81264747885E+02 -0.27355736272E+02  0.22374027117E+02  0.88616548371E+02  0.00000000000E+00 0. -1.
         -1    1    3    3    0  502 -0.78374755784E+03 -0.33408084961E+03  0.25049168735E+02  0.85234834977E+03  0.00000000000E+00 0.  1.
         11    1    5    5    0    0  0.67149540177E+03 -0.10555955586E+03 -0.15479333727E+03  0.69714408245E+03  0.00000000000E+00 0.  1.
        -11    1    5    5    0    0  0.63014598122E+02 -0.20767689613E-01 -0.42534431054E+02  0.76026428516E+02  0.00000000000E+00 0. -1.
          2    1    6    6  503    0  0.51139847943E+02  0.23242118214E+03  0.12830174585E+03  0.27036314087E+03  0.00000000000E+00 0. -1.
         -2    1    6    6    0  503  0.79362457896E+02  0.23459572729E+03  0.45343972492E+02  0.25177297477E+03  0.00000000000E+00 0.  1.
<mgrwt>
<rscale>  0 0.22361455E+04</rscale>
<asrwt>0</asrwt>
<pdfrwt beam="1">  1        2 0.17019464E+00 0.22361455E+04</pdfrwt>
<pdfrwt beam="2">  1       -1 0.17384713E+00 0.22361455E+04</pdfrwt>
<totfact> 0.51742955E+00</totfact>
</mgrwt>
</event>
<event>
12    6  0.1540825E-007  0.1840401E+04  0.7818608E-02  0.8685105E-01
         -1   -1    0    0    0  501 -0.00000000000E+00  0.00000000000E+00  0.72841260033E+03  0.72841260033E+03  0.00000000000E+00 0.  1.
          2   -1    0    0  501    0  0.00000000000E+00 -0.00000000000E+00 -0.11624847705E+04  0.11624847705E+04  0.00000000000E+00 0. -1.
         24    2    1    2    0    0 -0.10182179025E+02  0.23212600844E+03  0.51158090440E+03  0.56867485020E+03  0.87692091675E+02 0.  0.
        254    2    1    2    0    0  0.10182179025E+02 -0.23212600844E+03 -0.94565307461E+03  0.13222225207E+04  0.89444200262E+03 0.  0.
         23    2    4    4    0    0 -0.28973942077E+03 -0.44946475101E+03 -0.55060488203E+03  0.77281148018E+03  0.90024182507E+02 0.  0.
         23    2    4    4    0    0  0.29992159979E+03  0.21733874257E+03 -0.39504819258E+03  0.54941104048E+03  0.92737920468E+02 0.  0.
          2    1    3    3  502    0  0.70270363182E+01 -0.55103429769E+01  0.31215639722E+02  0.32467819182E+02  0.00000000000E+00 0. -1.
         -1    1    3    3    0  502 -0.17209215343E+02  0.23763635142E+03  0.48036526468E+03  0.53620703102E+03  0.00000000000E+00 0.  1.
         11    1    5    5    0    0 -0.45128267981E+02 -0.13998833407E+03 -0.16767119891E+03  0.22304018739E+03  0.00000000000E+00 0. -1.
        -11    1    5    5    0    0 -0.24461115279E+03 -0.30947641694E+03 -0.38293368312E+03  0.54977129279E+03  0.00000000000E+00 0.  1.
          4    1    6    6  503    0  0.92212283669E+02  0.11580736227E+03 -0.18598324341E+03  0.23770615736E+03  0.00000000000E+00 0. -1.
         -4    1    6    6    0  503  0.20770931613E+03  0.10153138030E+03 -0.20906494917E+03  0.31170488313E+03  0.00000000000E+00 0.  1.
<mgrwt>
<rscale>  0 0.18404006E+04</rscale>
<asrwt>0</asrwt>
<pdfrwt beam="1">  1        2 0.17884381E+00 0.18404006E+04</pdfrwt>
<pdfrwt beam="2">  1       -1 0.11206348E+00 0.18404006E+04</pdfrwt>
<totfact> 0.15635816E+01</totfact>
</mgrwt>
</event>
<event>
12    6  0.1540825E-007  0.2078401E+04  0.7818608E-02  0.8570818E-01
          4   -1    0    0  501    0  0.00000000000E+00  0.00000000000E+00  0.14849287924E+04  0.14849287924E+04  0.00000000000E+00 0. -1.
         -3   -1    0    0    0  501 -0.00000000000E+00 -0.00000000000E+00 -0.72726576576E+03  0.72726576576E+03  0.00000000000E+00 0.  1.
         24    2    1    2    0    0 -0.47025057025E+02 -0.48791405540E+03 -0.42520977491E+03  0.65371046534E+03  0.79136201445E+02 0.  0.
        254    2    1    2    0    0  0.47025057025E+02  0.48791405540E+03  0.11828728016E+04  0.15584840929E+04  0.88848923545E+03 0.  0.
         23    2    4    4    0    0 -0.36816048717E+03  0.36810693206E+03  0.86423811817E+03  0.10141116892E+04  0.10232367995E+03 0.  0.
         23    2    4    4    0    0  0.41518554419E+03  0.11980712334E+03  0.31863468342E+03  0.54437240368E+03  0.89891431767E+02 0.  0.
          2    1    3    3  502    0  0.10516614923E+02 -0.57367634049E+02 -0.26387359638E+02  0.64015133949E+02  0.00000000000E+00 0. -1.
         -1    1    3    3    0  502 -0.57541671949E+02 -0.43054642135E+03 -0.39882241527E+03  0.58969533139E+03  0.00000000000E+00 0.  1.
         11    1    5    5    0    0 -0.36969489779E+03  0.35815001010E+03  0.86168869637E+03  0.10037196604E+04  0.00000000000E+00 0. -1.
        -11    1    5    5    0    0  0.15344106259E+01  0.99569219578E+01  0.25494218008E+01  0.10392028789E+02  0.00000000000E+00 0.  1.
          3    1    6    6  503    0  0.23328852753E+03  0.21242820626E+02  0.17810612371E+03  0.29427297838E+03  0.00000000000E+00 0. -1.
         -3    1    6    6    0  503  0.18189701667E+03  0.98564302715E+02  0.14052855971E+03  0.25009942530E+03  0.00000000000E+00 0.  1.
<mgrwt>
<rscale>  0 0.20784012E+04</rscale>
<asrwt>0</asrwt>
<pdfrwt beam="1">  1        4 0.22845058E+00 0.20784012E+04</pdfrwt>
<pdfrwt beam="2">  1       -3 0.11188704E+00 0.20784012E+04</pdfrwt>
<totfact> 0.12154410E-01</totfact>
</mgrwt>
</event>
<event>
12    6  0.1540825E-007  0.2963516E+04  0.7818608E-02  0.8254226E-01
         -1   -1    0    0    0  501 -0.00000000000E+00  0.00000000000E+00  0.90062625311E+03  0.90062625311E+03  0.00000000000E+00 0.  1.
          2   -1    0    0  501    0  0.00000000000E+00 -0.00000000000E+00 -0.24378674856E+04  0.24378674856E+04  0.00000000000E+00 0. -1.
         24    2    1    2    0    0  0.10604739978E+04 -0.51278207759E+03  0.29847479129E+02  0.11809984208E+04  0.79472251502E+02 0.  0.
        254    2    1    2    0    0 -0.10604739978E+04  0.51278207759E+03 -0.15670887117E+04  0.21574953180E+04  0.90081544041E+03 0.  0.
         23    2    4    4    0    0 -0.15635486619E+03 -0.16046597845E+03 -0.67511237781E+03  0.71710122960E+03  0.90891563993E+02 0.  0.
         23    2    4    4    0    0 -0.90411913162E+03  0.67324805604E+03 -0.89197633386E+03  0.14403940884E+04  0.91755111623E+02 0.  0.
          2    1    3    3  502    0  0.20945744958E+03 -0.76575317211E+02 -0.16107348105E+02  0.22359706853E+03  0.00000000000E+00 0. -1.
         -1    1    3    3    0  502  0.85101654823E+03 -0.43620676038E+03  0.45954827234E+02  0.95740135226E+03  0.00000000000E+00 0.  1.
         11    1    5    5    0    0 -0.11577002911E+03 -0.78700091416E+02 -0.30018258295E+03  0.33121894139E+03  0.00000000000E+00 0.  1.
        -11    1    5    5    0    0 -0.40584837083E+02 -0.81765887034E+02 -0.37492979486E+03  0.38588228821E+03  0.00000000000E+00 0. -1.
          2    1    6    6  503    0 -0.54524423495E+03  0.36227296863E+03 -0.48029781835E+03  0.81192300982E+03  0.00000000000E+00 0. -1.
         -2    1    6    6    0  503 -0.35887489667E+03  0.31097508740E+03 -0.41167851550E+03  0.62847107855E+03  0.00000000000E+00 0.  1.
<mgrwt>
<rscale>  0 0.29635165E+04</rscale>
<asrwt>0</asrwt>
<pdfrwt beam="1">  1        2 0.37505653E+00 0.29635165E+04</pdfrwt>
<pdfrwt beam="2">  1       -1 0.13855789E+00 0.29635165E+04</pdfrwt>
<totfact> 0.15889949E+00</totfact>
</mgrwt>
</event>
<event>
12    6  0.1540825E-007  0.1194041E+04  0.7818608E-02  0.9118088E-01
         -1   -1    0    0    0  501 -0.00000000000E+00  0.00000000000E+00  0.11697856170E+03  0.11697856170E+03  0.00000000000E+00 0.  1.
          2   -1    0    0  501    0  0.00000000000E+00 -0.00000000000E+00 -0.30470002603E+04  0.30470002603E+04  0.00000000000E+00 0. -1.
         24    2    1    2    0    0  0.15485850084E+03 -0.70163683844E+02 -0.11138882316E+04  0.11282608638E+04  0.57632337374E+02 0.  0.
        254    2    1    2    0    0 -0.15485850084E+03  0.70163683844E+02 -0.18161334670E+04  0.20357179582E+04  0.90382671894E+03 0.  0.
         23    2    4    4    0    0 -0.17012443583E+03  0.47029600971E+03 -0.95451281719E+03  0.10812222050E+04  0.88465123312E+02 0.  0.
         23    2    4    4    0    0  0.15265934987E+02 -0.40013232586E+03 -0.86162064976E+03  0.95449575321E+03  0.91285660555E+02 0.  0.
          4    1    3    3  502    0  0.14778430420E+03 -0.46785853264E+02 -0.95059573881E+03  0.96315179243E+03  0.00000000000E+00 0. -1.
         -3    1    3    3    0  502  0.70741966421E+01 -0.23377830580E+02 -0.16329249283E+03  0.16510907133E+03  0.00000000000E+00 0.  1.
         11    1    5    5    0    0  0.74666885544E+01  0.90718772032E+01 -0.10969625566E+02  0.16074298710E+02  0.00000000000E+00 0.  1.
        -11    1    5    5    0    0 -0.17759112438E+03  0.46122413251E+03 -0.94354319162E+03  0.10651479063E+04  0.00000000000E+00 0. -1.
          1    1    6    6  503    0  0.31640715590E+02 -0.34619884441E+03 -0.79185837364E+03  0.86480891454E+03  0.00000000000E+00 0. -1.
         -1    1    6    6    0  503 -0.16374780603E+02 -0.53933481453E+02 -0.69762276121E+02  0.89686838673E+02  0.00000000000E+00 0.  1.
<mgrwt>
<rscale>  0 0.11940414E+04</rscale>
<asrwt>0</asrwt>
<pdfrwt beam="1">  1        2 0.46876923E+00 0.11940414E+04</pdfrwt>
<pdfrwt beam="2">  1       -1 0.17996703E-01 0.11940414E+04</pdfrwt>
<totfact> 0.45303966E+01</totfact>
</mgrwt>
</event>
<event>
12    6  0.1540825E-007  0.1389998E+04  0.7818608E-02  0.8961091E-01
         -1   -1    0    0    0  501 -0.00000000000E+00  0.00000000000E+00  0.20628892597E+04  0.20628892597E+04  0.00000000000E+00 0.  1.
          2   -1    0    0  501    0  0.00000000000E+00 -0.00000000000E+00 -0.23414905766E+03  0.23414905766E+03  0.00000000000E+00 0. -1.
         24    2    1    2    0    0  0.31434589765E+03 -0.23027583024E+03  0.35688301960E+03  0.53455752925E+03  0.80907113660E+02 0.  0.
        254    2    1    2    0    0 -0.31434589765E+03  0.23027583024E+03  0.14718571824E+04  0.17624807881E+04  0.88776948672E+03 0.  0.
         23    2    4    4    0    0 -0.27212105493E+03  0.54711277831E+03  0.78208877573E+03  0.99693176787E+03  0.93956564205E+02 0.  0.
         23    2    4    4    0    0 -0.42224842718E+02 -0.31683694807E+03  0.68976840670E+03  0.76554902021E+03  0.90090279513E+02 0.  0.
          4    1    3    3  502    0  0.23215373019E+03 -0.15492219702E+03  0.29863793665E+03  0.40875525535E+03  0.00000000000E+00 0. -1.
         -3    1    3    3    0  502  0.82192167457E+02 -0.75353633218E+02  0.58245082948E+02  0.12580227390E+03  0.00000000000E+00 0.  1.
         11    1    5    5    0    0 -0.91513443879E+02  0.28887476306E+03  0.37540929828E+03  0.48244738613E+03  0.00000000000E+00 0. -1.
        -11    1    5    5    0    0 -0.18060761105E+03  0.25823801524E+03  0.40667947745E+03  0.51448438175E+03  0.00000000000E+00 0.  1.
          4    1    6    6  503    0 -0.64396567552E+02 -0.15691935946E+03  0.32329754314E+03  0.36509163875E+03  0.00000000000E+00 0. -1.
         -4    1    6    6    0  503  0.22171724833E+02 -0.15991758861E+03  0.36647086355E+03  0.40045738146E+03  0.00000000000E+00 0.  1.
<mgrwt>
<rscale>  0 0.13899980E+04</rscale>
<asrwt>0</asrwt>
<pdfrwt beam="1">  1        2 0.36022933E-01 0.13899980E+04</pdfrwt>
<pdfrwt beam="2">  1       -1 0.31736757E+00 0.13899980E+04</pdfrwt>
<totfact> 0.41372360E+00</totfact>
</mgrwt>
</event>
<event>
12    6  0.1540825E-007  0.2039092E+04  0.7818608E-02  0.8588559E-01
          2   -1    0    0  501    0  0.00000000000E+00  0.00000000000E+00  0.13670389396E+04  0.13670389396E+04  0.00000000000E+00 0. -1.
         -1   -1    0    0    0  501 -0.00000000000E+00 -0.00000000000E+00 -0.76038327412E+03  0.76038327412E+03  0.00000000000E+00 0.  1.
         24    2    1    2    0    0 -0.17675037355E+03 -0.15990323714E+03  0.10831086415E+04  0.11118506233E+04  0.79232185984E+02 0.  0.
        254    2    1    2    0    0  0.17675037355E+03  0.15990323714E+03 -0.47645297604E+03  0.10155715905E+04  0.86462042376E+03 0.  0.
         23    2    4    4    0    0 -0.22978579035E+03  0.20400840814E+03  0.69068607702E+02  0.32773618381E+03  0.90661974220E+02 0.  0.
         23    2    4    4    0    0  0.40653616389E+03 -0.44105171006E+02 -0.54552158374E+03  0.68783540666E+03  0.91141810718E+02 0.  0.
          4    1    3    3  502    0 -0.29295053792E+02 -0.76132322896E+02  0.34750274845E+03  0.35694886321E+03  0.00000000000E+00 0. -1.
         -1    1    3    3    0  502 -0.14745531975E+03 -0.83770914240E+02  0.73560589307E+03  0.75490176004E+03  0.00000000000E+00 0.  1.
         11    1    5    5    0    0 -0.20523538066E+03  0.18159905913E+03  0.28847905713E+02  0.27555758276E+03  0.00000000000E+00 0. -1.
        -11    1    5    5    0    0 -0.24550409684E+02  0.22409349010E+02  0.40220701989E+02  0.52178601046E+02  0.00000000000E+00 0.  1.
          2    1    6    6  503    0  0.17102020209E+03 -0.49635357958E+02 -0.18179549869E+03  0.25448218332E+03  0.00000000000E+00 0. -1.
         -2    1    6    6    0  503  0.23551596181E+03  0.55301869523E+01 -0.36372608505E+03  0.43335322334E+03  0.00000000000E+00 0.  1.
<mgrwt>
<rscale>  0 0.20390915E+04</rscale>
<asrwt>0</asrwt>
<pdfrwt beam="1">  1        2 0.21031368E+00 0.20390915E+04</pdfrwt>
<pdfrwt beam="2">  1       -1 0.11698204E+00 0.20390915E+04</pdfrwt>
<totfact> 0.10509978E+01</totfact>
</mgrwt>
</event>
<event>
12    6  0.1540825E-007  0.1957476E+04  0.7818608E-02  0.8626764E-01
          2   -1    0    0  501    0  0.00000000000E+00  0.00000000000E+00  0.19628361456E+04  0.19628361456E+04  0.00000000000E+00 0. -1.
         -1   -1    0    0    0  501 -0.00000000000E+00 -0.00000000000E+00 -0.48803283354E+03  0.48803283354E+03  0.00000000000E+00 0.  1.
         24    2    1    2    0    0  0.31665534139E+03  0.24188791894E+03  0.14039277062E+04  0.14616011826E+04  0.80527275992E+02 0.  0.
        254    2    1    2    0    0 -0.31665534139E+03 -0.24188791894E+03  0.70875605830E+02  0.98926779652E+03  0.90268878977E+03 0.  0.
         23    2    4    4    0    0 -0.62118537043E+03 -0.96587845196E+02  0.83093025999E+02  0.64101420478E+03  0.93777841092E+02 0.  0.
         23    2    4    4    0    0  0.30453002905E+03 -0.14530007375E+03 -0.12217420168E+02  0.34825359174E+03  0.85326717854E+02 0.  0.
          4    1    3    3  502    0  0.23937666089E+03  0.14131159533E+03  0.89956812213E+03  0.94153755055E+03  0.00000000000E+00 0. -1.
         -3    1    3    3    0  502  0.77278680501E+02  0.10057632362E+03  0.50435958409E+03  0.52006363207E+03  0.00000000000E+00 0.  1.
         11    1    5    5    0    0 -0.51209792988E+02  0.84894644772E+01  0.27581750232E+02  0.58781517936E+02  0.00000000000E+00 0. -1.
        -11    1    5    5    0    0 -0.56997557745E+03 -0.10507730967E+03  0.55511275767E+02  0.58223268684E+03  0.00000000000E+00 0.  1.
          1    1    6    6  503    0  0.14159690227E+03 -0.33330954979E+02 -0.33917410029E+02  0.14936875843E+03  0.00000000000E+00 0. -1.
         -1    1    6    6    0  503  0.16293312678E+03 -0.11196911877E+03  0.21699989861E+02  0.19888483331E+03  0.00000000000E+00 0.  1.
<mgrwt>
<rscale>  0 0.19574764E+04</rscale>
<asrwt>0</asrwt>
<pdfrwt beam="1">  1        2 0.30197479E+00 0.19574764E+04</pdfrwt>
<pdfrwt beam="2">  1       -1 0.75081976E-01 0.19574764E+04</pdfrwt>
<totfact> 0.13267288E+01</totfact>
</mgrwt>
</event>
<event>
12    6  0.1540825E-007  0.1533938E+04  0.7818608E-02  0.8862193E-01
          2   -1    0    0  501    0  0.00000000000E+00  0.00000000000E+00  0.22151104498E+04  0.22151104498E+04  0.00000000000E+00 0. -1.
         -1   -1    0    0    0  501 -0.00000000000E+00 -0.00000000000E+00 -0.26555837912E+03  0.26555837912E+03  0.00000000000E+00 0.  1.
         24    2    1    2    0    0 -0.42148610166E+02  0.85023001527E+02 -0.14316582583E+03  0.19203604815E+03  0.85883490710E+02 0.  0.
        254    2    1    2    0    0  0.42148610166E+02 -0.85023001527E+02  0.20927178965E+04  0.22886327807E+04  0.92161076093E+03 0.  0.
         23    2    4    4    0    0 -0.41366186751E+02 -0.48565888838E+03  0.95754630639E+03  0.10785248855E+04  0.93516215284E+02 0.  0.
         23    2    4    4    0    0  0.83514796917E+02  0.40063588685E+03  0.11351715901E+04  0.12101078952E+04  0.90899636882E+02 0.  0.
          4    1    3    3  502    0  0.13399249721E+02 -0.10131150309E+02 -0.11532714237E+02  0.20376054509E+02  0.00000000000E+00 0. -1.
         -3    1    3    3    0  502 -0.55547859887E+02  0.95154151836E+02 -0.13163311159E+03  0.17165999364E+03  0.00000000000E+00 0.  1.
         11    1    5    5    0    0 -0.46660257155E+02 -0.38140346097E+03  0.82256715617E+03  0.90788903840E+03  0.00000000000E+00 0. -1.
        -11    1    5    5    0    0  0.52940704031E+01 -0.10425542741E+03  0.13497915022E+03  0.17063584711E+03  0.00000000000E+00 0.  1.
          4    1    6    6  503    0  0.87957066720E+02  0.28307276763E+03  0.72112656970E+03  0.77967311540E+03  0.00000000000E+00 0. -1.
         -4    1    6    6    0  503 -0.44422698028E+01  0.11756311922E+03  0.41404502039E+03  0.43043477981E+03  0.00000000000E+00 0.  1.
<mgrwt>
<rscale>  0 0.15339376E+04</rscale>
<asrwt>0</asrwt>
<pdfrwt beam="1">  1        2 0.34078621E+00 0.15339376E+04</pdfrwt>
<pdfrwt beam="2">  1       -1 0.40855137E-01 0.15339376E+04</pdfrwt>
<totfact> 0.32596765E+01</totfact>
</mgrwt>
</event>
<event>
12    6  0.1540825E-007  0.2397411E+04  0.7818608E-02  0.8440473E-01
         -1   -1    0    0    0  501 -0.00000000000E+00  0.00000000000E+00  0.50456554638E+03  0.50456554638E+03  0.00000000000E+00 0.  1.
          2   -1    0    0  501    0  0.00000000000E+00 -0.00000000000E+00 -0.28477861892E+04  0.28477861892E+04  0.00000000000E+00 0. -1.
         24    2    1    2    0    0  0.45462468057E+03 -0.86367627276E+03 -0.14493869559E+04  0.17492879071E+04  0.81641470067E+02 0.  0.
        254    2    1    2    0    0 -0.45462468057E+03  0.86367627276E+03 -0.89383368688E+03  0.16030638285E+04  0.90457430541E+03 0.  0.
         23    2    4    4    0    0  0.21019422170E+03  0.36199517827E+02 -0.35985241665E+02  0.23524805896E+03  0.92491597980E+02 0.  0.
         23    2    4    4    0    0 -0.66481890228E+03  0.82747675493E+03 -0.85784844522E+03  0.13678157695E+04  0.91181530919E+02 0.  0.
          2    1    3    3  502    0  0.39938779865E+03 -0.69648638108E+03 -0.11671847200E+04  0.14166594733E+04  0.00000000000E+00 0. -1.
         -1    1    3    3    0  502  0.55236881922E+02 -0.16718989167E+03 -0.28220223592E+03  0.33262843378E+03  0.00000000000E+00 0.  1.
         11    1    5    5    0    0  0.12146750593E+02  0.27154562520E+02 -0.21030934536E+02  0.36430948698E+02  0.00000000000E+00 0. -1.
        -11    1    5    5    0    0  0.19804747111E+03  0.90449553069E+01 -0.14954307129E+02  0.19881711026E+03  0.00000000000E+00 0.  1.
          3    1    6    6  503    0 -0.41433975166E+02  0.54243101436E+02 -0.28923084525E+02  0.74132537862E+02  0.00000000000E+00 0. -1.
         -3    1    6    6    0  503 -0.62338492711E+03  0.77323365349E+03 -0.82892536069E+03  0.12936832316E+04  0.00000000000E+00 0.  1.
<mgrwt>
<rscale>  0 0.23974109E+04</rscale>
<asrwt>0</asrwt>
<pdfrwt beam="1">  1        2 0.43812096E+00 0.23974109E+04</pdfrwt>
<pdfrwt beam="2">  1       -1 0.77625467E-01 0.23974109E+04</pdfrwt>
<totfact> 0.36804414E+00</totfact>
</mgrwt>
</event>
<event>
12    6  0.1540825E-007  0.1302388E+04  0.7818608E-02  0.9027674E-01
         -1   -1    0    0    0  501 -0.00000000000E+00  0.00000000000E+00  0.16903957003E+03  0.16903957003E+03  0.00000000000E+00 0.  1.
          2   -1    0    0  501    0  0.00000000000E+00 -0.00000000000E+00 -0.25086048826E+04  0.25086048826E+04  0.00000000000E+00 0. -1.
         24    2    1    2    0    0 -0.19498805228E+03  0.16727771126E+03 -0.17453197681E+03  0.32087104813E+03  0.80589362717E+02 0.  0.
        254    2    1    2    0    0  0.19498805228E+03 -0.16727771126E+03 -0.21650333358E+04  0.23567734045E+04  0.89499126364E+03 0.  0.
         23    2    4    4    0    0  0.20169038764E+03 -0.51194803060E+03 -0.15465061590E+04  0.16439272342E+04  0.89697564874E+02 0.  0.
         23    2    4    4    0    0 -0.67023353595E+01  0.34467031933E+03 -0.61852717680E+03  0.71284617030E+03  0.82044157267E+02 0.  0.
          4    1    3    3  502    0 -0.12337071973E+02  0.40872886721E+02 -0.51685805246E+02  0.67038934044E+02  0.00000000000E+00 0. -1.
         -3    1    3    3    0  502 -0.18265098031E+03  0.12640482454E+03 -0.12284617156E+03  0.25383211409E+03  0.00000000000E+00 0.  1.
         11    1    5    5    0    0  0.18219669518E+03 -0.43885116441E+03 -0.14092591138E+04  0.14872112258E+04  0.00000000000E+00 0. -1.
        -11    1    5    5    0    0  0.19493692461E+02 -0.73096866183E+02 -0.13724704516E+03  0.15671600843E+03  0.00000000000E+00 0.  1.
          4    1    6    6  503    0  0.56670654321E+01  0.14102962522E+03 -0.33524572163E+03  0.36374601674E+03  0.00000000000E+00 0.  1.
         -4    1    6    6    0  503 -0.12369400792E+02  0.20364069411E+03 -0.28328145517E+03  0.34910015356E+03  0.00000000000E+00 0. -1.
<mgrwt>
<rscale>  0 0.13023878E+04</rscale>
<asrwt>0</asrwt>
<pdfrwt beam="1">  1        2 0.38593921E+00 0.13023878E+04</pdfrwt>
<pdfrwt beam="2">  1       -1 0.26006088E-01 0.13023878E+04</pdfrwt>
<totfact> 0.50514124E+01</totfact>
</mgrwt>
</event>
<event>
12    6  0.1540825E-007  0.1499654E+04  0.7818608E-02  0.8884683E-01
         -1   -1    0    0    0  501 -0.00000000000E+00  0.00000000000E+00  0.31719963903E+03  0.31719963903E+03  0.00000000000E+00 0.  1.
          2   -1    0    0  501    0  0.00000000000E+00 -0.00000000000E+00 -0.17725127601E+04  0.17725127601E+04  0.00000000000E+00 0. -1.
         24    2    1    2    0    0 -0.10918400857E+02 -0.17379095159E+03 -0.10680050353E+04  0.10849426963E+04  0.78379796483E+02 0.  0.
        254    2    1    2    0    0  0.10918400857E+02  0.17379095159E+03 -0.38730808579E+03  0.10047697028E+04  0.91062181838E+03 0.  0.
         23    2    4    4    0    0 -0.69935160191E+02  0.15399768058E+02 -0.65803071049E+03  0.66763503846E+03  0.87201199218E+02 0.  0.
         23    2    4    4    0    0  0.80853561048E+02  0.15839118353E+03  0.27072262470E+03  0.33713466438E+03  0.93509235106E+02 0.  0.
          4    1    3    3  502    0 -0.44393818388E+02 -0.87555053370E+02 -0.52001753832E+03  0.52920217181E+03  0.00000000000E+00 0. -1.
         -3    1    3    3    0  502  0.33475417531E+02 -0.86235898216E+02 -0.54798749696E+03  0.55574052448E+03  0.00000000000E+00 0.  1.
         11    1    5    5    0    0 -0.45979911042E+02  0.37481832699E+00 -0.11476246814E+03  0.12363137467E+03  0.00000000000E+00 0. -1.
        -11    1    5    5    0    0 -0.23955249149E+02  0.15024949731E+02 -0.54326824235E+03  0.54400366379E+03  0.00000000000E+00 0.  1.
          1    1    6    6  503    0  0.39308300648E+02  0.59137994639E+02  0.37534825667E+02  0.80320035157E+02  0.00000000000E+00 0. -1.
         -1    1    6    6    0  503  0.41545260400E+02  0.99253188890E+02  0.23318779903E+03  0.25681462923E+03  0.00000000000E+00 0.  1.
<mgrwt>
<rscale>  0 0.14996538E+04</rscale>
<asrwt>0</asrwt>
<pdfrwt beam="1">  1        2 0.27269427E+00 0.14996538E+04</pdfrwt>
<pdfrwt beam="2">  1       -1 0.48799944E-01 0.14996538E+04</pdfrwt>
<totfact> 0.41354841E+01</totfact>
</mgrwt>
</event>
<event>
12    6  0.1540825E-007  0.1820528E+04  0.7818608E-02  0.8695458E-01
          2   -1    0    0  501    0  0.00000000000E+00  0.00000000000E+00  0.38775020347E+04  0.38775020347E+04  0.00000000000E+00 0. -1.
         -1   -1    0    0    0  501 -0.00000000000E+00 -0.00000000000E+00 -0.21368931560E+03  0.21368931560E+03  0.00000000000E+00 0.  1.
         24    2    1    2    0    0 -0.54722878795E+03  0.39781142243E+03  0.16604873949E+04  0.17947813664E+04  0.79426006026E+02 0.  0.
        254    2    1    2    0    0  0.54722878795E+03 -0.39781142243E+03  0.20033253242E+04  0.22964099839E+04  0.89580867671E+03 0.  0.
         23    2    4    4    0    0  0.22761468128E+03  0.22299205360E+03  0.27819368655E+03  0.43306197842E+03  0.92828071267E+02 0.  0.
         23    2    4    4    0    0  0.31961410667E+03 -0.62080347603E+03  0.17251316376E+04  0.18633480054E+04  0.91850362865E+02 0.  0.
          4    1    3    3  502    0 -0.46823560979E+03  0.30288863955E+03  0.13667084853E+04  0.14761023670E+04  0.00000000000E+00 0. -1.
         -3    1    3    3    0  502 -0.78993178162E+02  0.94922782883E+02  0.29377890960E+03  0.31867899936E+03  0.00000000000E+00 0.  1.
         11    1    5    5    0    0  0.22637334238E+03  0.19161896820E+03  0.26884959652E+03  0.40030341575E+03  0.00000000000E+00 0. -1.
        -11    1    5    5    0    0  0.12413388990E+01  0.31373085398E+02  0.93440900352E+01  0.32758562671E+02  0.00000000000E+00 0.  1.
          2    1    6    6  503    0  0.32349044242E+03 -0.61866469323E+03  0.17213140576E+04  0.18575021276E+04  0.00000000000E+00 0. -1.
         -2    1    6    6    0  503 -0.38763357578E+01 -0.21387828057E+01  0.38175800162E+01  0.58458778620E+01  0.00000000000E+00 0.  1.
<mgrwt>
<rscale>  0 0.18205282E+04</rscale>
<asrwt>0</asrwt>
<pdfrwt beam="1">  1        2 0.59653872E+00 0.18205282E+04</pdfrwt>
<pdfrwt beam="2">  1       -1 0.32875282E-01 0.18205282E+04</pdfrwt>
<totfact> 0.40361039E+00</totfact>
</mgrwt>
</event>
<event>
12    6  0.1540825E-007  0.2929400E+04  0.7818608E-02  0.8264184E-01
         -1   -1    0    0    0  501 -0.00000000000E+00  0.00000000000E+00  0.64309124258E+03  0.64309124258E+03  0.00000000000E+00 0.  1.
          2   -1    0    0  501    0  0.00000000000E+00 -0.00000000000E+00 -0.33359894780E+04  0.33359894780E+04  0.00000000000E+00 0. -1.
         24    2    1    2    0    0  0.81116989425E+03 -0.19676925719E+03 -0.26225807399E+04  0.27532344434E+04  0.75202561477E+02 0.  0.
        254    2    1    2    0    0 -0.81116989425E+03  0.19676925719E+03 -0.70317495498E+02  0.12258462771E+04  0.89500827207E+03 0.  0.
         23    2    4    4    0    0 -0.79558177555E+03  0.38817373549E+03 -0.27431840856E+03  0.93120604797E+03  0.90911517381E+02 0.  0.
         23    2    4    4    0    0 -0.15588118705E+02 -0.19140447830E+03  0.20400091307E+03  0.29464022916E+03  0.91202129091E+02 0.  0.
          2    1    3    3  502    0  0.59585879261E+03 -0.11748719190E+03 -0.19700536140E+04  0.20615436408E+04  0.00000000000E+00 0. -1.
         -1    1    3    3    0  502  0.21531110165E+03 -0.79282065288E+02 -0.65252712592E+03  0.69169080262E+03  0.00000000000E+00 0.  1.
         11    1    5    5    0    0 -0.70651192919E+03  0.36916711376E+03 -0.26309594735E+03  0.83944204176E+03  0.00000000000E+00 0. -1.
        -11    1    5    5    0    0 -0.89069846358E+02  0.19006621738E+02 -0.11222461218E+02  0.91764006211E+02  0.00000000000E+00 0.  1.
          2    1    6    6  503    0  0.31935571555E+02 -0.95028026860E+02  0.67233652514E+02  0.12070861879E+03  0.00000000000E+00 0. -1.
         -2    1    6    6    0  503 -0.47523690261E+02 -0.96376451442E+02  0.13676726055E+03  0.17393161038E+03  0.00000000000E+00 0.  1.
<mgrwt>
<rscale>  0 0.29293997E+04</rscale>
<asrwt>0</asrwt>
<pdfrwt beam="1">  1        2 0.51322916E+00 0.29293997E+04</pdfrwt>
<pdfrwt beam="2">  1       -1 0.98937113E-01 0.29293997E+04</pdfrwt>
<totfact> 0.10060950E+00</totfact>
</mgrwt>
</event>
<event>
12    6  0.1540825E-007  0.1076429E+04  0.7818608E-02  0.9228475E-01
         -1   -1    0    0    0  501 -0.00000000000E+00  0.00000000000E+00  0.41101559812E+03  0.41101559812E+03  0.00000000000E+00 0.  1.
          2   -1    0    0  501    0  0.00000000000E+00 -0.00000000000E+00 -0.70477848794E+03  0.70477848794E+03  0.00000000000E+00 0. -1.
         24    2    1    2    0    0 -0.79081222369E+02 -0.11669654210E+03 -0.12037132841E+03  0.20171197097E+03  0.79539549035E+02 0.  0.
        254    2    1    2    0    0  0.79081222369E+02  0.11669654210E+03 -0.17339156140E+03  0.91408211509E+03  0.88634618344E+03 0.  0.
         23    2    4    4    0    0  0.92008417189E+02 -0.86125746753E+02 -0.49722988417E+03  0.52097305304E+03  0.91061359506E+02 0.  0.
         23    2    4    4    0    0 -0.12927194821E+02  0.20282228885E+03  0.32383832276E+03  0.39310906205E+03  0.91430203757E+02 0.  0.
          2    1    3    3  502    0 -0.65964830219E+02 -0.92638012471E+02 -0.12994924445E+03  0.17268458620E+03  0.00000000000E+00 0. -1.
         -1    1    3    3    0  502 -0.13116392150E+02 -0.24058529625E+02  0.95779160357E+01  0.29027384765E+02  0.00000000000E+00 0.  1.
         11    1    5    5    0    0  0.76042236799E+02 -0.27704550961E+02 -0.17120126042E+03  0.18936693346E+03  0.00000000000E+00 0. -1.
        -11    1    5    5    0    0  0.15966180390E+02 -0.58421195791E+02 -0.32602862375E+03  0.33160611957E+03  0.00000000000E+00 0.  1.
          3    1    6    6  503    0 -0.35018028061E+02  0.65875206493E+02  0.17179291267E+03  0.18729284547E+03  0.00000000000E+00 0. -1.
         -3    1    6    6    0  503  0.22090833240E+02  0.13694708236E+03  0.15204541009E+03  0.20581621658E+03  0.00000000000E+00 0.  1.
<mgrwt>
<rscale>  0 0.10764292E+04</rscale>
<asrwt>0</asrwt>
<pdfrwt beam="1">  1        2 0.10842746E+00 0.10764292E+04</pdfrwt>
<pdfrwt beam="2">  1       -1 0.63233170E-01 0.10764292E+04</pdfrwt>
<totfact> 0.11701788E+02</totfact>
</mgrwt>
</event>
<event>
12    6  0.1540825E-007  0.2208832E+04  0.7818608E-02  0.8514761E-01
         -1   -1    0    0    0  501 -0.00000000000E+00  0.00000000000E+00  0.84819654443E+03  0.84819654443E+03  0.00000000000E+00 0.  1.
          2   -1    0    0  501    0  0.00000000000E+00 -0.00000000000E+00 -0.14380333860E+04  0.14380333860E+04  0.00000000000E+00 0. -1.
         24    2    1    2    0    0 -0.42362266023E+03  0.66770009443E+03  0.24524323254E+03  0.83202174858E+03  0.82682359916E+02 0.  0.
        254    2    1    2    0    0  0.42362266023E+03 -0.66770009443E+03 -0.83508007409E+03  0.14542081818E+04  0.88999052330E+03 0.  0.
         23    2    4    4    0    0  0.51105327265E+02  0.72702199448E+02  0.12824790486E+03  0.18011709644E+03  0.89984882341E+02 0.  0.
         23    2    4    4    0    0  0.37251733296E+03 -0.74040229388E+03 -0.96332797895E+03  0.12740910854E+04  0.91337717676E+02 0.  0.
          2    1    3    3  502    0 -0.13791847333E+03  0.15433690829E+03  0.77742953304E+02  0.22110032414E+03  0.00000000000E+00 0. -1.
         -1    1    3    3    0  502 -0.28570418689E+03  0.51336318614E+03  0.16750027924E+03  0.61092142444E+03  0.00000000000E+00 0.  1.
         11    1    5    5    0    0  0.75423318417E+02  0.58416124441E+02  0.81270951046E+02  0.12532393243E+03  0.00000000000E+00 0.  1.
        -11    1    5    5    0    0 -0.24317991152E+02  0.14286075008E+02  0.46976953814E+02  0.54793164012E+02  0.00000000000E+00 0. -1.
          2    1    6    6  503    0  0.68457112695E+02 -0.21510558947E+03 -0.29169353024E+03  0.36883859137E+03  0.00000000000E+00 0.  1.
         -2    1    6    6    0  503  0.30406022027E+03 -0.52529670441E+03 -0.67163444871E+03  0.90525249401E+03  0.00000000000E+00 0. -1.
<mgrwt>
<rscale>  0 0.22088322E+04</rscale>
<asrwt>0</asrwt>
<pdfrwt beam="1">  1        2 0.22123590E+00 0.22088322E+04</pdfrwt>
<pdfrwt beam="2">  1       -1 0.13049178E+00 0.22088322E+04</pdfrwt>
<totfact> 0.71956761E+00</totfact>
</mgrwt>
</event>
<event>
12    6  0.1540825E-007  0.1348788E+04  0.7818608E-02  0.8991746E-01
          2   -1    0    0  501    0  0.00000000000E+00  0.00000000000E+00  0.15272726089E+04  0.15272726089E+04  0.00000000000E+00 0. -1.
         -1   -1    0    0    0  501 -0.00000000000E+00 -0.00000000000E+00 -0.29779034644E+03  0.29779034644E+03  0.00000000000E+00 0.  1.
         24    2    1    2    0    0  0.45974507946E+02  0.22539446722E+03  0.77576577860E+03  0.81640450426E+03  0.10857002400E+03 0.  0.
        254    2    1    2    0    0 -0.45974507946E+02 -0.22539446722E+03  0.45371648391E+03  0.10086584511E+04  0.87098616636E+03 0.  0.
         23    2    4    4    0    0 -0.32119070833E+02 -0.28436723329E+03 -0.18997487281E+03  0.35563879111E+03  0.92152804431E+02 0.  0.
         23    2    4    4    0    0 -0.13855437113E+02  0.58972766075E+02  0.64369135672E+03  0.65301966000E+03  0.91795170668E+02 0.  0.
          4    1    3    3  502    0 -0.32028271192E+02  0.44767226621E+02  0.12587757917E+03  0.13738660660E+03  0.00000000000E+00 0. -1.
         -3    1    3    3    0  502  0.78002779138E+02  0.18062724060E+03  0.64988819943E+03  0.67901789767E+03  0.00000000000E+00 0.  1.
         11    1    5    5    0    0 -0.13578408322E+02 -0.12961831955E+03 -0.14160317205E+03  0.19244931870E+03  0.00000000000E+00 0. -1.
        -11    1    5    5    0    0 -0.18540662511E+02 -0.15474891374E+03 -0.48371700760E+02  0.16318947241E+03  0.00000000000E+00 0.  1.
          1    1    6    6  503    0 -0.40810310846E+02  0.29153928168E+02  0.53119959162E+03  0.53356202933E+03  0.00000000000E+00 0. -1.
         -1    1    6    6    0  503  0.26954873732E+02  0.29818837907E+02  0.11249176510E+03  0.11945763067E+03  0.00000000000E+00 0.  1.
<mgrwt>
<rscale>  0 0.13487877E+04</rscale>
<asrwt>0</asrwt>
<pdfrwt beam="1">  1        2 0.23496501E+00 0.13487877E+04</pdfrwt>
<pdfrwt beam="2">  1       -1 0.45813901E-01 0.13487877E+04</pdfrwt>
<totfact> 0.64568799E+01</totfact>
</mgrwt>
</event>
<event>
12    6  0.1540825E-007  0.2424678E+04  0.7818608E-02  0.8430322E-01
          2   -1    0    0  501    0  0.00000000000E+00  0.00000000000E+00  0.18003610142E+04  0.18003610142E+04  0.00000000000E+00 0. -1.
         -1   -1    0    0    0  501 -0.00000000000E+00 -0.00000000000E+00 -0.81637291035E+03  0.81637291035E+03  0.00000000000E+00 0.  1.
         24    2    1    2    0    0  0.10811429167E+03 -0.60860379994E+03  0.13308043491E+04  0.14695126924E+04  0.79624444731E+02 0.  0.
        254    2    1    2    0    0 -0.10811429167E+03  0.60860379994E+03 -0.34681624523E+03  0.11472212321E+04  0.90207968726E+03 0.  0.
         23    2    4    4    0    0  0.26773454383E+01  0.28783942159E+03 -0.62807393534E+03  0.69692981918E+03  0.91518325001E+02 0.  0.
         23    2    4    4    0    0 -0.11079163711E+03  0.32076437835E+03  0.28125769011E+03  0.45029141297E+03  0.92151478969E+02 0.  0.
          4    1    3    3  502    0  0.10932226739E+03 -0.60550791238E+03  0.12970365664E+04  0.14355817792E+04  0.00000000000E+00 0. -1.
         -3    1    3    3    0  502 -0.12079757134E+01 -0.30958875616E+01  0.33767782654E+02  0.33930913198E+02  0.00000000000E+00 0.  1.
         11    1    5    5    0    0  0.12325474109E+02  0.31830253721E+02 -0.15730880518E+03  0.16096938389E+03  0.00000000000E+00 0. -1.
        -11    1    5    5    0    0 -0.96481286709E+01  0.25600916787E+03 -0.47076513017E+03  0.53596043529E+03  0.00000000000E+00 0.  1.
          1    1    6    6  503    0 -0.92934280797E+02  0.24820919340E+03  0.16534901273E+03  0.31238578752E+03  0.00000000000E+00 0. -1.
         -1    1    6    6    0  503 -0.17857356313E+02  0.72555184950E+02  0.11590867738E+03  0.13790562545E+03  0.00000000000E+00 0.  1.
<mgrwt>
<rscale>  0 0.24246781E+04</rscale>
<asrwt>0</asrwt>
<pdfrwt beam="1">  1        2 0.27697862E+00 0.24246781E+04</pdfrwt>
<pdfrwt beam="2">  1       -1 0.12559583E+00 0.24246781E+04</pdfrwt>
<totfact> 0.48726085E+00</totfact>
</mgrwt>
</event>
<event>
12    6  0.1540825E-007  0.1667081E+04  0.7818608E-02  0.8780365E-01
         -1   -1    0    0    0  501 -0.00000000000E+00  0.00000000000E+00  0.23919080816E+03  0.23919080816E+03  0.00000000000E+00 0.  1.
          2   -1    0    0  501    0  0.00000000000E+00 -0.00000000000E+00 -0.29047499208E+04  0.29047499208E+04  0.00000000000E+00 0. -1.
         24    2    1    2    0    0 -0.35027828459E+03 -0.29251591254E+03 -0.16384366106E+04  0.17026339838E+04  0.78914639236E+02 0.  0.
        254    2    1    2    0    0  0.35027828459E+03  0.29251591254E+03 -0.10271225021E+04  0.14413067451E+04  0.90228823751E+03 0.  0.
         23    2    4    4    0    0  0.53389192861E+03 -0.28068003252E+01 -0.91801059019E+03  0.10655170774E+04  0.86802816425E+02 0.  0.
         23    2    4    4    0    0 -0.18361364402E+03  0.29532271286E+03 -0.10911191188E+03  0.37578966774E+03  0.91558670058E+02 0.  0.
          2    1    3    3  502    0 -0.32435541848E+03 -0.27104815266E+03 -0.14186197419E+04  0.14802552181E+04  0.00000000000E+00 0. -1.
         -1    1    3    3    0  502 -0.25922866116E+02 -0.21467759877E+02 -0.21981686870E+03  0.22237876577E+03  0.00000000000E+00 0.  1.
         11    1    5    5    0    0  0.81826316926E+01  0.34025954577E+01 -0.15998520699E+01  0.90051454131E+01  0.00000000000E+00 0. -1.
        -11    1    5    5    0    0  0.52570929692E+03 -0.62093957829E+01 -0.91641073812E+03  0.10565119320E+04  0.00000000000E+00 0.  1.
          4    1    6    6  503    0 -0.16270721766E+03  0.29219260976E+03 -0.11530954040E+03  0.35376044152E+03  0.00000000000E+00 0.  1.
         -4    1    6    6    0  503 -0.20906426363E+02  0.31301031017E+01  0.61976285160E+01  0.22029226221E+02  0.00000000000E+00 0. -1.
<mgrwt>
<rscale>  0 0.16670807E+04</rscale>
<asrwt>0</asrwt>
<pdfrwt beam="1">  1        2 0.44688460E+00 0.16670807E+04</pdfrwt>
<pdfrwt beam="2">  1       -1 0.36798586E-01 0.16670807E+04</pdfrwt>
<totfact> 0.15436500E+01</totfact>
</mgrwt>
</event>
<event>
12    6  0.1540825E-007  0.3732568E+04  0.7818608E-02  0.8060783E-01
          2   -1    0    0  501    0  0.00000000000E+00  0.00000000000E+00  0.25536402326E+04  0.25536402326E+04  0.00000000000E+00 0. -1.
         -1   -1    0    0    0  501 -0.00000000000E+00 -0.00000000000E+00 -0.13639412772E+04  0.13639412772E+04  0.00000000000E+00 0.  1.
         24    2    1    2    0    0  0.17299856260E+04  0.15776810513E+03  0.82426916765E+03  0.19244622962E+04  0.79965163337E+02 0.  0.
        254    2    1    2    0    0 -0.17299856260E+04 -0.15776810513E+03  0.36542978771E+03  0.19931192137E+04  0.90622526390E+03 0.  0.
         23    2    4    4    0    0 -0.18825864314E+03 -0.29202271870E+03 -0.10371828952E+03  0.37343027949E+03  0.89297844918E+02 0.  0.
         23    2    4    4    0    0 -0.15417269829E+04  0.13425461357E+03  0.46914807723E+03  0.16196889342E+04  0.91356084210E+02 0.  0.
          2    1    3    3  502    0  0.13549088988E+04  0.12178853322E+03  0.68142712675E+03  0.15214971245E+04  0.00000000000E+00 0. -1.
         -1    1    3    3    0  502  0.37507672721E+03  0.35979571904E+02  0.14284204090E+03  0.40296517161E+03  0.00000000000E+00 0.  1.
         11    1    5    5    0    0 -0.84549809494E+01 -0.29278509985E+02  0.14583550862E+02  0.33784579405E+02  0.00000000000E+00 0. -1.
        -11    1    5    5    0    0 -0.17980366219E+03 -0.26274420872E+03 -0.11830184038E+03  0.33964570009E+03  0.00000000000E+00 0.  1.
          3    1    6    6  503    0 -0.29264399459E+03  0.58378040918E+02  0.10598125261E+03  0.31667101089E+03  0.00000000000E+00 0. -1.
         -3    1    6    6    0  503 -0.12490829883E+04  0.75876572656E+02  0.36316682462E+03  0.13030179233E+04  0.00000000000E+00 0.  1.
<mgrwt>
<rscale>  0 0.37325677E+04</rscale>
<asrwt>0</asrwt>
<pdfrwt beam="1">  1        2 0.39286773E+00 0.37325677E+04</pdfrwt>
<pdfrwt beam="2">  1       -1 0.20983712E+00 0.37325677E+04</pdfrwt>
<totfact> 0.38251684E-01</totfact>
</mgrwt>
</event>
<event>
12    6  0.1540825E-007  0.2886419E+04  0.7818608E-02  0.8276930E-01
          2   -1    0    0  501    0  0.00000000000E+00  0.00000000000E+00  0.13793731029E+04  0.13793731029E+04  0.00000000000E+00 0. -1.
         -1   -1    0    0    0  501 -0.00000000000E+00 -0.00000000000E+00 -0.15100002455E+04  0.15100002455E+04  0.00000000000E+00 0.  1.
         24    2    1    2    0    0  0.90769825141E+03 -0.41906308903E+03  0.77723028736E+03  0.12687517918E+04  0.78193358361E+02 0.  0.
        254    2    1    2    0    0 -0.90769825141E+03  0.41906308903E+03 -0.90785742994E+03  0.16206215566E+04  0.89592361756E+03 0.  0.
         23    2    4    4    0    0 -0.10367228154E+04  0.45404218699E+03 -0.91572673704E+03  0.14591200803E+04  0.97608648294E+02 0.  0.
         23    2    4    4    0    0  0.12902456402E+03 -0.34979097964E+02  0.78693070953E+01  0.16150147632E+03  0.90276937513E+02 0.  0.
          2    1    3    3  502    0  0.64292618181E+03 -0.33522641682E+03  0.55864780941E+03  0.91532409602E+03  0.00000000000E+00 0. -1.
         -1    1    3    3    0  502  0.26477206961E+03 -0.83836672207E+02  0.21858247795E+03  0.35342769574E+03  0.00000000000E+00 0.  1.
         11    1    5    5    0    0 -0.99211543258E+03  0.41094937749E+03 -0.86103399300E+03  0.13764272445E+04  0.00000000000E+00 0. -1.
        -11    1    5    5    0    0 -0.44607382849E+02  0.43092809507E+02 -0.54692744040E+02  0.82692835763E+02  0.00000000000E+00 0.  1.
          1    1    6    6  503    0  0.12973797724E+03 -0.50760275712E+02 -0.74266389757E+01  0.13951237685E+03  0.00000000000E+00 0. -1.
         -1    1    6    6    0  503 -0.71341321926E+00  0.15781177748E+02  0.15295946071E+02  0.21989099475E+02  0.00000000000E+00 0.  1.
<mgrwt>
<rscale>  0 0.28864190E+04</rscale>
<asrwt>0</asrwt>
<pdfrwt beam="1">  1        2 0.21221125E+00 0.28864190E+04</pdfrwt>
<pdfrwt beam="2">  1       -1 0.23230773E+00 0.28864190E+04</pdfrwt>
<totfact> 0.13335349E+00</totfact>
</mgrwt>
</event>
<event>
12    6  0.1540825E-007  0.1916198E+04  0.7818608E-02  0.8646835E-01
          2   -1    0    0  501    0  0.00000000000E+00  0.00000000000E+00  0.19810786730E+04  0.19810786730E+04  0.00000000000E+00 0. -1.
         -1   -1    0    0    0  501 -0.00000000000E+00 -0.00000000000E+00 -0.46336042781E+03  0.46336042781E+03  0.00000000000E+00 0.  1.
         24    2    1    2    0    0  0.59533840240E+03  0.32254786947E+03  0.97619494906E+03  0.11907302319E+04  0.80105961330E+02 0.  0.
        254    2    1    2    0    0 -0.59533840240E+03 -0.32254786947E+03  0.54152329609E+03  0.12537088689E+04  0.90557909997E+03 0.  0.
         23    2    4    4    0    0 -0.59771520787E+03 -0.97906879644E+00 -0.14558282133E+02  0.60488862479E+03  0.91727185280E+02 0.  0.
         23    2    4    4    0    0  0.23768054740E+01 -0.32156880067E+03  0.55608157823E+03  0.64882024412E+03  0.91262504722E+02 0.  0.
          4    1    3    3  502    0  0.31181422990E+03  0.20867014390E+03  0.50443203288E+03  0.62866765363E+03  0.00000000000E+00 0. -1.
         -3    1    3    3    0  502  0.28352417250E+03  0.11387772556E+03  0.47176291618E+03  0.56206257823E+03  0.00000000000E+00 0.  1.
         11    1    5    5    0    0 -0.56839295237E+01 -0.98081999229E+01 -0.57841280132E+01  0.12726506882E+02  0.00000000000E+00 0.  1.
        -11    1    5    5    0    0 -0.59203127835E+03  0.88291311264E+01 -0.87741541196E+01  0.59216211790E+03  0.00000000000E+00 0. -1.
          3    1    6    6  503    0 -0.38391331482E+02 -0.23408449659E+03  0.41171662106E+03  0.47516315297E+03  0.00000000000E+00 0. -1.
         -3    1    6    6    0  503  0.40768136956E+02 -0.87484304079E+02  0.14436495716E+03  0.17365709115E+03  0.00000000000E+00 0.  1.
<mgrwt>
<rscale>  0 0.19161978E+04</rscale>
<asrwt>0</asrwt>
<pdfrwt beam="1">  1        2 0.30478133E+00 0.19161978E+04</pdfrwt>
<pdfrwt beam="2">  1       -1 0.71286221E-01 0.19161978E+04</pdfrwt>
<totfact> 0.14487348E+01</totfact>
</mgrwt>
</event>
<event>
12    6  0.1540825E-007  0.2472139E+04  0.7818608E-02  0.8412979E-01
          2   -1    0    0  501    0  0.00000000000E+00  0.00000000000E+00  0.31463592387E+04  0.31463592387E+04  0.00000000000E+00 0. -1.
         -1   -1    0    0    0  501 -0.00000000000E+00 -0.00000000000E+00 -0.48559854800E+03  0.48559854800E+03  0.00000000000E+00 0.  1.
         24    2    1    2    0    0  0.57715640548E+03  0.32105293068E+03 -0.79325345576E+02  0.66992599511E+03  0.79522498560E+02 0.  0.
        254    2    1    2    0    0 -0.57715640548E+03 -0.32105293068E+03  0.27400860363E+04  0.29620317916E+04  0.91070101984E+03 0.  0.
         23    2    4    4    0    0 -0.11469235830E+03 -0.23412259224E+03  0.22829357472E+04  0.22996234585E+04  0.92220929556E+02 0.  0.
         23    2    4    4    0    0 -0.46246404719E+03 -0.86930338446E+02  0.45715028914E+03  0.66240833315E+03  0.91479693257E+02 0.  0.
          4    1    3    3  502    0  0.23645412371E+03  0.11605739549E+03  0.50670116759E+01  0.26344932393E+03  0.00000000000E+00 0. -1.
         -3    1    3    3    0  502  0.34070228177E+03  0.20499553519E+03 -0.84392357252E+02  0.40647667118E+03  0.00000000000E+00 0.  1.
         11    1    5    5    0    0 -0.46852782597E+02 -0.18303141631E+02  0.42062333645E+03  0.42362032458E+03  0.00000000000E+00 0. -1.
        -11    1    5    5    0    0 -0.67839575703E+02 -0.21581945061E+03  0.18623124107E+04  0.18760031339E+04  0.00000000000E+00 0.  1.
          1    1    6    6  503    0 -0.12774737722E+03  0.15611047244E+02  0.13789302928E+03  0.18862021288E+03  0.00000000000E+00 0. -1.
         -1    1    6    6    0  503 -0.33471666997E+03 -0.10254138569E+03  0.31925725986E+03  0.47378812027E+03  0.00000000000E+00 0.  1.
<mgrwt>
<rscale>  0 0.24721387E+04</rscale>
<asrwt>0</asrwt>
<pdfrwt beam="1">  1        2 0.48405526E+00 0.24721387E+04</pdfrwt>
<pdfrwt beam="2">  1       -1 0.74707471E-01 0.24721387E+04</pdfrwt>
<totfact> 0.25762514E+00</totfact>
</mgrwt>
</event>
<event>
12    6  0.1540825E-007  0.2297530E+04  0.7818608E-02  0.8478896E-01
         -1   -1    0    0    0  501 -0.00000000000E+00  0.00000000000E+00  0.10340275215E+04  0.10340275215E+04  0.00000000000E+00 0.  1.
          2   -1    0    0  501    0  0.00000000000E+00 -0.00000000000E+00 -0.12762336766E+04  0.12762336766E+04  0.00000000000E+00 0. -1.
         24    2    1    2    0    0 -0.89148722207E+03 -0.27036638610E+01 -0.50954544441E+03  0.10300331187E+04  0.81085688148E+02 0.  0.
        254    2    1    2    0    0  0.89148722207E+03  0.27036638610E+01  0.26733928938E+03  0.12802280794E+04  0.87906590346E+03 0.  0.
         23    2    4    4    0    0  0.10504512854E+04 -0.14591619012E+02  0.29510610879E+03  0.10949923387E+04  0.90883376480E+02 0.  0.
         23    2    4    4    0    0 -0.15896406334E+03  0.17295282873E+02 -0.27766819412E+02  0.18523574061E+03  0.89289322398E+02 0.  0.
          2    1    3    3  502    0 -0.83282032992E+03  0.12081090863E+02 -0.45784744636E+03  0.95045249162E+03  0.00000000000E+00 0. -1.
         -1    1    3    3    0  502 -0.58666892144E+02 -0.14784754724E+02 -0.51697998057E+02  0.79580627097E+02  0.00000000000E+00 0.  1.
         11    1    5    5    0    0  0.50616254058E+03 -0.52449290310E+02  0.14239565998E+03  0.52842025843E+03  0.00000000000E+00 0. -1.
        -11    1    5    5    0    0  0.54428874482E+03  0.37857671298E+02  0.15271044881E+03  0.56657208031E+03  0.00000000000E+00 0.  1.
          3    1    6    6  503    0 -0.11588112339E+03  0.46872799627E+02  0.21482900812E+01  0.12502043534E+03  0.00000000000E+00 0. -1.
         -3    1    6    6    0  503 -0.43082939954E+02 -0.29577516753E+02 -0.29915109493E+02  0.60215305267E+02  0.00000000000E+00 0.  1.
<mgrwt>
<rscale>  0 0.22975298E+04</rscale>
<asrwt>0</asrwt>
<pdfrwt beam="1">  1        2 0.19634364E+00 0.22975298E+04</pdfrwt>
<pdfrwt beam="2">  1       -1 0.15908116E+00 0.22975298E+04</pdfrwt>
<totfact> 0.52392453E+00</totfact>
</mgrwt>
</event>
<event>
12    6  0.1784807E-007  0.2305688E+04  0.7818608E-02  0.8475682E-01
         -1   -1    0    0    0  501 -0.00000000000E+00  0.00000000000E+00  0.96012163083E+03  0.96012163083E+03  0.00000000000E+00 0.  1.
          2   -1    0    0  501    0  0.00000000000E+00 -0.00000000000E+00 -0.13842504962E+04  0.13842504962E+04  0.00000000000E+00 0. -1.
         24    2    1    2    0    0 -0.28299806379E+03  0.40234925733E+03 -0.10363456700E+04  0.11498794281E+04  0.78977987709E+02 0.  0.
        254    2    1    2    0    0  0.28299806379E+03 -0.40234925733E+03  0.61221680454E+03  0.11944926990E+04  0.90001697938E+03 0.  0.
         23    2    4    4    0    0  0.46357990110E+03 -0.22508394726E+03 -0.33549860929E+01  0.52243116309E+03  0.85755210989E+02 0.  0.
         23    2    4    4    0    0 -0.18058183732E+03 -0.17726531007E+03  0.61557179064E+03  0.67206153590E+03  0.93302135467E+02 0.  0.
          2    1    3    3  502    0 -0.23804444282E+03  0.34150568698E+03 -0.80161229957E+03  0.90325720026E+03  0.00000000000E+00 0. -1.
         -1    1    3    3    0  502 -0.44953620966E+02  0.60843570349E+02 -0.23473337039E+03  0.24662222784E+03  0.00000000000E+00 0.  1.
         11    1    5    5    0    0  0.43365618685E+03 -0.18636010596E+03  0.84874918008E+01  0.47208030567E+03  0.00000000000E+00 0. -1.
        -11    1    5    5    0    0  0.29923714253E+02 -0.38723841299E+02 -0.11842477894E+02  0.50350857413E+02  0.00000000000E+00 0.  1.
          2    1    6    6  503    0 -0.11145488690E+03 -0.11488098484E+03  0.49169196939E+03  0.51708879823E+03  0.00000000000E+00 0. -1.
         -2    1    6    6    0  503 -0.69126950418E+02 -0.62384325230E+02  0.12387982125E+03  0.15497273767E+03  0.00000000000E+00 0.  1.
<mgrwt>
<rscale>  0 0.23056876E+04</rscale>
<asrwt>0</asrwt>
<pdfrwt beam="1">  1        2 0.21296161E+00 0.23056876E+04</pdfrwt>
<pdfrwt beam="2">  1       -1 0.14771102E+00 0.23056876E+04</pdfrwt>
<totfact> 0.55478880E+00</totfact>
</mgrwt>
</event>
<event>
12    6  0.1540825E-007  0.1494565E+04  0.7818608E-02  0.8888075E-01
         -1   -1    0    0    0  501 -0.00000000000E+00  0.00000000000E+00  0.85863699941E+03  0.85863699941E+03  0.00000000000E+00 0.  1.
          2   -1    0    0  501    0  0.00000000000E+00 -0.00000000000E+00 -0.65036931105E+03  0.65036931105E+03  0.00000000000E+00 0. -1.
         24    2    1    2    0    0 -0.23246797287E+03 -0.38935400364E+03  0.18679510393E+03  0.49963573070E+03  0.95423026473E+02 0.  0.
        254    2    1    2    0    0  0.23246797287E+03  0.38935400364E+03  0.21472584423E+02  0.10093705798E+04  0.90151538913E+03 0.  0.
         23    2    4    4    0    0 -0.26398786847E+03  0.40439834011E+03 -0.62071071935E+02  0.49547042611E+03  0.91708849096E+02 0.  0.
         23    2    4    4    0    0  0.49645584134E+03 -0.15044336468E+02  0.83543656358E+02  0.51390015364E+03  0.10207394837E+03 0.  0.
          4    1    3    3  502    0 -0.20610872374E+03 -0.36068011184E+03  0.13916248333E+03  0.43810631797E+03  0.00000000000E+00 0. -1.
         -3    1    3    3    0  502 -0.26359249135E+02 -0.28673891795E+02  0.47632620602E+02  0.61529412731E+02  0.00000000000E+00 0.  1.
         11    1    5    5    0    0 -0.14568969298E+03  0.29824939758E+03 -0.54273758736E+02  0.33633886288E+03  0.00000000000E+00 0.  1.
        -11    1    5    5    0    0 -0.11829817549E+03  0.10614894253E+03 -0.77973131995E+01  0.15913156323E+03  0.00000000000E+00 0. -1.
          2    1    6    6  503    0  0.27719889029E+03  0.41020822116E+02  0.57938491195E+02  0.28614472105E+03  0.00000000000E+00 0. -1.
         -2    1    6    6    0  503  0.21925695105E+03 -0.56065158584E+02  0.25605165163E+02  0.22775543259E+03  0.00000000000E+00 0.  1.
<mgrwt>
<rscale>  0 0.14945650E+04</rscale>
<asrwt>0</asrwt>
<pdfrwt beam="1">  1        2 0.10005682E+00 0.14945650E+04</pdfrwt>
<pdfrwt beam="2">  1       -1 0.13209800E+00 0.14945650E+04</pdfrwt>
<totfact> 0.24165445E+01</totfact>
</mgrwt>
</event>
<event>
12    6  0.1540825E-007  0.1802719E+04  0.7818608E-02  0.8704855E-01
         -3   -1    0    0    0  501 -0.00000000000E+00  0.00000000000E+00  0.80565485608E+03  0.80565485608E+03  0.00000000000E+00 0.  1.
          2   -1    0    0  501    0  0.00000000000E+00 -0.00000000000E+00 -0.10084330623E+04  0.10084330623E+04  0.00000000000E+00 0. -1.
         24    2    1    2    0    0  0.11399853847E+03  0.45078166277E+03 -0.60645250961E+03  0.76825742501E+03  0.78962335401E+02 0.  0.
        254    2    1    2    0    0 -0.11399853847E+03 -0.45078166277E+03  0.40367430340E+03  0.10458304934E+04  0.84534531605E+03 0.  0.
         23    2    4    4    0    0 -0.88819937977E+02  0.23561953256E+03  0.86845986742E+02  0.28341786175E+03  0.96839627409E+02 0.  0.
         23    2    4    4    0    0 -0.25178600493E+02 -0.68640119533E+03  0.31682831665E+03  0.76241263162E+03  0.95458240859E+02 0.  0.
          4    1    3    3  502    0  0.94687953878E+02  0.40689270161E+03 -0.57565006146E+03  0.71126680824E+03  0.00000000000E+00 0. -1.
         -3    1    3    3    0  502  0.19310584592E+02  0.43888961156E+02 -0.30802448144E+02  0.56990616774E+02  0.00000000000E+00 0.  1.
         11    1    5    5    0    0 -0.18012572767E+02  0.81553157813E+02  0.76961579535E+02  0.11357136546E+03  0.00000000000E+00 0. -1.
        -11    1    5    5    0    0 -0.70807365210E+02  0.15406637475E+03  0.98844072065E+01  0.16984649629E+03  0.00000000000E+00 0.  1.
          1    1    6    6  503    0 -0.32020515123E+02 -0.10116674426E+03  0.27972555196E+02  0.10973826761E+03  0.00000000000E+00 0. -1.
         -1    1    6    6    0  503  0.68419146298E+01 -0.58523445106E+03  0.28885576146E+03  0.65267436401E+03  0.00000000000E+00 0.  1.
<mgrwt>
<rscale>  0 0.18027191E+04</rscale>
<asrwt>0</asrwt>
<pdfrwt beam="1">  1        2 0.15514355E+00 0.18027191E+04</pdfrwt>
<pdfrwt beam="2">  1       -3 0.12394690E+00 0.18027191E+04</pdfrwt>
<totfact> 0.77585247E+00</totfact>
</mgrwt>
</event>
<event>
12    6  0.1540825E-007  0.1191710E+04  0.7818608E-02  0.9120144E-01
         -1   -1    0    0    0  501 -0.00000000000E+00  0.00000000000E+00  0.16884401056E+04  0.16884401056E+04  0.00000000000E+00 0.  1.
          2   -1    0    0  501    0  0.00000000000E+00 -0.00000000000E+00 -0.21027878877E+03  0.21027878877E+03  0.00000000000E+00 0. -1.
         24    2    1    2    0    0  0.21907056789E+03 -0.27546580243E+02  0.51501855646E+03  0.56578062614E+03  0.78184880953E+02 0.  0.
        254    2    1    2    0    0 -0.21907056789E+03  0.27546580243E+02  0.96314276034E+03  0.13329382682E+04  0.89461149236E+03 0.  0.
         23    2    4    4    0    0  0.64162864546E+02  0.40687370371E+03  0.32183840559E+03  0.53067082706E+03  0.91479415280E+02 0.  0.
         23    2    4    4    0    0 -0.28323343244E+03 -0.37932712347E+03  0.64130435476E+03  0.80226744115E+03  0.90837920799E+02 0.  0.
          4    1    3    3  502    0  0.97042955320E+01  0.17067438947E+02  0.33634222423E+02  0.38945240300E+02  0.00000000000E+00 0. -1.
         -3    1    3    3    0  502  0.20936627236E+03 -0.44614019190E+02  0.48138433404E+03  0.52683538584E+03  0.00000000000E+00 0.  1.
         11    1    5    5    0    0  0.21246364765E+02  0.34670700442E+03  0.27647665366E+03  0.44395551010E+03  0.00000000000E+00 0. -1.
        -11    1    5    5    0    0  0.42916499781E+02  0.60166699296E+02  0.45361751931E+02  0.86715316962E+02  0.00000000000E+00 0.  1.
          4    1    6    6  503    0 -0.12434926721E+03 -0.95726795403E+02  0.21346539591E+03  0.26494119134E+03  0.00000000000E+00 0.  1.
         -4    1    6    6    0  503 -0.15888416523E+03 -0.28360032807E+03  0.42783895884E+03  0.53732624982E+03  0.00000000000E+00 0. -1.
<mgrwt>
<rscale>  0 0.11917099E+04</rscale>
<asrwt>0</asrwt>
<pdfrwt beam="1">  1        2 0.32350584E-01 0.11917099E+04</pdfrwt>
<pdfrwt beam="2">  1       -1 0.25976001E+00 0.11917099E+04</pdfrwt>
<totfact> 0.11188176E+01</totfact>
</mgrwt>
</event>
<event>
12    6  0.1540825E-007  0.1508901E+04  0.7818608E-02  0.8878555E-01
          2   -1    0    0  501    0  0.00000000000E+00  0.00000000000E+00  0.11081045642E+04  0.11081045642E+04  0.00000000000E+00 0. -1.
         -1   -1    0    0    0  501 -0.00000000000E+00 -0.00000000000E+00 -0.51366598961E+03  0.51366598961E+03  0.00000000000E+00 0.  1.
         24    2    1    2    0    0  0.42790072580E+03 -0.12087986390E+03 -0.16097979762E+02  0.45206063139E+03  0.79929324177E+02 0.  0.
        254    2    1    2    0    0 -0.42790072580E+03  0.12087986390E+03  0.61053655439E+03  0.11697099225E+04  0.89317156572E+03 0.  0.
         23    2    4    4    0    0 -0.26786033469E+03 -0.17144731557E+03  0.73226092997E+03  0.80370202613E+03  0.92668960951E+02 0.  0.
         23    2    4    4    0    0 -0.16004039112E+03  0.29232717947E+03 -0.12172437559E+03  0.36600789632E+03  0.89871296360E+02 0.  0.
          4    1    3    3  502    0  0.18488136684E+03 -0.56423240029E+02  0.32421668603E+02  0.19599965922E+03  0.00000000000E+00 0. -1.
         -3    1    3    3    0  502  0.24301935896E+03 -0.64456623871E+02 -0.48519648365E+02  0.25606097217E+03  0.00000000000E+00 0.  1.
         11    1    5    5    0    0 -0.23429718065E+03 -0.11165451160E+03  0.53005777899E+03  0.59018907808E+03  0.00000000000E+00 0.  1.
        -11    1    5    5    0    0 -0.33563154038E+02 -0.59792803970E+02  0.20220315099E+03  0.21351294805E+03  0.00000000000E+00 0. -1.
          1    1    6    6  503    0 -0.15156837880E+03  0.19617395945E+03 -0.76715211430E+02  0.25950418009E+03  0.00000000000E+00 0. -1.
         -1    1    6    6    0  503 -0.84720123186E+01  0.96153220019E+02 -0.45009164159E+02  0.10650371623E+03  0.00000000000E+00 0.  1.
<mgrwt>
<rscale>  0 0.15089011E+04</rscale>
<asrwt>0</asrwt>
<pdfrwt beam="1">  1        2 0.17047762E+00 0.15089011E+04</pdfrwt>
<pdfrwt beam="2">  1       -1 0.79025537E-01 0.15089011E+04</pdfrwt>
<totfact> 0.37980997E+01</totfact>
</mgrwt>
</event>
<event>
12    6  0.1540825E-007  0.2189432E+04  0.7818608E-02  0.8522840E-01
          2   -1    0    0  501    0  0.00000000000E+00  0.00000000000E+00  0.91287616220E+03  0.91287616220E+03  0.00000000000E+00 0. -1.
         -1   -1    0    0    0  501 -0.00000000000E+00 -0.00000000000E+00 -0.13127775092E+04  0.13127775092E+04  0.00000000000E+00 0.  1.
         24    2    1    2    0    0  0.70545140852E+03  0.31098231028E+03  0.33074246287E+03  0.84286746408E+03  0.81629027765E+02 0.  0.
        254    2    1    2    0    0 -0.70545140852E+03 -0.31098231028E+03 -0.73064380983E+03  0.13827862073E+04  0.88537315926E+03 0.  0.
         23    2    4    4    0    0  0.18860138962E+03 -0.60579389872E+02 -0.40374408350E+02  0.22224763943E+03  0.92323202601E+02 0.  0.
         23    2    4    4    0    0 -0.89405279814E+03 -0.25040292041E+03 -0.69026940148E+03  0.11605385679E+04  0.91355856153E+02 0.  0.
          2    1    3    3  502    0  0.11293178978E+03  0.55242519306E+02  0.87602649324E+02  0.15323037966E+03  0.00000000000E+00 0. -1.
         -1    1    3    3    0  502  0.59251961874E+03  0.25573979097E+03  0.24313981354E+03  0.68963708442E+03  0.00000000000E+00 0.  1.
         11    1    5    5    0    0  0.10276769144E+02 -0.33660262330E+02 -0.20705882887E+02  0.40833305404E+02  0.00000000000E+00 0. -1.
        -11    1    5    5    0    0  0.17832462048E+03 -0.26919127542E+02 -0.19668525464E+02  0.18141433403E+03  0.00000000000E+00 0.  1.
          3    1    6    6  503    0 -0.15982884769E+03 -0.81885170655E+02 -0.12857102449E+03  0.22086409864E+03  0.00000000000E+00 0. -1.
         -3    1    6    6    0  503 -0.73422395045E+03 -0.16851774975E+03 -0.56169837700E+03  0.93967446922E+03  0.00000000000E+00 0.  1.
<mgrwt>
<rscale>  0 0.21894322E+04</rscale>
<asrwt>0</asrwt>
<pdfrwt beam="1">  1        2 0.14044249E+00 0.21894322E+04</pdfrwt>
<pdfrwt beam="2">  1       -1 0.20196577E+00 0.21894322E+04</pdfrwt>
<totfact> 0.43749685E+00</totfact>
</mgrwt>
</event>
<event>
12    6  0.1540825E-007  0.1214975E+04  0.7818608E-02  0.9099849E-01
         -1   -1    0    0    0  501 -0.00000000000E+00  0.00000000000E+00  0.34169370480E+03  0.34169370480E+03  0.00000000000E+00 0.  1.
          2   -1    0    0  501    0  0.00000000000E+00 -0.00000000000E+00 -0.10800339336E+04  0.10800339336E+04  0.00000000000E+00 0. -1.
         24    2    1    2    0    0  0.38276228394E+02  0.24670527195E+03 -0.15412003146E+03  0.30380119621E+03  0.78826530114E+02 0.  0.
        254    2    1    2    0    0 -0.38276228394E+02 -0.24670527195E+03 -0.58422019734E+03  0.11179264422E+04  0.91984657977E+03 0.  0.
         23    2    4    4    0    0  0.60656782774E+02  0.98974926543E+02  0.20038434492E+03  0.25014491174E+03  0.94569074225E+02 0.  0.
         23    2    4    4    0    0 -0.98933011169E+02 -0.34568019849E+03 -0.78460454226E+03  0.86778153046E+03  0.90321406839E+02 0.  0.
          4    1    3    3  502    0  0.13841505871E+02  0.74273062118E+02 -0.91661227702E+02  0.11878491363E+03  0.00000000000E+00 0. -1.
         -3    1    3    3    0  502  0.24434722523E+02  0.17243220983E+03 -0.62458803759E+02  0.18501628258E+03  0.00000000000E+00 0.  1.
         11    1    5    5    0    0  0.10149805948E+02 -0.18616703967E+02  0.21527190908E+02  0.30216223718E+02  0.00000000000E+00 0.  1.
        -11    1    5    5    0    0  0.50506976826E+02  0.11759163051E+03  0.17885715402E+03  0.21992868803E+03  0.00000000000E+00 0. -1.
          1    1    6    6  503    0 -0.10886791680E+03 -0.28363187223E+03 -0.69328782745E+03  0.75693280675E+03  0.00000000000E+00 0. -1.
         -1    1    6    6    0  503  0.99349056291E+01 -0.62048326267E+02 -0.91316714816E+02  0.11084872371E+03  0.00000000000E+00 0.  1.
<mgrwt>
<rscale>  0 0.12149746E+04</rscale>
<asrwt>0</asrwt>
<pdfrwt beam="1">  1        2 0.16615906E+00 0.12149746E+04</pdfrwt>
<pdfrwt beam="2">  1       -1 0.52568263E-01 0.12149746E+04</pdfrwt>
<totfact> 0.91874087E+01</totfact>
</mgrwt>
</event>
<event>
12    6  0.1540825E-007  0.1292891E+04  0.7818608E-02  0.9035221E-01
         -1   -1    0    0    0  501 -0.00000000000E+00  0.00000000000E+00  0.83147163645E+03  0.83147163645E+03  0.00000000000E+00 0.  1.
          2   -1    0    0  501    0  0.00000000000E+00 -0.00000000000E+00 -0.50259326595E+03  0.50259326595E+03  0.00000000000E+00 0. -1.
         24    2    1    2    0    0 -0.14342017222E+01  0.15169812081E+03  0.38739341083E+03  0.42360110156E+03  0.79686019453E+02 0.  0.
        254    2    1    2    0    0  0.14342017222E+01 -0.15169812081E+03 -0.58515040326E+02  0.91046380085E+03  0.89582696204E+03 0.  0.
         23    2    4    4    0    0  0.53057296614E+02 -0.36524852564E+03  0.29732044128E+03  0.48248475050E+03  0.90390969982E+02 0.  0.
         23    2    4    4    0    0 -0.51623094892E+02  0.21355040482E+03 -0.35583548161E+03  0.42797905035E+03  0.90986033196E+02 0.  0.
          4    1    3    3  502    0  0.32175744303E+02  0.81611396924E+02  0.14957419872E+03  0.17340167113E+03  0.00000000000E+00 0. -1.
         -3    1    3    3    0  502 -0.33609946025E+02  0.70086723890E+02  0.23781921211E+03  0.25019943042E+03  0.00000000000E+00 0.  1.
         11    1    5    5    0    0  0.77202946379E+02 -0.23154653715E+03  0.18736189760E+03  0.30769883729E+03  0.00000000000E+00 0.  1.
        -11    1    5    5    0    0 -0.24145649765E+02 -0.13370198848E+03  0.10995854369E+03  0.17478591321E+03  0.00000000000E+00 0. -1.
          1    1    6    6  503    0 -0.34267998567E+02  0.21699250450E+03 -0.33549831610E+03  0.40102264629E+03  0.00000000000E+00 0. -1.
         -1    1    6    6    0  503 -0.17355096325E+02 -0.34420996721E+01 -0.20337165510E+02  0.26956404055E+02  0.00000000000E+00 0.  1.
<mgrwt>
<rscale>  0 0.12928914E+04</rscale>
<asrwt>0</asrwt>
<pdfrwt beam="1">  1        2 0.77322041E-01 0.12928914E+04</pdfrwt>
<pdfrwt beam="2">  1       -1 0.12791871E+00 0.12928914E+04</pdfrwt>
<totfact> 0.36267704E+01</totfact>
</mgrwt>
</event>
<event>
12    6  0.1540825E-007  0.1279692E+04  0.7818608E-02  0.9045826E-01
         -1   -1    0    0    0  501 -0.00000000000E+00  0.00000000000E+00  0.21416880852E+03  0.21416880852E+03  0.00000000000E+00 0.  1.
          2   -1    0    0  501    0  0.00000000000E+00 -0.00000000000E+00 -0.19115898283E+04  0.19115898283E+04  0.00000000000E+00 0. -1.
         24    2    1    2    0    0 -0.29378624458E+03 -0.51253539562E+02 -0.25067271163E+03  0.39445749748E+03  0.61827389864E+02 0.  0.
        254    2    1    2    0    0  0.29378624458E+03  0.51253539562E+02 -0.14467483082E+04  0.17313011394E+04  0.90298709025E+03 0.  0.
         23    2    4    4    0    0 -0.22968848427E+03 -0.23744533086E+03 -0.45051654036E+03  0.56601123024E+03  0.90920155460E+02 0.  0.
         23    2    4    4    0    0  0.52347472885E+03  0.28869887042E+03 -0.99623176782E+03  0.11652899091E+04  0.89721834493E+02 0.  0.
          4    1    3    3  502    0 -0.17949288402E+03 -0.57402128697E+02 -0.17555717341E+03  0.25755197714E+03  0.00000000000E+00 0. -1.
         -3    1    3    3    0  502 -0.11429336056E+03  0.61485891347E+01 -0.75115538216E+02  0.13690552034E+03  0.00000000000E+00 0.  1.
         11    1    5    5    0    0 -0.67909468741E+01 -0.20046774566E+01  0.36722008886E+01  0.79762616882E+01  0.00000000000E+00 0.  1.
        -11    1    5    5    0    0 -0.22289753740E+03 -0.23544065340E+03 -0.45418874124E+03  0.55803496855E+03  0.00000000000E+00 0. -1.
          4    1    6    6  503    0  0.30119960591E+03  0.15206636625E+03 -0.47806768839E+03  0.58514450953E+03  0.00000000000E+00 0. -1.
         -4    1    6    6    0  503  0.22227512294E+03  0.13663250417E+03 -0.51816407943E+03  0.58014539961E+03  0.00000000000E+00 0.  1.
<mgrwt>
<rscale>  0 0.12796920E+04</rscale>
<asrwt>0</asrwt>
<pdfrwt beam="1">  1        2 0.29409074E+00 0.12796920E+04</pdfrwt>
<pdfrwt beam="2">  1       -1 0.32949048E-01 0.12796920E+04</pdfrwt>
<totfact> 0.72354276E+01</totfact>
</mgrwt>
</event>
<event>
12    6  0.1540825E-007  0.1347629E+04  0.7818608E-02  0.8992625E-01
          2   -1    0    0  501    0  0.00000000000E+00  0.00000000000E+00  0.32988377070E+03  0.32988377070E+03  0.00000000000E+00 0. -1.
         -1   -1    0    0    0  501 -0.00000000000E+00 -0.00000000000E+00 -0.13763204650E+04  0.13763204650E+04  0.00000000000E+00 0.  1.
         24    2    1    2    0    0 -0.11639192639E+03  0.30225093018E+03 -0.59643843526E+02  0.33880593440E+03  0.79557323934E+02 0.  0.
        254    2    1    2    0    0  0.11639192639E+03 -0.30225093018E+03 -0.98679285075E+03  0.13673983013E+04  0.88944661377E+03 0.  0.
         23    2    4    4    0    0  0.49055208072E+03 -0.93569229796E+02 -0.51523076328E+03  0.72278803941E+03  0.86967038664E+02 0.  0.
         23    2    4    4    0    0 -0.37416015433E+03 -0.20868170038E+03 -0.47156208746E+03  0.64461026188E+03  0.98018948295E+02 0.  0.
          4    1    3    3  502    0 -0.11977277182E+03  0.30591625087E+03 -0.58659085037E+02  0.33372317521E+03  0.00000000000E+00 0. -1.
         -3    1    3    3    0  502  0.33808454293E+01 -0.36653206977E+01 -0.98475848942E+00  0.50827591834E+01  0.00000000000E+00 0.  1.
         11    1    5    5    0    0  0.33818746687E+03 -0.10446326103E+03 -0.35040173921E+03  0.49806095460E+03  0.00000000000E+00 0. -1.
        -11    1    5    5    0    0  0.15236461384E+03  0.10894031236E+02 -0.16482902408E+03  0.22472708481E+03  0.00000000000E+00 0.  1.
          1    1    6    6  503    0 -0.33456128560E+03 -0.21145934970E+03 -0.39962141834E+03  0.56244429803E+03  0.00000000000E+00 0. -1.
         -1    1    6    6    0  503 -0.39598868732E+02  0.27776493154E+01 -0.71940669127E+02  0.82165963847E+02  0.00000000000E+00 0.  1.
<mgrwt>
<rscale>  0 0.13476287E+04</rscale>
<asrwt>0</asrwt>
<pdfrwt beam="1">  1        2 0.50751350E-01 0.13476287E+04</pdfrwt>
<pdfrwt beam="2">  1       -1 0.21174161E+00 0.13476287E+04</pdfrwt>
<totfact> 0.13821384E+01</totfact>
</mgrwt>
</event>
<event>
12    6  0.1540825E-007  0.1676213E+04  0.7818608E-02  0.8775049E-01
         -1   -1    0    0    0  501 -0.00000000000E+00  0.00000000000E+00  0.36105821094E+03  0.36105821094E+03  0.00000000000E+00 0.  1.
          2   -1    0    0  501    0  0.00000000000E+00 -0.00000000000E+00 -0.19454546504E+04  0.19454546504E+04  0.00000000000E+00 0. -1.
         24    2    1    2    0    0 -0.55193940536E+03 -0.63147452386E+01 -0.25381772853E+03  0.61340148810E+03  0.84622473897E+02 0.  0.
        254    2    1    2    0    0  0.55193940536E+03  0.63147452386E+01 -0.13305787109E+04  0.16931113732E+04  0.88966815894E+03 0.  0.
         23    2    4    4    0    0  0.44599298835E+03  0.41321877583E+03 -0.73154986723E+03  0.95557954930E+03  0.91145841630E+02 0.  0.
         23    2    4    4    0    0  0.10594641701E+03 -0.40690403059E+03 -0.59902884366E+03  0.73753182391E+03  0.91225557569E+02 0.  0.
          2    1    3    3  502    0 -0.57030366471E+02 -0.23703102628E+02 -0.14730641137E+02  0.63492452798E+02  0.00000000000E+00 0. -1.
         -1    1    3    3    0  502 -0.49490903889E+03  0.17388357389E+02 -0.23908708739E+03  0.54990903530E+03  0.00000000000E+00 0.  1.
         11    1    5    5    0    0  0.93176289436E+02  0.13395502784E+03 -0.16464483421E+03  0.23180528861E+03  0.00000000000E+00 0. -1.
        -11    1    5    5    0    0  0.35281669891E+03  0.27926374799E+03 -0.56690503302E+03  0.72377426069E+03  0.00000000000E+00 0.  1.
          4    1    6    6  503    0  0.30463108039E+02 -0.24042763348E+03 -0.28434519482E+03  0.37361161346E+03  0.00000000000E+00 0.  1.
         -4    1    6    6    0  503  0.75483308967E+02 -0.16647639711E+03 -0.31468364884E+03  0.36392021045E+03  0.00000000000E+00 0. -1.
<mgrwt>
<rscale>  0 0.16762128E+04</rscale>
<asrwt>0</asrwt>
<pdfrwt beam="1">  1        2 0.29930071E+00 0.16762128E+04</pdfrwt>
<pdfrwt beam="2">  1       -1 0.55547418E-01 0.16762128E+04</pdfrwt>
<totfact> 0.25497691E+01</totfact>
</mgrwt>
</event>
<event>
12    6  0.1540825E-007  0.2951679E+04  0.7818608E-02  0.8257665E-01
          2   -1    0    0  501    0  0.00000000000E+00  0.00000000000E+00  0.29969974736E+04  0.29969974736E+04  0.00000000000E+00 0. -1.
         -1   -1    0    0    0  501 -0.00000000000E+00 -0.00000000000E+00 -0.72676168191E+03  0.72676168191E+03  0.00000000000E+00 0.  1.
         24    2    1    2    0    0  0.40268951903E+03  0.72071614577E+03 -0.28735477951E+03  0.87772189974E+03  0.78945249818E+02 0.  0.
        254    2    1    2    0    0 -0.40268951903E+03 -0.72071614577E+03  0.25575905712E+04  0.28460372558E+04  0.93651904402E+03 0.  0.
         23    2    4    4    0    0 -0.51555472062E+03 -0.67078804608E+03  0.11523562973E+04  0.14324315457E+04  0.90453438613E+02 0.  0.
         23    2    4    4    0    0  0.11286520158E+03 -0.49928099682E+02  0.14052342739E+04  0.14136057101E+04  0.91467863305E+02 0.  0.
          4    1    3    3  502    0  0.18670948002E+03  0.36313847965E+03 -0.10304975336E+03  0.42112852789E+03  0.00000000000E+00 0. -1.
         -3    1    3    3    0  502  0.21598003902E+03  0.35757766612E+03 -0.18430502615E+03  0.45659337186E+03  0.00000000000E+00 0.  1.
         11    1    5    5    0    0 -0.41572208488E+03 -0.59334983622E+03  0.98313096990E+03  0.12212433762E+04  0.00000000000E+00 0.  1.
        -11    1    5    5    0    0 -0.99832635738E+02 -0.77438209869E+02  0.16922532737E+03  0.21118816948E+03  0.00000000000E+00 0. -1.
          3    1    6    6  503    0  0.76432162427E+02 -0.26977808961E+02  0.43947207576E+03  0.44688408229E+03  0.00000000000E+00 0. -1.
         -3    1    6    6    0  503  0.36433039158E+02 -0.22950290721E+02  0.96576219817E+03  0.96672162777E+03  0.00000000000E+00 0.  1.
<mgrwt>
<rscale>  0 0.29516795E+04</rscale>
<asrwt>0</asrwt>
<pdfrwt beam="1">  1        2 0.46107653E+00 0.29516795E+04</pdfrwt>
<pdfrwt beam="2">  1       -1 0.11180949E+00 0.29516795E+04</pdfrwt>
<totfact> 0.12530243E+00</totfact>
</mgrwt>
</event>
<event>
12    6  0.1540825E-007  0.1364393E+04  0.7818608E-02  0.8980003E-01
         -1   -1    0    0    0  501 -0.00000000000E+00  0.00000000000E+00  0.12127459507E+03  0.12127459507E+03  0.00000000000E+00 0.  1.
          2   -1    0    0  501    0  0.00000000000E+00 -0.00000000000E+00 -0.38375088712E+04  0.38375088712E+04  0.00000000000E+00 0. -1.
         24    2    1    2    0    0  0.17246859316E+03  0.14055947443E+03 -0.15964706607E+03  0.28483240882E+03  0.78357730519E+02 0.  0.
        254    2    1    2    0    0 -0.17246859316E+03 -0.14055947443E+03 -0.35565872101E+04  0.36739510575E+04  0.89392472184E+03 0.  0.
         23    2    4    4    0    0 -0.50845036639E+02  0.30114302471E+03 -0.24803837878E+04  0.25007574080E+04  0.90617544818E+02 0.  0.
         23    2    4    4    0    0 -0.12162355652E+03 -0.44170249914E+03 -0.10762034222E+04  0.11731936495E+04  0.90973325518E+02 0.  0.
          2    1    3    3  502    0  0.62654052388E+02  0.20669391781E+02 -0.16012885785E+02  0.67890842890E+02  0.00000000000E+00 0. -1.
         -1    1    3    3    0  502  0.10981454077E+03  0.11989008265E+03 -0.14363418029E+03  0.21694156593E+03  0.00000000000E+00 0.  1.
         11    1    5    5    0    0  0.11372853142E+01  0.18724388097E+02 -0.48892546964E+02  0.52367712153E+02  0.00000000000E+00 0.  1.
        -11    1    5    5    0    0 -0.51982321953E+02  0.28241863662E+03 -0.24314912409E+04  0.24483896958E+04  0.00000000000E+00 0. -1.
          3    1    6    6  503    0 -0.13208141956E+03 -0.38429217549E+03 -0.89757585832E+03  0.98527579843E+03  0.00000000000E+00 0. -1.
         -3    1    6    6    0  503  0.10457863041E+02 -0.57410323653E+02 -0.17862756392E+03  0.18791785108E+03  0.00000000000E+00 0.  1.
<mgrwt>
<rscale>  0 0.13643934E+04</rscale>
<asrwt>0</asrwt>
<pdfrwt beam="1">  1        2 0.59038593E+00 0.13643934E+04</pdfrwt>
<pdfrwt beam="2">  1       -1 0.18657632E-01 0.13643934E+04</pdfrwt>
<totfact> 0.12043314E+01</totfact>
</mgrwt>
</event>
<event>
12    6  0.1540825E-007  0.1838701E+04  0.7818608E-02  0.8685985E-01
          2   -1    0    0  501    0  0.00000000000E+00  0.00000000000E+00  0.13317729208E+04  0.13317729208E+04  0.00000000000E+00 0. -1.
         -1   -1    0    0    0  501 -0.00000000000E+00 -0.00000000000E+00 -0.63464663877E+03  0.63464663877E+03  0.00000000000E+00 0.  1.
         24    2    1    2    0    0  0.42188083454E+03  0.15758742776E+03  0.84486463303E+03  0.96093628484E+03  0.82371472204E+02 0.  0.
        254    2    1    2    0    0 -0.42188083454E+03 -0.15758742776E+03 -0.14773835095E+03  0.10054832748E+04  0.88676533512E+03 0.  0.
         23    2    4    4    0    0 -0.59721960399E+03 -0.21701763258E+03 -0.33760701098E+03  0.72500320138E+03  0.88787611237E+02 0.  0.
         23    2    4    4    0    0  0.17533876945E+03  0.59430204813E+02  0.18986866003E+03  0.28048007340E+03  0.91341831589E+02 0.  0.
          2    1    3    3  502    0  0.38966120594E+03  0.16740168895E+03  0.78611859197E+03  0.89321980582E+03  0.00000000000E+00 0. -1.
         -1    1    3    3    0  502  0.32219628601E+02 -0.98142611854E+01  0.58746041060E+02  0.67716479014E+02  0.00000000000E+00 0.  1.
         11    1    5    5    0    0 -0.19659398537E+03 -0.11651895306E+03 -0.11678957431E+03  0.25664307155E+03  0.00000000000E+00 0. -1.
        -11    1    5    5    0    0 -0.40062561862E+03 -0.10049867952E+03 -0.22081743667E+03  0.46836012983E+03  0.00000000000E+00 0.  1.
          1    1    6    6  503    0  0.30409803076E+00  0.35923661524E+01  0.48570073594E+02  0.48703692048E+02  0.00000000000E+00 0. -1.
         -1    1    6    6    0  503  0.17503467142E+03  0.55837838661E+02  0.14129858643E+03  0.23177638135E+03  0.00000000000E+00 0.  1.
<mgrwt>
<rscale>  0 0.18387009E+04</rscale>
<asrwt>0</asrwt>
<pdfrwt beam="1">  1        2 0.20488814E+00 0.18387009E+04</pdfrwt>
<pdfrwt beam="2">  1       -1 0.97637945E-01 0.18387009E+04</pdfrwt>
<totfact> 0.17107028E+01</totfact>
</mgrwt>
</event>
<event>
12    6  0.1540825E-007  0.1271752E+04  0.7818608E-02  0.9052271E-01
         -1   -1    0    0    0  501 -0.00000000000E+00  0.00000000000E+00  0.18745905734E+04  0.18745905734E+04  0.00000000000E+00 0.  1.
          2   -1    0    0  501    0  0.00000000000E+00 -0.00000000000E+00 -0.21569432570E+03  0.21569432570E+03  0.00000000000E+00 0. -1.
         24    2    1    2    0    0 -0.50875646371E+02  0.14128273233E+03 -0.30012876829E+02  0.17170189761E+03  0.77663550134E+02 0.  0.
        254    2    1    2    0    0  0.50875646371E+02 -0.14128273233E+03  0.16889091245E+04  0.19185830015E+04  0.89777366905E+03 0.  0.
         23    2    4    4    0    0  0.13502675103E+02 -0.51304972835E+03  0.10643506809E+04  0.11851917348E+04  0.91840787439E+02 0.  0.
         23    2    4    4    0    0  0.37372971268E+02  0.37176699602E+03  0.62455844361E+03  0.73339126671E+03  0.90454752655E+02 0.  0.
          2    1    3    3  502    0 -0.64640640999E+02  0.90188345482E+02 -0.19138239065E+00  0.11096119482E+03  0.00000000000E+00 0. -1.
         -1    1    3    3    0  502  0.13764994629E+02  0.51094386848E+02 -0.29821494438E+02  0.60740702786E+02  0.00000000000E+00 0.  1.
         11    1    5    5    0    0  0.33300110253E+02 -0.46378930657E+03  0.90907524252E+03  0.10210911883E+04  0.00000000000E+00 0. -1.
        -11    1    5    5    0    0 -0.19797435150E+02 -0.49260421788E+02  0.15527543838E+03  0.16410054648E+03  0.00000000000E+00 0.  1.
          3    1    6    6  503    0 -0.12047736361E+01  0.28563064637E+03  0.51394738665E+03  0.58798659327E+03  0.00000000000E+00 0. -1.
         -3    1    6    6    0  503  0.38577744904E+02  0.86136349651E+02  0.11061105697E+03  0.14540467343E+03  0.00000000000E+00 0.  1.
<mgrwt>
<rscale>  0 0.12717524E+04</rscale>
<asrwt>0</asrwt>
<pdfrwt beam="1">  1        2 0.33183744E-01 0.12717524E+04</pdfrwt>
<pdfrwt beam="2">  1       -1 0.28839854E+00 0.12717524E+04</pdfrwt>
<totfact> 0.70566833E+00</totfact>
</mgrwt>
</event>
<event>
12    6  0.1540825E-007  0.1671807E+04  0.7818608E-02  0.8777609E-01
          2   -1    0    0  501    0  0.00000000000E+00  0.00000000000E+00  0.15565912090E+04  0.15565912090E+04  0.00000000000E+00 0. -1.
         -1   -1    0    0    0  501 -0.00000000000E+00 -0.00000000000E+00 -0.44888747249E+03  0.44888747249E+03  0.00000000000E+00 0.  1.
         24    2    1    2    0    0  0.14842843382E+03 -0.53614210965E+03  0.14685781701E+03  0.58062441369E+03  0.77962360454E+02 0.  0.
        254    2    1    2    0    0 -0.14842843382E+03  0.53614210965E+03  0.96084591952E+03  0.14248542678E+04  0.89303160178E+03 0.  0.
         23    2    4    4    0    0 -0.50599784598E+03  0.37684124568E+03  0.69590509831E+03  0.94353991506E+03  0.89109600437E+02 0.  0.
         23    2    4    4    0    0  0.35756941216E+03  0.15930086397E+03  0.26494082121E+03  0.48131435276E+03  0.90759118859E+02 0.  0.
          4    1    3    3  502    0  0.18327707308E+02 -0.18237933028E+02 -0.29234135875E+01  0.26020634183E+02  0.00000000000E+00 0. -1.
         -3    1    3    3    0  502  0.13010072651E+03 -0.51790417662E+03  0.14978123060E+03  0.55460377951E+03  0.00000000000E+00 0.  1.
         11    1    5    5    0    0 -0.47425598756E+02  0.47571910599E+02  0.11716747279E+03  0.13505736106E+03  0.00000000000E+00 0. -1.
        -11    1    5    5    0    0 -0.45857224722E+03  0.32926933508E+03  0.57873762552E+03  0.80848255401E+03  0.00000000000E+00 0.  1.
          4    1    6    6  503    0  0.11049675842E+03  0.93987257504E+02  0.78203983604E+02  0.16479988242E+03  0.00000000000E+00 0. -1.
         -4    1    6    6    0  503  0.24707265373E+03  0.65313606467E+02  0.18673683761E+03  0.31651447034E+03  0.00000000000E+00 0.  1.
<mgrwt>
<rscale>  0 0.16718066E+04</rscale>
<asrwt>0</asrwt>
<pdfrwt beam="1">  1        2 0.23947557E+00 0.16718066E+04</pdfrwt>
<pdfrwt beam="2">  1       -1 0.69059612E-01 0.16718066E+04</pdfrwt>
<totfact> 0.27186971E+01</totfact>
</mgrwt>
</event>
<event>
12    6  0.1540825E-007  0.1653846E+04  0.7818608E-02  0.8788135E-01
         -1   -1    0    0    0  501 -0.00000000000E+00  0.00000000000E+00  0.44212830641E+03  0.44212830641E+03  0.00000000000E+00 0.  1.
          2   -1    0    0  501    0  0.00000000000E+00 -0.00000000000E+00 -0.15466131981E+04  0.15466131981E+04  0.00000000000E+00 0. -1.
         24    2    1    2    0    0  0.54986321898E+03 -0.12710689167E+03 -0.58622224995E+03  0.81702218259E+03  0.73232499665E+02 0.  0.
        254    2    1    2    0    0 -0.54986321898E+03  0.12710689167E+03 -0.51826264170E+03  0.11717193219E+04  0.88646730452E+03 0.  0.
         23    2    4    4    0    0  0.23738463685E+01  0.17683307842E+03  0.18711818869E+03  0.26987871575E+03  0.80905697610E+02 0.  0.
         23    2    4    4    0    0 -0.55223706535E+03 -0.49726186754E+02 -0.70538083039E+03  0.90184060612E+03  0.91191518143E+02 0.  0.
          2    1    3    3  502    0  0.40465753715E+03 -0.84768965069E+02 -0.38209968213E+03  0.56296861981E+03  0.00000000000E+00 0. -1.
         -1    1    3    3    0  502  0.14520568183E+03 -0.42337926599E+02 -0.20412256783E+03  0.25405356278E+03  0.00000000000E+00 0.  1.
         11    1    5    5    0    0  0.91411324354E+00  0.17151181045E+03  0.19535600389E+03  0.25996366089E+03  0.00000000000E+00 0.  1.
        -11    1    5    5    0    0  0.14597331249E+01  0.53212679749E+01 -0.82378152008E+01  0.99150548632E+01  0.00000000000E+00 0. -1.
          3    1    6    6  503    0 -0.30008964241E+00  0.20986936584E+01 -0.20986384737E+02  0.21093195898E+02  0.00000000000E+00 0. -1.
         -3    1    6    6    0  503 -0.55193697571E+03 -0.51824880412E+02 -0.68439444565E+03  0.88074741023E+03  0.00000000000E+00 0.  1.
<mgrwt>
<rscale>  0 0.16538458E+04</rscale>
<asrwt>0</asrwt>
<pdfrwt beam="1">  1        2 0.23794049E+00 0.16538458E+04</pdfrwt>
<pdfrwt beam="2">  1       -1 0.68019739E-01 0.16538458E+04</pdfrwt>
<totfact> 0.28449088E+01</totfact>
</mgrwt>
</event>
<event>
12    6  0.1540825E-007  0.1348366E+04  0.7818608E-02  0.8992066E-01
         -1   -1    0    0    0  501 -0.00000000000E+00  0.00000000000E+00  0.19493908922E+03  0.19493908922E+03  0.00000000000E+00 0.  1.
          2   -1    0    0  501    0  0.00000000000E+00 -0.00000000000E+00 -0.23316125813E+04  0.23316125813E+04  0.00000000000E+00 0. -1.
         24    2    1    2    0    0  0.17484925492E+02 -0.21094453074E+02  0.88856373922E+02  0.12236964994E+03  0.79549842683E+02 0.  0.
        254    2    1    2    0    0 -0.17484925492E+02  0.21094453074E+02 -0.22255298660E+04  0.24041820206E+04  0.90904197101E+03 0.  0.
         23    2    4    4    0    0 -0.69340181446E+02 -0.10157527472E+03  0.18758247097E+02  0.15401801990E+03  0.90796924085E+02 0.  0.
         23    2    4    4    0    0  0.51855255954E+02  0.12266972780E+03 -0.22442881131E+04  0.22501640007E+04  0.93123926426E+02 0.  0.
          4    1    3    3  502    0  0.36247005862E+01 -0.27102023668E+02 -0.45763200515E+01  0.27723651391E+02  0.00000000000E+00 0. -1.
         -3    1    3    3    0  502  0.13860224906E+02  0.60075705940E+01  0.93432693974E+02  0.94645998553E+02  0.00000000000E+00 0.  1.
         11    1    5    5    0    0 -0.18513071316E+02 -0.53474689348E+02 -0.34323530852E+02  0.66184446666E+02  0.00000000000E+00 0. -1.
        -11    1    5    5    0    0 -0.50827110130E+02 -0.48100585374E+02  0.53081777949E+02  0.87833573237E+02  0.00000000000E+00 0.  1.
          1    1    6    6  503    0  0.53815224535E+02  0.20615550647E+02 -0.62030220617E+03  0.62297343949E+03  0.00000000000E+00 0. -1.
         -1    1    6    6    0  503 -0.19599685809E+01  0.10205417715E+03 -0.16239859069E+04  0.16271905612E+04  0.00000000000E+00 0.  1.
<mgrwt>
<rscale>  0 0.13483656E+04</rscale>
<asrwt>0</asrwt>
<pdfrwt beam="1">  1        2 0.35870967E+00 0.13483656E+04</pdfrwt>
<pdfrwt beam="2">  1       -1 0.29990626E-01 0.13483656E+04</pdfrwt>
<totfact> 0.49548422E+01</totfact>
</mgrwt>
</event>
<event>
12    6  0.1540825E-007  0.3259223E+04  0.7818608E-02  0.8173349E-01
          2   -1    0    0  501    0  0.00000000000E+00  0.00000000000E+00  0.30078595278E+04  0.30078595278E+04  0.00000000000E+00 0. -1.
         -1   -1    0    0    0  501 -0.00000000000E+00 -0.00000000000E+00 -0.88289796179E+03  0.88289796179E+03  0.00000000000E+00 0.  1.
         24    2    1    2    0    0 -0.95020186216E+03  0.10233206834E+04  0.31501485874E+03  0.14337679358E+04  0.79920788656E+02 0.  0.
        254    2    1    2    0    0  0.95020186216E+03 -0.10233206834E+04  0.18099467073E+04  0.24569895538E+04  0.90045643111E+03 0.  0.
         23    2    4    4    0    0  0.55210036952E+03 -0.57197104205E+03  0.34601372817E+03  0.87153562429E+03  0.88787123787E+02 0.  0.
         23    2    4    4    0    0  0.39810149263E+03 -0.45134964138E+03  0.14639329791E+04  0.15854539295E+04  0.91449975781E+02 0.  0.
          2    1    3    3  502    0 -0.15815226879E+03  0.20048912479E+03  0.34084800560E+02  0.25762337416E+03  0.00000000000E+00 0. -1.
         -1    1    3    3    0  502 -0.79204959337E+03  0.82283155865E+03  0.28093005818E+03  0.11761445616E+04  0.00000000000E+00 0.  1.
         11    1    5    5    0    0  0.32289023927E+02 -0.57098007283E+02  0.49131463037E+02  0.81955257074E+02  0.00000000000E+00 0.  1.
        -11    1    5    5    0    0  0.51981134560E+03 -0.51487303477E+03  0.29688226513E+03  0.78958036722E+03  0.00000000000E+00 0. -1.
          1    1    6    6  503    0  0.15317682658E+03 -0.19935838912E+03  0.50408792400E+03  0.56330412979E+03  0.00000000000E+00 0. -1.
         -1    1    6    6    0  503  0.24492466606E+03 -0.25199125226E+03  0.95984505512E+03  0.10221497997E+04  0.00000000000E+00 0.  1.
<mgrwt>
<rscale>  0 0.32592226E+04</rscale>
<asrwt>0</asrwt>
<pdfrwt beam="1">  1        2 0.46274761E+00 0.32592226E+04</pdfrwt>
<pdfrwt beam="2">  1       -1 0.13583046E+00 0.32592226E+04</pdfrwt>
<totfact> 0.74239741E-01</totfact>
</mgrwt>
</event>
<event>
12    6  0.1540825E-007  0.1701604E+04  0.7818608E-02  0.8760450E-01
         -3   -1    0    0    0  501 -0.00000000000E+00  0.00000000000E+00  0.10414049224E+04  0.10414049224E+04  0.00000000000E+00 0.  1.
          4   -1    0    0  501    0  0.00000000000E+00 -0.00000000000E+00 -0.69508393198E+03  0.69508393198E+03  0.00000000000E+00 0. -1.
         24    2    1    2    0    0  0.46979498122E+02 -0.50423306428E+03 -0.21640831190E+03  0.55648736220E+03  0.79922277703E+02 0.  0.
        254    2    1    2    0    0 -0.46979498122E+02  0.50423306428E+03  0.56272930228E+03  0.11800014921E+04  0.90514153448E+03 0.  0.
         23    2    4    4    0    0  0.26251683227E+03 -0.14398048101E+03  0.18615263775E+03  0.36390185725E+03  0.90145942970E+02 0.  0.
         23    2    4    4    0    0 -0.30949633039E+03  0.64821354528E+03  0.37657666453E+03  0.81609963489E+03  0.90773624911E+02 0.  0.
          4    1    3    3  502    0 -0.21443760381E+01 -0.35380065000E+03 -0.13670435862E+03  0.37929880036E+03  0.00000000000E+00 0. -1.
         -3    1    3    3    0  502  0.49123874160E+02 -0.15043241428E+03 -0.79703953286E+02  0.17718856184E+03  0.00000000000E+00 0.  1.
         11    1    5    5    0    0  0.10328574787E+03 -0.10707614418E+03  0.98574190799E+02  0.17846601205E+03  0.00000000000E+00 0. -1.
        -11    1    5    5    0    0  0.15923108440E+03 -0.36904336829E+02  0.87578446954E+02  0.18543584520E+03  0.00000000000E+00 0.  1.
          2    1    6    6  503    0 -0.87313597392E+02  0.12855817758E+03  0.11506788559E+03  0.19336878653E+03  0.00000000000E+00 0.  1.
         -2    1    6    6    0  503 -0.22218273300E+03  0.51965536771E+03  0.26150877895E+03  0.62273084836E+03  0.00000000000E+00 0. -1.
<mgrwt>
<rscale>  0 0.17016037E+04</rscale>
<asrwt>0</asrwt>
<pdfrwt beam="1">  1        4 0.10693599E+00 0.17016037E+04</pdfrwt>
<pdfrwt beam="2">  1       -3 0.16021614E+00 0.17016037E+04</pdfrwt>
<totfact> 0.41481361E-01</totfact>
</mgrwt>
</event>
<event>
12    6  0.1540825E-007  0.2077112E+04  0.7818608E-02  0.8571393E-01
         -1   -1    0    0    0  501 -0.00000000000E+00  0.00000000000E+00  0.15575373232E+04  0.15575373232E+04  0.00000000000E+00 0.  1.
          2   -1    0    0  501    0  0.00000000000E+00 -0.00000000000E+00 -0.69250229740E+03  0.69250229740E+03  0.00000000000E+00 0. -1.
         24    2    1    2    0    0 -0.21564256080E+03  0.17565761151E+03  0.12096394826E+04  0.12437927273E+04  0.80220695605E+02 0.  0.
        254    2    1    2    0    0  0.21564256080E+03 -0.17565761151E+03 -0.34460445679E+03  0.10062468934E+04  0.90356143578E+03 0.  0.
         23    2    4    4    0    0 -0.19675617832E+03 -0.26706790690E+03 -0.44513395317E+03  0.56269922756E+03  0.91912587973E+02 0.  0.
         23    2    4    4    0    0  0.41239873912E+03  0.91410295383E+02  0.10052949638E+03  0.44354766579E+03  0.90552692181E+02 0.  0.
          4    1    3    3  502    0 -0.47282368828E+02  0.20399842348E+02  0.12414051173E+03  0.13439733116E+03  0.00000000000E+00 0. -1.
         -3    1    3    3    0  502 -0.16836019197E+03  0.15525776916E+03  0.10854989709E+04  0.11093953961E+04  0.00000000000E+00 0.  1.
         11    1    5    5    0    0 -0.15531211673E+03 -0.22780853739E+03 -0.41474407613E+03  0.49802734061E+03  0.00000000000E+00 0.  1.
        -11    1    5    5    0    0 -0.41444061586E+02 -0.39259369502E+02 -0.30389877044E+02  0.64671886946E+02  0.00000000000E+00 0. -1.
          3    1    6    6  503    0  0.21841841972E+03  0.75065553930E+02  0.16586404012E+02  0.23155248273E+03  0.00000000000E+00 0. -1.
         -3    1    6    6    0  503  0.19398031939E+03  0.16344741454E+02  0.83943092367E+02  0.21199518306E+03  0.00000000000E+00 0.  1.
<mgrwt>
<rscale>  0 0.20771116E+04</rscale>
<asrwt>0</asrwt>
<pdfrwt beam="1">  1        2 0.10653882E+00 0.20771116E+04</pdfrwt>
<pdfrwt beam="2">  1       -1 0.23962112E+00 0.20771116E+04</pdfrwt>
<totfact> 0.35691072E+00</totfact>
</mgrwt>
</event>
<event>
12    6  0.1540825E-007  0.1989322E+04  0.7818608E-02  0.8611629E-01
          2   -1    0    0  501    0  0.00000000000E+00  0.00000000000E+00  0.39379363930E+04  0.39379363930E+04  0.00000000000E+00 0. -1.
         -1   -1    0    0    0  501 -0.00000000000E+00 -0.00000000000E+00 -0.25123584746E+03  0.25123584746E+03  0.00000000000E+00 0.  1.
         24    2    1    2    0    0  0.41818413479E+03 -0.31311904782E+03  0.27416148184E+04  0.27916452584E+04  0.62529413453E+02 0.  0.
        254    2    1    2    0    0 -0.41818413479E+03  0.31311904782E+03  0.94508572712E+03  0.13975269820E+04  0.88711505748E+03 0.  0.
         23    2    4    4    0    0 -0.48396762544E+03 -0.13667206526E+03  0.26804001430E+03  0.57704639329E+03  0.90736843943E+02 0.  0.
         23    2    4    4    0    0  0.65783490645E+02  0.44979111308E+03  0.67704571282E+03  0.82048058875E+03  0.90321571136E+02 0.  0.
          2    1    3    3  502    0  0.20858725878E+03 -0.17847203979E+03  0.15726474520E+04  0.15964275498E+04  0.00000000000E+00 0. -1.
         -1    1    3    3    0  502  0.20959687601E+03 -0.13464700803E+03  0.11689673664E+04  0.11952177086E+04  0.00000000000E+00 0.  1.
         11    1    5    5    0    0 -0.33855558971E+03 -0.68357581719E+02  0.21941746288E+03  0.40919026054E+03  0.00000000000E+00 0. -1.
        -11    1    5    5    0    0 -0.14541203572E+03 -0.68314483544E+02  0.48622551422E+02  0.16785613275E+03  0.00000000000E+00 0.  1.
          1    1    6    6  503    0  0.46106269482E+02  0.37994778377E+03  0.50412185423E+03  0.63294940586E+03  0.00000000000E+00 0. -1.
         -1    1    6    6    0  503  0.19677221163E+02  0.69843329318E+02  0.17292385859E+03  0.18753118288E+03  0.00000000000E+00 0.  1.
<mgrwt>
<rscale>  0 0.19893223E+04</rscale>
<asrwt>0</asrwt>
<pdfrwt beam="1">  1        2 0.60583632E+00 0.19893223E+04</pdfrwt>
<pdfrwt beam="2">  1       -1 0.38651672E-01 0.19893223E+04</pdfrwt>
<totfact> 0.26599165E+00</totfact>
</mgrwt>
</event>
<event>
12    6  0.1540825E-007  0.1366213E+04  0.7818608E-02  0.8978645E-01
         -1   -1    0    0    0  501 -0.00000000000E+00  0.00000000000E+00  0.45744985446E+03  0.45744985446E+03  0.00000000000E+00 0.  1.
          2   -1    0    0  501    0  0.00000000000E+00 -0.00000000000E+00 -0.10200777583E+04  0.10200777583E+04  0.00000000000E+00 0. -1.
         24    2    1    2    0    0 -0.26489269175E+03  0.35121995729E+02 -0.27259496059E+02  0.28078598118E+03  0.81829055804E+02 0.  0.
        254    2    1    2    0    0  0.26489269175E+03 -0.35121995729E+02 -0.53536840777E+03  0.11967416316E+04  0.10364214915E+04 0.  0.
         23    2    4    4    0    0  0.44948753118E+03 -0.40896349714E+03 -0.44996262487E+03  0.76151512845E+03  0.90270396000E+02 0.  0.
         23    2    4    4    0    0 -0.18459483943E+03  0.37384150141E+03 -0.85405782897E+02  0.43522650311E+03  0.91078199015E+02 0.  0.
          4    1    3    3  502    0 -0.28485537106E+01  0.12651027255E+02 -0.11460163056E+02  0.17306013005E+02  0.00000000000E+00 0. -1.
         -3    1    3    3    0  502 -0.26204413804E+03  0.22470968474E+02 -0.15799333003E+02  0.26347996817E+03  0.00000000000E+00 0.  1.
         11    1    5    5    0    0  0.41045968038E+03 -0.37961716837E+03 -0.44049890454E+03  0.71177638949E+03  0.00000000000E+00 0. -1.
        -11    1    5    5    0    0  0.39027850795E+02 -0.29346328770E+02 -0.94637203306E+01  0.49738738951E+02  0.00000000000E+00 0.  1.
          3    1    6    6  503    0 -0.13127795579E+03  0.20253113893E+03 -0.84769783641E+02  0.25580985151E+03  0.00000000000E+00 0. -1.
         -3    1    6    6    0  503 -0.53316883631E+02  0.17131036249E+03 -0.63599925587E+00  0.17941665160E+03  0.00000000000E+00 0.  1.
<mgrwt>
<rscale>  0 0.13662129E+04</rscale>
<asrwt>0</asrwt>
<pdfrwt beam="1">  1        2 0.15693504E+00 0.13662129E+04</pdfrwt>
<pdfrwt beam="2">  1       -1 0.70376902E-01 0.13662129E+04</pdfrwt>
<totfact> 0.55547089E+01</totfact>
</mgrwt>
</event>
<event>
12    6  0.1540825E-007  0.1802202E+04  0.7818608E-02  0.8705130E-01
          2   -1    0    0  501    0  0.00000000000E+00  0.00000000000E+00  0.10110022198E+04  0.10110022198E+04  0.00000000000E+00 0. -1.
         -1   -1    0    0    0  501 -0.00000000000E+00 -0.00000000000E+00 -0.80314622620E+03  0.80314622620E+03  0.00000000000E+00 0.  1.
         24    2    1    2    0    0  0.35774817820E+03 -0.34719950608E+03 -0.38980010577E+03  0.63790718967E+03  0.80313163024E+02 0.  0.
        254    2    1    2    0    0 -0.35774817820E+03  0.34719950608E+03  0.59765609940E+03  0.11762412564E+04  0.88194071455E+03 0.  0.
         23    2    4    4    0    0  0.15231286700E+03 -0.90483817487E+02 -0.82765000425E+02  0.21544100877E+03  0.90433689969E+02 0.  0.
         23    2    4    4    0    0 -0.51006104520E+03  0.43768332357E+03  0.68042109982E+03  0.96080024759E+03  0.91843786550E+02 0.  0.
          2    1    3    3  502    0  0.26327383337E+02 -0.25680434114E+02 -0.55609719080E+01  0.37195970457E+02  0.00000000000E+00 0. -1.
         -1    1    3    3    0  502  0.33142079486E+03 -0.32151907197E+03 -0.38423913386E+03  0.60071121922E+03  0.00000000000E+00 0.  1.
         11    1    5    5    0    0  0.12026611408E+03 -0.48843800884E+02 -0.16467774110E+02  0.13084663795E+03  0.00000000000E+00 0. -1.
        -11    1    5    5    0    0  0.32046752924E+02 -0.41640016603E+02 -0.66297226316E+02  0.84594370811E+02  0.00000000000E+00 0.  1.
          4    1    6    6  503    0 -0.29200704209E+03  0.26044690672E+03  0.45831700003E+03  0.60262357767E+03  0.00000000000E+00 0.  1.
         -4    1    6    6    0  503 -0.21805400311E+03  0.17723641685E+03  0.22210409979E+03  0.35817666992E+03  0.00000000000E+00 0. -1.
<mgrwt>
<rscale>  0 0.18022016E+04</rscale>
<asrwt>0</asrwt>
<pdfrwt beam="1">  1        2 0.15553880E+00 0.18022016E+04</pdfrwt>
<pdfrwt beam="2">  1       -1 0.12356096E+00 0.18022016E+04</pdfrwt>
<totfact> 0.15372621E+01</totfact>
</mgrwt>
</event>
<event>
12    6  0.1540825E-007  0.2450321E+04  0.7818608E-02  0.8420901E-01
          2   -1    0    0  501    0  0.00000000000E+00  0.00000000000E+00  0.19285583948E+04  0.19285583948E+04  0.00000000000E+00 0. -1.
         -1   -1    0    0    0  501 -0.00000000000E+00 -0.00000000000E+00 -0.77831119537E+03  0.77831119537E+03  0.00000000000E+00 0.  1.
         24    2    1    2    0    0 -0.58515848236E+03  0.49067346139E+03 -0.31180534305E+03  0.82898896931E+03  0.82639240525E+02 0.  0.
        254    2    1    2    0    0  0.58515848236E+03 -0.49067346139E+03  0.14620525425E+04  0.18778806209E+04  0.89758960224E+03 0.  0.
         23    2    4    4    0    0 -0.20041974611E+03 -0.26796562652E+03  0.55120899159E+03  0.65126226778E+03  0.91310116607E+02 0.  0.
         23    2    4    4    0    0  0.78557822847E+03 -0.22270783487E+03  0.91084355088E+03  0.12266183531E+04  0.90690005854E+02 0.  0.
          2    1    3    3  502    0 -0.31552535196E+03  0.24984034090E+03 -0.12133595948E+03  0.42035563364E+03  0.00000000000E+00 0. -1.
         -1    1    3    3    0  502 -0.26963313041E+03  0.24083312049E+03 -0.19046938357E+03  0.40863333567E+03  0.00000000000E+00 0.  1.
         11    1    5    5    0    0 -0.13423952943E+03 -0.13869238314E+03  0.24120731852E+03  0.30892846892E+03  0.00000000000E+00 0.  1.
        -11    1    5    5    0    0 -0.66180216681E+02 -0.12927324338E+03  0.31000167307E+03  0.34233379886E+03  0.00000000000E+00 0. -1.
          1    1    6    6  503    0  0.35733569225E+03 -0.55261708441E+02  0.38900521845E+03  0.53110047388E+03  0.00000000000E+00 0. -1.
         -1    1    6    6    0  503  0.42824253622E+03 -0.16744612643E+03  0.52183833243E+03  0.69551787920E+03  0.00000000000E+00 0.  1.
<mgrwt>
<rscale>  0 0.24503213E+04</rscale>
<asrwt>0</asrwt>
<pdfrwt beam="1">  1        2 0.29670129E+00 0.24503213E+04</pdfrwt>
<pdfrwt beam="2">  1       -1 0.11974018E+00 0.24503213E+04</pdfrwt>
<totfact> 0.46437307E+00</totfact>
</mgrwt>
</event>
<event>
12    6  0.1540825E-007  0.2189006E+04  0.7818608E-02  0.8523018E-01
         -1   -1    0    0    0  501 -0.00000000000E+00  0.00000000000E+00  0.61451319900E+03  0.61451319900E+03  0.00000000000E+00 0.  1.
          2   -1    0    0  501    0  0.00000000000E+00 -0.00000000000E+00 -0.19494084632E+04  0.19494084632E+04  0.00000000000E+00 0. -1.
         24    2    1    2    0    0 -0.21791714436E+03 -0.79794818642E+03 -0.98563681961E+03  0.12892210377E+04  0.80010961116E+02 0.  0.
        254    2    1    2    0    0  0.21791714436E+03  0.79794818642E+03 -0.34925844463E+03  0.12747006245E+04  0.90480441587E+03 0.  0.
         23    2    4    4    0    0 -0.95133554436E+02  0.42092254638E+03  0.24087462780E+03  0.50249651399E+03  0.90862407083E+02 0.  0.
         23    2    4    4    0    0  0.31305069880E+03  0.37702564003E+03 -0.59013307243E+03  0.77220411053E+03  0.88842961870E+02 0.  0.
          4    1    3    3  502    0 -0.22370842027E+03 -0.77121625168E+03 -0.94312974219E+03  0.12386741600E+04  0.00000000000E+00 0. -1.
         -3    1    3    3    0  502  0.57912759091E+01 -0.26731934741E+02 -0.42507077420E+02  0.50546877672E+02  0.00000000000E+00 0.  1.
         11    1    5    5    0    0 -0.66637309222E+02  0.18574580599E+03  0.66130589303E+02  0.20812325739E+03  0.00000000000E+00 0. -1.
        -11    1    5    5    0    0 -0.28496245215E+02  0.23517674039E+03  0.17474403850E+03  0.29437325660E+03  0.00000000000E+00 0.  1.
          4    1    6    6  503    0  0.42732853808E+02  0.28242815839E+02 -0.30830227388E+02  0.59785084777E+02  0.00000000000E+00 0. -1.
         -4    1    6    6    0  503  0.27031784499E+03  0.34878282420E+03 -0.55930284504E+03  0.71241902575E+03  0.00000000000E+00 0.  1.
<mgrwt>
<rscale>  0 0.21890064E+04</rscale>
<asrwt>0</asrwt>
<pdfrwt beam="1">  1        2 0.29990900E+00 0.21890064E+04</pdfrwt>
<pdfrwt beam="2">  1       -1 0.94540492E-01 0.21890064E+04</pdfrwt>
<totfact> 0.80355463E+00</totfact>
</mgrwt>
</event>
<event>
12    6  0.1540825E-007  0.3352569E+04  0.7818608E-02  0.8149646E-01
         -1   -1    0    0    0  501 -0.00000000000E+00  0.00000000000E+00  0.17571603100E+04  0.17571603100E+04  0.00000000000E+00 0.  1.
          2   -1    0    0  501    0  0.00000000000E+00 -0.00000000000E+00 -0.15991315656E+04  0.15991315656E+04  0.00000000000E+00 0. -1.
         24    2    1    2    0    0 -0.14818686691E+03  0.11921208338E+04  0.10603144048E+04  0.16043078700E+04  0.80160306354E+02 0.  0.
        254    2    1    2    0    0  0.14818686691E+03 -0.11921208338E+04 -0.90228566050E+03  0.17519840056E+04  0.90123088773E+03 0.  0.
         23    2    4    4    0    0  0.26674972015E+03  0.16246605809E+02 -0.13516969675E+03  0.31299493151E+03  0.90970406353E+02 0.  0.
         23    2    4    4    0    0 -0.11856285324E+03 -0.12083674396E+04 -0.76711596375E+03  0.14389890741E+04  0.89518905188E+02 0.  0.
          4    1    3    3  502    0 -0.95586724324E+01  0.36895965364E+03  0.31421127849E+03  0.48471777537E+03  0.00000000000E+00 0. -1.
         -3    1    3    3    0  502 -0.13862819448E+03  0.82316118013E+03  0.74610312633E+03  0.11195900946E+04  0.00000000000E+00 0.  1.
         11    1    5    5    0    0  0.24455951058E+02  0.17049548544E+02  0.88881711736E+01  0.31109166407E+02  0.00000000000E+00 0.  1.
        -11    1    5    5    0    0  0.24229376909E+03 -0.80294273539E+00 -0.14405786792E+03  0.28188576511E+03  0.00000000000E+00 0. -1.
          4    1    6    6  503    0 -0.12553694317E+03 -0.10098026558E+04 -0.66494830633E+03  0.12155727777E+04  0.00000000000E+00 0. -1.
         -4    1    6    6    0  503  0.69740899291E+01 -0.19856478381E+03 -0.10216765742E+03  0.22341629646E+03  0.00000000000E+00 0.  1.
<mgrwt>
<rscale>  0 0.33525695E+04</rscale>
<asrwt>0</asrwt>
<pdfrwt beam="1">  1        2 0.24602024E+00 0.33525695E+04</pdfrwt>
<pdfrwt beam="2">  1       -1 0.27033235E+00 0.33525695E+04</pdfrwt>
<totfact> 0.54336552E-01</totfact>
</mgrwt>
</event>
<event>
12    6  0.1540825E-007  0.1239360E+04  0.7818608E-02  0.9079086E-01
         -1   -1    0    0    0  501 -0.00000000000E+00  0.00000000000E+00  0.24209845920E+03  0.24209845920E+03  0.00000000000E+00 0.  1.
          2   -1    0    0  501    0  0.00000000000E+00 -0.00000000000E+00 -0.15861443920E+04  0.15861443920E+04  0.00000000000E+00 0. -1.
         24    2    1    2    0    0  0.19941687857E+03  0.93492622289E+01 -0.42704127495E+02  0.23216355945E+03  0.11055214005E+03 0.  0.
        254    2    1    2    0    0 -0.19941687857E+03 -0.93492622289E+01 -0.13013418053E+04  0.15960792918E+04  0.90228826390E+03 0.  0.
         23    2    4    4    0    0  0.74523548916E+02  0.40318959926E+03 -0.56246500395E+03  0.70189642628E+03  0.90421790797E+02 0.  0.
         23    2    4    4    0    0 -0.27394042749E+03 -0.41253886149E+03 -0.73887680138E+03  0.89418286550E+03  0.91610039257E+02 0.  0.
          4    1    3    3  502    0  0.13497699401E+03 -0.33291941101E+02 -0.62457917362E+02  0.15240778751E+03  0.00000000000E+00 0. -1.
         -3    1    3    3    0  502  0.64439884564E+02  0.42641203329E+02  0.19753789866E+02  0.79755771942E+02  0.00000000000E+00 0.  1.
         11    1    5    5    0    0  0.73847715253E+01  0.26906996851E+03 -0.34130961143E+03  0.43467854060E+03  0.00000000000E+00 0. -1.
        -11    1    5    5    0    0  0.67138777391E+02  0.13411963075E+03 -0.22115539253E+03  0.26721788568E+03  0.00000000000E+00 0.  1.
          3    1    6    6  503    0 -0.20112366029E+02 -0.55002065130E+02 -0.47123351634E+02  0.75168774801E+02  0.00000000000E+00 0. -1.
         -3    1    6    6    0  503 -0.25382806146E+03 -0.35753679636E+03 -0.69175344975E+03  0.81901409070E+03  0.00000000000E+00 0.  1.
<mgrwt>
<rscale>  0 0.12393597E+04</rscale>
<asrwt>0</asrwt>
<pdfrwt beam="1">  1        2 0.24402221E+00 0.12393597E+04</pdfrwt>
<pdfrwt beam="2">  1       -1 0.37245918E-01 0.12393597E+04</pdfrwt>
<totfact> 0.88276824E+01</totfact>
</mgrwt>
</event>
<event>
12    6  0.1540825E-007  0.1547779E+04  0.7818608E-02  0.8853288E-01
          2   -1    0    0  501    0  0.00000000000E+00  0.00000000000E+00  0.97455700881E+03  0.97455700881E+03  0.00000000000E+00 0. -1.
         -1   -1    0    0    0  501 -0.00000000000E+00 -0.00000000000E+00 -0.61454055921E+03  0.61454055921E+03  0.00000000000E+00 0.  1.
         24    2    1    2    0    0 -0.25881637903E+03 -0.24858390189E+03  0.49467660260E+03  0.61607062448E+03  0.77834432321E+02 0.  0.
        254    2    1    2    0    0  0.25881637903E+03  0.24858390189E+03 -0.13466015300E+03  0.97302694355E+03  0.89435351049E+03 0.  0.
         23    2    4    4    0    0  0.68180823957E+02  0.54964267132E+03 -0.20835240612E+03  0.59758024628E+03  0.83281058620E+02 0.  0.
         23    2    4    4    0    0  0.19063555508E+03 -0.30105876942E+03  0.73692253124E+02  0.37544669726E+03  0.92473654671E+02 0.  0.
          2    1    3    3  502    0 -0.15485412374E+03 -0.17616017890E+03  0.37161324115E+03  0.43944124666E+03  0.00000000000E+00 0. -1.
         -1    1    3    3    0  502 -0.10396225530E+03 -0.72423722987E+02  0.12306336145E+03  0.17662937782E+03  0.00000000000E+00 0.  1.
         11    1    5    5    0    0  0.43524293678E+02  0.49676067934E+03 -0.20493517721E+03  0.53913260292E+03  0.00000000000E+00 0.  1.
        -11    1    5    5    0    0  0.24656530279E+02  0.52881991976E+02 -0.34172289121E+01  0.58447643359E+02  0.00000000000E+00 0. -1.
          1    1    6    6  503    0  0.22096814893E+01 -0.18102327748E+02  0.26593309298E+02  0.32245636319E+02  0.00000000000E+00 0. -1.
         -1    1    6    6    0  503  0.18842587359E+03 -0.28295644168E+03  0.47098943826E+02  0.34320106094E+03  0.00000000000E+00 0.  1.
<mgrwt>
<rscale>  0 0.15477788E+04</rscale>
<asrwt>0</asrwt>
<pdfrwt beam="1">  1        2 0.14993185E+00 0.15477788E+04</pdfrwt>
<pdfrwt beam="2">  1       -1 0.94544701E-01 0.15477788E+04</pdfrwt>
<totfact> 0.31114656E+01</totfact>
</mgrwt>
</event>
<event>
12    6  0.1540825E-007  0.1494071E+04  0.7818608E-02  0.8888405E-01
          2   -1    0    0  501    0  0.00000000000E+00  0.00000000000E+00  0.17162241524E+04  0.17162241524E+04  0.00000000000E+00 0. -1.
         -1   -1    0    0    0  501 -0.00000000000E+00 -0.00000000000E+00 -0.32516863655E+03  0.32516863655E+03  0.00000000000E+00 0.  1.
         24    2    1    2    0    0 -0.46600495092E+03  0.57789389703E+02  0.58312962850E+03  0.75298655836E+03  0.80301716013E+02 0.  0.
        254    2    1    2    0    0  0.46600495092E+03 -0.57789389703E+02  0.80792588736E+03  0.12884062306E+04  0.88698711813E+03 0.  0.
         23    2    4    4    0    0  0.11490869622E+03  0.21214707113E+03  0.79468439877E+03  0.83588753419E+03  0.94732718306E+02 0.  0.
         23    2    4    4    0    0  0.35109625470E+03 -0.26993646084E+03  0.13241488594E+02  0.45251869641E+03  0.91997612035E+02 0.  0.
          2    1    3    3  502    0 -0.43560894391E+03  0.74111305902E+02  0.54274196232E+03  0.69986889868E+03  0.00000000000E+00 0. -1.
         -1    1    3    3    0  502 -0.30396007012E+02 -0.16321916200E+02  0.40387666185E+02  0.53117659686E+02  0.00000000000E+00 0.  1.
         11    1    5    5    0    0  0.84245844651E+02  0.21225245994E+03  0.71017422184E+03  0.74598652431E+03  0.00000000000E+00 0. -1.
        -11    1    5    5    0    0  0.30662851565E+02 -0.10538880711E+00  0.84510176930E+02  0.89901009881E+02  0.00000000000E+00 0.  1.
          3    1    6    6  503    0  0.22277030936E+03 -0.11656116086E+03  0.21732441775E+02  0.25235969167E+03  0.00000000000E+00 0. -1.
         -3    1    6    6    0  503  0.12832594534E+03 -0.15337529997E+03 -0.84909531816E+01  0.20015900473E+03  0.00000000000E+00 0.  1.
<mgrwt>
<rscale>  0 0.14940713E+04</rscale>
<asrwt>0</asrwt>
<pdfrwt beam="1">  1        2 0.26403448E+00 0.14940713E+04</pdfrwt>
<pdfrwt beam="2">  1       -1 0.50025945E-01 0.14940713E+04</pdfrwt>
<totfact> 0.42412363E+01</totfact>
</mgrwt>
</event>
<event>
12    6  0.1540825E-007  0.1423804E+04  0.7818608E-02  0.8936766E-01
         -1   -1    0    0    0  501 -0.00000000000E+00  0.00000000000E+00  0.49363351462E+03  0.49363351462E+03  0.00000000000E+00 0.  1.
          2   -1    0    0  501    0  0.00000000000E+00 -0.00000000000E+00 -0.10266813359E+04  0.10266813359E+04  0.00000000000E+00 0. -1.
         24    2    1    2    0    0  0.39633743577E+03 -0.11136127920E+03 -0.28789268939E+03  0.50942348931E+03  0.84530428593E+02 0.  0.
        254    2    1    2    0    0 -0.39633743577E+03  0.11136127920E+03 -0.24515513191E+03  0.10108913612E+04  0.89012111986E+03 0.  0.
         23    2    4    4    0    0  0.17333184595E+02 -0.34473491957E+03 -0.62333768120E+02  0.36191262413E+03  0.89177602558E+02 0.  0.
         23    2    4    4    0    0 -0.41367062036E+03  0.45609619877E+03 -0.18282136379E+03  0.64897873709E+03  0.92750339399E+02 0.  0.
          2    1    3    3  502    0  0.17834802355E+03 -0.16321457909E+02 -0.15589270159E+03  0.23743829073E+03  0.00000000000E+00 0. -1.
         -1    1    3    3    0  502  0.21798941221E+03 -0.95039821289E+02 -0.13199998780E+03  0.27198519858E+03  0.00000000000E+00 0.  1.
         11    1    5    5    0    0  0.45953991855E+02 -0.23401789640E+03 -0.66153703438E+02  0.24749233863E+03  0.00000000000E+00 0. -1.
        -11    1    5    5    0    0 -0.28620807260E+02 -0.11071702318E+03  0.38199353175E+01  0.11442028551E+03  0.00000000000E+00 0.  1.
          4    1    6    6  503    0 -0.41606540792E+03  0.45860739954E+03 -0.18203487973E+03  0.64542069073E+03  0.00000000000E+00 0. -1.
         -4    1    6    6    0  503  0.23947875621E+01 -0.25112007674E+01 -0.78648405441E+00  0.35580463641E+01  0.00000000000E+00 0.  1.
<mgrwt>
<rscale>  0 0.14238038E+04</rscale>
<asrwt>0</asrwt>
<pdfrwt beam="1">  1        2 0.15795097E+00 0.14238038E+04</pdfrwt>
<pdfrwt beam="2">  1       -1 0.75943618E-01 0.14238038E+04</pdfrwt>
<totfact> 0.46760635E+01</totfact>
</mgrwt>
</event>
<event>
12    6  0.1540825E-007  0.1693513E+04  0.7818608E-02  0.8765073E-01
         -1   -1    0    0    0  501 -0.00000000000E+00  0.00000000000E+00  0.30555337277E+03  0.30555337277E+03  0.00000000000E+00 0.  1.
          2   -1    0    0  501    0  0.00000000000E+00 -0.00000000000E+00 -0.23465498610E+04  0.23465498610E+04  0.00000000000E+00 0. -1.
         24    2    1    2    0    0  0.13294199995E+03  0.58676860252E+03 -0.83155944169E+03  0.10295151736E+04  0.80245992927E+02 0.  0.
        254    2    1    2    0    0 -0.13294199995E+03 -0.58676860252E+03 -0.12094370466E+04  0.16225880602E+04  0.89893441095E+03 0.  0.
         23    2    4    4    0    0 -0.23988740079E+03 -0.12643142169E+03  0.34752985857E+02  0.28837554645E+03  0.91770454469E+02 0.  0.
         23    2    4    4    0    0  0.10694540084E+03 -0.46033718083E+03 -0.12441900324E+04  0.13342125137E+04  0.93629889583E+02 0.  0.
          4    1    3    3  502    0  0.11916899146E+03  0.48829536906E+03 -0.64089724704E+03  0.81448320869E+03  0.00000000000E+00 0. -1.
         -1    1    3    3    0  502  0.13773008498E+02  0.98473233459E+02 -0.19066219465E+03  0.21503196492E+03  0.00000000000E+00 0.  1.
         11    1    5    5    0    0 -0.15835224460E+03 -0.94217250098E+02 -0.19480052995E+02  0.18528841316E+03  0.00000000000E+00 0. -1.
        -11    1    5    5    0    0 -0.81535156187E+02 -0.32214171594E+02  0.54233038852E+02  0.10308713329E+03  0.00000000000E+00 0.  1.
          1    1    6    6  503    0  0.10785420130E+03 -0.33801068847E+03 -0.10003700615E+04  0.10614254633E+04  0.00000000000E+00 0. -1.
         -1    1    6    6    0  503 -0.90880046306E+00 -0.12232649237E+03 -0.24381997097E+03  0.27278705045E+03  0.00000000000E+00 0.  1.
<mgrwt>
<rscale>  0 0.16935126E+04</rscale>
<asrwt>0</asrwt>
<pdfrwt beam="1">  1        2 0.36100767E+00 0.16935126E+04</pdfrwt>
<pdfrwt beam="2">  1       -1 0.47008211E-01 0.16935126E+04</pdfrwt>
<totfact> 0.20885743E+01</totfact>
</mgrwt>
</event>
<event>
12    6  0.1540825E-007  0.1904441E+04  0.7818608E-02  0.8652649E-01
          2   -1    0    0  501    0  0.00000000000E+00  0.00000000000E+00  0.63522625015E+03  0.63522625015E+03  0.00000000000E+00 0. -1.
         -1   -1    0    0    0  501 -0.00000000000E+00 -0.00000000000E+00 -0.14274023143E+04  0.14274023143E+04  0.00000000000E+00 0.  1.
         24    2    1    2    0    0 -0.47421768515E+03  0.78081802614E+02  0.29189137810E+03  0.56787043978E+03  0.79354136336E+02 0.  0.
        254    2    1    2    0    0  0.47421768515E+03 -0.78081802614E+02 -0.10840674422E+04  0.14947581247E+04  0.91001123681E+03 0.  0.
         23    2    4    4    0    0  0.59461674755E+02 -0.38520619189E+03 -0.80893319997E+03  0.90236329234E+03  0.89258547583E+02 0.  0.
         23    2    4    4    0    0  0.41475601040E+03  0.30712438928E+03 -0.27513424227E+03  0.59239483232E+03  0.94259468724E+02 0.  0.
          2    1    3    3  502    0 -0.11259832964E+03  0.26085301133E+02  0.33322747182E+02  0.12028812183E+03  0.00000000000E+00 0. -1.
         -1    1    3    3    0  502 -0.36161935551E+03  0.51996501481E+02  0.25856863092E+03  0.44758231795E+03  0.00000000000E+00 0.  1.
         11    1    5    5    0    0  0.23842046294E+01 -0.26962011272E+03 -0.58058534052E+03  0.64014063084E+03  0.00000000000E+00 0.  1.
        -11    1    5    5    0    0  0.57077470126E+02 -0.11558607917E+03 -0.22834785945E+03  0.26222266151E+03  0.00000000000E+00 0. -1.
          2    1    6    6  503    0  0.28023179551E+03  0.18279458041E+03 -0.22248269749E+03  0.40179879110E+03  0.00000000000E+00 0.  1.
         -2    1    6    6    0  503  0.13452421488E+03  0.12432980887E+03 -0.52651544779E+02  0.19059604123E+03  0.00000000000E+00 0. -1.
<mgrwt>
<rscale>  0 0.19044405E+04</rscale>
<asrwt>0</asrwt>
<pdfrwt beam="1">  1        2 0.97727117E-01 0.19044405E+04</pdfrwt>
<pdfrwt beam="2">  1       -1 0.21960035E+00 0.19044405E+04</pdfrwt>
<totfact> 0.54755186E+00</totfact>
</mgrwt>
</event>
<event>
12    6  0.1540825E-007  0.2886836E+04  0.7818608E-02  0.8276805E-01
          2   -1    0    0  501    0  0.00000000000E+00  0.00000000000E+00  0.36728297187E+04  0.36728297187E+04  0.00000000000E+00 0. -1.
         -1   -1    0    0    0  501 -0.00000000000E+00 -0.00000000000E+00 -0.56726181423E+03  0.56726181423E+03  0.00000000000E+00 0.  1.
         24    2    1    2    0    0  0.11880660135E+04 -0.39389587954E+03  0.19320100890E+04  0.23033613356E+04  0.78457899827E+02 0.  0.
        254    2    1    2    0    0 -0.11880660135E+04  0.39389587954E+03  0.11735578155E+04  0.19367301973E+04  0.89834909384E+03 0.  0.
         23    2    4    4    0    0  0.10463267989E+03  0.14305856342E+03  0.27635323289E+03  0.34075759738E+03  0.91273657620E+02 0.  0.
         23    2    4    4    0    0 -0.12926986934E+04  0.25083731612E+03  0.89720458257E+03  0.15959725999E+04  0.90350459391E+02 0.  0.
          2    1    3    3  502    0  0.11633272177E+04 -0.39512575207E+03  0.19038805848E+04  0.22658808126E+04  0.00000000000E+00 0. -1.
         -1    1    3    3    0  502  0.24738795811E+02  0.12298725291E+01  0.28129504167E+02  0.37480523066E+02  0.00000000000E+00 0.  1.
         11    1    5    5    0    0  0.10955108258E+03  0.91777620957E+02  0.16649375245E+03  0.21941909901E+03  0.00000000000E+00 0. -1.
        -11    1    5    5    0    0 -0.49184026954E+01  0.51280942460E+02  0.10985948044E+03  0.12133849838E+03  0.00000000000E+00 0.  1.
          3    1    6    6  503    0 -0.12138494431E+04  0.23343973003E+03  0.86665540550E+03  0.15096410732E+04  0.00000000000E+00 0. -1.
         -3    1    6    6    0  503 -0.78849250373E+02  0.17397586091E+02  0.30549177068E+02  0.86331526720E+02  0.00000000000E+00 0.  1.
<mgrwt>
<rscale>  0 0.28868364E+04</rscale>
<asrwt>0</asrwt>
<pdfrwt beam="1">  1        2 0.56505071E+00 0.28868364E+04</pdfrwt>
<pdfrwt beam="2">  1       -1 0.87271051E-01 0.28868364E+04</pdfrwt>
<totfact> 0.77540136E-01</totfact>
</mgrwt>
</event>
<event>
12    6  0.1540825E-007  0.2939289E+04  0.7818608E-02  0.8261283E-01
         -1   -1    0    0    0  501 -0.00000000000E+00  0.00000000000E+00  0.93703418319E+03  0.93703418319E+03  0.00000000000E+00 0.  1.
          2   -1    0    0  501    0  0.00000000000E+00 -0.00000000000E+00 -0.23049905163E+04  0.23049905163E+04  0.00000000000E+00 0. -1.
         24    2    1    2    0    0  0.87198511712E+03  0.99898611207E+03 -0.72753640855E+03  0.15146007089E+04  0.79842251621E+02 0.  0.
        254    2    1    2    0    0 -0.87198511712E+03 -0.99898611207E+03 -0.64041992461E+03  0.17274239906E+04  0.90306404363E+03 0.  0.
         23    2    4    4    0    0 -0.18080835364E+03 -0.86728864809E+03 -0.42106504613E+03  0.98471429467E+03  0.86517103546E+02 0.  0.
         23    2    4    4    0    0 -0.69117676348E+03 -0.13169746398E+03 -0.21935487848E+03  0.74270969593E+03  0.91823686096E+02 0.  0.
          4    1    3    3  502    0  0.50236483833E+03  0.55034328368E+03 -0.36754085768E+03  0.83086367278E+03  0.00000000000E+00 0. -1.
         -3    1    3    3    0  502  0.36962027879E+03  0.44864282839E+03 -0.35999555088E+03  0.68373703616E+03  0.00000000000E+00 0.  1.
         11    1    5    5    0    0 -0.68960350003E+02 -0.18153618925E+03 -0.11290310024E+03  0.22462864448E+03  0.00000000000E+00 0. -1.
        -11    1    5    5    0    0 -0.11184800364E+03 -0.68575245884E+03 -0.30816194589E+03  0.76008565019E+03  0.00000000000E+00 0.  1.
          3    1    6    6  503    0 -0.36930433797E+03 -0.96119094122E+02 -0.78644503657E+02  0.38962742749E+03  0.00000000000E+00 0. -1.
         -3    1    6    6    0  503 -0.32187242551E+03 -0.35578369855E+02 -0.14071037482E+03  0.35308226844E+03  0.00000000000E+00 0.  1.
<mgrwt>
<rscale>  0 0.29392890E+04</rscale>
<asrwt>0</asrwt>
<pdfrwt beam="1">  1        2 0.35461392E+00 0.29392890E+04</pdfrwt>
<pdfrwt beam="2">  1       -1 0.14415911E+00 0.29392890E+04</pdfrwt>
<totfact> 0.17092699E+00</totfact>
</mgrwt>
</event>
<event>
12    6  0.1540825E-007  0.1898236E+04  0.7818608E-02  0.8655735E-01
          2   -1    0    0  501    0  0.00000000000E+00  0.00000000000E+00  0.14653731519E+04  0.14653731519E+04  0.00000000000E+00 0. -1.
         -1   -1    0    0    0  501 -0.00000000000E+00 -0.00000000000E+00 -0.61474091647E+03  0.61474091647E+03  0.00000000000E+00 0.  1.
         24    2    1    2    0    0 -0.66533833533E+03 -0.31020955071E+03  0.28298280345E+03  0.79075925195E+03  0.79472395794E+02 0.  0.
        254    2    1    2    0    0  0.66533833533E+03  0.31020955071E+03  0.56764943195E+03  0.12893548164E+04  0.89515635458E+03 0.  0.
         23    2    4    4    0    0 -0.10126754687E+03  0.92120873570E+00  0.42479200770E+03  0.44548154059E+03  0.88031747262E+02 0.  0.
         23    2    4    4    0    0  0.76660588220E+03  0.30928834197E+03  0.14285742425E+03  0.84387327580E+03  0.91487730528E+02 0.  0.
          2    1    3    3  502    0 -0.22034853284E+02  0.40511269528E+01  0.97414160110E+01  0.24430341274E+02  0.00000000000E+00 0. -1.
         -1    1    3    3    0  502 -0.64330348204E+03 -0.31426067766E+03  0.27324138744E+03  0.76632891068E+03  0.00000000000E+00 0.  1.
         11    1    5    5    0    0 -0.86901649847E+02 -0.36373186581E+02  0.29547075874E+03  0.31012557895E+03  0.00000000000E+00 0.  1.
        -11    1    5    5    0    0 -0.14365897027E+02  0.37294395316E+02  0.12932124896E+03  0.13535596164E+03  0.00000000000E+00 0. -1.
          3    1    6    6  503    0  0.53829728160E+02  0.16523052844E+02 -0.12810594182E+02  0.57747400221E+02  0.00000000000E+00 0. -1.
         -3    1    6    6    0  503  0.71277615404E+03  0.29276528913E+03  0.15566801843E+03  0.78612587558E+03  0.00000000000E+00 0.  1.
<mgrwt>
<rscale>  0 0.18982358E+04</rscale>
<asrwt>0</asrwt>
<pdfrwt beam="1">  1        2 0.22544202E+00 0.18982358E+04</pdfrwt>
<pdfrwt beam="2">  1       -1 0.94575526E-01 0.18982358E+04</pdfrwt>
<totfact> 0.15331851E+01</totfact>
</mgrwt>
</event>
<event>
12    6  0.1540825E-007  0.1800765E+04  0.7818608E-02  0.8705893E-01
         -1   -1    0    0    0  501 -0.00000000000E+00  0.00000000000E+00  0.48573822027E+03  0.48573822027E+03  0.00000000000E+00 0.  1.
          2   -1    0    0  501    0  0.00000000000E+00 -0.00000000000E+00 -0.16689825438E+04  0.16689825438E+04  0.00000000000E+00 0. -1.
         24    2    1    2    0    0 -0.32591806859E+03 -0.43672866584E+03  0.26418640465E+02  0.55303878628E+03  0.90550756834E+02 0.  0.
        254    2    1    2    0    0  0.32591806859E+03  0.43672866584E+03 -0.12096629640E+04  0.16016819778E+04  0.89729936843E+03 0.  0.
         23    2    4    4    0    0  0.29724776309E+03  0.42967103966E+03 -0.13399128860E+04  0.14411295896E+04  0.92274141275E+02 0.  0.
         23    2    4    4    0    0  0.28670305505E+02  0.70576261812E+01  0.13024992192E+03  0.16055238822E+03  0.89107972135E+02 0.  0.
          2    1    3    3  502    0 -0.12026049200E+03 -0.93895694284E+02  0.10492606506E+02  0.15293489508E+03  0.00000000000E+00 0. -1.
         -1    1    3    3    0  502 -0.20565757659E+03 -0.34283297155E+03  0.15926033959E+02  0.40010389120E+03  0.00000000000E+00 0.  1.
         11    1    5    5    0    0  0.98740181286E+02  0.18841962482E+03 -0.64614025046E+03  0.68025642348E+03  0.00000000000E+00 0. -1.
        -11    1    5    5    0    0  0.19850758180E+03  0.24125141484E+03 -0.69377263550E+03  0.76087316614E+03  0.00000000000E+00 0.  1.
          2    1    6    6  503    0 -0.30342476304E+01  0.39133817228E+02  0.96636087395E+02  0.10430338296E+03  0.00000000000E+00 0.  1.
         -2    1    6    6    0  503  0.31704553135E+02 -0.32076191046E+02  0.33613834525E+02  0.56249005263E+02  0.00000000000E+00 0. -1.
<mgrwt>
<rscale>  0 0.18007650E+04</rscale>
<asrwt>0</asrwt>
<pdfrwt beam="1">  1        2 0.25676655E+00 0.18007650E+04</pdfrwt>
<pdfrwt beam="2">  1       -1 0.74728956E-01 0.18007650E+04</pdfrwt>
<totfact> 0.19769112E+01</totfact>
</mgrwt>
</event>
<event>
12    6  0.1540825E-007  0.2291003E+04  0.7818608E-02  0.8481477E-01
          4   -1    0    0  501    0  0.00000000000E+00  0.00000000000E+00  0.84986489867E+03  0.84986489867E+03  0.00000000000E+00 0. -1.
         -3   -1    0    0    0  501 -0.00000000000E+00 -0.00000000000E+00 -0.15439792087E+04  0.15439792087E+04  0.00000000000E+00 0.  1.
         24    2    1    2    0    0 -0.74268911721E+03 -0.18870524008E+03 -0.89928972896E+03  0.11841684139E+04  0.79599142265E+02 0.  0.
        254    2    1    2    0    0  0.74268911721E+03  0.18870524008E+03  0.20517541897E+03  0.12096756934E+04  0.91324779672E+03 0.  0.
         23    2    4    4    0    0  0.88853890740E+03  0.34219056287E+03  0.20989659614E+03  0.97937996931E+03  0.92373004274E+02 0.  0.
         23    2    4    4    0    0 -0.14584979020E+03 -0.15348532279E+03 -0.47211771697E+01  0.23029572410E+03  0.90465050772E+02 0.  0.
          4    1    3    3  502    0 -0.11153106591E+02 -0.56795100374E+01 -0.30319379338E+01  0.12877937278E+02  0.00000000000E+00 0. -1.
         -3    1    3    3    0  502 -0.73153601062E+03 -0.18302573004E+03 -0.89625779103E+03  0.11712904766E+04  0.00000000000E+00 0.  1.
         11    1    5    5    0    0  0.66078868452E+03  0.28857322104E+03  0.13396772923E+03  0.73339180659E+03  0.00000000000E+00 0. -1.
        -11    1    5    5    0    0  0.22775022288E+03  0.53617341833E+02  0.75928866912E+02  0.24598816272E+03  0.00000000000E+00 0.  1.
          1    1    6    6  503    0 -0.79401356825E+02 -0.12502240602E+03  0.28363042395E+02  0.15079668314E+03  0.00000000000E+00 0. -1.
         -1    1    6    6    0  503 -0.66448433373E+02 -0.28462916772E+02 -0.33084219565E+02  0.79499040957E+02  0.00000000000E+00 0.  1.
<mgrwt>
<rscale>  0 0.22910030E+04</rscale>
<asrwt>0</asrwt>
<pdfrwt beam="1">  1        4 0.13074845E+00 0.22910030E+04</pdfrwt>
<pdfrwt beam="2">  1       -3 0.23753526E+00 0.22910030E+04</pdfrwt>
<totfact> 0.76414234E-02</totfact>
</mgrwt>
</event>
<event>
12    6  0.1540825E-007  0.1439550E+04  0.7818608E-02  0.8925677E-01
         -1   -1    0    0    0  501 -0.00000000000E+00  0.00000000000E+00  0.49877508858E+03  0.49877508858E+03  0.00000000000E+00 0.  1.
          2   -1    0    0  501    0  0.00000000000E+00 -0.00000000000E+00 -0.10386967265E+04  0.10386967265E+04  0.00000000000E+00 0. -1.
         24    2    1    2    0    0 -0.24263629573E+03 -0.33243852377E+03 -0.21600588552E+02  0.42016978702E+03  0.81782152154E+02 0.  0.
        254    2    1    2    0    0  0.24263629573E+03  0.33243852377E+03 -0.51832104932E+03  0.11173020280E+04  0.90017740892E+03 0.  0.
         23    2    4    4    0    0  0.45712489574E+03  0.49872258741E+03 -0.46436993193E+03  0.82607625992E+03  0.95263655291E+02 0.  0.
         23    2    4    4    0    0 -0.21448860001E+03 -0.16628406364E+03 -0.53951117388E+02  0.29122576809E+03  0.90807354184E+02 0.  0.
          2    1    3    3  502    0 -0.19169873663E+03 -0.29912898174E+03 -0.37522757483E+02  0.35725972439E+03  0.00000000000E+00 0. -1.
         -1    1    3    3    0  502 -0.50937559100E+02 -0.33309542031E+02  0.15922168930E+02  0.62910062636E+02  0.00000000000E+00 0.  1.
         11    1    5    5    0    0  0.61922678950E+02  0.12260662565E+03 -0.10286201290E+03  0.17160243739E+03  0.00000000000E+00 0.  1.
        -11    1    5    5    0    0  0.39520221679E+03  0.37611596176E+03 -0.36150791904E+03  0.65447382253E+03  0.00000000000E+00 0. -1.
          2    1    6    6  503    0 -0.21905610330E+03 -0.14178276046E+03 -0.53118983986E+02  0.26628847895E+03  0.00000000000E+00 0. -1.
         -2    1    6    6    0  503  0.45675032899E+01 -0.24501303180E+02 -0.83213340182E+00  0.24937289144E+02  0.00000000000E+00 0.  1.
<mgrwt>
<rscale>  0 0.14395500E+04</rscale>
<asrwt>0</asrwt>
<pdfrwt beam="1">  1        2 0.15979949E+00 0.14395500E+04</pdfrwt>
<pdfrwt beam="2">  1       -1 0.76734630E-01 0.14395500E+04</pdfrwt>
<totfact> 0.44902375E+01</totfact>
</mgrwt>
</event>
<event>
12    6  0.1540825E-007  0.3363762E+04  0.7818608E-02  0.8146858E-01
          2   -1    0    0  501    0  0.00000000000E+00  0.00000000000E+00  0.16091765113E+04  0.16091765113E+04  0.00000000000E+00 0. -1.
         -1   -1    0    0    0  501 -0.00000000000E+00 -0.00000000000E+00 -0.17578704525E+04  0.17578704525E+04  0.00000000000E+00 0.  1.
         24    2    1    2    0    0  0.28174391965E+03  0.69980606711E+03 -0.14350948325E+04  0.16235212333E+04  0.84946153374E+02 0.  0.
        254    2    1    2    0    0 -0.28174391965E+03 -0.69980606711E+03  0.12864008913E+04  0.17435257305E+04  0.90329759873E+03 0.  0.
         23    2    4    4    0    0 -0.48570443574E+03 -0.75002442454E+03  0.78716959297E+03  0.11943803632E+04  0.91994823670E+02 0.  0.
         23    2    4    4    0    0  0.20396051609E+03  0.50218357423E+02  0.49923129835E+03  0.54914536730E+03  0.90592326582E+02 0.  0.
          4    1    3    3  502    0  0.11496350380E+03  0.23043601158E+03 -0.56522600716E+03  0.62112623662E+03  0.00000000000E+00 0. -1.
         -3    1    3    3    0  502  0.16678041585E+03  0.46937005553E+03 -0.86986882531E+03  0.10023949967E+04  0.00000000000E+00 0.  1.
         11    1    5    5    0    0 -0.29824732574E+03 -0.52596613982E+03  0.49788645387E+03  0.78325140823E+03  0.00000000000E+00 0.  1.
        -11    1    5    5    0    0 -0.18745711000E+03 -0.22405828471E+03  0.28928313909E+03  0.41112895495E+03  0.00000000000E+00 0. -1.
          2    1    6    6  503    0  0.76949797525E+01 -0.18200552939E+02  0.29784559132E+02  0.35743430212E+02  0.00000000000E+00 0. -1.
         -2    1    6    6    0  503  0.19626553633E+03  0.68418910362E+02  0.46944673922E+03  0.51340193709E+03  0.00000000000E+00 0.  1.
<mgrwt>
<rscale>  0 0.33637621E+04</rscale>
<asrwt>0</asrwt>
<pdfrwt beam="1">  1        2 0.24756562E+00 0.33637621E+04</pdfrwt>
<pdfrwt beam="2">  1       -1 0.27044161E+00 0.33637621E+04</pdfrwt>
<totfact> 0.53500387E-01</totfact>
</mgrwt>
</event>
<event>
12    6  0.1540825E-007  0.1228046E+04  0.7818608E-02  0.9088656E-01
          2   -1    0    0  501    0  0.00000000000E+00  0.00000000000E+00  0.21117833175E+04  0.21117833175E+04  0.00000000000E+00 0. -1.
         -1   -1    0    0    0  501 -0.00000000000E+00 -0.00000000000E+00 -0.17853371902E+03  0.17853371902E+03  0.00000000000E+00 0.  1.
         24    2    1    2    0    0  0.26694933879E+03  0.61412348584E+02  0.44754163200E+03  0.53496754955E+03  0.10422735081E+03 0.  0.
        254    2    1    2    0    0 -0.26694933879E+03 -0.61412348584E+02  0.14857079665E+04  0.17553494870E+04  0.89380659750E+03 0.  0.
         23    2    4    4    0    0 -0.14750715231E+03 -0.38107746939E+03  0.12794453829E+04  0.13463560851E+04  0.93358569551E+02 0.  0.
         23    2    4    4    0    0 -0.11944218648E+03  0.31966512081E+03  0.20626258362E+03  0.40899340187E+03  0.90989691733E+02 0.  0.
          4    1    3    3  502    0  0.13642508142E+03  0.51113588795E+02  0.32268557456E+03  0.35404855858E+03  0.00000000000E+00 0. -1.
         -3    1    3    3    0  502  0.13052425737E+03  0.10298759789E+02  0.12485605743E+03  0.18091899097E+03  0.00000000000E+00 0.  1.
         11    1    5    5    0    0 -0.70947874307E+02 -0.18453656508E+03  0.76990653555E+03  0.79488578941E+03  0.00000000000E+00 0. -1.
        -11    1    5    5    0    0 -0.76559277998E+02 -0.19654090431E+03  0.50953884735E+03  0.55147029573E+03  0.00000000000E+00 0.  1.
          3    1    6    6  503    0 -0.33904036705E+02  0.10805550942E+03  0.21348699196E+02  0.11524427872E+03  0.00000000000E+00 0. -1.
         -3    1    6    6    0  503 -0.85538149780E+02  0.21160961139E+03  0.18491388443E+03  0.29374912315E+03  0.00000000000E+00 0.  1.
<mgrwt>
<rscale>  0 0.12280465E+04</rscale>
<asrwt>0</asrwt>
<pdfrwt beam="1">  1        2 0.32488972E+00 0.12280465E+04</pdfrwt>
<pdfrwt beam="2">  1       -1 0.27466728E-01 0.12280465E+04</pdfrwt>
<totfact> 0.77454989E+01</totfact>
</mgrwt>
</event>
<event>
12    6  0.1540825E-007  0.3184594E+04  0.7818608E-02  0.8192898E-01
         -1   -1    0    0    0  501 -0.00000000000E+00  0.00000000000E+00  0.12382634671E+04  0.12382634671E+04  0.00000000000E+00 0.  1.
          2   -1    0    0  501    0  0.00000000000E+00 -0.00000000000E+00 -0.20475526809E+04  0.20475526809E+04  0.00000000000E+00 0. -1.
         24    2    1    2    0    0  0.12424979176E+04 -0.61024877942E+03 -0.86559305351E+03  0.16345819240E+04  0.80013023957E+02 0.  0.
        254    2    1    2    0    0 -0.12424979176E+04  0.61024877942E+03  0.56303839693E+02  0.16512342240E+04  0.89844292638E+03 0.  0.
         23    2    4    4    0    0 -0.25436790118E+03  0.49883374927E+03  0.27274535594E+03  0.62961643255E+03  0.92134056624E+02 0.  0.
         23    2    4    4    0    0 -0.98813001643E+03  0.11141503014E+03 -0.21644151624E+03  0.10216177914E+04  0.89675768467E+02 0.  0.
          2    1    3    3  502    0  0.65847527166E+03 -0.31271879411E+03 -0.50142460370E+03  0.88476514442E+03  0.00000000000E+00 0. -1.
         -3    1    3    3    0  502  0.58402264595E+03 -0.29752998531E+03 -0.36416844981E+03  0.74981677961E+03  0.00000000000E+00 0.  1.
         11    1    5    5    0    0 -0.47293831047E+02  0.56948895842E+02  0.80739498641E+01  0.74465239267E+02  0.00000000000E+00 0. -1.
        -11    1    5    5    0    0 -0.20707407014E+03  0.44188485343E+03  0.26467140607E+03  0.55515119328E+03  0.00000000000E+00 0.  1.
          3    1    6    6  503    0 -0.35541052893E+03  0.34771992952E+02 -0.34262771644E+02  0.35874736666E+03  0.00000000000E+00 0. -1.
         -3    1    6    6    0  503 -0.63271948751E+03  0.76643037192E+02 -0.18217874460E+03  0.66287042475E+03  0.00000000000E+00 0.  1.
<mgrwt>
<rscale>  0 0.31845940E+04</rscale>
<asrwt>0</asrwt>
<pdfrwt beam="1">  1        2 0.31500810E+00 0.31845940E+04</pdfrwt>
<pdfrwt beam="2">  1       -1 0.19050207E+00 0.31845940E+04</pdfrwt>
<totfact> 0.10564891E+00</totfact>
</mgrwt>
</event>
<event>
12    6  0.1540825E-007  0.1696084E+04  0.7818608E-02  0.8763601E-01
          2   -1    0    0  501    0  0.00000000000E+00  0.00000000000E+00  0.15118012136E+04  0.15118012136E+04  0.00000000000E+00 0. -1.
         -1   -1    0    0    0  501 -0.00000000000E+00 -0.00000000000E+00 -0.47570744346E+03  0.47570744346E+03  0.00000000000E+00 0.  1.
         24    2    1    2    0    0  0.26830688554E+03 -0.45924607087E+03  0.71056696181E+03  0.89125648645E+03  0.80852822904E+02 0.  0.
        254    2    1    2    0    0 -0.26830688554E+03  0.45924607087E+03  0.32552680836E+03  0.10962521706E+04  0.90161276624E+03 0.  0.
         23    2    4    4    0    0 -0.35133197057E+03 -0.17276035070E+03  0.13114323793E+03  0.42346866934E+03  0.94057815941E+02 0.  0.
         23    2    4    4    0    0  0.83025085027E+02  0.63200642156E+03  0.19438357043E+03  0.67278350130E+03  0.92343844031E+02 0.  0.
          4    1    3    3  502    0  0.23942366226E+03 -0.40406677183E+03  0.57783556831E+03  0.74463923490E+03  0.00000000000E+00 0. -1.
         -3    1    3    3    0  502  0.28883223282E+02 -0.55179299041E+02  0.13273139350E+03  0.14661725155E+03  0.00000000000E+00 0.  1.
         11    1    5    5    0    0 -0.29704747198E+03 -0.11253442010E+03  0.12757356179E+03  0.34231010792E+03  0.00000000000E+00 0. -1.
        -11    1    5    5    0    0 -0.54284498587E+02 -0.60225930599E+02  0.35696761384E+01  0.81158561416E+02  0.00000000000E+00 0.  1.
          4    1    6    6  503    0  0.96197602561E+02  0.55177322882E+03  0.14860629529E+03  0.57947519859E+03  0.00000000000E+00 0. -1.
         -4    1    6    6    0  503 -0.13172517535E+02  0.80233192747E+02  0.45777275137E+02  0.93308302715E+02  0.00000000000E+00 0.  1.
<mgrwt>
<rscale>  0 0.16960838E+04</rscale>
<asrwt>0</asrwt>
<pdfrwt beam="1">  1        2 0.23258480E+00 0.16960838E+04</pdfrwt>
<pdfrwt beam="2">  1       -1 0.73185761E-01 0.16960838E+04</pdfrwt>
<totfact> 0.25511851E+01</totfact>
</mgrwt>
</event>
<event>
12    6  0.1540825E-007  0.2755844E+04  0.7818608E-02  0.8317110E-01
         -1   -1    0    0    0  501 -0.00000000000E+00  0.00000000000E+00  0.21702802908E+04  0.21702802908E+04  0.00000000000E+00 0.  1.
          2   -1    0    0  501    0  0.00000000000E+00 -0.00000000000E+00 -0.87484985170E+03  0.87484985170E+03  0.00000000000E+00 0. -1.
         24    2    1    2    0    0  0.10014364329E+04 -0.31668231390E+03 -0.12501741264E+03  0.10609867819E+04  0.83072143044E+02 0.  0.
        254    2    1    2    0    0 -0.10014364329E+04  0.31668231390E+03  0.14204478518E+04  0.19841433606E+04  0.90332173612E+03 0.  0.
         23    2    4    4    0    0 -0.67313268595E+03  0.41301124521E+02  0.13863785938E+04  0.15444187275E+04  0.91488822117E+02 0.  0.
         23    2    4    4    0    0 -0.32830374690E+03  0.27538118938E+03  0.34069257981E+02  0.43972463318E+03  0.92622292135E+02 0.  0.
          2    1    3    3  502    0  0.95565882419E+03 -0.28465413759E+03 -0.12619159396E+03  0.10051050118E+04  0.00000000000E+00 0. -1.
         -1    1    3    3    0  502  0.45777608657E+02 -0.32028176307E+02  0.11741813171E+01  0.55881770137E+02  0.00000000000E+00 0.  1.
         11    1    5    5    0    0 -0.45106343179E+03  0.35574692946E+01  0.84053306776E+03  0.95392175417E+03  0.00000000000E+00 0. -1.
        -11    1    5    5    0    0 -0.22206925417E+03  0.37743655226E+02  0.54584552604E+03  0.59049697328E+03  0.00000000000E+00 0.  1.
          2    1    6    6  503    0 -0.14481769654E+02  0.45564635053E+02  0.15684276103E+02  0.50317533094E+02  0.00000000000E+00 0. -1.
         -2    1    6    6    0  503 -0.31382197724E+03  0.22981655432E+03  0.18384981878E+02  0.38940710009E+03  0.00000000000E+00 0.  1.
<mgrwt>
<rscale>  0 0.27558443E+04</rscale>
<asrwt>0</asrwt>
<pdfrwt beam="1">  1        2 0.13459229E+00 0.27558443E+04</pdfrwt>
<pdfrwt beam="2">  1       -1 0.33388927E+00 0.27558443E+04</pdfrwt>
<totfact> 0.60282536E-01</totfact>
</mgrwt>
</event>
<event>
12    6  0.1540825E-007  0.2489695E+04  0.7818608E-02  0.8406666E-01
          2   -1    0    0  501    0  0.00000000000E+00  0.00000000000E+00  0.26732951911E+04  0.26732951911E+04  0.00000000000E+00 0. -1.
         -1   -1    0    0    0  501 -0.00000000000E+00 -0.00000000000E+00 -0.57967608460E+03  0.57967608460E+03  0.00000000000E+00 0.  1.
         24    2    1    2    0    0  0.53155573683E+03  0.62072751910E+03 -0.13138728743E+02  0.82200795566E+03  0.87580241178E+02 0.  0.
        254    2    1    2    0    0 -0.53155573683E+03 -0.62072751910E+03  0.21067578353E+04  0.24309633201E+04  0.89627001109E+03 0.  0.
         23    2    4    4    0    0 -0.62901038662E+03 -0.56139317549E+03  0.21158238059E+04  0.22794872869E+04  0.92388035917E+02 0.  0.
         23    2    4    4    0    0  0.97454649792E+02 -0.59334343606E+02 -0.90659706734E+01  0.15147603322E+03  0.99221085054E+02 0.  0.
          2    1    3    3  502    0  0.28985902375E+03  0.27912423282E+03 -0.27085212417E+02  0.40331402124E+03  0.00000000000E+00 0. -1.
         -3    1    3    3    0  502  0.24169671308E+03  0.34160328628E+03  0.13946483674E+02  0.41869393442E+03  0.00000000000E+00 0.  1.
         11    1    5    5    0    0 -0.21979310767E+03 -0.14011762844E+03  0.62886667022E+03  0.68074609723E+03  0.00000000000E+00 0.  1.
        -11    1    5    5    0    0 -0.40921727895E+03 -0.42127554705E+03  0.14869571357E+04  0.15987411896E+04  0.00000000000E+00 0. -1.
          4    1    6    6  503    0  0.95892659923E+02 -0.82246771847E+02  0.11568069492E+01  0.12633792744E+03  0.00000000000E+00 0.  1.
         -4    1    6    6    0  503  0.15619898692E+01  0.22912428241E+02 -0.10222777623E+02  0.25138105787E+02  0.00000000000E+00 0. -1.
<mgrwt>
<rscale>  0 0.24896950E+04</rscale>
<asrwt>0</asrwt>
<pdfrwt beam="1">  1        2 0.41127618E+00 0.24896950E+04</pdfrwt>
<pdfrwt beam="2">  1       -1 0.89180937E-01 0.24896950E+04</pdfrwt>
<totfact> 0.34463048E+00</totfact>
</mgrwt>
</event>
<event>
12    6  0.1540825E-007  0.1366948E+04  0.7818608E-02  0.8978097E-01
         -1   -1    0    0    0  501 -0.00000000000E+00  0.00000000000E+00  0.13657427866E+03  0.13657427866E+03  0.00000000000E+00 0.  1.
          2   -1    0    0  501    0  0.00000000000E+00 -0.00000000000E+00 -0.34203836795E+04  0.34203836795E+04  0.00000000000E+00 0. -1.
         24    2    1    2    0    0 -0.10282463705E+03 -0.41354707439E+02 -0.12621602621E+04  0.12695171928E+04  0.79638292515E+02 0.  0.
        254    2    1    2    0    0  0.10282463705E+03  0.41354707439E+02 -0.20216491387E+04  0.22874407654E+04  0.10644420592E+04 0.  0.
         23    2    4    4    0    0  0.37718265221E+03 -0.35193074855E+03 -0.14092582604E+04  0.15034419820E+04  0.90592184415E+02 0.  0.
         23    2    4    4    0    0 -0.27435801516E+03  0.39328545599E+03 -0.61239087833E+03  0.78399878339E+03  0.98416127321E+02 0.  0.
          2    1    3    3  502    0 -0.60576375130E+02 -0.61273072060E+02 -0.66996555389E+03  0.67548333065E+03  0.00000000000E+00 0. -1.
         -1    1    3    3    0  502 -0.42248261921E+02  0.19918364621E+02 -0.59219470822E+03  0.59403386211E+03  0.00000000000E+00 0.  1.
         11    1    5    5    0    0  0.41942830001E+02 -0.26387285406E+02 -0.76605993869E+02  0.91235783091E+02  0.00000000000E+00 0.  1.
        -11    1    5    5    0    0  0.33523982221E+03 -0.32554346315E+03 -0.13326522665E+04  0.14122061989E+04  0.00000000000E+00 0. -1.
          1    1    6    6  503    0 -0.25738684769E+03  0.33196535282E+03 -0.56785880594E+03  0.70633746065E+03  0.00000000000E+00 0. -1.
         -1    1    6    6    0  503 -0.16971167476E+02  0.61320103169E+02 -0.44532072392E+02  0.77661322740E+02  0.00000000000E+00 0.  1.
<mgrwt>
<rscale>  0 0.13669476E+04</rscale>
<asrwt>0</asrwt>
<pdfrwt beam="1">  1        2 0.52621287E+00 0.13669476E+04</pdfrwt>
<pdfrwt beam="2">  1       -1 0.21011428E-01 0.13669476E+04</pdfrwt>
<totfact> 0.19639373E+01</totfact>
</mgrwt>
</event>
<event>
12    6  0.1540825E-007  0.1770164E+04  0.7818608E-02  0.8722329E-01
          2   -1    0    0  501    0  0.00000000000E+00  0.00000000000E+00  0.16287935133E+04  0.16287935133E+04  0.00000000000E+00 0. -1.
         -1   -1    0    0    0  501 -0.00000000000E+00 -0.00000000000E+00 -0.48095092175E+03  0.48095092175E+03  0.00000000000E+00 0.  1.
         24    2    1    2    0    0  0.59481819065E+03 -0.83853317524E+02  0.79297740529E+03  0.99739893993E+03  0.71773402436E+02 0.  0.
        254    2    1    2    0    0 -0.59481819065E+03  0.83853317524E+02  0.35486518627E+03  0.11123454951E+04  0.86633892981E+03 0.  0.
         23    2    4    4    0    0 -0.80668555228E+03  0.11248152113E+03  0.24645181392E+03  0.85604989352E+03  0.93216150741E+02 0.  0.
         23    2    4    4    0    0  0.21186736164E+03 -0.28628203608E+02  0.10841337235E+03  0.25629560160E+03  0.90700733881E+02 0.  0.
          4    1    3    3  502    0  0.58977846799E+03 -0.76524468845E+02  0.77124286072E+03  0.97391487608E+03  0.00000000000E+00 0. -1.
         -3    1    3    3    0  502  0.50397226530E+01 -0.73288486788E+01  0.21734544570E+02  0.23484063853E+02  0.00000000000E+00 0.  1.
         11    1    5    5    0    0 -0.19958228026E+03  0.55070577025E+02  0.31282807660E+02  0.20939070921E+03  0.00000000000E+00 0. -1.
        -11    1    5    5    0    0 -0.60710327202E+03  0.57410944106E+02  0.21516900626E+03  0.64665918431E+03  0.00000000000E+00 0.  1.
          2    1    6    6  503    0  0.34076344087E+02 -0.38322490259E+02  0.41901184400E+02  0.66223256792E+02  0.00000000000E+00 0. -1.
         -2    1    6    6    0  503  0.17779101755E+03  0.96942866511E+01  0.66512187948E+02  0.19007234481E+03  0.00000000000E+00 0.  1.
<mgrwt>
<rscale>  0 0.17701635E+04</rscale>
<asrwt>0</asrwt>
<pdfrwt beam="1">  1        2 0.25058361E+00 0.17701635E+04</pdfrwt>
<pdfrwt beam="2">  1       -1 0.73992450E-01 0.17701635E+04</pdfrwt>
<totfact> 0.21305931E+01</totfact>
</mgrwt>
</event>
<event>
12    6  0.1540825E-007  0.1487481E+04  0.7818608E-02  0.8892821E-01
         -1   -1    0    0    0  501 -0.00000000000E+00  0.00000000000E+00  0.26164886100E+03  0.26164886100E+03  0.00000000000E+00 0.  1.
          2   -1    0    0  501    0  0.00000000000E+00 -0.00000000000E+00 -0.21140933523E+04  0.21140933523E+04  0.00000000000E+00 0. -1.
         24    2    1    2    0    0 -0.66157046045E+02  0.92785909813E+02  0.13498643646E+03  0.19399657461E+03  0.80170774782E+02 0.  0.
        254    2    1    2    0    0  0.66157046045E+02 -0.92785909813E+02 -0.19874309277E+04  0.21817456386E+04  0.89283053236E+03 0.  0.
         23    2    4    4    0    0  0.40012700265E+02  0.38914577752E+03 -0.10299115546E+04  0.11055963270E+04  0.92682120565E+02 0.  0.
         23    2    4    4    0    0  0.26144345780E+02 -0.48193168734E+03 -0.95751937309E+03  0.10761493117E+04  0.91171887904E+02 0.  0.
          4    1    3    3  502    0 -0.32165802230E+02 -0.16436676979E+01  0.10044050861E+02  0.33737567107E+02  0.00000000000E+00 0. -1.
         -3    1    3    3    0  502 -0.33991243815E+02  0.94429577511E+02  0.12494238560E+03  0.16025900750E+03  0.00000000000E+00 0.  1.
         11    1    5    5    0    0 -0.26255101878E+02  0.70028929809E+02 -0.15946812060E+03  0.17613478610E+03  0.00000000000E+00 0.  1.
        -11    1    5    5    0    0  0.66267802143E+02  0.31911684772E+03 -0.87044343402E+03  0.92946154085E+03  0.00000000000E+00 0. -1.
          3    1    6    6  503    0  0.51268169430E+02 -0.42187158040E+03 -0.80428289298E+03  0.90965654370E+03  0.00000000000E+00 0. -1.
         -3    1    6    6    0  503 -0.25123823651E+02 -0.60060106936E+02 -0.15323648010E+03  0.16649276800E+03  0.00000000000E+00 0.  1.
<mgrwt>
<rscale>  0 0.14874813E+04</rscale>
<asrwt>0</asrwt>
<pdfrwt beam="1">  1        2 0.32524513E+00 0.14874813E+04</pdfrwt>
<pdfrwt beam="2">  1       -1 0.40253671E-01 0.14874813E+04</pdfrwt>
<totfact> 0.38298068E+01</totfact>
</mgrwt>
</event>
<event>
12    6  0.1540825E-007  0.2217662E+04  0.7818608E-02  0.8511113E-01
         -1   -1    0    0    0  501 -0.00000000000E+00  0.00000000000E+00  0.72939053061E+03  0.72939053061E+03  0.00000000000E+00 0.  1.
          2   -1    0    0  501    0  0.00000000000E+00 -0.00000000000E+00 -0.16856616800E+04  0.16856616800E+04  0.00000000000E+00 0. -1.
         24    2    1    2    0    0  0.80909585179E+03 -0.42713043851E+03 -0.54212037802E+03  0.10665629108E+04  0.81150659040E+02 0.  0.
        254    2    1    2    0    0 -0.80909585179E+03  0.42713043851E+03 -0.41415077136E+03  0.13484892998E+04  0.89990334007E+03 0.  0.
         23    2    4    4    0    0 -0.80993537089E+03  0.49011745656E+02 -0.58475423688E+02  0.81924256242E+03  0.96651666734E+02 0.  0.
         23    2    4    4    0    0  0.83951909255E+00  0.37811869285E+03 -0.35567534767E+03  0.52924673741E+03  0.10306650982E+03 0.  0.
          2    1    3    3  502    0  0.37823118933E+03 -0.23850429761E+03 -0.28929021207E+03  0.53257108386E+03  0.00000000000E+00 0. -1.
         -1    1    3    3    0  502  0.43086466246E+03 -0.18862614090E+03 -0.25283016595E+03  0.53399182691E+03  0.00000000000E+00 0.  1.
         11    1    5    5    0    0 -0.41751705819E+03  0.72423317084E+02 -0.19522013754E+02  0.42420129627E+03  0.00000000000E+00 0. -1.
        -11    1    5    5    0    0 -0.39241831269E+03 -0.23411571428E+02 -0.38953409934E+02  0.39504126615E+03  0.00000000000E+00 0.  1.
          4    1    6    6  503    0  0.22281052744E+01  0.25040697724E+02  0.37396689670E+01  0.25416256995E+02  0.00000000000E+00 0.  1.
         -4    1    6    6    0  503 -0.13885861818E+01  0.35307799513E+03 -0.35941501664E+03  0.50383048042E+03  0.00000000000E+00 0. -1.
<mgrwt>
<rscale>  0 0.22176615E+04</rscale>
<asrwt>0</asrwt>
<pdfrwt beam="1">  1        2 0.25933256E+00 0.22176615E+04</pdfrwt>
<pdfrwt beam="2">  1       -1 0.11221393E+00 0.22176615E+04</pdfrwt>
<totfact> 0.75570457E+00</totfact>
</mgrwt>
</event>
<event>
12    6  0.1540825E-007  0.3241312E+04  0.7818608E-02  0.8177991E-01
         -1   -1    0    0    0  501 -0.00000000000E+00  0.00000000000E+00  0.17387383469E+04  0.17387383469E+04  0.00000000000E+00 0.  1.
          2   -1    0    0  501    0  0.00000000000E+00 -0.00000000000E+00 -0.15105926482E+04  0.15105926482E+04  0.00000000000E+00 0. -1.
         24    2    1    2    0    0 -0.11189542907E+04 -0.63736118737E+03 -0.64937890578E+03  0.14438290692E+04  0.68274665846E+02 0.  0.
        254    2    1    2    0    0  0.11189542907E+04  0.63736118737E+03  0.87752460446E+03  0.18055019259E+04  0.91186610045E+03 0.  0.
         23    2    4    4    0    0  0.27871230229E+03  0.52211098170E+03  0.72330983376E+03  0.93912755156E+03  0.92211809566E+02 0.  0.
         23    2    4    4    0    0  0.84024198842E+03  0.11525020567E+03  0.15421477069E+03  0.86637437434E+03  0.86793732523E+02 0.  0.
          4    1    3    3  502    0 -0.94581291987E+03 -0.56628097787E+03 -0.55288306623E+03  0.12332541953E+04  0.00000000000E+00 0. -1.
         -3    1    3    3    0  502 -0.17314137084E+03 -0.71080209499E+02 -0.96495839546E+02  0.21057487392E+03  0.00000000000E+00 0.  1.
         11    1    5    5    0    0  0.12124768497E+03  0.13976417663E+03  0.20687903575E+03  0.27754992634E+03  0.00000000000E+00 0.  1.
        -11    1    5    5    0    0  0.15746461732E+03  0.38234680507E+03  0.51643079801E+03  0.66157762522E+03  0.00000000000E+00 0. -1.
          1    1    6    6  503    0  0.10399947132E+03 -0.29537031435E+01  0.42475145473E+02  0.11237772190E+03  0.00000000000E+00 0. -1.
         -1    1    6    6    0  503  0.73624251710E+03  0.11820390881E+03  0.11173962522E+03  0.75399665244E+03  0.00000000000E+00 0.  1.
<mgrwt>
<rscale>  0 0.32413117E+04</rscale>
<asrwt>0</asrwt>
<pdfrwt beam="1">  1        2 0.23239887E+00 0.32413117E+04</pdfrwt>
<pdfrwt beam="2">  1       -1 0.26749821E+00 0.32413117E+04</pdfrwt>
<totfact> 0.64159458E-01</totfact>
</mgrwt>
</event>
<event>
12    6  0.1540825E-007  0.1451196E+04  0.7818608E-02  0.8917572E-01
         -1   -1    0    0    0  501 -0.00000000000E+00  0.00000000000E+00  0.30782880224E+03  0.30782880224E+03  0.00000000000E+00 0.  1.
          2   -1    0    0  501    0  0.00000000000E+00 -0.00000000000E+00 -0.17103405926E+04  0.17103405926E+04  0.00000000000E+00 0. -1.
         24    2    1    2    0    0 -0.60929544043E+02 -0.12581800308E+03  0.15035728567E+03  0.22060454211E+03  0.80724664199E+02 0.  0.
        254    2    1    2    0    0  0.60929544043E+02  0.12581800308E+03 -0.15528690761E+04  0.17975648528E+04  0.89459178025E+03 0.  0.
         23    2    4    4    0    0 -0.19596075586E+03 -0.24568978480E+03 -0.23986281951E+03  0.40589763004E+03  0.91949038583E+02 0.  0.
         23    2    4    4    0    0  0.25689029990E+03  0.37150778788E+03 -0.13130062566E+04  0.13916672227E+04  0.93496344524E+02 0.  0.
          2    1    3    3  502    0  0.17643137148E+02 -0.36445499811E+02  0.24171988933E+02  0.47157605896E+02  0.00000000000E+00 0. -1.
         -1    1    3    3    0  502 -0.78572681190E+02 -0.89372503269E+02  0.12618529673E+03  0.17344693621E+03  0.00000000000E+00 0.  1.
         11    1    5    5    0    0 -0.15591202813E+03 -0.23467343188E+03 -0.22871294987E+03  0.36289088385E+03  0.00000000000E+00 0.  1.
        -11    1    5    5    0    0 -0.40048727732E+02 -0.11016352917E+02 -0.11149869644E+02  0.43006746187E+02  0.00000000000E+00 0. -1.
          4    1    6    6  503    0  0.74037084074E+02  0.44471436736E+02 -0.23031885572E+03  0.24597962071E+03  0.00000000000E+00 0. -1.
         -4    1    6    6    0  503  0.18285321583E+03  0.32703635114E+03 -0.10826874008E+04  0.11456876020E+04  0.00000000000E+00 0.  1.
<mgrwt>
<rscale>  0 0.14511955E+04</rscale>
<asrwt>0</asrwt>
<pdfrwt beam="1">  1        2 0.26312932E+00 0.14511955E+04</pdfrwt>
<pdfrwt beam="2">  1       -1 0.47358277E-01 0.14511955E+04</pdfrwt>
<totfact> 0.47566753E+01</totfact>
</mgrwt>
</event>
<event>
12    6  0.1540825E-007  0.1302791E+04  0.7818608E-02  0.9027355E-01
          2   -1    0    0  501    0  0.00000000000E+00  0.00000000000E+00  0.17958586235E+04  0.17958586235E+04  0.00000000000E+00 0. -1.
         -1   -1    0    0    0  501 -0.00000000000E+00 -0.00000000000E+00 -0.23627484794E+03  0.23627484794E+03  0.00000000000E+00 0.  1.
         24    2    1    2    0    0 -0.15854287070E+03  0.26952011470E+03  0.61090906005E+03  0.69112912728E+03  0.81686332077E+02 0.  0.
        254    2    1    2    0    0  0.15854287070E+03 -0.26952011470E+03  0.94867471554E+03  0.13410043442E+04  0.89472453926E+03 0.  0.
         23    2    4    4    0    0  0.11978598245E+03  0.29990074807E+03  0.52985683185E+03  0.62710834816E+03  0.90705445182E+02 0.  0.
         23    2    4    4    0    0  0.38756888247E+02 -0.56942086277E+03  0.41881788369E+03  0.71389599603E+03  0.92178403697E+02 0.  0.
          2    1    3    3  502    0 -0.70301292797E+02  0.19126157384E+03  0.41793590062E+03  0.46496631966E+03  0.00000000000E+00 0. -1.
         -1    1    3    3    0  502 -0.88241577902E+02  0.78258540861E+02  0.19297315943E+03  0.22616280762E+03  0.00000000000E+00 0.  1.
         11    1    5    5    0    0  0.21153040811E+02  0.47997196770E+01  0.57758192450E+02  0.61696817094E+02  0.00000000000E+00 0. -1.
        -11    1    5    5    0    0  0.98632941641E+02  0.29510102839E+03  0.47209863940E+03  0.56541153107E+03  0.00000000000E+00 0.  1.
          1    1    6    6  503    0 -0.69212257518E+01 -0.14728475411E+02  0.32639741323E+02  0.36471688575E+02  0.00000000000E+00 0. -1.
         -1    1    6    6    0  503  0.45678113999E+02 -0.55469238736E+03  0.38617814237E+03  0.67742430746E+03  0.00000000000E+00 0.  1.
<mgrwt>
<rscale>  0 0.13027912E+04</rscale>
<asrwt>0</asrwt>
<pdfrwt beam="1">  1        2 0.27628593E+00 0.13027912E+04</pdfrwt>
<pdfrwt beam="2">  1       -1 0.36349978E-01 0.13027912E+04</pdfrwt>
<totfact> 0.70208466E+01</totfact>
</mgrwt>
</event>
<event>
12    6  0.1540825E-007  0.1192787E+04  0.7818608E-02  0.9119194E-01
          2   -1    0    0  501    0  0.00000000000E+00  0.00000000000E+00  0.29023976714E+04  0.29023976714E+04  0.00000000000E+00 0. -1.
         -1   -1    0    0    0  501 -0.00000000000E+00 -0.00000000000E+00 -0.12254866901E+03  0.12254866901E+03  0.00000000000E+00 0.  1.
         24    2    1    2    0    0 -0.14189948680E+03  0.14297844533E+03  0.22051279476E+03  0.30893122109E+03  0.78957624888E+02 0.  0.
        254    2    1    2    0    0  0.14189948680E+03 -0.14297844533E+03  0.25593362076E+04  0.27160151193E+04  0.88654272568E+03 0.  0.
         23    2    4    4    0    0  0.49466937342E+03 -0.19534290321E+03  0.15130937348E+04  0.16065373816E+04  0.93021874790E+02 0.  0.
         23    2    4    4    0    0 -0.35276988662E+03  0.52364457874E+02  0.10462424728E+04  0.11094777377E+04  0.95545325762E+02 0.  0.
          2    1    3    3  502    0 -0.44700521457E+02  0.29987757765E+02  0.16550257005E+02  0.56314414152E+02  0.00000000000E+00 0. -1.
         -3    1    3    3    0  502 -0.97198965344E+02  0.11299068757E+03  0.20396253776E+03  0.25261680694E+03  0.00000000000E+00 0.  1.
         11    1    5    5    0    0  0.22260371707E+02 -0.32186738397E+02  0.86865648377E+02  0.95274084331E+02  0.00000000000E+00 0. -1.
        -11    1    5    5    0    0  0.47240900172E+03 -0.16315616481E+03  0.14262280865E+04  0.15112632972E+04  0.00000000000E+00 0.  1.
          3    1    6    6  503    0 -0.37599911381E+02  0.33953392035E+02  0.10264432260E+03  0.11446590378E+03  0.00000000000E+00 0. -1.
         -3    1    6    6    0  503 -0.31516997524E+03  0.18411065839E+02  0.94359815019E+03  0.99501183394E+03  0.00000000000E+00 0.  1.
<mgrwt>
<rscale>  0 0.11927866E+04</rscale>
<asrwt>0</asrwt>
<pdfrwt beam="1">  1        2 0.44652267E+00 0.11927866E+04</pdfrwt>
<pdfrwt beam="2">  1       -1 0.18853644E-01 0.11927866E+04</pdfrwt>
<totfact> 0.51488415E+01</totfact>
</mgrwt>
</event>
<event>
12    6  0.1540825E-007  0.1148884E+04  0.7818608E-02  0.9158814E-01
          2   -1    0    0  501    0  0.00000000000E+00  0.00000000000E+00  0.21889155724E+04  0.21889155724E+04  0.00000000000E+00 0. -1.
         -1   -1    0    0    0  501 -0.00000000000E+00 -0.00000000000E+00 -0.15075202988E+03  0.15075202988E+03  0.00000000000E+00 0.  1.
         24    2    1    2    0    0 -0.70033644917E+02  0.10324197801E+02  0.77679912473E+03  0.78424997907E+03  0.81362454611E+02 0.  0.
        254    2    1    2    0    0  0.70033644917E+02 -0.10324197801E+02  0.12613644178E+04  0.15554176232E+04  0.90734364363E+03 0.  0.
         23    2    4    4    0    0 -0.26077420290E+01  0.32355622667E+03  0.11291018214E+03  0.35366669663E+03  0.87384157264E+02 0.  0.
         23    2    4    4    0    0  0.72641386946E+02 -0.33388042447E+03  0.11484542357E+04  0.12017509266E+04  0.92223907856E+02 0.  0.
          4    1    3    3  502    0 -0.61272324822E+02  0.34220537055E+02  0.36629572563E+03  0.37295831076E+03  0.00000000000E+00 0. -1.
         -3    1    3    3    0  502 -0.87613200949E+01 -0.23896339254E+02  0.41050339909E+03  0.41129166832E+03  0.00000000000E+00 0.  1.
         11    1    5    5    0    0  0.23227565077E+02  0.36013123668E+02  0.33065622566E+02  0.54127629279E+02  0.00000000000E+00 0. -1.
        -11    1    5    5    0    0 -0.25835307106E+02  0.28754310300E+03  0.79844559570E+02  0.29953906736E+03  0.00000000000E+00 0.  1.
          4    1    6    6  503    0 -0.54100977520E+01  0.26562848408E+01  0.73908661034E+01  0.95367661500E+01  0.00000000000E+00 0. -1.
         -4    1    6    6    0  503  0.78051484698E+02 -0.33653670932E+03  0.11410633696E+04  0.11922141604E+04  0.00000000000E+00 0.  1.
<mgrwt>
<rscale>  0 0.11488837E+04</rscale>
<asrwt>0</asrwt>
<pdfrwt beam="1">  1        2 0.33675622E+00 0.11488837E+04</pdfrwt>
<pdfrwt beam="2">  1       -1 0.23192622E-01 0.11488837E+04</pdfrwt>
<totfact> 0.94407559E+01</totfact>
</mgrwt>
</event>
<event>
12    6  0.1540825E-007  0.3300968E+04  0.7818608E-02  0.8162649E-01
         -1   -1    0    0    0  501 -0.00000000000E+00  0.00000000000E+00  0.22068811323E+04  0.22068811323E+04  0.00000000000E+00 0.  1.
          2   -1    0    0  501    0  0.00000000000E+00 -0.00000000000E+00 -0.12343655583E+04  0.12343655583E+04  0.00000000000E+00 0. -1.
         24    2    1    2    0    0 -0.88352169388E+03 -0.46998121244E+02  0.17480868513E+04  0.19608123229E+04  0.78472408328E+02 0.  0.
        254    2    1    2    0    0  0.88352169388E+03  0.46998121244E+02 -0.77557127725E+03  0.14804343678E+04  0.89852974586E+03 0.  0.
         23    2    4    4    0    0  0.33258837520E+03  0.45171544743E+03 -0.40825000834E+03  0.69973997990E+03  0.91137793399E+02 0.  0.
         23    2    4    4    0    0  0.55093331868E+03 -0.40471732619E+03 -0.36732126891E+03  0.78069438786E+03  0.85059843080E+02 0.  0.
          4    1    3    3  502    0 -0.12197417896E+03 -0.32584733411E+02  0.23093482931E+03  0.26319263017E+03  0.00000000000E+00 0. -1.
         -3    1    3    3    0  502 -0.76154751493E+03 -0.14413387833E+02  0.15171520220E+04  0.16976196927E+04  0.00000000000E+00 0.  1.
         11    1    5    5    0    0  0.16596996774E+03  0.16636307055E+03 -0.20464850033E+03  0.31161468213E+03  0.00000000000E+00 0. -1.
        -11    1    5    5    0    0  0.16661840746E+03  0.28535237688E+03 -0.20360150801E+03  0.38812529776E+03  0.00000000000E+00 0.  1.
          4    1    6    6  503    0  0.20405656368E+03 -0.19959030511E+03 -0.13838253855E+03  0.31721459306E+03  0.00000000000E+00 0. -1.
         -4    1    6    6    0  503  0.34687675500E+03 -0.20512702108E+03 -0.22893873036E+03  0.46347979481E+03  0.00000000000E+00 0.  1.
<mgrwt>
<rscale>  0 0.33009684E+04</rscale>
<asrwt>0</asrwt>
<pdfrwt beam="1">  1        2 0.18990239E+00 0.33009684E+04</pdfrwt>
<pdfrwt beam="2">  1       -1 0.33952017E+00 0.33009684E+04</pdfrwt>
<totfact> 0.31317432E-01</totfact>
</mgrwt>
</event>
<event>
12    6  0.1540825E-007  0.3695551E+04  0.7818608E-02  0.8068948E-01
         -1   -1    0    0    0  501 -0.00000000000E+00  0.00000000000E+00  0.16252451343E+04  0.16252451343E+04  0.00000000000E+00 0.  1.
          2   -1    0    0  501    0  0.00000000000E+00 -0.00000000000E+00 -0.21007749762E+04  0.21007749762E+04  0.00000000000E+00 0. -1.
         24    2    1    2    0    0  0.77057236762E+02  0.81691201944E+02  0.15216320399E+04  0.15278845781E+04  0.80348918688E+02 0.  0.
        254    2    1    2    0    0 -0.77057236762E+02 -0.81691201944E+02 -0.19971618819E+04  0.21981355324E+04  0.91133581419E+03 0.  0.
         23    2    4    4    0    0 -0.43489416017E+02 -0.40256078590E+03 -0.17000656654E+04  0.17500251112E+04  0.91750244575E+02 0.  0.
         23    2    4    4    0    0 -0.33567820745E+02  0.32086958396E+03 -0.29709621644E+03  0.44811042122E+03  0.91938562540E+02 0.  0.
          4    1    3    3  502    0  0.16647079543E+02 -0.86054160458E+01  0.80033992200E+02  0.82198651753E+02  0.00000000000E+00 0. -1.
         -3    1    3    3    0  502  0.60410157220E+02  0.90296617990E+02  0.14415980477E+04  0.14456859263E+04  0.00000000000E+00 0.  1.
         11    1    5    5    0    0 -0.70464217700E+02 -0.28177724118E+03 -0.12448698352E+04  0.12783053337E+04  0.00000000000E+00 0.  1.
        -11    1    5    5    0    0  0.26974801683E+02 -0.12078354472E+03 -0.45519583027E+03  0.47171977751E+03  0.00000000000E+00 0. -1.
          4    1    6    6  503    0 -0.15777352778E+02  0.83100643866E+02 -0.29218643940E+02  0.89489502319E+02  0.00000000000E+00 0. -1.
         -4    1    6    6    0  503 -0.17790467967E+02  0.23776894009E+03 -0.26787757250E+03  0.35862091890E+03  0.00000000000E+00 0.  1.
<mgrwt>
<rscale>  0 0.36955510E+04</rscale>
<asrwt>0</asrwt>
<pdfrwt beam="1">  1        2 0.32319615E+00 0.36955510E+04</pdfrwt>
<pdfrwt beam="2">  1       -1 0.25003771E+00 0.36955510E+04</pdfrwt>
<totfact> 0.37620251E-01</totfact>
</mgrwt>
</event>
<event>
12    6  0.1540825E-007  0.1442523E+04  0.7818608E-02  0.8923601E-01
          2   -1    0    0  501    0  0.00000000000E+00  0.00000000000E+00  0.26361848425E+04  0.26361848425E+04  0.00000000000E+00 0. -1.
         -1   -1    0    0    0  501 -0.00000000000E+00 -0.00000000000E+00 -0.19733751001E+03  0.19733751001E+03  0.00000000000E+00 0.  1.
         24    2    1    2    0    0 -0.72370671900E+02 -0.42798646338E+03  0.82178017587E+03  0.93316081318E+03  0.84003088213E+02 0.  0.
        254    2    1    2    0    0  0.72370671900E+02  0.42798646338E+03  0.16170671566E+04  0.19003615393E+04  0.89892038811E+03 0.  0.
         23    2    4    4    0    0  0.41826802420E+03  0.46637784709E+03  0.11215327491E+04  0.12879469117E+04  0.92277319378E+02 0.  0.
         23    2    4    4    0    0 -0.34589735231E+03 -0.38391383715E+02  0.49553440754E+03  0.61241462766E+03  0.91533875964E+02 0.  0.
          4    1    3    3  502    0 -0.12233321544E+02 -0.61425614930E+02  0.19239808552E+03  0.20233581897E+03  0.00000000000E+00 0. -1.
         -3    1    3    3    0  502 -0.60137350355E+02 -0.36656084845E+03  0.62938209035E+03  0.73082499422E+03  0.00000000000E+00 0.  1.
         11    1    5    5    0    0  0.21082623406E+03  0.18261234217E+03  0.55688326182E+03  0.62282737237E+03  0.00000000000E+00 0.  1.
        -11    1    5    5    0    0  0.20744179014E+03  0.28376550492E+03  0.56464948726E+03  0.66511953929E+03  0.00000000000E+00 0. -1.
          3    1    6    6  503    0 -0.14692026063E+03 -0.55220333182E+02  0.17805752170E+03  0.23735907232E+03  0.00000000000E+00 0. -1.
         -3    1    6    6    0  503 -0.19897709168E+03  0.16828949467E+02  0.31747688583E+03  0.37505555534E+03  0.00000000000E+00 0.  1.
<mgrwt>
<rscale>  0 0.14425230E+04</rscale>
<asrwt>0</asrwt>
<pdfrwt beam="1">  1        2 0.40556687E+00 0.14425230E+04</pdfrwt>
<pdfrwt beam="2">  1       -1 0.30359619E-01 0.14425230E+04</pdfrwt>
<totfact> 0.32135014E+01</totfact>
</mgrwt>
</event>
<event>
12    6  0.1540825E-007  0.1931815E+04  0.7818608E-02  0.8639180E-01
          2   -1    0    0  501    0  0.00000000000E+00  0.00000000000E+00  0.19604891126E+04  0.19604891126E+04  0.00000000000E+00 0. -1.
         -1   -1    0    0    0  501 -0.00000000000E+00 -0.00000000000E+00 -0.47588984139E+03  0.47588984139E+03  0.00000000000E+00 0.  1.
         24    2    1    2    0    0  0.57337062329E+03 -0.24678149514E+03  0.47359184616E+02  0.63114001700E+03  0.80248680334E+02 0.  0.
        254    2    1    2    0    0 -0.57337062329E+03  0.24678149514E+03  0.14372400866E+04  0.18052389370E+04  0.89642265426E+03 0.  0.
         23    2    4    4    0    0 -0.76107832845E+03  0.19446361205E+03  0.76852264333E+03  0.11026622022E+04  0.90446451043E+02 0.  0.
         23    2    4    4    0    0  0.18770770516E+03  0.52317883094E+02  0.66871744323E+03  0.70257673470E+03  0.91976658986E+02 0.  0.
          4    1    3    3  502    0  0.22975477638E+03 -0.74768297234E+02 -0.13935837847E+02  0.24201603897E+03  0.00000000000E+00 0. -1.
         -3    1    3    3    0  502  0.34361584692E+03 -0.17201319791E+03  0.61295022463E+02  0.38912397804E+03  0.00000000000E+00 0.  1.
         11    1    5    5    0    0 -0.74833140079E+03  0.18242966150E+03  0.76324762854E+03  0.10843557577E+04  0.00000000000E+00 0. -1.
        -11    1    5    5    0    0 -0.12746927662E+02  0.12033950545E+02  0.52750147835E+01  0.18306444535E+02  0.00000000000E+00 0.  1.
          4    1    6    6  503    0  0.62932678567E+02 -0.25069430087E+02  0.24218816155E+03  0.25148380456E+03  0.00000000000E+00 0. -1.
         -4    1    6    6    0  503  0.12477502659E+03  0.77387313181E+02  0.42652928168E+03  0.45109293015E+03  0.00000000000E+00 0.  1.
<mgrwt>
<rscale>  0 0.19318145E+04</rscale>
<asrwt>0</asrwt>
<pdfrwt beam="1">  1        2 0.30161371E+00 0.19318145E+04</pdfrwt>
<pdfrwt beam="2">  1       -1 0.73213823E-01 0.19318145E+04</pdfrwt>
<totfact> 0.14055718E+01</totfact>
</mgrwt>
</event>
<event>
12    6  0.1540825E-007  0.1924147E+04  0.7818608E-02  0.8642929E-01
          2   -1    0    0  501    0  0.00000000000E+00  0.00000000000E+00  0.23542855930E+04  0.23542855930E+04  0.00000000000E+00 0. -1.
         -1   -1    0    0    0  501 -0.00000000000E+00 -0.00000000000E+00 -0.39314924928E+03  0.39314924928E+03  0.00000000000E+00 0.  1.
         24    2    1    2    0    0 -0.22862040163E+03 -0.26472353907E+03 -0.17885658478E+03  0.40080808739E+03  0.79445609225E+02 0.  0.
        254    2    1    2    0    0  0.22862040163E+03  0.26472353907E+03  0.21399929285E+04  0.23466267549E+04  0.89707388357E+03 0.  0.
         23    2    4    4    0    0  0.49999973571E+02  0.56580311129E+03  0.10376345666E+04  0.11864277098E+04  0.91060741634E+02 0.  0.
         23    2    4    4    0    0  0.17862042806E+03 -0.30107957223E+03  0.11023583619E+04  0.11601990451E+04  0.91179493620E+02 0.  0.
          4    1    3    3  502    0 -0.12707056438E+03 -0.10059206244E+03 -0.53517204595E+02  0.17067449295E+03  0.00000000000E+00 0. -1.
         -3    1    3    3    0  502 -0.10154983725E+03 -0.16413147663E+03 -0.12533938018E+03  0.23013359444E+03  0.00000000000E+00 0.  1.
         11    1    5    5    0    0  0.53579901427E+02  0.20478202405E+03  0.43855102877E+03  0.48696353873E+03  0.00000000000E+00 0. -1.
        -11    1    5    5    0    0 -0.35799278556E+01  0.36102108724E+03  0.59908353782E+03  0.69946417106E+03  0.00000000000E+00 0.  1.
          4    1    6    6  503    0  0.27198217467E+02 -0.11878121561E+03  0.30748034094E+03  0.33074594522E+03  0.00000000000E+00 0. -1.
         -4    1    6    6    0  503  0.15142221059E+03 -0.18229835661E+03  0.79487802098E+03  0.82945309989E+03  0.00000000000E+00 0.  1.
<mgrwt>
<rscale>  0 0.19241472E+04</rscale>
<asrwt>0</asrwt>
<pdfrwt beam="1">  1        2 0.36219777E+00 0.19241472E+04</pdfrwt>
<pdfrwt beam="2">  1       -1 0.60484501E-01 0.19241472E+04</pdfrwt>
<totfact> 0.12460104E+01</totfact>
</mgrwt>
</event>
<event>
12    6  0.1540825E-007  0.1165118E+04  0.7818608E-02  0.9143949E-01
          2   -1    0    0  501    0  0.00000000000E+00  0.00000000000E+00  0.90348705075E+03  0.90348705075E+03  0.00000000000E+00 0. -1.
         -1   -1    0    0    0  501 -0.00000000000E+00 -0.00000000000E+00 -0.37562770341E+03  0.37562770341E+03  0.00000000000E+00 0.  1.
         24    2    1    2    0    0  0.15015040686E+03 -0.79785955491E+02 -0.50401405952E+02  0.19455946527E+03  0.80013376571E+02 0.  0.
        254    2    1    2    0    0 -0.15015040686E+03  0.79785955491E+02  0.57826075328E+03  0.10845552889E+04  0.90164501468E+03 0.  0.
         23    2    4    4    0    0 -0.23910384165E+03  0.36955297041E+03  0.61901111767E+03  0.76496396573E+03  0.90857360986E+02 0.  0.
         23    2    4    4    0    0  0.88953434786E+02 -0.28976701492E+03 -0.40750364384E+02  0.31959132316E+03  0.92738261486E+02 0.  0.
          4    1    3    3  502    0  0.30809285606E+02 -0.10831236288E+02  0.21502874479E+02  0.39101168396E+02  0.00000000000E+00 0. -1.
         -3    1    3    3    0  502  0.11934112125E+03 -0.68954719203E+02 -0.71904280431E+02  0.15545829687E+03  0.00000000000E+00 0.  1.
         11    1    5    5    0    0 -0.28246643231E+02  0.14329367139E+02  0.78674674866E+02  0.84811013917E+02  0.00000000000E+00 0. -1.
        -11    1    5    5    0    0 -0.21085719842E+03  0.35522360327E+03  0.54033644280E+03  0.68015295182E+03  0.00000000000E+00 0.  1.
          4    1    6    6  503    0  0.16947550133E+02 -0.12985321465E+03  0.23053438665E+02  0.13296818358E+03  0.00000000000E+00 0. -1.
         -4    1    6    6    0  503  0.72005884653E+02 -0.15991380027E+03 -0.63803803049E+02  0.18662313957E+03  0.00000000000E+00 0.  1.
<mgrwt>
<rscale>  0 0.11651176E+04</rscale>
<asrwt>0</asrwt>
<pdfrwt beam="1">  1        2 0.13899801E+00 0.11651176E+04</pdfrwt>
<pdfrwt beam="2">  1       -1 0.57788878E-01 0.11651176E+04</pdfrwt>
<totfact> 0.99816408E+01</totfact>
</mgrwt>
</event>
<event>
12    6  0.1540825E-007  0.1710416E+04  0.7818608E-02  0.8755446E-01
          2   -1    0    0  501    0  0.00000000000E+00  0.00000000000E+00  0.12278351824E+04  0.12278351824E+04  0.00000000000E+00 0. -1.
         -1   -1    0    0    0  501 -0.00000000000E+00 -0.00000000000E+00 -0.59566683179E+03  0.59566683179E+03  0.00000000000E+00 0.  1.
         24    2    1    2    0    0  0.75643967715E+02  0.33171343034E+03 -0.31264328794E+03  0.46887965480E+03  0.79664894866E+02 0.  0.
        254    2    1    2    0    0 -0.75643967715E+02 -0.33171343034E+03  0.94481163850E+03  0.13546223594E+04  0.90916274367E+03 0.  0.
         23    2    4    4    0    0  0.54911341314E+02 -0.43952530591E+03  0.68271849552E+02  0.45760494842E+03  0.92431019877E+02 0.  0.
         23    2    4    4    0    0 -0.13055530903E+03  0.10781187557E+03  0.87653978895E+03  0.89701741093E+03  0.87465105466E+02 0.  0.
          2    1    3    3  502    0 -0.47788736336E+01 -0.18364761453E+01 -0.10573799826E+02  0.11748000706E+02  0.00000000000E+00 0. -1.
         -1    1    3    3    0  502  0.80422841349E+02  0.33354990649E+03 -0.30206948811E+03  0.45713165410E+03  0.00000000000E+00 0.  1.
         11    1    5    5    0    0  0.15910207869E+01 -0.30350399097E+03  0.21786395588E+02  0.30428909102E+03  0.00000000000E+00 0. -1.
        -11    1    5    5    0    0  0.53320320527E+02 -0.13602131494E+03  0.46485453964E+02  0.15331585740E+03  0.00000000000E+00 0.  1.
          1    1    6    6  503    0 -0.35707811493E+02  0.24329884112E+02  0.45234886503E+03  0.45440784187E+03  0.00000000000E+00 0. -1.
         -1    1    6    6    0  503 -0.94847497537E+02  0.83481991454E+02  0.42419092392E+03  0.44260956906E+03  0.00000000000E+00 0.  1.
<mgrwt>
<rscale>  0 0.17104160E+04</rscale>
<asrwt>0</asrwt>
<pdfrwt beam="1">  1        2 0.18889772E+00 0.17104160E+04</pdfrwt>
<pdfrwt beam="2">  1       -1 0.91641051E-01 0.17104160E+04</pdfrwt>
<totfact> 0.22937922E+01</totfact>
</mgrwt>
</event>
<event>
12    6  0.1540825E-007  0.1648307E+04  0.7818608E-02  0.8791409E-01
          2   -1    0    0  501    0  0.00000000000E+00  0.00000000000E+00  0.12403212776E+04  0.12403212776E+04  0.00000000000E+00 0. -1.
         -1   -1    0    0    0  501 -0.00000000000E+00 -0.00000000000E+00 -0.54762327852E+03  0.54762327852E+03  0.00000000000E+00 0.  1.
         24    2    1    2    0    0 -0.46552670602E+03 -0.11004456975E+03  0.58959039109E+03  0.76348485849E+03  0.80420013309E+02 0.  0.
        254    2    1    2    0    0  0.46552670602E+03  0.11004456975E+03  0.10310760798E+03  0.10244596976E+04  0.90003420595E+03 0.  0.
         23    2    4    4    0    0  0.39351077856E+03 -0.15440019361E+03 -0.30113061104E+03  0.52750953849E+03  0.94321342547E+02 0.  0.
         23    2    4    4    0    0  0.72015927454E+02  0.26444476336E+03  0.40423821903E+03  0.49695015913E+03  0.91834613669E+02 0.  0.
          2    1    3    3  502    0 -0.16028820782E+03 -0.51489746629E+02  0.15248929026E+03  0.22714860162E+03  0.00000000000E+00 0. -1.
         -1    1    3    3    0  502 -0.30523849820E+03 -0.58554823123E+02  0.43710110083E+03  0.53633625688E+03  0.00000000000E+00 0.  1.
         11    1    5    5    0    0  0.24132143894E+03 -0.44631648640E+02 -0.16653421632E+03  0.29658332077E+03  0.00000000000E+00 0. -1.
        -11    1    5    5    0    0  0.15218933962E+03 -0.10976854497E+03 -0.13459639472E+03  0.23092621772E+03  0.00000000000E+00 0.  1.
          1    1    6    6  503    0  0.23635029539E+02  0.39232998123E+01  0.29744570132E+02  0.38193538133E+02  0.00000000000E+00 0. -1.
         -1    1    6    6    0  503  0.48380897915E+02  0.26052146355E+03  0.37449364889E+03  0.45875662100E+03  0.00000000000E+00 0.  1.
<mgrwt>
<rscale>  0 0.16483068E+04</rscale>
<asrwt>0</asrwt>
<pdfrwt beam="1">  1        2 0.19081866E+00 0.16483068E+04</pdfrwt>
<pdfrwt beam="2">  1       -1 0.84249735E-01 0.16483068E+04</pdfrwt>
<totfact> 0.27249837E+01</totfact>
</mgrwt>
</event>
<event>
12    6  0.1540825E-007  0.1694790E+04  0.7818608E-02  0.8764342E-01
         -1   -1    0    0    0  501 -0.00000000000E+00  0.00000000000E+00  0.57659931493E+03  0.57659931493E+03  0.00000000000E+00 0.  1.
          2   -1    0    0  501    0  0.00000000000E+00 -0.00000000000E+00 -0.12453671925E+04  0.12453671925E+04  0.00000000000E+00 0. -1.
         24    2    1    2    0    0  0.16325214488E+03 -0.58038082091E+03 -0.26341734861E+03  0.66256869529E+03  0.78201127479E+02 0.  0.
        254    2    1    2    0    0 -0.16325214488E+03  0.58038082091E+03 -0.40535052897E+03  0.11593978121E+04  0.90354915494E+03 0.  0.
         23    2    4    4    0    0 -0.45115313000E+03  0.55650319962E+03 -0.45415287721E+03  0.85252021250E+03  0.85445415081E+02 0.  0.
         23    2    4    4    0    0  0.28790098512E+03  0.23877621294E+02  0.48802348242E+02  0.30687759964E+03  0.91296626091E+02 0.  0.
          2    1    3    3  502    0  0.11465911962E+03 -0.28854936524E+03 -0.15895637170E+03  0.34881883263E+03  0.00000000000E+00 0. -1.
         -1    1    3    3    0  502  0.48593025267E+02 -0.29183145567E+03 -0.10446097691E+03  0.31374986266E+03  0.00000000000E+00 0.  1.
         11    1    5    5    0    0 -0.37213009003E+03  0.41580624375E+03 -0.37870560531E+03  0.67438384599E+03  0.00000000000E+00 0. -1.
        -11    1    5    5    0    0 -0.79023039975E+02  0.14069695586E+03 -0.75447271903E+02  0.17813636651E+03  0.00000000000E+00 0.  1.
          2    1    6    6  503    0  0.26870958311E+03  0.11066579286E+02  0.67384906585E+02  0.27725085187E+03  0.00000000000E+00 0. -1.
         -2    1    6    6    0  503  0.19191402015E+02  0.12811042008E+02 -0.18582558343E+02  0.29626747766E+02  0.00000000000E+00 0.  1.
<mgrwt>
<rscale>  0 0.16947895E+04</rscale>
<asrwt>0</asrwt>
<pdfrwt beam="1">  1        2 0.19159495E+00 0.16947895E+04</pdfrwt>
<pdfrwt beam="2">  1       -1 0.88707587E-01 0.16947895E+04</pdfrwt>
<totfact> 0.24094626E+01</totfact>
</mgrwt>
</event>
<event>
12    6  0.1540825E-007  0.1139893E+04  0.7818608E-02  0.9167158E-01
         -1   -1    0    0    0  501 -0.00000000000E+00  0.00000000000E+00  0.30877552701E+03  0.30877552701E+03  0.00000000000E+00 0.  1.
          2   -1    0    0  501    0  0.00000000000E+00 -0.00000000000E+00 -0.10520235134E+04  0.10520235134E+04  0.00000000000E+00 0. -1.
         24    2    1    2    0    0 -0.96302714094E+02  0.17555639644E+02  0.88020148649E+02  0.15409276063E+03  0.80091317158E+02 0.  0.
        254    2    1    2    0    0  0.96302714094E+02 -0.17555639644E+02 -0.83126813502E+03  0.12067062798E+04  0.86922432093E+03 0.  0.
         23    2    4    4    0    0 -0.33082153433E+03  0.17359027360E+03 -0.47842576326E+03  0.61361442896E+03  0.89749572782E+02 0.  0.
         23    2    4    4    0    0  0.42712424842E+03 -0.19114591324E+03 -0.35284237176E+03  0.59309185080E+03  0.91040213312E+02 0.  0.
          2    1    3    3  502    0 -0.93044230574E+01  0.96416262967E+00 -0.15346578689E+02  0.17972739787E+02  0.00000000000E+00 0. -1.
         -1    1    3    3    0  502 -0.86998291037E+02  0.16591477014E+02  0.10336672734E+03  0.13612002084E+03  0.00000000000E+00 0.  1.
         11    1    5    5    0    0 -0.67169884572E+02  0.19177505393E+02 -0.14750946079E+03  0.16321339139E+03  0.00000000000E+00 0. -1.
        -11    1    5    5    0    0 -0.26365164975E+03  0.15441276821E+03 -0.33091630247E+03  0.45040103757E+03  0.00000000000E+00 0.  1.
          2    1    6    6  503    0  0.53473076880E+02  0.66831373385E+01 -0.42310734346E+02  0.68514469396E+02  0.00000000000E+00 0. -1.
         -2    1    6    6    0  503  0.37365117154E+03 -0.19782905058E+03 -0.31053163741E+03  0.52457738141E+03  0.00000000000E+00 0.  1.
<mgrwt>
<rscale>  0 0.11398932E+04</rscale>
<asrwt>0</asrwt>
<pdfrwt beam="1">  1        2 0.16184977E+00 0.11398932E+04</pdfrwt>
<pdfrwt beam="2">  1       -1 0.47503927E-01 0.11398932E+04</pdfrwt>
<totfact> 0.11656742E+02</totfact>
</mgrwt>
</event>
<event>
12    6  0.1540825E-007  0.1442508E+04  0.7818608E-02  0.8923611E-01
          2   -1    0    0  501    0  0.00000000000E+00  0.00000000000E+00  0.62709188316E+03  0.62709188316E+03  0.00000000000E+00 0. -1.
         -1   -1    0    0    0  501 -0.00000000000E+00 -0.00000000000E+00 -0.82955484205E+03  0.82955484205E+03  0.00000000000E+00 0.  1.
         24    2    1    2    0    0 -0.35169739222E+03  0.22545126621E+03 -0.64144949911E+02  0.43034585173E+03  0.81016346299E+02 0.  0.
        254    2    1    2    0    0  0.35169739222E+03 -0.22545126621E+03 -0.13831800898E+03  0.10263008735E+04  0.92716896096E+03 0.  0.
         23    2    4    4    0    0  0.61350067861E+03  0.20387523116E+02  0.24899529634E+02  0.62138006734E+03  0.93244129920E+02 0.  0.
         23    2    4    4    0    0 -0.26180328638E+03 -0.24583878933E+03 -0.16321753861E+03  0.40492080614E+03  0.91341246098E+02 0.  0.
          2    1    3    3  502    0 -0.93432227329E+02  0.34435944442E+02  0.11768473636E+02  0.10026919938E+03  0.00000000000E+00 0. -1.
         -1    1    3    3    0  502 -0.25826516489E+03  0.19101532177E+03 -0.75913423547E+02  0.33007665235E+03  0.00000000000E+00 0.  1.
         11    1    5    5    0    0  0.14456243911E+03  0.42848492923E+02 -0.59065032316E+01  0.15089459542E+03  0.00000000000E+00 0. -1.
        -11    1    5    5    0    0  0.46893823950E+03 -0.22460969806E+02  0.30806032866E+02  0.47048547192E+03  0.00000000000E+00 0.  1.
          1    1    6    6  503    0 -0.92444274576E+02 -0.10235515928E+03 -0.11062664317E+03  0.17680717381E+03  0.00000000000E+00 0. -1.
         -1    1    6    6    0  503 -0.16935901181E+03 -0.14348363005E+03 -0.52590895446E+02  0.22811363233E+03  0.00000000000E+00 0.  1.
<mgrwt>
<rscale>  0 0.14425077E+04</rscale>
<asrwt>0</asrwt>
<pdfrwt beam="1">  1        2 0.96475674E-01 0.14425077E+04</pdfrwt>
<pdfrwt beam="2">  1       -1 0.12762382E+00 0.14425077E+04</pdfrwt>
<totfact> 0.27689135E+01</totfact>
</mgrwt>
</event>
<event>
12    6  0.1540825E-007  0.2445602E+04  0.7818608E-02  0.8422625E-01
          2   -1    0    0  501    0  0.00000000000E+00  0.00000000000E+00  0.11683418858E+04  0.11683418858E+04  0.00000000000E+00 0. -1.
         -1   -1    0    0    0  501 -0.00000000000E+00 -0.00000000000E+00 -0.12797987775E+04  0.12797987775E+04  0.00000000000E+00 0.  1.
         24    2    1    2    0    0  0.51428310129E+03  0.61249662127E+03 -0.74275250293E+03  0.10942805090E+04  0.78290053904E+02 0.  0.
        254    2    1    2    0    0 -0.51428310129E+03 -0.61249662127E+03  0.63129561125E+03  0.13538601543E+04  0.89149534450E+03 0.  0.
         23    2    4    4    0    0 -0.44496504000E+03 -0.74053839875E+03  0.20118762428E+03  0.89148368510E+03  0.88745105691E+02 0.  0.
         23    2    4    4    0    0 -0.69318061289E+02  0.12804177748E+03  0.43010798697E+03  0.46237646920E+03  0.87174700543E+02 0.  0.
          2    1    3    3  502    0  0.25259672050E+02  0.39070482796E+02 -0.70019224382E+02  0.84066910500E+02  0.00000000000E+00 0. -1.
         -1    1    3    3    0  502  0.48902342924E+03  0.57342613848E+03 -0.67273327854E+03  0.10102135985E+04  0.00000000000E+00 0.  1.
         11    1    5    5    0    0 -0.26659778935E+03 -0.38986057489E+03  0.14502027546E+03  0.49406126081E+03  0.00000000000E+00 0. -1.
        -11    1    5    5    0    0 -0.17836725065E+03 -0.35067782386E+03  0.56167348823E+02  0.39742242429E+03  0.00000000000E+00 0.  1.
          4    1    6    6  503    0 -0.37749390532E+02  0.58509850237E+02  0.89945436088E+02  0.11374796936E+03  0.00000000000E+00 0. -1.
         -4    1    6    6    0  503 -0.31568670757E+02  0.69531927240E+02  0.34016255089E+03  0.34862849984E+03  0.00000000000E+00 0.  1.
<mgrwt>
<rscale>  0 0.24456022E+04</rscale>
<asrwt>0</asrwt>
<pdfrwt beam="1">  1        2 0.17974491E+00 0.24456022E+04</pdfrwt>
<pdfrwt beam="2">  1       -1 0.19689212E+00 0.24456022E+04</pdfrwt>
<totfact> 0.31958582E+00</totfact>
</mgrwt>
</event>
<event>
12    6  0.1540825E-007  0.1369091E+04  0.7818608E-02  0.8976501E-01
          2   -1    0    0  501    0  0.00000000000E+00  0.00000000000E+00  0.22417817540E+04  0.22417817540E+04  0.00000000000E+00 0. -1.
         -1   -1    0    0    0  501 -0.00000000000E+00 -0.00000000000E+00 -0.20903128958E+03  0.20903128958E+03  0.00000000000E+00 0.  1.
         24    2    1    2    0    0 -0.66050487568E+02  0.35142091530E+03  0.71912702619E+03  0.80689659427E+03  0.77968631012E+02 0.  0.
        254    2    1    2    0    0  0.66050487568E+02 -0.35142091530E+03  0.13136234382E+04  0.16439164493E+04  0.92140947914E+03 0.  0.
         23    2    4    4    0    0 -0.10943383665E+02 -0.61588349197E+03  0.11576776664E+04  0.13142021568E+04  0.86472517167E+02 0.  0.
         23    2    4    4    0    0  0.76993871233E+02  0.26446257667E+03  0.15594577182E+03  0.32971429255E+03  0.92325079456E+02 0.  0.
          4    1    3    3  502    0 -0.60422583945E+02  0.33481534673E+03  0.70959023212E+03  0.78693741974E+03  0.00000000000E+00 0. -1.
         -3    1    3    3    0  502 -0.56279036228E+01  0.16605568576E+02  0.95367940673E+01  0.19959174532E+02  0.00000000000E+00 0.  1.
         11    1    5    5    0    0  0.31172927346E+02 -0.42417622665E+03  0.76934789584E+03  0.87908668941E+03  0.00000000000E+00 0.  1.
        -11    1    5    5    0    0 -0.42116311011E+02 -0.19170726532E+03  0.38832977054E+03  0.43511546734E+03  0.00000000000E+00 0. -1.
          1    1    6    6  503    0  0.51574214648E+02  0.52125440777E+02  0.62446719157E+02  0.96314868667E+02  0.00000000000E+00 0. -1.
         -1    1    6    6    0  503  0.25419656585E+02  0.21233713589E+03  0.93499052664E+02  0.23339942388E+03  0.00000000000E+00 0.  1.
<mgrwt>
<rscale>  0 0.13690910E+04</rscale>
<asrwt>0</asrwt>
<pdfrwt beam="1">  1        2 0.34488948E+00 0.13690910E+04</pdfrwt>
<pdfrwt beam="2">  1       -1 0.32158662E-01 0.13690910E+04</pdfrwt>
<totfact> 0.49144288E+01</totfact>
</mgrwt>
</event>
<event>
12    6  0.1540825E-007  0.1263727E+04  0.7818608E-02  0.9058835E-01
          2   -1    0    0  501    0  0.00000000000E+00  0.00000000000E+00  0.19747644715E+04  0.19747644715E+04  0.00000000000E+00 0. -1.
         -1   -1    0    0    0  501 -0.00000000000E+00 -0.00000000000E+00 -0.20217677184E+03  0.20217677184E+03  0.00000000000E+00 0.  1.
         24    2    1    2    0    0 -0.15857385842E+03 -0.21974802636E+03  0.66202428098E+03  0.72005918817E+03  0.82305663288E+02 0.  0.
        254    2    1    2    0    0  0.15857385842E+03  0.21974802636E+03  0.11105634187E+04  0.14568820552E+04  0.90317182866E+03 0.  0.
         23    2    4    4    0    0 -0.14163552840E+03  0.34038655595E+03  0.10470088481E+04  0.11145250721E+04  0.10007486166E+03 0.  0.
         23    2    4    4    0    0  0.30020938682E+03 -0.12063852959E+03  0.63554570548E+02  0.34235698305E+03  0.92140054529E+02 0.  0.
          4    1    3    3  502    0 -0.14867435076E+03 -0.21652965481E+03  0.65869208102E+03  0.70912933347E+03  0.00000000000E+00 0. -1.
         -3    1    3    3    0  502 -0.98995076603E+01 -0.32183715463E+01  0.33321999552E+01  0.10929854705E+02  0.00000000000E+00 0.  1.
         11    1    5    5    0    0 -0.14045080312E+03  0.24484666150E+03  0.70465919735E+03  0.75909215524E+03  0.00000000000E+00 0. -1.
        -11    1    5    5    0    0 -0.11847252736E+01  0.95539894455E+02  0.34234965079E+03  0.35543291688E+03  0.00000000000E+00 0.  1.
          2    1    6    6  503    0  0.27482637530E+03 -0.11189845920E+03  0.28350293141E+02  0.29808478803E+03  0.00000000000E+00 0. -1.
         -2    1    6    6    0  503  0.25383011513E+02 -0.87400703942E+01  0.35204277407E+02  0.44272195018E+02  0.00000000000E+00 0.  1.
<mgrwt>
<rscale>  0 0.12637270E+04</rscale>
<asrwt>0</asrwt>
<pdfrwt beam="1">  1        2 0.30380990E+00 0.12637270E+04</pdfrwt>
<pdfrwt beam="2">  1       -1 0.31104120E-01 0.12637270E+04</pdfrwt>
<totfact> 0.74017997E+01</totfact>
</mgrwt>
</event>
<event>
12    6  0.1540825E-007  0.1211750E+04  0.7818608E-02  0.9102633E-01
          2   -1    0    0  501    0  0.00000000000E+00  0.00000000000E+00  0.79284596227E+03  0.79284596227E+03  0.00000000000E+00 0. -1.
         -1   -1    0    0    0  501 -0.00000000000E+00 -0.00000000000E+00 -0.46299612792E+03  0.46299612792E+03  0.00000000000E+00 0.  1.
         24    2    1    2    0    0 -0.70549537226E+02  0.58131512896E+02  0.26633087858E+03  0.29270989402E+03  0.79940197523E+02 0.  0.
        254    2    1    2    0    0  0.70549537226E+02 -0.58131512896E+02  0.63518955773E+02  0.96313219616E+03  0.95667782432E+03 0.  0.
         23    2    4    4    0    0 -0.24863785464E+02 -0.18000887772E+03 -0.40937217334E+03  0.45680828712E+03  0.89815538736E+02 0.  0.
         23    2    4    4    0    0  0.95413322690E+02  0.12187736482E+03  0.47289112911E+03  0.50632390904E+03  0.93702116673E+02 0.  0.
          4    1    3    3  502    0 -0.26135480680E+02  0.52519125780E+02  0.22232995728E+03  0.22993897414E+03  0.00000000000E+00 0. -1.
         -3    1    3    3    0  502 -0.44414056546E+02  0.56123871154E+01  0.44000921294E+02  0.62770919881E+02  0.00000000000E+00 0.  1.
         11    1    5    5    0    0 -0.47238547571E+02 -0.56110667140E+02 -0.11198176397E+03  0.13386486770E+03  0.00000000000E+00 0.  1.
        -11    1    5    5    0    0  0.22374762107E+02 -0.12389821058E+03 -0.29739040937E+03  0.32294341942E+03  0.00000000000E+00 0. -1.
          3    1    6    6  503    0  0.12116700326E+02  0.85804182810E+02  0.28076956995E+03  0.29383792067E+03  0.00000000000E+00 0. -1.
         -3    1    6    6    0  503  0.83296622364E+02  0.36073182010E+02  0.19212155916E+03  0.21248598836E+03  0.00000000000E+00 0.  1.
<mgrwt>
<rscale>  0 0.12117502E+04</rscale>
<asrwt>0</asrwt>
<pdfrwt beam="1">  1        2 0.12197630E+00 0.12117502E+04</pdfrwt>
<pdfrwt beam="2">  1       -1 0.71230174E-01 0.12117502E+04</pdfrwt>
<totfact> 0.78133702E+01</totfact>
</mgrwt>
</event>
<event>
12    6  0.1540825E-007  0.1732896E+04  0.7818608E-02  0.8742822E-01
          2   -1    0    0  501    0  0.00000000000E+00  0.00000000000E+00  0.12220978026E+04  0.12220978026E+04  0.00000000000E+00 0. -1.
         -1   -1    0    0    0  501 -0.00000000000E+00 -0.00000000000E+00 -0.61429792180E+03  0.61429792180E+03  0.00000000000E+00 0.  1.
         24    2    1    2    0    0  0.29318338111E+02 -0.49259671592E+03  0.61857676398E+03  0.79516356677E+03  0.78337701649E+02 0.  0.
        254    2    1    2    0    0 -0.29318338111E+02  0.49259671592E+03 -0.10776883205E+02  0.10412321576E+04  0.91680814534E+03 0.  0.
         23    2    4    4    0    0  0.36125399443E+03  0.22578876267E+03 -0.25016396635E+03  0.50205939684E+03  0.89423789100E+02 0.  0.
         23    2    4    4    0    0 -0.39057233254E+03  0.26680795325E+03  0.23938708315E+03  0.53917276077E+03  0.98325274094E+02 0.  0.
          4    1    3    3  502    0  0.26108715414E+02 -0.49444004310E+03  0.61709762977E+03  0.79117767026E+03  0.00000000000E+00 0. -1.
         -3    1    3    3    0  502  0.32096226973E+01  0.18433271879E+01  0.14791342061E+01  0.39858965090E+01  0.00000000000E+00 0.  1.
         11    1    5    5    0    0  0.21829078297E+03  0.14830468104E+03 -0.20238978586E+03  0.33257596090E+03  0.00000000000E+00 0.  1.
        -11    1    5    5    0    0  0.14296321145E+03  0.77484081632E+02 -0.47774180486E+02  0.16948343593E+03  0.00000000000E+00 0. -1.
          4    1    6    6  503    0 -0.17612858925E+03  0.77733534270E+02  0.13360068754E+03  0.23433507210E+03  0.00000000000E+00 0.  1.
         -4    1    6    6    0  503 -0.21444374328E+03  0.18907441898E+03  0.10578639561E+03  0.30483768868E+03  0.00000000000E+00 0. -1.
<mgrwt>
<rscale>  0 0.17328960E+04</rscale>
<asrwt>0</asrwt>
<pdfrwt beam="1">  1        2 0.18801505E+00 0.17328960E+04</pdfrwt>
<pdfrwt beam="2">  1       -1 0.94507373E-01 0.17328960E+04</pdfrwt>
<totfact> 0.21543696E+01</totfact>
</mgrwt>
</event>
<event>
12    6  0.1540825E-007  0.1537917E+04  0.7818608E-02  0.8859623E-01
          2   -1    0    0  501    0  0.00000000000E+00  0.00000000000E+00  0.38182795128E+04  0.38182795128E+04  0.00000000000E+00 0. -1.
         -1   -1    0    0    0  501 -0.00000000000E+00 -0.00000000000E+00 -0.15485960256E+03  0.15485960256E+03  0.00000000000E+00 0.  1.
         24    2    1    2    0    0  0.15727034351E+03 -0.24457496076E+03  0.22522385669E+04  0.22723108249E+04  0.79164705233E+02 0.  0.
        254    2    1    2    0    0 -0.15727034351E+03  0.24457496076E+03  0.14111813433E+04  0.17008282904E+04  0.90378825911E+03 0.  0.
         23    2    4    4    0    0 -0.27120678502E+03 -0.15403753812E+03  0.11666164842E+04  0.12111792122E+04  0.93168554201E+02 0.  0.
         23    2    4    4    0    0  0.11393644151E+03  0.39861249888E+03  0.24456485914E+03  0.48964907821E+03  0.89837700873E+02 0.  0.
          2    1    3    3  502    0  0.13767861380E+03 -0.24541097662E+03  0.21306017217E+04  0.21491034513E+04  0.00000000000E+00 0. -1.
         -1    1    3    3    0  502  0.19591729701E+02  0.83601585771E+00  0.12163684523E+03  0.12320737361E+03  0.00000000000E+00 0.  1.
         11    1    5    5    0    0 -0.24829723225E+03 -0.15089968631E+03  0.95283960194E+03  0.99615537839E+03  0.00000000000E+00 0. -1.
        -11    1    5    5    0    0 -0.22909552769E+02 -0.31378518095E+01  0.21377688222E+03  0.21502383378E+03  0.00000000000E+00 0.  1.
          1    1    6    6  503    0  0.94988984582E+02  0.19305119780E+03  0.15189577197E+03  0.26337045716E+03  0.00000000000E+00 0. -1.
         -1    1    6    6    0  503  0.18947456931E+02  0.20556130108E+03  0.92669087165E+02  0.22627862104E+03  0.00000000000E+00 0.  1.
<mgrwt>
<rscale>  0 0.15379171E+04</rscale>
<asrwt>0</asrwt>
<pdfrwt beam="1">  1        2 0.58742755E+00 0.15379171E+04</pdfrwt>
<pdfrwt beam="2">  1       -1 0.23824557E-01 0.15379171E+04</pdfrwt>
<totfact> 0.80867524E+00</totfact>
</mgrwt>
</event>
<event>
12    6  0.1540825E-007  0.1305986E+04  0.7818608E-02  0.9024832E-01
          2   -1    0    0  501    0  0.00000000000E+00  0.00000000000E+00  0.11105691812E+04  0.11105691812E+04  0.00000000000E+00 0. -1.
         -1   -1    0    0    0  501 -0.00000000000E+00 -0.00000000000E+00 -0.38394720930E+03  0.38394720930E+03  0.00000000000E+00 0.  1.
         24    2    1    2    0    0  0.94546028884E+01 -0.31829981412E+03  0.72778762389E+02  0.33648587021E+03  0.80757856662E+02 0.  0.
        254    2    1    2    0    0 -0.94546028884E+01  0.31829981412E+03  0.65384320952E+03  0.11580305203E+04  0.90117677629E+03 0.  0.
         23    2    4    4    0    0  0.40774891769E+03  0.26622505004E+02  0.40918268419E+03  0.58524860622E+03  0.90097305155E+02 0.  0.
         23    2    4    4    0    0 -0.41720352057E+03  0.29167730912E+03  0.24466052533E+03  0.57278191407E+03  0.95320082888E+02 0.  0.
          2    1    3    3  502    0  0.21476607894E+02 -0.28756947313E+03  0.86025143078E+02  0.30092818380E+03  0.00000000000E+00 0. -1.
         -1    1    3    3    0  502 -0.12022005005E+02 -0.30730340991E+02 -0.13246380689E+02  0.35557686414E+02  0.00000000000E+00 0.  1.
         11    1    5    5    0    0  0.15536885778E+03  0.23386412116E+02  0.10050072404E+03  0.18651220274E+03  0.00000000000E+00 0.  1.
        -11    1    5    5    0    0  0.25238005990E+03  0.32360928880E+01  0.30868196015E+03  0.39873640348E+03  0.00000000000E+00 0. -1.
          1    1    6    6  503    0 -0.23947050789E+03  0.20321358508E+03  0.10952353846E+03  0.33262184352E+03  0.00000000000E+00 0. -1.
         -1    1    6    6    0  503 -0.17773301269E+03  0.88463724040E+02  0.13513698687E+03  0.24016007056E+03  0.00000000000E+00 0.  1.
<mgrwt>
<rscale>  0 0.13059861E+04</rscale>
<asrwt>0</asrwt>
<pdfrwt beam="1">  1        2 0.17085680E+00 0.13059861E+04</pdfrwt>
<pdfrwt beam="2">  1       -1 0.59068802E-01 0.13059861E+04</pdfrwt>
<totfact> 0.69661350E+01</totfact>
</mgrwt>
</event>
<event>
12    6  0.1540825E-007  0.1575614E+04  0.7818608E-02  0.8835671E-01
          2   -1    0    0  501    0  0.00000000000E+00  0.00000000000E+00  0.70811517856E+03  0.70811517856E+03  0.00000000000E+00 0. -1.
         -1   -1    0    0    0  501 -0.00000000000E+00 -0.00000000000E+00 -0.87646687810E+03  0.87646687810E+03  0.00000000000E+00 0.  1.
         24    2    1    2    0    0 -0.34195042732E+03  0.69708080342E+02  0.31398447740E+03  0.48192371926E+03  0.10897205115E+03 0.  0.
        254    2    1    2    0    0  0.34195042732E+03 -0.69708080342E+02 -0.48233617694E+03  0.11026583374E+04  0.92812602068E+03 0.  0.
         23    2    4    4    0    0 -0.12381110326E+03 -0.20095850847E+03 -0.55107373489E+03  0.60587541389E+03  0.87688337011E+02 0.  0.
         23    2    4    4    0    0  0.46576153058E+03  0.13125042813E+03  0.68737557952E+02  0.49678292352E+03  0.88926615632E+02 0.  0.
          4    1    3    3  502    0 -0.34441548635E+03  0.53449608172E+02  0.29349480665E+03  0.45565128046E+03  0.00000000000E+00 0. -1.
         -3    1    3    3    0  502  0.24650590320E+01  0.16258472170E+02  0.20489670750E+02  0.26272438805E+02  0.00000000000E+00 0.  1.
         11    1    5    5    0    0 -0.28680123976E+02 -0.38925815280E+02 -0.45018090466E+02  0.66063583582E+02  0.00000000000E+00 0. -1.
        -11    1    5    5    0    0 -0.95130979289E+02 -0.16203269319E+03 -0.50605564443E+03  0.53981183031E+03  0.00000000000E+00 0.  1.
          3    1    6    6  503    0  0.21793190686E+03  0.92777849993E+02  0.46825434251E+00  0.23685916647E+03  0.00000000000E+00 0. -1.
         -3    1    6    6    0  503  0.24782962372E+03  0.38472578137E+02  0.68269303610E+02  0.25992375705E+03  0.00000000000E+00 0.  1.
<mgrwt>
<rscale>  0 0.15756135E+04</rscale>
<asrwt>0</asrwt>
<pdfrwt beam="1">  1        2 0.10894080E+00 0.15756135E+04</pdfrwt>
<pdfrwt beam="2">  1       -1 0.13484106E+00 0.15756135E+04</pdfrwt>
<totfact> 0.20472745E+01</totfact>
</mgrwt>
</event>
<event>
12    6  0.1540825E-007  0.1443546E+04  0.7818608E-02  0.8922887E-01
          2   -1    0    0  501    0  0.00000000000E+00  0.00000000000E+00  0.16986308276E+04  0.16986308276E+04  0.00000000000E+00 0. -1.
         -1   -1    0    0    0  501 -0.00000000000E+00 -0.00000000000E+00 -0.30669177579E+03  0.30669177579E+03  0.00000000000E+00 0.  1.
         24    2    1    2    0    0 -0.92816591678E+02  0.22134408005E+03 -0.75406289563E+02  0.26375296900E+03  0.79192163028E+02 0.  0.
        254    2    1    2    0    0  0.92816591678E+02 -0.22134408005E+03  0.14673453414E+04  0.17415696344E+04  0.90683753733E+03 0.  0.
         23    2    4    4    0    0  0.28369988366E+02 -0.46556082889E+03  0.34451214690E+03  0.58702007020E+03  0.91390381450E+02 0.  0.
         23    2    4    4    0    0  0.64446603312E+02  0.24421674884E+03  0.11228331945E+04  0.11545495642E+04  0.91842955402E+02 0.  0.
          2    1    3    3  502    0 -0.60698121072E+02  0.99647162613E+02 -0.73453265799E+02  0.13787385965E+03  0.00000000000E+00 0. -1.
         -1    1    3    3    0  502 -0.32118470606E+02  0.12169691744E+03 -0.19530237644E+01  0.12587910935E+03  0.00000000000E+00 0.  1.
         11    1    5    5    0    0  0.25265398932E+02 -0.57910892372E+02  0.20972578432E+02  0.66572223071E+02  0.00000000000E+00 0. -1.
        -11    1    5    5    0    0  0.31045894338E+01 -0.40764993652E+03  0.32353956847E+03  0.52044784713E+03  0.00000000000E+00 0.  1.
          4    1    6    6  503    0  0.84056330929E+02  0.14486202429E+03  0.69717542053E+03  0.71701048796E+03  0.00000000000E+00 0.  1.
         -4    1    6    6    0  503 -0.19609727616E+02  0.99354724542E+02  0.42565777396E+03  0.43753907624E+03  0.00000000000E+00 0. -1.
<mgrwt>
<rscale>  0 0.14435458E+04</rscale>
<asrwt>0</asrwt>
<pdfrwt beam="1">  1        2 0.26132781E+00 0.14435458E+04</pdfrwt>
<pdfrwt beam="2">  1       -1 0.47183351E-01 0.14435458E+04</pdfrwt>
<totfact> 0.48651661E+01</totfact>
</mgrwt>
</event>
<event>
12    6  0.2238523E-007  0.2427302E+04  0.7818608E-02  0.8429352E-01
          2   -1    0    0  501    0  0.00000000000E+00  0.00000000000E+00  0.97392621549E+03  0.97392621549E+03  0.00000000000E+00 0. -1.
         -1   -1    0    0    0  501 -0.00000000000E+00 -0.00000000000E+00 -0.15123817895E+04  0.15123817895E+04  0.00000000000E+00 0.  1.
         24    2    1    2    0    0  0.23682520693E+03  0.89401903046E+03 -0.72806081671E+03  0.11797196039E+04  0.79432899148E+02 0.  0.
        254    2    1    2    0    0 -0.23682520693E+03 -0.89401903046E+03  0.18960524271E+03  0.13065884011E+04  0.90325350615E+03 0.  0.
         23    2    4    4    0    0 -0.48614209232E+03 -0.85946264284E+03  0.25749210194E+02  0.99207041703E+03  0.92360825938E+02 0.  0.
         23    2    4    4    0    0  0.24931688539E+03 -0.34556387626E+02  0.16385603252E+03  0.31451798407E+03  0.93379385563E+02 0.  0.
          4    1    3    3  502    0 -0.57439722598E+01  0.30682770627E+02 -0.19480838588E+02  0.36795770175E+02  0.00000000000E+00 0. -1.
         -3    1    3    3    0  502  0.24256917919E+03  0.86333625984E+03 -0.70857997812E+03  0.11429238337E+04  0.00000000000E+00 0.  1.
         11    1    5    5    0    0 -0.57990472685E+01 -0.16918862485E+02 -0.11912574739E+02  0.21489213432E+02  0.00000000000E+00 0. -1.
        -11    1    5    5    0    0 -0.48034304505E+03 -0.84254378035E+03  0.37661784932E+02  0.97058120360E+03  0.00000000000E+00 0.  1.
          3    1    6    6  503    0  0.10112646223E+02  0.20622875274E+02  0.14734598713E+02  0.27288770537E+02  0.00000000000E+00 0. -1.
         -3    1    6    6    0  503  0.23920423916E+03 -0.55179262901E+02  0.14912143380E+03  0.28722921353E+03  0.00000000000E+00 0.  1.
<mgrwt>
<rscale>  0 0.24273016E+04</rscale>
<asrwt>0</asrwt>
<pdfrwt beam="1">  1        2 0.14983480E+00 0.24273016E+04</pdfrwt>
<pdfrwt beam="2">  1       -1 0.23267412E+00 0.24273016E+04</pdfrwt>
<totfact> 0.24275767E+00</totfact>
</mgrwt>
</event>
<event>
12    6  0.1540825E-007  0.1960416E+04  0.7818608E-02  0.8625354E-01
          2   -1    0    0  501    0  0.00000000000E+00  0.00000000000E+00  0.33794998934E+04  0.33794998934E+04  0.00000000000E+00 0. -1.
         -1   -1    0    0    0  501 -0.00000000000E+00 -0.00000000000E+00 -0.28430473468E+03  0.28430473468E+03  0.00000000000E+00 0.  1.
         24    2    1    2    0    0 -0.51172140996E+03  0.29427875904E+03  0.30123425243E+03  0.66739835359E+03  0.78865062660E+02 0.  0.
        254    2    1    2    0    0  0.51172140996E+03 -0.29427875904E+03  0.27939609063E+04  0.29964062745E+04  0.90762008925E+03 0.  0.
         23    2    4    4    0    0  0.75173021439E+03 -0.20180495471E+03  0.17473131501E+04  0.19149007249E+04  0.88983070595E+02 0.  0.
         23    2    4    4    0    0 -0.24000880443E+03 -0.92473804328E+02  0.10466477562E+04  0.10815055495E+04  0.89594070556E+02 0.  0.
          4    1    3    3  502    0 -0.13570898468E+03  0.50204257090E+02  0.10080294063E+03  0.17634803314E+03  0.00000000000E+00 0. -1.
         -3    1    3    3    0  502 -0.37601242528E+03  0.24407450195E+03  0.20043131180E+03  0.49105032045E+03  0.00000000000E+00 0.  1.
         11    1    5    5    0    0  0.56694439649E+03 -0.18993407928E+03  0.13099156593E+04  0.14399235874E+04  0.00000000000E+00 0. -1.
        -11    1    5    5    0    0  0.18478581789E+03 -0.11870875427E+02  0.43739749083E+03  0.47497713752E+03  0.00000000000E+00 0.  1.
          2    1    6    6  503    0 -0.51061559650E+02  0.14279465840E+02  0.26720079288E+03  0.27241044351E+03  0.00000000000E+00 0. -1.
         -2    1    6    6    0  503 -0.18894724478E+03 -0.10675327017E+03  0.77944696328E+03  0.80909510601E+03  0.00000000000E+00 0.  1.
<mgrwt>
<rscale>  0 0.19604161E+04</rscale>
<asrwt>0</asrwt>
<pdfrwt beam="1">  1        2 0.51992303E+00 0.19604161E+04</pdfrwt>
<pdfrwt beam="2">  1       -1 0.43739192E-01 0.19604161E+04</pdfrwt>
<totfact> 0.54217854E+00</totfact>
</mgrwt>
</event>
<event>
12    6  0.1540825E-007  0.2868073E+04  0.7818608E-02  0.8282441E-01
         -1   -1    0    0    0  501 -0.00000000000E+00  0.00000000000E+00  0.13478223766E+04  0.13478223766E+04  0.00000000000E+00 0.  1.
          2   -1    0    0  501    0  0.00000000000E+00 -0.00000000000E+00 -0.15257648403E+04  0.15257648403E+04  0.00000000000E+00 0. -1.
         24    2    1    2    0    0  0.10135821882E+04  0.46167501485E+03 -0.73363312549E+03  0.13361365258E+04  0.80935660473E+02 0.  0.
        254    2    1    2    0    0 -0.10135821882E+04 -0.46167501485E+03  0.55569066175E+03  0.15374506911E+04  0.90247983048E+03 0.  0.
         23    2    4    4    0    0 -0.22359167849E+03  0.54640785592E+02 -0.20484823934E+03  0.32208146058E+03  0.93780658707E+02 0.  0.
         23    2    4    4    0    0 -0.78999050975E+03 -0.51631580044E+03  0.76053890110E+03  0.12153692305E+04  0.89643377838E+02 0.  0.
          4    1    3    3  502    0  0.42457040982E+03  0.18344111925E+03 -0.25843999846E+03  0.52981308962E+03  0.00000000000E+00 0. -1.
         -1    1    3    3    0  502  0.58901177842E+03  0.27823389560E+03 -0.47519312703E+03  0.80632343619E+03  0.00000000000E+00 0.  1.
         11    1    5    5    0    0 -0.16213919421E+03  0.57270366476E+02 -0.19466186627E+03  0.25973497138E+03  0.00000000000E+00 0.  1.
        -11    1    5    5    0    0 -0.61452484279E+02 -0.26295808842E+01 -0.10186373072E+02  0.62346489204E+02  0.00000000000E+00 0. -1.
          4    1    6    6  503    0 -0.31837096699E+03 -0.25475538105E+03  0.30056043607E+03  0.50655399765E+03  0.00000000000E+00 0. -1.
         -4    1    6    6    0  503 -0.47161954276E+03 -0.26156041939E+03  0.45997846502E+03  0.70881523290E+03  0.00000000000E+00 0.  1.
<mgrwt>
<rscale>  0 0.28680725E+04</rscale>
<asrwt>0</asrwt>
<pdfrwt beam="1">  1        2 0.23473305E+00 0.28680725E+04</pdfrwt>
<pdfrwt beam="2">  1       -1 0.20735729E+00 0.28680725E+04</pdfrwt>
<totfact> 0.16207615E+00</totfact>
</mgrwt>
</event>
<event>
12    6  0.1540825E-007  0.1814492E+04  0.7818608E-02  0.8698631E-01
          4   -1    0    0  501    0  0.00000000000E+00  0.00000000000E+00  0.13986222977E+04  0.13986222977E+04  0.00000000000E+00 0. -1.
         -3   -1    0    0    0  501 -0.00000000000E+00 -0.00000000000E+00 -0.58850414107E+03  0.58850414107E+03  0.00000000000E+00 0.  1.
         24    2    1    2    0    0  0.34025989113E+03  0.84755306364E+01 -0.34378937249E+03  0.48962051381E+03  0.75422057626E+02 0.  0.
        254    2    1    2    0    0 -0.34025989113E+03 -0.84755306364E+01  0.11539075291E+04  0.14975059249E+04  0.89172461071E+03 0.  0.
         23    2    4    4    0    0 -0.17740786012E+03 -0.25840916185E+03  0.11401502202E+04  0.11857613178E+04  0.88535497738E+02 0.  0.
         23    2    4    4    0    0 -0.16285203101E+03  0.24993363122E+03  0.13757308901E+02  0.31174460715E+03  0.89486493511E+02 0.  0.
          4    1    3    3  502    0  0.13125765536E+03 -0.29033631460E+02 -0.10913327401E+03  0.17315194293E+03  0.00000000000E+00 0. -1.
         -3    1    3    3    0  502  0.20900223577E+03  0.37509162096E+02 -0.23465609849E+03  0.31646857088E+03  0.00000000000E+00 0.  1.
         11    1    5    5    0    0 -0.17490541155E+03 -0.25552135538E+03  0.11406267477E+04  0.11819105057E+04  0.00000000000E+00 0. -1.
        -11    1    5    5    0    0 -0.25024485721E+01 -0.28878064734E+01 -0.47652746620E+00  0.38508120585E+01  0.00000000000E+00 0.  1.
          1    1    6    6  503    0 -0.17320726892E+03  0.22164066214E+03  0.11376159333E+02  0.28152221604E+03  0.00000000000E+00 0. -1.
         -1    1    6    6    0  503  0.10355237909E+02  0.28292969075E+02  0.23811495679E+01  0.30222391112E+02  0.00000000000E+00 0.  1.
<mgrwt>
<rscale>  0 0.18144917E+04</rscale>
<asrwt>0</asrwt>
<pdfrwt beam="1">  1        4 0.21517266E+00 0.18144917E+04</pdfrwt>
<pdfrwt beam="2">  1       -3 0.90539099E-01 0.18144917E+04</pdfrwt>
<totfact> 0.24813835E-01</totfact>
</mgrwt>
</event>
<event>
12    6  0.1540825E-007  0.1916221E+04  0.7818608E-02  0.8646824E-01
         -1   -1    0    0    0  501 -0.00000000000E+00  0.00000000000E+00  0.49897925514E+03  0.49897925514E+03  0.00000000000E+00 0.  1.
          2   -1    0    0  501    0  0.00000000000E+00 -0.00000000000E+00 -0.18397066568E+04  0.18397066568E+04  0.00000000000E+00 0. -1.
         24    2    1    2    0    0  0.71517122012E+03 -0.10078691065E+03 -0.30799494369E+03  0.78922943207E+03  0.79964590078E+02 0.  0.
        254    2    1    2    0    0 -0.71517122012E+03  0.10078691065E+03 -0.10327324580E+04  0.15494564799E+04  0.90147167333E+03 0.  0.
         23    2    4    4    0    0 -0.10816525470E+03 -0.25025296341E+03  0.14268210256E+02  0.28640712579E+03  0.86597874466E+02 0.  0.
         23    2    4    4    0    0 -0.60700596542E+03  0.35103987406E+03 -0.10470006682E+04  0.12630493541E+04  0.86011838408E+02 0.  0.
          4    1    3    3  502    0  0.79819536863E+02 -0.26995700629E+02 -0.58939904792E+02  0.10282917239E+03  0.00000000000E+00 0. -1.
         -3    1    3    3    0  502  0.63535168325E+03 -0.73791210018E+02 -0.24905503890E+03  0.68640025968E+03  0.00000000000E+00 0.  1.
         11    1    5    5    0    0 -0.81180452911E+02 -0.85465554751E+02  0.18789877490E+02  0.11936367320E+03  0.00000000000E+00 0. -1.
        -11    1    5    5    0    0 -0.26984801789E+02 -0.16478740866E+03 -0.45216672339E+01  0.16704345259E+03  0.00000000000E+00 0.  1.
          4    1    6    6  503    0 -0.23783504119E+03  0.18119904495E+03 -0.47882530233E+03  0.56451064726E+03  0.00000000000E+00 0. -1.
         -4    1    6    6    0  503 -0.36917092422E+03  0.16984082910E+03 -0.56817536588E+03  0.69853870681E+03  0.00000000000E+00 0.  1.
<mgrwt>
<rscale>  0 0.19162207E+04</rscale>
<asrwt>0</asrwt>
<pdfrwt beam="1">  1        2 0.28303179E+00 0.19162207E+04</pdfrwt>
<pdfrwt beam="2">  1       -1 0.76766040E-01 0.19162207E+04</pdfrwt>
<totfact> 0.14873483E+01</totfact>
</mgrwt>
</event>
<event>
12    6  0.1540825E-007  0.1469067E+04  0.7818608E-02  0.8905287E-01
         -1   -1    0    0    0  501 -0.00000000000E+00  0.00000000000E+00  0.22197767430E+03  0.22197767430E+03  0.00000000000E+00 0.  1.
          2   -1    0    0  501    0  0.00000000000E+00 -0.00000000000E+00 -0.24306032028E+04  0.24306032028E+04  0.00000000000E+00 0. -1.
         24    2    1    2    0    0  0.17842574014E+03 -0.27473155791E+03 -0.12211731559E+04  0.12668771167E+04  0.80003615116E+02 0.  0.
        254    2    1    2    0    0 -0.17842574014E+03  0.27473155791E+03 -0.98745237255E+03  0.13857037604E+04  0.91531390778E+03 0.  0.
         23    2    4    4    0    0  0.16632631773E+03  0.28127745577E+03 -0.36227863134E+01  0.33921268907E+03  0.90943239184E+02 0.  0.
         23    2    4    4    0    0 -0.34475205788E+03 -0.65458978617E+01 -0.98382958623E+03  0.10464910713E+04  0.91247341585E+02 0.  0.
          2    1    3    3  502    0  0.16769759890E+03 -0.19988234156E+03 -0.91163166680E+03  0.94823400649E+03  0.00000000000E+00 0. -1.
         -1    1    3    3    0  502  0.10728141244E+02 -0.74849216348E+02 -0.30954148913E+03  0.31864311022E+03  0.00000000000E+00 0.  1.
         11    1    5    5    0    0  0.13915353319E+03  0.27914023587E+03 -0.46458772952E+01  0.31193679048E+03  0.00000000000E+00 0. -1.
        -11    1    5    5    0    0  0.27172784544E+02  0.21372198981E+01  0.10230909818E+01  0.27275898591E+02  0.00000000000E+00 0.  1.
          1    1    6    6  503    0 -0.14699275553E+03 -0.45399961987E+02 -0.38215990428E+03  0.41196385663E+03  0.00000000000E+00 0. -1.
         -1    1    6    6    0  503 -0.19775930234E+03  0.38854064125E+02 -0.60166968195E+03  0.63452721466E+03  0.00000000000E+00 0.  1.
<mgrwt>
<rscale>  0 0.14690672E+04</rscale>
<asrwt>0</asrwt>
<pdfrwt beam="1">  1        2 0.37393894E+00 0.14690672E+04</pdfrwt>
<pdfrwt beam="2">  1       -1 0.34150413E-01 0.14690672E+04</pdfrwt>
<totfact> 0.34232956E+01</totfact>
</mgrwt>
</event>
<event>
12    6  0.1540825E-007  0.1377248E+04  0.7818608E-02  0.8970455E-01
         -1   -1    0    0    0  501 -0.00000000000E+00  0.00000000000E+00  0.24829728725E+03  0.24829728725E+03  0.00000000000E+00 0.  1.
          2   -1    0    0  501    0  0.00000000000E+00 -0.00000000000E+00 -0.19098182512E+04  0.19098182512E+04  0.00000000000E+00 0. -1.
         24    2    1    2    0    0  0.16161945423E+03 -0.17090028257E+03  0.14719182145E+02  0.24850038337E+03  0.78791063230E+02 0.  0.
        254    2    1    2    0    0 -0.16161945423E+03  0.17090028257E+03 -0.16762401461E+04  0.19096151551E+04  0.88403691015E+03 0.  0.
         23    2    4    4    0    0 -0.51475170512E+03  0.79665774384E+02 -0.84279056080E+03  0.99461190654E+03  0.87412594790E+02 0.  0.
         23    2    4    4    0    0  0.35313225089E+03  0.91234508187E+02 -0.83344958528E+03  0.91500324851E+03  0.97809056214E+02 0.  0.
          2    1    3    3  502    0 -0.45360843873E+01 -0.12126682554E+02 -0.11336778113E+02  0.17209155393E+02  0.00000000000E+00 0. -1.
         -1    1    3    3    0  502  0.16615553862E+03 -0.15877360002E+03  0.26055960258E+02  0.23129122798E+03  0.00000000000E+00 0.  1.
         11    1    5    5    0    0 -0.44208769842E+03  0.43797604032E+02 -0.67197442482E+03  0.80554912378E+03  0.00000000000E+00 0. -1.
        -11    1    5    5    0    0 -0.72664006707E+02  0.35868170352E+02 -0.17081613598E+03  0.18906278276E+03  0.00000000000E+00 0.  1.
          3    1    6    6  503    0  0.34374039525E+03  0.67812702789E+02 -0.79761715671E+03  0.87117687679E+03  0.00000000000E+00 0. -1.
         -3    1    6    6    0  503  0.93918556421E+01  0.23421805398E+02 -0.35832428577E+02  0.43826371721E+02  0.00000000000E+00 0.  1.
<mgrwt>
<rscale>  0 0.13772475E+04</rscale>
<asrwt>0</asrwt>
<pdfrwt beam="1">  1        2 0.29381819E+00 0.13772475E+04</pdfrwt>
<pdfrwt beam="2">  1       -1 0.38199582E-01 0.13772475E+04</pdfrwt>
<totfact> 0.55193865E+01</totfact>
</mgrwt>
</event>
<event>
12    6  0.1540825E-007  0.1976805E+04  0.7818608E-02  0.8617543E-01
          2   -1    0    0  501    0  0.00000000000E+00  0.00000000000E+00  0.24511492484E+04  0.24511492484E+04  0.00000000000E+00 0. -1.
         -1   -1    0    0    0  501 -0.00000000000E+00 -0.00000000000E+00 -0.39856378281E+03  0.39856378281E+03  0.00000000000E+00 0.  1.
         24    2    1    2    0    0 -0.55012122606E+03  0.33930940477E+03  0.13008703877E+04  0.14548236481E+04  0.80522332644E+02 0.  0.
        254    2    1    2    0    0  0.55012122606E+03 -0.33930940477E+03  0.75171507785E+03  0.13948893830E+04  0.98126275640E+03 0.  0.
         23    2    4    4    0    0 -0.25935651524E+03 -0.11433808208E+03  0.35036787106E+03  0.45944558293E+03  0.89406932598E+02 0.  0.
         23    2    4    4    0    0  0.80947774130E+03 -0.22497132270E+03  0.40134720679E+03  0.93544380010E+03  0.90051169090E+02 0.  0.
          2    1    3    3  502    0 -0.29498104774E+02  0.11847929357E+02  0.33986439008E+02  0.46535896379E+02  0.00000000000E+00 0. -1.
         -1    1    3    3    0  502 -0.52062312129E+03  0.32746147541E+03  0.12668839487E+04  0.14082877518E+04  0.00000000000E+00 0.  1.
         11    1    5    5    0    0 -0.21832264109E+03 -0.12259448680E+03  0.26625607538E+03  0.36549484468E+03  0.00000000000E+00 0. -1.
        -11    1    5    5    0    0 -0.41033874146E+02  0.82564047292E+01  0.84111795679E+02  0.93950738255E+02  0.00000000000E+00 0.  1.
          1    1    6    6  503    0  0.47770859991E+03 -0.14759901289E+03  0.28464161743E+03  0.57533627159E+03  0.00000000000E+00 0. -1.
         -1    1    6    6    0  503  0.33176914139E+03 -0.77372309808E+02  0.11670558937E+03  0.36010752852E+03  0.00000000000E+00 0.  1.
<mgrwt>
<rscale>  0 0.19768048E+04</rscale>
<asrwt>0</asrwt>
<pdfrwt beam="1">  1        2 0.37709988E+00 0.19768048E+04</pdfrwt>
<pdfrwt beam="2">  1       -1 0.61317506E-01 0.19768048E+04</pdfrwt>
<totfact> 0.10624252E+01</totfact>
</mgrwt>
</event>
<event>
12    6  0.1540825E-007  0.2016054E+04  0.7818608E-02  0.8599152E-01
         -1   -1    0    0    0  501 -0.00000000000E+00  0.00000000000E+00  0.55799369096E+03  0.55799369096E+03  0.00000000000E+00 0.  1.
          2   -1    0    0  501    0  0.00000000000E+00 -0.00000000000E+00 -0.18210210977E+04  0.18210210977E+04  0.00000000000E+00 0. -1.
         24    2    1    2    0    0  0.26799948602E+03 -0.87537096955E+02  0.38333703742E+03  0.48264621039E+03  0.80706953159E+02 0.  0.
        254    2    1    2    0    0 -0.26799948602E+03  0.87537096955E+02 -0.16463644442E+04  0.18963685783E+04  0.89789277414E+03 0.  0.
         23    2    4    4    0    0  0.20135771834E+02 -0.27367498809E+03 -0.12437097538E+04  0.12765974155E+04  0.87083643895E+02 0.  0.
         23    2    4    4    0    0 -0.28813525785E+03  0.36121208505E+03 -0.40265469036E+03  0.61977116282E+03  0.92137925936E+02 0.  0.
          2    1    3    3  502    0  0.12609705618E+03 -0.50348372330E+02  0.24959737946E+03  0.28413777997E+03  0.00000000000E+00 0. -1.
         -1    1    3    3    0  502  0.14190242984E+03 -0.37188724625E+02  0.13373965797E+03  0.19850843042E+03  0.00000000000E+00 0.  1.
         11    1    5    5    0    0 -0.12882451415E+02 -0.23478172425E+03 -0.10711114196E+04  0.10966166554E+04  0.00000000000E+00 0. -1.
        -11    1    5    5    0    0  0.33018223249E+02 -0.38893263839E+02 -0.17259833421E+03  0.17998076011E+03  0.00000000000E+00 0.  1.
          4    1    6    6  503    0 -0.88848815260E+02  0.18458793222E+03 -0.17631030365E+03  0.27028159365E+03  0.00000000000E+00 0. -1.
         -4    1    6    6    0  503 -0.19928644259E+03  0.17662415283E+03 -0.22634438671E+03  0.34948956917E+03  0.00000000000E+00 0.  1.
<mgrwt>
<rscale>  0 0.20160539E+04</rscale>
<asrwt>0</asrwt>
<pdfrwt beam="1">  1        2 0.28015709E+00 0.20160539E+04</pdfrwt>
<pdfrwt beam="2">  1       -1 0.85845183E-01 0.20160539E+04</pdfrwt>
<totfact> 0.11891804E+01</totfact>
</mgrwt>
</event>
<event>
12    6  0.1540825E-007  0.1279258E+04  0.7818608E-02  0.9046178E-01
          2   -1    0    0  501    0  0.00000000000E+00  0.00000000000E+00  0.31869157251E+04  0.31869157251E+04  0.00000000000E+00 0. -1.
         -1   -1    0    0    0  501 -0.00000000000E+00 -0.00000000000E+00 -0.12837645992E+03  0.12837645992E+03  0.00000000000E+00 0.  1.
         24    2    1    2    0    0  0.95904607746E+02 -0.12928306906E+03  0.14602630817E+04  0.14712638467E+04  0.79606740482E+02 0.  0.
        254    2    1    2    0    0 -0.95904607746E+02  0.12928306906E+03  0.15982761835E+04  0.18440283383E+04  0.90556167545E+03 0.  0.
         23    2    4    4    0    0 -0.79164029886E+02  0.43125133179E+02  0.16858822018E+04  0.16907124299E+04  0.90459943867E+02 0.  0.
         23    2    4    4    0    0 -0.16740577860E+02  0.86157935881E+02 -0.87606018378E+02  0.15331590837E+03  0.90152739516E+02 0.  0.
          2    1    3    3  502    0  0.52526682573E+02 -0.12133342638E+03  0.12035398912E+04  0.12107803774E+04  0.00000000000E+00 0. -1.
         -1    1    3    3    0  502  0.43377925173E+02 -0.79496426765E+01  0.25672319054E+03  0.26048346928E+03  0.00000000000E+00 0.  1.
         11    1    5    5    0    0 -0.22786550586E+02 -0.27133699569E+02  0.34737639312E+03  0.34917878377E+03  0.00000000000E+00 0. -1.
        -11    1    5    5    0    0 -0.56377479301E+02  0.70258832748E+02  0.13385058087E+04  0.13415336461E+04  0.00000000000E+00 0.  1.
          1    1    6    6  503    0  0.25505452616E+02  0.19576087965E+01 -0.13958069816E+01  0.25618521083E+02  0.00000000000E+00 0. -1.
         -1    1    6    6    0  503 -0.42246030476E+02  0.84200327085E+02 -0.86210211397E+02  0.12769738729E+03  0.00000000000E+00 0.  1.
<mgrwt>
<rscale>  0 0.12792575E+04</rscale>
<asrwt>0</asrwt>
<pdfrwt beam="1">  1        2 0.49029467E+00 0.12792575E+04</pdfrwt>
<pdfrwt beam="2">  1       -1 0.19750227E-01 0.12792575E+04</pdfrwt>
<totfact> 0.31360279E+01</totfact>
</mgrwt>
</event>
<event>
12    6  0.1540825E-007  0.1460741E+04  0.7818608E-02  0.8910987E-01
          2   -1    0    0  501    0  0.00000000000E+00  0.00000000000E+00  0.52007260131E+03  0.52007260131E+03  0.00000000000E+00 0. -1.
         -1   -1    0    0    0  501 -0.00000000000E+00 -0.00000000000E+00 -0.10257056951E+04  0.10257056951E+04  0.00000000000E+00 0.  1.
         24    2    1    2    0    0  0.12787404030E+03  0.77843343887E+02  0.29296356347E+03  0.33873404272E+03  0.80633403787E+02 0.  0.
        254    2    1    2    0    0 -0.12787404030E+03 -0.77843343887E+02 -0.79859665727E+03  0.12070442537E+04  0.89262974016E+03 0.  0.
         23    2    4    4    0    0  0.20146671884E+03  0.14505513660E+03  0.47039616130E+02  0.26816031399E+03  0.89818689919E+02 0.  0.
         23    2    4    4    0    0 -0.32934075914E+03 -0.22289848049E+03 -0.84563627340E+03  0.93888393971E+03  0.90847548823E+02 0.  0.
          4    1    3    3  502    0  0.30318228783E+02  0.64774776818E+02  0.12882286551E+03  0.14734414609E+03  0.00000000000E+00 0. -1.
         -3    1    3    3    0  502  0.97555811514E+02  0.13068567069E+02  0.16414069796E+03  0.19138989663E+03  0.00000000000E+00 0.  1.
         11    1    5    5    0    0  0.48955319212E+01  0.39932831631E+02  0.15085484639E+02  0.42967070200E+02  0.00000000000E+00 0.  1.
        -11    1    5    5    0    0  0.19657118692E+03  0.10512230497E+03  0.31954131491E+02  0.22519324379E+03  0.00000000000E+00 0. -1.
          3    1    6    6  503    0 -0.16514586595E+03 -0.12014242587E+03 -0.53674887429E+03  0.57428800578E+03  0.00000000000E+00 0. -1.
         -3    1    6    6    0  503 -0.16419489318E+03 -0.10275605462E+03 -0.30888739911E+03  0.36459593393E+03  0.00000000000E+00 0.  1.
<mgrwt>
<rscale>  0 0.14607415E+04</rscale>
<asrwt>0</asrwt>
<pdfrwt beam="1">  1        2 0.80011170E-01 0.14607415E+04</pdfrwt>
<pdfrwt beam="2">  1       -1 0.15780088E+00 0.14607415E+04</pdfrwt>
<totfact> 0.19787146E+01</totfact>
</mgrwt>
</event>
<event>
12    6  0.1540825E-007  0.2361041E+04  0.7818608E-02  0.8454235E-01
          2   -1    0    0  501    0  0.00000000000E+00  0.00000000000E+00  0.25290077374E+04  0.25290077374E+04  0.00000000000E+00 0. -1.
         -1   -1    0    0    0  501 -0.00000000000E+00 -0.00000000000E+00 -0.55105738683E+03  0.55105738683E+03  0.00000000000E+00 0.  1.
         24    2    1    2    0    0 -0.99641105165E+03 -0.82298173991E+01  0.10488661343E+04  0.14489170936E+04  0.79610694526E+02 0.  0.
        254    2    1    2    0    0  0.99641105165E+03  0.82298173991E+01  0.92908421629E+03  0.16311480307E+04  0.89696360195E+03 0.  0.
         23    2    4    4    0    0  0.67511136634E+03  0.42192797477E+03  0.47837511911E+03  0.93336874627E+03  0.92389875401E+02 0.  0.
         23    2    4    4    0    0  0.32129968531E+03 -0.41369815737E+03  0.45070909718E+03  0.69777928439E+03  0.96837938070E+02 0.  0.
          2    1    3    3  502    0 -0.34180727378E+03  0.13836547912E+02  0.40988779208E+03  0.53388356835E+03  0.00000000000E+00 0. -1.
         -1    1    3    3    0  502 -0.65460377787E+03 -0.22066365311E+02  0.63897834224E+03  0.91503352525E+03  0.00000000000E+00 0.  1.
         11    1    5    5    0    0  0.18404796992E+02  0.34029399556E+02  0.25543963728E+02  0.46359795830E+02  0.00000000000E+00 0. -1.
        -11    1    5    5    0    0  0.65670656935E+03  0.38789857522E+03  0.45283115539E+03  0.88700895044E+03  0.00000000000E+00 0.  1.
          3    1    6    6  503    0  0.70142744964E+02 -0.50559532486E+02  0.11091220629E+03  0.14063352552E+03  0.00000000000E+00 0. -1.
         -3    1    6    6    0  503  0.25115694034E+03 -0.36313862489E+03  0.33979689089E+03  0.55714575887E+03  0.00000000000E+00 0.  1.
<mgrwt>
<rscale>  0 0.23610408E+04</rscale>
<asrwt>0</asrwt>
<pdfrwt beam="1">  1        2 0.38907811E+00 0.23610408E+04</pdfrwt>
<pdfrwt beam="2">  1       -1 0.84778061E-01 0.23610408E+04</pdfrwt>
<totfact> 0.47314113E+00</totfact>
</mgrwt>
</event>
<event>
12    6  0.1540825E-007  0.2680740E+04  0.7818608E-02  0.8341281E-01
          2   -1    0    0  501    0  0.00000000000E+00  0.00000000000E+00  0.14054967293E+04  0.14054967293E+04  0.00000000000E+00 0. -1.
         -1   -1    0    0    0  501 -0.00000000000E+00 -0.00000000000E+00 -0.12782611729E+04  0.12782611729E+04  0.00000000000E+00 0.  1.
         24    2    1    2    0    0 -0.19990191778E+03 -0.10949479227E+04 -0.36923522965E+03  0.11754375932E+04  0.80294149492E+02 0.  0.
        254    2    1    2    0    0  0.19990191778E+03  0.10949479227E+04  0.49647078609E+03  0.15083203090E+04  0.88863669903E+03 0.  0.
         23    2    4    4    0    0 -0.19865634354E+03 -0.68157146098E+01 -0.29931284797E+02  0.22063663916E+03  0.90960694461E+02 0.  0.
         23    2    4    4    0    0  0.39855826132E+03  0.11017636373E+04  0.52640207088E+03  0.12876836698E+04  0.91094967358E+02 0.  0.
          2    1    3    3  502    0 -0.16416577191E+03 -0.86617195794E+03 -0.25809104321E+03  0.91859416935E+03  0.00000000000E+00 0. -1.
         -1    1    3    3    0  502 -0.35736145868E+02 -0.22877596480E+03 -0.11114418644E+03  0.25684342384E+03  0.00000000000E+00 0.  1.
         11    1    5    5    0    0 -0.46711623742E+02  0.30304925376E+02 -0.31977280783E+02  0.64209896285E+02  0.00000000000E+00 0. -1.
        -11    1    5    5    0    0 -0.15194471980E+03 -0.37120639986E+02  0.20459959867E+01  0.15642674288E+03  0.00000000000E+00 0.  1.
          4    1    6    6  503    0  0.21051624854E+03  0.45951177478E+03  0.24549893023E+03  0.56190558531E+03  0.00000000000E+00 0. -1.
         -4    1    6    6    0  503  0.18804201278E+03  0.64225186257E+03  0.28090314065E+03  0.72577808452E+03  0.00000000000E+00 0.  1.
<mgrwt>
<rscale>  0 0.26807401E+04</rscale>
<asrwt>0</asrwt>
<pdfrwt beam="1">  1        2 0.21623027E+00 0.26807401E+04</pdfrwt>
<pdfrwt beam="2">  1       -1 0.19665556E+00 0.26807401E+04</pdfrwt>
<totfact> 0.22826876E+00</totfact>
</mgrwt>
</event>
<event>
12    6  0.1540825E-007  0.2200245E+04  0.7818608E-02  0.8518326E-01
          2   -1    0    0  501    0  0.00000000000E+00  0.00000000000E+00  0.25380039964E+04  0.25380039964E+04  0.00000000000E+00 0. -1.
         -1   -1    0    0    0  501 -0.00000000000E+00 -0.00000000000E+00 -0.47685883218E+03  0.47685883218E+03  0.00000000000E+00 0.  1.
         24    2    1    2    0    0  0.73886184665E+03 -0.39102592129E+03  0.35309699191E+03  0.91094897821E+03  0.79576728097E+02 0.  0.
        254    2    1    2    0    0 -0.73886184665E+03  0.39102592129E+03  0.17080481723E+04  0.21039138504E+04  0.90011489894E+03 0.  0.
         23    2    4    4    0    0 -0.77219496934E+03  0.59951790321E+03  0.12298418898E+04  0.15736766834E+04  0.90776885414E+02 0.  0.
         23    2    4    4    0    0  0.33333122693E+02 -0.20849198192E+03  0.47820628246E+03  0.53023716696E+03  0.88826803686E+02 0.  0.
          2    1    3    3  502    0  0.70657176486E+03 -0.36506081830E+03  0.31756240705E+03  0.85636379088E+03  0.00000000000E+00 0. -1.
         -1    1    3    3    0  502  0.32290081790E+02 -0.25965102992E+02  0.35534584856E+02  0.54585187334E+02  0.00000000000E+00 0.  1.
         11    1    5    5    0    0 -0.62820102071E+03  0.45830177727E+03  0.10202885899E+04  0.12828350822E+04  0.00000000000E+00 0. -1.
        -11    1    5    5    0    0 -0.14399394863E+03  0.14121612594E+03  0.20955329996E+03  0.29084160121E+03  0.00000000000E+00 0.  1.
          4    1    6    6  503    0  0.52064012324E+02 -0.69437809688E+02  0.21740832033E+03  0.23409111163E+03  0.00000000000E+00 0. -1.
         -4    1    6    6    0  503 -0.18730889631E+02 -0.13905417223E+03  0.26079796212E+03  0.29614605533E+03  0.00000000000E+00 0.  1.
<mgrwt>
<rscale>  0 0.22002451E+04</rscale>
<asrwt>0</asrwt>
<pdfrwt beam="1">  1        2 0.39046215E+00 0.22002451E+04</pdfrwt>
<pdfrwt beam="2">  1       -1 0.73362898E-01 0.22002451E+04</pdfrwt>
<totfact> 0.64436668E+00</totfact>
</mgrwt>
</event>
<event>
12    6  0.1540825E-007  0.3740212E+04  0.7818608E-02  0.8059108E-01
          2   -1    0    0  501    0  0.00000000000E+00  0.00000000000E+00  0.35225091915E+04  0.35225091915E+04  0.00000000000E+00 0. -1.
         -1   -1    0    0    0  501 -0.00000000000E+00 -0.00000000000E+00 -0.99284252081E+03  0.99284252081E+03  0.00000000000E+00 0.  1.
         24    2    1    2    0    0  0.14958091617E+04 -0.54013350255E+03  0.28012364223E+03  0.16168007171E+04  0.79912797496E+02 0.  0.
        254    2    1    2    0    0 -0.14958091617E+04  0.54013350255E+03  0.22495430285E+04  0.28985509952E+04  0.90109088679E+03 0.  0.
         23    2    4    4    0    0 -0.37161424957E+03  0.53494997397E+03  0.11422916358E+04  0.13180432110E+04  0.90216958117E+02 0.  0.
         23    2    4    4    0    0 -0.11241949121E+04  0.51835285784E+01  0.11072513926E+04  0.15805077842E+04  0.90322423874E+02 0.  0.
          2    1    3    3  502    0  0.48250308019E+02 -0.17550619549E+02  0.23840753399E+02  0.56608285552E+02  0.00000000000E+00 0. -1.
         -1    1    3    3    0  502  0.14475588536E+04 -0.52258288300E+03  0.25628288883E+03  0.15601924315E+04  0.00000000000E+00 0.  1.
         11    1    5    5    0    0 -0.33768912388E+03  0.47395848899E+03  0.95712095454E+03  0.11201567369E+04  0.00000000000E+00 0.  1.
        -11    1    5    5    0    0 -0.33925125686E+02  0.60991484982E+02  0.18517068130E+03  0.19788647404E+03  0.00000000000E+00 0. -1.
          1    1    6    6  503    0 -0.42613104230E+03  0.45797813938E+02  0.42053100024E+03  0.60044269263E+03  0.00000000000E+00 0. -1.
         -1    1    6    6    0  503 -0.69806386979E+03 -0.40614285360E+02  0.68672039238E+03  0.98006509161E+03  0.00000000000E+00 0.  1.
<mgrwt>
<rscale>  0 0.37402122E+04</rscale>
<asrwt>0</asrwt>
<pdfrwt beam="1">  1        2 0.54192449E+00 0.37402122E+04</pdfrwt>
<pdfrwt beam="2">  1       -1 0.15274500E+00 0.37402122E+04</pdfrwt>
<totfact> 0.23768120E-01</totfact>
</mgrwt>
</event>
<event>
12    6  0.1540825E-007  0.1972181E+04  0.7818608E-02  0.8619738E-01
          2   -1    0    0  501    0  0.00000000000E+00  0.00000000000E+00  0.16939411622E+04  0.16939411622E+04  0.00000000000E+00 0. -1.
         -1   -1    0    0    0  501 -0.00000000000E+00 -0.00000000000E+00 -0.57403108507E+03  0.57403108507E+03  0.00000000000E+00 0.  1.
         24    2    1    2    0    0 -0.25614420882E+01  0.55488466014E+03  0.10652774866E+04  0.12037525544E+04  0.79375951670E+02 0.  0.
        254    2    1    2    0    0  0.25614420882E+01 -0.55488466014E+03  0.54632590526E+02  0.10642196929E+04  0.90646306473E+03 0.  0.
         23    2    4    4    0    0 -0.18736416115E+03 -0.74104664211E+03 -0.32317759496E+02  0.77047944651E+03  0.91316401835E+02 0.  0.
         23    2    4    4    0    0  0.18992560324E+03  0.18616198197E+03  0.86950350022E+02  0.29374024637E+03  0.89414488034E+02 0.  0.
          4    1    3    3  502    0  0.10438161118E+02  0.52740172305E+03  0.10297002112E+04  0.11569546480E+04  0.00000000000E+00 0. -1.
         -3    1    3    3    0  502 -0.12999603206E+02  0.27482937085E+02  0.35577275471E+02  0.46797906409E+02  0.00000000000E+00 0.  1.
         11    1    5    5    0    0 -0.14463753457E+03 -0.41737811850E+03 -0.43087016366E+02  0.44382541747E+03  0.00000000000E+00 0. -1.
        -11    1    5    5    0    0 -0.42726626577E+02 -0.32366852361E+03  0.10769256870E+02  0.32665402904E+03  0.00000000000E+00 0.  1.
          2    1    6    6  503    0  0.13291591439E+03  0.73939464637E+02  0.67382900194E+02  0.16635546269E+03  0.00000000000E+00 0.  1.
         -2    1    6    6    0  503  0.57009688850E+02  0.11222251734E+03  0.19567449828E+02  0.12738478368E+03  0.00000000000E+00 0. -1.
<mgrwt>
<rscale>  0 0.19721814E+04</rscale>
<asrwt>0</asrwt>
<pdfrwt beam="1">  1        2 0.26060633E+00 0.19721814E+04</pdfrwt>
<pdfrwt beam="2">  1       -1 0.88312476E-01 0.19721814E+04</pdfrwt>
<totfact> 0.13200525E+01</totfact>
</mgrwt>
</event>
<event>
12    6  0.1540825E-007  0.1659191E+04  0.7818608E-02  0.8784988E-01
         -1   -1    0    0    0  501 -0.00000000000E+00  0.00000000000E+00  0.29666380063E+03  0.29666380063E+03  0.00000000000E+00 0.  1.
          2   -1    0    0  501    0  0.00000000000E+00 -0.00000000000E+00 -0.23198942844E+04  0.23198942844E+04  0.00000000000E+00 0. -1.
         24    2    1    2    0    0 -0.27918154860E+03 -0.47882504899E+03 -0.10289214856E+04  0.11713637792E+04  0.78726839075E+02 0.  0.
        254    2    1    2    0    0  0.27918154860E+03  0.47882504899E+03 -0.99430899820E+03  0.14451943058E+04  0.89034848964E+03 0.  0.
         23    2    4    4    0    0  0.18202471618E+03  0.33606570672E+02  0.11923528511E+03  0.23853737128E+03  0.91763965652E+02 0.  0.
         23    2    4    4    0    0  0.97156832423E+02  0.44521847832E+03 -0.11135442833E+04  0.12066569345E+04  0.91548583773E+02 0.  0.
          2    1    3    3  502    0 -0.18090809522E+03 -0.37301410846E+03 -0.79071878145E+03  0.89280650499E+03  0.00000000000E+00 0. -1.
         -1    1    3    3    0  502 -0.98273453379E+02 -0.10581094054E+03 -0.23820270413E+03  0.27855727424E+03  0.00000000000E+00 0.  1.
         11    1    5    5    0    0  0.17571089577E+03  0.32532447051E+02  0.74928972774E+02  0.19377056011E+03  0.00000000000E+00 0. -1.
        -11    1    5    5    0    0  0.63138204027E+01  0.10741236211E+01  0.44306312339E+02  0.44766811175E+02  0.00000000000E+00 0.  1.
          4    1    6    6  503    0  0.80350217350E+02  0.43811268604E+03 -0.10506191177E+04  0.11411395242E+04  0.00000000000E+00 0. -1.
         -4    1    6    6    0  503  0.16806615073E+02  0.71057922851E+01 -0.62925165573E+02  0.65517410332E+02  0.00000000000E+00 0.  1.
<mgrwt>
<rscale>  0 0.16591910E+04</rscale>
<asrwt>0</asrwt>
<pdfrwt beam="1">  1        2 0.35690682E+00 0.16591910E+04</pdfrwt>
<pdfrwt beam="2">  1       -1 0.45640583E-01 0.16591910E+04</pdfrwt>
<totfact> 0.22925573E+01</totfact>
</mgrwt>
</event>
<event>
12    6  0.1540825E-007  0.1513328E+04  0.7818608E-02  0.8875638E-01
         -1   -1    0    0    0  501 -0.00000000000E+00  0.00000000000E+00  0.24069372150E+03  0.24069372150E+03  0.00000000000E+00 0.  1.
          2   -1    0    0  501    0  0.00000000000E+00 -0.00000000000E+00 -0.23787100415E+04  0.23787100415E+04  0.00000000000E+00 0. -1.
         24    2    1    2    0    0  0.32493935547E+03 -0.35246291034E+01 -0.77799404641E+02  0.34355673991E+03  0.79877897000E+02 0.  0.
        254    2    1    2    0    0 -0.32493935547E+03  0.35246291034E+01 -0.20602169154E+04  0.22758470231E+04  0.91070737695E+03 0.  0.
         23    2    4    4    0    0 -0.53781812499E+03  0.95489651023E+02 -0.19015593282E+04  0.19805617681E+04  0.91271187228E+02 0.  0.
         23    2    4    4    0    0  0.21287876952E+03 -0.91965021919E+02 -0.15865758717E+03  0.29528525499E+03  0.90808678430E+02 0.  0.
          4    1    3    3  502    0  0.11145188021E+03 -0.34636751188E+02 -0.87667415979E+01  0.11703880507E+03  0.00000000000E+00 0. -1.
         -3    1    3    3    0  502  0.21348747526E+03  0.31112122084E+02 -0.69032663043E+02  0.22651793483E+03  0.00000000000E+00 0.  1.
         11    1    5    5    0    0 -0.22550637617E+03  0.17916918618E+01 -0.86604208125E+03  0.89492190852E+03  0.00000000000E+00 0. -1.
        -11    1    5    5    0    0 -0.31231174882E+03  0.93697959161E+02 -0.10355172469E+04  0.10856398596E+04  0.00000000000E+00 0.  1.
          4    1    6    6  503    0  0.13391483052E+03 -0.29668694430E+02 -0.46961998110E+02  0.14497876579E+03  0.00000000000E+00 0. -1.
         -4    1    6    6    0  503  0.78963939001E+02 -0.62296327489E+02 -0.11169558906E+03  0.15030648920E+03  0.00000000000E+00 0.  1.
<mgrwt>
<rscale>  0 0.15133282E+04</rscale>
<asrwt>0</asrwt>
<pdfrwt beam="1">  1        2 0.36595539E+00 0.15133282E+04</pdfrwt>
<pdfrwt beam="2">  1       -1 0.37029803E-01 0.15133282E+04</pdfrwt>
<totfact> 0.31568224E+01</totfact>
</mgrwt>
</event>
<event>
12    6  0.1540825E-007  0.1236299E+04  0.7818608E-02  0.9081665E-01
          2   -1    0    0  501    0  0.00000000000E+00  0.00000000000E+00  0.80664515090E+03  0.80664515090E+03  0.00000000000E+00 0. -1.
         -1   -1    0    0    0  501 -0.00000000000E+00 -0.00000000000E+00 -0.47370101006E+03  0.47370101006E+03  0.00000000000E+00 0.  1.
         24    2    1    2    0    0 -0.78629430963E+02 -0.17949620285E+03 -0.13586004005E+03  0.25165719487E+03  0.80448237987E+02 0.  0.
        254    2    1    2    0    0  0.78629430963E+02  0.17949620285E+03  0.46880418088E+03  0.10286889661E+04  0.89443957577E+03 0.  0.
         23    2    4    4    0    0  0.40768333102E+03 -0.34845678636E+02  0.46428176502E+03  0.62567781215E+03  0.92169667326E+02 0.  0.
         23    2    4    4    0    0 -0.32905390006E+03  0.21434188149E+03  0.45224158633E+01  0.40301115394E+03  0.90435759821E+02 0.  0.
          2    1    3    3  502    0 -0.23969118012E+02 -0.80229159240E+02 -0.10482652771E+03  0.13416347313E+03  0.00000000000E+00 0. -1.
         -1    1    3    3    0  502 -0.54660312951E+02 -0.99267043612E+02 -0.31033512334E+02  0.11749372174E+03  0.00000000000E+00 0.  1.
         11    1    5    5    0    0  0.27029132908E+03 -0.66664364426E+02  0.30930446551E+03  0.41613794882E+03  0.00000000000E+00 0. -1.
        -11    1    5    5    0    0  0.13739200194E+03  0.31818685790E+02  0.15497729950E+03  0.20953986333E+03  0.00000000000E+00 0.  1.
          4    1    6    6  503    0 -0.18294209941E+03  0.78199726205E+02  0.31692644497E+02  0.20146322898E+03  0.00000000000E+00 0.  1.
         -4    1    6    6    0  503 -0.14611180065E+03  0.13614215528E+03 -0.27170228633E+02  0.20154792496E+03  0.00000000000E+00 0. -1.
<mgrwt>
<rscale>  0 0.12362987E+04</rscale>
<asrwt>0</asrwt>
<pdfrwt beam="1">  1        2 0.12409925E+00 0.12362987E+04</pdfrwt>
<pdfrwt beam="2">  1       -1 0.72877078E-01 0.12362987E+04</pdfrwt>
<totfact> 0.72703718E+01</totfact>
</mgrwt>
</event>
<event>
12    6  0.1540825E-007  0.2061291E+04  0.7818608E-02  0.8578490E-01
         -1   -1    0    0    0  501 -0.00000000000E+00  0.00000000000E+00  0.98433667807E+03  0.98433667807E+03  0.00000000000E+00 0.  1.
          2   -1    0    0  501    0  0.00000000000E+00 -0.00000000000E+00 -0.10791324329E+04  0.10791324329E+04  0.00000000000E+00 0. -1.
         24    2    1    2    0    0 -0.57376989739E+03  0.45597571852E+03 -0.45214197475E+03  0.86506141800E+03  0.82299092076E+02 0.  0.
        254    2    1    2    0    0  0.57376989739E+03 -0.45597571852E+03  0.35734621987E+03  0.11984076930E+04  0.87827041782E+03 0.  0.
         23    2    4    4    0    0  0.41108754703E+03 -0.44971731838E+03  0.62125892537E+03  0.87533107708E+03  0.94885216828E+02 0.  0.
         23    2    4    4    0    0  0.16268235036E+03 -0.62584001384E+01 -0.26391270550E+03  0.32307661595E+03  0.90685549877E+02 0.  0.
          4    1    3    3  502    0 -0.53292825644E+03  0.40069728452E+03 -0.42753992397E+03  0.79206137826E+03  0.00000000000E+00 0. -1.
         -3    1    3    3    0  502 -0.40841640948E+02  0.55278433994E+02 -0.24602050780E+02  0.73000039745E+02  0.00000000000E+00 0.  1.
         11    1    5    5    0    0  0.27869215639E+03 -0.27199863531E+03  0.33777695538E+03  0.51550542890E+03  0.00000000000E+00 0.  1.
        -11    1    5    5    0    0  0.13239539064E+03 -0.17771868306E+03  0.28348196999E+03  0.35982564817E+03  0.00000000000E+00 0. -1.
          3    1    6    6  503    0  0.45976920570E+02 -0.12113205850E+02 -0.18047497876E+02  0.50855866532E+02  0.00000000000E+00 0. -1.
         -3    1    6    6    0  503  0.11670542979E+03  0.58548057116E+01 -0.24586520762E+03  0.27222074941E+03  0.00000000000E+00 0.  1.
<mgrwt>
<rscale>  0 0.20612905E+04</rscale>
<asrwt>0</asrwt>
<pdfrwt beam="1">  1        2 0.16602037E+00 0.20612905E+04</pdfrwt>
<pdfrwt beam="2">  1       -1 0.15143641E+00 0.20612905E+04</pdfrwt>
<totfact> 0.80465457E+00</totfact>
</mgrwt>
</event>
<event>
12    6  0.1540825E-007  0.1606472E+04  0.7818608E-02  0.8816582E-01
          2   -1    0    0  501    0  0.00000000000E+00  0.00000000000E+00  0.95421400171E+03  0.95421400171E+03  0.00000000000E+00 0. -1.
         -1   -1    0    0    0  501 -0.00000000000E+00 -0.00000000000E+00 -0.67614584208E+03  0.67614584208E+03  0.00000000000E+00 0.  1.
         24    2    1    2    0    0  0.13468346772E+03 -0.33741535412E+02  0.63302366854E+03  0.65422852636E+03  0.89542571390E+02 0.  0.
        254    2    1    2    0    0 -0.13468346772E+03  0.33741535412E+02 -0.35495550890E+03  0.97613131742E+03  0.89864387155E+03 0.  0.
         23    2    4    4    0    0 -0.36981220112E+03 -0.16261312232E+03  0.94520333994E+02  0.42470717588E+03  0.90763429072E+02 0.  0.
         23    2    4    4    0    0  0.23512873340E+03  0.19635465773E+03 -0.44947584290E+03  0.55142414154E+03  0.90550414943E+02 0.  0.
          4    1    3    3  502    0  0.10386534742E+03 -0.42776578689E+02  0.58967987568E+03  0.60028343460E+03  0.00000000000E+00 0. -1.
         -3    1    3    3    0  502  0.30818120296E+02  0.90350432771E+01  0.43343792859E+02  0.53945091760E+02  0.00000000000E+00 0.  1.
         11    1    5    5    0    0 -0.28195356816E+03 -0.12929619335E+03  0.11072610613E+03  0.32935632799E+03  0.00000000000E+00 0. -1.
        -11    1    5    5    0    0 -0.87858632964E+02 -0.33316928967E+02 -0.16205772132E+02  0.95350847886E+02  0.00000000000E+00 0.  1.
          4    1    6    6  503    0  0.17341981295E+03  0.89613704163E+02 -0.25461999321E+03  0.32083701226E+03  0.00000000000E+00 0. -1.
         -4    1    6    6    0  503  0.61708920454E+02  0.10674095357E+03 -0.19485584969E+03  0.23058712928E+03  0.00000000000E+00 0.  1.
<mgrwt>
<rscale>  0 0.16064717E+04</rscale>
<asrwt>0</asrwt>
<pdfrwt beam="1">  1        2 0.14680215E+00 0.16064717E+04</pdfrwt>
<pdfrwt beam="2">  1       -1 0.10402244E+00 0.16064717E+04</pdfrwt>
<totfact> 0.25678200E+01</totfact>
</mgrwt>
</event>
<event>
12    6  0.1540825E-007  0.1434957E+04  0.7818608E-02  0.8928896E-01
          2   -1    0    0  501    0  0.00000000000E+00  0.00000000000E+00  0.16000791552E+04  0.16000791552E+04  0.00000000000E+00 0. -1.
         -1   -1    0    0    0  501 -0.00000000000E+00 -0.00000000000E+00 -0.32171869338E+03  0.32171869338E+03  0.00000000000E+00 0.  1.
         24    2    1    2    0    0  0.41462016204E+03  0.15200696172E+03  0.52412735807E+03  0.69013331294E+03  0.80984609404E+02 0.  0.
        254    2    1    2    0    0 -0.41462016204E+03 -0.15200696172E+03  0.75423310373E+03  0.12316645356E+04  0.86782138623E+03 0.  0.
         23    2    4    4    0    0 -0.23407901533E+03 -0.11545993452E+03 -0.14274572239E+03  0.31069937935E+03  0.89631362659E+02 0.  0.
         23    2    4    4    0    0 -0.18054114671E+03 -0.36547027202E+02  0.89697882612E+03  0.92096515629E+03  0.98361647667E+02 0.  0.
          4    1    3    3  502    0  0.19407039350E+03  0.10861733736E+03  0.29150328108E+03  0.36665406924E+03  0.00000000000E+00 0. -1.
         -3    1    3    3    0  502  0.22054976855E+03  0.43389624360E+02  0.23262407699E+03  0.32347924370E+03  0.00000000000E+00 0.  1.
         11    1    5    5    0    0 -0.43930363738E+02  0.35922384778E+01  0.12940039705E+01  0.44095980335E+02  0.00000000000E+00 0. -1.
        -11    1    5    5    0    0 -0.19014865159E+03 -0.11905217300E+03 -0.14403972636E+03  0.26660339901E+03  0.00000000000E+00 0.  1.
          2    1    6    6  503    0 -0.18103387748E+03 -0.11372275692E+02  0.73563851083E+03  0.75767183666E+03  0.00000000000E+00 0.  1.
         -2    1    6    6    0  503  0.49273076408E+00 -0.25174751510E+02  0.16134031529E+03  0.16329331963E+03  0.00000000000E+00 0. -1.
<mgrwt>
<rscale>  0 0.14349570E+04</rscale>
<asrwt>0</asrwt>
<pdfrwt beam="1">  1        2 0.24616602E+00 0.14349570E+04</pdfrwt>
<pdfrwt beam="2">  1       -1 0.49495184E-01 0.14349570E+04</pdfrwt>
<totfact> 0.50470118E+01</totfact>
</mgrwt>
</event>
<event>
12    6  0.1540825E-007  0.1701624E+04  0.7818608E-02  0.8760439E-01
         -1   -1    0    0    0  501 -0.00000000000E+00  0.00000000000E+00  0.39461060626E+03  0.39461060626E+03  0.00000000000E+00 0.  1.
          2   -1    0    0  501    0  0.00000000000E+00 -0.00000000000E+00 -0.18344189787E+04  0.18344189787E+04  0.00000000000E+00 0. -1.
         24    2    1    2    0    0 -0.59410561828E+03 -0.12014266696E+03 -0.62610823368E+03  0.87508951198E+03  0.79839761991E+02 0.  0.
        254    2    1    2    0    0  0.59410561828E+03  0.12014266696E+03 -0.81370013873E+03  0.13539400730E+04  0.89646531405E+03 0.  0.
         23    2    4    4    0    0  0.35903797870E+03  0.67996204552E+02  0.11359710731E+03  0.39228760443E+03  0.86333700377E+02 0.  0.
         23    2    4    4    0    0  0.23506763959E+03  0.52146462405E+02 -0.92729724604E+03  0.96165246853E+03  0.83181963190E+02 0.  0.
          4    1    3    3  502    0 -0.59485570195E+03 -0.12379980739E+03 -0.62295696293E+03  0.87020404281E+03  0.00000000000E+00 0. -1.
         -3    1    3    3    0  502  0.75008366976E+00  0.36571404358E+01 -0.31512707453E+01  0.48854691677E+01  0.00000000000E+00 0.  1.
         11    1    5    5    0    0  0.33078933570E+03  0.36137558360E+02  0.10412095286E+03  0.34866700526E+03  0.00000000000E+00 0. -1.
        -11    1    5    5    0    0  0.28248643001E+02  0.31858646192E+02  0.94761544448E+01  0.43620599167E+02  0.00000000000E+00 0.  1.
          1    1    6    6  503    0  0.22645094867E+03  0.55861523619E+02 -0.78173410574E+03  0.81578719900E+03  0.00000000000E+00 0. -1.
         -1    1    6    6    0  503  0.86166909174E+01 -0.37150612137E+01 -0.14556314030E+03  0.14586526953E+03  0.00000000000E+00 0.  1.
<mgrwt>
<rscale>  0 0.17016241E+04</rscale>
<asrwt>0</asrwt>
<pdfrwt beam="1">  1        2 0.28221830E+00 0.17016241E+04</pdfrwt>
<pdfrwt beam="2">  1       -1 0.60709324E-01 0.17016241E+04</pdfrwt>
<totfact> 0.24622488E+01</totfact>
</mgrwt>
</event>
<event>
12    6  0.1540825E-007  0.1564167E+04  0.7818608E-02  0.8842869E-01
          2   -1    0    0  501    0  0.00000000000E+00  0.00000000000E+00  0.43272847422E+03  0.43272847422E+03  0.00000000000E+00 0. -1.
         -1   -1    0    0    0  501 -0.00000000000E+00 -0.00000000000E+00 -0.14134844068E+04  0.14134844068E+04  0.00000000000E+00 0.  1.
         24    2    1    2    0    0 -0.39459373582E+03 -0.16650634556E+03  0.18769276750E+02  0.43643966833E+03  0.81845701631E+02 0.  0.
        254    2    1    2    0    0  0.39459373582E+03  0.16650634556E+03 -0.99952520936E+03  0.14097732127E+04  0.89720749421E+03 0.  0.
         23    2    4    4    0    0  0.68257054108E+02  0.94134073255E+02 -0.10501548170E+04  0.10601536178E+04  0.87064944807E+02 0.  0.
         23    2    4    4    0    0  0.32633668171E+03  0.72372272310E+02  0.50629607600E+02  0.34961959489E+03  0.89090562547E+02 0.  0.
          4    1    3    3  502    0 -0.26436926451E+03 -0.14991839599E+03  0.25528431346E+02  0.30498907240E+03  0.00000000000E+00 0. -1.
         -3    1    3    3    0  502 -0.13022447131E+03 -0.16587949574E+02 -0.67591545956E+01  0.13145059593E+03  0.00000000000E+00 0.  1.
         11    1    5    5    0    0  0.69870544351E+01  0.62044183938E+02 -0.27887779798E+03  0.28578160524E+03  0.00000000000E+00 0. -1.
        -11    1    5    5    0    0  0.61269999673E+02  0.32089889317E+02 -0.77127701898E+03  0.77437201258E+03  0.00000000000E+00 0.  1.
          3    1    6    6  503    0  0.88676559600E+02 -0.14326671108E+02  0.34164255408E+02  0.96104016957E+02  0.00000000000E+00 0. -1.
         -3    1    6    6    0  503  0.23766012211E+03  0.86698943418E+02  0.16465352192E+02  0.25351557794E+03  0.00000000000E+00 0.  1.
<mgrwt>
<rscale>  0 0.15641674E+04</rscale>
<asrwt>0</asrwt>
<pdfrwt beam="1">  1        2 0.66573612E-01 0.15641674E+04</pdfrwt>
<pdfrwt beam="2">  1       -1 0.21745914E+00 0.15641674E+04</pdfrwt>
<totfact> 0.91537194E+00</totfact>
</mgrwt>
</event>
<event>
12    6  0.1540825E-007  0.4087570E+04  0.7818608E-02  0.7987110E-01
         -1   -1    0    0    0  501 -0.00000000000E+00  0.00000000000E+00  0.11792092862E+04  0.11792092862E+04  0.00000000000E+00 0.  1.
          2   -1    0    0  501    0  0.00000000000E+00 -0.00000000000E+00 -0.35422519889E+04  0.35422519889E+04  0.00000000000E+00 0. -1.
         24    2    1    2    0    0 -0.18951346823E+04 -0.40372722717E+03 -0.12748411952E+04  0.23210171334E+04  0.85844759893E+02 0.  0.
        254    2    1    2    0    0  0.18951346823E+04  0.40372722717E+03 -0.10882015074E+04  0.24004441417E+04  0.90742405661E+03 0.  0.
         23    2    4    4    0    0  0.75184517086E+03 -0.88427178094E+02 -0.28457424069E+02  0.76311436158E+03  0.91886762320E+02 0.  0.
         23    2    4    4    0    0  0.11432895114E+04  0.49215440526E+03 -0.10597440834E+04  0.16373297801E+04  0.92002287812E+02 0.  0.
          4    1    3    3  502    0 -0.14996162785E+04 -0.28755300526E+03 -0.98444627102E+03  0.18167746624E+04  0.00000000000E+00 0. -1.
         -3    1    3    3    0  502 -0.39551840378E+03 -0.11617422190E+03 -0.29039492420E+03  0.50424247101E+03  0.00000000000E+00 0.  1.
         11    1    5    5    0    0  0.71503698294E+03 -0.10010397403E+03 -0.14823700719E+02  0.72216233264E+03  0.00000000000E+00 0.  1.
        -11    1    5    5    0    0  0.36808187921E+02  0.11676795936E+02 -0.13633723349E+02  0.40952028933E+02  0.00000000000E+00 0. -1.
          2    1    6    6  503    0  0.48404283005E+01 -0.70460635869E-01  0.13979391115E+01  0.50387443469E+01  0.00000000000E+00 0. -1.
         -2    1    6    6    0  503  0.11384490831E+04  0.49222486590E+03 -0.10611420225E+04  0.16322910357E+04  0.00000000000E+00 0.  1.
<mgrwt>
<rscale>  0 0.40875697E+04</rscale>
<asrwt>0</asrwt>
<pdfrwt beam="1">  1        2 0.54496184E+00 0.40875697E+04</pdfrwt>
<pdfrwt beam="2">  1       -1 0.18141682E+00 0.40875697E+04</pdfrwt>
<totfact> 0.13691930E-01</totfact>
</mgrwt>
</event>
<event>
12    6  0.1540825E-007  0.1306406E+04  0.7818608E-02  0.9024501E-01
          2   -1    0    0  501    0  0.00000000000E+00  0.00000000000E+00  0.15383295570E+04  0.15383295570E+04  0.00000000000E+00 0. -1.
         -1   -1    0    0    0  501 -0.00000000000E+00 -0.00000000000E+00 -0.27736178716E+03  0.27736178716E+03  0.00000000000E+00 0.  1.
         24    2    1    2    0    0  0.33236197833E+03  0.23546033359E+02  0.28860489730E+03  0.44714947753E+03  0.75039777342E+02 0.  0.
        254    2    1    2    0    0 -0.33236197833E+03 -0.23546033359E+02  0.97236287258E+03  0.13685418667E+04  0.90354766588E+03 0.  0.
         23    2    4    4    0    0 -0.53885276453E+03 -0.28454498203E+03  0.57857615921E+03  0.84497172538E+03  0.88874608468E+02 0.  0.
         23    2    4    4    0    0  0.20649078620E+03  0.26099894867E+03  0.39378671337E+03  0.52357014129E+03  0.91097866206E+02 0.  0.
          2    1    3    3  502    0  0.21349216109E+03  0.38625944310E+02  0.22043008783E+03  0.30928997727E+03  0.00000000000E+00 0. -1.
         -1    1    3    3    0  502  0.11886981724E+03 -0.15079910951E+02  0.68174809469E+02  0.13785950026E+03  0.00000000000E+00 0.  1.
         11    1    5    5    0    0 -0.45205727237E+03 -0.26134221842E+03  0.45772164076E+03  0.69438075510E+03  0.00000000000E+00 0. -1.
        -11    1    5    5    0    0 -0.86795492164E+02 -0.23202763618E+02  0.12085451845E+03  0.15059097028E+03  0.00000000000E+00 0.  1.
          3    1    6    6  503    0  0.14183148373E+03  0.22131176602E+03  0.25972422382E+03  0.36952907869E+03  0.00000000000E+00 0. -1.
         -3    1    6    6    0  503  0.64659302472E+02  0.39687182651E+02  0.13406248955E+03  0.15404106260E+03  0.00000000000E+00 0.  1.
<mgrwt>
<rscale>  0 0.13064055E+04</rscale>
<asrwt>0</asrwt>
<pdfrwt beam="1">  1        2 0.23666608E+00 0.13064055E+04</pdfrwt>
<pdfrwt beam="2">  1       -1 0.42671045E-01 0.13064055E+04</pdfrwt>
<totfact> 0.72876663E+01</totfact>
</mgrwt>
</event>
<event>
12    6  0.1540825E-007  0.1083079E+04  0.7818608E-02  0.9221843E-01
          2   -1    0    0  501    0  0.00000000000E+00  0.00000000000E+00  0.31508119091E+03  0.31508119091E+03  0.00000000000E+00 0. -1.
         -1   -1    0    0    0  501 -0.00000000000E+00 -0.00000000000E+00 -0.93076025751E+03  0.93076025751E+03  0.00000000000E+00 0.  1.
         24    2    1    2    0    0 -0.10870659169E+03 -0.10127614585E+03 -0.48078656172E+02  0.17481947433E+03  0.78589507124E+02 0.  0.
        254    2    1    2    0    0  0.10870659169E+03  0.10127614585E+03 -0.56760041043E+03  0.10710219741E+04  0.89601554801E+03 0.  0.
         23    2    4    4    0    0 -0.28150464671E+03  0.60614700372E+02  0.76421398790E+02  0.31162312195E+03  0.91376867519E+02 0.  0.
         23    2    4    4    0    0  0.39021123841E+03  0.40661445477E+02 -0.64402180922E+03  0.75939885214E+03  0.89467100947E+02 0.  0.
          4    1    3    3  502    0 -0.76851073423E+02 -0.80909628453E+02 -0.69401565974E+02  0.13141169211E+03  0.00000000000E+00 0. -1.
         -3    1    3    3    0  502 -0.31855518271E+02 -0.20366517397E+02  0.21322909802E+02  0.43407782224E+02  0.00000000000E+00 0.  1.
         11    1    5    5    0    0 -0.14101763083E+03  0.47914272670E+02  0.82827968577E+02  0.17041778695E+03  0.00000000000E+00 0. -1.
        -11    1    5    5    0    0 -0.14048701588E+03  0.12700427702E+02 -0.64065697873E+01  0.14120533500E+03  0.00000000000E+00 0.  1.
          3    1    6    6  503    0  0.37871332813E+03  0.45689511775E+02 -0.58027188051E+03  0.69442549759E+03  0.00000000000E+00 0. -1.
         -3    1    6    6    0  503  0.11497910283E+02 -0.50280662981E+01 -0.63749928708E+02  0.64973354553E+02  0.00000000000E+00 0.  1.
<mgrwt>
<rscale>  0 0.10830790E+04</rscale>
<asrwt>0</asrwt>
<pdfrwt beam="1">  1        2 0.48474030E-01 0.10830790E+04</pdfrwt>
<pdfrwt beam="2">  1       -1 0.14319388E+00 0.10830790E+04</pdfrwt>
<totfact> 0.46759145E+01</totfact>
</mgrwt>
</event>
<event>
12    6  0.1540825E-007  0.2007547E+04  0.7818608E-02  0.8603100E-01
         -3   -1    0    0    0  501 -0.00000000000E+00  0.00000000000E+00  0.99826671530E+03  0.99826671530E+03  0.00000000000E+00 0.  1.
          2   -1    0    0  501    0  0.00000000000E+00 -0.00000000000E+00 -0.10093105411E+04  0.10093105411E+04  0.00000000000E+00 0. -1.
         24    2    1    2    0    0  0.62591870321E+03 -0.60731069810E+02 -0.49023963667E+03  0.80143892085E+03  0.80665709110E+02 0.  0.
        254    2    1    2    0    0 -0.62591870321E+03  0.60731069810E+02  0.47919581083E+03  0.12061383356E+04  0.91086693517E+03 0.  0.
         23    2    4    4    0    0  0.21831499644E+03 -0.71342572056E+02  0.90302977513E+02  0.26290520142E+03  0.90627352002E+02 0.  0.
         23    2    4    4    0    0 -0.84423369964E+03  0.13207364187E+03  0.38889283332E+03  0.94323313416E+03  0.90978695797E+02 0.  0.
          2    1    3    3  502    0  0.57223596223E+03 -0.32219975087E+02 -0.43933660902E+03  0.72215564756E+03  0.00000000000E+00 0. -1.
         -1    1    3    3    0  502  0.53682740975E+02 -0.28511094723E+02 -0.50903027647E+02  0.79283273296E+02  0.00000000000E+00 0.  1.
         11    1    5    5    0    0  0.17270645312E+03 -0.81124248197E+02  0.99752600610E+02  0.21531196883E+03  0.00000000000E+00 0.  1.
        -11    1    5    5    0    0  0.45608543316E+02  0.97816761410E+01 -0.94496230969E+01  0.47593232588E+02  0.00000000000E+00 0. -1.
          4    1    6    6  503    0 -0.32805743950E+03  0.22680844617E+02  0.18695250391E+03  0.37826887665E+03  0.00000000000E+00 0. -1.
         -4    1    6    6    0  503 -0.51617626015E+03  0.10939279725E+03  0.20194032940E+03  0.56496425751E+03  0.00000000000E+00 0.  1.
<mgrwt>
<rscale>  0 0.20075469E+04</rscale>
<asrwt>0</asrwt>
<pdfrwt beam="1">  1        2 0.15527855E+00 0.20075469E+04</pdfrwt>
<pdfrwt beam="2">  1       -3 0.15357949E+00 0.20075469E+04</pdfrwt>
<totfact> 0.44174287E+00</totfact>
</mgrwt>
</event>
<event>
12    6  0.1540825E-007  0.1585483E+04  0.7818608E-02  0.8829517E-01
          2   -1    0    0  501    0  0.00000000000E+00  0.00000000000E+00  0.16756834654E+04  0.16756834654E+04  0.00000000000E+00 0. -1.
         -1   -1    0    0    0  501 -0.00000000000E+00 -0.00000000000E+00 -0.37503428221E+03  0.37503428221E+03  0.00000000000E+00 0.  1.
         24    2    1    2    0    0 -0.39799922752E+03  0.54274780504E+02  0.89130961447E+03  0.98089400620E+03  0.79819080814E+02 0.  0.
        254    2    1    2    0    0  0.39799922752E+03 -0.54274780504E+02  0.40933956870E+03  0.10698237414E+04  0.90311395638E+03 0.  0.
         23    2    4    4    0    0  0.38539570732E+03 -0.33669032373E+03 -0.51623297907E+02  0.52181876686E+03  0.87975196813E+02 0.  0.
         23    2    4    4    0    0  0.12603520200E+02  0.28241554322E+03  0.46096286661E+03  0.54800497451E+03  0.88911753572E+02 0.  0.
          2    1    3    3  502    0 -0.31829174043E+03  0.58677527569E+02  0.77455885511E+03  0.83946060318E+03  0.00000000000E+00 0. -1.
         -1    1    3    3    0  502 -0.79707487090E+02 -0.44027470650E+01  0.11675075936E+03  0.14143340303E+03  0.00000000000E+00 0.  1.
         11    1    5    5    0    0  0.33778463260E+03 -0.25583811961E+03 -0.58421735528E+02  0.42774373245E+03  0.00000000000E+00 0. -1.
        -11    1    5    5    0    0  0.47611074715E+02 -0.80852204113E+02  0.67984376205E+01  0.94075034411E+02  0.00000000000E+00 0.  1.
          4    1    6    6  503    0 -0.89723810618E+01  0.15543456257E+03  0.17415359036E+03  0.23360196896E+03  0.00000000000E+00 0.  1.
         -4    1    6    6    0  503  0.21575901261E+02  0.12698098065E+03  0.28680927624E+03  0.31440300555E+03  0.00000000000E+00 0. -1.
<mgrwt>
<rscale>  0 0.15854826E+04</rscale>
<asrwt>0</asrwt>
<pdfrwt beam="1">  1        2 0.25779745E+00 0.15854826E+04</pdfrwt>
<pdfrwt beam="2">  1       -1 0.57697583E-01 0.15854826E+04</pdfrwt>
<totfact> 0.33666844E+01</totfact>
</mgrwt>
</event>
<event>
12    6  0.1540825E-007  0.2141588E+04  0.7818608E-02  0.8543142E-01
         -1   -1    0    0    0  501 -0.00000000000E+00  0.00000000000E+00  0.48672851136E+03  0.48672851136E+03  0.00000000000E+00 0.  1.
          2   -1    0    0  501    0  0.00000000000E+00 -0.00000000000E+00 -0.23557266737E+04  0.23557266737E+04  0.00000000000E+00 0. -1.
         24    2    1    2    0    0  0.25017953861E+03  0.82035841887E+03 -0.10167304883E+04  0.13324450593E+04  0.78046224141E+02 0.  0.
        254    2    1    2    0    0 -0.25017953861E+03 -0.82035841887E+03 -0.85226767402E+03  0.15100101258E+04  0.90454002392E+03 0.  0.
         23    2    4    4    0    0  0.99721477338E+02  0.14801588585E+03 -0.62870606994E+02  0.20926632992E+03  0.89367824793E+02 0.  0.
         23    2    4    4    0    0 -0.34990101594E+03 -0.96837430472E+03 -0.78939706703E+03  0.13007437959E+04  0.92774878508E+02 0.  0.
          4    1    3    3  502    0  0.10337290957E+03  0.35516401097E+03 -0.49840616642E+03  0.62067394004E+03  0.00000000000E+00 0. -1.
         -3    1    3    3    0  502  0.14680662904E+03  0.46519440791E+03 -0.51832432189E+03  0.71177111921E+03  0.00000000000E+00 0.  1.
         11    1    5    5    0    0 -0.31084776337E+01  0.70705586424E+02 -0.18139528870E+02  0.73061515810E+02  0.00000000000E+00 0. -1.
        -11    1    5    5    0    0  0.10282995497E+03  0.77310299423E+02 -0.44731078124E+02  0.13620481411E+03  0.00000000000E+00 0.  1.
          1    1    6    6  503    0 -0.13378869726E+03 -0.47694614075E+03 -0.34254357895E+03  0.60225670620E+03  0.00000000000E+00 0. -1.
         -1    1    6    6    0  503 -0.21611231869E+03 -0.49142816397E+03 -0.44685348808E+03  0.69848708967E+03  0.00000000000E+00 0.  1.
<mgrwt>
<rscale>  0 0.21415876E+04</rscale>
<asrwt>0</asrwt>
<pdfrwt beam="1">  1        2 0.36241949E+00 0.21415876E+04</pdfrwt>
<pdfrwt beam="2">  1       -1 0.74881310E-01 0.21415876E+04</pdfrwt>
<totfact> 0.79023576E+00</totfact>
</mgrwt>
</event>
<event>
12    6  0.1540825E-007  0.1577459E+04  0.7818608E-02  0.8834517E-01
         -1   -1    0    0    0  501 -0.00000000000E+00  0.00000000000E+00  0.29710533330E+03  0.29710533330E+03  0.00000000000E+00 0.  1.
          2   -1    0    0  501    0  0.00000000000E+00 -0.00000000000E+00 -0.20938499320E+04  0.20938499320E+04  0.00000000000E+00 0. -1.
         24    2    1    2    0    0 -0.21145834455E+03 -0.39333701691E+03 -0.32774651009E+03  0.55966739415E+03  0.79882268691E+02 0.  0.
        254    2    1    2    0    0  0.21145834455E+03  0.39333701691E+03 -0.14689980886E+04  0.18312878711E+04  0.99811384236E+03 0.  0.
         23    2    4    4    0    0  0.42693199318E+03 -0.18016796501E+03 -0.59111996148E+03  0.75683523703E+03  0.92980345999E+02 0.  0.
         23    2    4    4    0    0 -0.21547364863E+03  0.57350498192E+03 -0.87787812712E+03  0.10744526341E+04  0.91878176502E+02 0.  0.
          4    1    3    3  502    0 -0.11348105079E+03 -0.24419269280E+03 -0.24047997357E+03  0.36102442825E+03  0.00000000000E+00 0. -1.
         -3    1    3    3    0  502 -0.97977293757E+02 -0.14914432411E+03 -0.87266536521E+02  0.19864296591E+03  0.00000000000E+00 0.  1.
         11    1    5    5    0    0  0.22306918678E+03 -0.11847268928E+03 -0.38485926642E+03  0.46033932609E+03  0.00000000000E+00 0.  1.
        -11    1    5    5    0    0  0.20386280640E+03 -0.61695275726E+02 -0.20626069506E+03  0.29649591095E+03  0.00000000000E+00 0. -1.
          1    1    6    6  503    0 -0.20376940815E+03  0.48974643038E+03 -0.79734567200E+03  0.95767095519E+03  0.00000000000E+00 0. -1.
         -1    1    6    6    0  503 -0.11704240479E+02  0.83758551539E+02 -0.80532455123E+02  0.11678167891E+03  0.00000000000E+00 0.  1.
<mgrwt>
<rscale>  0 0.15774587E+04</rscale>
<asrwt>0</asrwt>
<pdfrwt beam="1">  1        2 0.32213076E+00 0.15774587E+04</pdfrwt>
<pdfrwt beam="2">  1       -1 0.45708513E-01 0.15774587E+04</pdfrwt>
<totfact> 0.30834469E+01</totfact>
</mgrwt>
</event>
<event>
12    6  0.1540825E-007  0.1448397E+04  0.7818608E-02  0.8919513E-01
         -1   -1    0    0    0  501 -0.00000000000E+00  0.00000000000E+00  0.52230671305E+03  0.52230671305E+03  0.00000000000E+00 0.  1.
          2   -1    0    0  501    0  0.00000000000E+00 -0.00000000000E+00 -0.10041286217E+04  0.10041286217E+04  0.00000000000E+00 0. -1.
         24    2    1    2    0    0  0.36086306666E+03  0.13682661775E+03  0.71524257151E+02  0.40060478115E+03  0.80154819652E+02 0.  0.
        254    2    1    2    0    0 -0.36086306666E+03 -0.13682661775E+03 -0.55334616580E+03  0.11258305536E+04  0.90130948070E+03 0.  0.
         23    2    4    4    0    0 -0.54934638110E+03  0.97359123048E+02 -0.99956137744E+02  0.57422265583E+03  0.92087913000E+02 0.  0.
         23    2    4    4    0    0  0.18848331444E+03 -0.23418574080E+03 -0.45339002806E+03  0.55160789777E+03  0.91322693382E+02 0.  0.
          4    1    3    3  502    0  0.45288831801E+02 -0.55196564186E+01 -0.54777578078E+01  0.45951612850E+02  0.00000000000E+00 0. -1.
         -3    1    3    3    0  502  0.31557423486E+03  0.14234627417E+03  0.77002014958E+02  0.35465316830E+03  0.00000000000E+00 0.  1.
         11    1    5    5    0    0 -0.58856519532E+02  0.35845487206E+02 -0.29233616040E+02  0.74857151637E+02  0.00000000000E+00 0.  1.
        -11    1    5    5    0    0 -0.49048986157E+03  0.61513635842E+02 -0.70722521704E+02  0.49936550419E+03  0.00000000000E+00 0. -1.
          4    1    6    6  503    0  0.18803345353E+03 -0.23388150122E+03 -0.40936433876E+03  0.50757885900E+03  0.00000000000E+00 0. -1.
         -4    1    6    6    0  503  0.44986091000E+00 -0.30423957673E+00 -0.44025689301E+02  0.44029038770E+02  0.00000000000E+00 0.  1.
<mgrwt>
<rscale>  0 0.14483965E+04</rscale>
<asrwt>0</asrwt>
<pdfrwt beam="1">  1        2 0.15448133E+00 0.14483965E+04</pdfrwt>
<pdfrwt beam="2">  1       -1 0.80354879E-01 0.14483965E+04</pdfrwt>
<totfact> 0.42816464E+01</totfact>
</mgrwt>
</event>
<event>
12    6  0.1540825E-007  0.1686786E+04  0.7818608E-02  0.8768937E-01
          2   -1    0    0  501    0  0.00000000000E+00  0.00000000000E+00  0.16127687647E+04  0.16127687647E+04  0.00000000000E+00 0. -1.
         -1   -1    0    0    0  501 -0.00000000000E+00 -0.00000000000E+00 -0.44104993004E+03  0.44104993004E+03  0.00000000000E+00 0.  1.
         24    2    1    2    0    0  0.34183683051E+01  0.32001515111E+01  0.11564027904E+04  0.11592540613E+04  0.81121135664E+02 0.  0.
        254    2    1    2    0    0 -0.34183683051E+01 -0.32001515111E+01  0.15316044204E+02  0.89456463345E+03  0.89442125198E+03 0.  0.
         23    2    4    4    0    0  0.14557840930E+03  0.58511553607E+02  0.41560246945E+03  0.45353342525E+03  0.91380961068E+02 0.  0.
         23    2    4    4    0    0 -0.14899677760E+03 -0.61711705118E+02 -0.40028642525E+03  0.44103120820E+03  0.90944653942E+02 0.  0.
          4    1    3    3  502    0 -0.15391911426E+02  0.19489297717E+02  0.10364552740E+04  0.10367527568E+04  0.00000000000E+00 0. -1.
         -3    1    3    3    0  502  0.18810279731E+02 -0.16289146206E+02  0.11994751642E+03  0.12250130449E+03  0.00000000000E+00 0.  1.
         11    1    5    5    0    0  0.10389804589E+03 -0.65684404156E+01  0.22848011967E+03  0.25107989453E+03  0.00000000000E+00 0. -1.
        -11    1    5    5    0    0  0.41680363403E+02  0.65079994023E+02  0.18712234978E+03  0.20245353073E+03  0.00000000000E+00 0.  1.
          1    1    6    6  503    0 -0.23936286345E+02 -0.45844806672E+02 -0.66573812604E+02  0.84301628854E+02  0.00000000000E+00 0. -1.
         -1    1    6    6    0  503 -0.12506049126E+03 -0.15866898446E+02 -0.33371261265E+03  0.35672957934E+03  0.00000000000E+00 0.  1.
<mgrwt>
<rscale>  0 0.16867858E+04</rscale>
<asrwt>0</asrwt>
<pdfrwt beam="1">  1        2 0.24811827E+00 0.16867858E+04</pdfrwt>
<pdfrwt beam="2">  1       -1 0.67853836E-01 0.16867858E+04</pdfrwt>
<totfact> 0.26179774E+01</totfact>
</mgrwt>
</event>
<event>
12    6  0.1540825E-007  0.2221354E+04  0.7818608E-02  0.8509592E-01
          2   -1    0    0  501    0  0.00000000000E+00  0.00000000000E+00  0.27193642044E+04  0.27193642044E+04  0.00000000000E+00 0. -1.
         -1   -1    0    0    0  501 -0.00000000000E+00 -0.00000000000E+00 -0.45363659704E+03  0.45363659704E+03  0.00000000000E+00 0.  1.
         24    2    1    2    0    0  0.77659929336E+02 -0.71521997281E+03  0.17460560601E+04  0.18902231029E+04  0.81614580604E+02 0.  0.
        254    2    1    2    0    0 -0.77659929336E+02  0.71521997281E+03  0.51967154732E+03  0.12827776985E+04  0.92622320888E+03 0.  0.
         23    2    4    4    0    0  0.22049410962E+03  0.60570179792E+03  0.65657850219E+03  0.92449294473E+03  0.89997527366E+02 0.  0.
         23    2    4    4    0    0 -0.29815403895E+03  0.10951817489E+03 -0.13690695487E+03  0.35828475382E+03  0.93457952888E+02 0.  0.
          2    1    3    3  502    0  0.50824555704E+02 -0.65482994077E+03  0.15533045205E+04  0.16864579213E+04  0.00000000000E+00 0. -1.
         -1    1    3    3    0  502  0.26835373631E+02 -0.60390032037E+02  0.19275153954E+03  0.20376518163E+03  0.00000000000E+00 0.  1.
         11    1    5    5    0    0  0.16664930367E+03  0.47632195000E+03  0.56260633868E+03  0.75576483299E+03  0.00000000000E+00 0.  1.
        -11    1    5    5    0    0  0.53844805940E+02  0.12937984791E+03  0.93972163514E+02  0.16872811173E+03  0.00000000000E+00 0. -1.
          1    1    6    6  503    0 -0.38123528989E+02  0.18878774741E+02  0.13344932487E+02  0.44585858984E+02  0.00000000000E+00 0. -1.
         -1    1    6    6    0  503 -0.26003050996E+03  0.90639400147E+02 -0.15025188735E+03  0.31369889484E+03  0.00000000000E+00 0.  1.
<mgrwt>
<rscale>  0 0.22213538E+04</rscale>
<asrwt>0</asrwt>
<pdfrwt beam="1">  1        2 0.41836371E+00 0.22213538E+04</pdfrwt>
<pdfrwt beam="2">  1       -1 0.69790247E-01 0.22213538E+04</pdfrwt>
<totfact> 0.55755214E+00</totfact>
</mgrwt>
</event>
<event>
12    6  0.1540825E-007  0.2564153E+04  0.7818608E-02  0.8380480E-01
         -1   -1    0    0    0  501 -0.00000000000E+00  0.00000000000E+00  0.43330008661E+03  0.43330008661E+03  0.00000000000E+00 0.  1.
          2   -1    0    0  501    0  0.00000000000E+00 -0.00000000000E+00 -0.37934921494E+04  0.37934921494E+04  0.00000000000E+00 0. -1.
         24    2    1    2    0    0 -0.10034484838E+04 -0.30476451147E+03 -0.21341384239E+04  0.23792736526E+04  0.81277514808E+02 0.  0.
        254    2    1    2    0    0  0.10034484838E+04  0.30476451147E+03 -0.12260536389E+04  0.18475185834E+04  0.90018171693E+03 0.  0.
         23    2    4    4    0    0  0.67162356098E+03  0.16831969983E+03 -0.12943386090E+04  0.14708529956E+04  0.93200701950E+02 0.  0.
         23    2    4    4    0    0  0.33182492285E+03  0.13644481163E+03  0.68284970148E+02  0.37666558781E+03  0.92136647682E+02 0.  0.
          4    1    3    3  502    0 -0.44406009764E+02 -0.21292259429E+02 -0.69452502950E+02  0.85140496714E+02  0.00000000000E+00 0. -1.
         -3    1    3    3    0  502 -0.95904247406E+03 -0.28347225204E+03 -0.20646859210E+04  0.22941331559E+04  0.00000000000E+00 0.  1.
         11    1    5    5    0    0  0.42350010055E+02  0.23926486984E+01 -0.13304367073E+03  0.13964192221E+03  0.00000000000E+00 0. -1.
        -11    1    5    5    0    0  0.62927355092E+03  0.16592705114E+03 -0.11612949383E+04  0.13312110734E+04  0.00000000000E+00 0.  1.
          4    1    6    6  503    0  0.12059451083E+03  0.16398923445E+02 -0.81215278740E+01  0.12197507920E+03  0.00000000000E+00 0. -1.
         -4    1    6    6    0  503  0.21123041202E+03  0.12004588819E+03  0.76406498022E+02  0.25469050861E+03  0.00000000000E+00 0.  1.
<mgrwt>
<rscale>  0 0.25641533E+04</rscale>
<asrwt>0</asrwt>
<pdfrwt beam="1">  1        2 0.58361419E+00 0.25641533E+04</pdfrwt>
<pdfrwt beam="2">  1       -1 0.66661550E-01 0.25641533E+04</pdfrwt>
<totfact> 0.11447669E+00</totfact>
</mgrwt>
</event>
<event>
12    6  0.1540825E-007  0.1328829E+04  0.7818608E-02  0.9007011E-01
         -3   -1    0    0    0  501 -0.00000000000E+00  0.00000000000E+00  0.85190971741E+03  0.85190971741E+03  0.00000000000E+00 0.  1.
          4   -1    0    0  501    0  0.00000000000E+00 -0.00000000000E+00 -0.51818499098E+03  0.51818499098E+03  0.00000000000E+00 0. -1.
         24    2    1    2    0    0  0.34146569202E+03 -0.57823449488E+02  0.15759219319E+03  0.38868997499E+03  0.79386567950E+02 0.  0.
        254    2    1    2    0    0 -0.34146569202E+03  0.57823449488E+02  0.17613253324E+03  0.98140473339E+03  0.90121596264E+03 0.  0.
         23    2    4    4    0    0 -0.34392991778E+02  0.44347017781E+03  0.15278465989E+03  0.47949582813E+03  0.93404605873E+02 0.  0.
         23    2    4    4    0    0 -0.30707270024E+03 -0.38564672833E+03  0.23347873347E+02  0.50190890526E+03  0.91380433853E+02 0.  0.
          4    1    3    3  502    0  0.23685154644E+03 -0.70355672062E+02  0.13256490917E+03  0.28039620323E+03  0.00000000000E+00 0. -1.
         -3    1    3    3    0  502  0.10461414557E+03  0.12532222574E+02  0.25027284016E+02  0.10829377176E+03  0.00000000000E+00 0.  1.
         11    1    5    5    0    0 -0.26823372068E+02  0.37936943838E+03  0.16366814913E+03  0.41403855751E+03  0.00000000000E+00 0. -1.
        -11    1    5    5    0    0 -0.75696197097E+01  0.64100739435E+02 -0.10883489236E+02  0.65457270617E+02  0.00000000000E+00 0.  1.
          2    1    6    6  503    0 -0.24276127694E+03 -0.35467071684E+03  0.24812010008E+02  0.43051131321E+03  0.00000000000E+00 0. -1.
         -2    1    6    6    0  503 -0.64311423297E+02 -0.30976011490E+02 -0.14641366612E+01  0.71397592049E+02  0.00000000000E+00 0.  1.
<mgrwt>
<rscale>  0 0.13288293E+04</rscale>
<asrwt>0</asrwt>
<pdfrwt beam="1">  1        4 0.79720768E-01 0.13288293E+04</pdfrwt>
<pdfrwt beam="2">  1       -3 0.13106303E+00 0.13288293E+04</pdfrwt>
<totfact> 0.14232843E+00</totfact>
</mgrwt>
</event>
<event>
12    6  0.1540825E-007  0.1436875E+04  0.7818608E-02  0.8927550E-01
         -1   -1    0    0    0  501 -0.00000000000E+00  0.00000000000E+00  0.72049500537E+03  0.72049500537E+03  0.00000000000E+00 0.  1.
          2   -1    0    0  501    0  0.00000000000E+00 -0.00000000000E+00 -0.71638621467E+03  0.71638621467E+03  0.00000000000E+00 0. -1.
         24    2    1    2    0    0 -0.37542244328E+03  0.84489995293E+02 -0.18021250842E+03  0.43202162598E+03  0.78010043635E+02 0.  0.
        254    2    1    2    0    0  0.37542244328E+03 -0.84489995293E+02  0.18432129911E+03  0.10048595941E+04  0.90977353899E+03 0.  0.
         23    2    4    4    0    0 -0.23210382823E+03  0.42628097387E+02 -0.14912967544E+03  0.29433858409E+03  0.93307021315E+02 0.  0.
         23    2    4    4    0    0  0.60752627150E+03 -0.12711809268E+03  0.33345097455E+03  0.71052100997E+03  0.91669913961E+02 0.  0.
          4    1    3    3  502    0 -0.25699072345E+03  0.60641315003E+02 -0.82481354116E+02  0.27663111683E+03  0.00000000000E+00 0. -1.
         -3    1    3    3    0  502 -0.11843171983E+03  0.23848680290E+02 -0.97731154302E+02  0.15539050915E+03  0.00000000000E+00 0.  1.
         11    1    5    5    0    0 -0.44640504518E+02  0.26536900811E+02  0.35188775579E+01  0.52051553748E+02  0.00000000000E+00 0.  1.
        -11    1    5    5    0    0 -0.18746332371E+03  0.16091196576E+02 -0.15264855299E+03  0.24228703035E+03  0.00000000000E+00 0. -1.
          4    1    6    6  503    0  0.51714864731E+03 -0.12775141888E+03  0.31304014083E+03  0.61786509710E+03  0.00000000000E+00 0. -1.
         -4    1    6    6    0  503  0.90377624189E+02  0.63332619529E+00  0.20410833715E+02  0.92655912866E+02  0.00000000000E+00 0.  1.
<mgrwt>
<rscale>  0 0.14368753E+04</rscale>
<asrwt>0</asrwt>
<pdfrwt beam="1">  1        2 0.11021326E+00 0.14368753E+04</pdfrwt>
<pdfrwt beam="2">  1       -1 0.11084539E+00 0.14368753E+04</pdfrwt>
<totfact> 0.33068373E+01</totfact>
</mgrwt>
</event>
<event>
12    6  0.1540825E-007  0.2447973E+04  0.7818608E-02  0.8421759E-01
          2   -1    0    0  501    0  0.00000000000E+00  0.00000000000E+00  0.16251630836E+04  0.16251630836E+04  0.00000000000E+00 0. -1.
         -1   -1    0    0    0  501 -0.00000000000E+00 -0.00000000000E+00 -0.92184136636E+03  0.92184136636E+03  0.00000000000E+00 0.  1.
         24    2    1    2    0    0  0.48866513982E+03 -0.47302350295E+03  0.11320786797E+04  0.13231138715E+04  0.80519107873E+02 0.  0.
        254    2    1    2    0    0 -0.48866513982E+03  0.47302350295E+03 -0.42875696247E+03  0.12238905784E+04  0.92278424450E+03 0.  0.
         23    2    4    4    0    0 -0.47627063614E+03  0.61064030745E+03 -0.60170237179E+03  0.98485886209E+03  0.90476129973E+02 0.  0.
         23    2    4    4    0    0 -0.12394503682E+02 -0.13761680449E+03  0.17294540933E+03  0.23903171634E+03  0.90188902921E+02 0.  0.
          2    1    3    3  502    0  0.39741010974E+03 -0.42307108742E+03  0.97526215243E+03  0.11349274013E+04  0.00000000000E+00 0. -1.
         -1    1    3    3    0  502  0.91255030086E+02 -0.49952415532E+02  0.15681652724E+03  0.18818647015E+03  0.00000000000E+00 0.  1.
         11    1    5    5    0    0 -0.32856690116E+03  0.46252226016E+03 -0.47780612078E+03  0.74174236682E+03  0.00000000000E+00 0. -1.
        -11    1    5    5    0    0 -0.14770373498E+03  0.14811804728E+03 -0.12389625101E+03  0.24311649527E+03  0.00000000000E+00 0.  1.
          3    1    6    6  503    0  0.18773339568E+02 -0.76198424575E+02  0.37273887685E+02  0.86879116532E+02  0.00000000000E+00 0. -1.
         -3    1    6    6    0  503 -0.31167843249E+02 -0.61418379918E+02  0.13567152164E+03  0.15215259981E+03  0.00000000000E+00 0.  1.
<mgrwt>
<rscale>  0 0.24479727E+04</rscale>
<asrwt>0</asrwt>
<pdfrwt beam="1">  1        2 0.25002509E+00 0.24479727E+04</pdfrwt>
<pdfrwt beam="2">  1       -1 0.14182175E+00 0.24479727E+04</pdfrwt>
<totfact> 0.44616930E+00</totfact>
</mgrwt>
</event>
<event>
12    6  0.1540825E-007  0.1739571E+04  0.7818608E-02  0.8739112E-01
         -1   -1    0    0    0  501 -0.00000000000E+00  0.00000000000E+00  0.24783138471E+03  0.24783138471E+03  0.00000000000E+00 0.  1.
          2   -1    0    0  501    0  0.00000000000E+00 -0.00000000000E+00 -0.30525874668E+04  0.30525874668E+04  0.00000000000E+00 0. -1.
         24    2    1    2    0    0  0.90019302941E+02 -0.62008360756E+03 -0.87427352665E+03  0.10785146686E+04  0.78946409837E+02 0.  0.
        254    2    1    2    0    0 -0.90019302941E+02  0.62008360756E+03 -0.19304825554E+04  0.22219041829E+04  0.90415051074E+03 0.  0.
         23    2    4    4    0    0  0.31529946881E+03  0.10850291195E+03 -0.28048006179E+03  0.44521211997E+03  0.91422807701E+02 0.  0.
         23    2    4    4    0    0 -0.40531877175E+03  0.51158069561E+03 -0.16500024936E+04  0.17766920630E+04  0.90157322321E+02 0.  0.
          2    1    3    3  502    0  0.29700731195E+02 -0.26115502411E+03 -0.43274353321E+03  0.50631121416E+03  0.00000000000E+00 0. -1.
         -1    1    3    3    0  502  0.60318571746E+02 -0.35892858345E+03 -0.44152999344E+03  0.57220345439E+03  0.00000000000E+00 0.  1.
         11    1    5    5    0    0  0.53879209594E+02  0.11789716069E+02 -0.85691460503E+01  0.55815740571E+02  0.00000000000E+00 0. -1.
        -11    1    5    5    0    0  0.26142025922E+03  0.96713195881E+02 -0.27191091574E+03  0.38939637940E+03  0.00000000000E+00 0.  1.
          1    1    6    6  503    0 -0.20073928291E+02  0.69231949039E+02 -0.16694724061E+03  0.18184445692E+03  0.00000000000E+00 0. -1.
         -1    1    6    6    0  503 -0.38524484346E+03  0.44234874657E+03 -0.14830552530E+04  0.15948476060E+04  0.00000000000E+00 0.  1.
<mgrwt>
<rscale>  0 0.17395712E+04</rscale>
<asrwt>0</asrwt>
<pdfrwt beam="1">  1        2 0.46962885E+00 0.17395712E+04</pdfrwt>
<pdfrwt beam="2">  1       -1 0.38127904E-01 0.17395712E+04</pdfrwt>
<totfact> 0.11638884E+01</totfact>
</mgrwt>
</event>
<event>
12    6  0.1540825E-007  0.2290598E+04  0.7818608E-02  0.8481638E-01
          2   -1    0    0  501    0  0.00000000000E+00  0.00000000000E+00  0.59640609189E+03  0.59640609189E+03  0.00000000000E+00 0. -1.
         -3   -1    0    0    0  501 -0.00000000000E+00 -0.00000000000E+00 -0.21993558637E+04  0.21993558637E+04  0.00000000000E+00 0.  1.
         24    2    1    2    0    0  0.10716072678E+03  0.92077391311E+02  0.48769403094E+03  0.51407743843E+03  0.80426845816E+02 0.  0.
        254    2    1    2    0    0 -0.10716072678E+03 -0.92077391311E+02 -0.20906438027E+04  0.22816845171E+04  0.90295684200E+03 0.  0.
         23    2    4    4    0    0 -0.23321305055E+03 -0.44273611322E+03 -0.14301765190E+04  0.15180773340E+04  0.93543165060E+02 0.  0.
         23    2    4    4    0    0  0.12605232377E+03  0.35065872191E+03 -0.66046728372E+03  0.76360718309E+03  0.89600053710E+02 0.  0.
          4    1    3    3  502    0  0.71309707269E+02  0.66322157984E+02  0.43287710397E+03  0.44369616871E+03  0.00000000000E+00 0. -1.
         -3    1    3    3    0  502  0.35851019509E+02  0.25755233327E+02  0.54816926973E+02  0.70381269713E+02  0.00000000000E+00 0.  1.
         11    1    5    5    0    0 -0.15384392485E+03 -0.21114954239E+03 -0.82043545089E+03  0.86102637099E+03  0.00000000000E+00 0.  1.
        -11    1    5    5    0    0 -0.79369125697E+02 -0.23158657083E+03 -0.60974106810E+03  0.65705096304E+03  0.00000000000E+00 0. -1.
          1    1    6    6  503    0  0.13219464000E+03  0.33897762020E+03 -0.65510410392E+03  0.74936148608E+03  0.00000000000E+00 0. -1.
         -1    1    6    6    0  503 -0.61423162281E+01  0.11681101712E+02 -0.53631797953E+01  0.14245697013E+02  0.00000000000E+00 0.  1.
<mgrwt>
<rscale>  0 0.22905975E+04</rscale>
<asrwt>0</asrwt>
<pdfrwt beam="1">  1        2 0.91754783E-01 0.22905975E+04</pdfrwt>
<pdfrwt beam="2">  1       -3 0.33836244E+00 0.22905975E+04</pdfrwt>
<totfact> 0.65615203E-01</totfact>
</mgrwt>
</event>
<event>
12    6  0.1540825E-007  0.1590228E+04  0.7818608E-02  0.8826574E-01
          2   -1    0    0  501    0  0.00000000000E+00  0.00000000000E+00  0.14118606299E+04  0.14118606299E+04  0.00000000000E+00 0. -1.
         -1   -1    0    0    0  501 -0.00000000000E+00 -0.00000000000E+00 -0.44778212995E+03  0.44778212995E+03  0.00000000000E+00 0.  1.
         24    2    1    2    0    0 -0.22688084320E+03  0.18291884121E+03 -0.19454338514E+03  0.35938184583E+03  0.79837102473E+02 0.  0.
        254    2    1    2    0    0  0.22688084320E+03 -0.18291884121E+03  0.11586218851E+04  0.15002609140E+04  0.90743810701E+03 0.  0.
         23    2    4    4    0    0  0.10273731713E+03 -0.52202716837E+03  0.88934373885E+03  0.10406018018E+04  0.94087741725E+02 0.  0.
         23    2    4    4    0    0  0.12414352607E+03  0.33910832716E+03  0.26927814622E+03  0.45965911225E+03  0.91486101834E+02 0.  0.
          4    1    3    3  502    0 -0.17949927003E+02 -0.24022247594E+01 -0.30551146161E+02  0.35515392367E+02  0.00000000000E+00 0. -1.
         -3    1    3    3    0  502 -0.20893091619E+03  0.18532106597E+03 -0.16399223898E+03  0.32386645346E+03  0.00000000000E+00 0.  1.
         11    1    5    5    0    0  0.65148466710E+02 -0.44926796797E+03  0.70014606720E+03  0.83444025860E+03  0.00000000000E+00 0.  1.
        -11    1    5    5    0    0  0.37588850420E+02 -0.72759200397E+02  0.18919767165E+03  0.20616154316E+03  0.00000000000E+00 0. -1.
          2    1    6    6  503    0  0.57872055752E+02  0.94016499683E+02  0.39581919050E+02  0.11728173500E+03  0.00000000000E+00 0. -1.
         -2    1    6    6    0  503  0.66271470313E+02  0.24509182747E+03  0.22969622717E+03  0.34237737725E+03  0.00000000000E+00 0.  1.
<mgrwt>
<rscale>  0 0.15902276E+04</rscale>
<asrwt>0</asrwt>
<pdfrwt beam="1">  1        2 0.21720932E+00 0.15902276E+04</pdfrwt>
<pdfrwt beam="2">  1       -1 0.68889559E-01 0.15902276E+04</pdfrwt>
<totfact> 0.33220472E+01</totfact>
</mgrwt>
</event>
<event>
12    6  0.1540825E-007  0.1534501E+04  0.7818608E-02  0.8861829E-01
         -1   -1    0    0    0  501 -0.00000000000E+00  0.00000000000E+00  0.26495375040E+03  0.26495375040E+03  0.00000000000E+00 0.  1.
          2   -1    0    0  501    0  0.00000000000E+00 -0.00000000000E+00 -0.22217958067E+04  0.22217958067E+04  0.00000000000E+00 0. -1.
         24    2    1    2    0    0 -0.75836826501E+02  0.29776688151E+03 -0.12816219643E+04  0.13201916428E+04  0.77037486544E+02 0.  0.
        254    2    1    2    0    0  0.75836826501E+02 -0.29776688151E+03 -0.67522009205E+03  0.11665579144E+04  0.90028820657E+03 0.  0.
         23    2    4    4    0    0  0.45853764144E+03 -0.29831675548E+02 -0.40167245364E+03  0.61729944564E+03  0.92580495247E+02 0.  0.
         23    2    4    4    0    0 -0.38270081494E+03 -0.26793520596E+03 -0.27354763842E+03  0.54925846873E+03  0.92775894693E+02 0.  0.
          4    1    3    3  502    0 -0.80841435504E+02  0.22050456701E+03 -0.10509748068E+04  0.10768963025E+04  0.00000000000E+00 0. -1.
         -3    1    3    3    0  502  0.50046090027E+01  0.77262314496E+02 -0.23064715751E+03  0.24329534032E+03  0.00000000000E+00 0.  1.
         11    1    5    5    0    0  0.46041222262E+01  0.11711625001E+02 -0.73111876649E+01  0.14553816225E+02  0.00000000000E+00 0.  1.
        -11    1    5    5    0    0  0.45393351921E+03 -0.41543300549E+02 -0.39436126597E+03  0.60274562942E+03  0.00000000000E+00 0. -1.
          1    1    6    6  503    0 -0.33358703132E+03 -0.24094466637E+03 -0.27185103123E+03  0.49319126401E+03  0.00000000000E+00 0. -1.
         -1    1    6    6    0  503 -0.49113783615E+02 -0.26990539594E+02 -0.16966071894E+01  0.56067204714E+02  0.00000000000E+00 0.  1.
<mgrwt>
<rscale>  0 0.15345007E+04</rscale>
<asrwt>0</asrwt>
<pdfrwt beam="1">  1        2 0.34181475E+00 0.15345007E+04</pdfrwt>
<pdfrwt beam="2">  1       -1 0.40762114E-01 0.15345007E+04</pdfrwt>
<totfact> 0.32450270E+01</totfact>
</mgrwt>
</event>
<event>
12    6  0.1540825E-007  0.1081698E+04  0.7818608E-02  0.9223216E-01
          2   -1    0    0  501    0  0.00000000000E+00  0.00000000000E+00  0.12209835585E+04  0.12209835585E+04  0.00000000000E+00 0. -1.
         -1   -1    0    0    0  501 -0.00000000000E+00 -0.00000000000E+00 -0.23957537590E+03  0.23957537590E+03  0.00000000000E+00 0.  1.
         24    2    1    2    0    0  0.77187852895E+02 -0.68791304132E+02  0.12601461817E+02  0.13233065189E+03  0.81623504164E+02 0.  0.
        254    2    1    2    0    0 -0.77187852895E+02  0.68791304132E+02  0.96880672076E+03  0.13282282825E+04  0.90272570588E+03 0.  0.
         23    2    4    4    0    0  0.27666013790E+03  0.33644044243E+03  0.37890267114E+03  0.58412541375E+03  0.88894665661E+02 0.  0.
         23    2    4    4    0    0 -0.35384799080E+03 -0.26764913830E+03  0.58990404962E+03  0.74410286874E+03  0.94116043715E+02 0.  0.
          4    1    3    3  502    0  0.29938658657E+02  0.16263110232E+02  0.75817244008E+01  0.34904076860E+02  0.00000000000E+00 0. -1.
         -3    1    3    3    0  502  0.47249194238E+02 -0.85054414364E+02  0.50197374158E+01  0.97426575033E+02  0.00000000000E+00 0.  1.
         11    1    5    5    0    0  0.11500708684E+03  0.79305527612E+02  0.10034193491E+03  0.17200145533E+03  0.00000000000E+00 0.  1.
        -11    1    5    5    0    0  0.16165305106E+03  0.25713491482E+03  0.27856073623E+03  0.41212395842E+03  0.00000000000E+00 0. -1.
          3    1    6    6  503    0 -0.32631622579E+03 -0.20574086211E+03  0.49875294514E+03  0.63052841478E+03  0.00000000000E+00 0. -1.
         -3    1    6    6    0  503 -0.27531765008E+02 -0.61908276185E+02  0.91151104476E+02  0.11357445396E+03  0.00000000000E+00 0.  1.
<mgrwt>
<rscale>  0 0.10816979E+04</rscale>
<asrwt>0</asrwt>
<pdfrwt beam="1">  1        2 0.18784362E+00 0.10816979E+04</pdfrwt>
<pdfrwt beam="2">  1       -1 0.36857751E-01 0.10816979E+04</pdfrwt>
<totfact> 0.14723348E+02</totfact>
</mgrwt>
</event>
<event>
12    6  0.1540825E-007  0.1978369E+04  0.7818608E-02  0.8616801E-01
         -1   -1    0    0    0  501 -0.00000000000E+00  0.00000000000E+00  0.50059392845E+03  0.50059392845E+03  0.00000000000E+00 0.  1.
          2   -1    0    0  501    0  0.00000000000E+00 -0.00000000000E+00 -0.19546508239E+04  0.19546508239E+04  0.00000000000E+00 0. -1.
         24    2    1    2    0    0  0.12303978464E+03  0.57816689135E+03  0.55365801408E+02  0.59910337341E+03  0.80272892144E+02 0.  0.
        254    2    1    2    0    0 -0.12303978464E+03 -0.57816689135E+03 -0.15094226969E+04  0.18561413789E+04  0.90415053942E+03 0.  0.
         23    2    4    4    0    0  0.16288995067E+03 -0.30516834993E+03 -0.13873572976E+04  0.14323846474E+04  0.85467240878E+02 0.  0.
         23    2    4    4    0    0 -0.28592973531E+03 -0.27299854141E+03 -0.12206539928E+03  0.42375673148E+03  0.91573951678E+02 0.  0.
          2    1    3    3  502    0  0.31053956813E+02  0.13985179663E+03  0.48310324166E+02  0.15118452525E+03  0.00000000000E+00 0. -1.
         -1    1    3    3    0  502  0.91985827828E+02  0.43831509472E+03  0.70554772411E+01  0.44791884816E+03  0.00000000000E+00 0.  1.
         11    1    5    5    0    0  0.15213955274E+03 -0.23375360466E+03 -0.99087707435E+03  0.10293806719E+04  0.00000000000E+00 0.  1.
        -11    1    5    5    0    0  0.10750397932E+02 -0.71414745272E+02 -0.39648022322E+03  0.40300397554E+03  0.00000000000E+00 0. -1.
          4    1    6    6  503    0 -0.10030264992E+03 -0.13611595664E+03 -0.15807305582E+02  0.16981768501E+03  0.00000000000E+00 0. -1.
         -4    1    6    6    0  503 -0.18562708540E+03 -0.13688258477E+03 -0.10625809370E+03  0.25393904647E+03  0.00000000000E+00 0.  1.
<mgrwt>
<rscale>  0 0.19783694E+04</rscale>
<asrwt>0</asrwt>
<pdfrwt beam="1">  1        2 0.30071551E+00 0.19783694E+04</pdfrwt>
<pdfrwt beam="2">  1       -1 0.77014450E-01 0.19783694E+04</pdfrwt>
<totfact> 0.12687677E+01</totfact>
</mgrwt>
</event>
<event>
12    6  0.1540825E-007  0.1507870E+04  0.7818608E-02  0.8879236E-01
         -1   -1    0    0    0  501 -0.00000000000E+00  0.00000000000E+00  0.22681690725E+03  0.22681690725E+03  0.00000000000E+00 0.  1.
          2   -1    0    0  501    0  0.00000000000E+00 -0.00000000000E+00 -0.25060658319E+04  0.25060658319E+04  0.00000000000E+00 0. -1.
         24    2    1    2    0    0  0.12315203574E+02  0.19016799875E+03  0.77259088647E+02  0.21920980979E+03  0.75950259669E+02 0.  0.
        254    2    1    2    0    0 -0.12315203574E+02 -0.19016799875E+03 -0.23565080133E+04  0.25136729294E+04  0.85387706792E+03 0.  0.
         23    2    4    4    0    0 -0.49422941463E+02  0.29943999646E+03 -0.50639860976E+03  0.59731328478E+03  0.90756099447E+02 0.  0.
         23    2    4    4    0    0  0.37107737889E+02 -0.48960799520E+03 -0.18501094036E+04  0.19163596446E+04  0.91850471778E+02 0.  0.
          4    1    3    3  502    0 -0.33931905575E+01  0.14035950414E+02 -0.14091646988E+02  0.20176624123E+02  0.00000000000E+00 0. -1.
         -3    1    3    3    0  502  0.15708394131E+02  0.17613204833E+03  0.91350735635E+02  0.19903318567E+03  0.00000000000E+00 0.  1.
         11    1    5    5    0    0 -0.46977358272E+01  0.17969817565E+03 -0.22306279865E+03  0.28647951968E+03  0.00000000000E+00 0. -1.
        -11    1    5    5    0    0 -0.44725205636E+02  0.11974182081E+03 -0.28333581112E+03  0.31083376511E+03  0.00000000000E+00 0.  1.
          1    1    6    6  503    0 -0.25141640093E+01 -0.74943322942E+02 -0.42719411890E+03  0.43372530235E+03  0.00000000000E+00 0. -1.
         -1    1    6    6    0  503  0.39621901898E+02 -0.41466467226E+03 -0.14229152847E+04  0.14826343423E+04  0.00000000000E+00 0.  1.
<mgrwt>
<rscale>  0 0.15078702E+04</rscale>
<asrwt>0</asrwt>
<pdfrwt beam="1">  1        2 0.38554862E+00 0.15078702E+04</pdfrwt>
<pdfrwt beam="2">  1       -1 0.34894906E-01 0.15078702E+04</pdfrwt>
<totfact> 0.29707984E+01</totfact>
</mgrwt>
</event>
<event>
12    6  0.1540825E-007  0.2300485E+04  0.7818608E-02  0.8477730E-01
         -3   -1    0    0    0  501 -0.00000000000E+00  0.00000000000E+00  0.72086334583E+03  0.72086334583E+03  0.00000000000E+00 0.  1.
          2   -1    0    0  501    0  0.00000000000E+00 -0.00000000000E+00 -0.18353790649E+04  0.18353790649E+04  0.00000000000E+00 0. -1.
         24    2    1    2    0    0  0.16422963065E+03 -0.33574762428E+03  0.52408623330E+03  0.64875364034E+03  0.80728353918E+02 0.  0.
        254    2    1    2    0    0 -0.16422963065E+03  0.33574762428E+03 -0.16386019524E+04  0.19074887704E+04  0.90210820420E+03 0.  0.
         23    2    4    4    0    0 -0.46554013758E+02  0.63284091253E+03 -0.11470118222E+04  0.13140424215E+04  0.91741313238E+02 0.  0.
         23    2    4    4    0    0 -0.11767561689E+03 -0.29709328825E+03 -0.49159013026E+03  0.59344634894E+03  0.91682823773E+02 0.  0.
          4    1    3    3  502    0  0.21327493644E+02 -0.85190506151E+02  0.77559975042E+02  0.11716583995E+03  0.00000000000E+00 0. -1.
         -3    1    3    3    0  502  0.14290213700E+03 -0.25055711813E+03  0.44652625826E+03  0.53158780039E+03  0.00000000000E+00 0.  1.
         11    1    5    5    0    0 -0.69329660438E+02  0.39426681291E+03 -0.75541907362E+03  0.85493327129E+03  0.00000000000E+00 0. -1.
        -11    1    5    5    0    0  0.22775646680E+02  0.23857409962E+03 -0.39159274853E+03  0.45910915020E+03  0.00000000000E+00 0.  1.
          2    1    6    6  503    0 -0.70985155878E+02 -0.26803454017E+03 -0.41716124415E+03  0.50090409332E+03  0.00000000000E+00 0. -1.
         -2    1    6    6    0  503 -0.46690461010E+02 -0.29058748071E+02 -0.74428886110E+02  0.92542255626E+02  0.00000000000E+00 0.  1.
<mgrwt>
<rscale>  0 0.23004847E+04</rscale>
<asrwt>0</asrwt>
<pdfrwt beam="1">  1        2 0.28236601E+00 0.23004847E+04</pdfrwt>
<pdfrwt beam="2">  1       -3 0.11090205E+00 0.23004847E+04</pdfrwt>
<totfact> 0.32551653E+00</totfact>
</mgrwt>
</event>
<event>
12    6  0.1540825E-007  0.1424179E+04  0.7818608E-02  0.8936500E-01
         -1   -1    0    0    0  501 -0.00000000000E+00  0.00000000000E+00  0.34636167810E+03  0.34636167810E+03  0.00000000000E+00 0.  1.
          2   -1    0    0  501    0  0.00000000000E+00 -0.00000000000E+00 -0.14639934830E+04  0.14639934830E+04  0.00000000000E+00 0. -1.
         24    2    1    2    0    0  0.21851118060E+03  0.37104519488E+03 -0.43017926596E+03  0.61367207798E+03  0.78214741202E+02 0.  0.
        254    2    1    2    0    0 -0.21851118060E+03 -0.37104519488E+03 -0.68745253894E+03  0.11966830831E+04  0.87979414378E+03 0.  0.
         23    2    4    4    0    0 -0.16398690044E+03 -0.65183232024E+03 -0.49703876961E+03  0.84069742027E+03  0.89148958001E+02 0.  0.
         23    2    4    4    0    0 -0.54524280157E+02  0.28078712537E+03 -0.19041376932E+03  0.35598566284E+03  0.93027316976E+02 0.  0.
          2    1    3    3  502    0  0.39824694836E+02  0.86123696860E+02 -0.54410242075E+02  0.10937902871E+03  0.00000000000E+00 0. -1.
         -1    1    3    3    0  502  0.17868648577E+03  0.28492149802E+03 -0.37576902388E+03  0.50429304927E+03  0.00000000000E+00 0.  1.
         11    1    5    5    0    0 -0.98547993982E+02 -0.26023079291E+03 -0.24228270466E+03  0.36896162629E+03  0.00000000000E+00 0. -1.
        -11    1    5    5    0    0 -0.65438906462E+02 -0.39160152733E+03 -0.25475606495E+03  0.47173579397E+03  0.00000000000E+00 0.  1.
          3    1    6    6  503    0  0.49829043465E+01  0.35304676204E+01 -0.29118151027E+02  0.29751642923E+02  0.00000000000E+00 0. -1.
         -3    1    6    6    0  503 -0.59507184503E+02  0.27725665775E+03 -0.16129561830E+03  0.32623401992E+03  0.00000000000E+00 0.  1.
<mgrwt>
<rscale>  0 0.14241787E+04</rscale>
<asrwt>0</asrwt>
<pdfrwt beam="1">  1        2 0.22522977E+00 0.14241787E+04</pdfrwt>
<pdfrwt beam="2">  1       -1 0.53286412E-01 0.14241787E+04</pdfrwt>
<totfact> 0.52322474E+01</totfact>
</mgrwt>
</event>
<event>
12    6  0.1540825E-007  0.1416724E+04  0.7818608E-02  0.8941801E-01
         -1   -1    0    0    0  501 -0.00000000000E+00  0.00000000000E+00  0.31535361888E+03  0.31535361888E+03  0.00000000000E+00 0.  1.
          2   -1    0    0  501    0  0.00000000000E+00 -0.00000000000E+00 -0.15911555894E+04  0.15911555894E+04  0.00000000000E+00 0. -1.
         24    2    1    2    0    0  0.18183935186E+03  0.32478100354E+03 -0.11816028391E+03  0.39880247356E+03  0.80828893826E+02 0.  0.
        254    2    1    2    0    0 -0.18183935186E+03 -0.32478100354E+03 -0.11576416866E+04  0.15077067347E+04  0.89134565306E+03 0.  0.
         23    2    4    4    0    0 -0.32572252283E+03  0.99546144243E+02 -0.11788256643E+03  0.37182612576E+03  0.91398969438E+02 0.  0.
         23    2    4    4    0    0  0.14388317097E+03 -0.42432714778E+03 -0.10397591202E+04  0.11358806090E+04  0.91486800175E+02 0.  0.
          4    1    3    3  502    0  0.12440155449E+02  0.57052867220E+01  0.83543840269E+01  0.16034447189E+02  0.00000000000E+00 0. -1.
         -3    1    3    3    0  502  0.16939919642E+03  0.31907571682E+03 -0.12651466794E+03  0.38276802637E+03  0.00000000000E+00 0.  1.
         11    1    5    5    0    0 -0.86575959128E+02  0.65223559863E+01 -0.68326623420E+02  0.11048287331E+03  0.00000000000E+00 0. -1.
        -11    1    5    5    0    0 -0.23914656370E+03  0.93023788257E+02 -0.49555943008E+02  0.26134325245E+03  0.00000000000E+00 0.  1.
          3    1    6    6  503    0 -0.21722850095E+01 -0.11407302075E+03 -0.27758288096E+03  0.30011602537E+03  0.00000000000E+00 0. -1.
         -3    1    6    6    0  503  0.14605545598E+03 -0.31025412703E+03 -0.76217623923E+03  0.83576458361E+03  0.00000000000E+00 0.  1.
<mgrwt>
<rscale>  0 0.14167239E+04</rscale>
<asrwt>0</asrwt>
<pdfrwt beam="1">  1        2 0.24479317E+00 0.14167239E+04</pdfrwt>
<pdfrwt beam="2">  1       -1 0.48515941E-01 0.14167239E+04</pdfrwt>
<totfact> 0.53099740E+01</totfact>
</mgrwt>
</event>
<event>
12    6  0.1540825E-007  0.1865767E+04  0.7818608E-02  0.8672086E-01
         -1   -1    0    0    0  501 -0.00000000000E+00  0.00000000000E+00  0.53298763878E+03  0.53298763878E+03  0.00000000000E+00 0.  1.
          2   -1    0    0  501    0  0.00000000000E+00 -0.00000000000E+00 -0.16328176203E+04  0.16328176203E+04  0.00000000000E+00 0. -1.
         24    2    1    2    0    0 -0.11822867686E+03  0.97607633848E+02  0.38662151180E+03  0.42332520920E+03  0.78884530406E+02 0.  0.
        254    2    1    2    0    0  0.11822867686E+03 -0.97607633848E+02 -0.14864514934E+04  0.17424800499E+04  0.89621058463E+03 0.  0.
         23    2    4    4    0    0 -0.23146402767E+01 -0.47128169242E+03 -0.59731404318E+03  0.76621819484E+03  0.90523282915E+02 0.  0.
         23    2    4    4    0    0  0.12054331714E+03  0.37367405858E+03 -0.88913745018E+03  0.97626185507E+03  0.91426533284E+02 0.  0.
          4    1    3    3  502    0 -0.24389175884E+02 -0.27354168450E+01  0.12946529973E+03  0.13177093094E+03  0.00000000000E+00 0. -1.
         -3    1    3    3    0  502 -0.93839500978E+02  0.10034305069E+03  0.25715621207E+03  0.29155427826E+03  0.00000000000E+00 0.  1.
         11    1    5    5    0    0  0.22877650070E+02 -0.41053573788E+03 -0.54181604276E+03  0.68016733466E+03  0.00000000000E+00 0.  1.
        -11    1    5    5    0    0 -0.25192290346E+02 -0.60745954549E+02 -0.55498000412E+02  0.86050860174E+02  0.00000000000E+00 0. -1.
          3    1    6    6  503    0  0.16233854807E+02  0.17155666013E+02 -0.11772417135E+03  0.12007012717E+03  0.00000000000E+00 0. -1.
         -3    1    6    6    0  503  0.10430946233E+03  0.35651839256E+03 -0.77141327883E+03  0.85619172790E+03  0.00000000000E+00 0.  1.
<mgrwt>
<rscale>  0 0.18657670E+04</rscale>
<asrwt>0</asrwt>
<pdfrwt beam="1">  1        2 0.25120271E+00 0.18657670E+04</pdfrwt>
<pdfrwt beam="2">  1       -1 0.81998099E-01 0.18657670E+04</pdfrwt>
<totfact> 0.16922083E+01</totfact>
</mgrwt>
</event>
<event>
12    6  0.1540825E-007  0.1879830E+04  0.7818608E-02  0.8664962E-01
         -1   -1    0    0    0  501 -0.00000000000E+00  0.00000000000E+00  0.72505384021E+03  0.72505384021E+03  0.00000000000E+00 0.  1.
          2   -1    0    0  501    0  0.00000000000E+00 -0.00000000000E+00 -0.12184474431E+04  0.12184474431E+04  0.00000000000E+00 0. -1.
         24    2    1    2    0    0 -0.46214856952E+03  0.50444157863E+03 -0.36085465470E+03  0.77783797815E+03  0.82299646813E+02 0.  0.
        254    2    1    2    0    0  0.46214856952E+03 -0.50444157863E+03 -0.13253894814E+03  0.11656633051E+04  0.93443125031E+03 0.  0.
         23    2    4    4    0    0  0.26598011156E+03 -0.42766649769E+03  0.35713407726E+03  0.62404443291E+03  0.90789052829E+02 0.  0.
         23    2    4    4    0    0  0.19616845796E+03 -0.76775080947E+02 -0.48967302540E+03  0.54161887220E+03  0.95889801195E+02 0.  0.
          2    1    3    3  502    0 -0.91019895625E+02  0.94671321678E+02 -0.34266009444E+02  0.13572560536E+03  0.00000000000E+00 0. -1.
         -1    1    3    3    0  502 -0.37112867389E+03  0.40977025696E+03 -0.32658864526E+03  0.64211237278E+03  0.00000000000E+00 0.  1.
         11    1    5    5    0    0  0.16650602437E+03 -0.31539561836E+03  0.20975645720E+03  0.41375889546E+03  0.00000000000E+00 0. -1.
        -11    1    5    5    0    0  0.99474087187E+02 -0.11227087933E+03  0.14737762006E+03  0.21028553745E+03  0.00000000000E+00 0.  1.
          1    1    6    6  503    0  0.15120889807E+03 -0.11760511741E+02 -0.34199956898E+03  0.37412049620E+03  0.00000000000E+00 0. -1.
         -1    1    6    6    0  503  0.44959559881E+02 -0.65014569206E+02 -0.14767345642E+03  0.16749837600E+03  0.00000000000E+00 0.  1.
<mgrwt>
<rscale>  0 0.18798298E+04</rscale>
<asrwt>0</asrwt>
<pdfrwt beam="1">  1        2 0.18745345E+00 0.18798298E+04</pdfrwt>
<pdfrwt beam="2">  1       -1 0.11154675E+00 0.18798298E+04</pdfrwt>
<totfact> 0.14583741E+01</totfact>
</mgrwt>
</event>
<event>
12    6  0.1540825E-007  0.1971292E+04  0.7818608E-02  0.8620161E-01
         -1   -1    0    0    0  501 -0.00000000000E+00  0.00000000000E+00  0.79161128323E+03  0.79161128323E+03  0.00000000000E+00 0.  1.
          2   -1    0    0  501    0  0.00000000000E+00 -0.00000000000E+00 -0.12272418547E+04  0.12272418547E+04  0.00000000000E+00 0. -1.
         24    2    1    2    0    0 -0.12864675046E+03  0.30168850246E+03 -0.89390636636E+03  0.95548913352E+03  0.79529576434E+02 0.  0.
        254    2    1    2    0    0  0.12864675046E+03 -0.30168850246E+03  0.45827579489E+03  0.10633640044E+04  0.90175404784E+03 0.  0.
         23    2    4    4    0    0  0.80092856074E+02  0.15281008299E+03  0.55463983291E+03  0.58758623961E+03  0.88693053129E+02 0.  0.
         23    2    4    4    0    0  0.48553894387E+02 -0.45449858545E+03 -0.96364038015E+02  0.47577776481E+03  0.90288475633E+02 0.  0.
          4    1    3    3  502    0 -0.57919034842E+02  0.15043362491E+03 -0.55090741873E+03  0.57400685895E+03  0.00000000000E+00 0. -1.
         -1    1    3    3    0  502 -0.70727715619E+02  0.15125487754E+03 -0.34299894763E+03  0.38148227457E+03  0.00000000000E+00 0.  1.
         11    1    5    5    0    0  0.78509598708E+02  0.13972593156E+03  0.55111031716E+03  0.57394222246E+03  0.00000000000E+00 0.  1.
        -11    1    5    5    0    0  0.15832573654E+01  0.13084151432E+02  0.35295157443E+01  0.13644017149E+02  0.00000000000E+00 0. -1.
          4    1    6    6  503    0  0.89458026071E+01 -0.85899018414E+01  0.96707675589E+01  0.15726968656E+02  0.00000000000E+00 0. -1.
         -4    1    6    6    0  503  0.39608091780E+02 -0.44590868361E+03 -0.10603480557E+03  0.46005079616E+03  0.00000000000E+00 0.  1.
<mgrwt>
<rscale>  0 0.19712925E+04</rscale>
<asrwt>0</asrwt>
<pdfrwt beam="1">  1        2 0.18880644E+00 0.19712925E+04</pdfrwt>
<pdfrwt beam="2">  1       -1 0.12178635E+00 0.19712925E+04</pdfrwt>
<totfact> 0.11564858E+01</totfact>
</mgrwt>
</event>
<event>
12    6  0.1540825E-007  0.1742611E+04  0.7818608E-02  0.8737428E-01
          2   -1    0    0  501    0  0.00000000000E+00  0.00000000000E+00  0.15128293221E+04  0.15128293221E+04  0.00000000000E+00 0. -1.
         -1   -1    0    0    0  501 -0.00000000000E+00 -0.00000000000E+00 -0.50182342479E+03  0.50182342479E+03  0.00000000000E+00 0.  1.
         24    2    1    2    0    0  0.13736202320E+03 -0.44673196784E+03  0.87411423556E+03  0.99446420256E+03  0.80284349961E+02 0.  0.
        254    2    1    2    0    0 -0.13736202320E+03  0.44673196784E+03  0.13689166178E+03  0.10201885444E+04  0.89644161131E+03 0.  0.
         23    2    4    4    0    0 -0.20246953375E+03 -0.18721013686E+03 -0.13407623917E+03  0.32178788354E+03  0.97618935891E+02 0.  0.
         23    2    4    4    0    0  0.65107510543E+02  0.63394210470E+03  0.27096790095E+03  0.69840066083E+03  0.90654838104E+02 0.  0.
          4    1    3    3  502    0  0.14486665876E+03 -0.37621558078E+03  0.73390856377E+03  0.83734478682E+03  0.00000000000E+00 0. -1.
         -3    1    3    3    0  502 -0.75046355559E+01 -0.70516387056E+02  0.14020567180E+03  0.15711941574E+03  0.00000000000E+00 0.  1.
         11    1    5    5    0    0 -0.18557424353E+03 -0.18899664675E+03 -0.98919433653E+02  0.28274120092E+03  0.00000000000E+00 0.  1.
        -11    1    5    5    0    0 -0.16895290219E+02  0.17865098971E+01 -0.35156805515E+02  0.39046682614E+02  0.00000000000E+00 0. -1.
          4    1    6    6  503    0  0.21010605860E+02  0.19087299795E+03  0.12790306218E+03  0.23072308125E+03  0.00000000000E+00 0. -1.
         -4    1    6    6    0  503  0.44096904683E+02  0.44306910674E+03  0.14306483877E+03  0.46767757958E+03  0.00000000000E+00 0.  1.
<mgrwt>
<rscale>  0 0.17426109E+04</rscale>
<asrwt>0</asrwt>
<pdfrwt beam="1">  1        2 0.23274297E+00 0.17426109E+04</pdfrwt>
<pdfrwt beam="2">  1       -1 0.77203604E-01 0.17426109E+04</pdfrwt>
<totfact> 0.22694048E+01</totfact>
</mgrwt>
</event>
<event>
12    6  0.1540825E-007  0.1324958E+04  0.7818608E-02  0.9010004E-01
         -1   -1    0    0    0  501 -0.00000000000E+00  0.00000000000E+00  0.11204798301E+03  0.11204798301E+03  0.00000000000E+00 0.  1.
          2   -1    0    0  501    0  0.00000000000E+00 -0.00000000000E+00 -0.39168798731E+04  0.39168798731E+04  0.00000000000E+00 0. -1.
         24    2    1    2    0    0  0.89757936149E+02 -0.32153603539E+03 -0.10288251911E+04  0.10845205487E+04  0.79130508860E+02 0.  0.
        254    2    1    2    0    0 -0.89757936149E+02  0.32153603539E+03 -0.27760066990E+04  0.29444073075E+04  0.92297307127E+03 0.  0.
         23    2    4    4    0    0 -0.19778392508E+03  0.23791367907E+03 -0.23758756239E+03  0.40062271359E+03  0.91265048805E+02 0.  0.
         23    2    4    4    0    0  0.10802598893E+03  0.83622356315E+02 -0.25384191366E+04  0.25437845939E+04  0.92768713662E+02 0.  0.
          4    1    3    3  502    0  0.87988044079E+02 -0.28813389062E+03 -0.83182831210E+03  0.88470411757E+03  0.00000000000E+00 0. -1.
         -3    1    3    3    0  502  0.17698920704E+01 -0.33402144772E+02 -0.19699687903E+03  0.19981643111E+03  0.00000000000E+00 0.  1.
         11    1    5    5    0    0  0.86848059813E+01  0.17286523474E+01 -0.61352469964E+01  0.10772898847E+02  0.00000000000E+00 0. -1.
        -11    1    5    5    0    0 -0.20646873106E+03  0.23618502673E+03 -0.23145231539E+03  0.38984981474E+03  0.00000000000E+00 0.  1.
          4    1    6    6  503    0  0.15081625318E+01  0.13296527549E+02 -0.41477477886E+02  0.43582718718E+02  0.00000000000E+00 0. -1.
         -4    1    6    6    0  503  0.10651782640E+03  0.70325828766E+02 -0.24969416587E+04  0.25002018751E+04  0.00000000000E+00 0.  1.
<mgrwt>
<rscale>  0 0.13249581E+04</rscale>
<asrwt>0</asrwt>
<pdfrwt beam="1">  1        2 0.60259693E+00 0.13249581E+04</pdfrwt>
<pdfrwt beam="2">  1       -1 0.17238150E-01 0.13249581E+04</pdfrwt>
<totfact> 0.11989319E+01</totfact>
</mgrwt>
</event>
<event>
12    6  0.1540825E-007  0.1991828E+04  0.7818608E-02  0.8610451E-01
         -1   -1    0    0    0  501 -0.00000000000E+00  0.00000000000E+00  0.43073730587E+03  0.43073730587E+03  0.00000000000E+00 0.  1.
          2   -1    0    0  501    0  0.00000000000E+00 -0.00000000000E+00 -0.23026681128E+04  0.23026681128E+04  0.00000000000E+00 0. -1.
         24    2    1    2    0    0  0.48739887907E+02  0.28846380870E+03 -0.17529478489E+04  0.17792674911E+04  0.85905169694E+02 0.  0.
        254    2    1    2    0    0 -0.48739887907E+02 -0.28846380870E+03 -0.11898295805E+03  0.95413792763E+03  0.90035287251E+03 0.  0.
         23    2    4    4    0    0  0.10548788320E+03 -0.57722052603E+03  0.25773355407E+01  0.59394688314E+03  0.91951227104E+02 0.  0.
         23    2    4    4    0    0 -0.15422777111E+03  0.28875671733E+03 -0.12156029359E+03  0.36019104449E+03  0.88283839780E+02 0.  0.
          4    1    3    3  502    0  0.72899434909E+02  0.20226345605E+03 -0.11961049117E+04  0.12152743695E+04  0.00000000000E+00 0. -1.
         -3    1    3    3    0  502 -0.24159547002E+02  0.86200352648E+02 -0.55684293721E+03  0.56399312162E+03  0.00000000000E+00 0.  1.
         11    1    5    5    0    0  0.10045864787E+03 -0.57967594357E+03  0.19920668369E+01  0.58831973264E+03  0.00000000000E+00 0.  1.
        -11    1    5    5    0    0  0.50292353303E+01  0.24554175411E+01  0.58526870376E+00  0.56271505013E+01  0.00000000000E+00 0. -1.
          3    1    6    6  503    0 -0.36497921214E+02  0.42041558578E+02 -0.56226726550E+02  0.79126706485E+02  0.00000000000E+00 0. -1.
         -3    1    6    6    0  503 -0.11772984990E+03  0.24671515875E+03 -0.65333567039E+02  0.28106433800E+03  0.00000000000E+00 0.  1.
<mgrwt>
<rscale>  0 0.19918284E+04</rscale>
<asrwt>0</asrwt>
<pdfrwt beam="1">  1        2 0.35425663E+00 0.19918284E+04</pdfrwt>
<pdfrwt beam="2">  1       -1 0.66267278E-01 0.19918284E+04</pdfrwt>
<totfact> 0.11035997E+01</totfact>
</mgrwt>
</event>
<event>
12    6  0.1540825E-007  0.1725059E+04  0.7818608E-02  0.8747200E-01
         -1   -1    0    0    0  501 -0.00000000000E+00  0.00000000000E+00  0.62794989817E+03  0.62794989817E+03  0.00000000000E+00 0.  1.
          2   -1    0    0  501    0  0.00000000000E+00 -0.00000000000E+00 -0.11847400892E+04  0.11847400892E+04  0.00000000000E+00 0. -1.
         24    2    1    2    0    0  0.49489237433E+03  0.12664098630E+03 -0.57549446039E+03  0.77358634862E+03  0.79281544219E+02 0.  0.
        254    2    1    2    0    0 -0.49489237433E+03 -0.12664098630E+03  0.18704269369E+02  0.10391036387E+04  0.90467127773E+03 0.  0.
         23    2    4    4    0    0  0.96408397276E+02  0.19260280050E+03 -0.21568505022E+03  0.32163175213E+03  0.10264757796E+03 0.  0.
         23    2    4    4    0    0 -0.59130077160E+03 -0.31924378680E+03  0.23438931959E+03  0.71747188660E+03  0.90963492768E+02 0.  0.
          4    1    3    3  502    0  0.39522443954E+03  0.10534213132E+03 -0.40937753755E+03  0.57869619878E+03  0.00000000000E+00 0. -1.
         -3    1    3    3    0  502  0.99667934791E+02  0.21298854976E+02 -0.16611692284E+03  0.19489014983E+03  0.00000000000E+00 0.  1.
         11    1    5    5    0    0 -0.18103358872E+02  0.43652082587E+02 -0.23171476693E+02  0.52632245333E+02  0.00000000000E+00 0. -1.
        -11    1    5    5    0    0  0.11451175615E+03  0.14895071791E+03 -0.19251357353E+03  0.26899950680E+03  0.00000000000E+00 0.  1.
          2    1    6    6  503    0 -0.10735491820E+03 -0.50157858029E+02  0.78798884009E+02  0.14230303336E+03  0.00000000000E+00 0. -1.
         -2    1    6    6    0  503 -0.48394585341E+03 -0.26908592877E+03  0.15559043558E+03  0.57516885324E+03  0.00000000000E+00 0.  1.
<mgrwt>
<rscale>  0 0.17250593E+04</rscale>
<asrwt>0</asrwt>
<pdfrwt beam="1">  1        2 0.18226771E+00 0.17250593E+04</pdfrwt>
<pdfrwt beam="2">  1       -1 0.96607677E-01 0.17250593E+04</pdfrwt>
<totfact> 0.21600552E+01</totfact>
</mgrwt>
</event>
<event>
12    6  0.1540825E-007  0.1172210E+04  0.7818608E-02  0.9137535E-01
         -1   -1    0    0    0  501 -0.00000000000E+00  0.00000000000E+00  0.24988859352E+03  0.24988859352E+03  0.00000000000E+00 0.  1.
          2   -1    0    0  501    0  0.00000000000E+00 -0.00000000000E+00 -0.13746891993E+04  0.13746891993E+04  0.00000000000E+00 0. -1.
         24    2    1    2    0    0 -0.88365618576E+02 -0.12774786380E+03 -0.46836571447E+03  0.49983617335E+03  0.79635158410E+02 0.  0.
        254    2    1    2    0    0  0.88365618576E+02  0.12774786380E+03 -0.65643489135E+03  0.11247416195E+04  0.90000496932E+03 0.  0.
         23    2    4    4    0    0 -0.37104510715E+03 -0.61025661995E+02 -0.40423061840E+03  0.55919090394E+03  0.88845209378E+02 0.  0.
         23    2    4    4    0    0  0.45941072573E+03  0.18877352579E+03 -0.25220427295E+03  0.56555071556E+03  0.97708534060E+02 0.  0.
          2    1    3    3  502    0 -0.62321170554E+02 -0.89365194243E+02 -0.41531122390E+03  0.42936404011E+03  0.00000000000E+00 0. -1.
         -1    1    3    3    0  502 -0.26044448022E+02 -0.38382669553E+02 -0.53054490563E+02  0.70472133242E+02  0.00000000000E+00 0.  1.
         11    1    5    5    0    0 -0.32380738360E+03 -0.82376469270E+02 -0.35854689612E+03  0.49009486947E+03  0.00000000000E+00 0.  1.
        -11    1    5    5    0    0 -0.47237723551E+02  0.21350807275E+02 -0.45683722286E+02  0.69096034470E+02  0.00000000000E+00 0. -1.
          1    1    6    6  503    0  0.35640441471E+03  0.11160162417E+03 -0.15543863283E+03  0.40452465675E+03  0.00000000000E+00 0. -1.
         -1    1    6    6    0  503  0.10300631102E+03  0.77171901626E+02 -0.96765640122E+02  0.16102605882E+03  0.00000000000E+00 0.  1.
<mgrwt>
<rscale>  0 0.11722101E+04</rscale>
<asrwt>0</asrwt>
<pdfrwt beam="1">  1        2 0.21149065E+00 0.11722101E+04</pdfrwt>
<pdfrwt beam="2">  1       -1 0.38444399E-01 0.11722101E+04</pdfrwt>
<totfact> 0.11031247E+02</totfact>
</mgrwt>
</event>
<event>
12    6  0.1540825E-007  0.2823850E+04  0.7818608E-02  0.8295902E-01
         -1   -1    0    0    0  501 -0.00000000000E+00  0.00000000000E+00  0.15740196351E+04  0.15740196351E+04  0.00000000000E+00 0.  1.
          2   -1    0    0  501    0  0.00000000000E+00 -0.00000000000E+00 -0.12665234232E+04  0.12665234232E+04  0.00000000000E+00 0. -1.
         24    2    1    2    0    0  0.77271905527E+03 -0.48988100180E+03 -0.75923173178E+03  0.11911702662E+04  0.73318799320E+02 0.  0.
        254    2    1    2    0    0 -0.77271905527E+03  0.48988100180E+03  0.10667279438E+04  0.16493727920E+04  0.86339096983E+03 0.  0.
         23    2    4    4    0    0 -0.92688836054E+03  0.30608607028E+03  0.71815832018E+03  0.12153346612E+04  0.92066554369E+02 0.  0.
         23    2    4    4    0    0  0.15416930527E+03  0.18379493153E+03  0.34856962358E+03  0.43403813088E+03  0.96641425028E+02 0.  0.
          2    1    3    3  502    0  0.71508625522E+03 -0.47449995278E+03 -0.71110408289E+03  0.11145257172E+04  0.00000000000E+00 0. -1.
         -1    1    3    3    0  502  0.57632800051E+02 -0.15381049025E+02 -0.48127648895E+02  0.76644549049E+02  0.00000000000E+00 0.  1.
         11    1    5    5    0    0 -0.65622129939E+03  0.25692978546E+03  0.53592669886E+03  0.88535684048E+03  0.00000000000E+00 0. -1.
        -11    1    5    5    0    0 -0.27066706116E+03  0.49156284821E+02  0.18223162132E+03  0.32997782068E+03  0.00000000000E+00 0.  1.
          3    1    6    6  503    0  0.14208102587E+03  0.10416164352E+03  0.21378996426E+03  0.27702493518E+03  0.00000000000E+00 0. -1.
         -3    1    6    6    0  503  0.12088279403E+02  0.79633288006E+02  0.13477965932E+03  0.15701319570E+03  0.00000000000E+00 0.  1.
<mgrwt>
<rscale>  0 0.28238504E+04</rscale>
<asrwt>0</asrwt>
<pdfrwt beam="1">  1        2 0.19484976E+00 0.28238504E+04</pdfrwt>
<pdfrwt beam="2">  1       -1 0.24215687E+00 0.28238504E+04</pdfrwt>
<totfact> 0.13427795E+00</totfact>
</mgrwt>
</event>
<event>
12    6  0.1540825E-007  0.1546728E+04  0.7818608E-02  0.8853960E-01
          2   -1    0    0  501    0  0.00000000000E+00  0.00000000000E+00  0.75822903282E+03  0.75822903282E+03  0.00000000000E+00 0. -1.
         -1   -1    0    0    0  501 -0.00000000000E+00 -0.00000000000E+00 -0.78880113504E+03  0.78880113504E+03  0.00000000000E+00 0.  1.
         24    2    1    2    0    0 -0.31899930838E+02  0.38646410300E+03 -0.33783117772E+03  0.52058220475E+03  0.80646257015E+02 0.  0.
        254    2    1    2    0    0  0.31899930838E+02 -0.38646410300E+03  0.30725907550E+03  0.10264479631E+04  0.89934152190E+03 0.  0.
         23    2    4    4    0    0  0.75454074843E+02  0.27412340990E+03  0.20463870420E+02  0.29916151855E+03  0.90784816569E+02 0.  0.
         23    2    4    4    0    0 -0.43554144005E+02 -0.66058751290E+03  0.28679520508E+03  0.72728644457E+03  0.91767407776E+02 0.  0.
          2    1    3    3  502    0  0.10198089612E+02  0.14799172288E+03 -0.87194564718E+02  0.17207104111E+03  0.00000000000E+00 0. -1.
         -1    1    3    3    0  502 -0.42098020450E+02  0.23847238012E+03 -0.25063661300E+03  0.34851116364E+03  0.00000000000E+00 0.  1.
         11    1    5    5    0    0  0.75784085691E+02  0.24235927758E+03  0.46420097183E+02  0.25813963759E+03  0.00000000000E+00 0. -1.
        -11    1    5    5    0    0 -0.33001084819E+00  0.31764132325E+02 -0.25956226763E+02  0.41021880957E+02  0.00000000000E+00 0.  1.
          4    1    6    6  503    0 -0.35366332542E+02 -0.24871708595E+03  0.65314390864E+02  0.25957067626E+03  0.00000000000E+00 0. -1.
         -4    1    6    6    0  503 -0.81878114625E+01 -0.41187042695E+03  0.22148081422E+03  0.46771576830E+03  0.00000000000E+00 0.  1.
<mgrwt>
<rscale>  0 0.15467281E+04</rscale>
<asrwt>0</asrwt>
<pdfrwt beam="1">  1        2 0.11665062E+00 0.15467281E+04</pdfrwt>
<pdfrwt beam="2">  1       -1 0.12135402E+00 0.15467281E+04</pdfrwt>
<totfact> 0.24484854E+01</totfact>
</mgrwt>
</event>
<event>
12    6  0.1540825E-007  0.1604705E+04  0.7818608E-02  0.8817663E-01
          2   -1    0    0  501    0  0.00000000000E+00  0.00000000000E+00  0.36480209624E+03  0.36480209624E+03  0.00000000000E+00 0. -1.
         -1   -1    0    0    0  501 -0.00000000000E+00 -0.00000000000E+00 -0.17647092343E+04  0.17647092343E+04  0.00000000000E+00 0.  1.
         24    2    1    2    0    0  0.43494773967E+02 -0.51421685375E+02  0.23659836053E+03  0.25975710948E+03  0.83420540820E+02 0.  0.
        254    2    1    2    0    0 -0.43494773967E+02  0.51421685375E+02 -0.16365054985E+04  0.18697542210E+04  0.90182848434E+03 0.  0.
         23    2    4    4    0    0 -0.37555792156E+03 -0.13589169589E+03 -0.12653690013E+04  0.13301068774E+04  0.92278331286E+02 0.  0.
         23    2    4    4    0    0  0.33206314759E+03  0.18731338127E+03 -0.37113649728E+03  0.53964734364E+03  0.90137223710E+02 0.  0.
          4    1    3    3  502    0 -0.15373515538E+02 -0.43870623306E+02  0.83683168644E+02  0.95727996341E+02  0.00000000000E+00 0. -1.
         -3    1    3    3    0  502  0.58868289504E+02 -0.75510620693E+01  0.15291519188E+03  0.16402911314E+03  0.00000000000E+00 0.  1.
         11    1    5    5    0    0 -0.96585552648E+01 -0.21597884405E+02 -0.11946244943E+03  0.12178272917E+03  0.00000000000E+00 0.  1.
        -11    1    5    5    0    0 -0.36589936629E+03 -0.11429381149E+03 -0.11459065518E+04  0.12083241482E+04  0.00000000000E+00 0. -1.
          4    1    6    6  503    0  0.24403772212E+03  0.15396021859E+03 -0.32567503864E+03  0.43511192758E+03  0.00000000000E+00 0.  1.
         -4    1    6    6    0  503  0.88025425474E+02  0.33353162674E+02 -0.45461458631E+02  0.10453541606E+03  0.00000000000E+00 0. -1.
<mgrwt>
<rscale>  0 0.16047051E+04</rscale>
<asrwt>0</asrwt>
<pdfrwt beam="1">  1        2 0.56123400E-01 0.16047051E+04</pdfrwt>
<pdfrwt beam="2">  1       -1 0.27149373E+00 0.16047051E+04</pdfrwt>
<totfact> 0.48931713E+00</totfact>
</mgrwt>
</event>
<event>
12    6  0.1540825E-007  0.1765610E+04  0.7818608E-02  0.8724804E-01
          2   -1    0    0  501    0  0.00000000000E+00  0.00000000000E+00  0.12055279362E+04  0.12055279362E+04  0.00000000000E+00 0. -1.
         -1   -1    0    0    0  501 -0.00000000000E+00 -0.00000000000E+00 -0.64647617291E+03  0.64647617291E+03  0.00000000000E+00 0.  1.
         24    2    1    2    0    0  0.24784549084E+02 -0.64217097563E+03  0.81642435449E+02  0.65216272951E+03  0.75185787790E+02 0.  0.
        254    2    1    2    0    0 -0.24784549084E+02  0.64217097563E+03  0.47740932787E+03  0.11998413796E+04  0.89370119958E+03 0.  0.
         23    2    4    4    0    0  0.18012432433E+01 -0.97720387048E+02  0.43245052524E+03  0.45249493518E+03  0.90474808973E+02 0.  0.
         23    2    4    4    0    0 -0.26585792327E+02  0.73989136268E+03  0.44958802629E+02  0.74734644445E+03  0.91429651585E+02 0.  0.
          2    1    3    3  502    0  0.33945805264E+02 -0.52989755471E+03  0.92550793514E+02  0.53898922583E+03  0.00000000000E+00 0. -1.
         -1    1    3    3    0  502 -0.91612561809E+01 -0.11227342092E+03 -0.10908358066E+02  0.11317350368E+03  0.00000000000E+00 0.  1.
         11    1    5    5    0    0  0.28598817178E+02  0.31811949680E+01  0.91149087574E+02  0.95583306654E+02  0.00000000000E+00 0. -1.
        -11    1    5    5    0    0 -0.26797573935E+02 -0.10090158202E+03  0.34130143767E+03  0.35691162853E+03  0.00000000000E+00 0.  1.
          1    1    6    6  503    0 -0.59983643674E+02  0.42892770243E+03  0.18979285007E+02  0.43351727149E+03  0.00000000000E+00 0. -1.
         -1    1    6    6    0  503  0.33397851347E+02  0.31096366024E+03  0.25979517622E+02  0.31382917296E+03  0.00000000000E+00 0.  1.
<mgrwt>
<rscale>  0 0.17656105E+04</rscale>
<asrwt>0</asrwt>
<pdfrwt beam="1">  1        2 0.18546584E+00 0.17656105E+04</pdfrwt>
<pdfrwt beam="2">  1       -1 0.99457872E-01 0.17656105E+04</pdfrwt>
<totfact> 0.19583059E+01</totfact>
</mgrwt>
</event>
<event>
12    6  0.1540825E-007  0.2537892E+04  0.7818608E-02  0.8389609E-01
         -1   -1    0    0    0  501 -0.00000000000E+00  0.00000000000E+00  0.11090550191E+04  0.11090550191E+04  0.00000000000E+00 0.  1.
          2   -1    0    0  501    0  0.00000000000E+00 -0.00000000000E+00 -0.14518886493E+04  0.14518886493E+04  0.00000000000E+00 0. -1.
         24    2    1    2    0    0  0.23263208665E+03  0.96352035782E+03  0.36609048308E+03  0.10596426075E+04  0.79567870885E+02 0.  0.
        254    2    1    2    0    0 -0.23263208665E+03 -0.96352035782E+03 -0.70892411329E+03  0.15013010609E+04  0.87683653513E+03 0.  0.
         23    2    4    4    0    0 -0.70828924268E+02 -0.16668764310E+03  0.19520536624E+03  0.28170639172E+03  0.91933939621E+02 0.  0.
         23    2    4    4    0    0 -0.16180316238E+03 -0.79683271473E+03 -0.90412947953E+03  0.12195946692E+04  0.94012779333E+02 0.  0.
          4    1    3    3  502    0  0.11781198363E+03  0.39482891729E+03  0.11747442707E+03  0.42845043870E+03  0.00000000000E+00 0. -1.
         -3    1    3    3    0  502  0.11482010302E+03  0.56869144054E+03  0.24861605602E+03  0.63119216876E+03  0.00000000000E+00 0.  1.
         11    1    5    5    0    0 -0.14750839244E+02 -0.37470494805E+01 -0.63833917862E+01  0.16503797409E+02  0.00000000000E+00 0. -1.
        -11    1    5    5    0    0 -0.56078085023E+02 -0.16294059362E+03  0.20158875803E+03  0.26520259431E+03  0.00000000000E+00 0.  1.
          1    1    6    6  503    0 -0.20392516266E+02 -0.21671510252E+03 -0.19190268268E+03  0.29018602654E+03  0.00000000000E+00 0. -1.
         -1    1    6    6    0  503 -0.14141064612E+03 -0.58011761220E+03 -0.71222679684E+03  0.92940864261E+03  0.00000000000E+00 0.  1.
<mgrwt>
<rscale>  0 0.25378923E+04</rscale>
<asrwt>0</asrwt>
<pdfrwt beam="1">  1        2 0.22336748E+00 0.25378923E+04</pdfrwt>
<pdfrwt beam="2">  1       -1 0.17062385E+00 0.25378923E+04</pdfrwt>
<totfact> 0.33331383E+00</totfact>
</mgrwt>
</event>
<event>
12    6  0.1540825E-007  0.1670974E+04  0.7818608E-02  0.8778094E-01
          2   -1    0    0  501    0  0.00000000000E+00  0.00000000000E+00  0.75474591085E+03  0.75474591085E+03  0.00000000000E+00 0. -1.
         -1   -1    0    0    0  501 -0.00000000000E+00 -0.00000000000E+00 -0.92486602393E+03  0.92486602393E+03  0.00000000000E+00 0.  1.
         24    2    1    2    0    0  0.96611168642E+02  0.11846805814E+03 -0.63765783873E+03  0.66093164981E+03  0.82793283006E+02 0.  0.
        254    2    1    2    0    0 -0.96611168642E+02 -0.11846805814E+03  0.46753772565E+03  0.10186802850E+04  0.89204798043E+03 0.  0.
         23    2    4    4    0    0 -0.19070655429E+03  0.30197321315E+03 -0.10433059260E+02  0.36866652084E+03  0.90825896948E+02 0.  0.
         23    2    4    4    0    0  0.94095385645E+02 -0.42044127129E+03  0.47797078491E+03  0.65001376414E+03  0.91853242377E+02 0.  0.
          4    1    3    3  502    0  0.21189515468E+02 -0.79651845198E+01 -0.46492880903E+02  0.51711001778E+02  0.00000000000E+00 0. -1.
         -3    1    3    3    0  502  0.75421653174E+02  0.12643324266E+03 -0.59116495783E+03  0.60922064803E+03  0.00000000000E+00 0.  1.
         11    1    5    5    0    0 -0.83723221586E+02  0.12360992130E+03 -0.49005675516E+02  0.15713225865E+03  0.00000000000E+00 0. -1.
        -11    1    5    5    0    0 -0.10698333270E+03  0.17836329185E+03  0.38572616256E+02  0.21153426219E+03  0.00000000000E+00 0.  1.
          2    1    6    6  503    0 -0.17893969175E+02 -0.44060372867E+02  0.59078630030E+02  0.75840590162E+02  0.00000000000E+00 0. -1.
         -2    1    6    6    0  503  0.11198935482E+03 -0.37638089842E+03  0.41889215488E+03  0.57417317397E+03  0.00000000000E+00 0.  1.
<mgrwt>
<rscale>  0 0.16709744E+04</rscale>
<asrwt>0</asrwt>
<pdfrwt beam="1">  1        2 0.11611475E+00 0.16709744E+04</pdfrwt>
<pdfrwt beam="2">  1       -1 0.14228708E+00 0.16709744E+04</pdfrwt>
<totfact> 0.16270415E+01</totfact>
</mgrwt>
</event>
<event>
12    6  0.1540825E-007  0.3992807E+04  0.7818608E-02  0.8005999E-01
         -1   -1    0    0    0  501 -0.00000000000E+00  0.00000000000E+00  0.30832059396E+04  0.30832059396E+04  0.00000000000E+00 0.  1.
          2   -1    0    0  501    0  0.00000000000E+00 -0.00000000000E+00 -0.12926888493E+04  0.12926888493E+04  0.00000000000E+00 0. -1.
         24    2    1    2    0    0  0.15284705291E+04 -0.85939713966E+03  0.16372802407E+04  0.24003832535E+04  0.79797087045E+02 0.  0.
        254    2    1    2    0    0 -0.15284705291E+04  0.85939713966E+03  0.15323684963E+03  0.19755115354E+04  0.89687161419E+03 0.  0.
         23    2    4    4    0    0 -0.90033494853E+02  0.44417909138E+03 -0.28633365839E+02  0.46441306798E+03  0.97254987825E+02 0.  0.
         23    2    4    4    0    0 -0.14384370343E+04  0.41521804828E+03  0.18187021547E+03  0.15110984674E+04  0.93992945287E+02 0.  0.
          4    1    3    3  502    0  0.32261741780E+03 -0.19699692547E+03  0.31283649882E+03  0.49066940184E+03  0.00000000000E+00 0. -1.
         -3    1    3    3    0  502  0.12058531113E+04 -0.66240021419E+03  0.13244437419E+04  0.19097138517E+04  0.00000000000E+00 0.  1.
         11    1    5    5    0    0 -0.77636725472E+02  0.14887928084E+03 -0.14066386926E+02  0.16849440538E+03  0.00000000000E+00 0. -1.
        -11    1    5    5    0    0 -0.12396769381E+02  0.29529981055E+03 -0.14566978914E+02  0.29591866260E+03  0.00000000000E+00 0.  1.
          4    1    6    6  503    0 -0.14910055476E+03  0.32853506114E+02  0.45771776129E+02  0.15939066404E+03  0.00000000000E+00 0. -1.
         -4    1    6    6    0  503 -0.12893364795E+04  0.38236454216E+03  0.13609843934E+03  0.13517078034E+04  0.00000000000E+00 0.  1.
<mgrwt>
<rscale>  0 0.39928065E+04</rscale>
<asrwt>0</asrwt>
<pdfrwt beam="1">  1        2 0.19887521E+00 0.39928065E+04</pdfrwt>
<pdfrwt beam="2">  1       -1 0.47433937E+00 0.39928065E+04</pdfrwt>
<totfact> 0.33123554E-02</totfact>
</mgrwt>
</event>
<event>
12    6  0.1540825E-007  0.1879058E+04  0.7818608E-02  0.8665351E-01
          2   -1    0    0  501    0  0.00000000000E+00  0.00000000000E+00  0.27708828212E+04  0.27708828212E+04  0.00000000000E+00 0. -1.
         -1   -1    0    0    0  501 -0.00000000000E+00 -0.00000000000E+00 -0.31856798937E+03  0.31856798937E+03  0.00000000000E+00 0.  1.
         24    2    1    2    0    0 -0.45984722177E+03 -0.54510926452E+03  0.81135481191E+03  0.10831705869E+04  0.79739023546E+02 0.  0.
        254    2    1    2    0    0  0.45984722177E+03  0.54510926452E+03  0.16409600199E+04  0.20062802237E+04  0.90763812792E+03 0.  0.
         23    2    4    4    0    0  0.38351776224E+03  0.13256490416E+03  0.13093351898E+03  0.43641200017E+03  0.93018921336E+02 0.  0.
         23    2    4    4    0    0  0.76329459532E+02  0.41254436036E+03  0.15100265009E+04  0.15698682235E+04  0.91033894628E+02 0.  0.
          2    1    3    3  502    0 -0.86491068193E+02 -0.10595704906E+03  0.11122926609E+03  0.17629393284E+03  0.00000000000E+00 0. -1.
         -1    1    3    3    0  502 -0.37335615358E+03 -0.43915221546E+03  0.70012554582E+03  0.90687665406E+03  0.00000000000E+00 0.  1.
         11    1    5    5    0    0  0.13197274311E+03  0.80481983866E+02  0.81757604479E+02  0.17486697956E+03  0.00000000000E+00 0. -1.
        -11    1    5    5    0    0  0.25154501913E+03  0.52082920297E+02  0.49175914506E+02  0.26154502060E+03  0.00000000000E+00 0.  1.
          1    1    6    6  503    0  0.56480356619E+02  0.32320130343E+03  0.13000525411E+04  0.13408153202E+04  0.00000000000E+00 0. -1.
         -1    1    6    6    0  503  0.19849102913E+02  0.89343056928E+02  0.20997395983E+03  0.22905290331E+03  0.00000000000E+00 0.  1.
<mgrwt>
<rscale>  0 0.18790578E+04</rscale>
<asrwt>0</asrwt>
<pdfrwt beam="1">  1        2 0.42628965E+00 0.18790578E+04</pdfrwt>
<pdfrwt beam="2">  1       -1 0.49010462E-01 0.18790578E+04</pdfrwt>
<totfact> 0.10744101E+01</totfact>
</mgrwt>
</event>
<event>
12    6  0.1540825E-007  0.1460429E+04  0.7818608E-02  0.8911202E-01
          2   -1    0    0  501    0  0.00000000000E+00  0.00000000000E+00  0.18861575435E+03  0.18861575435E+03  0.00000000000E+00 0. -1.
         -1   -1    0    0    0  501 -0.00000000000E+00 -0.00000000000E+00 -0.28269816105E+04  0.28269816105E+04  0.00000000000E+00 0.  1.
         24    2    1    2    0    0  0.26304394216E+03 -0.27674601857E+03 -0.33317704452E+03  0.51372787018E+03  0.84432856773E+02 0.  0.
        254    2    1    2    0    0 -0.26304394216E+03  0.27674601857E+03 -0.23051888116E+04  0.25018694946E+04  0.89424551257E+03 0.  0.
         23    2    4    4    0    0 -0.10338561769E+03  0.46715006834E+03 -0.21278238025E+04  0.21828753174E+04  0.91611924138E+02 0.  0.
         23    2    4    4    0    0 -0.15965832447E+03 -0.19040404977E+03 -0.17736500915E+03  0.31899417726E+03  0.92490301715E+02 0.  0.
          4    1    3    3  502    0  0.18472103311E+03 -0.23638462682E+03 -0.28254268114E+03  0.41210425687E+03  0.00000000000E+00 0. -1.
         -3    1    3    3    0  502  0.78322909052E+02 -0.40361391755E+02 -0.50634363384E+02  0.10162361331E+03  0.00000000000E+00 0.  1.
         11    1    5    5    0    0 -0.99910452492E+02  0.34092114589E+03 -0.14124795769E+04  0.14564710369E+04  0.00000000000E+00 0. -1.
        -11    1    5    5    0    0 -0.34751651981E+01  0.12622892246E+03 -0.71534422556E+03  0.72640428046E+03  0.00000000000E+00 0.  1.
          3    1    6    6  503    0 -0.16385752537E+03 -0.18980409813E+03 -0.18407191859E+03  0.31105844387E+03  0.00000000000E+00 0. -1.
         -3    1    6    6    0  503  0.41992008963E+01 -0.59995163672E+00  0.67069094428E+01  0.79357333881E+01  0.00000000000E+00 0.  1.
<mgrwt>
<rscale>  0 0.14604291E+04</rscale>
<asrwt>0</asrwt>
<pdfrwt beam="1">  1        2 0.29017808E-01 0.14604291E+04</pdfrwt>
<pdfrwt beam="2">  1       -1 0.43492026E+00 0.14604291E+04</pdfrwt>
<totfact> 0.85178652E-01</totfact>
</mgrwt>
</event>
<event>
12    6  0.1540825E-007  0.1621936E+04  0.7818608E-02  0.8807184E-01
          2   -1    0    0  501    0  0.00000000000E+00  0.00000000000E+00  0.13133879597E+04  0.13133879597E+04  0.00000000000E+00 0. -1.
         -1   -1    0    0    0  501 -0.00000000000E+00 -0.00000000000E+00 -0.50074231250E+03  0.50074231250E+03  0.00000000000E+00 0.  1.
         24    2    1    2    0    0 -0.43539511038E+03  0.28908502305E+03  0.51321149867E+03  0.73628344899E+03  0.74754412495E+02 0.  0.
        254    2    1    2    0    0  0.43539511038E+03 -0.28908502305E+03  0.29943414850E+03  0.10778468232E+04  0.89384221888E+03 0.  0.
         23    2    4    4    0    0 -0.48031821164E+02 -0.37815918561E+03  0.40867972123E+03  0.56635210426E+03  0.91783255268E+02 0.  0.
         23    2    4    4    0    0  0.48342693155E+03  0.89074162557E+02 -0.10924557273E+03  0.51149471892E+03  0.89757716903E+02 0.  0.
          2    1    3    3  502    0 -0.38811736758E+03  0.27612209197E+03  0.48472177997E+03  0.67958347880E+03  0.00000000000E+00 0. -1.
         -1    1    3    3    0  502 -0.47277742807E+02  0.12962931080E+02  0.28489718706E+02  0.56699970185E+02  0.00000000000E+00 0.  1.
         11    1    5    5    0    0 -0.43000460960E+01 -0.83519209947E+02  0.40947656292E+02  0.93116375479E+02  0.00000000000E+00 0. -1.
        -11    1    5    5    0    0 -0.43731775068E+02 -0.29463997566E+03  0.36773206494E+03  0.47323572878E+03  0.00000000000E+00 0.  1.
          3    1    6    6  503    0  0.39035792855E+02  0.13321267179E+02  0.14993148213E+02  0.43886715261E+02  0.00000000000E+00 0. -1.
         -3    1    6    6    0  503  0.44439113869E+03  0.75752895378E+02 -0.12423872094E+03  0.46760800366E+03  0.00000000000E+00 0.  1.
<mgrwt>
<rscale>  0 0.16219358E+04</rscale>
<asrwt>0</asrwt>
<pdfrwt beam="1">  1        2 0.20205968E+00 0.16219358E+04</pdfrwt>
<pdfrwt beam="2">  1       -1 0.77037280E-01 0.16219358E+04</pdfrwt>
<totfact> 0.29946208E+01</totfact>
</mgrwt>
</event>
<event>
12    6  0.1540825E-007  0.2168981E+04  0.7818608E-02  0.8531451E-01
          2   -1    0    0  501    0  0.00000000000E+00  0.00000000000E+00  0.16026888293E+04  0.16026888293E+04  0.00000000000E+00 0. -1.
         -1   -1    0    0    0  501 -0.00000000000E+00 -0.00000000000E+00 -0.73384169517E+03  0.73384169517E+03  0.00000000000E+00 0.  1.
         24    2    1    2    0    0 -0.58603840972E+03 -0.62196081958E+03  0.64868718499E+03  0.10759053502E+04  0.80628653744E+02 0.  0.
        254    2    1    2    0    0  0.58603840972E+03  0.62196081958E+03  0.22015994910E+03  0.12606251743E+04  0.90023838400E+03 0.  0.
         23    2    4    4    0    0  0.78765611343E+03  0.40091951695E+03  0.19848964965E+02  0.88922654262E+03  0.95871010203E+02 0.  0.
         23    2    4    4    0    0 -0.20161770371E+03  0.22104130263E+03  0.20031098413E+03  0.37139863163E+03  0.91123527674E+02 0.  0.
          4    1    3    3  502    0 -0.36759849840E+03 -0.38478405264E+03  0.45202343810E+03  0.69822103361E+03  0.00000000000E+00 0. -1.
         -3    1    3    3    0  502 -0.21843991133E+03 -0.23717676694E+03  0.19666374689E+03  0.37768431656E+03  0.00000000000E+00 0.  1.
         11    1    5    5    0    0  0.62732720498E+03  0.29253358346E+03 -0.16195847995E+02  0.69237101690E+03  0.00000000000E+00 0. -1.
        -11    1    5    5    0    0  0.16032890846E+03  0.10838593349E+03  0.36044812960E+02  0.19685552572E+03  0.00000000000E+00 0.  1.
          1    1    6    6  503    0 -0.19244449834E+03  0.16957107810E+03  0.14237064250E+03  0.29335752132E+03  0.00000000000E+00 0. -1.
         -1    1    6    6    0  503 -0.91732053679E+01  0.51470224530E+02  0.57940341631E+02  0.78041110309E+02  0.00000000000E+00 0.  1.
<mgrwt>
<rscale>  0 0.21689812E+04</rscale>
<asrwt>0</asrwt>
<pdfrwt beam="1">  1        2 0.24656751E+00 0.21689812E+04</pdfrwt>
<pdfrwt beam="2">  1       -1 0.11289872E+00 0.21689812E+04</pdfrwt>
<totfact> 0.83215616E+00</totfact>
</mgrwt>
</event>
<event>
12    6  0.1540825E-007  0.1879057E+04  0.7818608E-02  0.8665352E-01
         -1   -1    0    0    0  501 -0.00000000000E+00  0.00000000000E+00  0.28533914671E+03  0.28533914671E+03  0.00000000000E+00 0.  1.
          2   -1    0    0  501    0  0.00000000000E+00 -0.00000000000E+00 -0.30935601129E+04  0.30935601129E+04  0.00000000000E+00 0. -1.
         24    2    1    2    0    0  0.13074275067E+03 -0.40231620383E+03 -0.35533068637E+02  0.43193051476E+03  0.79682971158E+02 0.  0.
        254    2    1    2    0    0 -0.13074275067E+03  0.40231620383E+03 -0.27726878976E+04  0.29469687449E+04  0.90436420273E+03 0.  0.
         23    2    4    4    0    0  0.51709053623E+02 -0.45691403580E+02 -0.21513835133E+04  0.21542312747E+04  0.86601574601E+02 0.  0.
         23    2    4    4    0    0 -0.18245180429E+03  0.44800760741E+03 -0.62130438423E+03  0.79273747020E+03  0.91728303165E+02 0.  0.
          2    1    3    3  502    0  0.12345236815E+02 -0.55587689559E+02  0.22020809003E+02  0.61051716861E+02  0.00000000000E+00 0. -1.
         -1    1    3    3    0  502  0.11839751385E+03 -0.34672851427E+03 -0.57553877640E+02  0.37087879790E+03  0.00000000000E+00 0.  1.
         11    1    5    5    0    0  0.72593702792E+02 -0.18888946565E+02 -0.12912924809E+04  0.12934693306E+04  0.00000000000E+00 0.  1.
        -11    1    5    5    0    0 -0.20884649169E+02 -0.26802457014E+02 -0.86009103241E+03  0.86076194404E+03  0.00000000000E+00 0. -1.
          4    1    6    6  503    0 -0.28317382877E+02  0.14491985668E+02 -0.48961891662E+02  0.58388000965E+02  0.00000000000E+00 0. -1.
         -4    1    6    6    0  503 -0.15413442141E+03  0.43351562174E+03 -0.57234249257E+03  0.73434946923E+03  0.00000000000E+00 0.  1.
<mgrwt>
<rscale>  0 0.18790570E+04</rscale>
<asrwt>0</asrwt>
<pdfrwt beam="1">  1        2 0.47593232E+00 0.18790570E+04</pdfrwt>
<pdfrwt beam="2">  1       -1 0.43898331E-01 0.18790570E+04</pdfrwt>
<totfact> 0.83536328E+00</totfact>
</mgrwt>
</event>
<event>
12    6  0.1540825E-007  0.2533308E+04  0.7818608E-02  0.8391215E-01
         -1   -1    0    0    0  501 -0.00000000000E+00  0.00000000000E+00  0.50870599263E+03  0.50870599263E+03  0.00000000000E+00 0.  1.
          2   -1    0    0  501    0  0.00000000000E+00 -0.00000000000E+00 -0.31539081382E+04  0.31539081382E+04  0.00000000000E+00 0. -1.
         24    2    1    2    0    0  0.10042437920E+04 -0.21081777024E+03 -0.17649783862E+04  0.20433746629E+04  0.85332191977E+02 0.  0.
        254    2    1    2    0    0 -0.10042437920E+04  0.21081777024E+03 -0.88022375935E+03  0.16192394680E+04  0.89117498964E+03 0.  0.
         23    2    4    4    0    0  0.48452759735E+02  0.27238431486E+03 -0.27019212696E+03  0.39756140590E+03  0.92251835122E+02 0.  0.
         23    2    4    4    0    0 -0.10526965517E+04 -0.61566544625E+02 -0.61003163239E+03  0.12216780621E+04  0.91641832354E+02 0.  0.
          4    1    3    3  502    0  0.95484575124E+03 -0.21408302549E+03 -0.16527907496E+04  0.19207496486E+04  0.00000000000E+00 0. -1.
         -3    1    3    3    0  502  0.49398040742E+02  0.32652552528E+01 -0.11218763664E+03  0.12262501431E+03  0.00000000000E+00 0.  1.
         11    1    5    5    0    0 -0.22715967740E+02  0.13466094555E+03 -0.12297761882E+03  0.18377453625E+03  0.00000000000E+00 0. -1.
        -11    1    5    5    0    0  0.71168727475E+02  0.13772336932E+03 -0.14721450814E+03  0.21378686965E+03  0.00000000000E+00 0.  1.
          2    1    6    6  503    0 -0.38298489248E+03 -0.58747628933E+02 -0.25281220406E+03  0.46264751409E+03  0.00000000000E+00 0. -1.
         -2    1    6    6    0  503 -0.66971165924E+03 -0.28189156920E+01 -0.35721942833E+03  0.75903054799E+03  0.00000000000E+00 0.  1.
<mgrwt>
<rscale>  0 0.25333077E+04</rscale>
<asrwt>0</asrwt>
<pdfrwt beam="1">  1        2 0.48521665E+00 0.25333077E+04</pdfrwt>
<pdfrwt beam="2">  1       -1 0.78262458E-01 0.25333077E+04</pdfrwt>
<totfact> 0.22975019E+00</totfact>
</mgrwt>
</event>
<event>
12    6  0.1540825E-007  0.1336514E+04  0.7818608E-02  0.9001100E-01
         -1   -1    0    0    0  501 -0.00000000000E+00  0.00000000000E+00  0.54816152572E+03  0.54816152572E+03  0.00000000000E+00 0.  1.
          2   -1    0    0  501    0  0.00000000000E+00 -0.00000000000E+00 -0.81466337748E+03  0.81466337748E+03  0.00000000000E+00 0. -1.
         24    2    1    2    0    0 -0.19993095879E+03 -0.22080426565E+03  0.12207330418E+03  0.33170474578E+03  0.79995217149E+02 0.  0.
        254    2    1    2    0    0  0.19993095879E+03  0.22080426565E+03 -0.38857515595E+03  0.10311201574E+04  0.90746416745E+03 0.  0.
         23    2    4    4    0    0 -0.21212962295E+03 -0.20040258442E+03 -0.29570670771E+03  0.42637520491E+03  0.95881101369E+02 0.  0.
         23    2    4    4    0    0  0.41206058174E+03  0.42120685008E+03 -0.92868448241E+02  0.60474495252E+03  0.99412148847E+02 0.  0.
          2    1    3    3  502    0 -0.92172913882E+02 -0.69717536957E+02  0.12627017208E+02  0.11625756997E+03  0.00000000000E+00 0. -1.
         -3    1    3    3    0  502 -0.10775804491E+03 -0.15108672870E+03  0.10944628698E+03  0.21544717581E+03  0.00000000000E+00 0.  1.
         11    1    5    5    0    0 -0.19517919687E+03 -0.13595032452E+03 -0.20628251708E+03  0.31484898996E+03  0.00000000000E+00 0.  1.
        -11    1    5    5    0    0 -0.16950426086E+02 -0.64452259904E+02 -0.89424190625E+02  0.11152621495E+03  0.00000000000E+00 0. -1.
          2    1    6    6  503    0  0.14351682204E+03  0.96913026505E+02  0.18056277574E+01  0.17318335141E+03  0.00000000000E+00 0. -1.
         -2    1    6    6    0  503  0.26854375970E+03  0.32429382357E+03 -0.94674075998E+02  0.43156160110E+03  0.00000000000E+00 0.  1.
<mgrwt>
<rscale>  0 0.13365136E+04</rscale>
<asrwt>0</asrwt>
<pdfrwt beam="1">  1        2 0.12533283E+00 0.13365136E+04</pdfrwt>
<pdfrwt beam="2">  1       -1 0.84332542E-01 0.13365136E+04</pdfrwt>
<totfact> 0.52282649E+01</totfact>
</mgrwt>
</event>
<event>
12    6  0.1540825E-007  0.2641582E+04  0.7818608E-02  0.8354212E-01
          2   -1    0    0  501    0  0.00000000000E+00  0.00000000000E+00  0.16132640816E+04  0.16132640816E+04  0.00000000000E+00 0. -1.
         -1   -1    0    0    0  501 -0.00000000000E+00 -0.00000000000E+00 -0.10813413148E+04  0.10813413148E+04  0.00000000000E+00 0.  1.
         24    2    1    2    0    0  0.90051724403E+03 -0.65294520499E+03 -0.11751864012E+03  0.11213573223E+04  0.79767574743E+02 0.  0.
        254    2    1    2    0    0 -0.90051724403E+03  0.65294520499E+03  0.64944140695E+03  0.15732480742E+04  0.90336405414E+03 0.  0.
         23    2    4    4    0    0 -0.44180336084E+03  0.29385583607E+03  0.79986725404E+03  0.96418797069E+03  0.91265309334E+02 0.  0.
         23    2    4    4    0    0 -0.45871388319E+03  0.35908936892E+03 -0.15042584710E+03  0.60906010348E+03  0.94671393133E+02 0.  0.
          2    1    3    3  502    0  0.32586082536E+02 -0.13477380157E+02  0.75490816400E+01  0.36062184966E+02  0.00000000000E+00 0. -1.
         -1    1    3    3    0  502  0.86793116149E+03 -0.63946782483E+03 -0.12506772176E+03  0.10852951373E+04  0.00000000000E+00 0.  1.
         11    1    5    5    0    0 -0.20798539283E+03  0.16048030313E+03  0.46992368253E+03  0.53836801421E+03  0.00000000000E+00 0.  1.
        -11    1    5    5    0    0 -0.23381796801E+03  0.13337553295E+03  0.32994357152E+03  0.42581995648E+03  0.00000000000E+00 0. -1.
          3    1    6    6  503    0 -0.42057806635E+03  0.29368287959E+03 -0.11616137416E+03  0.52595532938E+03  0.00000000000E+00 0. -1.
         -3    1    6    6    0  503 -0.38135816834E+02  0.65406489331E+02 -0.34264472932E+02  0.83104774096E+02  0.00000000000E+00 0.  1.
<mgrwt>
<rscale>  0 0.26415822E+04</rscale>
<asrwt>0</asrwt>
<pdfrwt beam="1">  1        2 0.24819447E+00 0.26415822E+04</pdfrwt>
<pdfrwt beam="2">  1       -1 0.16636020E+00 0.26415822E+04</pdfrwt>
<totfact> 0.28809273E+00</totfact>
</mgrwt>
</event>
<event>
12    6  0.1540825E-007  0.1632870E+04  0.7818608E-02  0.8800605E-01
         -3   -1    0    0    0  501 -0.00000000000E+00  0.00000000000E+00  0.23256785967E+03  0.23256785967E+03  0.00000000000E+00 0.  1.
          2   -1    0    0  501    0  0.00000000000E+00 -0.00000000000E+00 -0.28661160013E+04  0.28661160013E+04  0.00000000000E+00 0. -1.
         24    2    1    2    0    0 -0.43498419562E+03 -0.36150307812E+03 -0.83927184133E+03  0.10151685633E+04  0.79336387224E+02 0.  0.
        254    2    1    2    0    0  0.43498419562E+03  0.36150307812E+03 -0.17942763003E+04  0.20835152977E+04  0.89538417891E+03 0.  0.
         23    2    4    4    0    0  0.15007699424E+03  0.52832446344E+03 -0.15910879973E+04  0.16857048997E+04  0.91597766124E+02 0.  0.
         23    2    4    4    0    0  0.28490720138E+03 -0.16682138532E+03 -0.20318830298E+03  0.39781039797E+03  0.89253225520E+02 0.  0.
          2    1    3    3  502    0 -0.37350717296E+03 -0.31749313142E+03 -0.76892947185E+03  0.91190022997E+03  0.00000000000E+00 0. -1.
         -1    1    3    3    0  502 -0.61477022665E+02 -0.44009946701E+02 -0.70342369482E+02  0.10326833333E+03  0.00000000000E+00 0.  1.
         11    1    5    5    0    0 -0.54743743249E+01  0.11324770742E+03 -0.30777250432E+03  0.32799226580E+03  0.00000000000E+00 0. -1.
        -11    1    5    5    0    0  0.15555136857E+03  0.41507675602E+03 -0.12833154930E+04  0.13577126339E+04  0.00000000000E+00 0.  1.
          3    1    6    6  503    0  0.25798396385E+03 -0.11679431779E+03 -0.18456151472E+03  0.33802306280E+03  0.00000000000E+00 0. -1.
         -3    1    6    6    0  503  0.26923237533E+02 -0.50027067538E+02 -0.18626788257E+02  0.59787335167E+02  0.00000000000E+00 0.  1.
<mgrwt>
<rscale>  0 0.16328704E+04</rscale>
<asrwt>0</asrwt>
<pdfrwt beam="1">  1        2 0.44094093E+00 0.16328704E+04</pdfrwt>
<pdfrwt beam="2">  1       -3 0.35779670E-01 0.16328704E+04</pdfrwt>
<totfact> 0.10145494E+01</totfact>
</mgrwt>
</event>
<event>
12    6  0.1540825E-007  0.1937187E+04  0.7818608E-02  0.8636564E-01
          2   -1    0    0  501    0  0.00000000000E+00  0.00000000000E+00  0.15924347067E+04  0.15924347067E+04  0.00000000000E+00 0. -1.
         -1   -1    0    0    0  501 -0.00000000000E+00 -0.00000000000E+00 -0.58914425361E+03  0.58914425361E+03  0.00000000000E+00 0.  1.
         24    2    1    2    0    0  0.59822862837E+03 -0.35036058130E+03  0.54555180049E+02  0.69987047498E+03  0.78818686539E+02 0.  0.
        254    2    1    2    0    0 -0.59822862837E+03  0.35036058130E+03  0.94873527300E+03  0.14817084853E+04  0.90262472180E+03 0.  0.
         23    2    4    4    0    0 -0.33770064820E+03  0.27540016537E+03  0.10796964710E+04  0.11676673506E+04  0.88405843437E+02 0.  0.
         23    2    4    4    0    0 -0.26052798017E+03  0.74960415923E+02 -0.13096119803E+03  0.31404113471E+03  0.89314648809E+02 0.  0.
          4    1    3    3  502    0  0.79282731389E+02 -0.57983017900E+02  0.33768690263E+02  0.10386580912E+03  0.00000000000E+00 0. -1.
         -3    1    3    3    0  502  0.51894589698E+03 -0.29237756340E+03  0.20786489786E+02  0.59600466586E+03  0.00000000000E+00 0.  1.
         11    1    5    5    0    0 -0.30633709074E+02  0.43506025492E+02  0.21022489892E+03  0.21685411343E+03  0.00000000000E+00 0. -1.
        -11    1    5    5    0    0 -0.30706693913E+03  0.23189413988E+03  0.86947157211E+03  0.95081323714E+03  0.00000000000E+00 0.  1.
          1    1    6    6  503    0 -0.16841061563E+02 -0.49375378312E+01 -0.36942416012E+02  0.40899177684E+02  0.00000000000E+00 0. -1.
         -1    1    6    6    0  503 -0.24368691861E+03  0.79897953754E+02 -0.94018782020E+02  0.27314195703E+03  0.00000000000E+00 0.  1.
<mgrwt>
<rscale>  0 0.19371874E+04</rscale>
<asrwt>0</asrwt>
<pdfrwt beam="1">  1        2 0.24498995E+00 0.19371874E+04</pdfrwt>
<pdfrwt beam="2">  1       -1 0.90637578E-01 0.19371874E+04</pdfrwt>
<totfact> 0.14245813E+01</totfact>
</mgrwt>
</event>
<event>
12    6  0.1540825E-007  0.1229176E+04  0.7818608E-02  0.9087696E-01
          2   -1    0    0  501    0  0.00000000000E+00  0.00000000000E+00  0.38725940504E+04  0.38725940504E+04  0.00000000000E+00 0. -1.
         -1   -1    0    0    0  501 -0.00000000000E+00 -0.00000000000E+00 -0.97536226631E+02  0.97536226631E+02  0.00000000000E+00 0.  1.
         24    2    1    2    0    0  0.80499830494E+02  0.24974819431E+03  0.10299237266E+04  0.10658098889E+04  0.79708552680E+02 0.  0.
        254    2    1    2    0    0 -0.80499830494E+02 -0.24974819431E+03  0.27451340973E+04  0.29043203882E+04  0.91129650624E+03 0.  0.
         23    2    4    4    0    0 -0.42958740846E+03 -0.36455485223E+03  0.17098855976E+04  0.18025410266E+04  0.89441678735E+02 0.  0.
         23    2    4    4    0    0  0.34908757796E+03  0.11480665793E+03  0.10352484996E+04  0.11017793616E+04  0.84472480047E+02 0.  0.
          4    1    3    3  502    0  0.20329106990E+01  0.49789712645E+02  0.10434948362E+03  0.11563720397E+03  0.00000000000E+00 0. -1.
         -3    1    3    3    0  502  0.78466919795E+02  0.19995848166E+03  0.92557424294E+03  0.95017268488E+03  0.00000000000E+00 0.  1.
         11    1    5    5    0    0 -0.25230180324E+03 -0.26203800690E+03  0.11634659776E+04  0.12190050032E+04  0.00000000000E+00 0. -1.
        -11    1    5    5    0    0 -0.17728560521E+03 -0.10251684533E+03  0.54641962005E+03  0.58353602337E+03  0.00000000000E+00 0.  1.
          3    1    6    6  503    0  0.27837542016E+03  0.12432925499E+03  0.80869234275E+03  0.86425340232E+03  0.00000000000E+00 0. -1.
         -3    1    6    6    0  503  0.70712157807E+02 -0.95225970650E+01  0.22655615689E+03  0.23752595930E+03  0.00000000000E+00 0.  1.
<mgrwt>
<rscale>  0 0.12291757E+04</rscale>
<asrwt>0</asrwt>
<pdfrwt beam="1">  1        2 0.59578358E+00 0.12291757E+04</pdfrwt>
<pdfrwt beam="2">  1       -1 0.15005576E-01 0.12291757E+04</pdfrwt>
<totfact> 0.16483468E+01</totfact>
</mgrwt>
</event>
<event>
12    6  0.1540825E-007  0.2291362E+04  0.7818608E-02  0.8481335E-01
         -1   -1    0    0    0  501 -0.00000000000E+00  0.00000000000E+00  0.81148852439E+03  0.81148852439E+03  0.00000000000E+00 0.  1.
          2   -1    0    0  501    0  0.00000000000E+00 -0.00000000000E+00 -0.16175030445E+04  0.16175030445E+04  0.00000000000E+00 0. -1.
         24    2    1    2    0    0  0.77643282309E+03  0.28827569948E+03 -0.86631312182E+03  0.12011722572E+04  0.79784451831E+02 0.  0.
        254    2    1    2    0    0 -0.77643282309E+03 -0.28827569948E+03  0.60298601675E+02  0.12278193117E+04  0.90440783565E+03 0.  0.
         23    2    4    4    0    0 -0.65421624380E+03 -0.54692629391E+03  0.22329314188E+03  0.88581888300E+03  0.87681250262E+02 0.  0.
         23    2    4    4    0    0 -0.12221657929E+03  0.25865059443E+03 -0.16299454021E+03  0.34200042872E+03  0.92520542905E+02 0.  0.
          4    1    3    3  502    0  0.73960790673E+03  0.29172046381E+03 -0.82898711578E+03  0.11486254058E+04  0.00000000000E+00 0. -1.
         -3    1    3    3    0  502  0.36824916368E+02 -0.34447643290E+01 -0.37326006043E+02  0.52546851418E+02  0.00000000000E+00 0.  1.
         11    1    5    5    0    0 -0.26093055877E+03 -0.26679936408E+03  0.74356397821E+02  0.38052007972E+03  0.00000000000E+00 0. -1.
        -11    1    5    5    0    0 -0.39328568503E+03 -0.28012692983E+03  0.14893674406E+03  0.50529880328E+03  0.00000000000E+00 0.  1.
          2    1    6    6  503    0 -0.75332916085E+02  0.23318599406E+03 -0.14917593376E+03  0.28688711244E+03  0.00000000000E+00 0.  1.
         -2    1    6    6    0  503 -0.46883663209E+02  0.25464600364E+02 -0.13818606451E+02  0.55113316285E+02  0.00000000000E+00 0. -1.
<mgrwt>
<rscale>  0 0.22913622E+04</rscale>
<asrwt>0</asrwt>
<pdfrwt beam="1">  1        2 0.24884662E+00 0.22913622E+04</pdfrwt>
<pdfrwt beam="2">  1       -1 0.12484439E+00 0.22913622E+04</pdfrwt>
<totfact> 0.63242791E+00</totfact>
</mgrwt>
</event>
<event>
12    6  0.1540825E-007  0.2935253E+04  0.7818608E-02  0.8262465E-01
          2   -1    0    0  501    0  0.00000000000E+00  0.00000000000E+00  0.36364736540E+04  0.36364736540E+04  0.00000000000E+00 0. -1.
         -1   -1    0    0    0  501 -0.00000000000E+00 -0.00000000000E+00 -0.59231214503E+03  0.59231214503E+03  0.00000000000E+00 0.  1.
         24    2    1    2    0    0 -0.12112398116E+04 -0.28071790004E+03  0.77626395121E+03  0.14682262282E+04  0.84841703393E+02 0.  0.
        254    2    1    2    0    0  0.12112398116E+04  0.28071790004E+03  0.22678975577E+04  0.27605595708E+04  0.96510382394E+03 0.  0.
         23    2    4    4    0    0  0.15637528594E+03 -0.37063394760E+02  0.12318116670E+04  0.12455058999E+04  0.89989102325E+02 0.  0.
         23    2    4    4    0    0  0.10548645257E+04  0.31778129480E+03  0.10360858907E+04  0.15150536709E+04  0.90496043160E+02 0.  0.
          4    1    3    3  502    0 -0.21015779411E+03 -0.30360847175E+02  0.16447360317E+03  0.26858824547E+03  0.00000000000E+00 0. -1.
         -3    1    3    3    0  502 -0.10010820175E+04 -0.25035705286E+03  0.61179034804E+03  0.11996379827E+04  0.00000000000E+00 0.  1.
         11    1    5    5    0    0  0.16607499410E+03 -0.31212067481E+02  0.11977105227E+04  0.12095724836E+04  0.00000000000E+00 0. -1.
        -11    1    5    5    0    0 -0.96997081574E+01 -0.58513272788E+01  0.34101144278E+02  0.35933416346E+02  0.00000000000E+00 0.  1.
          3    1    6    6  503    0  0.82246102675E+03  0.20976164393E+03  0.77993880746E+03  0.11527127271E+04  0.00000000000E+00 0. -1.
         -3    1    6    6    0  503  0.23240349890E+03  0.10801965087E+03  0.25614708327E+03  0.36234094378E+03  0.00000000000E+00 0.  1.
<mgrwt>
<rscale>  0 0.29352530E+04</rscale>
<asrwt>0</asrwt>
<pdfrwt beam="1">  1        2 0.55945747E+00 0.29352530E+04</pdfrwt>
<pdfrwt beam="2">  1       -1 0.91124948E-01 0.29352530E+04</pdfrwt>
<totfact> 0.74616601E-01</totfact>
</mgrwt>
</event>
<event>
12    6  0.1540825E-007  0.1600717E+04  0.7818608E-02  0.8820107E-01
          2   -1    0    0  501    0  0.00000000000E+00  0.00000000000E+00  0.12500160733E+04  0.12500160733E+04  0.00000000000E+00 0. -1.
         -1   -1    0    0    0  501 -0.00000000000E+00 -0.00000000000E+00 -0.51245262695E+03  0.51245262695E+03  0.00000000000E+00 0.  1.
         24    2    1    2    0    0 -0.30076020811E+03 -0.30257504754E+03  0.73928327289E+03  0.85727152035E+03  0.79789346708E+02 0.  0.
        254    2    1    2    0    0  0.30076020811E+03  0.30257504754E+03 -0.17198265204E+01  0.90519717992E+03  0.79835494271E+03 0.  0.
         23    2    4    4    0    0  0.58583758162E+02 -0.12410026980E+03  0.28552637901E+03  0.32968301184E+03  0.91283303512E+02 0.  0.
         23    2    4    4    0    0  0.24217644995E+03  0.42667531734E+03 -0.28724620553E+03  0.57551416808E+03  0.89470194694E+02 0.  0.
          4    1    3    3  502    0 -0.29102359540E+03 -0.29981030759E+03  0.73651315196E+03  0.84677776106E+03  0.00000000000E+00 0. -1.
         -1    1    3    3    0  502 -0.97366127139E+01 -0.27647399492E+01  0.27701209376E+01  0.10493759295E+02  0.00000000000E+00 0.  1.
         11    1    5    5    0    0  0.14869235199E+02 -0.18665667447E+02  0.18853375774E+01  0.23938583802E+02  0.00000000000E+00 0. -1.
        -11    1    5    5    0    0  0.43714522963E+02 -0.10543460235E+03  0.28364104143E+03  0.30574442803E+03  0.00000000000E+00 0.  1.
          2    1    6    6  503    0  0.43699300542E+02  0.87853388212E+02 -0.18951474826E+02  0.99935004309E+02  0.00000000000E+00 0. -1.
         -2    1    6    6    0  503  0.19847714941E+03  0.33882192912E+03 -0.26829473070E+03  0.47557916377E+03  0.00000000000E+00 0.  1.
<mgrwt>
<rscale>  0 0.16007174E+04</rscale>
<asrwt>0</asrwt>
<pdfrwt beam="1">  1        2 0.19231016E+00 0.16007174E+04</pdfrwt>
<pdfrwt beam="2">  1       -1 0.78838866E-01 0.16007174E+04</pdfrwt>
<totfact> 0.31119218E+01</totfact>
</mgrwt>
</event>
<event>
12    6  0.1540825E-007  0.1401065E+04  0.7818608E-02  0.8953048E-01
         -1   -1    0    0    0  501 -0.00000000000E+00  0.00000000000E+00  0.16775294486E+03  0.16775294486E+03  0.00000000000E+00 0.  1.
          2   -1    0    0  501    0  0.00000000000E+00 -0.00000000000E+00 -0.29254062158E+04  0.29254062158E+04  0.00000000000E+00 0. -1.
         24    2    1    2    0    0  0.16259825334E+03 -0.24985688530E+03 -0.17466982820E+03  0.35320479215E+03  0.73330902080E+02 0.  0.
        254    2    1    2    0    0 -0.16259825334E+03  0.24985688530E+03 -0.25829834427E+04  0.27399543685E+04  0.86410637125E+03 0.  0.
         23    2    4    4    0    0 -0.26511143036E+03  0.53140134248E+03 -0.16944795366E+04  0.17978192650E+04  0.90673877971E+02 0.  0.
         23    2    4    4    0    0  0.10251317702E+03 -0.28154445719E+03 -0.88850390607E+03  0.94213510348E+03  0.91668583906E+02 0.  0.
          4    1    3    3  502    0  0.10041008845E+03 -0.11150772702E+03 -0.54344314950E+02  0.15959155246E+03  0.00000000000E+00 0. -1.
         -3    1    3    3    0  502  0.62188164881E+02 -0.13834915828E+03 -0.12032551325E+03  0.19361323970E+03  0.00000000000E+00 0.  1.
         11    1    5    5    0    0 -0.11158341893E+03  0.29679920777E+03 -0.80496165732E+03  0.86516119820E+03  0.00000000000E+00 0.  1.
        -11    1    5    5    0    0 -0.15352801143E+03  0.23460213471E+03 -0.88951787931E+03  0.93265806677E+03  0.00000000000E+00 0. -1.
          3    1    6    6  503    0  0.46242662655E+02 -0.42453461454E+02 -0.12144804605E+03  0.13671250172E+03  0.00000000000E+00 0. -1.
         -3    1    6    6    0  503  0.56270514366E+02 -0.23909099573E+03 -0.76705586002E+03  0.80542260175E+03  0.00000000000E+00 0.  1.
<mgrwt>
<rscale>  0 0.14010646E+04</rscale>
<asrwt>0</asrwt>
<pdfrwt beam="1">  1        2 0.45006248E+00 0.14010646E+04</pdfrwt>
<pdfrwt beam="2">  1       -1 0.25808146E-01 0.14010646E+04</pdfrwt>
<totfact> 0.28714451E+01</totfact>
</mgrwt>
</event>
<event>
12    6  0.1540825E-007  0.2231572E+04  0.7818608E-02  0.8505401E-01
          2   -1    0    0  501    0  0.00000000000E+00  0.00000000000E+00  0.26631469556E+04  0.26631469556E+04  0.00000000000E+00 0. -1.
         -1   -1    0    0    0  501 -0.00000000000E+00 -0.00000000000E+00 -0.46748375186E+03  0.46748375186E+03  0.00000000000E+00 0.  1.
         24    2    1    2    0    0  0.37267921964E+01 -0.41986743962E+03  0.21165970536E+04  0.21592924319E+04  0.79108554627E+02 0.  0.
        254    2    1    2    0    0 -0.37267921964E+01  0.41986743962E+03  0.79066150218E+02  0.97133827561E+03  0.87232106115E+03 0.  0.
         23    2    4    4    0    0  0.37462542714E+03  0.40419341687E+03 -0.45651989655E+02  0.56189712954E+03  0.99638100774E+02 0.  0.
         23    2    4    4    0    0 -0.37835221934E+03  0.15674022752E+02  0.12471813987E+03  0.40944114607E+03  0.93227468144E+02 0.  0.
          4    1    3    3  502    0  0.41348305316E+02 -0.23438059826E+03  0.11854338128E+04  0.12090894391E+04  0.00000000000E+00 0. -1.
         -3    1    3    3    0  502 -0.37621513119E+02 -0.18548684136E+03  0.93116324073E+03  0.95020299276E+03  0.00000000000E+00 0.  1.
         11    1    5    5    0    0  0.29144532462E+03  0.36196023980E+03 -0.55847875810E+02  0.46805403285E+03  0.00000000000E+00 0. -1.
        -11    1    5    5    0    0  0.83180102525E+02  0.42233177065E+02  0.10195886154E+02  0.93843096686E+02  0.00000000000E+00 0.  1.
          1    1    6    6  503    0 -0.16193013118E+03 -0.35193412798E+02  0.73602718342E+02  0.18132099667E+03  0.00000000000E+00 0. -1.
         -1    1    6    6    0  503 -0.21642208816E+03  0.50867435550E+02  0.51115421531E+02  0.22812014940E+03  0.00000000000E+00 0.  1.
<mgrwt>
<rscale>  0 0.22315716E+04</rscale>
<asrwt>0</asrwt>
<pdfrwt beam="1">  1        2 0.40971491E+00 0.22315716E+04</pdfrwt>
<pdfrwt beam="2">  1       -1 0.71920578E-01 0.22315716E+04</pdfrwt>
<totfact> 0.56544349E+00</totfact>
</mgrwt>
</event>
<event>
12    6  0.1540825E-007  0.2066662E+04  0.7818608E-02  0.8576073E-01
         -1   -1    0    0    0  501 -0.00000000000E+00  0.00000000000E+00  0.13662219495E+04  0.13662219495E+04  0.00000000000E+00 0.  1.
          2   -1    0    0  501    0  0.00000000000E+00 -0.00000000000E+00 -0.78155186440E+03  0.78155186440E+03  0.00000000000E+00 0. -1.
         24    2    1    2    0    0  0.56295927927E+03 -0.22066640576E+03 -0.36277558501E+03  0.70992840755E+03  0.82312854539E+02 0.  0.
        254    2    1    2    0    0 -0.56295927927E+03  0.22066640576E+03  0.94744567011E+03  0.14378454063E+04  0.89673256994E+03 0.  0.
         23    2    4    4    0    0 -0.38758851553E+03 -0.66117289564E+02  0.10073339901E+04  0.10851654435E+04  0.90917099200E+02 0.  0.
         23    2    4    4    0    0 -0.17537076374E+03  0.28678369533E+03 -0.59888319968E+02  0.35267996281E+03  0.88299222078E+02 0.  0.
          2    1    3    3  502    0  0.56004200929E+03 -0.21442400464E+03 -0.34731644477E+03  0.69300318812E+03  0.00000000000E+00 0. -1.
         -1    1    3    3    0  502  0.29172699778E+01 -0.62424011258E+01 -0.15459140236E+02  0.16925219431E+02  0.00000000000E+00 0.  1.
         11    1    5    5    0    0 -0.20402116793E+03  0.95783614700E+01  0.54390203881E+03  0.58098692738E+03  0.00000000000E+00 0. -1.
        -11    1    5    5    0    0 -0.18356734760E+03 -0.75695651034E+02  0.46343195127E+03  0.50417851615E+03  0.00000000000E+00 0.  1.
          4    1    6    6  503    0 -0.71104921730E+02  0.13673150020E+03  0.15759155425E+02  0.15491857222E+03  0.00000000000E+00 0.  1.
         -4    1    6    6    0  503 -0.10426584201E+03  0.15005219513E+03 -0.75647475393E+02  0.19776139059E+03  0.00000000000E+00 0. -1.
<mgrwt>
<rscale>  0 0.20666623E+04</rscale>
<asrwt>0</asrwt>
<pdfrwt beam="1">  1        2 0.12023875E+00 0.20666623E+04</pdfrwt>
<pdfrwt beam="2">  1       -1 0.21018799E+00 0.20666623E+04</pdfrwt>
<totfact> 0.48021299E+00</totfact>
</mgrwt>
</event>
<event>
12    6  0.1540825E-007  0.1244657E+04  0.7818608E-02  0.9074642E-01
         -1   -1    0    0    0  501 -0.00000000000E+00  0.00000000000E+00  0.13111425680E+04  0.13111425680E+04  0.00000000000E+00 0.  1.
          2   -1    0    0  501    0  0.00000000000E+00 -0.00000000000E+00 -0.29538566121E+03  0.29538566121E+03  0.00000000000E+00 0. -1.
         24    2    1    2    0    0 -0.10065365032E+03 -0.13840798316E+03 -0.51729084358E+02  0.19572852146E+03  0.79660710653E+02 0.  0.
        254    2    1    2    0    0  0.10065365032E+03  0.13840798316E+03  0.10674859911E+04  0.14107997077E+04  0.90638929107E+03 0.  0.
         23    2    4    4    0    0 -0.38811848032E+03 -0.25886205721E+02  0.49873898332E+03  0.63757734397E+03  0.80363210752E+02 0.  0.
         23    2    4    4    0    0  0.48877213064E+03  0.16429418888E+03  0.56874700781E+03  0.77322236377E+03  0.92243637971E+02 0.  0.
          2    1    3    3  502    0 -0.88024474261E+02 -0.10056490443E+03 -0.71096226421E+02  0.15138124548E+03  0.00000000000E+00 0. -1.
         -3    1    3    3    0  502 -0.12629176057E+02 -0.37843078724E+02  0.19367142063E+02  0.44347275980E+02  0.00000000000E+00 0.  1.
         11    1    5    5    0    0 -0.36547796254E+03 -0.21678653954E+02  0.42823906291E+03  0.56341175009E+03  0.00000000000E+00 0.  1.
        -11    1    5    5    0    0 -0.22640517789E+02 -0.42075517673E+01  0.70499920409E+02  0.74165593879E+02  0.00000000000E+00 0. -1.
          1    1    6    6  503    0  0.12185828660E+03  0.27569003494E+02  0.86168630448E+02  0.15177129122E+03  0.00000000000E+00 0. -1.
         -1    1    6    6    0  503  0.36691384404E+03  0.13672518538E+03  0.48257837736E+03  0.62145107255E+03  0.00000000000E+00 0.  1.
<mgrwt>
<rscale>  0 0.12446569E+04</rscale>
<asrwt>0</asrwt>
<pdfrwt beam="1">  1        2 0.45443949E-01 0.12446569E+04</pdfrwt>
<pdfrwt beam="2">  1       -1 0.20171424E+00 0.12446569E+04</pdfrwt>
<totfact> 0.18447020E+01</totfact>
</mgrwt>
</event>
<event>
12    6  0.1540825E-007  0.2323860E+04  0.7818608E-02  0.8468572E-01
         -1   -1    0    0    0  501 -0.00000000000E+00  0.00000000000E+00  0.50496632835E+03  0.50496632835E+03  0.00000000000E+00 0.  1.
          2   -1    0    0  501    0  0.00000000000E+00 -0.00000000000E+00 -0.26736069350E+04  0.26736069350E+04  0.00000000000E+00 0. -1.
         24    2    1    2    0    0  0.86503542860E+03  0.27227574180E+02 -0.26899393298E+03  0.90998350462E+03  0.81759459203E+02 0.  0.
        254    2    1    2    0    0 -0.86503542860E+03 -0.27227574180E+02 -0.18996466737E+04  0.22685897587E+04  0.88815222521E+03 0.  0.
         23    2    4    4    0    0 -0.57114750067E+03  0.39365944278E+03 -0.12844383748E+04  0.14626535046E+04  0.91630296529E+02 0.  0.
         23    2    4    4    0    0 -0.29388792793E+03 -0.42088701696E+03 -0.61520829883E+03  0.80593625417E+03  0.86810135403E+02 0.  0.
          4    1    3    3  502    0  0.84447823347E+01  0.59424564798E+01  0.34032029458E+01  0.10872392928E+02  0.00000000000E+00 0. -1.
         -3    1    3    3    0  502  0.85659064627E+03  0.21285117700E+02 -0.27239713593E+03  0.89911111169E+03  0.00000000000E+00 0.  1.
         11    1    5    5    0    0 -0.11311716058E+03  0.47499065935E+02 -0.28026491352E+03  0.30594129344E+03  0.00000000000E+00 0.  1.
        -11    1    5    5    0    0 -0.45803034009E+03  0.34616037685E+03 -0.10041734613E+04  0.11567122111E+04  0.00000000000E+00 0. -1.
          4    1    6    6  503    0 -0.24378702052E+03 -0.28224297419E+03 -0.45217600995E+03  0.58613680300E+03  0.00000000000E+00 0. -1.
         -4    1    6    6    0  503 -0.50100907413E+02 -0.13864404277E+03 -0.16303228888E+03  0.21979945117E+03  0.00000000000E+00 0.  1.
<mgrwt>
<rscale>  0 0.23238601E+04</rscale>
<asrwt>0</asrwt>
<pdfrwt beam="1">  1        2 0.41132414E+00 0.23238601E+04</pdfrwt>
<pdfrwt beam="2">  1       -1 0.77687128E-01 0.23238601E+04</pdfrwt>
<totfact> 0.47060719E+00</totfact>
</mgrwt>
</event>
<event>
12    6  0.1540825E-007  0.1738141E+04  0.7818608E-02  0.8739905E-01
         -1   -1    0    0    0  501 -0.00000000000E+00  0.00000000000E+00  0.21562583904E+03  0.21562583904E+03  0.00000000000E+00 0.  1.
          2   -1    0    0  501    0  0.00000000000E+00 -0.00000000000E+00 -0.35027503513E+04  0.35027503513E+04  0.00000000000E+00 0. -1.
         24    2    1    2    0    0  0.10578138547E+03 -0.38375021029E+03 -0.22547276026E+04  0.22909612486E+04  0.79075628941E+02 0.  0.
        254    2    1    2    0    0 -0.10578138547E+03  0.38375021029E+03 -0.10323969096E+04  0.14274149417E+04  0.90178495857E+03 0.  0.
         23    2    4    4    0    0 -0.44532645547E+02  0.51709468850E+03 -0.11164336544E+04  0.12347386990E+04  0.93730873943E+02 0.  0.
         23    2    4    4    0    0 -0.61248739920E+02 -0.13334447821E+03  0.84036744831E+02  0.19267624270E+03  0.92356927242E+02 0.  0.
          2    1    3    3  502    0  0.10700369375E+03 -0.25016834776E+03 -0.15423379724E+04  0.15661546583E+04  0.00000000000E+00 0. -1.
         -1    1    3    3    0  502 -0.12223082812E+01 -0.13358186253E+03 -0.71238963021E+03  0.72480659025E+03  0.00000000000E+00 0.  1.
         11    1    5    5    0    0 -0.67091064274E+02  0.24285625231E+03 -0.55399820663E+03  0.60860034764E+03  0.00000000000E+00 0.  1.
        -11    1    5    5    0    0  0.22558418727E+02  0.27423843619E+03 -0.56243544781E+03  0.62613835140E+03  0.00000000000E+00 0. -1.
          2    1    6    6  503    0 -0.70832241460E+02 -0.10273211869E+03  0.97027855055E+02  0.15806802111E+03  0.00000000000E+00 0. -1.
         -2    1    6    6    0  503  0.95835015395E+01 -0.30612359517E+02 -0.12991110224E+02  0.34608221593E+02  0.00000000000E+00 0.  1.
<mgrwt>
<rscale>  0 0.17381409E+04</rscale>
<asrwt>0</asrwt>
<pdfrwt beam="1">  1        2 0.53888462E+00 0.17381409E+04</pdfrwt>
<pdfrwt beam="2">  1       -1 0.33173209E-01 0.17381409E+04</pdfrwt>
<totfact> 0.75361479E+00</totfact>
</mgrwt>
</event>
<event>
12    6  0.1540825E-007  0.1602970E+04  0.7818608E-02  0.8818725E-01
         -1   -1    0    0    0  501 -0.00000000000E+00  0.00000000000E+00  0.24228882396E+03  0.24228882396E+03  0.00000000000E+00 0.  1.
          2   -1    0    0  501    0  0.00000000000E+00 -0.00000000000E+00 -0.26512915573E+04  0.26512915573E+04  0.00000000000E+00 0. -1.
         24    2    1    2    0    0  0.46261848957E+03  0.12902020036E+03 -0.36038188828E+03  0.60532010633E+03  0.76650158104E+02 0.  0.
        254    2    1    2    0    0 -0.46261848957E+03 -0.12902020036E+03 -0.20486208451E+04  0.22882602749E+04  0.89923614250E+03 0.  0.
         23    2    4    4    0    0  0.32020237853E+02 -0.33094823052E+03 -0.29888928502E+03  0.45651853363E+03  0.92316520384E+02 0.  0.
         23    2    4    4    0    0 -0.49463872743E+03  0.20192803016E+03 -0.17497315601E+04  0.18317417413E+04  0.90966337325E+02 0.  0.
          4    1    3    3  502    0  0.60709343870E+02  0.25318192385E+02 -0.20655041649E+02  0.68943934064E+02  0.00000000000E+00 0. -1.
         -3    1    3    3    0  502  0.40190914570E+03  0.10370200797E+03 -0.33972684663E+03  0.53637617227E+03  0.00000000000E+00 0.  1.
         11    1    5    5    0    0 -0.17649469060E+02 -0.20259608546E+03 -0.21193547349E+03  0.29372320733E+03  0.00000000000E+00 0. -1.
        -11    1    5    5    0    0  0.49669706913E+02 -0.12835214506E+03 -0.86953811528E+02  0.16279532630E+03  0.00000000000E+00 0.  1.
          3    1    6    6  503    0 -0.37535783442E+03  0.17142528934E+03 -0.14535686025E+04  0.15110068881E+04  0.00000000000E+00 0. -1.
         -3    1    6    6    0  503 -0.11928089300E+03  0.30502740826E+02 -0.29616295755E+03  0.32073485320E+03  0.00000000000E+00 0.  1.
<mgrwt>
<rscale>  0 0.16029701E+04</rscale>
<asrwt>0</asrwt>
<pdfrwt beam="1">  1        2 0.40789102E+00 0.16029701E+04</pdfrwt>
<pdfrwt beam="2">  1       -1 0.37275203E-01 0.16029701E+04</pdfrwt>
<totfact> 0.21530619E+01</totfact>
</mgrwt>
</event>
<event>
12    6  0.1540825E-007  0.2226456E+04  0.7818608E-02  0.8507496E-01
         -3   -1    0    0    0  501 -0.00000000000E+00  0.00000000000E+00  0.45019105597E+03  0.45019105597E+03  0.00000000000E+00 0.  1.
          4   -1    0    0  501    0  0.00000000000E+00 -0.00000000000E+00 -0.27527803215E+04  0.27527803215E+04  0.00000000000E+00 0. -1.
         24    2    1    2    0    0 -0.68039873735E+03  0.60444681501E+03 -0.66299721583E+03  0.11288587399E+04  0.80363875978E+02 0.  0.
        254    2    1    2    0    0  0.68039873735E+03 -0.60444681501E+03 -0.16395920497E+04  0.20741126376E+04  0.88621822922E+03 0.  0.
         23    2    4    4    0    0  0.38689569919E+03 -0.21462814294E+03 -0.14878420637E+04  0.15550299621E+04  0.93223681651E+02 0.  0.
         23    2    4    4    0    0  0.29350303816E+03 -0.38981867206E+03 -0.15174998606E+03  0.51908267546E+03  0.91192846168E+02 0.  0.
          4    1    3    3  502    0 -0.50787955548E+03  0.43003094295E+03 -0.52297858954E+03  0.84638930752E+03  0.00000000000E+00 0. -1.
         -3    1    3    3    0  502 -0.17251918187E+03  0.17441587205E+03 -0.14001862629E+03  0.28246943241E+03  0.00000000000E+00 0.  1.
         11    1    5    5    0    0  0.41147300270E+02 -0.13341437808E+01 -0.83318927952E+02  0.92935052667E+02  0.00000000000E+00 0.  1.
        -11    1    5    5    0    0  0.34574839892E+03 -0.21329399916E+03 -0.14045231357E+04  0.14620949095E+04  0.00000000000E+00 0. -1.
          1    1    6    6  503    0  0.13095378783E+03 -0.14507077034E+03 -0.10411525442E+03  0.22143714493E+03  0.00000000000E+00 0.  1.
         -1    1    6    6    0  503  0.16254925033E+03 -0.24474790173E+03 -0.47634731642E+02  0.29764553053E+03  0.00000000000E+00 0. -1.
<mgrwt>
<rscale>  0 0.22264564E+04</rscale>
<asrwt>0</asrwt>
<pdfrwt beam="1">  1        4 0.42350466E+00 0.22264564E+04</pdfrwt>
<pdfrwt beam="2">  1       -3 0.69260163E-01 0.22264564E+04</pdfrwt>
<totfact> 0.19296662E-02</totfact>
</mgrwt>
</event>
<event>
12    6  0.1540825E-007  0.3022606E+04  0.7818608E-02  0.8237305E-01
          2   -1    0    0  501    0  0.00000000000E+00  0.00000000000E+00  0.20079063894E+04  0.20079063894E+04  0.00000000000E+00 0. -1.
         -1   -1    0    0    0  501 -0.00000000000E+00 -0.00000000000E+00 -0.11375213044E+04  0.11375213044E+04  0.00000000000E+00 0.  1.
         24    2    1    2    0    0  0.90547573791E+03 -0.24900816223E+03 -0.65463343743E+03  0.11475753980E+04  0.80579028685E+02 0.  0.
        254    2    1    2    0    0 -0.90547573791E+03  0.24900816223E+03  0.15250185224E+04  0.19978522959E+04  0.88534791219E+03 0.  0.
         23    2    4    4    0    0 -0.62635202261E+03 -0.97798112227E+02  0.33226718322E+03  0.72140175611E+03  0.90209121998E+02 0.  0.
         23    2    4    4    0    0 -0.27912371530E+03  0.34680627445E+03  0.11927513392E+04  0.12764505398E+04  0.92117223485E+02 0.  0.
          4    1    3    3  502    0  0.21991398353E+03 -0.25537542374E+02 -0.14727222817E+03  0.26590117602E+03  0.00000000000E+00 0. -1.
         -3    1    3    3    0  502  0.68556175438E+03 -0.22347061985E+03 -0.50736120926E+03  0.88167422196E+03  0.00000000000E+00 0.  1.
         11    1    5    5    0    0 -0.50539898579E+03 -0.10449715567E+03  0.29601102478E+03  0.59495404627E+03  0.00000000000E+00 0. -1.
        -11    1    5    5    0    0 -0.12095303682E+03  0.66990434450E+01  0.36256158437E+02  0.12644770984E+03  0.00000000000E+00 0.  1.
          3    1    6    6  503    0 -0.58249731817E+02  0.75055412949E+02  0.37546633054E+03  0.38730002794E+03  0.00000000000E+00 0.  1.
         -3    1    6    6    0  503 -0.22087398349E+03  0.27175086150E+03  0.81728500867E+03  0.88915051184E+03  0.00000000000E+00 0. -1.
<mgrwt>
<rscale>  0 0.30226057E+04</rscale>
<asrwt>0</asrwt>
<pdfrwt beam="1">  1        2 0.30890867E+00 0.30226057E+04</pdfrwt>
<pdfrwt beam="2">  1       -1 0.17500328E+00 0.30226057E+04</pdfrwt>
<totfact> 0.14538885E+00</totfact>
</mgrwt>
</event>
<event>
12    6  0.1540825E-007  0.1508523E+04  0.7818608E-02  0.8878805E-01
          2   -1    0    0  501    0  0.00000000000E+00  0.00000000000E+00  0.74631408166E+03  0.74631408166E+03  0.00000000000E+00 0. -1.
         -1   -1    0    0    0  501 -0.00000000000E+00 -0.00000000000E+00 -0.76229320553E+03  0.76229320553E+03  0.00000000000E+00 0.  1.
         24    2    1    2    0    0 -0.18528853021E+03 -0.43249368013E+03  0.10142171481E+03  0.48798824117E+03  0.80396122478E+02 0.  0.
        254    2    1    2    0    0  0.18528853021E+03  0.43249368013E+03 -0.11740083867E+03  0.10206190460E+04  0.89805214625E+03 0.  0.
         23    2    4    4    0    0 -0.31062404317E+03 -0.21060127788E+02 -0.11035613148E+03  0.34284656220E+03  0.91839339495E+02 0.  0.
         23    2    4    4    0    0  0.49591257338E+03  0.45355380792E+03 -0.70447071945E+01  0.67777248381E+03  0.87667410147E+02 0.  0.
          4    1    3    3  502    0 -0.17135479835E+03 -0.39198148261E+03  0.66962448745E+02  0.43300798973E+03  0.00000000000E+00 0. -1.
         -3    1    3    3    0  502 -0.13933731857E+02 -0.40512197521E+02  0.34459266062E+02  0.54980251445E+02  0.00000000000E+00 0.  1.
         11    1    5    5    0    0 -0.12722378645E+03 -0.84081023403E+01  0.17712279321E+01  0.12751362779E+03  0.00000000000E+00 0. -1.
        -11    1    5    5    0    0 -0.18340025672E+03 -0.12652025448E+02 -0.11212735941E+03  0.21533293441E+03  0.00000000000E+00 0.  1.
          2    1    6    6  503    0  0.44056338283E+03  0.42551774670E+03  0.12779672797E+02  0.61263754952E+03  0.00000000000E+00 0. -1.
         -2    1    6    6    0  503  0.55349190548E+02  0.28036061217E+02 -0.19824379991E+02  0.65134934290E+02  0.00000000000E+00 0.  1.
<mgrwt>
<rscale>  0 0.15085227E+04</rscale>
<asrwt>0</asrwt>
<pdfrwt beam="1">  1        2 0.11481755E+00 0.15085227E+04</pdfrwt>
<pdfrwt beam="2">  1       -1 0.11727588E+00 0.15085227E+04</pdfrwt>
<totfact> 0.27254290E+01</totfact>
</mgrwt>
</event>
<event>
12    6  0.1540825E-007  0.1353936E+04  0.7818608E-02  0.8987854E-01
         -1   -1    0    0    0  501 -0.00000000000E+00  0.00000000000E+00  0.25061537434E+03  0.25061537434E+03  0.00000000000E+00 0.  1.
          2   -1    0    0  501    0  0.00000000000E+00 -0.00000000000E+00 -0.18286402475E+04  0.18286402475E+04  0.00000000000E+00 0. -1.
         24    2    1    2    0    0  0.52911732018E+02 -0.11576096264E+02  0.12104470173E+03  0.15768773163E+03  0.85322584935E+02 0.  0.
        254    2    1    2    0    0 -0.52911732018E+02  0.11576096264E+02 -0.16990695749E+04  0.19215678903E+04  0.89590852158E+03 0.  0.
         23    2    4    4    0    0  0.66899244439E+02 -0.41310829403E+03 -0.10192788131E+04  0.11060338876E+04  0.96164911048E+02 0.  0.
         23    2    4    4    0    0 -0.11981097646E+03  0.42468439030E+03 -0.67979076183E+03  0.81553400269E+03  0.90932547672E+02 0.  0.
          2    1    3    3  502    0  0.65597790042E+02 -0.31612662625E+02  0.68210452249E+02  0.99775228853E+02  0.00000000000E+00 0. -1.
         -3    1    3    3    0  502 -0.12686058024E+02  0.20036566361E+02  0.52834249479E+02  0.57912502776E+02  0.00000000000E+00 0.  1.
         11    1    5    5    0    0 -0.21327067695E+02 -0.12132538845E+03 -0.25458003373E+03  0.28281740978E+03  0.00000000000E+00 0. -1.
        -11    1    5    5    0    0  0.88226312134E+02 -0.29178290559E+03 -0.76469877937E+03  0.82321647780E+03  0.00000000000E+00 0.  1.
          3    1    6    6  503    0 -0.14614338144E+02  0.14215016226E+02 -0.93897869462E+01  0.22445793917E+02  0.00000000000E+00 0. -1.
         -3    1    6    6    0  503 -0.10519663831E+03  0.41046937407E+03 -0.67040097489E+03  0.79308820877E+03  0.00000000000E+00 0.  1.
<mgrwt>
<rscale>  0 0.13539355E+04</rscale>
<asrwt>0</asrwt>
<pdfrwt beam="1">  1        2 0.28132927E+00 0.13539355E+04</pdfrwt>
<pdfrwt beam="2">  1       -1 0.38556212E-01 0.13539355E+04</pdfrwt>
<totfact> 0.60291691E+01</totfact>
</mgrwt>
</event>
<event>
12    6  0.1540825E-007  0.1568580E+04  0.7818608E-02  0.8840087E-01
          2   -1    0    0  501    0  0.00000000000E+00  0.00000000000E+00  0.13172682390E+04  0.13172682390E+04  0.00000000000E+00 0. -1.
         -1   -1    0    0    0  501 -0.00000000000E+00 -0.00000000000E+00 -0.46695918647E+03  0.46695918647E+03  0.00000000000E+00 0.  1.
         24    2    1    2    0    0  0.12600368515E+02  0.19685895331E+03 -0.26166033137E+03  0.33733373340E+03  0.80098076704E+02 0.  0.
        254    2    1    2    0    0 -0.12600368515E+02 -0.19685895331E+03  0.11119693839E+04  0.14468936921E+04  0.90449611867E+03 0.  0.
         23    2    4    4    0    0  0.72058449063E+02 -0.33949901852E+03  0.11885992996E+04  0.12416256923E+04  0.91728191144E+02 0.  0.
         23    2    4    4    0    0 -0.84658817578E+02  0.14264006521E+03 -0.76629915646E+02  0.20526799986E+03  0.93538784448E+02 0.  0.
          4    1    3    3  502    0 -0.17853520191E+02  0.14762806723E+02 -0.10048187386E+02  0.25251825979E+02  0.00000000000E+00 0. -1.
         -3    1    3    3    0  502  0.30453888705E+02  0.18209614659E+03 -0.25161214398E+03  0.31208190742E+03  0.00000000000E+00 0.  1.
         11    1    5    5    0    0  0.58917860495E+02 -0.27184612653E+03  0.80038443279E+03  0.84734105946E+03  0.00000000000E+00 0.  1.
        -11    1    5    5    0    0  0.13140588568E+02 -0.67652891996E+02  0.38821486679E+03  0.39428463280E+03  0.00000000000E+00 0. -1.
          4    1    6    6  503    0 -0.45156088236E+02  0.35881883716E+02 -0.70754749573E+02  0.91284261902E+02  0.00000000000E+00 0. -1.
         -4    1    6    6    0  503 -0.39502729342E+02  0.10675818150E+03 -0.58751660729E+01  0.11398373796E+03  0.00000000000E+00 0.  1.
<mgrwt>
<rscale>  0 0.15685796E+04</rscale>
<asrwt>0</asrwt>
<pdfrwt beam="1">  1        2 0.20265665E+00 0.15685796E+04</pdfrwt>
<pdfrwt beam="2">  1       -1 0.71839875E-01 0.15685796E+04</pdfrwt>
<totfact> 0.34614230E+01</totfact>
</mgrwt>
</event>
<event>
12    6  0.1540825E-007  0.1327398E+04  0.7818608E-02  0.9008116E-01
          2   -1    0    0  501    0  0.00000000000E+00  0.00000000000E+00  0.99465448639E+03  0.99465448639E+03  0.00000000000E+00 0. -1.
         -1   -1    0    0    0  501 -0.00000000000E+00 -0.00000000000E+00 -0.44286355737E+03  0.44286355737E+03  0.00000000000E+00 0.  1.
         24    2    1    2    0    0 -0.22351564717E+02 -0.31932917510E+02 -0.21573711809E+03  0.23323346481E+03  0.79599254526E+02 0.  0.
        254    2    1    2    0    0  0.22351564717E+02  0.31932917510E+02  0.76752804711E+03  0.12042845789E+04  0.92719077881E+03 0.  0.
         23    2    4    4    0    0  0.33493973900E+02 -0.39678650253E+03  0.61950688397E+03  0.74192877948E+03  0.90045320062E+02 0.  0.
         23    2    4    4    0    0 -0.11142409183E+02  0.42871942004E+03  0.14802116315E+03  0.46235579946E+03  0.89096162411E+02 0.  0.
          4    1    3    3  502    0  0.21701213115E+02  0.12490665136E+02 -0.46682048068E+02  0.52973323268E+02  0.00000000000E+00 0. -1.
         -3    1    3    3    0  502 -0.44052777832E+02 -0.44423582646E+02 -0.16905507002E+03  0.18026014155E+03  0.00000000000E+00 0.  1.
         11    1    5    5    0    0 -0.23733297372E+02 -0.38283012463E+02  0.75222167766E+02  0.87676866794E+02  0.00000000000E+00 0.  1.
        -11    1    5    5    0    0  0.57227271272E+02 -0.35850349006E+03  0.54428471620E+03  0.65425191269E+03  0.00000000000E+00 0. -1.
          3    1    6    6  503    0  0.34448444907E+02  0.16198876480E+03  0.76733738289E+02  0.18252430487E+03  0.00000000000E+00 0. -1.
         -3    1    6    6    0  503 -0.45590854090E+02  0.26673065524E+03  0.71287424856E+02  0.27983149459E+03  0.00000000000E+00 0.  1.
<mgrwt>
<rscale>  0 0.13273978E+04</rscale>
<asrwt>0</asrwt>
<pdfrwt beam="1">  1        2 0.15302377E+00 0.13273978E+04</pdfrwt>
<pdfrwt beam="2">  1       -1 0.68132855E-01 0.13273978E+04</pdfrwt>
<totfact> 0.61808941E+01</totfact>
</mgrwt>
</event>
<event>
12    6  0.1540825E-007  0.2305911E+04  0.7818608E-02  0.8475594E-01
         -1   -1    0    0    0  501 -0.00000000000E+00  0.00000000000E+00  0.22948544797E+04  0.22948544797E+04  0.00000000000E+00 0.  1.
          2   -1    0    0  501    0  0.00000000000E+00 -0.00000000000E+00 -0.57925539892E+03  0.57925539892E+03  0.00000000000E+00 0. -1.
         24    2    1    2    0    0  0.11327244192E+03  0.50590794743E+03  0.17626812842E+04  0.18388443885E+04  0.74363151088E+02 0.  0.
        254    2    1    2    0    0 -0.11327244192E+03 -0.50590794743E+03 -0.47082203381E+02  0.10352654901E+04  0.89486557861E+03 0.  0.
         23    2    4    4    0    0  0.37958478949E+02 -0.74483747296E+02  0.38226649820E+03  0.40145556662E+03  0.89723027083E+02 0.  0.
         23    2    4    4    0    0 -0.15123092087E+03 -0.43142420014E+03 -0.42934870158E+03  0.63380992350E+03  0.91526387915E+02 0.  0.
          2    1    3    3  502    0  0.46621066529E+02  0.24251902386E+03  0.71241010922E+03  0.75400077221E+03  0.00000000000E+00 0. -1.
         -1    1    3    3    0  502  0.66651375395E+02  0.26338892357E+03  0.10502711750E+04  0.10848436163E+04  0.00000000000E+00 0.  1.
         11    1    5    5    0    0  0.98909827491E+01  0.17027651234E+02  0.26365982422E+02  0.32908015367E+02  0.00000000000E+00 0. -1.
        -11    1    5    5    0    0  0.28067496200E+02 -0.91511398530E+02  0.35590051578E+03  0.36854755125E+03  0.00000000000E+00 0.  1.
          2    1    6    6  503    0 -0.33136749312E+01 -0.11533751398E+03 -0.13205046202E+03  0.17535976475E+03  0.00000000000E+00 0. -1.
         -2    1    6    6    0  503 -0.14791724594E+03 -0.31608668616E+03 -0.29729823956E+03  0.45845015875E+03  0.00000000000E+00 0.  1.
<mgrwt>
<rscale>  0 0.23059114E+04</rscale>
<asrwt>0</asrwt>
<pdfrwt beam="1">  1        2 0.89116216E-01 0.23059114E+04</pdfrwt>
<pdfrwt beam="2">  1       -1 0.35305453E+00 0.23059114E+04</pdfrwt>
<totfact> 0.79425431E-01</totfact>
</mgrwt>
</event>
<event>
12    6  0.1540825E-007  0.1597431E+04  0.7818608E-02  0.8822128E-01
         -1   -1    0    0    0  501 -0.00000000000E+00  0.00000000000E+00  0.39883267887E+03  0.39883267887E+03  0.00000000000E+00 0.  1.
          4   -1    0    0  501    0  0.00000000000E+00 -0.00000000000E+00 -0.15995347134E+04  0.15995347134E+04  0.00000000000E+00 0. -1.
         24    2    1    2    0    0 -0.31239444899E+03 -0.43746705841E+03 -0.30306536683E+03  0.62221813409E+03  0.79618282263E+02 0.  0.
        254    2    1    2    0    0  0.31239444899E+03  0.43746705841E+03 -0.89763666765E+03  0.13761492581E+04  0.89390574144E+03 0.  0.
         23    2    4    4    0    0 -0.20037306375E+03  0.78898819696E+02  0.49706743831E+02  0.23728526870E+03  0.86366370384E+02 0.  0.
         23    2    4    4    0    0  0.51276751274E+03  0.35856823871E+03 -0.94734341149E+03  0.11388639894E+04  0.89721475678E+02 0.  0.
          2    1    3    3  502    0 -0.16880416713E+03 -0.22432153105E+03 -0.11325871630E+03  0.30272517727E+03  0.00000000000E+00 0. -1.
         -1    1    3    3    0  502 -0.14359028186E+03 -0.21314552736E+03 -0.18980665052E+03  0.31949295683E+03  0.00000000000E+00 0.  1.
         11    1    5    5    0    0 -0.10861589125E+03  0.56842022469E+02 -0.14054221840E+02  0.12339347026E+03  0.00000000000E+00 0.  1.
        -11    1    5    5    0    0 -0.91757172497E+02  0.22056797227E+02  0.63760965671E+02  0.11389179844E+03  0.00000000000E+00 0. -1.
          3    1    6    6  503    0  0.40745307605E+03  0.30103715800E+03 -0.82014663287E+03  0.96399267585E+03  0.00000000000E+00 0. -1.
         -3    1    6    6    0  503  0.10531443669E+03  0.57531080707E+02 -0.12719677861E+03  0.17487131358E+03  0.00000000000E+00 0.  1.
<mgrwt>
<rscale>  0 0.15974313E+04</rscale>
<asrwt>0</asrwt>
<pdfrwt beam="1">  1        4 0.24608226E+00 0.15974313E+04</pdfrwt>
<pdfrwt beam="2">  1       -1 0.61358873E-01 0.15974313E+04</pdfrwt>
<totfact> 0.70363622E-01</totfact>
</mgrwt>
</event>
<event>
12    6  0.1540825E-007  0.2407020E+04  0.7818608E-02  0.8436880E-01
          2   -1    0    0  501    0  0.00000000000E+00  0.00000000000E+00  0.28948763694E+04  0.28948763694E+04  0.00000000000E+00 0. -1.
         -1   -1    0    0    0  501 -0.00000000000E+00 -0.00000000000E+00 -0.50034463195E+03  0.50034463195E+03  0.00000000000E+00 0.  1.
         24    2    1    2    0    0 -0.19418410794E+03 -0.71846018040E+03  0.20529984386E+04  0.21851740360E+04  0.79312547739E+02 0.  0.
        254    2    1    2    0    0  0.19418410794E+03  0.71846018040E+03  0.34153329884E+03  0.12100469653E+04  0.89088504616E+03 0.  0.
         23    2    4    4    0    0 -0.16830093970E+02 -0.19441847010E+03  0.24199869975E+02  0.21669659376E+03  0.91049362767E+02 0.  0.
         23    2    4    4    0    0  0.21101420191E+03  0.91287865050E+03  0.31733342887E+03  0.99335037156E+03  0.90388227465E+02 0.  0.
          4    1    3    3  502    0 -0.18210913609E+03 -0.65197166038E+03  0.19229041883E+04  0.20385758020E+04  0.00000000000E+00 0. -1.
         -3    1    3    3    0  502 -0.12074971855E+02 -0.66488520017E+02  0.13009425033E+03  0.14659823399E+03  0.00000000000E+00 0.  1.
         11    1    5    5    0    0 -0.30870358862E+01 -0.19862472403E+03  0.14135959639E+02  0.19915103851E+03  0.00000000000E+00 0. -1.
        -11    1    5    5    0    0 -0.13743058084E+02  0.42062539283E+01  0.10063910335E+02  0.17545555244E+02  0.00000000000E+00 0.  1.
          3    1    6    6  503    0  0.15390672383E+03  0.79597360909E+03  0.28423135160E+03  0.85909762381E+03  0.00000000000E+00 0. -1.
         -3    1    6    6    0  503  0.57107478079E+02  0.11690504141E+03  0.33102077270E+02  0.13425274775E+03  0.00000000000E+00 0.  1.
<mgrwt>
<rscale>  0 0.24070196E+04</rscale>
<asrwt>0</asrwt>
<pdfrwt beam="1">  1        2 0.44536559E+00 0.24070196E+04</pdfrwt>
<pdfrwt beam="2">  1       -1 0.76976099E-01 0.24070196E+04</pdfrwt>
<totfact> 0.35027784E+00</totfact>
</mgrwt>
</event>
<event>
12    6  0.1540825E-007  0.1716951E+04  0.7818608E-02  0.8751755E-01
         -1   -1    0    0    0  501 -0.00000000000E+00  0.00000000000E+00  0.41637736289E+03  0.41637736289E+03  0.00000000000E+00 0.  1.
          2   -1    0    0  501    0  0.00000000000E+00 -0.00000000000E+00 -0.17699806789E+04  0.17699806789E+04  0.00000000000E+00 0. -1.
         24    2    1    2    0    0 -0.17038563822E+03 -0.43521486045E+03  0.24276900232E+02  0.47486240344E+03  0.80384661799E+02 0.  0.
        254    2    1    2    0    0  0.17038563822E+03  0.43521486045E+03 -0.13778802163E+04  0.17114956384E+04  0.90123259446E+03 0.  0.
         23    2    4    4    0    0  0.19909636421E+03  0.52976539657E+03 -0.34292403252E+03  0.66783981842E+03  0.90124321588E+02 0.  0.
         23    2    4    4    0    0 -0.28710725984E+02 -0.94550536118E+02 -0.10349561837E+04  0.10436558200E+04  0.91208873384E+02 0.  0.
          2    1    3    3  502    0  0.34805096107E+01 -0.24817340028E+02 -0.11794893244E+02  0.27697180720E+02  0.00000000000E+00 0. -1.
         -3    1    3    3    0  502 -0.17386614783E+03 -0.41039752042E+03  0.36071793476E+02  0.44716522272E+03  0.00000000000E+00 0.  1.
         11    1    5    5    0    0  0.16123236698E+01  0.55699615347E+02 -0.12309687063E+02  0.57066409849E+02  0.00000000000E+00 0.  1.
        -11    1    5    5    0    0  0.19748404054E+03  0.47406578122E+03 -0.33061434546E+03  0.61077340857E+03  0.00000000000E+00 0. -1.
          2    1    6    6  503    0 -0.58647327044E+02 -0.81654644330E+02 -0.83981215549E+03  0.84580816171E+03  0.00000000000E+00 0. -1.
         -2    1    6    6    0  503  0.29936601060E+02 -0.12895891788E+02 -0.19514402826E+03  0.19784765824E+03  0.00000000000E+00 0.  1.
<mgrwt>
<rscale>  0 0.17169507E+04</rscale>
<asrwt>0</asrwt>
<pdfrwt beam="1">  1        2 0.27230473E+00 0.17169507E+04</pdfrwt>
<pdfrwt beam="2">  1       -1 0.64058054E-01 0.17169507E+04</pdfrwt>
<totfact> 0.23985698E+01</totfact>
</mgrwt>
</event>
<event>
12    6  0.1540825E-007  0.2516384E+04  0.7818608E-02  0.8397172E-01
          2   -1    0    0  501    0  0.00000000000E+00  0.00000000000E+00  0.25471407603E+04  0.25471407603E+04  0.00000000000E+00 0. -1.
         -1   -1    0    0    0  501 -0.00000000000E+00 -0.00000000000E+00 -0.62149974044E+03  0.62149974044E+03  0.00000000000E+00 0.  1.
         24    2    1    2    0    0  0.60503243777E+03  0.32693175381E+03  0.19160963316E+04  0.20373507800E+04  0.80152519971E+02 0.  0.
        254    2    1    2    0    0 -0.60503243777E+03 -0.32693175381E+03  0.95446883318E+01  0.11312897208E+04  0.89820749769E+03 0.  0.
         23    2    4    4    0    0 -0.11006736211E+03  0.29657172527E+03  0.21483140759E+02  0.32985187644E+03  0.90945712502E+02 0.  0.
         23    2    4    4    0    0 -0.49496507565E+03 -0.62350347908E+03 -0.11938452428E+02  0.80143784436E+03  0.91722828069E+02 0.  0.
          2    1    3    3  502    0  0.99481114214E+02  0.55186990913E+02  0.41356804869E+03  0.42892962937E+03  0.00000000000E+00 0. -1.
         -1    1    3    3    0  502  0.50555132355E+03  0.27174476289E+03  0.15025282829E+04  0.16084211506E+04  0.00000000000E+00 0.  1.
         11    1    5    5    0    0  0.16074660671E+02  0.29812519997E+02  0.57318959434E+01  0.34351647637E+02  0.00000000000E+00 0. -1.
        -11    1    5    5    0    0 -0.12614202278E+03  0.26675920527E+03  0.15751244816E+02  0.29550022880E+03  0.00000000000E+00 0.  1.
          3    1    6    6  503    0 -0.21805455381E+03 -0.20843135727E+03 -0.21163555825E+02  0.30238934377E+03  0.00000000000E+00 0. -1.
         -3    1    6    6    0  503 -0.27691052184E+03 -0.41507212180E+03  0.92251033970E+01  0.49904850059E+03  0.00000000000E+00 0.  1.
<mgrwt>
<rscale>  0 0.25163842E+04</rscale>
<asrwt>0</asrwt>
<pdfrwt beam="1">  1        2 0.39186781E+00 0.25163842E+04</pdfrwt>
<pdfrwt beam="2">  1       -1 0.95615346E-01 0.25163842E+04</pdfrwt>
<totfact> 0.34929436E+00</totfact>
</mgrwt>
</event>
<event>
12    6  0.1540825E-007  0.1174911E+04  0.7818608E-02  0.9135105E-01
         -1   -1    0    0    0  501 -0.00000000000E+00  0.00000000000E+00  0.14413867077E+03  0.14413867077E+03  0.00000000000E+00 0.  1.
          2   -1    0    0  501    0  0.00000000000E+00 -0.00000000000E+00 -0.23942490953E+04  0.23942490953E+04  0.00000000000E+00 0. -1.
         24    2    1    2    0    0 -0.19689039589E+03 -0.13808304273E+03 -0.33639605586E+03  0.42124188156E+03  0.80309785849E+02 0.  0.
        254    2    1    2    0    0  0.19689039589E+03  0.13808304273E+03 -0.19137143687E+04  0.21171458845E+04  0.87302420171E+03 0.  0.
         23    2    4    4    0    0  0.31535652568E+03  0.45088485254E+03 -0.11332040483E+04  0.12630488210E+04  0.91618887209E+02 0.  0.
         23    2    4    4    0    0 -0.11846612979E+03 -0.31280180981E+03 -0.78051032039E+03  0.85409706357E+03  0.91685536728E+02 0.  0.
          4    1    3    3  502    0 -0.11377950116E+03 -0.12563352679E+03 -0.22595672549E+03  0.28246415654E+03  0.00000000000E+00 0. -1.
         -3    1    3    3    0  502 -0.83110894728E+02 -0.12449515945E+02 -0.11043933037E+03  0.13877772502E+03  0.00000000000E+00 0.  1.
         11    1    5    5    0    0  0.30074667704E+03  0.44790029074E+03 -0.11198508659E+04  0.12430322587E+04  0.00000000000E+00 0.  1.
        -11    1    5    5    0    0  0.14609848636E+02  0.29845618019E+01 -0.13353182417E+02  0.20016562317E+02  0.00000000000E+00 0. -1.
          3    1    6    6  503    0 -0.24811963552E+02 -0.34629780193E+02 -0.43947959235E+02  0.61206848737E+02  0.00000000000E+00 0. -1.
         -3    1    6    6    0  503 -0.93654166243E+02 -0.27817202962E+03 -0.73656236115E+03  0.79289021483E+03  0.00000000000E+00 0.  1.
<mgrwt>
<rscale>  0 0.11749109E+04</rscale>
<asrwt>0</asrwt>
<pdfrwt beam="1">  1        2 0.36834603E+00 0.11749109E+04</pdfrwt>
<pdfrwt beam="2">  1       -1 0.22175179E-01 0.11749109E+04</pdfrwt>
<totfact> 0.77935417E+01</totfact>
</mgrwt>
</event>
<event>
12    6  0.1540825E-007  0.1487035E+04  0.7818608E-02  0.8893121E-01
          2   -1    0    0  501    0  0.00000000000E+00  0.00000000000E+00  0.11193503420E+04  0.11193503420E+04  0.00000000000E+00 0. -1.
         -1   -1    0    0    0  501 -0.00000000000E+00 -0.00000000000E+00 -0.49387400551E+03  0.49387400551E+03  0.00000000000E+00 0.  1.
         24    2    1    2    0    0 -0.23013900159E+03  0.39942059944E+03  0.58015616200E+02  0.47301777553E+03  0.88765020923E+02 0.  0.
        254    2    1    2    0    0  0.23013900159E+03 -0.39942059944E+03  0.56746072025E+03  0.11402065719E+04  0.87496204623E+03 0.  0.
         23    2    4    4    0    0  0.17383148056E+03 -0.41045834954E+03 -0.99776937043E+02  0.46427579405E+03  0.83085109555E+02 0.  0.
         23    2    4    4    0    0  0.56307521029E+02  0.11037750106E+02  0.66723765729E+03  0.67593077788E+03  0.91563946639E+02 0.  0.
          2    1    3    3  502    0 -0.12715484770E+03  0.28047713973E+03  0.67989522969E+02  0.31537018953E+03  0.00000000000E+00 0. -1.
         -1    1    3    3    0  502 -0.10298415388E+03  0.11894345970E+03 -0.99739067691E+01  0.15764758601E+03  0.00000000000E+00 0.  1.
         11    1    5    5    0    0  0.94927376934E+02 -0.31805265322E+03 -0.73453682778E+02  0.33994726153E+03  0.00000000000E+00 0.  1.
        -11    1    5    5    0    0  0.78904103624E+02 -0.92405696328E+02 -0.26323254265E+02  0.12432853252E+03  0.00000000000E+00 0. -1.
          2    1    6    6  503    0 -0.69831565610E+01  0.29649998616E+01  0.43561462585E+03  0.43568068348E+03  0.00000000000E+00 0. -1.
         -2    1    6    6    0  503  0.63290677590E+02  0.80727502445E+01  0.23162303144E+03  0.24025009440E+03  0.00000000000E+00 0.  1.
<mgrwt>
<rscale>  0 0.14870347E+04</rscale>
<asrwt>0</asrwt>
<pdfrwt beam="1">  1        2 0.17220774E+00 0.14870347E+04</pdfrwt>
<pdfrwt beam="2">  1       -1 0.75980617E-01 0.14870347E+04</pdfrwt>
<totfact> 0.40682732E+01</totfact>
</mgrwt>
</event>
<event>
12    6  0.1540825E-007  0.2070237E+04  0.7818608E-02  0.8574469E-01
          2   -1    0    0  501    0  0.00000000000E+00  0.00000000000E+00  0.11737727884E+04  0.11737727884E+04  0.00000000000E+00 0. -1.
         -1   -1    0    0    0  501 -0.00000000000E+00 -0.00000000000E+00 -0.91284279974E+03  0.91284279974E+03  0.00000000000E+00 0.  1.
         24    2    1    2    0    0 -0.32284585167E+03  0.59213389718E+01  0.88690643195E+03  0.94738427615E+03  0.81666648364E+02 0.  0.
        254    2    1    2    0    0  0.32284585167E+03 -0.59213389718E+01 -0.62597644332E+03  0.11392313120E+04  0.89539765936E+03 0.  0.
         23    2    4    4    0    0  0.15416874398E+03  0.69011816978E+02  0.20572426624E+03  0.28157294154E+03  0.91816203294E+02 0.  0.
         23    2    4    4    0    0  0.16867710770E+03 -0.74933155949E+02 -0.83170070957E+03  0.85765837043E+03  0.98918479308E+02 0.  0.
          2    1    3    3  502    0 -0.26955887444E+03  0.34360829657E+02  0.75133693300E+03  0.79896798452E+03  0.00000000000E+00 0. -1.
         -1    1    3    3    0  502 -0.53286977232E+02 -0.28439490686E+02  0.13556949895E+03  0.14841629162E+03  0.00000000000E+00 0.  1.
         11    1    5    5    0    0  0.15153679839E+03  0.64625938324E+02  0.21507232293E+03  0.27091699330E+03  0.00000000000E+00 0.  1.
        -11    1    5    5    0    0  0.26319455818E+01  0.43858786535E+01 -0.93480566848E+01  0.10655948240E+02  0.00000000000E+00 0. -1.
          3    1    6    6  503    0  0.29549933497E+02 -0.61877109453E+02 -0.31652703506E+03  0.32386932421E+03  0.00000000000E+00 0. -1.
         -3    1    6    6    0  503  0.13912717420E+03 -0.13056046497E+02 -0.51517367451E+03  0.53378904622E+03  0.00000000000E+00 0.  1.
<mgrwt>
<rscale>  0 0.20702367E+04</rscale>
<asrwt>0</asrwt>
<pdfrwt beam="1">  1        2 0.18058043E+00 0.20702367E+04</pdfrwt>
<pdfrwt beam="2">  1       -1 0.14043735E+00 0.20702367E+04</pdfrwt>
<totfact> 0.86012425E+00</totfact>
</mgrwt>
</event>
<event>
12    6  0.1540825E-007  0.1583062E+04  0.7818608E-02  0.8831022E-01
         -1   -1    0    0    0  501 -0.00000000000E+00  0.00000000000E+00  0.96812904829E+03  0.96812904829E+03  0.00000000000E+00 0.  1.
          2   -1    0    0  501    0  0.00000000000E+00 -0.00000000000E+00 -0.64714641125E+03  0.64714641125E+03  0.00000000000E+00 0. -1.
         24    2    1    2    0    0  0.17307097891E+03 -0.41933155262E+03  0.40687382941E+03  0.61437112652E+03  0.78186017170E+02 0.  0.
        254    2    1    2    0    0 -0.17307097891E+03  0.41933155262E+03 -0.85891192371E+02  0.10009043330E+04  0.88805386782E+03 0.  0.
         23    2    4    4    0    0 -0.37917461533E+02  0.31885838043E+03 -0.46703841796E+03  0.57446494016E+03  0.93683952511E+02 0.  0.
         23    2    4    4    0    0 -0.13515351738E+03  0.10047317219E+03  0.38114722559E+03  0.42643939285E+03  0.90642245167E+02 0.  0.
          2    1    3    3  502    0  0.12614752484E+02 -0.62776324795E+01  0.21818809661E+01  0.14258374884E+02  0.00000000000E+00 0. -1.
         -1    1    3    3    0  502  0.16045622643E+03 -0.41305392014E+03  0.40469194844E+03  0.60011275164E+03  0.00000000000E+00 0.  1.
         11    1    5    5    0    0  0.25674089694E+02  0.43192308338E+02 -0.53291379978E+02  0.73244150354E+02  0.00000000000E+00 0. -1.
        -11    1    5    5    0    0 -0.63591551227E+02  0.27566607209E+03 -0.41374703798E+03  0.50122078980E+03  0.00000000000E+00 0.  1.
          3    1    6    6  503    0 -0.46045589143E+01  0.40960525936E+02  0.45390221527E+02  0.61312632124E+02  0.00000000000E+00 0. -1.
         -3    1    6    6    0  503 -0.13054895846E+03  0.59512646255E+02  0.33575700406E+03  0.36512676073E+03  0.00000000000E+00 0.  1.
<mgrwt>
<rscale>  0 0.15830619E+04</rscale>
<asrwt>0</asrwt>
<pdfrwt beam="1">  1        2 0.99560986E-01 0.15830619E+04</pdfrwt>
<pdfrwt beam="2">  1       -1 0.14894293E+00 0.15830619E+04</pdfrwt>
<totfact> 0.17635038E+01</totfact>
</mgrwt>
</event>
<event>
12    6  0.1540825E-007  0.2394241E+04  0.7818608E-02  0.8441663E-01
          2   -1    0    0  501    0  0.00000000000E+00  0.00000000000E+00  0.19531323200E+04  0.19531323200E+04  0.00000000000E+00 0. -1.
         -1   -1    0    0    0  501 -0.00000000000E+00 -0.00000000000E+00 -0.73374289203E+03  0.73374289203E+03  0.00000000000E+00 0.  1.
         24    2    1    2    0    0  0.38948786904E+03 -0.21878510300E+03  0.15376541022E+04  0.16037603360E+04  0.89996421691E+02 0.  0.
        254    2    1    2    0    0 -0.38948786904E+03  0.21878510300E+03 -0.31826467416E+03  0.10831148761E+04  0.93395808822E+03 0.  0.
         23    2    4    4    0    0 -0.38690845381E+03 -0.15379743947E+03 -0.50128499342E+03  0.65796722670E+03  0.91007817055E+02 0.  0.
         23    2    4    4    0    0 -0.25794152253E+01  0.37258254247E+03  0.18302031926E+03  0.42514764938E+03  0.91813300644E+02 0.  0.
          2    1    3    3  502    0  0.28654533240E+03 -0.12966578981E+03  0.11757282717E+04  0.12170696009E+04  0.00000000000E+00 0. -1.
         -1    1    3    3    0  502  0.10294253663E+03 -0.89119313191E+02  0.36192583049E+03  0.38669073510E+03  0.00000000000E+00 0.  1.
         11    1    5    5    0    0 -0.22922584941E+03 -0.54842933021E+02 -0.23301983870E+03  0.33143699638E+03  0.00000000000E+00 0. -1.
        -11    1    5    5    0    0 -0.15768260440E+03 -0.98954506449E+02 -0.26826515472E+03  0.32653023032E+03  0.00000000000E+00 0.  1.
          3    1    6    6  503    0  0.29958734899E+02  0.16842181846E+03  0.12021282481E+03  0.20908026683E+03  0.00000000000E+00 0. -1.
         -3    1    6    6    0  503 -0.32538150125E+02  0.20416072401E+03  0.62807494452E+02  0.21606738255E+03  0.00000000000E+00 0.  1.
<mgrwt>
<rscale>  0 0.23942406E+04</rscale>
<asrwt>0</asrwt>
<pdfrwt beam="1">  1        2 0.30048189E+00 0.23942406E+04</pdfrwt>
<pdfrwt beam="2">  1       -1 0.11288352E+00 0.23942406E+04</pdfrwt>
<totfact> 0.52125699E+00</totfact>
</mgrwt>
</event>
<event>
12    6  0.1540825E-007  0.2593636E+04  0.7818608E-02  0.8370366E-01
          2   -1    0    0  501    0  0.00000000000E+00  0.00000000000E+00  0.12267292635E+04  0.12267292635E+04  0.00000000000E+00 0. -1.
         -1   -1    0    0    0  501 -0.00000000000E+00 -0.00000000000E+00 -0.13709112714E+04  0.13709112714E+04  0.00000000000E+00 0.  1.
         24    2    1    2    0    0 -0.39745392325E+03 -0.12083727400E+03 -0.11243728289E+04  0.12017168703E+04  0.85661603096E+02 0.  0.
        254    2    1    2    0    0  0.39745392325E+03  0.12083727400E+03  0.98019082098E+03  0.13959236646E+04  0.90291614450E+03 0.  0.
         23    2    4    4    0    0 -0.69452623217E+02 -0.63609812229E+02 -0.12360793231E+03  0.17981756140E+03  0.90474081220E+02 0.  0.
         23    2    4    4    0    0  0.46690654647E+03  0.18444708623E+03  0.11037987533E+04  0.12161061032E+04  0.92303389782E+02 0.  0.
          2    1    3    3  502    0  0.67586924985E-01 -0.10015146662E+02 -0.45988082306E+02  0.47066032814E+02  0.00000000000E+00 0. -1.
         -1    1    3    3    0  502 -0.39752151018E+03 -0.11082212734E+03 -0.10783847466E+04  0.11546508375E+04  0.00000000000E+00 0.  1.
         11    1    5    5    0    0 -0.32519362323E+02  0.14030584911E+02 -0.89960843637E+01  0.36541699095E+02  0.00000000000E+00 0.  1.
        -11    1    5    5    0    0 -0.36933260894E+02 -0.77640397140E+02 -0.11461184795E+03  0.14327586230E+03  0.00000000000E+00 0. -1.
          3    1    6    6  503    0  0.46468488337E+03  0.17060880764E+03  0.10554628526E+04  0.11657792412E+04  0.00000000000E+00 0. -1.
         -3    1    6    6    0  503  0.22216630936E+01  0.13838278585E+02  0.48335900710E+02  0.50326861998E+02  0.00000000000E+00 0.  1.
<mgrwt>
<rscale>  0 0.25936360E+04</rscale>
<asrwt>0</asrwt>
<pdfrwt beam="1">  1        2 0.18872758E+00 0.25936360E+04</pdfrwt>
<pdfrwt beam="2">  1       -1 0.21090943E+00 0.25936360E+04</pdfrwt>
<totfact> 0.23338442E+00</totfact>
</mgrwt>
</event>
<event>
12    6  0.1540825E-007  0.1724731E+04  0.7818608E-02  0.8747384E-01
          2   -1    0    0  501    0  0.00000000000E+00  0.00000000000E+00  0.82199731419E+03  0.82199731419E+03  0.00000000000E+00 0. -1.
         -1   -1    0    0    0  501 -0.00000000000E+00 -0.00000000000E+00 -0.90471627672E+03  0.90471627672E+03  0.00000000000E+00 0.  1.
         24    2    1    2    0    0  0.39710962479E+03  0.33288797759E+03 -0.39230275090E+03  0.65482744873E+03  0.79919206221E+02 0.  0.
        254    2    1    2    0    0 -0.39710962479E+03 -0.33288797759E+03  0.30958378837E+03  0.10718861422E+04  0.88576933795E+03 0.  0.
         23    2    4    4    0    0 -0.20961641774E+03 -0.61988791065E+03  0.13200357598E+03  0.67390327506E+03  0.92307181247E+02 0.  0.
         23    2    4    4    0    0 -0.18749320705E+03  0.28699993306E+03  0.17758021238E+03  0.39798286712E+03  0.96607279347E+02 0.  0.
          2    1    3    3  502    0  0.47639342291E+02  0.38055191412E+02 -0.82263739025E+02  0.10239642223E+03  0.00000000000E+00 0. -1.
         -1    1    3    3    0  502  0.34947028250E+03  0.29483278618E+03 -0.31003901188E+03  0.55243102650E+03  0.00000000000E+00 0.  1.
         11    1    5    5    0    0 -0.19071139157E+03 -0.43467263311E+03  0.95428621541E+02  0.48416707309E+03  0.00000000000E+00 0.  1.
        -11    1    5    5    0    0 -0.18905026172E+02 -0.18521527754E+03  0.36574954443E+02  0.18973620198E+03  0.00000000000E+00 0. -1.
          2    1    6    6  503    0 -0.32161414056E+02  0.31411573362E+01  0.20726411178E+02  0.38390201143E+02  0.00000000000E+00 0. -1.
         -2    1    6    6    0  503 -0.15533179300E+03  0.28385877572E+03  0.15685380121E+03  0.35959266598E+03  0.00000000000E+00 0.  1.
<mgrwt>
<rscale>  0 0.17247311E+04</rscale>
<asrwt>0</asrwt>
<pdfrwt beam="1">  1        2 0.12646113E+00 0.17247311E+04</pdfrwt>
<pdfrwt beam="2">  1       -1 0.13918712E+00 0.17247311E+04</pdfrwt>
<totfact> 0.15327066E+01</totfact>
</mgrwt>
</event>
<event>
12    6  0.1540825E-007  0.1175640E+04  0.7818608E-02  0.9134450E-01
          2   -1    0    0  501    0  0.00000000000E+00  0.00000000000E+00  0.95206136042E+03  0.95206136042E+03  0.00000000000E+00 0. -1.
         -1   -1    0    0    0  501 -0.00000000000E+00 -0.00000000000E+00 -0.36293092777E+03  0.36293092777E+03  0.00000000000E+00 0.  1.
         24    2    1    2    0    0 -0.42077941831E+02 -0.19544878274E+03  0.25155224824E+03  0.33080050920E+03  0.78610835342E+02 0.  0.
        254    2    1    2    0    0  0.42077941831E+02  0.19544878274E+03  0.33757818442E+03  0.98419177899E+03  0.90260935480E+03 0.  0.
         23    2    4    4    0    0  0.19235963881E+01 -0.16786176743E+03 -0.23082502397E+03  0.30258908710E+03  0.10049224227E+03 0.  0.
         23    2    4    4    0    0  0.40154345443E+02  0.36331055017E+03  0.56840320839E+03  0.68160269189E+03  0.88843091807E+02 0.  0.
          2    1    3    3  502    0 -0.96417391064E+01 -0.17204569765E+03  0.22221220997E+03  0.28119557513E+03  0.00000000000E+00 0. -1.
         -1    1    3    3    0  502 -0.32436202724E+02 -0.23403085087E+02  0.29340038266E+02  0.49604934071E+02  0.00000000000E+00 0.  1.
         11    1    5    5    0    0 -0.21362190480E+02 -0.12738258725E+03 -0.21926680675E+03  0.25448103909E+03  0.00000000000E+00 0. -1.
        -11    1    5    5    0    0  0.23285786868E+02 -0.40479180174E+02 -0.11558217218E+02  0.48108048006E+02  0.00000000000E+00 0.  1.
          2    1    6    6  503    0  0.21204583085E+02  0.34229162449E+03  0.54891754956E+03  0.64724312800E+03  0.00000000000E+00 0. -1.
         -2    1    6    6    0  503  0.18949762358E+02  0.21018925680E+02  0.19485658833E+02  0.34359563884E+02  0.00000000000E+00 0.  1.
<mgrwt>
<rscale>  0 0.11756403E+04</rscale>
<asrwt>0</asrwt>
<pdfrwt beam="1">  1        2 0.14647098E+00 0.11756403E+04</pdfrwt>
<pdfrwt beam="2">  1       -1 0.55835528E-01 0.11756403E+04</pdfrwt>
<totfact> 0.98996315E+01</totfact>
</mgrwt>
</event>
<event>
12    6  0.1540825E-007  0.1526312E+04  0.7818608E-02  0.8867142E-01
          2   -1    0    0  501    0  0.00000000000E+00  0.00000000000E+00  0.18461010870E+04  0.18461010870E+04  0.00000000000E+00 0. -1.
         -1   -1    0    0    0  501 -0.00000000000E+00 -0.00000000000E+00 -0.31547933360E+03  0.31547933360E+03  0.00000000000E+00 0.  1.
         24    2    1    2    0    0 -0.40144293746E+03 -0.64502277824E+02  0.86713669414E+03  0.96109613928E+03  0.80391334909E+02 0.  0.
        254    2    1    2    0    0  0.40144293746E+03  0.64502277824E+02  0.66348505921E+03  0.12004842813E+04  0.91412970081E+03 0.  0.
         23    2    4    4    0    0  0.61794398226E+03  0.15598448453E+03  0.20203443703E+03  0.67473839838E+03  0.90928916637E+02 0.  0.
         23    2    4    4    0    0 -0.21650104480E+03 -0.91482206707E+02  0.46145062218E+03  0.52574588288E+03  0.90721332215E+02 0.  0.
          4    1    3    3  502    0 -0.39172115911E+03 -0.63778600992E+02  0.79767564979E+03  0.89095433031E+03  0.00000000000E+00 0. -1.
         -3    1    3    3    0  502 -0.97217783555E+01 -0.72367683147E+00  0.69461044357E+02  0.70141808971E+02  0.00000000000E+00 0.  1.
         11    1    5    5    0    0  0.47980500801E+03  0.10959531178E+03  0.11647631755E+03  0.50575756112E+03  0.00000000000E+00 0.  1.
        -11    1    5    5    0    0  0.13813897425E+03  0.46389172745E+02  0.85558119475E+02  0.16898083727E+03  0.00000000000E+00 0. -1.
          1    1    6    6  503    0 -0.10589714785E+03 -0.54440870449E+02  0.14000462740E+03  0.18379148509E+03  0.00000000000E+00 0. -1.
         -1    1    6    6    0  503 -0.11060389695E+03 -0.37041336258E+02  0.32144599478E+03  0.34195439780E+03  0.00000000000E+00 0.  1.
<mgrwt>
<rscale>  0 0.15263116E+04</rscale>
<asrwt>0</asrwt>
<pdfrwt beam="1">  1        2 0.28401555E+00 0.15263116E+04</pdfrwt>
<pdfrwt beam="2">  1       -1 0.48535283E-01 0.15263116E+04</pdfrwt>
<totfact> 0.37956457E+01</totfact>
</mgrwt>
</event>
<event>
12    6  0.1540825E-007  0.2003985E+04  0.7818608E-02  0.8604760E-01
         -1   -1    0    0    0  501 -0.00000000000E+00  0.00000000000E+00  0.44708686471E+03  0.44708686471E+03  0.00000000000E+00 0.  1.
          2   -1    0    0  501    0  0.00000000000E+00 -0.00000000000E+00 -0.22456239930E+04  0.22456239930E+04  0.00000000000E+00 0. -1.
         24    2    1    2    0    0  0.16986831684E+03  0.74397946663E+03 -0.10530310228E+04  0.13030595564E+04  0.82031584324E+02 0.  0.
        254    2    1    2    0    0 -0.16986831684E+03 -0.74397946663E+03 -0.74550610546E+03  0.13896513012E+04  0.89050024925E+03 0.  0.
         23    2    4    4    0    0  0.95417590580E+02 -0.81430689243E+03 -0.34533201414E+03  0.89421377040E+03  0.90353945843E+02 0.  0.
         23    2    4    4    0    0 -0.26528590742E+03  0.70327425796E+02 -0.40017409132E+03  0.49543753084E+03  0.99982418991E+02 0.  0.
          4    1    3    3  502    0  0.11396522637E+03  0.60912669625E+03 -0.81517961315E+03  0.10239830109E+04  0.00000000000E+00 0. -1.
         -3    1    3    3    0  502  0.55903090466E+02  0.13485277038E+03 -0.23785140963E+03  0.27907654553E+03  0.00000000000E+00 0.  1.
         11    1    5    5    0    0  0.10480877709E+03 -0.79571833904E+03 -0.34440916903E+03  0.87336717968E+03  0.00000000000E+00 0.  1.
        -11    1    5    5    0    0 -0.93911865143E+01 -0.18588553392E+02 -0.92284511229E+00  0.20846590715E+02  0.00000000000E+00 0. -1.
          1    1    6    6  503    0 -0.40027806336E+02  0.49476380284E+02 -0.11496489356E+03  0.13140420175E+03  0.00000000000E+00 0. -1.
         -1    1    6    6    0  503 -0.22525810108E+03  0.20851045513E+02 -0.28520919776E+03  0.36403332909E+03  0.00000000000E+00 0.  1.
<mgrwt>
<rscale>  0 0.20039850E+04</rscale>
<asrwt>0</asrwt>
<pdfrwt beam="1">  1        2 0.34548061E+00 0.20039850E+04</pdfrwt>
<pdfrwt beam="2">  1       -1 0.68782595E-01 0.20039850E+04</pdfrwt>
<totfact> 0.11007088E+01</totfact>
</mgrwt>
</event>
<event>
12    6  0.1540825E-007  0.1322813E+04  0.7818608E-02  0.9011668E-01
          2   -1    0    0  501    0  0.00000000000E+00  0.00000000000E+00  0.29830727016E+03  0.29830727016E+03  0.00000000000E+00 0. -1.
         -1   -1    0    0    0  501 -0.00000000000E+00 -0.00000000000E+00 -0.14664685621E+04  0.14664685621E+04  0.00000000000E+00 0.  1.
         24    2    1    2    0    0  0.18699829014E+03 -0.20205978413E+03 -0.21305378718E+02  0.28776137503E+03  0.80970197704E+02 0.  0.
        254    2    1    2    0    0 -0.18699829014E+03  0.20205978413E+03 -0.11468559132E+04  0.14770144572E+04  0.88909881581E+03 0.  0.
         23    2    4    4    0    0 -0.44387431297E+03 -0.14250807864E+03 -0.73780613147E+03  0.87713615512E+03  0.87618427244E+02 0.  0.
         23    2    4    4    0    0  0.25687602283E+03  0.34456786277E+03 -0.40904978175E+03  0.59987830210E+03  0.88430482425E+02 0.  0.
          4    1    3    3  502    0  0.96668788949E+02 -0.56952328519E+02 -0.31487226342E+02  0.11653269028E+03  0.00000000000E+00 0. -1.
         -3    1    3    3    0  502  0.90329501192E+02 -0.14510745562E+03  0.10181847623E+02  0.17122868475E+03  0.00000000000E+00 0.  1.
         11    1    5    5    0    0 -0.86126433036E+02  0.73335971565E+01 -0.12944417451E+03  0.15565133610E+03  0.00000000000E+00 0.  1.
        -11    1    5    5    0    0 -0.35774787993E+03 -0.14984167580E+03 -0.60836195696E+03  0.72148481902E+03  0.00000000000E+00 0. -1.
          1    1    6    6  503    0  0.22244527232E+03  0.33612608817E+03 -0.38149356013E+03  0.55497746147E+03  0.00000000000E+00 0. -1.
         -1    1    6    6    0  503  0.34430750508E+02  0.84417746086E+01 -0.27556221614E+02  0.44900840624E+02  0.00000000000E+00 0.  1.
<mgrwt>
<rscale>  0 0.13228125E+04</rscale>
<asrwt>0</asrwt>
<pdfrwt beam="1">  1        2 0.45893426E-01 0.13228125E+04</pdfrwt>
<pdfrwt beam="2">  1       -1 0.22561055E+00 0.13228125E+04</pdfrwt>
<totfact> 0.12510626E+01</totfact>
</mgrwt>
</event>
<event>
12    6  0.1540825E-007  0.2039308E+04  0.7818608E-02  0.8588460E-01
         -1   -1    0    0    0  501 -0.00000000000E+00  0.00000000000E+00  0.62806324026E+03  0.62806324026E+03  0.00000000000E+00 0.  1.
          2   -1    0    0  501    0  0.00000000000E+00 -0.00000000000E+00 -0.16553975301E+04  0.16553975301E+04  0.00000000000E+00 0. -1.
         24    2    1    2    0    0 -0.71578195299E+03  0.33504549787E+03 -0.14157001829E+03  0.80696921920E+03  0.80981237277E+02 0.  0.
        254    2    1    2    0    0  0.71578195299E+03 -0.33504549787E+03 -0.88576427158E+03  0.14764915512E+04  0.87798044743E+03 0.  0.
         23    2    4    4    0    0 -0.97912389662E+01 -0.30157028125E+03 -0.62382896067E+03  0.69903965939E+03  0.91942211892E+02 0.  0.
         23    2    4    4    0    0  0.72557319196E+03 -0.33475216617E+02 -0.26193531091E+03  0.77745189181E+03  0.90798072435E+02 0.  0.
          4    1    3    3  502    0 -0.44314603605E+02  0.24323200544E+02 -0.29848790503E+02  0.58705642590E+02  0.00000000000E+00 0. -1.
         -3    1    3    3    0  502 -0.67146734939E+03  0.31072229733E+03 -0.11172122779E+03  0.74826357661E+03  0.00000000000E+00 0.  1.
         11    1    5    5    0    0  0.33393418926E+02 -0.12746912012E+03 -0.20875908762E+03  0.24686808963E+03  0.00000000000E+00 0. -1.
        -11    1    5    5    0    0 -0.43184657892E+02 -0.17410116113E+03 -0.41506987305E+03  0.45217156976E+03  0.00000000000E+00 0.  1.
          4    1    6    6  503    0  0.97932493553E+02  0.19102736330E+02 -0.14833498449E+02  0.10087477636E+03  0.00000000000E+00 0. -1.
         -4    1    6    6    0  503  0.62764069841E+03 -0.52577952947E+02 -0.24710181246E+03  0.67657711545E+03  0.00000000000E+00 0.  1.
<mgrwt>
<rscale>  0 0.20393081E+04</rscale>
<asrwt>0</asrwt>
<pdfrwt beam="1">  1        2 0.25467654E+00 0.20393081E+04</pdfrwt>
<pdfrwt beam="2">  1       -1 0.96625115E-01 0.20393081E+04</pdfrwt>
<totfact> 0.11288670E+01</totfact>
</mgrwt>
</event>
<event>
12    6  0.1540825E-007  0.1725869E+04  0.7818608E-02  0.8746746E-01
          2   -1    0    0  501    0  0.00000000000E+00  0.00000000000E+00  0.65293836046E+03  0.65293836046E+03  0.00000000000E+00 0. -1.
         -1   -1    0    0    0  501 -0.00000000000E+00 -0.00000000000E+00 -0.11404688821E+04  0.11404688821E+04  0.00000000000E+00 0.  1.
         24    2    1    2    0    0 -0.11749519118E+03  0.60466721756E+03 -0.31118470003E+03  0.69464123901E+03  0.79138925085E+02 0.  0.
        254    2    1    2    0    0  0.11749519118E+03 -0.60466721756E+03 -0.17634582164E+03  0.10987660036E+04  0.89261487655E+03 0.  0.
         23    2    4    4    0    0 -0.28895407603E+03 -0.59331173944E+03 -0.87233194340E+02  0.67261439583E+03  0.96370208441E+02 0.  0.
         23    2    4    4    0    0  0.40644926721E+03 -0.11355478123E+02 -0.89112627296E+02  0.42615160774E+03  0.91291723261E+02 0.  0.
          2    1    3    3  502    0  0.42722876011E+01  0.22257396288E+02  0.10530441601E+01  0.22688169448E+02  0.00000000000E+00 0. -1.
         -1    1    3    3    0  502 -0.12176747879E+03  0.58240982127E+03 -0.31223774419E+03  0.67195306957E+03  0.00000000000E+00 0.  1.
         11    1    5    5    0    0 -0.21622626655E+03 -0.41583669170E+03 -0.19131653589E+02  0.46908418507E+03  0.00000000000E+00 0.  1.
        -11    1    5    5    0    0 -0.72727809479E+02 -0.17747504774E+03 -0.68101540750E+02  0.20353021076E+03  0.00000000000E+00 0. -1.
          1    1    6    6  503    0  0.23863126467E+03 -0.49550389369E+01 -0.59696017058E+01  0.23875734341E+03  0.00000000000E+00 0. -1.
         -1    1    6    6    0  503  0.16781800254E+03 -0.64004391858E+01 -0.83143025591E+02  0.18739426433E+03  0.00000000000E+00 0.  1.
<mgrwt>
<rscale>  0 0.17258689E+04</rscale>
<asrwt>0</asrwt>
<pdfrwt beam="1">  1        2 0.10045206E+00 0.17258689E+04</pdfrwt>
<pdfrwt beam="2">  1       -1 0.17545675E+00 0.17258689E+04</pdfrwt>
<totfact> 0.10884233E+01</totfact>
</mgrwt>
</event>
<event>
12    6  0.1540825E-007  0.1345993E+04  0.7818608E-02  0.8993867E-01
         -1   -1    0    0    0  501 -0.00000000000E+00  0.00000000000E+00  0.51891467953E+03  0.51891467953E+03  0.00000000000E+00 0.  1.
          2   -1    0    0  501    0  0.00000000000E+00 -0.00000000000E+00 -0.87282993320E+03  0.87282993320E+03  0.00000000000E+00 0. -1.
         24    2    1    2    0    0 -0.32377698169E+03 -0.19795787756E+02  0.39791809199E+02  0.33645153436E+03  0.79955236262E+02 0.  0.
        254    2    1    2    0    0  0.32377698169E+03  0.19795787756E+02 -0.39370706287E+03  0.10552930784E+04  0.92380453713E+03 0.  0.
         23    2    4    4    0    0  0.46912385792E+03  0.70423471660E+02 -0.60619327735E+03  0.77524959830E+03  0.92222506619E+02 0.  0.
         23    2    4    4    0    0 -0.14534687623E+03 -0.50627683904E+02  0.21248621448E+03  0.28004348007E+03  0.97903434983E+02 0.  0.
          2    1    3    3  502    0 -0.19045007966E+03 -0.43184132979E+02  0.47125323558E+02  0.20089026434E+03  0.00000000000E+00 0. -1.
         -1    1    3    3    0  502 -0.13332690203E+03  0.23388345222E+02 -0.73335143586E+01  0.13556127002E+03  0.00000000000E+00 0.  1.
         11    1    5    5    0    0  0.24723925195E+03  0.23249901106E+02 -0.38689607907E+03  0.45973512114E+03  0.00000000000E+00 0.  1.
        -11    1    5    5    0    0  0.22188460597E+03  0.47173570554E+02 -0.21929719828E+03  0.31551447716E+03  0.00000000000E+00 0. -1.
          3    1    6    6  503    0  0.68909350941E+01  0.13256839306E+01 -0.56508916743E+01  0.90097170360E+01  0.00000000000E+00 0. -1.
         -3    1    6    6    0  503 -0.15223781132E+03 -0.51953367835E+02  0.21813710615E+03  0.27103376304E+03  0.00000000000E+00 0.  1.
<mgrwt>
<rscale>  0 0.13459930E+04</rscale>
<asrwt>0</asrwt>
<pdfrwt beam="1">  1        2 0.13428153E+00 0.13459930E+04</pdfrwt>
<pdfrwt beam="2">  1       -1 0.79833028E-01 0.13459930E+04</pdfrwt>
<totfact> 0.53490721E+01</totfact>
</mgrwt>
</event>
<event>
12    6  0.1540825E-007  0.4684688E+04  0.7818608E-02  0.7879078E-01
         -1   -1    0    0    0  501 -0.00000000000E+00  0.00000000000E+00  0.13860399374E+04  0.13860399374E+04  0.00000000000E+00 0.  1.
          2   -1    0    0  501    0  0.00000000000E+00 -0.00000000000E+00 -0.39584544389E+04  0.39584544389E+04  0.00000000000E+00 0. -1.
         24    2    1    2    0    0  0.18101494454E+04 -0.13209386994E+04 -0.15168018896E+04  0.27071787410E+04  0.81293916719E+02 0.  0.
        254    2    1    2    0    0 -0.18101494454E+04  0.13209386994E+04 -0.10556126119E+04  0.26373156354E+04  0.90531525541E+03 0.  0.
         23    2    4    4    0    0 -0.99540169053E+03  0.11861152284E+04 -0.46971999022E+03  0.16206034677E+04  0.89581637481E+02 0.  0.
         23    2    4    4    0    0 -0.81474775491E+03  0.13482347095E+03 -0.58589262170E+03  0.10167121676E+04  0.91881419135E+02 0.  0.
          2    1    3    3  502    0  0.13580172938E+04 -0.96475121336E+03 -0.11613821249E+04  0.20307053735E+04  0.00000000000E+00 0. -1.
         -1    1    3    3    0  502  0.45213215162E+03 -0.35618748603E+03 -0.35541976467E+03  0.67647336744E+03  0.00000000000E+00 0.  1.
         11    1    5    5    0    0 -0.14381279225E+03  0.21865260361E+03 -0.94146261499E+02  0.27812694734E+03  0.00000000000E+00 0. -1.
        -11    1    5    5    0    0 -0.85158889828E+03  0.96746262483E+03 -0.37557372872E+03  0.13424765204E+04  0.00000000000E+00 0.  1.
          1    1    6    6  503    0 -0.13917040751E+02  0.15010964910E+02 -0.21488711938E+02  0.29677901400E+02  0.00000000000E+00 0. -1.
         -1    1    6    6    0  503 -0.80083071416E+03  0.11981250604E+03 -0.56440390976E+03  0.98703426623E+03  0.00000000000E+00 0.  1.
<mgrwt>
<rscale>  0 0.46846882E+04</rscale>
<asrwt>0</asrwt>
<pdfrwt beam="1">  1        2 0.60899300E+00 0.46846882E+04</pdfrwt>
<pdfrwt beam="2">  1       -1 0.21323691E+00 0.46846882E+04</pdfrwt>
<totfact> 0.38091173E-02</totfact>
</mgrwt>
</event>
<event>
12    6  0.1540825E-007  0.1679948E+04  0.7818608E-02  0.8772884E-01
         -1   -1    0    0    0  501 -0.00000000000E+00  0.00000000000E+00  0.25452518732E+03  0.25452518732E+03  0.00000000000E+00 0.  1.
          2   -1    0    0  501    0  0.00000000000E+00 -0.00000000000E+00 -0.27720503973E+04  0.27720503973E+04  0.00000000000E+00 0. -1.
         24    2    1    2    0    0 -0.47945623826E+02 -0.15700850344E+03  0.13136629062E+03  0.22508907992E+03  0.80358811538E+02 0.  0.
        254    2    1    2    0    0  0.47945623826E+02  0.15700850344E+03 -0.26488915006E+04  0.28014865047E+04  0.89707859248E+03 0.  0.
         23    2    4    4    0    0  0.35352715047E+03  0.66838800153E+01 -0.47700750423E+03  0.60108135861E+03  0.93469354389E+02 0.  0.
         23    2    4    4    0    0 -0.30558152664E+03  0.15032462342E+03 -0.21718839964E+04  0.22004051461E+04  0.93408518981E+02 0.  0.
          4    1    3    3  502    0  0.10536808491E+02 -0.72162664642E+00  0.25161143057E+02  0.27287876395E+02  0.00000000000E+00 0. -1.
         -3    1    3    3    0  502 -0.58482432317E+02 -0.15628687679E+03  0.10620514756E+03  0.19780120353E+03  0.00000000000E+00 0.  1.
         11    1    5    5    0    0  0.35038075152E+03 -0.13305553918E+01 -0.47772253894E+03  0.59244178247E+03  0.00000000000E+00 0.  1.
        -11    1    5    5    0    0  0.31463989525E+01  0.80144354071E+01  0.71503470682E+00  0.86395761409E+01  0.00000000000E+00 0. -1.
          1    1    6    6  503    0 -0.99871618720E+01 -0.12036028011E+02 -0.80749746486E+02  0.82250415987E+02  0.00000000000E+00 0. -1.
         -1    1    6    6    0  503 -0.29559436477E+03  0.16236065143E+03 -0.20911342499E+04  0.21181547301E+04  0.00000000000E+00 0.  1.
<mgrwt>
<rscale>  0 0.16799484E+04</rscale>
<asrwt>0</asrwt>
<pdfrwt beam="1">  1        2 0.42646925E+00 0.16799484E+04</pdfrwt>
<pdfrwt beam="2">  1       -1 0.39157725E-01 0.16799484E+04</pdfrwt>
<totfact> 0.16576621E+01</totfact>
</mgrwt>
</event>
<event>
12    6  0.1540825E-007  0.1675433E+04  0.7818608E-02  0.8775501E-01
          2   -1    0    0  501    0  0.00000000000E+00  0.00000000000E+00  0.31136825471E+04  0.31136825471E+04  0.00000000000E+00 0. -1.
         -1   -1    0    0    0  501 -0.00000000000E+00 -0.00000000000E+00 -0.22538231265E+03  0.22538231265E+03  0.00000000000E+00 0.  1.
         24    2    1    2    0    0 -0.21219585009E+03 -0.49137689976E+03  0.51802906726E+03  0.74872933378E+03  0.75915507756E+02 0.  0.
        254    2    1    2    0    0  0.21219585009E+03  0.49137689976E+03  0.23702711672E+04  0.25903355259E+04  0.89731510332E+03 0.  0.
         23    2    4    4    0    0  0.18751019273E+03 -0.19683739827E+03  0.11601825962E+04  0.11950247100E+04  0.90307072479E+02 0.  0.
         23    2    4    4    0    0  0.24685657356E+02  0.68821429803E+03  0.12100885710E+04  0.13953108159E+04  0.91266761258E+02 0.  0.
          2    1    3    3  502    0 -0.70245465254E+02 -0.23398693755E+03  0.20060061233E+03  0.31610902866E+03  0.00000000000E+00 0. -1.
         -1    1    3    3    0  502 -0.14195038483E+03 -0.25738996222E+03  0.31742845493E+03  0.43262030512E+03  0.00000000000E+00 0.  1.
         11    1    5    5    0    0  0.16786222905E+03 -0.16775721973E+03  0.11004165681E+04  0.11257161437E+04  0.00000000000E+00 0. -1.
        -11    1    5    5    0    0  0.19647963680E+02 -0.29080178531E+02  0.59766028086E+02  0.69308566378E+02  0.00000000000E+00 0.  1.
          2    1    6    6  503    0  0.16115757195E+02  0.48836395043E+03  0.77090009241E+03  0.91271354662E+03  0.00000000000E+00 0. -1.
         -2    1    6    6    0  503  0.85699001612E+01  0.19985034760E+03  0.43918847856E+03  0.48259726929E+03  0.00000000000E+00 0.  1.
<mgrwt>
<rscale>  0 0.16754330E+04</rscale>
<asrwt>0</asrwt>
<pdfrwt beam="1">  1        2 0.47902805E+00 0.16754330E+04</pdfrwt>
<pdfrwt beam="2">  1       -1 0.34674204E-01 0.16754330E+04</pdfrwt>
<totfact> 0.12710556E+01</totfact>
</mgrwt>
</event>
<event>
12    6  0.1540825E-007  0.1285664E+04  0.7818608E-02  0.9041011E-01
          2   -1    0    0  501    0  0.00000000000E+00  0.00000000000E+00  0.17249800647E+04  0.17249800647E+04  0.00000000000E+00 0. -1.
         -1   -1    0    0    0  501 -0.00000000000E+00 -0.00000000000E+00 -0.23955818453E+03  0.23955818453E+03  0.00000000000E+00 0.  1.
         24    2    1    2    0    0 -0.31581469215E+03  0.39318861959E+02  0.47695895413E+03  0.58005343529E+03  0.87676970681E+02 0.  0.
        254    2    1    2    0    0  0.31581469215E+03 -0.39318861959E+02  0.10084629260E+04  0.13844848139E+04  0.89359713187E+03 0.  0.
         23    2    4    4    0    0  0.17192312673E+03 -0.36045823553E+03  0.92606946193E+03  0.10125705778E+04  0.90591532013E+02 0.  0.
         23    2    4    4    0    0  0.14389156542E+03  0.32113937357E+03  0.82393464077E+02  0.37191423608E+03  0.87728195112E+02 0.  0.
          4    1    3    3  502    0 -0.29690179222E+03  0.38497485978E+02  0.47437168670E+03  0.56094672455E+03  0.00000000000E+00 0. -1.
         -3    1    3    3    0  502 -0.18912899940E+02  0.82137598136E+00  0.25872674319E+01  0.19106710742E+02  0.00000000000E+00 0.  1.
         11    1    5    5    0    0  0.29294681304E+01  0.46311866007E+01  0.47754808428E+01  0.72687612520E+01  0.00000000000E+00 0.  1.
        -11    1    5    5    0    0  0.16899365860E+03 -0.36508942213E+03  0.92129398109E+03  0.10053018166E+04  0.00000000000E+00 0. -1.
          2    1    6    6  503    0  0.53527229355E+02  0.12327796988E+03  0.75789805866E+02  0.15429425398E+03  0.00000000000E+00 0.  1.
         -2    1    6    6    0  503  0.90364336069E+02  0.19786140369E+03  0.66036582111E+01  0.21761998209E+03  0.00000000000E+00 0. -1.
<mgrwt>
<rscale>  0 0.12856642E+04</rscale>
<asrwt>0</asrwt>
<pdfrwt beam="1">  1        2 0.26538154E+00 0.12856642E+04</pdfrwt>
<pdfrwt beam="2">  1       -1 0.36855106E-01 0.12856642E+04</pdfrwt>
<totfact> 0.75056731E+01</totfact>
</mgrwt>
</event>
<event>
12    6  0.1540825E-007  0.1268145E+04  0.7818608E-02  0.9055215E-01
         -1   -1    0    0    0  501 -0.00000000000E+00  0.00000000000E+00  0.21060102310E+03  0.21060102310E+03  0.00000000000E+00 0.  1.
          2   -1    0    0  501    0  0.00000000000E+00 -0.00000000000E+00 -0.19090493812E+04  0.19090493812E+04  0.00000000000E+00 0. -1.
         24    2    1    2    0    0  0.99659936988E+02  0.24934680107E+03 -0.17226218489E+03  0.32855486655E+03  0.78537314361E+02 0.  0.
        254    2    1    2    0    0 -0.99659936988E+02 -0.24934680107E+03 -0.15261861732E+04  0.17910955378E+04  0.89814979807E+03 0.  0.
         23    2    4    4    0    0 -0.49124543897E+03 -0.11193206630E+03 -0.83018269923E+03  0.97557890606E+03  0.93273892790E+02 0.  0.
         23    2    4    4    0    0  0.39158550198E+03 -0.13741473478E+03 -0.69600347400E+03  0.81551663170E+03  0.91785216970E+02 0.  0.
          4    1    3    3  502    0 -0.45201469914E+01  0.84644355945E+02 -0.47740755510E+02  0.97284523223E+02  0.00000000000E+00 0. -1.
         -3    1    3    3    0  502  0.10418008398E+03  0.16470244513E+03 -0.12452142938E+03  0.23127034333E+03  0.00000000000E+00 0.  1.
         11    1    5    5    0    0 -0.49027832798E+03 -0.11063444552E+03 -0.83267633614E+03  0.97260613826E+03  0.00000000000E+00 0. -1.
        -11    1    5    5    0    0 -0.96711098598E+00 -0.12976207788E+01  0.24936369078E+01  0.29727677966E+01  0.00000000000E+00 0.  1.
          2    1    6    6  503    0  0.37868903563E+03 -0.14550231507E+03 -0.64221831674E+03  0.75961877001E+03  0.00000000000E+00 0. -1.
         -2    1    6    6    0  503  0.12896466357E+02  0.80875802968E+01 -0.53785157256E+02  0.55897861682E+02  0.00000000000E+00 0.  1.
<mgrwt>
<rscale>  0 0.12681447E+04</rscale>
<asrwt>0</asrwt>
<pdfrwt beam="1">  1        2 0.29369990E+00 0.12681447E+04</pdfrwt>
<pdfrwt beam="2">  1       -1 0.32400157E-01 0.12681447E+04</pdfrwt>
<totfact> 0.74850153E+01</totfact>
</mgrwt>
</event>
<event>
12    6  0.1540825E-007  0.2722704E+04  0.7818608E-02  0.8327676E-01
         -1   -1    0    0    0  501 -0.00000000000E+00  0.00000000000E+00  0.50027107022E+03  0.50027107022E+03  0.00000000000E+00 0.  1.
          2   -1    0    0  501    0  0.00000000000E+00 -0.00000000000E+00 -0.37045502282E+04  0.37045502282E+04  0.00000000000E+00 0. -1.
         24    2    1    2    0    0  0.48072404579E+03  0.57933401386E+03 -0.28933281169E+04  0.29906398978E+04  0.76523841023E+02 0.  0.
        254    2    1    2    0    0 -0.48072404579E+03 -0.57933401386E+03 -0.31095104101E+03  0.12141814006E+04  0.90045678175E+03 0.  0.
         23    2    4    4    0    0  0.32056863127E+01 -0.64255543544E+03 -0.51936797454E+02  0.65243416916E+03  0.10042484816E+03 0.  0.
         23    2    4    4    0    0 -0.48392973210E+03  0.63221421577E+02 -0.25901424356E+03  0.56174723142E+03  0.10142307372E+03 0.  0.
          4    1    3    3  502    0  0.48339068305E+03  0.57596539656E+03 -0.28671019209E+04  0.29640641214E+04  0.00000000000E+00 0. -1.
         -3    1    3    3    0  502 -0.26666372602E+01  0.33686172958E+01 -0.26226195992E+02  0.26575776433E+02  0.00000000000E+00 0.  1.
         11    1    5    5    0    0 -0.17100049865E+02 -0.20144331437E+03  0.26649123528E+02  0.20391664080E+03  0.00000000000E+00 0.  1.
        -11    1    5    5    0    0  0.20305736178E+02 -0.44111212107E+03 -0.78585920982E+02  0.44851752836E+03  0.00000000000E+00 0. -1.
          1    1    6    6  503    0 -0.72025075970E+02 -0.20043955121E+02 -0.16522737196E+02  0.76566131872E+02  0.00000000000E+00 0. -1.
         -1    1    6    6    0  503 -0.41190465613E+03  0.83265376698E+02 -0.24249150636E+03  0.48518109955E+03  0.00000000000E+00 0.  1.
<mgrwt>
<rscale>  0 0.27227040E+04</rscale>
<asrwt>0</asrwt>
<pdfrwt beam="1">  1        2 0.56993084E+00 0.27227040E+04</pdfrwt>
<pdfrwt beam="2">  1       -1 0.76964775E-01 0.27227040E+04</pdfrwt>
<totfact> 0.97671276E-01</totfact>
</mgrwt>
</event>
<event>
12    6  0.1540825E-007  0.1219388E+04  0.7818608E-02  0.9096053E-01
          2   -1    0    0  501    0  0.00000000000E+00  0.00000000000E+00  0.19902466709E+04  0.19902466709E+04  0.00000000000E+00 0. -1.
         -1   -1    0    0    0  501 -0.00000000000E+00 -0.00000000000E+00 -0.18677433645E+03  0.18677433645E+03  0.00000000000E+00 0.  1.
         24    2    1    2    0    0  0.24455165052E+03  0.10152747303E+03  0.34539235565E+03  0.44300591397E+03  0.82734653710E+02 0.  0.
        254    2    1    2    0    0 -0.24455165052E+03 -0.10152747303E+03  0.14580799788E+04  0.17340150934E+04  0.90038757318E+03 0.  0.
         23    2    4    4    0    0  0.48026455913E+02 -0.35523658312E+03  0.21080571061E+03  0.42488361574E+03  0.87106078114E+02 0.  0.
         23    2    4    4    0    0 -0.29257810643E+03  0.25370911009E+03  0.12472742682E+04  0.13091314777E+04  0.90343039239E+02 0.  0.
          2    1    3    3  502    0  0.46827468740E+02  0.56903665498E+02  0.10950447053E+03  0.13199268177E+03  0.00000000000E+00 0. -1.
         -1    1    3    3    0  502  0.19772418178E+03  0.44623807533E+02  0.23588788512E+03  0.31101323220E+03  0.00000000000E+00 0.  1.
         11    1    5    5    0    0  0.23602452571E+02 -0.33610147973E+03  0.20106864591E+03  0.39236447446E+03  0.00000000000E+00 0.  1.
        -11    1    5    5    0    0  0.24424003342E+02 -0.19135103386E+02  0.97370646933E+01  0.32519141282E+02  0.00000000000E+00 0. -1.
          4    1    6    6  503    0 -0.81251450287E+02  0.27618124501E+02  0.21603362750E+03  0.23245448412E+03  0.00000000000E+00 0. -1.
         -4    1    6    6    0  503 -0.21132665614E+03  0.22609098559E+03  0.10312406407E+04  0.10766769935E+04  0.00000000000E+00 0.  1.
<mgrwt>
<rscale>  0 0.12193884E+04</rscale>
<asrwt>0</asrwt>
<pdfrwt beam="1">  1        2 0.30619178E+00 0.12193884E+04</pdfrwt>
<pdfrwt beam="2">  1       -1 0.28734515E-01 0.12193884E+04</pdfrwt>
<totfact> 0.83678065E+01</totfact>
</mgrwt>
</event>
<event>
12    6  0.1540825E-007  0.1128011E+04  0.7818608E-02  0.9178312E-01
          2   -1    0    0  501    0  0.00000000000E+00  0.00000000000E+00  0.66419300372E+03  0.66419300372E+03  0.00000000000E+00 0. -1.
         -1   -1    0    0    0  501 -0.00000000000E+00 -0.00000000000E+00 -0.47893057339E+03  0.47893057339E+03  0.00000000000E+00 0.  1.
         24    2    1    2    0    0 -0.21121136047E+03 -0.21127352099E+02  0.17084501004E+03  0.28369242186E+03  0.78973216750E+02 0.  0.
        254    2    1    2    0    0  0.21121136047E+03  0.21127352099E+02  0.14417420285E+02  0.85943115525E+03  0.83268087814E+03 0.  0.
         23    2    4    4    0    0  0.19657694523E+03  0.77537507188E+01 -0.38963860439E+03  0.44634260004E+03  0.93278392642E+02 0.  0.
         23    2    4    4    0    0  0.14634415240E+02  0.13373601380E+02  0.40405602468E+03  0.41308855521E+03  0.83593444966E+02 0.  0.
          2    1    3    3  502    0 -0.74116899390E+02  0.25840512597E+02  0.82965817896E+02  0.11421196875E+03  0.00000000000E+00 0. -1.
         -1    1    3    3    0  502 -0.13709446108E+03 -0.46967864696E+02  0.87879192147E+02  0.16948045311E+03  0.00000000000E+00 0.  1.
         11    1    5    5    0    0  0.17136247764E+03  0.11911743063E+02 -0.38327380582E+03  0.42000690303E+03  0.00000000000E+00 0.  1.
        -11    1    5    5    0    0  0.25214467590E+02 -0.41579923442E+01 -0.63647985707E+01  0.26335697010E+02  0.00000000000E+00 0. -1.
          3    1    6    6  503    0 -0.16734971425E+02  0.28364323673E+02  0.71499364668E+02  0.78719459309E+02  0.00000000000E+00 0. -1.
         -3    1    6    6    0  503  0.31369386665E+02 -0.14990722293E+02  0.33255666001E+03  0.33436909590E+03  0.00000000000E+00 0.  1.
<mgrwt>
<rscale>  0 0.11280112E+04</rscale>
<asrwt>0</asrwt>
<pdfrwt beam="1">  1        2 0.10218354E+00 0.11280112E+04</pdfrwt>
<pdfrwt beam="2">  1       -1 0.73681627E-01 0.11280112E+04</pdfrwt>
<totfact> 0.92000082E+01</totfact>
</mgrwt>
</event>
<event>
12    6  0.1540825E-007  0.2001754E+04  0.7818608E-02  0.8605801E-01
         -1   -1    0    0    0  501 -0.00000000000E+00  0.00000000000E+00  0.18991519016E+04  0.18991519016E+04  0.00000000000E+00 0.  1.
          2   -1    0    0  501    0  0.00000000000E+00 -0.00000000000E+00 -0.52747462588E+03  0.52747462588E+03  0.00000000000E+00 0. -1.
         24    2    1    2    0    0  0.25126823180E+03 -0.38011780864E+03 -0.24171253402E+03  0.52197189765E+03  0.80027745678E+02 0.  0.
        254    2    1    2    0    0 -0.25126823180E+03  0.38011780864E+03  0.16133898097E+04  0.19046546298E+04  0.90391222359E+03 0.  0.
         23    2    4    4    0    0 -0.22600428347E+03  0.62475335055E+02  0.15427667687E+04  0.15631278999E+04  0.90875878726E+02 0.  0.
         23    2    4    4    0    0 -0.25263948326E+02  0.31764247358E+03  0.70623041003E+02  0.34152672984E+03  0.10058769888E+03 0.  0.
          2    1    3    3  502    0  0.23274355411E+03 -0.37801030107E+03 -0.23010508757E+03  0.50000970093E+03  0.00000000000E+00 0. -1.
         -3    1    3    3    0  502  0.18524677691E+02 -0.21075075632E+01 -0.11607446455E+02  0.21962196723E+02  0.00000000000E+00 0.  1.
         11    1    5    5    0    0 -0.20413005240E+03  0.37255360162E+02  0.11210785697E+04  0.11401202566E+04  0.00000000000E+00 0. -1.
        -11    1    5    5    0    0 -0.21874231077E+02  0.25219974893E+02  0.42168819904E+03  0.42300764335E+03  0.00000000000E+00 0.  1.
          2    1    6    6  503    0  0.18388697894E+02  0.26116522158E+03  0.44792125687E+02  0.26561579715E+03  0.00000000000E+00 0. -1.
         -2    1    6    6    0  503 -0.43652646220E+02  0.56477252005E+02  0.25830915316E+02  0.75910932692E+02  0.00000000000E+00 0.  1.
<mgrwt>
<rscale>  0 0.20017537E+04</rscale>
<asrwt>0</asrwt>
<pdfrwt beam="1">  1        2 0.81149943E-01 0.20017537E+04</pdfrwt>
<pdfrwt beam="2">  1       -1 0.29217721E+00 0.20017537E+04</pdfrwt>
<totfact> 0.22791354E+00</totfact>
</mgrwt>
</event>
<event>
12    6  0.1540825E-007  0.2118837E+04  0.7818608E-02  0.8552991E-01
         -1   -1    0    0    0  501 -0.00000000000E+00  0.00000000000E+00  0.56603635236E+03  0.56603635236E+03  0.00000000000E+00 0.  1.
          2   -1    0    0  501    0  0.00000000000E+00 -0.00000000000E+00 -0.19828545630E+04  0.19828545630E+04  0.00000000000E+00 0. -1.
         24    2    1    2    0    0 -0.20999186733E+03 -0.14251129063E+03  0.41421473839E+03  0.49244403934E+03  0.80754133544E+02 0.  0.
        254    2    1    2    0    0  0.20999186733E+03  0.14251129063E+03 -0.18310329491E+04  0.20564468761E+04  0.90104719142E+03 0.  0.
         23    2    4    4    0    0 -0.33811817468E+03  0.12136935438E+03 -0.60601378089E+03  0.71112770786E+03  0.96930356592E+02 0.  0.
         23    2    4    4    0    0  0.54811004201E+03  0.21141936258E+02 -0.12250191682E+04  0.13453191682E+04  0.91324160461E+02 0.  0.
          2    1    3    3  502    0 -0.38119344632E+01  0.88231919846E+01  0.84317258799E+01  0.12785678021E+02  0.00000000000E+00 0. -1.
         -1    1    3    3    0  502 -0.20617993286E+03 -0.15133448262E+03  0.40578301251E+03  0.47965836132E+03  0.00000000000E+00 0.  1.
         11    1    5    5    0    0 -0.27546749557E+03  0.13572774826E+03 -0.51714936356E+03  0.60145475889E+03  0.00000000000E+00 0. -1.
        -11    1    5    5    0    0 -0.62650679112E+02 -0.14358393889E+02 -0.88864417332E+02  0.10967294897E+03  0.00000000000E+00 0.  1.
          3    1    6    6  503    0  0.52029176071E+03  0.28366054882E+02 -0.11018959429E+04  0.12188858922E+04  0.00000000000E+00 0. -1.
         -3    1    6    6    0  503  0.27818281299E+02 -0.72241186237E+01 -0.12312322528E+03  0.12643327595E+03  0.00000000000E+00 0.  1.
<mgrwt>
<rscale>  0 0.21188372E+04</rscale>
<asrwt>0</asrwt>
<pdfrwt beam="1">  1        2 0.30505454E+00 0.21188372E+04</pdfrwt>
<pdfrwt beam="2">  1       -1 0.87082517E-01 0.21188372E+04</pdfrwt>
<totfact> 0.92903112E+00</totfact>
</mgrwt>
</event>
<event>
12    6  0.1540825E-007  0.1656959E+04  0.7818608E-02  0.8786300E-01
          2   -1    0    0  501    0  0.00000000000E+00  0.00000000000E+00  0.83107905423E+03  0.83107905423E+03  0.00000000000E+00 0. -1.
         -1   -1    0    0    0  501 -0.00000000000E+00 -0.00000000000E+00 -0.82588799905E+03  0.82588799905E+03  0.00000000000E+00 0.  1.
         24    2    1    2    0    0  0.41967556751E+03 -0.19477962165E+02  0.40809525713E+03  0.59144957126E+03  0.82242832418E+02 0.  0.
        254    2    1    2    0    0 -0.41967556751E+03  0.19477962165E+02 -0.40290420194E+03  0.10655174820E+04  0.89246217599E+03 0.  0.
         23    2    4    4    0    0  0.12813441398E+03 -0.12806103259E+03 -0.44501410457E+03  0.48907019745E+03  0.91291010779E+02 0.  0.
         23    2    4    4    0    0 -0.54780998148E+03  0.14753899475E+03  0.42109902628E+02  0.57644728458E+03  0.93030625110E+02 0.  0.
          4    1    3    3  502    0  0.29404378981E+03 -0.89036376734E+00  0.33158964437E+03  0.44318645662E+03  0.00000000000E+00 0. -1.
         -3    1    3    3    0  502  0.12563177769E+03 -0.18587598398E+02  0.76505612753E+02  0.14826311464E+03  0.00000000000E+00 0.  1.
         11    1    5    5    0    0  0.66975557169E+02 -0.99747334303E+02 -0.36601078755E+03  0.38522610577E+03  0.00000000000E+00 0. -1.
        -11    1    5    5    0    0  0.61158856810E+02 -0.28313698284E+02 -0.79003317018E+02  0.10384409168E+03  0.00000000000E+00 0.  1.
          2    1    6    6  503    0 -0.33040882058E+03  0.11047386589E+03  0.66115543572E+02  0.35460644222E+03  0.00000000000E+00 0. -1.
         -2    1    6    6    0  503 -0.21740116090E+03  0.37065128865E+02 -0.24005640944E+02  0.22184084236E+03  0.00000000000E+00 0.  1.
<mgrwt>
<rscale>  0 0.16569589E+04</rscale>
<asrwt>0</asrwt>
<pdfrwt beam="1">  1        2 0.12785832E+00 0.16569589E+04</pdfrwt>
<pdfrwt beam="2">  1       -1 0.12705969E+00 0.16569589E+04</pdfrwt>
<totfact> 0.19164797E+01</totfact>
</mgrwt>
</event>
<event>
12    6  0.1540825E-007  0.1607566E+04  0.7818608E-02  0.8815913E-01
          2   -1    0    0  501    0  0.00000000000E+00  0.00000000000E+00  0.12254370473E+04  0.12254370473E+04  0.00000000000E+00 0. -1.
         -1   -1    0    0    0  501 -0.00000000000E+00 -0.00000000000E+00 -0.52721395087E+03  0.52721395087E+03  0.00000000000E+00 0.  1.
         24    2    1    2    0    0  0.51782950909E+02  0.48131477098E+03  0.53133912971E+03  0.72323273876E+03  0.79993380212E+02 0.  0.
        254    2    1    2    0    0 -0.51782950909E+02 -0.48131477098E+03  0.16688396671E+03  0.10294182594E+04  0.89303208884E+03 0.  0.
         23    2    4    4    0    0 -0.30973681202E+03  0.10072922942E+02 -0.17819920476E+03  0.36939759366E+03  0.93065939649E+02 0.  0.
         23    2    4    4    0    0  0.25795386112E+03 -0.49138769393E+03  0.34508317147E+03  0.66002066575E+03  0.92427397352E+02 0.  0.
          4    1    3    3  502    0  0.19217968648E+02  0.26651829371E+03  0.34936660820E+03  0.43983901387E+03  0.00000000000E+00 0. -1.
         -3    1    3    3    0  502  0.32564982261E+02  0.21479647727E+03  0.18197252152E+03  0.28339372489E+03  0.00000000000E+00 0.  1.
         11    1    5    5    0    0 -0.12309721035E+01 -0.13543403614E+02 -0.12211180866E+02  0.18277089810E+02  0.00000000000E+00 0. -1.
        -11    1    5    5    0    0 -0.30850583992E+03  0.23616326557E+02 -0.16598802389E+03  0.35112050385E+03  0.00000000000E+00 0.  1.
          3    1    6    6  503    0 -0.31693121831E+01 -0.46456047717E+02  0.24278617671E+02  0.52513428618E+02  0.00000000000E+00 0. -1.
         -3    1    6    6    0  503  0.26112317330E+03 -0.44493164621E+03  0.32080455380E+03  0.60750723713E+03  0.00000000000E+00 0.  1.
<mgrwt>
<rscale>  0 0.16075665E+04</rscale>
<asrwt>0</asrwt>
<pdfrwt beam="1">  1        2 0.18852878E+00 0.16075665E+04</pdfrwt>
<pdfrwt beam="2">  1       -1 0.81109839E-01 0.16075665E+04</pdfrwt>
<totfact> 0.30275849E+01</totfact>
</mgrwt>
</event>
<event>
12    6  0.1540825E-007  0.1278153E+04  0.7818608E-02  0.9047072E-01
          2   -1    0    0  501    0  0.00000000000E+00  0.00000000000E+00  0.11449152537E+04  0.11449152537E+04  0.00000000000E+00 0. -1.
         -1   -1    0    0    0  501 -0.00000000000E+00 -0.00000000000E+00 -0.35672407024E+03  0.35672407024E+03  0.00000000000E+00 0.  1.
         24    2    1    2    0    0  0.13166632185E+03 -0.21507036516E+03 -0.28299812430E+02  0.26524644990E+03  0.77223814472E+02 0.  0.
        254    2    1    2    0    0 -0.13166632185E+03  0.21507036516E+03  0.81649099586E+03  0.12363928740E+04  0.89354267402E+03 0.  0.
         23    2    4    4    0    0  0.15060346918E+03  0.48324884395E+03  0.35755166698E+03  0.62638665655E+03  0.91138349962E+02 0.  0.
         23    2    4    4    0    0 -0.28226979102E+03 -0.26817847880E+03  0.45893932888E+03  0.61000621745E+03  0.99430107755E+02 0.  0.
          4    1    3    3  502    0  0.84334921348E+02 -0.76032689893E+02  0.83947550564E+01  0.11385877570E+03  0.00000000000E+00 0. -1.
         -3    1    3    3    0  502  0.47331400500E+02 -0.13903767526E+03 -0.36694567486E+02  0.15138767420E+03  0.00000000000E+00 0.  1.
         11    1    5    5    0    0  0.45257644051E+02  0.20660373511E+03  0.99766047012E+02  0.23385170908E+03  0.00000000000E+00 0.  1.
        -11    1    5    5    0    0  0.10534582512E+03  0.27664510884E+03  0.25778561997E+03  0.39253494746E+03  0.00000000000E+00 0. -1.
          4    1    6    6  503    0 -0.46031169032E+02 -0.53872231683E+02  0.33772204867E+02  0.78496163541E+02  0.00000000000E+00 0. -1.
         -4    1    6    6    0  503 -0.23623862199E+03 -0.21430624711E+03  0.42516712401E+03  0.53151005391E+03  0.00000000000E+00 0.  1.
<mgrwt>
<rscale>  0 0.12781531E+04</rscale>
<asrwt>0</asrwt>
<pdfrwt beam="1">  1        2 0.17614081E+00 0.12781531E+04</pdfrwt>
<pdfrwt beam="2">  1       -1 0.54880627E-01 0.12781531E+04</pdfrwt>
<totfact> 0.76781654E+01</totfact>
</mgrwt>
</event>
<event>
12    6  0.1540825E-007  0.2123236E+04  0.7818608E-02  0.8551076E-01
         -1   -1    0    0    0  501 -0.00000000000E+00  0.00000000000E+00  0.33787165178E+03  0.33787165178E+03  0.00000000000E+00 0.  1.
          2   -1    0    0  501    0  0.00000000000E+00 -0.00000000000E+00 -0.33356831047E+04  0.33356831047E+04  0.00000000000E+00 0. -1.
         24    2    1    2    0    0  0.39117002923E+03  0.77599552719E+03 -0.10435815931E+04  0.13603893862E+04  0.80085521062E+02 0.  0.
        254    2    1    2    0    0 -0.39117002923E+03 -0.77599552719E+03 -0.19542298598E+04  0.23131653703E+04  0.88121316109E+03 0.  0.
         23    2    4    4    0    0 -0.40816345029E+03 -0.84606634982E+02 -0.12551342847E+04  0.13255654528E+04  0.89476321431E+02 0.  0.
         23    2    4    4    0    0  0.16993421065E+02 -0.69138889220E+03 -0.69909557510E+03  0.98759991750E+03  0.91167961992E+02 0.  0.
          4    1    3    3  502    0  0.17602184894E+03  0.39077673917E+03 -0.45908832401E+03  0.62805432920E+03  0.00000000000E+00 0. -1.
         -3    1    3    3    0  502  0.21514818029E+03  0.38521878802E+03 -0.58449326912E+03  0.73233505704E+03  0.00000000000E+00 0.  1.
         11    1    5    5    0    0 -0.35452810567E+03 -0.65960668150E+02 -0.97071218569E+03  0.10355303641E+04  0.00000000000E+00 0. -1.
        -11    1    5    5    0    0 -0.53635344624E+02 -0.18645966832E+02 -0.28442209903E+03  0.29003508872E+03  0.00000000000E+00 0.  1.
          3    1    6    6  503    0  0.49490652007E+02 -0.45342070515E+03 -0.42900499624E+03  0.62616686857E+03  0.00000000000E+00 0. -1.
         -3    1    6    6    0  503 -0.32497230941E+02 -0.23796818705E+03 -0.27009057886E+03  0.36143304893E+03  0.00000000000E+00 0.  1.
<mgrwt>
<rscale>  0 0.21232360E+04</rscale>
<asrwt>0</asrwt>
<pdfrwt beam="1">  1        2 0.51318201E+00 0.21232360E+04</pdfrwt>
<pdfrwt beam="2">  1       -1 0.51980254E-01 0.21232360E+04</pdfrwt>
<totfact> 0.41251285E+00</totfact>
</mgrwt>
</event>
<event>
12    6  0.1540825E-007  0.1181119E+04  0.7818608E-02  0.9129545E-01
         -3   -1    0    0    0  501 -0.00000000000E+00  0.00000000000E+00  0.12862210819E+03  0.12862210819E+03  0.00000000000E+00 0.  1.
          2   -1    0    0  501    0  0.00000000000E+00 -0.00000000000E+00 -0.27115132308E+04  0.27115132308E+04  0.00000000000E+00 0. -1.
         24    2    1    2    0    0  0.45848440906E+02 -0.20326969597E+03 -0.15644234781E+03  0.27210619017E+03  0.78402306782E+02 0.  0.
        254    2    1    2    0    0 -0.45848440906E+02  0.20326969597E+03 -0.24264487748E+04  0.25680291488E+04  0.81467748441E+03 0.  0.
         23    2    4    4    0    0  0.17933703950E+03  0.43522588776E+03 -0.17182528208E+04  0.17841167286E+04  0.95375039705E+02 0.  0.
         23    2    4    4    0    0 -0.22518548041E+03 -0.23195619179E+03 -0.70819595404E+03  0.78391242019E+03  0.92005422187E+02 0.  0.
          4    1    3    3  502    0 -0.14896166703E+02 -0.18900671083E+02 -0.37148623706E+02  0.44262302166E+02  0.00000000000E+00 0. -1.
         -3    1    3    3    0  502  0.60744607609E+02 -0.18436902488E+03 -0.11929372411E+03  0.22784388801E+03  0.00000000000E+00 0.  1.
         11    1    5    5    0    0  0.39509130551E+02  0.11665871236E+03 -0.31110903362E+03  0.33460283527E+03  0.00000000000E+00 0. -1.
        -11    1    5    5    0    0  0.13982790895E+03  0.31856717540E+03 -0.14071437871E+04  0.14495138934E+04  0.00000000000E+00 0.  1.
          3    1    6    6  503    0 -0.14695746879E+02 -0.66110027090E+02 -0.15916159246E+03  0.17297084486E+03  0.00000000000E+00 0. -1.
         -3    1    6    6    0  503 -0.21048973353E+03 -0.16584616470E+03 -0.54903436158E+03  0.61094157533E+03  0.00000000000E+00 0.  1.
<mgrwt>
<rscale>  0 0.11811190E+04</rscale>
<asrwt>0</asrwt>
<pdfrwt beam="1">  1        2 0.41715589E+00 0.11811190E+04</pdfrwt>
<pdfrwt beam="2">  1       -3 0.19788016E-01 0.11811190E+04</pdfrwt>
<totfact> 0.39822180E+01</totfact>
</mgrwt>
</event>
<event>
12    6  0.1540825E-007  0.1364823E+04  0.7818608E-02  0.8979683E-01
         -1   -1    0    0    0  501 -0.00000000000E+00  0.00000000000E+00  0.70805693113E+03  0.70805693113E+03  0.00000000000E+00 0.  1.
          2   -1    0    0  501    0  0.00000000000E+00 -0.00000000000E+00 -0.65769463277E+03  0.65769463277E+03  0.00000000000E+00 0. -1.
         24    2    1    2    0    0 -0.26958577309E+02 -0.91388792083E+02 -0.37834767269E+03  0.39812597496E+03  0.79237959930E+02 0.  0.
        254    2    1    2    0    0  0.26958577309E+02  0.91388792083E+02  0.42870997105E+03  0.96762558895E+03  0.86222292065E+03 0.  0.
         23    2    4    4    0    0  0.21458535368E+03 -0.16811739031E+03 -0.13151423329E+03  0.31595987946E+03  0.90688041811E+02 0.  0.
         23    2    4    4    0    0 -0.18762677638E+03  0.25950618240E+03  0.56022420434E+03  0.65166570949E+03  0.90938286112E+02 0.  0.
          2    1    3    3  502    0 -0.17626115184E+02 -0.87837640143E+02 -0.37763381270E+03  0.38811522446E+03  0.00000000000E+00 0. -1.
         -3    1    3    3    0  502 -0.93324621251E+01 -0.35511519402E+01 -0.71385999205E+00  0.10010750497E+02  0.00000000000E+00 0.  1.
         11    1    5    5    0    0  0.54797217258E+02  0.80961220707E-01 -0.32552762773E+02  0.63737147239E+02  0.00000000000E+00 0. -1.
        -11    1    5    5    0    0  0.15978813643E+03 -0.16819835153E+03 -0.98961470519E+02  0.25222273222E+03  0.00000000000E+00 0.  1.
          1    1    6    6  503    0 -0.17030428403E+03  0.19675318591E+03  0.49654277502E+03  0.56059797783E+03  0.00000000000E+00 0.  1.
         -1    1    6    6    0  503 -0.17322492342E+02  0.62752996484E+02  0.63681429320E+02  0.91067731656E+02  0.00000000000E+00 0. -1.
<mgrwt>
<rscale>  0 0.13648227E+04</rscale>
<asrwt>0</asrwt>
<pdfrwt beam="1">  1        2 0.10118379E+00 0.13648227E+04</pdfrwt>
<pdfrwt beam="2">  1       -1 0.10893183E+00 0.13648227E+04</pdfrwt>
<totfact> 0.38594395E+01</totfact>
</mgrwt>
</event>
<event>
12    6  0.1540825E-007  0.1305868E+04  0.7818608E-02  0.9024925E-01
         -1   -1    0    0    0  501 -0.00000000000E+00  0.00000000000E+00  0.27510533456E+03  0.27510533456E+03  0.00000000000E+00 0.  1.
          2   -1    0    0  501    0  0.00000000000E+00 -0.00000000000E+00 -0.15496712062E+04  0.15496712062E+04  0.00000000000E+00 0. -1.
         24    2    1    2    0    0 -0.32043778591E+03 -0.10261074448E+03 -0.25933377149E+03  0.43550866606E+03  0.95939843929E+02 0.  0.
        254    2    1    2    0    0  0.32043778591E+03  0.10261074448E+03 -0.10152321002E+04  0.13892678747E+04  0.88665645601E+03 0.  0.
         23    2    4    4    0    0  0.53158024934E+03 -0.19234680394E+03 -0.58408544760E+03  0.81816464524E+03  0.93073745814E+02 0.  0.
         23    2    4    4    0    0 -0.21114246343E+03  0.29495754842E+03 -0.43114665257E+03  0.57110322947E+03  0.93222140381E+02 0.  0.
          4    1    3    3  502    0 -0.41166686107E+02  0.13470438038E+02 -0.57174334075E+02  0.71729026362E+02  0.00000000000E+00 0. -1.
         -3    1    3    3    0  502 -0.27927109980E+03 -0.11608118252E+03 -0.20215943742E+03  0.36377963970E+03  0.00000000000E+00 0.  1.
         11    1    5    5    0    0  0.10460364218E+03 -0.77193319502E+02 -0.11630619160E+03  0.17443583559E+03  0.00000000000E+00 0. -1.
        -11    1    5    5    0    0  0.42697660716E+03 -0.11515348444E+03 -0.46777925600E+03  0.64372880966E+03  0.00000000000E+00 0.  1.
          1    1    6    6  503    0 -0.10867226389E+03  0.75938354906E+02 -0.16040337416E+03  0.20809982491E+03  0.00000000000E+00 0.  1.
         -1    1    6    6    0  503 -0.10247019955E+03  0.21901919351E+03 -0.27074327841E+03  0.36300340457E+03  0.00000000000E+00 0. -1.
<mgrwt>
<rscale>  0 0.13058680E+04</rscale>
<asrwt>0</asrwt>
<pdfrwt beam="1">  1        2 0.23841095E+00 0.13058680E+04</pdfrwt>
<pdfrwt beam="2">  1       -1 0.42323898E-01 0.13058680E+04</pdfrwt>
<totfact> 0.72910510E+01</totfact>
</mgrwt>
</event>
<event>
12    6  0.1540825E-007  0.2595350E+04  0.7818608E-02  0.8369782E-01
         -1   -1    0    0    0  501 -0.00000000000E+00  0.00000000000E+00  0.55995219801E+03  0.55995219801E+03  0.00000000000E+00 0.  1.
          2   -1    0    0  501    0  0.00000000000E+00 -0.00000000000E+00 -0.30073298789E+04  0.30073298789E+04  0.00000000000E+00 0. -1.
         24    2    1    2    0    0 -0.19493589692E+03  0.13994926093E+03 -0.26145012043E+04  0.26266862123E+04  0.79234529590E+02 0.  0.
        254    2    1    2    0    0  0.19493589692E+03 -0.13994926093E+03  0.16712352347E+03  0.94059586461E+03  0.89398238735E+03 0.  0.
         23    2    4    4    0    0  0.44068498599E+03 -0.19044162805E+03  0.36393172427E+03  0.60916772282E+03  0.90375572023E+02 0.  0.
         23    2    4    4    0    0 -0.24574908908E+03  0.50492367120E+02 -0.19680820080E+03  0.33142814179E+03  0.90382804511E+02 0.  0.
          2    1    3    3  502    0 -0.10556654535E+03  0.55133530490E+02 -0.16598142458E+04  0.16640815281E+04  0.00000000000E+00 0. -1.
         -1    1    3    3    0  502 -0.89369351565E+02  0.84815730443E+02 -0.95468695855E+03  0.96260468415E+03  0.00000000000E+00 0.  1.
         11    1    5    5    0    0  0.38704092016E+03 -0.17847689470E+03  0.28399914263E+03  0.51216226807E+03  0.00000000000E+00 0. -1.
        -11    1    5    5    0    0  0.53644065836E+02 -0.11964733356E+02  0.79932581644E+02  0.97005454754E+02  0.00000000000E+00 0.  1.
          4    1    6    6  503    0 -0.20139257347E+03  0.73979609057E+02 -0.17426896045E+03  0.27640843291E+03  0.00000000000E+00 0. -1.
         -4    1    6    6    0  503 -0.44356515604E+02 -0.23487241938E+02 -0.22539240353E+02  0.55019708887E+02  0.00000000000E+00 0.  1.
<mgrwt>
<rscale>  0 0.25953504E+04</rscale>
<asrwt>0</asrwt>
<pdfrwt beam="1">  1        2 0.46266614E+00 0.25953504E+04</pdfrwt>
<pdfrwt beam="2">  1       -1 0.86146490E-01 0.25953504E+04</pdfrwt>
<totfact> 0.23048088E+00</totfact>
</mgrwt>
</event>
<event>
12    6  0.1540825E-007  0.1055401E+04  0.7818608E-02  0.9249786E-01
         -1   -1    0    0    0  501 -0.00000000000E+00  0.00000000000E+00  0.50531899889E+03  0.50531899889E+03  0.00000000000E+00 0.  1.
          2   -1    0    0  501    0  0.00000000000E+00 -0.00000000000E+00 -0.55107311525E+03  0.55107311525E+03  0.00000000000E+00 0. -1.
         24    2    1    2    0    0 -0.16079758785E+02 -0.66839022665E+02 -0.12822933084E+03  0.16513293585E+03  0.78103211343E+02 0.  0.
        254    2    1    2    0    0  0.16079758785E+02  0.66839022665E+02  0.82475214486E+02  0.89125917829E+03  0.88476818901E+03 0.  0.
         23    2    4    4    0    0 -0.38401724891E+03 -0.13503473600E+03  0.11421881759E+03  0.43286511774E+03  0.92858195510E+02 0.  0.
         23    2    4    4    0    0  0.40009700770E+03  0.20187375866E+03 -0.31743603104E+02  0.45839406055E+03  0.91032018599E+02 0.  0.
          4    1    3    3  502    0 -0.26147714808E+02 -0.65598337723E+02 -0.13540097314E+03  0.15270975224E+03  0.00000000000E+00 0. -1.
         -3    1    3    3    0  502  0.10067956024E+02 -0.12406849420E+01  0.71716423050E+01  0.12423183608E+02  0.00000000000E+00 0.  1.
         11    1    5    5    0    0 -0.54271259495E+00 -0.15574942258E+02  0.12744822844E+01  0.15636421214E+02  0.00000000000E+00 0. -1.
        -11    1    5    5    0    0 -0.38347453632E+03 -0.11945979374E+03  0.11294433531E+03  0.41722869652E+03  0.00000000000E+00 0.  1.
          4    1    6    6  503    0  0.11717116559E+03  0.19312080472E+02  0.96626992910E+01  0.11914447639E+03  0.00000000000E+00 0. -1.
         -4    1    6    6    0  503  0.28292584211E+03  0.18256167819E+03 -0.41406302395E+02  0.33924958416E+03  0.00000000000E+00 0.  1.
<mgrwt>
<rscale>  0 0.10554008E+04</rscale>
<asrwt>0</asrwt>
<pdfrwt beam="1">  1        2 0.84780479E-01 0.10554008E+04</pdfrwt>
<pdfrwt beam="2">  1       -1 0.77741385E-01 0.10554008E+04</pdfrwt>
<totfact> 0.10366336E+02</totfact>
</mgrwt>
</event>
<event>
12    6  0.1540825E-007  0.1768499E+04  0.7818608E-02  0.8723233E-01
         -1   -1    0    0    0  501 -0.00000000000E+00  0.00000000000E+00  0.49852022385E+03  0.49852022385E+03  0.00000000000E+00 0.  1.
          2   -1    0    0  501    0  0.00000000000E+00 -0.00000000000E+00 -0.15684367494E+04  0.15684367494E+04  0.00000000000E+00 0. -1.
         24    2    1    2    0    0 -0.51263150452E+03 -0.10137788840E+03 -0.13125881607E+00  0.52867836679E+03  0.80201387766E+02 0.  0.
        254    2    1    2    0    0  0.51263150452E+03  0.10137788840E+03 -0.10697852668E+04  0.15382786065E+04  0.97405955595E+03 0.  0.
         23    2    4    4    0    0  0.50267330512E+03 -0.18466665295E+03 -0.11098056150E+04  0.12355583150E+04  0.90297410126E+02 0.  0.
         23    2    4    4    0    0  0.99581993942E+01  0.28604454135E+03  0.40020348267E+02  0.30272029147E+03  0.90096066635E+02 0.  0.
          2    1    3    3  502    0 -0.75696440514E+02 -0.66593371719E+01  0.27324867692E+02  0.80752376265E+02  0.00000000000E+00 0. -1.
         -1    1    3    3    0  502 -0.43693506400E+03 -0.94718551228E+02 -0.27456126508E+02  0.44792599052E+03  0.00000000000E+00 0.  1.
         11    1    5    5    0    0  0.46178738561E+03 -0.14177039180E+03 -0.96688463212E+03  0.10808387138E+04  0.00000000000E+00 0. -1.
        -11    1    5    5    0    0  0.40885919516E+02 -0.42896261156E+02 -0.14292098291E+03  0.15471960118E+03  0.00000000000E+00 0.  1.
          3    1    6    6  503    0 -0.22632072987E+02  0.16679622453E+03 -0.11666414093E+02  0.16872846963E+03  0.00000000000E+00 0. -1.
         -3    1    6    6    0  503  0.32590272381E+02  0.11924831682E+03  0.51686762360E+02  0.13399182185E+03  0.00000000000E+00 0.  1.
<mgrwt>
<rscale>  0 0.17684993E+04</rscale>
<asrwt>0</asrwt>
<pdfrwt beam="1">  1        2 0.24129796E+00 0.17684993E+04</pdfrwt>
<pdfrwt beam="2">  1       -1 0.76695419E-01 0.17684993E+04</pdfrwt>
<totfact> 0.21365974E+01</totfact>
</mgrwt>
</event>
<event>
12    6  0.1540825E-007  0.1098387E+04  0.7818608E-02  0.9206765E-01
          2   -1    0    0  501    0  0.00000000000E+00  0.00000000000E+00  0.48901741303E+03  0.48901741303E+03  0.00000000000E+00 0. -1.
         -1   -1    0    0    0  501 -0.00000000000E+00 -0.00000000000E+00 -0.61677454113E+03  0.61677454113E+03  0.00000000000E+00 0.  1.
         24    2    1    2    0    0  0.15276767271E+03  0.18630064409E+02 -0.12838796680E+03  0.21520598246E+03  0.78390712117E+02 0.  0.
        254    2    1    2    0    0 -0.15276767271E+03 -0.18630064409E+02  0.63083869838E+00  0.89058597169E+03  0.87718751353E+03 0.  0.
         23    2    4    4    0    0 -0.27447265913E+03 -0.13372040657E+03  0.36210665563E+03  0.48251077367E+03  0.92081642645E+02 0.  0.
         23    2    4    4    0    0  0.12170498642E+03  0.11509034216E+03 -0.36147581693E+03  0.40807519802E+03  0.88332952145E+02 0.  0.
          4    1    3    3  502    0 -0.73638752777E+01  0.79775603205E+01 -0.15782339143E+02  0.19155948334E+02  0.00000000000E+00 0. -1.
         -3    1    3    3    0  502  0.16013154798E+03  0.10652504089E+02 -0.11260562766E+03  0.19605003413E+03  0.00000000000E+00 0.  1.
         11    1    5    5    0    0 -0.14144363118E+02  0.13160082594E+02  0.15125746669E+02  0.24536482922E+02  0.00000000000E+00 0. -1.
        -11    1    5    5    0    0 -0.26032829601E+03 -0.14688048916E+03  0.34698090896E+03  0.45797429075E+03  0.00000000000E+00 0.  1.
          4    1    6    6  503    0  0.10096913427E+02 -0.14864183355E+02 -0.38305994285E+02  0.42311237346E+02  0.00000000000E+00 0. -1.
         -4    1    6    6    0  503  0.11160807299E+03  0.12995452551E+03 -0.32316982265E+03  0.36576396068E+03  0.00000000000E+00 0.  1.
<mgrwt>
<rscale>  0 0.10983870E+04</rscale>
<asrwt>0</asrwt>
<pdfrwt beam="1">  1        2 0.75233448E-01 0.10983870E+04</pdfrwt>
<pdfrwt beam="2">  1       -1 0.94888391E-01 0.10983870E+04</pdfrwt>
<totfact> 0.77091176E+01</totfact>
</mgrwt>
</event>
<event>
12    6  0.1540825E-007  0.1342581E+04  0.7818608E-02  0.8996463E-01
         -1   -1    0    0    0  501 -0.00000000000E+00  0.00000000000E+00  0.36866167802E+03  0.36866167802E+03  0.00000000000E+00 0.  1.
          2   -1    0    0  501    0  0.00000000000E+00 -0.00000000000E+00 -0.12223431878E+04  0.12223431878E+04  0.00000000000E+00 0. -1.
         24    2    1    2    0    0  0.15698733122E+00  0.32553487627E+03 -0.12193319195E+03  0.35603015423E+03  0.76920654589E+02 0.  0.
        254    2    1    2    0    0 -0.15698733122E+00 -0.32553487627E+03 -0.73174831778E+03  0.12349747116E+04  0.94007125117E+03 0.  0.
         23    2    4    4    0    0 -0.17177362487E+03 -0.20334119471E+03  0.15359548220E+03  0.32045270349E+03  0.90799467818E+02 0.  0.
         23    2    4    4    0    0  0.17161663754E+03 -0.12219368156E+03 -0.88534379998E+03  0.91452200806E+03  0.90184771263E+02 0.  0.
          4    1    3    3  502    0 -0.16593203739E+02  0.24465506828E+03 -0.59066382834E+02  0.25223059772E+03  0.00000000000E+00 0. -1.
         -3    1    3    3    0  502  0.16750191070E+02  0.80879807999E+02 -0.62866809119E+02  0.10379955651E+03  0.00000000000E+00 0.  1.
         11    1    5    5    0    0 -0.37741426440E+02 -0.83817255838E+02  0.93402905322E+02  0.13104903803E+03  0.00000000000E+00 0. -1.
        -11    1    5    5    0    0 -0.13403219843E+03 -0.11952393887E+03  0.60192576877E+02  0.18940366546E+03  0.00000000000E+00 0.  1.
          3    1    6    6  503    0  0.10449418672E+03 -0.10437655500E+03 -0.72327713831E+03  0.73820276286E+03  0.00000000000E+00 0. -1.
         -3    1    6    6    0  503  0.67122450819E+02 -0.17817126566E+02 -0.16206666167E+03  0.17631924520E+03  0.00000000000E+00 0.  1.
<mgrwt>
<rscale>  0 0.13425812E+04</rscale>
<asrwt>0</asrwt>
<pdfrwt beam="1">  1        2 0.18805280E+00 0.13425812E+04</pdfrwt>
<pdfrwt beam="2">  1       -1 0.56717182E-01 0.13425812E+04</pdfrwt>
<totfact> 0.64393489E+01</totfact>
</mgrwt>
</event>
<event>
12    6  0.1540825E-007  0.1611965E+04  0.7818608E-02  0.8813231E-01
          2   -1    0    0  501    0  0.00000000000E+00  0.00000000000E+00  0.17469226741E+04  0.17469226741E+04  0.00000000000E+00 0. -1.
         -1   -1    0    0    0  501 -0.00000000000E+00 -0.00000000000E+00 -0.37185852995E+03  0.37185852995E+03  0.00000000000E+00 0.  1.
         24    2    1    2    0    0 -0.32262663471E+03  0.33246953823E+03  0.87616716736E+03  0.99425847214E+03  0.79101611736E+02 0.  0.
        254    2    1    2    0    0  0.32262663471E+03 -0.33246953823E+03  0.49889697682E+03  0.11245227320E+04  0.89500236979E+03 0.  0.
         23    2    4    4    0    0 -0.54401288899E+02  0.27014308086E+03  0.12694419603E+03  0.31698821389E+03  0.91814565689E+02 0.  0.
         23    2    4    4    0    0  0.37702792361E+03 -0.60261261909E+03  0.37195278080E+03  0.80753451806E+03  0.92038594342E+02 0.  0.
          2    1    3    3  502    0 -0.31815582089E+03  0.31454774976E+03  0.86122314525E+03  0.97049921131E+03  0.00000000000E+00 0. -1.
         -1    1    3    3    0  502 -0.44708138238E+01  0.17921788467E+02  0.14944022116E+02  0.23759260828E+02  0.00000000000E+00 0.  1.
         11    1    5    5    0    0 -0.19843572729E+02  0.23555501293E+03  0.80962277467E+02  0.24986960974E+03  0.00000000000E+00 0.  1.
        -11    1    5    5    0    0 -0.34557716170E+02  0.34588067926E+02  0.45981918559E+02  0.67118604158E+02  0.00000000000E+00 0. -1.
          3    1    6    6  503    0 -0.11057823285E+01 -0.17034883820E+02 -0.76619842336E+00  0.17087922090E+02  0.00000000000E+00 0. -1.
         -3    1    6    6    0  503  0.37813370594E+03 -0.58557773527E+03  0.37271897922E+03  0.79044659597E+03  0.00000000000E+00 0.  1.
<mgrwt>
<rscale>  0 0.16119654E+04</rscale>
<asrwt>0</asrwt>
<pdfrwt beam="1">  1        2 0.26875733E+00 0.16119654E+04</pdfrwt>
<pdfrwt beam="2">  1       -1 0.57209006E-01 0.16119654E+04</pdfrwt>
<totfact> 0.31182376E+01</totfact>
</mgrwt>
</event>
<event>
12    6  0.1540825E-007  0.1780442E+04  0.7818608E-02  0.8716770E-01
          2   -1    0    0  501    0  0.00000000000E+00  0.00000000000E+00  0.28063375035E+04  0.28063375035E+04  0.00000000000E+00 0. -1.
         -1   -1    0    0    0  501 -0.00000000000E+00 -0.00000000000E+00 -0.28239414233E+03  0.28239414233E+03  0.00000000000E+00 0.  1.
         24    2    1    2    0    0  0.33421858485E+02  0.13273535337E+03  0.19489437101E+04  0.19552675297E+04  0.77161083299E+02 0.  0.
        254    2    1    2    0    0 -0.33421858485E+02 -0.13273535337E+03  0.57499965105E+03  0.11334641161E+04  0.96715076859E+03 0.  0.
         23    2    4    4    0    0 -0.27465716271E+03 -0.73294700944E+02 -0.16943898863E+03  0.34310894852E+03  0.90584267237E+02 0.  0.
         23    2    4    4    0    0  0.24123530422E+03 -0.59440652429E+02  0.74443863968E+03  0.79035516762E+03  0.93513312190E+02 0.  0.
          4    1    3    3  502    0  0.95015739635E+00  0.72634845976E+02  0.14304365513E+04  0.14322798089E+04  0.00000000000E+00 0. -1.
         -3    1    3    3    0  502  0.32471701089E+02  0.60100507397E+02  0.51850715876E+03  0.52298772074E+03  0.00000000000E+00 0.  1.
         11    1    5    5    0    0 -0.12672590922E+03 -0.13530055402E+02 -0.29337429561E+02  0.13077921562E+03  0.00000000000E+00 0. -1.
        -11    1    5    5    0    0 -0.14793125349E+03 -0.59764645542E+02 -0.14010155907E+03  0.21232973289E+03  0.00000000000E+00 0.  1.
          3    1    6    6  503    0  0.84929980550E+02 -0.35183058647E+02  0.15642220881E+03  0.18143554399E+03  0.00000000000E+00 0. -1.
         -3    1    6    6    0  503  0.15630532367E+03 -0.24257593782E+02  0.58801643087E+03  0.60891962363E+03  0.00000000000E+00 0.  1.
<mgrwt>
<rscale>  0 0.17804418E+04</rscale>
<asrwt>0</asrwt>
<pdfrwt beam="1">  1        2 0.43174421E+00 0.17804418E+04</pdfrwt>
<pdfrwt beam="2">  1       -1 0.43445254E-01 0.17804418E+04</pdfrwt>
<totfact> 0.12939009E+01</totfact>
</mgrwt>
</event>
<event>
12    6  0.1540825E-007  0.1663892E+04  0.7818608E-02  0.8782230E-01
          2   -1    0    0  501    0  0.00000000000E+00  0.00000000000E+00  0.12231202694E+04  0.12231202694E+04  0.00000000000E+00 0. -1.
         -1   -1    0    0    0  501 -0.00000000000E+00 -0.00000000000E+00 -0.56587596680E+03  0.56587596680E+03  0.00000000000E+00 0.  1.
         24    2    1    2    0    0  0.16035823696E+03  0.17689094974E+03  0.79821664969E+03  0.83733360856E+03  0.83501975522E+02 0.  0.
        254    2    1    2    0    0 -0.16035823696E+03 -0.17689094974E+03 -0.14097234707E+03  0.95166262766E+03  0.91037540717E+03 0.  0.
         23    2    4    4    0    0 -0.24974919336E+03 -0.27388724909E+03 -0.45808925055E+03  0.59624432452E+03  0.90954099676E+02 0.  0.
         23    2    4    4    0    0  0.89390956398E+02  0.96996299346E+02  0.31711690348E+03  0.35541830315E+03  0.91433115244E+02 0.  0.
          4    1    3    3  502    0  0.58009022475E+02  0.69479681243E+02  0.44688647385E+03  0.45596051727E+03  0.00000000000E+00 0. -1.
         -3    1    3    3    0  502  0.10234921449E+03  0.10741126850E+03  0.35133017584E+03  0.38137309129E+03  0.00000000000E+00 0.  1.
         11    1    5    5    0    0 -0.23405645970E+03 -0.22321452335E+03 -0.42365301663E+03  0.53300002651E+03  0.00000000000E+00 0. -1.
        -11    1    5    5    0    0 -0.15692733663E+02 -0.50672725733E+02 -0.34436233922E+02  0.63244298002E+02  0.00000000000E+00 0.  1.
          1    1    6    6  503    0  0.62066412469E+02  0.97451840430E+02  0.30377880899E+03  0.32500871612E+03  0.00000000000E+00 0. -1.
         -1    1    6    6    0  503  0.27324543929E+02 -0.45554108399E+00  0.13338094494E+02  0.30409587030E+02  0.00000000000E+00 0.  1.
<mgrwt>
<rscale>  0 0.16638923E+04</rscale>
<asrwt>0</asrwt>
<pdfrwt beam="1">  1        2 0.18817235E+00 0.16638923E+04</pdfrwt>
<pdfrwt beam="2">  1       -1 0.87057841E-01 0.16638923E+04</pdfrwt>
<totfact> 0.25946331E+01</totfact>
</mgrwt>
</event>
<event>
12    6  0.1540825E-007  0.1114641E+04  0.7818608E-02  0.9191039E-01
          2   -1    0    0  501    0  0.00000000000E+00  0.00000000000E+00  0.17671480735E+04  0.17671480735E+04  0.00000000000E+00 0. -1.
         -1   -1    0    0    0  501 -0.00000000000E+00 -0.00000000000E+00 -0.17576674857E+03  0.17576674857E+03  0.00000000000E+00 0.  1.
         24    2    1    2    0    0  0.17634666797E+02 -0.54272050680E+02 -0.21190199530E+02  0.10000694426E+03  0.79346880129E+02 0.  0.
        254    2    1    2    0    0 -0.17634666797E+02  0.54272050680E+02  0.16125715245E+04  0.18429078779E+04  0.89031796999E+03 0.  0.
         23    2    4    4    0    0  0.82306468474E+02 -0.36929042635E+03  0.43538117218E+03  0.58446448039E+03  0.94298409389E+02 0.  0.
         23    2    4    4    0    0 -0.99941135271E+02  0.42356247703E+03  0.11771903523E+04  0.12584433975E+04  0.92245631600E+02 0.  0.
          4    1    3    3  502    0 -0.25574117069E+02 -0.15016269376E+02  0.12969775333E+02  0.32368794880E+02  0.00000000000E+00 0. -1.
         -3    1    3    3    0  502  0.43208783866E+02 -0.39255781305E+02 -0.34159974862E+02  0.67638149381E+02  0.00000000000E+00 0.  1.
         11    1    5    5    0    0  0.83333725144E+02 -0.25055124021E+03  0.24568384184E+03  0.36066741447E+03  0.00000000000E+00 0. -1.
        -11    1    5    5    0    0 -0.10272566706E+01 -0.11873918613E+03  0.18969733034E+03  0.22379706593E+03  0.00000000000E+00 0.  1.
          1    1    6    6  503    0 -0.11459557211E+03  0.33575316307E+03  0.90441524862E+03  0.97150876146E+03  0.00000000000E+00 0. -1.
         -1    1    6    6    0  503  0.14654436841E+02  0.87809313952E+02  0.27277510371E+03  0.28693463600E+03  0.00000000000E+00 0.  1.
<mgrwt>
<rscale>  0 0.11146405E+04</rscale>
<asrwt>0</asrwt>
<pdfrwt beam="1">  1        2 0.27186892E+00 0.11146405E+04</pdfrwt>
<pdfrwt beam="2">  1       -1 0.27041039E-01 0.11146405E+04</pdfrwt>
<totfact> 0.12444583E+02</totfact>
</mgrwt>
</event>
<event>
12    6  0.1540825E-007  0.1580603E+04  0.7818608E-02  0.8832553E-01
         -1   -1    0    0    0  501 -0.00000000000E+00  0.00000000000E+00  0.58429695436E+03  0.58429695436E+03  0.00000000000E+00 0.  1.
          2   -1    0    0  501    0  0.00000000000E+00 -0.00000000000E+00 -0.10689372055E+04  0.10689372055E+04  0.00000000000E+00 0. -1.
         24    2    1    2    0    0 -0.29150499666E+03  0.28975304795E+02  0.29475887212E+03  0.42315597163E+03  0.79771249633E+02 0.  0.
        254    2    1    2    0    0  0.29150499666E+03 -0.28975304795E+02 -0.77939912327E+03  0.12300781882E+04  0.90543615151E+03 0.  0.
         23    2    4    4    0    0  0.30215032993E+03 -0.45591317527E+02 -0.96737255491E+03  0.10187650361E+04  0.93269226530E+02 0.  0.
         23    2    4    4    0    0 -0.10645333271E+02  0.16616012732E+02  0.18797343164E+03  0.21131315217E+03  0.94497736897E+02 0.  0.
          4    1    3    3  502    0 -0.70213203252E+02  0.13252613684E+02  0.29370302151E+02  0.77253739902E+02  0.00000000000E+00 0. -1.
         -1    1    3    3    0  502 -0.22129179341E+03  0.15722691112E+02  0.26538856997E+03  0.34590223173E+03  0.00000000000E+00 0.  1.
         11    1    5    5    0    0  0.39841846307E+02  0.19925524152E+02 -0.20746127685E+03  0.21218996353E+03  0.00000000000E+00 0. -1.
        -11    1    5    5    0    0  0.26230848363E+03 -0.65516841680E+02 -0.75991127805E+03  0.80657507254E+03  0.00000000000E+00 0.  1.
          1    1    6    6  503    0  0.43694225651E+01 -0.30250050240E+02  0.20608310199E+02  0.36862716155E+02  0.00000000000E+00 0. -1.
         -1    1    6    6    0  503 -0.15014755836E+02  0.46866062972E+02  0.16736512144E+03  0.17445043602E+03  0.00000000000E+00 0.  1.
<mgrwt>
<rscale>  0 0.15806034E+04</rscale>
<asrwt>0</asrwt>
<pdfrwt beam="1">  1        2 0.16445188E+00 0.15806034E+04</pdfrwt>
<pdfrwt beam="2">  1       -1 0.89891839E-01 0.15806034E+04</pdfrwt>
<totfact> 0.30225201E+01</totfact>
</mgrwt>
</event>
<event>
12    6  0.1766037E-007  0.2176914E+04  0.7818608E-02  0.8528099E-01
          2   -1    0    0  501    0  0.00000000000E+00  0.00000000000E+00  0.14997254865E+04  0.14997254865E+04  0.00000000000E+00 0. -1.
         -1   -1    0    0    0  501 -0.00000000000E+00 -0.00000000000E+00 -0.78997041399E+03  0.78997041399E+03  0.00000000000E+00 0.  1.
         24    2    1    2    0    0  0.55032493600E+03  0.34980632921E+01 -0.46032755697E+03  0.72222818377E+03  0.82718305651E+02 0.  0.
        254    2    1    2    0    0 -0.55032493600E+03 -0.34980632921E+01  0.11700826295E+04  0.15674677168E+04  0.88599769273E+03 0.  0.
         23    2    4    4    0    0 -0.78278319774E+03  0.36195162416E+02  0.87887548086E+03  0.11812838804E+04  0.94603756449E+02 0.  0.
         23    2    4    4    0    0  0.23245826174E+03 -0.39693225708E+02  0.29120714867E+03  0.38618383638E+03  0.93402122170E+02 0.  0.
          4    1    3    3  502    0  0.15745705204E+02 -0.54117209390E+01 -0.35964067708E+02  0.39631150904E+02  0.00000000000E+00 0. -1.
         -3    1    3    3    0  502  0.53457923079E+03  0.89097842311E+01 -0.42436348927E+03  0.68259703286E+03  0.00000000000E+00 0.  1.
         11    1    5    5    0    0 -0.66968934674E+03  0.15951987888E+01  0.72120386682E+03  0.98418564474E+03  0.00000000000E+00 0. -1.
        -11    1    5    5    0    0 -0.11309385100E+03  0.34599963627E+02  0.15767161404E+03  0.19709823563E+03  0.00000000000E+00 0.  1.
          3    1    6    6  503    0  0.12886849239E+03  0.25234904181E+02  0.14613449394E+03  0.19646673774E+03  0.00000000000E+00 0. -1.
         -3    1    6    6    0  503  0.10358976935E+03 -0.64928129889E+02  0.14507265473E+03  0.18971709864E+03  0.00000000000E+00 0.  1.
<mgrwt>
<rscale>  0 0.21769141E+04</rscale>
<asrwt>0</asrwt>
<pdfrwt beam="1">  1        2 0.23072700E+00 0.21769141E+04</pdfrwt>
<pdfrwt beam="2">  1       -1 0.12153391E+00 0.21769141E+04</pdfrwt>
<totfact> 0.79495729E+00</totfact>
</mgrwt>
</event>
<event>
12    6  0.1540825E-007  0.1577188E+04  0.7818608E-02  0.8834686E-01
          2   -1    0    0  501    0  0.00000000000E+00  0.00000000000E+00  0.19516715081E+04  0.19516715081E+04  0.00000000000E+00 0. -1.
         -1   -1    0    0    0  501 -0.00000000000E+00 -0.00000000000E+00 -0.31863995505E+03  0.31863995505E+03  0.00000000000E+00 0.  1.
         24    2    1    2    0    0  0.42653312370E+03 -0.40337550219E+02  0.97357046688E+03  0.10665166337E+04  0.77850192616E+02 0.  0.
        254    2    1    2    0    0 -0.42653312370E+03  0.40337550219E+02  0.65946108616E+03  0.12037948294E+04  0.91141398034E+03 0.  0.
         23    2    4    4    0    0  0.11640082962E+03  0.34670017921E+03  0.22348713709E+03  0.43794568655E+03  0.89998647352E+02 0.  0.
         23    2    4    4    0    0 -0.54293395332E+03 -0.30636262899E+03  0.43597394907E+03  0.76584914285E+03  0.88409768840E+02 0.  0.
          4    1    3    3  502    0  0.39359374733E+03 -0.14979829942E+02  0.88191272441E+03  0.96587291437E+03  0.00000000000E+00 0. -1.
         -3    1    3    3    0  502  0.32939376372E+02 -0.25357720276E+02  0.91657742472E+02  0.10064371937E+03  0.00000000000E+00 0.  1.
         11    1    5    5    0    0  0.10098555190E+03  0.18104992396E+03  0.15100705841E+03  0.25647668188E+03  0.00000000000E+00 0.  1.
        -11    1    5    5    0    0  0.15415277714E+02  0.16565025524E+03  0.72480078679E+02  0.18146900466E+03  0.00000000000E+00 0. -1.
          2    1    6    6  503    0 -0.19182877722E+03 -0.14470804303E+03  0.20281425574E+03  0.31443969187E+03  0.00000000000E+00 0. -1.
         -2    1    6    6    0  503 -0.35110517610E+03 -0.16165458595E+03  0.23315969333E+03  0.45140945099E+03  0.00000000000E+00 0.  1.
<mgrwt>
<rscale>  0 0.15771880E+04</rscale>
<asrwt>0</asrwt>
<pdfrwt beam="1">  1        2 0.30025715E+00 0.15771880E+04</pdfrwt>
<pdfrwt beam="2">  1       -1 0.49021533E-01 0.15771880E+04</pdfrwt>
<totfact> 0.32419134E+01</totfact>
</mgrwt>
</event>
<event>
12    6  0.1540825E-007  0.2158829E+04  0.7818608E-02  0.8535762E-01
         -1   -1    0    0    0  501 -0.00000000000E+00  0.00000000000E+00  0.57121480605E+03  0.57121480605E+03  0.00000000000E+00 0.  1.
          2   -1    0    0  501    0  0.00000000000E+00 -0.00000000000E+00 -0.20397511881E+04  0.20397511881E+04  0.00000000000E+00 0. -1.
         24    2    1    2    0    0  0.44794394822E+01 -0.44275998805E+03 -0.15365423043E+04  0.16010769917E+04  0.80179847687E+02 0.  0.
        254    2    1    2    0    0 -0.44794394822E+01  0.44275998805E+03  0.68005922258E+02  0.10098890025E+04  0.90509365231E+03 0.  0.
         23    2    4    4    0    0  0.17338399891E+02  0.24823576080E+03  0.47803894454E+03  0.54665730276E+03  0.91604372799E+02 0.  0.
         23    2    4    4    0    0 -0.21817839373E+02  0.19452422725E+03 -0.41003302228E+03  0.46323169971E+03  0.90226576733E+02 0.  0.
          2    1    3    3  502    0  0.11307023367E+02 -0.42525282587E+03 -0.15083884135E+04  0.15672279415E+04  0.00000000000E+00 0. -1.
         -1    1    3    3    0  502 -0.68275838852E+01 -0.17507162180E+02 -0.28153890772E+02  0.33849050133E+02  0.00000000000E+00 0.  1.
         11    1    5    5    0    0  0.19996517271E+02  0.22094651838E+03  0.34038564083E+03  0.40629990053E+03  0.00000000000E+00 0. -1.
        -11    1    5    5    0    0 -0.26581173804E+01  0.27289242427E+02  0.13765330371E+03  0.14035740224E+03  0.00000000000E+00 0.  1.
          4    1    6    6  503    0 -0.48140389622E+01  0.17049979045E+03 -0.39484391178E+03  0.43011053019E+03  0.00000000000E+00 0. -1.
         -4    1    6    6    0  503 -0.17003800411E+02  0.24024436800E+02 -0.15189110501E+02  0.33121169511E+02  0.00000000000E+00 0.  1.
<mgrwt>
<rscale>  0 0.21588294E+04</rscale>
<asrwt>0</asrwt>
<pdfrwt beam="1">  1        2 0.31380788E+00 0.21588294E+04</pdfrwt>
<pdfrwt beam="2">  1       -1 0.87879199E-01 0.21588294E+04</pdfrwt>
<totfact> 0.84374291E+00</totfact>
</mgrwt>
</event>
<event>
12    6  0.1540825E-007  0.1231980E+04  0.7818608E-02  0.9085316E-01
         -1   -1    0    0    0  501 -0.00000000000E+00  0.00000000000E+00  0.10548567990E+04  0.10548567990E+04  0.00000000000E+00 0.  1.
          2   -1    0    0  501    0  0.00000000000E+00 -0.00000000000E+00 -0.35971094143E+03  0.35971094143E+03  0.00000000000E+00 0. -1.
         24    2    1    2    0    0 -0.61768155132E+02 -0.19860426796E+03 -0.47624591788E+02  0.22735649976E+03  0.78510610749E+02 0.  0.
        254    2    1    2    0    0  0.61768155132E+02  0.19860426796E+03  0.74277044939E+03  0.11872112407E+04  0.90249854810E+03 0.  0.
         23    2    4    4    0    0  0.28807924516E+03 -0.26026775116E+03  0.40343556741E+03  0.56710280937E+03  0.90090984822E+02 0.  0.
         23    2    4    4    0    0 -0.22631109003E+03  0.45887201912E+03  0.33933488198E+03  0.62010843133E+03  0.87212757564E+02 0.  0.
          4    1    3    3  502    0 -0.27851808564E+02 -0.18275325385E+03 -0.38734148094E+02  0.18887776275E+03  0.00000000000E+00 0. -1.
         -3    1    3    3    0  502 -0.33916346568E+02 -0.15851014109E+02 -0.88904436940E+01  0.38478737010E+02  0.00000000000E+00 0.  1.
         11    1    5    5    0    0  0.26746758123E+03 -0.22482988620E+03  0.39075216149E+03  0.52418950433E+03  0.00000000000E+00 0.  1.
        -11    1    5    5    0    0  0.20611663932E+02 -0.35437864966E+02  0.12683405920E+02  0.42913305036E+02  0.00000000000E+00 0. -1.
          4    1    6    6  503    0 -0.18605138218E+03  0.31707689062E+03  0.20634707281E+03  0.42158271529E+03  0.00000000000E+00 0.  1.
         -4    1    6    6    0  503 -0.40259707855E+02  0.14179512851E+03  0.13298780917E+03  0.19852571605E+03  0.00000000000E+00 0. -1.
<mgrwt>
<rscale>  0 0.12319798E+04</rscale>
<asrwt>0</asrwt>
<pdfrwt beam="1">  1        2 0.55340145E-01 0.12319798E+04</pdfrwt>
<pdfrwt beam="2">  1       -1 0.16228566E+00 0.12319798E+04</pdfrwt>
<totfact> 0.28374636E+01</totfact>
</mgrwt>
</event>
<event>
12    6  0.1540825E-007  0.1892982E+04  0.7818608E-02  0.8658358E-01
          2   -1    0    0  501    0  0.00000000000E+00  0.00000000000E+00  0.14834074394E+04  0.14834074394E+04  0.00000000000E+00 0. -1.
         -1   -1    0    0    0  501 -0.00000000000E+00 -0.00000000000E+00 -0.60391020921E+03  0.60391020921E+03  0.00000000000E+00 0.  1.
         24    2    1    2    0    0  0.51390923593E+02 -0.30423983690E+03 -0.39011767497E+03  0.50365274166E+03  0.79192035411E+02 0.  0.
        254    2    1    2    0    0 -0.51390923593E+02  0.30423983690E+03  0.12696149052E+04  0.15836649070E+04  0.89491319398E+03 0.  0.
         23    2    4    4    0    0 -0.53561725458E+02  0.58450464971E+03  0.10820800020E+04  0.12345625403E+04  0.93450475312E+02 0.  0.
         23    2    4    4    0    0  0.21708018650E+01 -0.28026481281E+03  0.18753490321E+03  0.34910236666E+03  0.90277598568E+02 0.  0.
          2    1    3    3  502    0  0.91723488691E+01 -0.76048527099E+02 -0.48482207432E+02  0.90653377737E+02  0.00000000000E+00 0. -1.
         -1    1    3    3    0  502  0.42218574724E+02 -0.22819130981E+03 -0.34163546754E+03  0.41299936392E+03  0.00000000000E+00 0.  1.
         11    1    5    5    0    0  0.10105828964E+02  0.21694364064E+03  0.33002249073E+03  0.39507153197E+03  0.00000000000E+00 0. -1.
        -11    1    5    5    0    0 -0.63667554423E+02  0.36756100908E+03  0.75205751127E+03  0.83949100837E+03  0.00000000000E+00 0.  1.
          1    1    6    6  503    0 -0.43716621557E+02 -0.12214806266E+03  0.78671957375E+02  0.15172530801E+03  0.00000000000E+00 0. -1.
         -1    1    6    6    0  503  0.45887423422E+02 -0.15811675015E+03  0.10886294584E+03  0.19737705865E+03  0.00000000000E+00 0.  1.
<mgrwt>
<rscale>  0 0.18929817E+04</rscale>
<asrwt>0</asrwt>
<pdfrwt beam="1">  1        2 0.22821653E+00 0.18929817E+04</pdfrwt>
<pdfrwt beam="2">  1       -1 0.92909263E-01 0.18929817E+04</pdfrwt>
<totfact> 0.15589084E+01</totfact>
</mgrwt>
</event>
<event>
12    6  0.1540825E-007  0.1998225E+04  0.7818608E-02  0.8607451E-01
          2   -1    0    0  501    0  0.00000000000E+00  0.00000000000E+00  0.23909469461E+04  0.23909469461E+04  0.00000000000E+00 0. -1.
         -1   -1    0    0    0  501 -0.00000000000E+00 -0.00000000000E+00 -0.41750230148E+03  0.41750230148E+03  0.00000000000E+00 0.  1.
         24    2    1    2    0    0 -0.45060090104E+01 -0.34867531836E+03 -0.21636951510E+03  0.41760261034E+03  0.77339455304E+02 0.  0.
        254    2    1    2    0    0  0.45060090104E+01  0.34867531836E+03  0.21898141597E+04  0.23908466372E+04  0.89401722969E+03 0.  0.
         23    2    4    4    0    0  0.24112976730E+03  0.56464664052E+03  0.15407489044E+04  0.16611727842E+04  0.92835549028E+02 0.  0.
         23    2    4    4    0    0 -0.23662375829E+03 -0.21597132216E+03  0.64906525532E+03  0.72967385307E+03  0.92216111415E+02 0.  0.
          2    1    3    3  502    0 -0.15618401285E+02 -0.38417972683E+02 -0.51378252012E+02  0.66027266061E+02  0.00000000000E+00 0. -1.
         -1    1    3    3    0  502  0.11112392274E+02 -0.31025734567E+03 -0.16499126309E+03  0.35157534427E+03  0.00000000000E+00 0.  1.
         11    1    5    5    0    0  0.42002500338E+02  0.50942090039E+02  0.11395366330E+03  0.13169944553E+03  0.00000000000E+00 0. -1.
        -11    1    5    5    0    0  0.19912726696E+03  0.51370455048E+03  0.14267952411E+04  0.15294733386E+04  0.00000000000E+00 0.  1.
          4    1    6    6  503    0 -0.11093007620E+03 -0.93521461566E+02  0.39580703580E+03  0.42156251632E+03  0.00000000000E+00 0. -1.
         -4    1    6    6    0  503 -0.12569368209E+03 -0.12244986059E+03  0.25325821952E+03  0.30811133675E+03  0.00000000000E+00 0.  1.
<mgrwt>
<rscale>  0 0.19982251E+04</rscale>
<asrwt>0</asrwt>
<pdfrwt beam="1">  1        2 0.36783798E+00 0.19982251E+04</pdfrwt>
<pdfrwt beam="2">  1       -1 0.64231125E-01 0.19982251E+04</pdfrwt>
<totfact> 0.10463694E+01</totfact>
</mgrwt>
</event>
<event>
12    6  0.1540825E-007  0.1413160E+04  0.7818608E-02  0.8944347E-01
         -1   -1    0    0    0  501 -0.00000000000E+00  0.00000000000E+00  0.56664754669E+03  0.56664754669E+03  0.00000000000E+00 0.  1.
          2   -1    0    0  501    0  0.00000000000E+00 -0.00000000000E+00 -0.88106905221E+03  0.88106905221E+03  0.00000000000E+00 0. -1.
         24    2    1    2    0    0 -0.39691182108E+03 -0.10083030494E+03 -0.84019469386E+01  0.41774526246E+03  0.82065629121E+02 0.  0.
        254    2    1    2    0    0  0.39691182108E+03  0.10083030494E+03 -0.30601955858E+03  0.10299713364E+04  0.89414050325E+03 0.  0.
         23    2    4    4    0    0  0.54523904337E+03 -0.23801673274E+03 -0.17569718315E+03  0.62714152262E+03  0.92192243496E+02 0.  0.
         23    2    4    4    0    0 -0.14832722228E+03  0.33884703768E+03 -0.13032237543E+03  0.40282981382E+03  0.92030742394E+02 0.  0.
          4    1    3    3  502    0 -0.85749019871E+02 -0.44855312257E+02  0.24656904902E+02  0.99864189807E+02  0.00000000000E+00 0. -1.
         -3    1    3    3    0  502 -0.31116280121E+03 -0.55974992687E+02 -0.33058851841E+02  0.31788107265E+03  0.00000000000E+00 0.  1.
         11    1    5    5    0    0  0.18427588296E+03 -0.35517674681E+02 -0.66411937470E+02  0.19907197617E+03  0.00000000000E+00 0. -1.
        -11    1    5    5    0    0  0.36096316040E+03 -0.20249905806E+03 -0.10928524568E+03  0.42806954646E+03  0.00000000000E+00 0.  1.
          1    1    6    6  503    0 -0.22504717100E+02  0.57189112732E+01 -0.18183358565E+02  0.29492418799E+02  0.00000000000E+00 0. -1.
         -1    1    6    6    0  503 -0.12582250518E+03  0.33312812641E+03 -0.11213901686E+03  0.37333739502E+03  0.00000000000E+00 0.  1.
<mgrwt>
<rscale>  0 0.14131605E+04</rscale>
<asrwt>0</asrwt>
<pdfrwt beam="1">  1        2 0.13554908E+00 0.14131605E+04</pdfrwt>
<pdfrwt beam="2">  1       -1 0.87176546E-01 0.14131605E+04</pdfrwt>
<totfact> 0.43450706E+01</totfact>
</mgrwt>
</event>
<event>
12    6  0.1540825E-007  0.1388477E+04  0.7818608E-02  0.8962202E-01
         -1   -1    0    0    0  501 -0.00000000000E+00  0.00000000000E+00  0.93057206868E+03  0.93057206868E+03  0.00000000000E+00 0.  1.
          2   -1    0    0  501    0  0.00000000000E+00 -0.00000000000E+00 -0.51792592684E+03  0.51792592684E+03  0.00000000000E+00 0. -1.
         24    2    1    2    0    0 -0.80327181774E+02  0.24026170420E+03  0.43810031035E+03  0.51257062601E+03  0.81354914328E+02 0.  0.
        254    2    1    2    0    0  0.80327181774E+02 -0.24026170420E+03 -0.25454168505E+02  0.93592736951E+03  0.90062977059E+03 0.  0.
         23    2    4    4    0    0 -0.34772297140E+02 -0.53985405184E+03  0.13605162581E+03  0.56548455462E+03  0.92796695438E+02 0.  0.
         23    2    4    4    0    0  0.11509947891E+03  0.29959234764E+03 -0.16150579431E+03  0.37044281489E+03  0.90223570644E+02 0.  0.
          2    1    3    3  502    0 -0.57534216733E+01  0.61116278218E+01  0.66743167084E+02  0.67268894803E+02  0.00000000000E+00 0. -1.
         -1    1    3    3    0  502 -0.74573760100E+02  0.23415007638E+03  0.37135714326E+03  0.44530173121E+03  0.00000000000E+00 0.  1.
         11    1    5    5    0    0 -0.29505540212E+02 -0.50228608161E+02  0.25023532645E+02  0.63400845160E+02  0.00000000000E+00 0.  1.
        -11    1    5    5    0    0 -0.52667569285E+01 -0.48962544368E+03  0.11102809316E+03  0.50208370946E+03  0.00000000000E+00 0. -1.
          2    1    6    6  503    0  0.10913540327E+03  0.20850316161E+03 -0.81471985141E+02  0.24904174150E+03  0.00000000000E+00 0. -1.
         -2    1    6    6    0  503  0.59640756432E+01  0.91089186033E+02 -0.80033809173E+02  0.12140107339E+03  0.00000000000E+00 0.  1.
<mgrwt>
<rscale>  0 0.13884774E+04</rscale>
<asrwt>0</asrwt>
<pdfrwt beam="1">  1        2 0.79680912E-01 0.13884774E+04</pdfrwt>
<pdfrwt beam="2">  1       -1 0.14316493E+00 0.13884774E+04</pdfrwt>
<totfact> 0.26014804E+01</totfact>
</mgrwt>
</event>
<event>
12    6  0.1540825E-007  0.1620563E+04  0.7818608E-02  0.8808014E-01
         -1   -1    0    0    0  501 -0.00000000000E+00  0.00000000000E+00  0.23945424629E+03  0.23945424629E+03  0.00000000000E+00 0.  1.
          2   -1    0    0  501    0  0.00000000000E+00 -0.00000000000E+00 -0.27418855674E+04  0.27418855674E+04  0.00000000000E+00 0. -1.
         24    2    1    2    0    0 -0.48373802417E+03  0.13048702897E+03 -0.49205079908E+03  0.70667956374E+03  0.79073865309E+02 0.  0.
        254    2    1    2    0    0  0.48373802417E+03 -0.13048702897E+03 -0.20103805220E+04  0.22746602500E+04  0.93883974596E+03 0.  0.
         23    2    4    4    0    0 -0.16225843066E+03 -0.19515913587E+03 -0.16693882341E+03  0.31801672953E+03  0.94080725259E+02 0.  0.
         23    2    4    4    0    0  0.64599645482E+03  0.64672106901E+02 -0.18434416986E+04  0.19566435204E+04  0.93180838924E+02 0.  0.
          4    1    3    3  502    0 -0.41189616014E+03  0.98701792752E+02 -0.44836207930E+03  0.61678930340E+03  0.00000000000E+00 0. -1.
         -3    1    3    3    0  502 -0.71841864028E+02  0.31785236218E+02 -0.43688719784E+02  0.89890260345E+02  0.00000000000E+00 0.  1.
         11    1    5    5    0    0 -0.95184422384E+02 -0.86959280309E+02 -0.32689722133E+02  0.13300604734E+03  0.00000000000E+00 0.  1.
        -11    1    5    5    0    0 -0.67074008272E+02 -0.10819985556E+03 -0.13424910128E+03  0.18501068218E+03  0.00000000000E+00 0. -1.
          4    1    6    6  503    0  0.16802393518E+03  0.51178081767E+02 -0.56684331308E+03  0.59343287778E+03  0.00000000000E+00 0. -1.
         -4    1    6    6    0  503  0.47797251965E+03  0.13494025134E+02 -0.12765983855E+04  0.13632106426E+04  0.00000000000E+00 0.  1.
<mgrwt>
<rscale>  0 0.16205630E+04</rscale>
<asrwt>0</asrwt>
<pdfrwt beam="1">  1        2 0.42182851E+00 0.16205630E+04</pdfrwt>
<pdfrwt beam="2">  1       -1 0.36839118E-01 0.16205630E+04</pdfrwt>
<totfact> 0.19406313E+01</totfact>
</mgrwt>
</event>
<event>
12    6  0.1540825E-007  0.2264039E+04  0.7818608E-02  0.8492236E-01
         -1   -1    0    0    0  501 -0.00000000000E+00  0.00000000000E+00  0.71195443437E+03  0.71195443437E+03  0.00000000000E+00 0.  1.
          2   -1    0    0  501    0  0.00000000000E+00 -0.00000000000E+00 -0.17999303217E+04  0.17999303217E+04  0.00000000000E+00 0. -1.
         24    2    1    2    0    0  0.30758680525E+03  0.77364101832E+02 -0.14487774771E+04  0.14853630534E+04  0.82172839132E+02 0.  0.
        254    2    1    2    0    0 -0.30758680525E+03 -0.77364101832E+02  0.36080158971E+03  0.10265217026E+04  0.90717923908E+03 0.  0.
         23    2    4    4    0    0  0.45617608957E+02  0.26392532826E+03  0.43791977006E+03  0.52107165263E+03  0.89467295763E+02 0.  0.
         23    2    4    4    0    0 -0.35320441421E+03 -0.34128943010E+03 -0.77118180349E+02  0.50545005001E+03  0.91108210407E+02 0.  0.
          2    1    3    3  502    0  0.25003067432E+03  0.92382399927E+02 -0.11230841839E+04  0.11542824308E+04  0.00000000000E+00 0. -1.
         -1    1    3    3    0  502  0.57556130933E+02 -0.15018298095E+02 -0.32569329318E+03  0.33108062267E+03  0.00000000000E+00 0.  1.
         11    1    5    5    0    0  0.44784867658E+02  0.26024751921E+03  0.37840620519E+03  0.46143874106E+03  0.00000000000E+00 0.  1.
        -11    1    5    5    0    0  0.83274129925E+00  0.36778090527E+01  0.59513564876E+02  0.59632911566E+02  0.00000000000E+00 0. -1.
          2    1    6    6  503    0 -0.33289570734E+02 -0.10821565266E+02  0.11885702860E+02  0.36967170935E+02  0.00000000000E+00 0. -1.
         -2    1    6    6    0  503 -0.31991484347E+03 -0.33046786483E+03 -0.89003883209E+02  0.46848287907E+03  0.00000000000E+00 0.  1.
<mgrwt>
<rscale>  0 0.22640392E+04</rscale>
<asrwt>0</asrwt>
<pdfrwt beam="1">  1        2 0.27691236E+00 0.22640392E+04</pdfrwt>
<pdfrwt beam="2">  1       -1 0.10953145E+00 0.22640392E+04</pdfrwt>
<totfact> 0.68867420E+00</totfact>
</mgrwt>
</event>
<event>
12    6  0.1540825E-007  0.2554125E+04  0.7818608E-02  0.8383953E-01
          2   -1    0    0  501    0  0.00000000000E+00  0.00000000000E+00  0.18497595869E+04  0.18497595869E+04  0.00000000000E+00 0. -1.
         -1   -1    0    0    0  501 -0.00000000000E+00 -0.00000000000E+00 -0.88167580463E+03  0.88167580463E+03  0.00000000000E+00 0.  1.
         24    2    1    2    0    0 -0.10989404182E+04 -0.18523306747E+03  0.41605055912E+03  0.11922822481E+04  0.80358941555E+02 0.  0.
        254    2    1    2    0    0  0.10989404182E+04  0.18523306747E+03  0.55203322311E+03  0.15391531434E+04  0.90679125901E+03 0.  0.
         23    2    4    4    0    0  0.60151934695E+03 -0.32456525665E+03  0.42384753346E+03  0.80977433302E+03  0.94443677524E+02 0.  0.
         23    2    4    4    0    0  0.49742107121E+03  0.50979832412E+03  0.12818568966E+03  0.72937881036E+03  0.90773479706E+02 0.  0.
          4    1    3    3  502    0 -0.24451523325E+03 -0.64721844783E+02  0.12064402335E+03  0.28023489585E+03  0.00000000000E+00 0. -1.
         -3    1    3    3    0  502 -0.85442518491E+03 -0.12051122268E+03  0.29540653577E+03  0.91204735226E+03  0.00000000000E+00 0.  1.
         11    1    5    5    0    0  0.30519635188E+03 -0.13929183677E+03  0.15884396088E+03  0.37118517333E+03  0.00000000000E+00 0. -1.
        -11    1    5    5    0    0  0.29632299507E+03 -0.18527341988E+03  0.26500357258E+03  0.43858915969E+03  0.00000000000E+00 0.  1.
          2    1    6    6  503    0  0.17401245026E+03  0.22844792615E+03  0.79408456364E+02  0.29795048372E+03  0.00000000000E+00 0. -1.
         -2    1    6    6    0  503  0.32340862095E+03  0.28135039796E+03  0.48777233292E+02  0.43142832664E+03  0.00000000000E+00 0.  1.
<mgrwt>
<rscale>  0 0.25541247E+04</rscale>
<asrwt>0</asrwt>
<pdfrwt beam="1">  1        2 0.28457840E+00 0.25541247E+04</pdfrwt>
<pdfrwt beam="2">  1       -1 0.13564243E+00 0.25541247E+04</pdfrwt>
<totfact> 0.37235287E+00</totfact>
</mgrwt>
</event>
<event>
12    6  0.1540825E-007  0.1090653E+04  0.7818608E-02  0.9214351E-01
          2   -1    0    0  501    0  0.00000000000E+00  0.00000000000E+00  0.14947622496E+04  0.14947622496E+04  0.00000000000E+00 0. -1.
         -1   -1    0    0    0  501 -0.00000000000E+00 -0.00000000000E+00 -0.19894853991E+03  0.19894853991E+03  0.00000000000E+00 0.  1.
         24    2    1    2    0    0  0.20059246293E+02  0.90285365763E+02  0.17558895069E+02  0.12396360819E+03  0.80652592811E+02 0.  0.
        254    2    1    2    0    0 -0.20059246293E+02 -0.90285365763E+02  0.12782548146E+04  0.15697471813E+04  0.90643092483E+03 0.  0.
         23    2    4    4    0    0  0.42997799113E+03 -0.56794140560E+02  0.53139057509E+03  0.69217854832E+03  0.92890000596E+02 0.  0.
         23    2    4    4    0    0 -0.45003723742E+03 -0.33491225202E+02  0.74686423951E+03  0.87756863296E+03  0.93087786900E+02 0.  0.
          4    1    3    3  502    0 -0.23951242353E+02  0.49023666890E+01  0.13252994984E+02  0.27808938949E+02  0.00000000000E+00 0. -1.
         -3    1    3    3    0  502  0.44010488646E+02  0.85382999074E+02  0.43059000848E+01  0.96154669243E+02  0.00000000000E+00 0.  1.
         11    1    5    5    0    0  0.41990754359E+03 -0.38943662921E+02  0.51678020888E+03  0.66700879929E+03  0.00000000000E+00 0.  1.
        -11    1    5    5    0    0  0.10070447544E+02 -0.17850477639E+02  0.14610366209E+02  0.25169749034E+02  0.00000000000E+00 0. -1.
          3    1    6    6  503    0 -0.10567912298E+02  0.13872226914E+02  0.43277116303E+02  0.46658635271E+02  0.00000000000E+00 0. -1.
         -3    1    6    6    0  503 -0.43946932513E+03 -0.47363452116E+02  0.70358712320E+03  0.83090999769E+03  0.00000000000E+00 0.  1.
<mgrwt>
<rscale>  0 0.10906526E+04</rscale>
<asrwt>0</asrwt>
<pdfrwt beam="1">  1        2 0.22996342E+00 0.10906526E+04</pdfrwt>
<pdfrwt beam="2">  1       -1 0.30607469E-01 0.10906526E+04</pdfrwt>
<totfact> 0.14238710E+02</totfact>
</mgrwt>
</event>
<event>
12    6  0.1540825E-007  0.1553601E+04  0.7818608E-02  0.8849571E-01
          2   -1    0    0  501    0  0.00000000000E+00  0.00000000000E+00  0.34525411298E+04  0.34525411298E+04  0.00000000000E+00 0. -1.
         -1   -1    0    0    0  501 -0.00000000000E+00 -0.00000000000E+00 -0.17477524401E+03  0.17477524401E+03  0.00000000000E+00 0.  1.
         24    2    1    2    0    0 -0.31361842075E+03 -0.32647482618E+03  0.53704749028E+03  0.70688433934E+03  0.79518151564E+02 0.  0.
        254    2    1    2    0    0  0.31361842075E+03  0.32647482618E+03  0.27407183955E+04  0.29204320345E+04  0.90135654353E+03 0.  0.
         23    2    4    4    0    0  0.53146335136E+03 -0.23504718288E+01  0.10293022443E+04  0.11619155741E+04  0.90143622949E+02 0.  0.
         23    2    4    4    0    0 -0.21784493061E+03  0.32882529801E+03  0.17114161512E+04  0.17585164603E+04  0.88613815230E+02 0.  0.
          2    1    3    3  502    0 -0.83587409645E+02 -0.13456752191E+03  0.21483502312E+03  0.26692575778E+03  0.00000000000E+00 0. -1.
         -1    1    3    3    0  502 -0.23003101110E+03 -0.19190730427E+03  0.32221246716E+03  0.43995858156E+03  0.00000000000E+00 0.  1.
         11    1    5    5    0    0  0.24084015357E+01  0.30521652705E+01 -0.72029792389E+00  0.39541041836E+01  0.00000000000E+00 0. -1.
        -11    1    5    5    0    0  0.52905494982E+03 -0.54026370993E+01  0.10300225422E+04  0.11579614699E+04  0.00000000000E+00 0.  1.
          2    1    6    6  503    0 -0.18901569679E+02  0.86392644781E+02  0.45818798736E+03  0.46664460799E+03  0.00000000000E+00 0. -1.
         -2    1    6    6    0  503 -0.19894336093E+03  0.24243265322E+03  0.12532281638E+04  0.12918718523E+04  0.00000000000E+00 0.  1.
<mgrwt>
<rscale>  0 0.15536006E+04</rscale>
<asrwt>0</asrwt>
<pdfrwt beam="1">  1        2 0.53116013E+00 0.15536006E+04</pdfrwt>
<pdfrwt beam="2">  1       -1 0.26888502E-01 0.15536006E+04</pdfrwt>
<totfact> 0.12020461E+01</totfact>
</mgrwt>
</event>
<event>
12    6  0.1540825E-007  0.2296210E+04  0.7818608E-02  0.8479417E-01
          2   -1    0    0  501    0  0.00000000000E+00  0.00000000000E+00  0.10918924983E+04  0.10918924983E+04  0.00000000000E+00 0. -1.
         -1   -1    0    0    0  501 -0.00000000000E+00 -0.00000000000E+00 -0.12072118791E+04  0.12072118791E+04  0.00000000000E+00 0.  1.
         24    2    1    2    0    0  0.25168897664E+02  0.92422774420E+03 -0.33482879485E+03  0.98667082894E+03  0.81108607892E+02 0.  0.
        254    2    1    2    0    0 -0.25168897664E+02 -0.92422774420E+03  0.21950941410E+03  0.13124335485E+04  0.90524418791E+03 0.  0.
         23    2    4    4    0    0  0.50214273301E+02 -0.80505307596E+03  0.52334037824E+03  0.96578974903E+03  0.90734555006E+02 0.  0.
         23    2    4    4    0    0 -0.75383170965E+02 -0.11917466824E+03 -0.30383096414E+03  0.34664379945E+03  0.89238135975E+02 0.  0.
          4    1    3    3  502    0 -0.18474561144E+02  0.19271869824E+03 -0.94689143815E+02  0.21551760953E+03  0.00000000000E+00 0. -1.
         -3    1    3    3    0  502  0.43643458808E+02  0.73150904596E+03 -0.24013965103E+03  0.77115321941E+03  0.00000000000E+00 0.  1.
         11    1    5    5    0    0 -0.17511496510E+02 -0.38087806905E+03  0.22372912335E+03  0.44207406238E+03  0.00000000000E+00 0. -1.
        -11    1    5    5    0    0  0.67725769812E+02 -0.42417500691E+03  0.29961125489E+03  0.52371568665E+03  0.00000000000E+00 0.  1.
          3    1    6    6  503    0 -0.13306963540E+02 -0.40527330742E+01  0.19677347591E+01  0.14048911136E+02  0.00000000000E+00 0. -1.
         -3    1    6    6    0  503 -0.62076207426E+02 -0.11512193516E+03 -0.30579869890E+03  0.33259488832E+03  0.00000000000E+00 0.  1.
<mgrwt>
<rscale>  0 0.22962104E+04</rscale>
<asrwt>0</asrwt>
<pdfrwt beam="1">  1        2 0.16798346E+00 0.22962104E+04</pdfrwt>
<pdfrwt beam="2">  1       -1 0.18572490E+00 0.22962104E+04</pdfrwt>
<totfact> 0.43164603E+00</totfact>
</mgrwt>
</event>
<event>
12    6  0.1540825E-007  0.1733434E+04  0.7818608E-02  0.8742522E-01
         -1   -1    0    0    0  501 -0.00000000000E+00  0.00000000000E+00  0.15149035717E+04  0.15149035717E+04  0.00000000000E+00 0.  1.
          2   -1    0    0  501    0  0.00000000000E+00 -0.00000000000E+00 -0.49587198966E+03  0.49587198966E+03  0.00000000000E+00 0. -1.
         24    2    1    2    0    0  0.30078731556E+03 -0.66643016662E+02 -0.26535768283E+03  0.41405810169E+03  0.78199174333E+02 0.  0.
        254    2    1    2    0    0 -0.30078731556E+03  0.66643016662E+02  0.12843892649E+04  0.15967174597E+04  0.89718256861E+03 0.  0.
         23    2    4    4    0    0  0.25738169924E+03  0.22894234952E+03  0.41412876099E+03  0.54633123344E+03  0.91187978651E+02 0.  0.
         23    2    4    4    0    0 -0.55816901480E+03 -0.16229933285E+03  0.87026050389E+03  0.10503862262E+04  0.89800651991E+02 0.  0.
          4    1    3    3  502    0  0.24957215284E+03 -0.23288825486E+02 -0.20517542642E+03  0.32392218892E+03  0.00000000000E+00 0. -1.
         -3    1    3    3    0  502  0.51215162724E+02 -0.43354191177E+02 -0.60182256411E+02  0.90135912777E+02  0.00000000000E+00 0.  1.
         11    1    5    5    0    0  0.12172501202E+03  0.11090854079E+03  0.12878072751E+03  0.20905061288E+03  0.00000000000E+00 0. -1.
        -11    1    5    5    0    0  0.13565668722E+03  0.11803380873E+03  0.28534803349E+03  0.33728062056E+03  0.00000000000E+00 0.  1.
          3    1    6    6  503    0 -0.35397810254E+03 -0.68577237521E+02  0.58626307531E+03  0.68826428649E+03  0.00000000000E+00 0. -1.
         -3    1    6    6    0  503 -0.20419091226E+03 -0.93722095332E+02  0.28399742858E+03  0.36212193975E+03  0.00000000000E+00 0.  1.
<mgrwt>
<rscale>  0 0.17334339E+04</rscale>
<asrwt>0</asrwt>
<pdfrwt beam="1">  1        2 0.76287999E-01 0.17334339E+04</pdfrwt>
<pdfrwt beam="2">  1       -1 0.23306209E+00 0.17334339E+04</pdfrwt>
<totfact> 0.60752732E+00</totfact>
</mgrwt>
</event>
<event>
12    6  0.1540825E-007  0.1902191E+04  0.7818608E-02  0.8653767E-01
          2   -1    0    0  501    0  0.00000000000E+00  0.00000000000E+00  0.14478844448E+04  0.14478844448E+04  0.00000000000E+00 0. -1.
         -1   -1    0    0    0  501 -0.00000000000E+00 -0.00000000000E+00 -0.62476143441E+03  0.62476143441E+03  0.00000000000E+00 0.  1.
         24    2    1    2    0    0 -0.45634869780E+03  0.55449107919E+03  0.48351317806E+03  0.87012239383E+03  0.87255349478E+02 0.  0.
        254    2    1    2    0    0  0.45634869780E+03 -0.55449107919E+03  0.33960983238E+03  0.12025234854E+04  0.90278092794E+03 0.  0.
         23    2    4    4    0    0  0.44701344961E+03 -0.50453887910E+02 -0.16107277181E+03  0.48633878140E+03  0.90633070898E+02 0.  0.
         23    2    4    4    0    0  0.93352481858E+01 -0.50403719128E+03  0.50068260418E+03  0.71618470401E+03  0.89982348703E+02 0.  0.
          2    1    3    3  502    0 -0.47011499406E+02  0.22454573779E+02  0.32690537677E+02  0.61505773823E+02  0.00000000000E+00 0. -1.
         -1    1    3    3    0  502 -0.40933719839E+03  0.53203650541E+03  0.45082264038E+03  0.80861662001E+03  0.00000000000E+00 0.  1.
         11    1    5    5    0    0  0.12874366261E+03 -0.53036162769E+02 -0.66501397964E+02  0.15430554479E+03  0.00000000000E+00 0. -1.
        -11    1    5    5    0    0  0.31826978701E+03  0.25822748583E+01 -0.94571373845E+02  0.33203323661E+03  0.00000000000E+00 0.  1.
          2    1    6    6  503    0 -0.23672937902E+02 -0.16961771173E+03  0.21677895154E+03  0.27626742470E+03  0.00000000000E+00 0. -1.
         -2    1    6    6    0  503  0.33008186088E+02 -0.33441947955E+03  0.28390365265E+03  0.43991727931E+03  0.00000000000E+00 0.  1.
<mgrwt>
<rscale>  0 0.19021907E+04</rscale>
<asrwt>0</asrwt>
<pdfrwt beam="1">  1        2 0.22275145E+00 0.19021907E+04</pdfrwt>
<pdfrwt beam="2">  1       -1 0.96117144E-01 0.19021907E+04</pdfrwt>
<totfact> 0.15121723E+01</totfact>
</mgrwt>
</event>
<event>
12    6  0.1540825E-007  0.1193013E+04  0.7818608E-02  0.9118994E-01
         -1   -1    0    0    0  501 -0.00000000000E+00  0.00000000000E+00  0.31559697345E+03  0.31559697345E+03  0.00000000000E+00 0.  1.
          2   -1    0    0  501    0  0.00000000000E+00 -0.00000000000E+00 -0.11274512386E+04  0.11274512386E+04  0.00000000000E+00 0. -1.
         24    2    1    2    0    0 -0.42149741283E+01 -0.13183775442E+03  0.77399042620E+02  0.17208334802E+03  0.78886674228E+02 0.  0.
        254    2    1    2    0    0  0.42149741283E+01  0.13183775442E+03 -0.88925330776E+03  0.12709648640E+04  0.89843268011E+03 0.  0.
         23    2    4    4    0    0  0.17899061531E+03  0.45305701399E+03 -0.67300404889E+03  0.83529972185E+03  0.86561407173E+02 0.  0.
         23    2    4    4    0    0 -0.17477564118E+03 -0.32121925957E+03 -0.21624925887E+03  0.43566514216E+03  0.96498894620E+02 0.  0.
          2    1    3    3  502    0  0.25629170190E+02 -0.50945449130E+02  0.12400589623E+01  0.57042360557E+02  0.00000000000E+00 0. -1.
         -1    1    3    3    0  502 -0.29844144318E+02 -0.80892305287E+02  0.76158983658E+02  0.11504098746E+03  0.00000000000E+00 0.  1.
         11    1    5    5    0    0  0.16404929645E+03  0.39901907781E+03 -0.54156278000E+03  0.69240063605E+03  0.00000000000E+00 0. -1.
        -11    1    5    5    0    0  0.14941318862E+02  0.54037936179E+02 -0.13144126889E+03  0.14289908580E+03  0.00000000000E+00 0.  1.
          1    1    6    6  503    0 -0.94046886968E+02 -0.17139900974E+03 -0.59674462584E+02  0.20441007552E+03  0.00000000000E+00 0. -1.
         -1    1    6    6    0  503 -0.80728754211E+02 -0.14982024983E+03 -0.15657479629E+03  0.23125506664E+03  0.00000000000E+00 0.  1.
<mgrwt>
<rscale>  0 0.11930133E+04</rscale>
<asrwt>0</asrwt>
<pdfrwt beam="1">  1        2 0.17345404E+00 0.11930133E+04</pdfrwt>
<pdfrwt beam="2">  1       -1 0.48553380E-01 0.11930133E+04</pdfrwt>
<totfact> 0.10007787E+02</totfact>
</mgrwt>
</event>
<event>
12    6  0.1540825E-007  0.1380983E+04  0.7818608E-02  0.8967701E-01
          2   -1    0    0  501    0  0.00000000000E+00  0.00000000000E+00  0.23750010133E+03  0.23750010133E+03  0.00000000000E+00 0. -1.
         -1   -1    0    0    0  501 -0.00000000000E+00 -0.00000000000E+00 -0.20074861818E+04  0.20074861818E+04  0.00000000000E+00 0.  1.
         24    2    1    2    0    0  0.13169632042E+03  0.35628201342E+03 -0.33619798955E+03  0.51346777064E+03  0.79619529080E+02 0.  0.
        254    2    1    2    0    0 -0.13169632042E+03 -0.35628201342E+03 -0.14337880909E+04  0.17315185125E+04  0.89337969280E+03 0.  0.
         23    2    4    4    0    0 -0.40556162981E+03 -0.49832618860E+03 -0.10119112446E+04  0.12017391073E+04  0.86042368256E+02 0.  0.
         23    2    4    4    0    0  0.27386530939E+03  0.14204417518E+03 -0.42187684628E+03  0.52977940519E+03  0.86645192331E+02 0.  0.
          2    1    3    3  502    0  0.13152076659E+03  0.32764985650E+03 -0.28081063751E+03  0.45111722938E+03  0.00000000000E+00 0. -1.
         -1    1    3    3    0  502  0.17555383331E+00  0.28632156922E+02 -0.55387352044E+02  0.62350541261E+02  0.00000000000E+00 0.  1.
         11    1    5    5    0    0 -0.31924801014E+03 -0.38930369626E+03 -0.72200431579E+03  0.88020843663E+03  0.00000000000E+00 0.  1.
        -11    1    5    5    0    0 -0.86313619671E+02 -0.10902249234E+03 -0.28990692884E+03  0.32153067065E+03  0.00000000000E+00 0. -1.
          1    1    6    6  503    0  0.19853056994E+03  0.13463274458E+03 -0.27784761483E+03  0.36706901283E+03  0.00000000000E+00 0. -1.
         -1    1    6    6    0  503  0.75334739450E+02  0.74114305943E+01 -0.14402923145E+03  0.16271039236E+03  0.00000000000E+00 0.  1.
<mgrwt>
<rscale>  0 0.13809825E+04</rscale>
<asrwt>0</asrwt>
<pdfrwt beam="1">  1        2 0.36538477E-01 0.13809825E+04</pdfrwt>
<pdfrwt beam="2">  1       -1 0.30884403E+00 0.13809825E+04</pdfrwt>
<totfact> 0.46276517E+00</totfact>
</mgrwt>
</event>
<event>
12    6  0.1540825E-007  0.1898886E+04  0.7818608E-02  0.8655411E-01
         -1   -1    0    0    0  501 -0.00000000000E+00  0.00000000000E+00  0.65223286676E+03  0.65223286676E+03  0.00000000000E+00 0.  1.
          2   -1    0    0  501    0  0.00000000000E+00 -0.00000000000E+00 -0.13820860847E+04  0.13820860847E+04  0.00000000000E+00 0. -1.
         24    2    1    2    0    0  0.61471543490E+03  0.10053394253E+03 -0.70039525185E+03  0.94135900527E+03  0.87299074915E+02 0.  0.
        254    2    1    2    0    0 -0.61471543490E+03 -0.10053394253E+03 -0.29457966063E+02  0.10929599462E+04  0.89761435632E+03 0.  0.
         23    2    4    4    0    0 -0.41133961905E+03  0.25611996354E+03 -0.31424010567E+03  0.58495518595E+03  0.92887069263E+02 0.  0.
         23    2    4    4    0    0 -0.20337581584E+03 -0.35665390606E+03  0.28478213961E+03  0.50800476022E+03  0.91674632180E+02 0.  0.
          2    1    3    3  502    0  0.58934500004E+03  0.89916893324E+02 -0.63808783631E+03  0.87325177562E+03  0.00000000000E+00 0. -1.
         -1    1    3    3    0  502  0.25370434856E+02  0.10617049202E+02 -0.62307415544E+02  0.68107229648E+02  0.00000000000E+00 0.  1.
         11    1    5    5    0    0 -0.40444502874E+03  0.26393198918E+03 -0.30830283718E+03  0.57296292689E+03  0.00000000000E+00 0. -1.
        -11    1    5    5    0    0 -0.68945903153E+01 -0.78120256394E+01 -0.59372684876E+01  0.11992259057E+02  0.00000000000E+00 0.  1.
          2    1    6    6  503    0 -0.11684638920E+03 -0.13231010643E+03  0.15418160382E+03  0.23437365442E+03  0.00000000000E+00 0. -1.
         -2    1    6    6    0  503 -0.86529426647E+02 -0.22434379964E+03  0.13060053579E+03  0.27363110580E+03  0.00000000000E+00 0.  1.
<mgrwt>
<rscale>  0 0.18988860E+04</rscale>
<asrwt>0</asrwt>
<pdfrwt beam="1">  1        2 0.21262863E+00 0.18988860E+04</pdfrwt>
<pdfrwt beam="2">  1       -1 0.10034352E+00 0.18988860E+04</pdfrwt>
<totfact> 0.14958682E+01</totfact>
</mgrwt>
</event>
<event>
12    6  0.1540825E-007  0.1763995E+04  0.7818608E-02  0.8725684E-01
         -1   -1    0    0    0  501 -0.00000000000E+00  0.00000000000E+00  0.45660151947E+03  0.45660151947E+03  0.00000000000E+00 0.  1.
          2   -1    0    0  501    0  0.00000000000E+00 -0.00000000000E+00 -0.17037162164E+04  0.17037162164E+04  0.00000000000E+00 0. -1.
         24    2    1    2    0    0 -0.15078643018E+02 -0.55814273908E+03 -0.84158119203E+03  0.10131688044E+04  0.80631512738E+02 0.  0.
        254    2    1    2    0    0  0.15078643018E+02  0.55814273908E+03 -0.40553350491E+03  0.11471489314E+04  0.91637468573E+03 0.  0.
         23    2    4    4    0    0 -0.25849552281E+03  0.49992983774E+03 -0.57347573379E+03  0.80861018036E+03  0.90698558772E+02 0.  0.
         23    2    4    4    0    0  0.27357416583E+03  0.58212901336E+02  0.16794222888E+03  0.33853875108E+03  0.90400927286E+02 0.  0.
          2    1    3    3  502    0  0.28407863819E+02 -0.29732340641E+03 -0.47700337431E+03  0.56279697390E+03  0.00000000000E+00 0. -1.
         -1    1    3    3    0  502 -0.43486506836E+02 -0.26081933266E+03 -0.36457781772E+03  0.45037183054E+03  0.00000000000E+00 0.  1.
         11    1    5    5    0    0 -0.26055372052E+03  0.45947914665E+03 -0.54586953410E+03  0.75959388870E+03  0.00000000000E+00 0.  1.
        -11    1    5    5    0    0  0.20581977116E+01  0.40450691088E+02 -0.27606199687E+02  0.49016291664E+02  0.00000000000E+00 0. -1.
          4    1    6    6  503    0  0.79767734718E+02 -0.18122852524E+02  0.72945879589E+02  0.10960123464E+03  0.00000000000E+00 0. -1.
         -4    1    6    6    0  503  0.19380643111E+03  0.76335753860E+02  0.94996349289E+02  0.22893751644E+03  0.00000000000E+00 0.  1.
<mgrwt>
<rscale>  0 0.17639948E+04</rscale>
<asrwt>0</asrwt>
<pdfrwt beam="1">  1        2 0.26211019E+00 0.17639948E+04</pdfrwt>
<pdfrwt beam="2">  1       -1 0.70246388E-01 0.17639948E+04</pdfrwt>
<totfact> 0.21560888E+01</totfact>
</mgrwt>
</event>
<event>
12    6  0.1540825E-007  0.1681509E+04  0.7818608E-02  0.8771981E-01
          2   -1    0    0  501    0  0.00000000000E+00  0.00000000000E+00  0.10312418418E+04  0.10312418418E+04  0.00000000000E+00 0. -1.
         -1   -1    0    0    0  501 -0.00000000000E+00 -0.00000000000E+00 -0.68545350183E+03  0.68545350183E+03  0.00000000000E+00 0.  1.
         24    2    1    2    0    0  0.22402938639E+03 -0.58445471812E+03  0.21309710329E+03  0.66599650691E+03  0.79777743080E+02 0.  0.
        254    2    1    2    0    0 -0.22402938639E+03  0.58445471812E+03  0.13269123674E+03  0.10506988368E+04  0.83341742109E+03 0.  0.
         23    2    4    4    0    0 -0.63850834811E+02  0.31084845452E+03  0.47318725879E+03  0.57694982818E+03  0.90891317412E+02 0.  0.
         23    2    4    4    0    0 -0.16017855158E+03  0.27360626360E+03 -0.34049602205E+03  0.47374900858E+03  0.89347782465E+02 0.  0.
          2    1    3    3  502    0  0.15022056554E+03 -0.37814253605E+03  0.17786238403E+03  0.44406421106E+03  0.00000000000E+00 0. -1.
         -1    1    3    3    0  502  0.73808820849E+02 -0.20631218206E+03  0.35234719251E+02  0.22193229585E+03  0.00000000000E+00 0.  1.
         11    1    5    5    0    0 -0.82224587485E+02  0.27262323995E+03  0.38269017962E+03  0.47700742900E+03  0.00000000000E+00 0.  1.
        -11    1    5    5    0    0  0.18373752674E+02  0.38225214572E+02  0.90497079171E+02  0.99942399185E+02  0.00000000000E+00 0. -1.
          4    1    6    6  503    0 -0.27403208623E+02  0.95656592464E+02 -0.15619424376E+03  0.18519654778E+03  0.00000000000E+00 0. -1.
         -4    1    6    6    0  503 -0.13277534296E+03  0.17794967113E+03 -0.18430177829E+03  0.28855246080E+03  0.00000000000E+00 0.  1.
<mgrwt>
<rscale>  0 0.16815092E+04</rscale>
<asrwt>0</asrwt>
<pdfrwt beam="1">  1        2 0.15865259E+00 0.16815092E+04</pdfrwt>
<pdfrwt beam="2">  1       -1 0.10545438E+00 0.16815092E+04</pdfrwt>
<totfact> 0.22045503E+01</totfact>
</mgrwt>
</event>
<event>
12    6  0.1540825E-007  0.1280830E+04  0.7818608E-02  0.9044906E-01
          2   -1    0    0  501    0  0.00000000000E+00  0.00000000000E+00  0.14167709337E+04  0.14167709337E+04  0.00000000000E+00 0. -1.
         -1   -1    0    0    0  501 -0.00000000000E+00 -0.00000000000E+00 -0.28948336664E+03  0.28948336664E+03  0.00000000000E+00 0.  1.
         24    2    1    2    0    0  0.17960083409E+03  0.25299088829E+03  0.35372128944E+03  0.47711865714E+03  0.79136674350E+02 0.  0.
        254    2    1    2    0    0 -0.17960083409E+03 -0.25299088829E+03  0.77356627764E+03  0.12291356432E+04  0.90338739993E+03 0.  0.
         23    2    4    4    0    0 -0.21810755384E+03 -0.34487515610E+03  0.93051211479E+03  0.10201927930E+04  0.91819174000E+02 0.  0.
         23    2    4    4    0    0  0.38506719745E+02  0.91884267809E+02 -0.15694583715E+03  0.20894285025E+03  0.95391995128E+02 0.  0.
          4    1    3    3  502    0  0.15339221764E+03  0.22028930450E+03  0.33963404422E+03  0.43290626480E+03  0.00000000000E+00 0. -1.
         -3    1    3    3    0  502  0.26208616451E+02  0.32701583789E+02  0.14087245215E+02  0.44212392339E+02  0.00000000000E+00 0.  1.
         11    1    5    5    0    0 -0.18928135820E+03 -0.32244875587E+03  0.77541735242E+03  0.86085579696E+03  0.00000000000E+00 0.  1.
        -11    1    5    5    0    0 -0.28826195635E+02 -0.22426400231E+02  0.15509476237E+03  0.15933699600E+03  0.00000000000E+00 0. -1.
          3    1    6    6  503    0  0.43385824172E+01 -0.19018599608E+02 -0.10701586581E+02  0.22249817613E+02  0.00000000000E+00 0. -1.
         -3    1    6    6    0  503  0.34168137328E+02  0.11090286742E+03 -0.14624425057E+03  0.18669303263E+03  0.00000000000E+00 0.  1.
<mgrwt>
<rscale>  0 0.12808304E+04</rscale>
<asrwt>0</asrwt>
<pdfrwt beam="1">  1        2 0.21796476E+00 0.12808304E+04</pdfrwt>
<pdfrwt beam="2">  1       -1 0.44535903E-01 0.12808304E+04</pdfrwt>
<totfact> 0.79021279E+01</totfact>
</mgrwt>
</event>
<event>
12    6  0.1540825E-007  0.1502088E+04  0.7818608E-02  0.8883066E-01
         -1   -1    0    0    0  501 -0.00000000000E+00  0.00000000000E+00  0.42063380654E+03  0.42063380654E+03  0.00000000000E+00 0.  1.
          2   -1    0    0  501    0  0.00000000000E+00 -0.00000000000E+00 -0.13409928864E+04  0.13409928864E+04  0.00000000000E+00 0. -1.
         24    2    1    2    0    0 -0.49081365158E+02 -0.46144032751E+03 -0.30211264994E+03  0.55938053760E+03  0.79362310509E+02 0.  0.
        254    2    1    2    0    0  0.49081365158E+02  0.46144032751E+03 -0.61824642989E+03  0.12022461553E+04  0.92077739635E+03 0.  0.
         23    2    4    4    0    0 -0.39174386945E+03  0.31594022452E+03 -0.14348414247E+03  0.53110447767E+03  0.90569212989E+02 0.  0.
         23    2    4    4    0    0  0.44082523461E+03  0.14550010299E+03 -0.47476228742E+03  0.67114167764E+03  0.97646067321E+02 0.  0.
          2    1    3    3  502    0  0.72701485247E+01 -0.73471810377E+01 -0.18053717793E+02  0.20803193383E+02  0.00000000000E+00 0. -1.
         -1    1    3    3    0  502 -0.56351513683E+02 -0.45409314647E+03 -0.28405893215E+03  0.53857734421E+03  0.00000000000E+00 0.  1.
         11    1    5    5    0    0 -0.16613339450E+03  0.19105818546E+03 -0.80197558809E+02  0.26558460693E+03  0.00000000000E+00 0.  1.
        -11    1    5    5    0    0 -0.22561047495E+03  0.12488203905E+03 -0.63286583660E+02  0.26551987074E+03  0.00000000000E+00 0. -1.
          3    1    6    6  503    0  0.15437396552E+03  0.10066701568E+03 -0.19249073898E+03  0.26649175197E+03  0.00000000000E+00 0. -1.
         -3    1    6    6    0  503  0.28645126909E+03  0.44833087318E+02 -0.28227154844E+03  0.40464992566E+03  0.00000000000E+00 0.  1.
<mgrwt>
<rscale>  0 0.15020878E+04</rscale>
<asrwt>0</asrwt>
<pdfrwt beam="1">  1        2 0.20630660E+00 0.15020878E+04</pdfrwt>
<pdfrwt beam="2">  1       -1 0.64712892E-01 0.15020878E+04</pdfrwt>
<totfact> 0.41720842E+01</totfact>
</mgrwt>
</event>
<event>
12    6  0.1540825E-007  0.2059057E+04  0.7818608E-02  0.8579497E-01
         -1   -1    0    0    0  501 -0.00000000000E+00  0.00000000000E+00  0.75200696789E+03  0.75200696789E+03  0.00000000000E+00 0.  1.
          2   -1    0    0  501    0  0.00000000000E+00 -0.00000000000E+00 -0.14094669498E+04  0.14094669498E+04  0.00000000000E+00 0. -1.
         24    2    1    2    0    0  0.57542225378E+02 -0.76746130905E+03  0.56465285359E+02  0.77651960824E+03  0.86524013640E+02 0.  0.
        254    2    1    2    0    0 -0.57542225378E+02  0.76746130905E+03 -0.71392526727E+03  0.13849543095E+04  0.90338318749E+03 0.  0.
         23    2    4    4    0    0 -0.29534569213E+03  0.62330311431E+03 -0.97749472838E+02  0.70269583470E+03  0.92144595562E+02 0.  0.
         23    2    4    4    0    0  0.23780346675E+03  0.14415819474E+03 -0.61617579443E+03  0.68225847475E+03  0.92043157378E+02 0.  0.
          4    1    3    3  502    0 -0.19490913498E+02 -0.74095163080E+02  0.12337415016E+00  0.76615952139E+02  0.00000000000E+00 0. -1.
         -3    1    3    3    0  502  0.77033138876E+02 -0.69336614597E+03  0.56341911209E+02  0.69990365610E+03  0.00000000000E+00 0.  1.
         11    1    5    5    0    0 -0.15557273984E+03  0.22349649689E+03 -0.40680428008E+02  0.27533335927E+03  0.00000000000E+00 0. -1.
        -11    1    5    5    0    0 -0.13977295229E+03  0.39980661743E+03 -0.57069044830E+02  0.42736247543E+03  0.00000000000E+00 0.  1.
          1    1    6    6  503    0  0.24118906934E+03  0.12185513339E+03 -0.56279858313E+03  0.62431008791E+03  0.00000000000E+00 0. -1.
         -1    1    6    6    0  503 -0.33856025907E+01  0.22303061349E+02 -0.53377211306E+02  0.57948386839E+02  0.00000000000E+00 0.  1.
<mgrwt>
<rscale>  0 0.20590570E+04</rscale>
<asrwt>0</asrwt>
<pdfrwt beam="1">  1        2 0.21684107E+00 0.20590570E+04</pdfrwt>
<pdfrwt beam="2">  1       -1 0.11569338E+00 0.20590570E+04</pdfrwt>
<totfact> 0.10188019E+01</totfact>
</mgrwt>
</event>
<event>
12    6  0.1540825E-007  0.1088824E+04  0.7818608E-02  0.9216154E-01
         -1   -1    0    0    0  501 -0.00000000000E+00  0.00000000000E+00  0.22670566112E+03  0.22670566112E+03  0.00000000000E+00 0.  1.
          2   -1    0    0  501    0  0.00000000000E+00 -0.00000000000E+00 -0.13073527363E+04  0.13073527363E+04  0.00000000000E+00 0. -1.
         24    2    1    2    0    0  0.17038591759E+02  0.15307772810E+02 -0.36543847860E+03  0.37473697058E+03  0.79736277575E+02 0.  0.
        254    2    1    2    0    0 -0.17038591759E+02 -0.15307772810E+02 -0.71520859657E+03  0.11593214268E+04  0.91212838602E+03 0.  0.
         23    2    4    4    0    0  0.19747176648E+03  0.15476886197E+03 -0.81197704233E+03  0.85480734815E+03  0.91871573388E+02 0.  0.
         23    2    4    4    0    0 -0.21451035824E+03 -0.17007663478E+03  0.96768445761E+02  0.30451407867E+03  0.91782005471E+02 0.  0.
          2    1    3    3  502    0 -0.58297983035E+01  0.24027085266E+02 -0.33391017494E+03  0.33482427078E+03  0.00000000000E+00 0. -1.
         -1    1    3    3    0  502  0.22868390063E+02 -0.87193124560E+01 -0.31528303658E+02  0.39912699800E+02  0.00000000000E+00 0.  1.
         11    1    5    5    0    0  0.15175187218E+03  0.63360747799E+02 -0.47410535815E+03  0.50181580854E+03  0.00000000000E+00 0.  1.
        -11    1    5    5    0    0  0.45719894300E+02  0.91408114168E+02 -0.33787168418E+03  0.35299153962E+03  0.00000000000E+00 0. -1.
          4    1    6    6  503    0 -0.12436550837E+03 -0.14202594701E+03  0.91949059190E+02  0.20998280592E+03  0.00000000000E+00 0. -1.
         -4    1    6    6    0  503 -0.90144849864E+02 -0.28050687765E+02  0.48193865708E+01  0.94531272752E+02  0.00000000000E+00 0.  1.
<mgrwt>
<rscale>  0 0.10888237E+04</rscale>
<asrwt>0</asrwt>
<pdfrwt beam="1">  1        2 0.20113119E+00 0.10888237E+04</pdfrwt>
<pdfrwt beam="2">  1       -1 0.34877794E-01 0.10888237E+04</pdfrwt>
<totfact> 0.14458257E+02</totfact>
</mgrwt>
</event>
<event>
12    6  0.1540825E-007  0.2047203E+04  0.7818608E-02  0.8584864E-01
         -1   -1    0    0    0  501 -0.00000000000E+00  0.00000000000E+00  0.10760437940E+04  0.10760437940E+04  0.00000000000E+00 0.  1.
          2   -1    0    0  501    0  0.00000000000E+00 -0.00000000000E+00 -0.97371540462E+03  0.97371540462E+03  0.00000000000E+00 0. -1.
         24    2    1    2    0    0 -0.61460031688E+03  0.17767248658E+03  0.56427801789E+03  0.85684578829E+03  0.80460931181E+02 0.  0.
        254    2    1    2    0    0  0.61460031688E+03 -0.17767248658E+03 -0.46194962849E+03  0.11929134103E+04  0.89461940694E+03 0.  0.
         23    2    4    4    0    0  0.39648496089E+03  0.86831522146E+02 -0.66518423030E+03  0.78428256282E+03  0.88820271688E+02 0.  0.
         23    2    4    4    0    0  0.21811535599E+03 -0.26450400873E+03  0.20323460180E+03  0.40863084751E+03  0.90211900608E+02 0.  0.
          2    1    3    3  502    0 -0.52218585155E+01  0.49195981476E+00 -0.26533868865E+01  0.58779497092E+01  0.00000000000E+00 0. -1.
         -1    1    3    3    0  502 -0.60937845837E+03  0.17718052676E+03  0.56693140477E+03  0.85096783858E+03  0.00000000000E+00 0.  1.
         11    1    5    5    0    0  0.31266254696E+03  0.93142072507E+02 -0.57422135865E+03  0.66042674285E+03  0.00000000000E+00 0. -1.
        -11    1    5    5    0    0  0.83822413933E+02 -0.63105503604E+01 -0.90962871651E+02  0.12385581998E+03  0.00000000000E+00 0.  1.
          1    1    6    6  503    0  0.17176805984E+03 -0.18324034614E+03  0.10282264740E+03  0.27139231318E+03  0.00000000000E+00 0. -1.
         -1    1    6    6    0  503  0.46347296155E+02 -0.81263662591E+02  0.10041195440E+03  0.13723853433E+03  0.00000000000E+00 0.  1.
<mgrwt>
<rscale>  0 0.20472034E+04</rscale>
<asrwt>0</asrwt>
<pdfrwt beam="1">  1        2 0.14980237E+00 0.20472034E+04</pdfrwt>
<pdfrwt beam="2">  1       -1 0.16554520E+00 0.20472034E+04</pdfrwt>
<totfact> 0.73423946E+00</totfact>
</mgrwt>
</event>
<event>
12    6  0.1540825E-007  0.1141540E+04  0.7818608E-02  0.9165624E-01
         -1   -1    0    0    0  501 -0.00000000000E+00  0.00000000000E+00  0.17018820844E+03  0.17018820844E+03  0.00000000000E+00 0.  1.
          2   -1    0    0  501    0  0.00000000000E+00 -0.00000000000E+00 -0.19142239997E+04  0.19142239997E+04  0.00000000000E+00 0. -1.
         24    2    1    2    0    0  0.85607378142E+02 -0.88879690668E+02 -0.40859979520E+02  0.15209722487E+03  0.78967115184E+02 0.  0.
        254    2    1    2    0    0 -0.85607378142E+02  0.88879690668E+02 -0.17031758117E+04  0.19323149833E+04  0.90432578547E+03 0.  0.
         23    2    4    4    0    0 -0.29667105516E+03 -0.16648953350E+03 -0.23409224592E+03  0.42343086160E+03  0.93605743508E+02 0.  0.
         23    2    4    4    0    0  0.21106367702E+03  0.25536922417E+03 -0.14690835658E+04  0.15088841217E+04  0.93613315585E+02 0.  0.
          2    1    3    3  502    0  0.29349139949E+01 -0.12528925854E+02 -0.37352976292E+02  0.39507373249E+02  0.00000000000E+00 0. -1.
         -1    1    3    3    0  502  0.82672464147E+02 -0.76350764814E+02 -0.35070032284E+01  0.11258985162E+03  0.00000000000E+00 0.  1.
         11    1    5    5    0    0 -0.24247030325E+03 -0.10093644407E+03 -0.20620712720E+03  0.33391824300E+03  0.00000000000E+00 0.  1.
        -11    1    5    5    0    0 -0.54200751916E+02 -0.65553089436E+02 -0.27885118712E+02  0.89512618598E+02  0.00000000000E+00 0. -1.
          2    1    6    6  503    0  0.71530666383E+02  0.15679930162E+03 -0.67770373822E+03  0.69927463418E+03  0.00000000000E+00 0. -1.
         -2    1    6    6    0  503  0.13953301064E+03  0.98569922556E+02 -0.79137982759E+03  0.80960948747E+03  0.00000000000E+00 0.  1.
<mgrwt>
<rscale>  0 0.11415399E+04</rscale>
<asrwt>0</asrwt>
<pdfrwt beam="1">  1        2 0.29449598E+00 0.11415399E+04</pdfrwt>
<pdfrwt beam="2">  1       -1 0.26182803E-01 0.11415399E+04</pdfrwt>
<totfact> 0.10894146E+02</totfact>
</mgrwt>
</event>
<event>
12    6  0.1540825E-007  0.1599400E+04  0.7818608E-02  0.8820917E-01
          2   -1    0    0  501    0  0.00000000000E+00  0.00000000000E+00  0.16219156308E+04  0.16219156308E+04  0.00000000000E+00 0. -1.
         -1   -1    0    0    0  501 -0.00000000000E+00 -0.00000000000E+00 -0.39429921013E+03  0.39429921013E+03  0.00000000000E+00 0.  1.
         24    2    1    2    0    0 -0.32784068608E+03  0.28035404583E+03  0.82814990361E+03  0.93703521504E+03  0.78261260597E+02 0.  0.
        254    2    1    2    0    0  0.32784068608E+03 -0.28035404583E+03  0.39946651711E+03  0.10791796259E+04  0.90497362407E+03 0.  0.
         23    2    4    4    0    0  0.17569732585E+03  0.89273428204E+02 -0.23682793809E+03  0.32252174844E+03  0.95359900725E+02 0.  0.
         23    2    4    4    0    0  0.15214336024E+03 -0.36962747404E+03  0.63629445520E+03  0.75665787749E+03  0.88816880292E+02 0.  0.
          2    1    3    3  502    0 -0.29358493002E+03  0.21609260776E+03  0.71312500397E+03  0.80089662101E+03  0.00000000000E+00 0. -1.
         -1    1    3    3    0  502 -0.34255756065E+02  0.64261438070E+02  0.11502489964E+03  0.13613859402E+03  0.00000000000E+00 0.  1.
         11    1    5    5    0    0  0.69281046808E+02  0.44614160035E+02 -0.33964500466E+02  0.89128413059E+02  0.00000000000E+00 0. -1.
        -11    1    5    5    0    0  0.10641627904E+03  0.44659268169E+02 -0.20286343762E+03  0.23339333538E+03  0.00000000000E+00 0.  1.
          4    1    6    6  503    0  0.51477379451E+01 -0.11532502479E+03  0.16682241770E+03  0.20286961231E+03  0.00000000000E+00 0. -1.
         -4    1    6    6    0  503  0.14699562229E+03 -0.25430244925E+03  0.46947203749E+03  0.55378826518E+03  0.00000000000E+00 0.  1.
<mgrwt>
<rscale>  0 0.15994000E+04</rscale>
<asrwt>0</asrwt>
<pdfrwt beam="1">  1        2 0.24952548E+00 0.15994000E+04</pdfrwt>
<pdfrwt beam="2">  1       -1 0.60661418E-01 0.15994000E+04</pdfrwt>
<totfact> 0.32642217E+01</totfact>
</mgrwt>
</event>
<event>
12    6  0.1540825E-007  0.1715839E+04  0.7818608E-02  0.8752382E-01
         -1   -1    0    0    0  501 -0.00000000000E+00  0.00000000000E+00  0.17159378675E+03  0.17159378675E+03  0.00000000000E+00 0.  1.
          2   -1    0    0  501    0  0.00000000000E+00 -0.00000000000E+00 -0.42893521070E+04  0.42893521070E+04  0.00000000000E+00 0. -1.
         24    2    1    2    0    0 -0.19038360897E+03 -0.65237976587E+02 -0.30184585674E+04  0.30261704394E+04  0.78188829529E+02 0.  0.
        254    2    1    2    0    0  0.19038360897E+03  0.65237976587E+02 -0.10992997528E+04  0.14347754543E+04  0.89978816708E+03 0.  0.
         23    2    4    4    0    0 -0.32703317041E+03  0.10060890339E+03 -0.66113701660E+03  0.74988026773E+03  0.90251954128E+02 0.  0.
         23    2    4    4    0    0  0.51741677938E+03 -0.35370926802E+02 -0.43816273622E+03  0.68489518660E+03  0.90131055462E+02 0.  0.
          4    1    3    3  502    0 -0.17466671965E+03 -0.64472721487E+02 -0.29523497121E+04  0.29582146672E+04  0.00000000000E+00 0. -1.
         -3    1    3    3    0  502 -0.15716889323E+02 -0.76525510062E+00 -0.66108855313E+02  0.67955772206E+02  0.00000000000E+00 0.  1.
         11    1    5    5    0    0 -0.25965748496E+03  0.11464354793E+03 -0.55525485294E+03  0.62359690850E+03  0.00000000000E+00 0. -1.
        -11    1    5    5    0    0 -0.67375685443E+02 -0.14034644543E+02 -0.10588216366E+03  0.12628335922E+03  0.00000000000E+00 0.  1.
          4    1    6    6  503    0  0.19801883029E+02  0.58254667250E+01 -0.44516003460E+02  0.49068576484E+02  0.00000000000E+00 0.  1.
         -4    1    6    6    0  503  0.49761489635E+03 -0.41196393527E+02 -0.39364673276E+03  0.63582661011E+03  0.00000000000E+00 0. -1.
<mgrwt>
<rscale>  0 0.17158394E+04</rscale>
<asrwt>0</asrwt>
<pdfrwt beam="1">  1        2 0.65990030E+00 0.17158394E+04</pdfrwt>
<pdfrwt beam="2">  1       -1 0.26399045E-01 0.17158394E+04</pdfrwt>
<totfact> 0.27344706E+00</totfact>
</mgrwt>
</event>
<event>
12    6  0.1540825E-007  0.1245735E+04  0.7818608E-02  0.9073740E-01
         -1   -1    0    0    0  501 -0.00000000000E+00  0.00000000000E+00  0.19183003688E+03  0.19183003688E+03  0.00000000000E+00 0.  1.
          2   -1    0    0  501    0  0.00000000000E+00 -0.00000000000E+00 -0.20224357992E+04  0.20224357992E+04  0.00000000000E+00 0. -1.
         24    2    1    2    0    0  0.18404189488E+03  0.20412839315E+03 -0.25139244894E+03  0.38104069636E+03  0.80336971171E+02 0.  0.
        254    2    1    2    0    0 -0.18404189488E+03 -0.20412839315E+03 -0.15792133134E+04  0.18332251398E+04  0.88952791064E+03 0.  0.
         23    2    4    4    0    0 -0.30846280856E+03 -0.50113959181E+03 -0.10342600313E+04  0.11933397703E+04  0.89865457284E+02 0.  0.
         23    2    4    4    0    0  0.12442091368E+03  0.29701119866E+03 -0.54495328217E+03  0.63988536945E+03  0.93717609864E+02 0.  0.
          2    1    3    3  502    0  0.90386633798E+02  0.54309976764E+02 -0.63343226546E+02  0.12301089990E+03  0.00000000000E+00 0. -1.
         -1    1    3    3    0  502  0.93655261081E+02  0.14981841638E+03 -0.18804922239E+03  0.25802979646E+03  0.00000000000E+00 0.  1.
         11    1    5    5    0    0 -0.84650135910E+01 -0.58532876265E+02 -0.79991331232E+02  0.99480486183E+02  0.00000000000E+00 0.  1.
        -11    1    5    5    0    0 -0.29999779497E+03 -0.44260671554E+03 -0.95426870002E+03  0.10938592841E+04  0.00000000000E+00 0. -1.
          1    1    6    6  503    0  0.87018419267E+02  0.28188263341E+03 -0.47684746026E+03  0.56072589085E+03  0.00000000000E+00 0. -1.
         -1    1    6    6    0  503  0.37402494415E+02  0.15128565254E+02 -0.68105821908E+02  0.79159478604E+02  0.00000000000E+00 0.  1.
<mgrwt>
<rscale>  0 0.12457350E+04</rscale>
<asrwt>0</asrwt>
<pdfrwt beam="1">  1        2 0.31114398E+00 0.12457350E+04</pdfrwt>
<pdfrwt beam="2">  1       -1 0.29512312E-01 0.12457350E+04</pdfrwt>
<totfact> 0.76495705E+01</totfact>
</mgrwt>
</event>
<event>
12    6  0.1540825E-007  0.2350742E+04  0.7818608E-02  0.8458179E-01
         -1   -1    0    0    0  501 -0.00000000000E+00  0.00000000000E+00  0.95380540657E+03  0.95380540657E+03  0.00000000000E+00 0.  1.
          2   -1    0    0  501    0  0.00000000000E+00 -0.00000000000E+00 -0.14484056358E+04  0.14484056358E+04  0.00000000000E+00 0. -1.
         24    2    1    2    0    0 -0.45458377058E+03 -0.58293188853E+03 -0.89364308439E+03  0.11618756626E+04  0.70007870283E+02 0.  0.
        254    2    1    2    0    0  0.45458377058E+03  0.58293188853E+03  0.39904285514E+03  0.12403353798E+04  0.91254625251E+03 0.  0.
         23    2    4    4    0    0  0.15410319637E+03 -0.21752205456E+02 -0.24482573191E+03  0.30377454654E+03  0.90102067376E+02 0.  0.
         23    2    4    4    0    0  0.30048057421E+03  0.60468409399E+03  0.64386858706E+03  0.93656083325E+03  0.81535317381E+02 0.  0.
          4    1    3    3  502    0 -0.37039086877E+03 -0.50027374599E+03 -0.78144306418E+03  0.99905779570E+03  0.00000000000E+00 0. -1.
         -3    1    3    3    0  502 -0.84192901810E+02 -0.82658142544E+02 -0.11220002021E+03  0.16281786689E+03  0.00000000000E+00 0.  1.
         11    1    5    5    0    0  0.13907601166E+03  0.14746040173E+02 -0.19999242838E+03  0.24404211548E+03  0.00000000000E+00 0.  1.
        -11    1    5    5    0    0  0.15027184708E+02 -0.36498245629E+02 -0.44833303535E+02  0.59732431058E+02  0.00000000000E+00 0. -1.
          3    1    6    6  503    0  0.50449750985E+02  0.15746361520E+03  0.12434724272E+03  0.20688693592E+03  0.00000000000E+00 0. -1.
         -3    1    6    6    0  503  0.25003082323E+03  0.44722047879E+03  0.51952134434E+03  0.72967389733E+03  0.00000000000E+00 0.  1.
<mgrwt>
<rscale>  0 0.23507421E+04</rscale>
<asrwt>0</asrwt>
<pdfrwt beam="1">  1        2 0.22283164E+00 0.23507421E+04</pdfrwt>
<pdfrwt beam="2">  1       -1 0.14673929E+00 0.23507421E+04</pdfrwt>
<totfact> 0.51695475E+00</totfact>
</mgrwt>
</event>
<event>
12    6  0.1540825E-007  0.2847573E+04  0.7818608E-02  0.8288649E-01
         -1   -1    0    0    0  501 -0.00000000000E+00  0.00000000000E+00  0.10385468694E+04  0.10385468694E+04  0.00000000000E+00 0.  1.
          2   -1    0    0  501    0  0.00000000000E+00 -0.00000000000E+00 -0.19519278564E+04  0.19519278564E+04  0.00000000000E+00 0. -1.
         24    2    1    2    0    0  0.61611266256E+03  0.40961906708E+03 -0.14974336422E+04  0.16721344484E+04  0.79646140565E+02 0.  0.
        254    2    1    2    0    0 -0.61611266256E+03 -0.40961906708E+03  0.58405265512E+03  0.13183402774E+04  0.92169462951E+03 0.  0.
         23    2    4    4    0    0 -0.17641243854E+02 -0.25882128931E+03 -0.18264651655E+03  0.32995190153E+03  0.90602616016E+02 0.  0.
         23    2    4    4    0    0 -0.59847141871E+03 -0.15079777777E+03  0.76669917167E+03  0.98838837590E+03  0.90420976545E+02 0.  0.
          4    1    3    3  502    0  0.22046041953E+03  0.13779261220E+03 -0.61242207924E+03  0.66531977552E+03  0.00000000000E+00 0. -1.
         -3    1    3    3    0  502  0.39565224303E+03  0.27182645489E+03 -0.88501156293E+03  0.10068146729E+04  0.00000000000E+00 0.  1.
         11    1    5    5    0    0  0.23123641304E+02 -0.17672367478E+02 -0.10793753535E+02  0.31040626199E+02  0.00000000000E+00 0.  1.
        -11    1    5    5    0    0 -0.40764885158E+02 -0.24114892184E+03 -0.17185276301E+03  0.29891127533E+03  0.00000000000E+00 0. -1.
          2    1    6    6  503    0 -0.48321698534E+03 -0.84540638404E+02  0.59118315659E+03  0.76820784889E+03  0.00000000000E+00 0. -1.
         -2    1    6    6    0  503 -0.11525443337E+03 -0.66257139365E+02  0.17551601507E+03  0.22018052701E+03  0.00000000000E+00 0.  1.
<mgrwt>
<rscale>  0 0.28475734E+04</rscale>
<asrwt>0</asrwt>
<pdfrwt beam="1">  1        2 0.30029659E+00 0.28475734E+04</pdfrwt>
<pdfrwt beam="2">  1       -1 0.15977644E+00 0.28475734E+04</pdfrwt>
<totfact> 0.20557430E+00</totfact>
</mgrwt>
</event>
<event>
12    6  0.1540825E-007  0.1338115E+04  0.7818608E-02  0.8999874E-01
         -1   -1    0    0    0  501 -0.00000000000E+00  0.00000000000E+00  0.55527398987E+03  0.55527398987E+03  0.00000000000E+00 0.  1.
          2   -1    0    0  501    0  0.00000000000E+00 -0.00000000000E+00 -0.80615646783E+03  0.80615646783E+03  0.00000000000E+00 0. -1.
         24    2    1    2    0    0 -0.17396208603E+03  0.94152000784E+02  0.24051255296E+03  0.32154554874E+03  0.80111454589E+02 0.  0.
        254    2    1    2    0    0  0.17396208603E+03 -0.94152000784E+02 -0.49139503093E+03  0.10398849090E+04  0.89485425675E+03 0.  0.
         23    2    4    4    0    0  0.88564361280E+02  0.21650565716E+03 -0.63042494096E+03  0.67848716666E+03  0.90503499797E+02 0.  0.
         23    2    4    4    0    0  0.85397724750E+02 -0.31065765794E+03  0.13902991003E+03  0.36139774230E+03  0.86475779404E+02 0.  0.
          2    1    3    3  502    0 -0.26441584625E+02  0.53312526211E+02  0.80510051332E+02  0.10011618857E+03  0.00000000000E+00 0. -1.
         -1    1    3    3    0  502 -0.14752050140E+03  0.40839474573E+02  0.16000250163E+03  0.22142936017E+03  0.00000000000E+00 0.  1.
         11    1    5    5    0    0  0.74631001405E+02  0.19928118525E+03 -0.46248800940E+03  0.50909521311E+03  0.00000000000E+00 0. -1.
        -11    1    5    5    0    0  0.13933359875E+02  0.17224471903E+02 -0.16793693155E+03  0.16939195355E+03  0.00000000000E+00 0.  1.
          1    1    6    6  503    0  0.50515706269E+02 -0.26292221481E+03  0.14029412090E+03  0.30226208492E+03  0.00000000000E+00 0. -1.
         -1    1    6    6    0  503  0.34882018481E+02 -0.47735443130E+02 -0.12642108703E+01  0.59135657376E+02  0.00000000000E+00 0.  1.
<mgrwt>
<rscale>  0 0.13381147E+04</rscale>
<asrwt>0</asrwt>
<pdfrwt beam="1">  1        2 0.12402407E+00 0.13381147E+04</pdfrwt>
<pdfrwt beam="2">  1       -1 0.85426767E-01 0.13381147E+04</pdfrwt>
<totfact> 0.51556619E+01</totfact>
</mgrwt>
</event>
<event>
12    6  0.1540825E-007  0.1778869E+04  0.7818608E-02  0.8717618E-01
          2   -1    0    0  501    0  0.00000000000E+00  0.00000000000E+00  0.22202694098E+04  0.22202694098E+04  0.00000000000E+00 0. -1.
         -1   -1    0    0    0  501 -0.00000000000E+00 -0.00000000000E+00 -0.35630529379E+03  0.35630529379E+03  0.00000000000E+00 0.  1.
         24    2    1    2    0    0  0.41468949012E+02  0.60548038853E+03  0.10165055404E+04  0.11877158616E+04  0.95180248129E+02 0.  0.
        254    2    1    2    0    0 -0.41468949012E+02 -0.60548038853E+03  0.84745857562E+03  0.13888588420E+04  0.91783259418E+03 0.  0.
         23    2    4    4    0    0  0.60201849500E+02 -0.45932963069E+03 -0.45547462233E+02  0.47353325791E+03  0.86897656601E+02 0.  0.
         23    2    4    4    0    0 -0.10167079851E+03 -0.14615075784E+03  0.89300603786E+03  0.91532558407E+03  0.93081394079E+02 0.  0.
          2    1    3    3  502    0 -0.59257890298E+01  0.48202020494E+03  0.79417416650E+03  0.92902701773E+03  0.00000000000E+00 0. -1.
         -1    1    3    3    0  502  0.47394738042E+02  0.12346018359E+03  0.22233137388E+03  0.25868884386E+03  0.00000000000E+00 0.  1.
         11    1    5    5    0    0  0.37464759556E+02 -0.11474856774E+03  0.19077388562E+02  0.12220797340E+03  0.00000000000E+00 0. -1.
        -11    1    5    5    0    0  0.22737089944E+02 -0.34458106294E+03 -0.64624850795E+02  0.35132528452E+03  0.00000000000E+00 0.  1.
          2    1    6    6  503    0 -0.22723264509E+02 -0.10723372021E+03  0.57545036814E+03  0.58579735719E+03  0.00000000000E+00 0.  1.
         -2    1    6    6    0  503 -0.78947534003E+02 -0.38917037635E+02  0.31755566972E+03  0.32952822688E+03  0.00000000000E+00 0. -1.
<mgrwt>
<rscale>  0 0.17788690E+04</rscale>
<asrwt>0</asrwt>
<pdfrwt beam="1">  1        2 0.34157990E+00 0.17788690E+04</pdfrwt>
<pdfrwt beam="2">  1       -1 0.54816200E-01 0.17788690E+04</pdfrwt>
<totfact> 0.18221654E+01</totfact>
</mgrwt>
</event>
<event>
12    6  0.1540825E-007  0.2496170E+04  0.7818608E-02  0.8404351E-01
         -1   -1    0    0    0  501 -0.00000000000E+00  0.00000000000E+00  0.21415908013E+04  0.21415908013E+04  0.00000000000E+00 0.  1.
          2   -1    0    0  501    0  0.00000000000E+00 -0.00000000000E+00 -0.72736398341E+03  0.72736398341E+03  0.00000000000E+00 0. -1.
         24    2    1    2    0    0 -0.61535680943E+03  0.68076903218E+03  0.12825073453E+04  0.15789391737E+04  0.78187884598E+02 0.  0.
        254    2    1    2    0    0  0.61535680943E+03 -0.68076903218E+03  0.13171947264E+03  0.12900156111E+04  0.89703945249E+03 0.  0.
         23    2    4    4    0    0  0.83555194518E+03 -0.59433723195E+03  0.14238563798E+03  0.10391498246E+04  0.90415096718E+02 0.  0.
         23    2    4    4    0    0 -0.22019513575E+03 -0.86431800229E+02 -0.10666165338E+02  0.25086578649E+03  0.82846374995E+02 0.  0.
          4    1    3    3  502    0 -0.59251390682E+02  0.10410123224E+03  0.15969427477E+03  0.19962478615E+03  0.00000000000E+00 0. -1.
         -3    1    3    3    0  502 -0.55610541875E+03  0.57666779994E+03  0.11228130705E+04  0.13793143875E+04  0.00000000000E+00 0.  1.
         11    1    5    5    0    0  0.11835815523E+03 -0.62201357338E+02 -0.60754726535E+01  0.13384533288E+03  0.00000000000E+00 0. -1.
        -11    1    5    5    0    0  0.71719378994E+03 -0.53213587462E+03  0.14846111064E+03  0.90530449174E+03  0.00000000000E+00 0.  1.
          3    1    6    6  503    0  0.15747552893E+01  0.21263194704E+01  0.10786449498E+02  0.11106240655E+02  0.00000000000E+00 0. -1.
         -3    1    6    6    0  503 -0.22176989104E+03 -0.88558119700E+02 -0.21452614836E+02  0.23975954583E+03  0.00000000000E+00 0.  1.
<mgrwt>
<rscale>  0 0.24961699E+04</rscale>
<asrwt>0</asrwt>
<pdfrwt beam="1">  1        2 0.11190215E+00 0.24961699E+04</pdfrwt>
<pdfrwt beam="2">  1       -1 0.32947550E+00 0.24961699E+04</pdfrwt>
<totfact> 0.84271145E-01</totfact>
</mgrwt>
</event>
<event>
12    6  0.1540825E-007  0.1313518E+04  0.7818608E-02  0.9018913E-01
          2   -1    0    0  501    0  0.00000000000E+00  0.00000000000E+00  0.17393913591E+04  0.17393913591E+04  0.00000000000E+00 0. -1.
         -1   -1    0    0    0  501 -0.00000000000E+00 -0.00000000000E+00 -0.24797908170E+03  0.24797908170E+03  0.00000000000E+00 0.  1.
         24    2    1    2    0    0  0.22234821403E+03 -0.13089423983E+03  0.50213825557E+02  0.27468889556E+03  0.79752935781E+02 0.  0.
        254    2    1    2    0    0 -0.22234821403E+03  0.13089423983E+03  0.14411984519E+04  0.17126815453E+04  0.88862425552E+03 0.  0.
         23    2    4    4    0    0 -0.56085946539E+02  0.30973180077E+03  0.96916105906E+02  0.34318362196E+03  0.96451257065E+02 0.  0.
         23    2    4    4    0    0 -0.16626226749E+03 -0.17883756093E+03  0.13442823460E+04  0.13694979233E+04  0.93827082742E+02 0.  0.
          2    1    3    3  502    0  0.11741103103E+02 -0.41092523127E+01  0.24558265100E+02  0.27529036332E+02  0.00000000000E+00 0. -1.
         -1    1    3    3    0  502  0.21060711092E+03 -0.12678498752E+03  0.25655560457E+02  0.24715985923E+03  0.00000000000E+00 0.  1.
         11    1    5    5    0    0  0.55198057244E+00  0.20919930322E+03  0.34597702658E+02  0.21204163313E+03  0.00000000000E+00 0.  1.
        -11    1    5    5    0    0 -0.56637927112E+02  0.10053249755E+03  0.62318403248E+02  0.13114198883E+03  0.00000000000E+00 0. -1.
          3    1    6    6  503    0 -0.49717308880E+02 -0.81555060997E+02  0.31757421451E+03  0.33162692970E+03  0.00000000000E+00 0. -1.
         -3    1    6    6    0  503 -0.11654495861E+03 -0.97282499937E+02  0.10267081315E+04  0.10378709936E+04  0.00000000000E+00 0.  1.
<mgrwt>
<rscale>  0 0.13135184E+04</rscale>
<asrwt>0</asrwt>
<pdfrwt beam="1">  1        2 0.26759866E+00 0.13135184E+04</pdfrwt>
<pdfrwt beam="2">  1       -1 0.38150629E-01 0.13135184E+04</pdfrwt>
<totfact> 0.69079159E+01</totfact>
</mgrwt>
</event>
<event>
12    6  0.1540825E-007  0.2099829E+04  0.7818608E-02  0.8561319E-01
          2   -1    0    0  501    0  0.00000000000E+00  0.00000000000E+00  0.10578911682E+04  0.10578911682E+04  0.00000000000E+00 0. -1.
         -1   -1    0    0    0  501 -0.00000000000E+00 -0.00000000000E+00 -0.10419979756E+04  0.10419979756E+04  0.00000000000E+00 0.  1.
         24    2    1    2    0    0  0.37470877867E+03 -0.69813361687E+03 -0.31037837357E+03  0.85460798812E+03  0.78885123806E+02 0.  0.
        254    2    1    2    0    0 -0.37470877867E+03  0.69813361687E+03  0.32627156616E+03  0.12452811556E+04  0.90358995449E+03 0.  0.
         23    2    4    4    0    0  0.15947119764E+03  0.61834838841E+02 -0.18249321059E+03  0.26748292913E+03  0.94808940999E+02 0.  0.
         23    2    4    4    0    0 -0.53417997631E+03  0.63629877803E+03  0.50876477675E+03  0.97779822650E+03  0.83805678048E+02 0.  0.
          2    1    3    3  502    0  0.14522561468E+03 -0.20907135704E+03 -0.12381206094E+03  0.28307373232E+03  0.00000000000E+00 0. -1.
         -1    1    3    3    0  502  0.22948316399E+03 -0.48906225983E+03 -0.18656631263E+03  0.57153425580E+03  0.00000000000E+00 0.  1.
         11    1    5    5    0    0  0.74565264841E+02  0.69976592340E+01 -0.22432917707E+02  0.78180443542E+02  0.00000000000E+00 0. -1.
        -11    1    5    5    0    0  0.84905932797E+02  0.54837179607E+02 -0.16006029289E+03  0.18930248559E+03  0.00000000000E+00 0.  1.
          1    1    6    6  503    0 -0.53163671635E+03  0.62543810065E+03  0.51028467624E+03  0.96654066998E+03  0.00000000000E+00 0. -1.
         -1    1    6    6    0  503 -0.25432599586E+01  0.10860677378E+02 -0.15198994917E+01  0.11257556520E+02  0.00000000000E+00 0.  1.
<mgrwt>
<rscale>  0 0.20998290E+04</rscale>
<asrwt>0</asrwt>
<pdfrwt beam="1">  1        2 0.16275249E+00 0.20998290E+04</pdfrwt>
<pdfrwt beam="2">  1       -1 0.16030738E+00 0.20998290E+04</pdfrwt>
<totfact> 0.70702467E+00</totfact>
</mgrwt>
</event>
<event>
12    6  0.1540825E-007  0.1569608E+04  0.7818608E-02  0.8839440E-01
          2   -1    0    0  501    0  0.00000000000E+00  0.00000000000E+00  0.76046940156E+03  0.76046940156E+03  0.00000000000E+00 0. -1.
         -1   -1    0    0    0  501 -0.00000000000E+00 -0.00000000000E+00 -0.80991718201E+03  0.80991718201E+03  0.00000000000E+00 0.  1.
         24    2    1    2    0    0 -0.31986645332E+03 -0.15818093478E+03 -0.39237311567E+03  0.53559429569E+03  0.74624604451E+02 0.  0.
        254    2    1    2    0    0  0.31986645332E+03  0.15818093478E+03  0.34292533522E+03  0.10347922879E+04  0.90876924322E+03 0.  0.
         23    2    4    4    0    0  0.50476360012E+03  0.12432153317E+03  0.53581201546E+03  0.75206969275E+03  0.90951477338E+02 0.  0.
         23    2    4    4    0    0 -0.18489714680E+03  0.33859401614E+02 -0.19288668024E+03  0.28272259513E+03  0.85984768482E+02 0.  0.
          2    1    3    3  502    0 -0.18513028073E+02 -0.22373909861E+02 -0.11353866164E+02  0.31180672343E+02  0.00000000000E+00 0. -1.
         -1    1    3    3    0  502 -0.30135342525E+03 -0.13580702492E+03 -0.38101924950E+03  0.50441362334E+03  0.00000000000E+00 0.  1.
         11    1    5    5    0    0  0.12941180893E+03  0.57881894036E+02  0.19252431185E+03  0.23908856226E+03  0.00000000000E+00 0.  1.
        -11    1    5    5    0    0  0.37535179118E+03  0.66439639130E+02  0.34328770361E+03  0.51298113049E+03  0.00000000000E+00 0. -1.
          3    1    6    6  503    0 -0.18723253323E+03  0.18490383651E+02 -0.16255965330E+03  0.24864343279E+03  0.00000000000E+00 0. -1.
         -3    1    6    6    0  503  0.23353864323E+01  0.15369017962E+02 -0.30327026938E+02  0.34079162340E+02  0.00000000000E+00 0.  1.
<mgrwt>
<rscale>  0 0.15696079E+04</rscale>
<asrwt>0</asrwt>
<pdfrwt beam="1">  1        2 0.11699529E+00 0.15696079E+04</pdfrwt>
<pdfrwt beam="2">  1       -1 0.12460264E+00 0.15696079E+04</pdfrwt>
<totfact> 0.22805308E+01</totfact>
</mgrwt>
</event>
<event>
12    6  0.1540825E-007  0.2372650E+04  0.7818608E-02  0.8449815E-01
          2   -1    0    0  501    0  0.00000000000E+00  0.00000000000E+00  0.19664764329E+04  0.19664764329E+04  0.00000000000E+00 0. -1.
         -1   -1    0    0    0  501 -0.00000000000E+00 -0.00000000000E+00 -0.71567936553E+03  0.71567936553E+03  0.00000000000E+00 0.  1.
         24    2    1    2    0    0 -0.99373783180E+03 -0.22470945779E+02  0.32526306362E+03  0.10490196490E+04  0.81402344628E+02 0.  0.
        254    2    1    2    0    0  0.99373783180E+03  0.22470945779E+02  0.92553400376E+03  0.16331361494E+04  0.90691822603E+03 0.  0.
         23    2    4    4    0    0  0.71543165532E+03  0.31710797306E+03  0.92978847576E+03  0.12184440733E+04  0.87746395979E+02 0.  0.
         23    2    4    4    0    0  0.27830617648E+03 -0.29463702728E+03 -0.42544719981E+01  0.41469207617E+03  0.87670472742E+02 0.  0.
          2    1    3    3  502    0 -0.37298558816E+03  0.30981592560E+02  0.12197461387E+03  0.39364440105E+03  0.00000000000E+00 0. -1.
         -1    1    3    3    0  502 -0.62075224364E+03 -0.53452538338E+02  0.20328844976E+03  0.65537524797E+03  0.00000000000E+00 0.  1.
         11    1    5    5    0    0  0.31647635870E+03  0.10844606376E+03  0.34701887796E+03  0.48201653086E+03  0.00000000000E+00 0.  1.
        -11    1    5    5    0    0  0.39895529662E+03  0.20866190931E+03  0.58276959780E+03  0.73642754241E+03  0.00000000000E+00 0. -1.
          3    1    6    6  503    0  0.25871982086E+02 -0.68932422077E+02 -0.17978755683E+02  0.75790988425E+02  0.00000000000E+00 0. -1.
         -3    1    6    6    0  503  0.25243419440E+03 -0.22570460521E+03  0.13724283685E+02  0.33890108774E+03  0.00000000000E+00 0.  1.
<mgrwt>
<rscale>  0 0.23726497E+04</rscale>
<asrwt>0</asrwt>
<pdfrwt beam="1">  1        2 0.30253483E+00 0.23726497E+04</pdfrwt>
<pdfrwt beam="2">  1       -1 0.11010452E+00 0.23726497E+04</pdfrwt>
<totfact> 0.54468452E+00</totfact>
</mgrwt>
</event>
<event>
12    6  0.1540825E-007  0.1488349E+04  0.7818608E-02  0.8892238E-01
          2   -1    0    0  501    0  0.00000000000E+00  0.00000000000E+00  0.92524083092E+03  0.92524083092E+03  0.00000000000E+00 0. -1.
         -1   -1    0    0    0  501 -0.00000000000E+00 -0.00000000000E+00 -0.59854227600E+03  0.59854227600E+03  0.00000000000E+00 0.  1.
         24    2    1    2    0    0 -0.15024185638E+03  0.40430633232E+03 -0.78802902270E+02  0.44761289373E+03  0.90062086735E+02 0.  0.
        254    2    1    2    0    0  0.15024185638E+03 -0.40430633232E+03  0.40550145720E+03  0.10761702132E+04  0.89870722163E+03 0.  0.
         23    2    4    4    0    0 -0.16283762909E+03 -0.41536183136E+03 -0.10618795618E+03  0.46782855035E+03  0.92445259957E+02 0.  0.
         23    2    4    4    0    0  0.31307948546E+03  0.11055499041E+02  0.51168941337E+03  0.60834166284E+03  0.10056109941E+03 0.  0.
          2    1    3    3  502    0  0.86917327510E+01  0.54666641507E+02 -0.21082988214E+02  0.59232426119E+02  0.00000000000E+00 0. -1.
         -1    1    3    3    0  502 -0.15893358913E+03  0.34963969081E+03 -0.57719914056E+02  0.38838046761E+03  0.00000000000E+00 0.  1.
         11    1    5    5    0    0 -0.57820984758E+02 -0.19686390025E+03 -0.92361751183E+02  0.22500967664E+03  0.00000000000E+00 0.  1.
        -11    1    5    5    0    0 -0.10501664433E+03 -0.21849793111E+03 -0.13826204994E+02  0.24281887371E+03  0.00000000000E+00 0. -1.
          1    1    6    6  503    0  0.13815638059E+03 -0.69246363776E+01  0.13824472492E+03  0.19556773777E+03  0.00000000000E+00 0. -1.
         -1    1    6    6    0  503  0.17492310487E+03  0.17980135419E+02  0.37344468845E+03  0.41277392507E+03  0.00000000000E+00 0.  1.
<mgrwt>
<rscale>  0 0.14883491E+04</rscale>
<asrwt>0</asrwt>
<pdfrwt beam="1">  1        2 0.14234474E+00 0.14883491E+04</pdfrwt>
<pdfrwt beam="2">  1       -1 0.92083427E-01 0.14883491E+04</pdfrwt>
<totfact> 0.35738297E+01</totfact>
</mgrwt>
</event>
<event>
12    6  0.1540825E-007  0.2237616E+04  0.7818608E-02  0.8502933E-01
          2   -1    0    0  501    0  0.00000000000E+00  0.00000000000E+00  0.40338325636E+04  0.40338325636E+04  0.00000000000E+00 0. -1.
         -1   -1    0    0    0  501 -0.00000000000E+00 -0.00000000000E+00 -0.31030818571E+03  0.31030818571E+03  0.00000000000E+00 0.  1.
         24    2    1    2    0    0 -0.54979146415E+03 -0.84913460580E+02  0.91905193690E+02  0.56944448183E+03  0.79620998626E+02 0.  0.
        254    2    1    2    0    0  0.54979146415E+03  0.84913460580E+02  0.36316191842E+04  0.37746962675E+04  0.86613686146E+03 0.  0.
         23    2    4    4    0    0  0.58006728092E+03  0.22328525546E+03  0.13711985330E+04  0.15080090515E+04  0.87014520079E+02 0.  0.
         23    2    4    4    0    0 -0.30275816767E+02 -0.13837179488E+03  0.22604206512E+04  0.22666872160E+04  0.91137457369E+02 0.  0.
          4    1    3    3  502    0 -0.33859456946E+02  0.12983137197E+02 -0.34899374605E+00  0.36264948267E+02  0.00000000000E+00 0. -1.
         -3    1    3    3    0  502 -0.51593200720E+03 -0.97896597777E+02  0.92254187436E+02  0.53317953356E+03  0.00000000000E+00 0.  1.
         11    1    5    5    0    0  0.88153701663E+02  0.68967955003E+02  0.23253803725E+03  0.25807284379E+03  0.00000000000E+00 0.  1.
        -11    1    5    5    0    0  0.49191357925E+03  0.15431730046E+03  0.11386604957E+04  0.12499362077E+04  0.00000000000E+00 0. -1.
          1    1    6    6  503    0 -0.43179564470E+02 -0.21076795353E+02  0.84016701470E+03  0.84153984973E+03  0.00000000000E+00 0. -1.
         -1    1    6    6    0  503  0.12903747703E+02 -0.11729499953E+03  0.14202536365E+04  0.14251473663E+04  0.00000000000E+00 0.  1.
<mgrwt>
<rscale>  0 0.22376159E+04</rscale>
<asrwt>0</asrwt>
<pdfrwt beam="1">  1        2 0.62058959E+00 0.22376159E+04</pdfrwt>
<pdfrwt beam="2">  1       -1 0.47739724E-01 0.22376159E+04</pdfrwt>
<totfact> 0.14689545E+00</totfact>
</mgrwt>
</event>
<event>
12    6  0.1540825E-007  0.1586323E+04  0.7818608E-02  0.8828995E-01
         -1   -1    0    0    0  501 -0.00000000000E+00  0.00000000000E+00  0.11658934762E+04  0.11658934762E+04  0.00000000000E+00 0.  1.
          2   -1    0    0  501    0  0.00000000000E+00 -0.00000000000E+00 -0.53959038255E+03  0.53959038255E+03  0.00000000000E+00 0. -1.
         24    2    1    2    0    0 -0.77270770218E+02 -0.45698487777E+03 -0.66621286207E+02  0.47494944067E+03  0.79577792018E+02 0.  0.
        254    2    1    2    0    0  0.77270770218E+02  0.45698487777E+03  0.69292437989E+03  0.12305344181E+04  0.90513248061E+03 0.  0.
         23    2    4    4    0    0  0.36437343962E+03  0.70633635637E+01  0.33160597313E+02  0.37727573647E+03  0.91757623697E+02 0.  0.
         23    2    4    4    0    0 -0.28710266940E+03  0.44992151420E+03  0.65976378258E+03  0.85325868164E+03  0.88909039290E+02 0.  0.
          2    1    3    3  502    0 -0.52289595019E+02 -0.26964248578E+03 -0.78240226700E+02  0.28559202538E+03  0.00000000000E+00 0. -1.
         -1    1    3    3    0  502 -0.24981175199E+02 -0.18734239198E+03  0.11618940492E+02  0.18935741529E+03  0.00000000000E+00 0.  1.
         11    1    5    5    0    0  0.33506326824E+03  0.26534313336E+02  0.47160790934E+02  0.33940477856E+03  0.00000000000E+00 0.  1.
        -11    1    5    5    0    0  0.29310171382E+02 -0.19470949772E+02 -0.14000193621E+02  0.37870957908E+02  0.00000000000E+00 0. -1.
          3    1    6    6  503    0 -0.13282759152E+03  0.21841788602E+03  0.24681017724E+03  0.35533759383E+03  0.00000000000E+00 0. -1.
         -3    1    6    6    0  503 -0.15427507788E+03  0.23150362818E+03  0.41295360534E+03  0.49792108781E+03  0.00000000000E+00 0.  1.
<mgrwt>
<rscale>  0 0.15863227E+04</rscale>
<asrwt>0</asrwt>
<pdfrwt beam="1">  1        2 0.83013905E-01 0.15863227E+04</pdfrwt>
<pdfrwt beam="2">  1       -1 0.17936823E+00 0.15863227E+04</pdfrwt>
<totfact> 0.12990765E+01</totfact>
</mgrwt>
</event>
<event>
12    6  0.1540825E-007  0.1336336E+04  0.7818608E-02  0.9001237E-01
          2   -1    0    0  501    0  0.00000000000E+00  0.00000000000E+00  0.78456700143E+03  0.78456700143E+03  0.00000000000E+00 0. -1.
         -1   -1    0    0    0  501 -0.00000000000E+00 -0.00000000000E+00 -0.56903775235E+03  0.56903775235E+03  0.00000000000E+00 0.  1.
         24    2    1    2    0    0  0.31821329168E+03 -0.13544095685E+03 -0.41843919646E+02  0.35724759835E+03  0.79189526619E+02 0.  0.
        254    2    1    2    0    0 -0.31821329168E+03  0.13544095685E+03  0.25737316872E+03  0.99635715543E+03  0.89826648686E+03 0.  0.
         23    2    4    4    0    0 -0.19076623649E+03  0.12004692279E+03 -0.31820214830E+03  0.39922036516E+03  0.85564432596E+02 0.  0.
         23    2    4    4    0    0 -0.12744705519E+03  0.15394034062E+02  0.57557531702E+03  0.59713679027E+03  0.93838545210E+02 0.  0.
          2    1    3    3  502    0  0.21986102444E+03 -0.75506814558E+02  0.59704022523E+01  0.23254202806E+03  0.00000000000E+00 0. -1.
         -1    1    3    3    0  502  0.98352267233E+02 -0.59934142295E+02 -0.47814321898E+02  0.12470557029E+03  0.00000000000E+00 0.  1.
         11    1    5    5    0    0 -0.16055911954E+03  0.12802862820E+03 -0.24533422259E+03  0.31993662072E+03  0.00000000000E+00 0. -1.
        -11    1    5    5    0    0 -0.30207116945E+02 -0.79817054089E+01 -0.72867925709E+02  0.79283744441E+02  0.00000000000E+00 0.  1.
          4    1    6    6  503    0 -0.60293789294E+02 -0.14446683345E+02  0.42596622691E+03  0.43045472951E+03  0.00000000000E+00 0. -1.
         -4    1    6    6    0  503 -0.67153265896E+02  0.29840717407E+02  0.14960909011E+03  0.16668206076E+03  0.00000000000E+00 0.  1.
<mgrwt>
<rscale>  0 0.13363357E+04</rscale>
<asrwt>0</asrwt>
<pdfrwt beam="1">  1        2 0.12070262E+00 0.13363357E+04</pdfrwt>
<pdfrwt beam="2">  1       -1 0.87544269E-01 0.13363357E+04</pdfrwt>
<totfact> 0.50681710E+01</totfact>
</mgrwt>
</event>
<event>
12    6  0.1540825E-007  0.2846928E+04  0.7818608E-02  0.8288845E-01
          2   -1    0    0  501    0  0.00000000000E+00  0.00000000000E+00  0.28214392383E+04  0.28214392383E+04  0.00000000000E+00 0. -1.
         -1   -1    0    0    0  501 -0.00000000000E+00 -0.00000000000E+00 -0.71816181643E+03  0.71816181643E+03  0.00000000000E+00 0.  1.
         24    2    1    2    0    0 -0.22593602269E+01 -0.25181788934E+03 -0.60749972547E+03  0.66244554569E+03  0.79754814623E+02 0.  0.
        254    2    1    2    0    0  0.22593602269E+01  0.25181788934E+03  0.27107771473E+04  0.28771555091E+04  0.93074901375E+03 0.  0.
         23    2    4    4    0    0 -0.10245621412E+02 -0.22262242590E+03  0.17941025124E+03  0.30010175872E+03  0.90594205475E+02 0.  0.
         23    2    4    4    0    0  0.12504981639E+02  0.47444031524E+03  0.25313668961E+04  0.25770537503E+04  0.90209102148E+02 0.  0.
          2    1    3    3  502    0 -0.45252326283E+01 -0.29572160303E+02 -0.16021215338E+03  0.16298136239E+03  0.00000000000E+00 0. -1.
         -1    1    3    3    0  502  0.22658724014E+01 -0.22224572903E+03 -0.44728757208E+03  0.49946418329E+03  0.00000000000E+00 0.  1.
         11    1    5    5    0    0  0.20446654983E+02 -0.34070776100E+02  0.26284390779E+01  0.39822006178E+02  0.00000000000E+00 0.  1.
        -11    1    5    5    0    0 -0.30692276395E+02 -0.18855164980E+03  0.17678181216E+03  0.26027975254E+03  0.00000000000E+00 0. -1.
          2    1    6    6  503    0 -0.30200660751E+02  0.35294933219E+03  0.18776240133E+04  0.19107478238E+04  0.00000000000E+00 0. -1.
         -2    1    6    6    0  503  0.42705642389E+02  0.12149098305E+03  0.65374288282E+03  0.66630592650E+03  0.00000000000E+00 0.  1.
<mgrwt>
<rscale>  0 0.28469281E+04</rscale>
<asrwt>0</asrwt>
<pdfrwt beam="1">  1        2 0.43406757E+00 0.28469281E+04</pdfrwt>
<pdfrwt beam="2">  1       -1 0.11048643E+00 0.28469281E+04</pdfrwt>
<totfact> 0.16690897E+00</totfact>
</mgrwt>
</event>
<event>
12    6  0.1540825E-007  0.1355444E+04  0.7818608E-02  0.8986717E-01
         -1   -1    0    0    0  501 -0.00000000000E+00  0.00000000000E+00  0.86119549795E+03  0.86119549795E+03  0.00000000000E+00 0.  1.
          2   -1    0    0  501    0  0.00000000000E+00 -0.00000000000E+00 -0.53333682391E+03  0.53333682391E+03  0.00000000000E+00 0. -1.
         24    2    1    2    0    0  0.94517433795E+02 -0.25276801821E+03 -0.17047944335E+03  0.32906770988E+03  0.79981877695E+02 0.  0.
        254    2    1    2    0    0 -0.94517433795E+02  0.25276801821E+03  0.49833811739E+03  0.10654646120E+04  0.90224649838E+03 0.  0.
         23    2    4    4    0    0 -0.16168190872E+03 -0.27292633753E+03  0.40029344145E+03  0.51899593606E+03  0.92152683412E+02 0.  0.
         23    2    4    4    0    0  0.67164474926E+02  0.52569435574E+03  0.98044675945E+02  0.54646867592E+03  0.90275317431E+02 0.  0.
          2    1    3    3  502    0  0.51150082989E+01 -0.61013906741E+02 -0.75359299361E+02  0.97097292062E+02  0.00000000000E+00 0. -1.
         -1    1    3    3    0  502  0.89402425496E+02 -0.19175411147E+03 -0.95120143989E+02  0.23197041782E+03  0.00000000000E+00 0.  1.
         11    1    5    5    0    0 -0.72385300754E+02 -0.20180628349E+03  0.28620833905E+03  0.35760400048E+03  0.00000000000E+00 0.  1.
        -11    1    5    5    0    0 -0.89296607966E+02 -0.71120054040E+02  0.11408510240E+03  0.16139193558E+03  0.00000000000E+00 0. -1.
          2    1    6    6  503    0  0.44453712386E+02  0.11164799210E+03  0.45440379363E+02  0.12847659227E+03  0.00000000000E+00 0. -1.
         -2    1    6    6    0  503  0.22710762540E+02  0.41404636364E+03  0.52604296583E+02  0.41799208366E+03  0.00000000000E+00 0.  1.
<mgrwt>
<rscale>  0 0.13554442E+04</rscale>
<asrwt>0</asrwt>
<pdfrwt beam="1">  1        2 0.82051819E-01 0.13554442E+04</pdfrwt>
<pdfrwt beam="2">  1       -1 0.13249162E+00 0.13554442E+04</pdfrwt>
<totfact> 0.30807412E+01</totfact>
</mgrwt>
</event>
<event>
12    6  0.1540825E-007  0.1078584E+04  0.7818608E-02  0.9226320E-01
          2   -1    0    0  501    0  0.00000000000E+00  0.00000000000E+00  0.15049191758E+04  0.15049191758E+04  0.00000000000E+00 0. -1.
         -1   -1    0    0    0  501 -0.00000000000E+00 -0.00000000000E+00 -0.19325689478E+03  0.19325689478E+03  0.00000000000E+00 0.  1.
         24    2    1    2    0    0 -0.85722151496E+01 -0.48453564741E+01 -0.26651210111E+02  0.84997278907E+02  0.80107990047E+02 0.  0.
        254    2    1    2    0    0  0.85722151496E+01  0.48453564741E+01  0.13383134912E+04  0.16131787917E+04  0.90064746322E+03 0.  0.
         23    2    4    4    0    0 -0.21372388042E+02  0.39695563324E+02  0.14558425455E+04  0.14590730206E+04  0.85930469563E+02 0.  0.
         23    2    4    4    0    0  0.29944603192E+02 -0.34850206850E+02 -0.11752905430E+03  0.15410577108E+03  0.88455038847E+02 0.  0.
          4    1    3    3  502    0 -0.16688504154E+02  0.11498912928E+02  0.23851368079E+02  0.31298864654E+02  0.00000000000E+00 0. -1.
         -3    1    3    3    0  502  0.81162890041E+01 -0.16344269402E+02 -0.50502578190E+02  0.53698414253E+02  0.00000000000E+00 0.  1.
         11    1    5    5    0    0 -0.12801284392E+02 -0.20550285593E+02  0.16189696446E+03  0.16369732503E+03  0.00000000000E+00 0. -1.
        -11    1    5    5    0    0 -0.85711036501E+01  0.60245848918E+02  0.12939455810E+04  0.12953756956E+04  0.00000000000E+00 0.  1.
          3    1    6    6  503    0  0.11965329559E+02  0.54018005811E+01  0.11686921912E+02  0.17576481580E+02  0.00000000000E+00 0. -1.
         -3    1    6    6    0  503  0.17979273633E+02 -0.40252007431E+02 -0.12921597621E+03  0.13652928950E+03  0.00000000000E+00 0.  1.
<mgrwt>
<rscale>  0 0.10785843E+04</rscale>
<asrwt>0</asrwt>
<pdfrwt beam="1">  1        2 0.23152602E+00 0.10785843E+04</pdfrwt>
<pdfrwt beam="2">  1       -1 0.29731831E-01 0.10785843E+04</pdfrwt>
<totfact> 0.14798068E+02</totfact>
</mgrwt>
</event>
<event>
12    6  0.1540825E-007  0.1625472E+04  0.7818608E-02  0.8805051E-01
         -1   -1    0    0    0  501 -0.00000000000E+00  0.00000000000E+00  0.20933860528E+03  0.20933860528E+03  0.00000000000E+00 0.  1.
          2   -1    0    0  501    0  0.00000000000E+00 -0.00000000000E+00 -0.31553660573E+04  0.31553660573E+04  0.00000000000E+00 0. -1.
         24    2    1    2    0    0 -0.40915794264E+03  0.27185639043E+03 -0.50222018587E+03  0.70722257441E+03  0.81378963004E+02 0.  0.
        254    2    1    2    0    0  0.40915794264E+03 -0.27185639043E+03 -0.24438072661E+04  0.26574820881E+04  0.92124968158E+03 0.  0.
         23    2    4    4    0    0  0.56732586786E+03 -0.75857948993E+02 -0.77927886175E+03  0.97152001339E+03  0.94670604105E+02 0.  0.
         23    2    4    4    0    0 -0.15816792521E+03 -0.19599844144E+03 -0.16645284044E+04  0.16859620748E+04  0.91546856523E+02 0.  0.
          2    1    3    3  502    0 -0.85388133002E+02  0.31811760588E+02 -0.12882025120E+03  0.15779029909E+03  0.00000000000E+00 0. -1.
         -1    1    3    3    0  502 -0.32376980964E+03  0.24004462984E+03 -0.37339993468E+03  0.54943227532E+03  0.00000000000E+00 0.  1.
         11    1    5    5    0    0  0.40090845608E+03 -0.63780786748E+02 -0.47797734012E+03  0.62710279587E+03  0.00000000000E+00 0. -1.
        -11    1    5    5    0    0  0.16641741177E+03 -0.12077162245E+02 -0.30130152163E+03  0.34441721752E+03  0.00000000000E+00 0.  1.
          2    1    6    6  503    0 -0.14739406821E+03 -0.20597936364E+03 -0.15699228200E+04  0.15902233084E+04  0.00000000000E+00 0. -1.
         -2    1    6    6    0  503 -0.10773857005E+02  0.99809222050E+01 -0.94605584339E+02  0.95738766395E+02  0.00000000000E+00 0.  1.
<mgrwt>
<rscale>  0 0.16254722E+04</rscale>
<asrwt>0</asrwt>
<pdfrwt beam="1">  1        2 0.48544093E+00 0.16254722E+04</pdfrwt>
<pdfrwt beam="2">  1       -1 0.32205939E-01 0.16254722E+04</pdfrwt>
<totfact> 0.13698484E+01</totfact>
</mgrwt>
</event>
<event>
12    6  0.1540825E-007  0.1659480E+04  0.7818608E-02  0.8784818E-01
         -1   -1    0    0    0  501 -0.00000000000E+00  0.00000000000E+00  0.78396418164E+03  0.78396418164E+03  0.00000000000E+00 0.  1.
          2   -1    0    0  501    0  0.00000000000E+00 -0.00000000000E+00 -0.87818868578E+03  0.87818868578E+03  0.00000000000E+00 0. -1.
         24    2    1    2    0    0 -0.27667810945E+03  0.38650652445E+03  0.30732344074E+03  0.57170590491E+03  0.80385787191E+02 0.  0.
        254    2    1    2    0    0  0.27667810945E+03 -0.38650652445E+03 -0.40154794488E+03  0.10904469625E+04  0.89548632392E+03 0.  0.
         23    2    4    4    0    0  0.17896844992E+03 -0.66588544515E+03 -0.21132386091E+03  0.72674975218E+03  0.89857086383E+02 0.  0.
         23    2    4    4    0    0  0.97709659529E+02  0.27937892069E+03 -0.19022408397E+03  0.36369721034E+03  0.92144993322E+02 0.  0.
          2    1    3    3  502    0 -0.79777196671E+02  0.17918046762E+03  0.12720482634E+03  0.23377576634E+03  0.00000000000E+00 0. -1.
         -1    1    3    3    0  502 -0.19690091278E+03  0.20732605683E+03  0.18011861441E+03  0.33793013857E+03  0.00000000000E+00 0.  1.
         11    1    5    5    0    0  0.10193126153E+03 -0.50025695882E+03 -0.18046964231E+03  0.54149450479E+03  0.00000000000E+00 0.  1.
        -11    1    5    5    0    0  0.77037188393E+02 -0.16562848633E+03 -0.30854218606E+02  0.18525524739E+03  0.00000000000E+00 0. -1.
          1    1    6    6  503    0 -0.12162841962E+02  0.31576903683E+02 -0.44616624284E+02  0.55997131474E+02  0.00000000000E+00 0. -1.
         -1    1    6    6    0  503  0.10987250149E+03  0.24780201701E+03 -0.14560745969E+03  0.30770007887E+03  0.00000000000E+00 0.  1.
<mgrwt>
<rscale>  0 0.16594800E+04</rscale>
<asrwt>0</asrwt>
<pdfrwt beam="1">  1        2 0.13510595E+00 0.16594800E+04</pdfrwt>
<pdfrwt beam="2">  1       -1 0.12060987E+00 0.16594800E+04</pdfrwt>
<totfact> 0.20216704E+01</totfact>
</mgrwt>
</event>
<event>
12    6  0.1540825E-007  0.2167198E+04  0.7818608E-02  0.8532206E-01
         -1   -1    0    0    0  501 -0.00000000000E+00  0.00000000000E+00  0.81124244696E+03  0.81124244696E+03  0.00000000000E+00 0.  1.
          2   -1    0    0  501    0  0.00000000000E+00 -0.00000000000E+00 -0.14473928871E+04  0.14473928871E+04  0.00000000000E+00 0. -1.
         24    2    1    2    0    0  0.75926111967E+03 -0.21165390073E+03  0.14991489278E+03  0.80623919409E+03  0.79198115355E+02 0.  0.
        254    2    1    2    0    0 -0.75926111967E+03  0.21165390073E+03 -0.78606533288E+03  0.14523961399E+04  0.93288853472E+03 0.  0.
         23    2    4    4    0    0 -0.90765245624E+03  0.80893988922E+02 -0.82254556745E+03  0.12301640483E+04  0.79659001274E+02 0.  0.
         23    2    4    4    0    0  0.14839133657E+03  0.13075991181E+03  0.36480234563E+02  0.22223209162E+03  0.94541798846E+02 0.  0.
          2    1    3    3  502    0  0.21838681696E+03 -0.53885842528E+02  0.72990733914E+01  0.22505502065E+03  0.00000000000E+00 0. -1.
         -1    1    3    3    0  502  0.54087430271E+03 -0.15776805820E+03  0.14261581938E+03  0.58118417344E+03  0.00000000000E+00 0.  1.
         11    1    5    5    0    0 -0.58351054569E+03  0.50683443934E+02 -0.57912258652E+03  0.82367247049E+03  0.00000000000E+00 0. -1.
        -11    1    5    5    0    0 -0.32414191055E+03  0.30210544988E+02 -0.24342298092E+03  0.40649157783E+03  0.00000000000E+00 0.  1.
          4    1    6    6  503    0  0.15231360957E+03  0.13674700212E+03  0.21737644408E+02  0.20584388121E+03  0.00000000000E+00 0.  1.
         -4    1    6    6    0  503 -0.39222730058E+01 -0.59870903087E+01  0.14742590156E+02  0.16388210408E+02  0.00000000000E+00 0. -1.
<mgrwt>
<rscale>  0 0.21671978E+04</rscale>
<asrwt>0</asrwt>
<pdfrwt beam="1">  1        2 0.22267583E+00 0.21671978E+04</pdfrwt>
<pdfrwt beam="2">  1       -1 0.12480653E+00 0.21671978E+04</pdfrwt>
<totfact> 0.79767157E+00</totfact>
</mgrwt>
</event>
<event>
12    6  0.1540825E-007  0.3190808E+04  0.7818608E-02  0.8191249E-01
         -1   -1    0    0    0  501 -0.00000000000E+00  0.00000000000E+00  0.70730574132E+03  0.70730574132E+03  0.00000000000E+00 0.  1.
          2   -1    0    0  501    0  0.00000000000E+00 -0.00000000000E+00 -0.35986057783E+04  0.35986057783E+04  0.00000000000E+00 0. -1.
         24    2    1    2    0    0  0.12527863122E+04 -0.76166115970E+03 -0.13697054797E+04  0.20080089368E+04  0.80034510577E+02 0.  0.
        254    2    1    2    0    0 -0.12527863122E+04  0.76166115970E+03 -0.15215945572E+04  0.22979025828E+04  0.90305316403E+03 0.  0.
         23    2    4    4    0    0 -0.19968009603E+03  0.45986180911E+03 -0.13426071838E+03  0.52791961104E+03  0.96582353440E+02 0.  0.
         23    2    4    4    0    0 -0.10531062162E+04  0.30179935059E+03 -0.13873338389E+04  0.17699829717E+04  0.89604627136E+02 0.  0.
          4    1    3    3  502    0  0.10527387709E+04 -0.60823825876E+03 -0.11521299860E+04  0.16749973743E+04  0.00000000000E+00 0. -1.
         -3    1    3    3    0  502  0.20004754129E+03 -0.15342290094E+03 -0.21757549368E+03  0.33301156250E+03  0.00000000000E+00 0.  1.
         11    1    5    5    0    0 -0.12624648833E+03  0.36331735981E+03 -0.13184656083E+03  0.40659709217E+03  0.00000000000E+00 0.  1.
        -11    1    5    5    0    0 -0.73433607692E+02  0.96544449297E+02 -0.24141575475E+01  0.12132251887E+03  0.00000000000E+00 0. -1.
          1    1    6    6  503    0 -0.75221792440E+02  0.82314980430E+01 -0.12877933364E+03  0.14936596798E+03  0.00000000000E+00 0. -1.
         -1    1    6    6    0  503 -0.97788442375E+03  0.29356785254E+03 -0.12585545052E+04  0.16206170038E+04  0.00000000000E+00 0.  1.
<mgrwt>
<rscale>  0 0.31908084E+04</rscale>
<asrwt>0</asrwt>
<pdfrwt beam="1">  1        2 0.55363167E+00 0.31908084E+04</pdfrwt>
<pdfrwt beam="2">  1       -1 0.10881627E+00 0.31908084E+04</pdfrwt>
<totfact> 0.51778340E-01</totfact>
</mgrwt>
</event>
<event>
12    6  0.1540825E-007  0.1586872E+04  0.7818608E-02  0.8828654E-01
         -1   -1    0    0    0  501 -0.00000000000E+00  0.00000000000E+00  0.10138104801E+04  0.10138104801E+04  0.00000000000E+00 0.  1.
          2   -1    0    0  501    0  0.00000000000E+00 -0.00000000000E+00 -0.62096461066E+03  0.62096461066E+03  0.00000000000E+00 0. -1.
         24    2    1    2    0    0 -0.41107467434E+03 -0.28853658693E+03  0.31248289621E+03  0.59694055282E+03  0.80353676332E+02 0.  0.
        254    2    1    2    0    0  0.41107467434E+03  0.28853658693E+03  0.80362973234E+02  0.10378345379E+04  0.90465826188E+03 0.  0.
         23    2    4    4    0    0  0.34640426977E+03  0.26803575027E+03  0.45908652466E+03  0.64083354552E+03  0.89822683152E+02 0.  0.
         23    2    4    4    0    0  0.64670404563E+02  0.20500836658E+02 -0.37872355142E+03  0.39700099241E+03  0.97855577480E+02 0.  0.
          4    1    3    3  502    0 -0.20085151538E+03 -0.97456069226E+02  0.15864533735E+03  0.27387471538E+03  0.00000000000E+00 0. -1.
         -3    1    3    3    0  502 -0.21022315895E+03 -0.19108051770E+03  0.15383755886E+03  0.32306583744E+03  0.00000000000E+00 0.  1.
         11    1    5    5    0    0  0.79943406708E+02  0.42453509175E+02  0.14656439228E+03  0.17226250260E+03  0.00000000000E+00 0. -1.
        -11    1    5    5    0    0  0.26646086306E+03  0.22558224110E+03  0.31252213237E+03  0.46857104292E+03  0.00000000000E+00 0.  1.
          1    1    6    6  503    0  0.62973946785E+01 -0.10667623726E+02  0.15342657129E+00  0.12388660759E+02  0.00000000000E+00 0. -1.
         -1    1    6    6    0  503  0.58373009885E+02  0.31168460384E+02 -0.37887697799E+03  0.38461233165E+03  0.00000000000E+00 0.  1.
<mgrwt>
<rscale>  0 0.15868717E+04</rscale>
<asrwt>0</asrwt>
<pdfrwt beam="1">  1        2 0.95533017E-01 0.15868717E+04</pdfrwt>
<pdfrwt beam="2">  1       -1 0.15597084E+00 0.15868717E+04</pdfrwt>
<totfact> 0.16362717E+01</totfact>
</mgrwt>
</event>
<event>
12    6  0.1540825E-007  0.2132138E+04  0.7818608E-02  0.8547217E-01
         -1   -1    0    0    0  501 -0.00000000000E+00  0.00000000000E+00  0.12640462269E+04  0.12640462269E+04  0.00000000000E+00 0.  1.
          2   -1    0    0  501    0  0.00000000000E+00 -0.00000000000E+00 -0.89909940722E+03  0.89909940722E+03  0.00000000000E+00 0. -1.
         24    2    1    2    0    0 -0.16155422233E+03  0.51344445497E+02 -0.71873278927E+03  0.74361050558E+03  0.87428501137E+02 0.  0.
        254    2    1    2    0    0  0.16155422233E+03 -0.51344445497E+02  0.10836796090E+04  0.14195351285E+04  0.90110069774E+03 0.  0.
         23    2    4    4    0    0 -0.28123496962E+03  0.40349449997E+02  0.70553361455E+02  0.30632377138E+03  0.90195841646E+02 0.  0.
         23    2    4    4    0    0  0.44278919195E+03 -0.91693895494E+02  0.10131262475E+04  0.11132113572E+04  0.91349293146E+02 0.  0.
          2    1    3    3  502    0 -0.13439646484E+03  0.16457055111E+02 -0.63104370277E+03  0.64540638301E+03  0.00000000000E+00 0. -1.
         -1    1    3    3    0  502 -0.27157757491E+02  0.34887390386E+02 -0.87689086498E+02  0.98204122575E+02  0.00000000000E+00 0.  1.
         11    1    5    5    0    0 -0.26302505480E+03  0.11310100690E+02  0.56409214180E+02  0.26924356497E+03  0.00000000000E+00 0. -1.
        -11    1    5    5    0    0 -0.18209914816E+02  0.29039349306E+02  0.14144147274E+02  0.37080206416E+02  0.00000000000E+00 0.  1.
          3    1    6    6  503    0  0.28000740733E+03 -0.36721832099E+02  0.72057344674E+03  0.77393716363E+03  0.00000000000E+00 0. -1.
         -3    1    6    6    0  503  0.16278178462E+03 -0.54972063395E+02  0.29255280077E+03  0.33927419353E+03  0.00000000000E+00 0.  1.
<mgrwt>
<rscale>  0 0.21321381E+04</rscale>
<asrwt>0</asrwt>
<pdfrwt beam="1">  1        2 0.13832299E+00 0.21321381E+04</pdfrwt>
<pdfrwt beam="2">  1       -1 0.19446865E+00 0.21321381E+04</pdfrwt>
<totfact> 0.50617881E+00</totfact>
</mgrwt>
</event>
<event>
12    6  0.1540825E-007  0.1143859E+04  0.7818608E-02  0.9163467E-01
         -1   -1    0    0    0  501 -0.00000000000E+00  0.00000000000E+00  0.70378539479E+03  0.70378539479E+03  0.00000000000E+00 0.  1.
          2   -1    0    0  501    0  0.00000000000E+00 -0.00000000000E+00 -0.46477739383E+03  0.46477739383E+03  0.00000000000E+00 0. -1.
         24    2    1    2    0    0  0.15378622138E+03  0.16777507433E+03  0.11892998159E+03  0.27439339634E+03  0.96688768620E+02 0.  0.
        254    2    1    2    0    0 -0.15378622138E+03 -0.16777507433E+03  0.12007801936E+03  0.89416939229E+03  0.85634192582E+03 0.  0.
         23    2    4    4    0    0 -0.19303006986E+03  0.17987440968E+00 -0.33627925865E+03  0.39788558663E+03  0.89266791303E+02 0.  0.
         23    2    4    4    0    0  0.39243848474E+02 -0.16795494874E+03  0.45635727801E+03  0.49628380566E+03  0.91031346901E+02 0.  0.
          2    1    3    3  502    0  0.33455346351E+02  0.71161738103E+02 -0.14969203798E+01  0.78647911224E+02  0.00000000000E+00 0. -1.
         -1    1    3    3    0  502  0.12033087503E+03  0.96613336227E+02  0.12042690197E+03  0.19574548511E+03  0.00000000000E+00 0.  1.
         11    1    5    5    0    0 -0.17250205117E+03  0.31277611906E+02 -0.28175207977E+03  0.33184255471E+03  0.00000000000E+00 0. -1.
        -11    1    5    5    0    0 -0.20528018687E+02 -0.31097737496E+02 -0.54527178875E+02  0.66043031916E+02  0.00000000000E+00 0.  1.
          3    1    6    6  503    0  0.55502688124E+02 -0.16906798603E+03  0.40409885398E+03  0.44154322107E+03  0.00000000000E+00 0. -1.
         -3    1    6    6    0  503 -0.16258839650E+02  0.11130372865E+01  0.52258424033E+02  0.54740584589E+02  0.00000000000E+00 0.  1.
<mgrwt>
<rscale>  0 0.11438593E+04</rscale>
<asrwt>0</asrwt>
<pdfrwt beam="1">  1        2 0.71504214E-01 0.11438593E+04</pdfrwt>
<pdfrwt beam="2">  1       -1 0.10827468E+00 0.11438593E+04</pdfrwt>
<totfact> 0.60171254E+01</totfact>
</mgrwt>
</event>
<event>
12    6  0.1540825E-007  0.1140136E+04  0.7818608E-02  0.9166932E-01
         -1   -1    0    0    0  501 -0.00000000000E+00  0.00000000000E+00  0.43840206397E+03  0.43840206397E+03  0.00000000000E+00 0.  1.
          2   -1    0    0  501    0  0.00000000000E+00 -0.00000000000E+00 -0.74127688715E+03  0.74127688715E+03  0.00000000000E+00 0. -1.
         24    2    1    2    0    0  0.59800797783E+02  0.94461962691E+02  0.12226201631E+03  0.18376838815E+03  0.79521204983E+02 0.  0.
        254    2    1    2    0    0 -0.59800797783E+02 -0.94461962691E+02 -0.42513683949E+03  0.99591056296E+03  0.89364272465E+03 0.  0.
         23    2    4    4    0    0  0.35156641428E+03 -0.22888574801E+03 -0.33584992935E+03  0.54501851640E+03  0.90897628631E+02 0.  0.
         23    2    4    4    0    0 -0.41136721206E+03  0.13442378532E+03 -0.89286910141E+02  0.45089204656E+03  0.89659065966E+02 0.  0.
          2    1    3    3  502    0 -0.18224196156E+02  0.22690268255E+02  0.14184536319E+02  0.32375464006E+02  0.00000000000E+00 0. -1.
         -1    1    3    3    0  502  0.78024993938E+02  0.71771694437E+02  0.10807747999E+03  0.15139292415E+03  0.00000000000E+00 0.  1.
         11    1    5    5    0    0  0.28144696829E+03 -0.17185740916E+03 -0.30590211893E+03  0.44980381436E+03  0.00000000000E+00 0. -1.
        -11    1    5    5    0    0  0.70119445991E+02 -0.57028338844E+02 -0.29947810417E+02  0.95214702049E+02  0.00000000000E+00 0.  1.
          2    1    6    6  503    0 -0.27086935803E+03  0.10714870947E+03 -0.20262246021E+02  0.29199591380E+03  0.00000000000E+00 0. -1.
         -2    1    6    6    0  503 -0.14049785403E+03  0.27275075848E+02 -0.69024664120E+02  0.15889613276E+03  0.00000000000E+00 0.  1.
<mgrwt>
<rscale>  0 0.11401356E+04</rscale>
<asrwt>0</asrwt>
<pdfrwt beam="1">  1        2 0.11404260E+00 0.11401356E+04</pdfrwt>
<pdfrwt beam="2">  1       -1 0.67446471E-01 0.11401356E+04</pdfrwt>
<totfact> 0.95898750E+01</totfact>
</mgrwt>
</event>
<event>
12    6  0.1540825E-007  0.1637960E+04  0.7818608E-02  0.8797561E-01
         -1   -1    0    0    0  501 -0.00000000000E+00  0.00000000000E+00  0.35833019889E+03  0.35833019889E+03  0.00000000000E+00 0.  1.
          2   -1    0    0  501    0  0.00000000000E+00 -0.00000000000E+00 -0.18718164947E+04  0.18718164947E+04  0.00000000000E+00 0. -1.
         24    2    1    2    0    0  0.37326086430E+03  0.54077388071E+02 -0.11275017079E+04  0.11917493390E+04  0.82209178803E+02 0.  0.
        254    2    1    2    0    0 -0.37326086430E+03 -0.54077388071E+02 -0.38598458800E+03  0.10383973546E+04  0.88715101713E+03 0.  0.
         23    2    4    4    0    0 -0.41906036601E+03  0.26206967870E+03  0.31833600087E+02  0.50358474131E+03  0.91061005518E+02 0.  0.
         23    2    4    4    0    0  0.45799501707E+02 -0.31614706678E+03 -0.41781818808E+03  0.53481261331E+03  0.96984178489E+02 0.  0.
          4    1    3    3  502    0  0.20123079063E+03  0.10759134446E+02 -0.71182577306E+03  0.73980100112E+03  0.00000000000E+00 0. -1.
         -1    1    3    3    0  502  0.17203007367E+03  0.43318253626E+02 -0.41567593479E+03  0.45194833788E+03  0.00000000000E+00 0.  1.
         11    1    5    5    0    0 -0.15328437143E+03  0.11199576239E+03 -0.29912725433E+02  0.19218199827E+03  0.00000000000E+00 0. -1.
        -11    1    5    5    0    0 -0.26577599458E+03  0.15007391632E+03  0.61746325520E+02  0.31140274304E+03  0.00000000000E+00 0.  1.
          4    1    6    6  503    0 -0.15546475465E+02 -0.47004946988E+01 -0.16822685289E+02  0.23383547425E+02  0.00000000000E+00 0. -1.
         -4    1    6    6    0  503  0.61345977173E+02 -0.31144657208E+03 -0.40099550279E+03  0.51142906589E+03  0.00000000000E+00 0.  1.
<mgrwt>
<rscale>  0 0.16379602E+04</rscale>
<asrwt>0</asrwt>
<pdfrwt beam="1">  1        2 0.28797177E+00 0.16379602E+04</pdfrwt>
<pdfrwt beam="2">  1       -1 0.55127723E-01 0.16379602E+04</pdfrwt>
<totfact> 0.28516761E+01</totfact>
</mgrwt>
</event>
<event>
12    6  0.1540825E-007  0.1871884E+04  0.7818608E-02  0.8668979E-01
         -1   -1    0    0    0  501 -0.00000000000E+00  0.00000000000E+00  0.27939219019E+03  0.27939219019E+03  0.00000000000E+00 0.  1.
          2   -1    0    0  501    0  0.00000000000E+00 -0.00000000000E+00 -0.31353323383E+04  0.31353323383E+04  0.00000000000E+00 0. -1.
         24    2    1    2    0    0  0.82003896345E+02 -0.27937986462E+03  0.89455445502E+02  0.31463680764E+03  0.78843491913E+02 0.  0.
        254    2    1    2    0    0 -0.82003896345E+02  0.27937986462E+03 -0.29453955936E+04  0.31000877209E+04  0.92217727489E+03 0.  0.
         23    2    4    4    0    0  0.19596171978E+03  0.63075755843E+02 -0.25600844514E+04  0.25699545628E+04  0.90854335514E+02 0.  0.
         23    2    4    4    0    0 -0.27796561612E+03  0.21630410878E+03 -0.38531114227E+03  0.53013315804E+03  0.92326256705E+02 0.  0.
          2    1    3    3  502    0  0.54789983504E+01 -0.14601360461E+03  0.60632990053E+02  0.15819719226E+03  0.00000000000E+00 0. -1.
         -1    1    3    3    0  502  0.76524897995E+02 -0.13336626001E+03  0.28822455449E+02  0.15643961538E+03  0.00000000000E+00 0.  1.
         11    1    5    5    0    0  0.17389639164E+03  0.74670608679E+02 -0.24389899119E+04  0.24463212065E+04  0.00000000000E+00 0.  1.
        -11    1    5    5    0    0  0.22065328143E+02 -0.11594852836E+02 -0.12109453944E+03  0.12363335635E+03  0.00000000000E+00 0. -1.
          2    1    6    6  503    0 -0.11801872877E+03  0.39504854184E+02 -0.15334055577E+03  0.19749020200E+03  0.00000000000E+00 0. -1.
         -2    1    6    6    0  503 -0.15994688736E+03  0.17679925460E+03 -0.23197058650E+03  0.33264295604E+03  0.00000000000E+00 0.  1.
<mgrwt>
<rscale>  0 0.18718839E+04</rscale>
<asrwt>0</asrwt>
<pdfrwt beam="1">  1        2 0.48235882E+00 0.18718839E+04</pdfrwt>
<pdfrwt beam="2">  1       -1 0.42983414E-01 0.18718839E+04</pdfrwt>
<totfact> 0.81748512E+00</totfact>
</mgrwt>
</event>
<event>
12    6  0.1540825E-007  0.1301485E+04  0.7818608E-02  0.9028389E-01
          2   -1    0    0  501    0  0.00000000000E+00  0.00000000000E+00  0.17122371787E+04  0.17122371787E+04  0.00000000000E+00 0. -1.
         -1   -1    0    0    0  501 -0.00000000000E+00 -0.00000000000E+00 -0.24731711146E+03  0.24731711146E+03  0.00000000000E+00 0.  1.
         24    2    1    2    0    0 -0.83460065615E+01 -0.28679619974E+03  0.12255334496E+03  0.32095106489E+03  0.75289758161E+02 0.  0.
        254    2    1    2    0    0  0.83460065615E+01  0.28679619974E+03  0.13423667222E+04  0.16386032252E+04  0.89484657719E+03 0.  0.
         23    2    4    4    0    0  0.47880057893E+02  0.23914583959E+02  0.13538226354E+04  0.13577764756E+04  0.88638718295E+02 0.  0.
         23    2    4    4    0    0 -0.39534051331E+02  0.26288161578E+03 -0.11455913116E+02  0.28082674963E+03  0.89792762713E+02 0.  0.
          4    1    3    3  502    0  0.16076139500E+02 -0.59229455428E+02  0.87062316043E-01  0.61372454989E+02  0.00000000000E+00 0. -1.
         -1    1    3    3    0  502 -0.24422146061E+02 -0.22756674431E+03  0.12246628264E+03  0.25957860990E+03  0.00000000000E+00 0.  1.
         11    1    5    5    0    0  0.65523680696E+02 -0.62336078038E+01  0.10228633509E+04  0.10249788511E+04  0.00000000000E+00 0. -1.
        -11    1    5    5    0    0 -0.17643622803E+02  0.30148191763E+02  0.33095928449E+03  0.33279762451E+03  0.00000000000E+00 0.  1.
          3    1    6    6  503    0 -0.28671543997E+02  0.25421869416E+03  0.91272328417E+01  0.25599318013E+03  0.00000000000E+00 0. -1.
         -3    1    6    6    0  503 -0.10862507334E+02  0.86629216174E+01 -0.20583145958E+02  0.24833569499E+02  0.00000000000E+00 0.  1.
<mgrwt>
<rscale>  0 0.13014846E+04</rscale>
<asrwt>0</asrwt>
<pdfrwt beam="1">  1        2 0.26342110E+00 0.13014846E+04</pdfrwt>
<pdfrwt beam="2">  1       -1 0.38048787E-01 0.13014846E+04</pdfrwt>
<totfact> 0.71928562E+01</totfact>
</mgrwt>
</event>
<event>
12    6  0.1540825E-007  0.2351172E+04  0.7818608E-02  0.8458014E-01
          4   -1    0    0  501    0  0.00000000000E+00  0.00000000000E+00  0.58264318844E+03  0.58264318844E+03  0.00000000000E+00 0. -1.
         -3   -1    0    0    0  501 -0.00000000000E+00 -0.00000000000E+00 -0.23719533076E+04  0.23719533076E+04  0.00000000000E+00 0.  1.
         24    2    1    2    0    0 -0.83259362597E+03 -0.27808396674E+03 -0.16138618578E+03  0.89611056382E+03  0.80161106911E+02 0.  0.
        254    2    1    2    0    0  0.83259362597E+03  0.27808396674E+03 -0.16279239334E+04  0.20584859323E+04  0.90370634710E+03 0.  0.
         23    2    4    4    0    0  0.67459312784E+03  0.58383266986E+03 -0.10640273445E+04  0.13916773154E+04  0.93140141243E+02 0.  0.
         23    2    4    4    0    0  0.15800049813E+03 -0.30574870311E+03 -0.56389658892E+03  0.66680861684E+03  0.90597691098E+02 0.  0.
          4    1    3    3  502    0 -0.66818692317E+03 -0.24184373412E+03 -0.15676702497E+03  0.72769365543E+03  0.00000000000E+00 0. -1.
         -1    1    3    3    0  502 -0.16440670280E+03 -0.36240232619E+02 -0.46191608130E+01  0.16841690839E+03  0.00000000000E+00 0.  1.
         11    1    5    5    0    0  0.32144279160E+03  0.32202225182E+03 -0.49036608289E+03  0.66894147291E+03  0.00000000000E+00 0.  1.
        -11    1    5    5    0    0  0.35315033625E+03  0.26181041804E+03 -0.57366126159E+03  0.72273584250E+03  0.00000000000E+00 0. -1.
          2    1    6    6  503    0  0.39575165421E+01 -0.72942734949E+02 -0.81365931977E+02  0.10934678507E+03  0.00000000000E+00 0. -1.
         -2    1    6    6    0  503  0.15404298159E+03 -0.23280596816E+03 -0.48253065695E+03  0.55746183177E+03  0.00000000000E+00 0.  1.
<mgrwt>
<rscale>  0 0.23511720E+04</rscale>
<asrwt>0</asrwt>
<pdfrwt beam="1">  1        4 0.89637414E-01 0.23511720E+04</pdfrwt>
<pdfrwt beam="2">  1       -3 0.36491589E+00 0.23511720E+04</pdfrwt>
<totfact> 0.36520602E-02</totfact>
</mgrwt>
</event>
<event>
12    6  0.1540825E-007  0.1274581E+04  0.7818608E-02  0.9049969E-01
         -1   -1    0    0    0  501 -0.00000000000E+00  0.00000000000E+00  0.28743528588E+03  0.28743528588E+03  0.00000000000E+00 0.  1.
          2   -1    0    0  501    0  0.00000000000E+00 -0.00000000000E+00 -0.14129750987E+04  0.14129750987E+04  0.00000000000E+00 0. -1.
         24    2    1    2    0    0  0.15733831888E+03 -0.26738255652E+03 -0.28297751329E+03  0.42749631473E+03  0.80175108123E+02 0.  0.
        254    2    1    2    0    0 -0.15733831888E+03  0.26738255652E+03 -0.84256229958E+03  0.12729140699E+04  0.90230273332E+03 0.  0.
         23    2    4    4    0    0 -0.19127969081E+03 -0.17159807464E+03 -0.77023151549E+03  0.81722263253E+03  0.92533368703E+02 0.  0.
         23    2    4    4    0    0  0.33941371930E+02  0.43898063116E+03 -0.72330784091E+02  0.45569143737E+03  0.92557725258E+02 0.  0.
          2    1    3    3  502    0  0.60259984140E+02 -0.17999197951E+03 -0.16833876491E+03  0.25370517958E+03  0.00000000000E+00 0. -1.
         -1    1    3    3    0  502  0.97078334740E+02 -0.87390577013E+02 -0.11463874837E+03  0.17379113514E+03  0.00000000000E+00 0.  1.
         11    1    5    5    0    0 -0.54620695625E+02 -0.99097755283E+02 -0.24871501736E+03  0.27324521103E+03  0.00000000000E+00 0. -1.
        -11    1    5    5    0    0 -0.13665899518E+03 -0.72500319357E+02 -0.52151649813E+03  0.54397742149E+03  0.00000000000E+00 0.  1.
          3    1    6    6  503    0  0.16494695643E+02  0.99024431983E+02 -0.55873594604E+02  0.11489025933E+03  0.00000000000E+00 0. -1.
         -3    1    6    6    0  503  0.17446676288E+02  0.33995619918E+03 -0.16457189487E+02  0.34080117805E+03  0.00000000000E+00 0.  1.
<mgrwt>
<rscale>  0 0.12745806E+04</rscale>
<asrwt>0</asrwt>
<pdfrwt beam="1">  1        2 0.21738078E+00 0.12745806E+04</pdfrwt>
<pdfrwt beam="2">  1       -1 0.44220813E-01 0.12745806E+04</pdfrwt>
<totfact> 0.80509278E+01</totfact>
</mgrwt>
</event>
<event>
12    6  0.1540825E-007  0.1991029E+04  0.7818608E-02  0.8610826E-01
          2   -1    0    0  501    0  0.00000000000E+00  0.00000000000E+00  0.13316461340E+04  0.13316461340E+04  0.00000000000E+00 0. -1.
         -1   -1    0    0    0  501 -0.00000000000E+00 -0.00000000000E+00 -0.74422882925E+03  0.74422882925E+03  0.00000000000E+00 0.  1.
         24    2    1    2    0    0 -0.27978222444E+03 -0.44344472528E+03 -0.37705675427E+03  0.65145407889E+03  0.85435961244E+02 0.  0.
        254    2    1    2    0    0  0.27978222444E+03  0.44344472528E+03  0.96447405907E+03  0.14244208844E+04  0.90765815582E+03 0.  0.
         23    2    4    4    0    0 -0.43398504540E+01  0.52415434386E+03  0.14885293402E+03  0.55234922381E+03  0.90420454531E+02 0.  0.
         23    2    4    4    0    0  0.28412207489E+03 -0.80709618572E+02  0.81562112505E+03  0.87207166059E+03  0.89620118325E+02 0.  0.
          4    1    3    3  502    0 -0.83070191258E+02 -0.21030420962E+03 -0.15469251714E+03  0.27396768444E+03  0.00000000000E+00 0. -1.
         -3    1    3    3    0  502 -0.19671203318E+03 -0.23314051566E+03 -0.22236423713E+03  0.37748639445E+03  0.00000000000E+00 0.  1.
         11    1    5    5    0    0 -0.16572469950E+02  0.43303668927E+03  0.88282986431E+02  0.44225479840E+03  0.00000000000E+00 0. -1.
        -11    1    5    5    0    0  0.12232619496E+02  0.91117654588E+02  0.60569947585E+02  0.11009442542E+03  0.00000000000E+00 0.  1.
          4    1    6    6  503    0  0.12738967879E+03 -0.77612160907E+02  0.34005200498E+03  0.37133158211E+03  0.00000000000E+00 0.  1.
         -4    1    6    6    0  503  0.15673239610E+03 -0.30974576657E+01  0.47556912007E+03  0.50074007848E+03  0.00000000000E+00 0. -1.
<mgrwt>
<rscale>  0 0.19910293E+04</rscale>
<asrwt>0</asrwt>
<pdfrwt beam="1">  1        2 0.20486864E+00 0.19910293E+04</pdfrwt>
<pdfrwt beam="2">  1       -1 0.11449674E+00 0.19910293E+04</pdfrwt>
<totfact> 0.11648313E+01</totfact>
</mgrwt>
</event>
<event>
12    6  0.1540825E-007  0.1261443E+04  0.7818608E-02  0.9060713E-01
          2   -1    0    0  501    0  0.00000000000E+00  0.00000000000E+00  0.13167293082E+04  0.13167293082E+04  0.00000000000E+00 0. -1.
         -1   -1    0    0    0  501 -0.00000000000E+00 -0.00000000000E+00 -0.30211955842E+03  0.30211955842E+03  0.00000000000E+00 0.  1.
         24    2    1    2    0    0  0.19685524374E+03 -0.22757394377E+03  0.25998885682E+03  0.40543789174E+03  0.79017665883E+02 0.  0.
        254    2    1    2    0    0 -0.19685524374E+03  0.22757394377E+03  0.75462089292E+03  0.12134109748E+04  0.90131660084E+03 0.  0.
         23    2    4    4    0    0  0.30324342154E+03  0.29859786432E+03  0.38849169416E+03  0.58341569803E+03  0.91273342173E+02 0.  0.
         23    2    4    4    0    0 -0.50009866528E+03 -0.71023920553E+02  0.36612919877E+03  0.62999527681E+03  0.87751845037E+02 0.  0.
          2    1    3    3  502    0  0.18593803595E+03 -0.22103129013E+03  0.26478134174E+03  0.39183790445E+03  0.00000000000E+00 0. -1.
         -1    1    3    3    0  502  0.10917207791E+02 -0.65426536340E+01 -0.47924849257E+01  0.13599987290E+02  0.00000000000E+00 0.  1.
         11    1    5    5    0    0  0.67596249974E+02  0.11944852914E+03  0.97748111150E+02  0.16849895358E+03  0.00000000000E+00 0. -1.
        -11    1    5    5    0    0  0.23564717157E+03  0.17914933518E+03  0.29074358301E+03  0.41491674445E+03  0.00000000000E+00 0.  1.
          4    1    6    6  503    0 -0.36754748265E+02 -0.30145658414E+02  0.34569049360E+02  0.58776623031E+02  0.00000000000E+00 0. -1.
         -4    1    6    6    0  503 -0.46334391702E+03 -0.40878262139E+02  0.33156014941E+03  0.57121865378E+03  0.00000000000E+00 0.  1.
<mgrwt>
<rscale>  0 0.12614431E+04</rscale>
<asrwt>0</asrwt>
<pdfrwt beam="1">  1        2 0.20257374E+00 0.12614431E+04</pdfrwt>
<pdfrwt beam="2">  1       -1 0.46479933E-01 0.12614431E+04</pdfrwt>
<totfact> 0.83421134E+01</totfact>
</mgrwt>
</event>
<event>
12    6  0.1540825E-007  0.1945918E+04  0.7818608E-02  0.8632332E-01
          2   -1    0    0  501    0  0.00000000000E+00  0.00000000000E+00  0.87011887268E+03  0.87011887268E+03  0.00000000000E+00 0. -1.
         -1   -1    0    0    0  501 -0.00000000000E+00 -0.00000000000E+00 -0.10879539931E+04  0.10879539931E+04  0.00000000000E+00 0.  1.
         24    2    1    2    0    0  0.25198178569E+03 -0.24072560846E+03  0.59985315085E+03  0.69815157015E+03  0.78410289109E+02 0.  0.
        254    2    1    2    0    0 -0.25198178569E+03  0.24072560846E+03 -0.81768827131E+03  0.12599212957E+04  0.89294116456E+03 0.  0.
         23    2    4    4    0    0 -0.30212355007E+03 -0.27648624544E+03 -0.26357925849E+03  0.49509478834E+03  0.89003036541E+02 0.  0.
         23    2    4    4    0    0  0.50141764383E+02  0.51721185390E+03 -0.55410901282E+03  0.76482650733E+03  0.88884699931E+02 0.  0.
          2    1    3    3  502    0  0.19717566621E+03 -0.14779711252E+03  0.45618578738E+03  0.51848597129E+03  0.00000000000E+00 0. -1.
         -1    1    3    3    0  502  0.54806119482E+02 -0.92928495939E+02  0.14366736346E+03  0.17966559886E+03  0.00000000000E+00 0.  1.
         11    1    5    5    0    0 -0.18925240301E+03 -0.21803082730E+03 -0.15369194499E+03  0.32707052397E+03  0.00000000000E+00 0. -1.
        -11    1    5    5    0    0 -0.11287114706E+03 -0.58455418143E+02 -0.10988731350E+03  0.16802426437E+03  0.00000000000E+00 0.  1.
          4    1    6    6  503    0  0.34460753534E+01  0.14264205307E+03 -0.21104487709E+03  0.25475197916E+03  0.00000000000E+00 0. -1.
         -4    1    6    6    0  503  0.46695689029E+02  0.37456980083E+03 -0.34306413572E+03  0.51007452817E+03  0.00000000000E+00 0.  1.
<mgrwt>
<rscale>  0 0.19459181E+04</rscale>
<asrwt>0</asrwt>
<pdfrwt beam="1">  1        2 0.13386444E+00 0.19459181E+04</pdfrwt>
<pdfrwt beam="2">  1       -1 0.16737754E+00 0.19459181E+04</pdfrwt>
<totfact> 0.84198808E+00</totfact>
</mgrwt>
</event>
<event>
12    6  0.1540825E-007  0.1879387E+04  0.7818608E-02  0.8665185E-01
          2   -1    0    0  501    0  0.00000000000E+00  0.00000000000E+00  0.13657798827E+04  0.13657798827E+04  0.00000000000E+00 0. -1.
         -1   -1    0    0    0  501 -0.00000000000E+00 -0.00000000000E+00 -0.64653480182E+03  0.64653480182E+03  0.00000000000E+00 0.  1.
         24    2    1    2    0    0 -0.18742021426E+03  0.71159818987E+03  0.29025423911E+03  0.79449602069E+03  0.74014073242E+02 0.  0.
        254    2    1    2    0    0  0.18742021426E+03 -0.71159818987E+03  0.42899084177E+03  0.12178186638E+04  0.87037396279E+03 0.  0.
         23    2    4    4    0    0  0.33220117314E+03 -0.81000164072E+03  0.49799593601E+03  0.10113255118E+04  0.91208887858E+02 0.  0.
         23    2    4    4    0    0 -0.14478095888E+03  0.98403450848E+02 -0.69005094244E+02  0.20649315198E+03  0.85046772946E+02 0.  0.
          2    1    3    3  502    0 -0.19241979918E+03  0.67821423426E+03  0.26874409104E+03  0.75446889475E+03  0.00000000000E+00 0. -1.
         -1    1    3    3    0  502  0.49995849250E+01  0.33383955603E+02  0.21510148069E+02  0.40027125941E+02  0.00000000000E+00 0.  1.
         11    1    5    5    0    0  0.40279210884E+02 -0.18884306382E+03  0.91863077896E+02  0.21382923716E+03  0.00000000000E+00 0.  1.
        -11    1    5    5    0    0  0.29192196226E+03 -0.62115857689E+03  0.40613285811E+03  0.79749627469E+03  0.00000000000E+00 0. -1.
          3    1    6    6  503    0 -0.14560282815E+03  0.69832213859E+02 -0.73736322050E+02  0.17752117295E+03  0.00000000000E+00 0. -1.
         -3    1    6    6    0  503  0.82186926302E+00  0.28571236989E+02  0.47312278066E+01  0.28971979027E+02  0.00000000000E+00 0.  1.
<mgrwt>
<rscale>  0 0.18793874E+04</rscale>
<asrwt>0</asrwt>
<pdfrwt beam="1">  1        2 0.21011998E+00 0.18793874E+04</pdfrwt>
<pdfrwt beam="2">  1       -1 0.99466893E-01 0.18793874E+04</pdfrwt>
<totfact> 0.15620862E+01</totfact>
</mgrwt>
</event>
<event>
12    6  0.1540825E-007  0.2042248E+04  0.7818608E-02  0.8587119E-01
         -1   -1    0    0    0  501 -0.00000000000E+00  0.00000000000E+00  0.74401126459E+03  0.74401126459E+03  0.00000000000E+00 0.  1.
          2   -1    0    0  501    0  0.00000000000E+00 -0.00000000000E+00 -0.14014490841E+04  0.14014490841E+04  0.00000000000E+00 0. -1.
         24    2    1    2    0    0  0.29544822923E+03 -0.52307570268E+02 -0.10671847683E+04  0.11111734084E+04  0.76139843470E+02 0.  0.
        254    2    1    2    0    0 -0.29544822923E+03  0.52307570268E+02  0.40974694875E+03  0.10342869403E+04  0.90101674505E+03 0.  0.
         23    2    4    4    0    0  0.16250002750E+03  0.24509278485E+03 -0.91338314309E+02  0.32323967789E+03  0.98308034145E+02 0.  0.
         23    2    4    4    0    0 -0.45794825673E+03 -0.19278521458E+03  0.50108526306E+03  0.71104726244E+03  0.87287019447E+02 0.  0.
          2    1    3    3  502    0  0.29668783191E+03 -0.54210134037E+02 -0.10670984158E+04  0.11089010043E+04  0.00000000000E+00 0. -1.
         -1    1    3    3    0  502 -0.12396026759E+01  0.19025637686E+01 -0.86352470539E-01  0.22724041095E+01  0.00000000000E+00 0.  1.
         11    1    5    5    0    0  0.28818273932E+02  0.36166053760E+02  0.21196295450E+02  0.50870023568E+02  0.00000000000E+00 0. -1.
        -11    1    5    5    0    0  0.13368175357E+03  0.20892673109E+03 -0.11253460976E+03  0.27236965432E+03  0.00000000000E+00 0.  1.
          3    1    6    6  503    0 -0.20673435349E+02 -0.24781345095E+02  0.57349005692E+02  0.65805884598E+02  0.00000000000E+00 0. -1.
         -3    1    6    6    0  503 -0.43727482139E+03 -0.16800386949E+03  0.44373625737E+03  0.64524137785E+03  0.00000000000E+00 0.  1.
<mgrwt>
<rscale>  0 0.20422477E+04</rscale>
<asrwt>0</asrwt>
<pdfrwt beam="1">  1        2 0.21560755E+00 0.20422477E+04</pdfrwt>
<pdfrwt beam="2">  1       -1 0.11446327E+00 0.20422477E+04</pdfrwt>
<totfact> 0.10578964E+01</totfact>
</mgrwt>
</event>
<event>
12    6  0.1540825E-007  0.2105771E+04  0.7818608E-02  0.8558705E-01
         -1   -1    0    0    0  501 -0.00000000000E+00  0.00000000000E+00  0.11545125520E+04  0.11545125520E+04  0.00000000000E+00 0.  1.
          2   -1    0    0  501    0  0.00000000000E+00 -0.00000000000E+00 -0.96020457006E+03  0.96020457006E+03  0.00000000000E+00 0. -1.
         24    2    1    2    0    0  0.64803842368E+03  0.43185281875E+03  0.44317663953E+03  0.89961180093E+03  0.80282021076E+02 0.  0.
        254    2    1    2    0    0 -0.64803842368E+03 -0.43185281875E+03 -0.24886865760E+03  0.12151053211E+04  0.89894086406E+03 0.  0.
         23    2    4    4    0    0  0.68280459112E+02 -0.35108646900E+03  0.13593689194E+03  0.39330145679E+03  0.91012457971E+02 0.  0.
         23    2    4    4    0    0 -0.71631888279E+03 -0.80766349750E+02 -0.38480554953E+03  0.82180386435E+03  0.87466195766E+02 0.  0.
          2    1    3    3  502    0  0.12409122535E+01  0.11217938853E+02  0.75772426318E+01  0.13593992101E+02  0.00000000000E+00 0. -1.
         -3    1    3    3    0  502  0.64679751143E+03  0.42063487990E+03  0.43559939690E+03  0.88601780883E+03  0.00000000000E+00 0.  1.
         11    1    5    5    0    0  0.37127795610E+02 -0.30740670351E+03  0.89422679692E+02  0.32229453953E+03  0.00000000000E+00 0. -1.
        -11    1    5    5    0    0  0.31152663502E+02 -0.43679765496E+02  0.46514212248E+02  0.71006917255E+02  0.00000000000E+00 0.  1.
          3    1    6    6  503    0 -0.43814353826E+03 -0.88497864826E+02 -0.25661214902E+03  0.51541384073E+03  0.00000000000E+00 0. -1.
         -3    1    6    6    0  503 -0.27817534454E+03  0.77315150752E+01 -0.12819340052E+03  0.30639002361E+03  0.00000000000E+00 0.  1.
<mgrwt>
<rscale>  0 0.21057713E+04</rscale>
<asrwt>0</asrwt>
<pdfrwt beam="1">  1        2 0.14772378E+00 0.21057713E+04</pdfrwt>
<pdfrwt beam="2">  1       -1 0.17761732E+00 0.21057713E+04</pdfrwt>
<totfact> 0.60814613E+00</totfact>
</mgrwt>
</event>
<event>
12    6  0.1540825E-007  0.1106058E+04  0.7818608E-02  0.9199308E-01
          2   -1    0    0  501    0  0.00000000000E+00  0.00000000000E+00  0.19917550419E+04  0.19917550419E+04  0.00000000000E+00 0. -1.
         -3   -1    0    0    0  501 -0.00000000000E+00 -0.00000000000E+00 -0.15355345968E+03  0.15355345968E+03  0.00000000000E+00 0.  1.
         24    2    1    2    0    0  0.45822826654E+02 -0.13089862624E+03  0.14644432163E+03  0.21721644242E+03  0.80640323219E+02 0.  0.
        254    2    1    2    0    0 -0.45822826654E+02  0.13089862624E+03  0.16917572606E+04  0.19280920592E+04  0.91447371640E+03 0.  0.
         23    2    4    4    0    0 -0.30996899604E+02  0.37552617363E+03  0.16071143743E+04  0.16532237345E+04  0.91385936869E+02 0.  0.
         23    2    4    4    0    0 -0.14825927050E+02 -0.24462754739E+03  0.84642886333E+02  0.27486832466E+03  0.91245452712E+02 0.  0.
          2    1    3    3  502    0  0.39005809371E+02 -0.35732714467E+02  0.95215543255E+02  0.10892327449E+03  0.00000000000E+00 0. -1.
         -1    1    3    3    0  502  0.68170172828E+01 -0.95165911773E+02  0.51228778372E+02  0.10829316794E+03  0.00000000000E+00 0.  1.
         11    1    5    5    0    0 -0.35564458965E+02  0.60035481063E+02  0.22605325606E+03  0.23657803005E+03  0.00000000000E+00 0. -1.
        -11    1    5    5    0    0  0.45675593611E+01  0.31549069256E+03  0.13810611182E+04  0.14166457044E+04  0.00000000000E+00 0.  1.
          4    1    6    6  503    0  0.11046982107E+02 -0.17819344657E+03  0.95946006901E+02  0.20268343902E+03  0.00000000000E+00 0. -1.
         -4    1    6    6    0  503 -0.25872909156E+02 -0.66434100821E+02 -0.11303120568E+02  0.72184885639E+02  0.00000000000E+00 0.  1.
<mgrwt>
<rscale>  0 0.11060576E+04</rscale>
<asrwt>0</asrwt>
<pdfrwt beam="1">  1        2 0.30642383E+00 0.11060576E+04</pdfrwt>
<pdfrwt beam="2">  1       -3 0.23623611E-01 0.11060576E+04</pdfrwt>
<totfact> 0.73823568E+01</totfact>
</mgrwt>
</event>
<event>
12    6  0.1540825E-007  0.2348609E+04  0.7818608E-02  0.8458998E-01
         -1   -1    0    0    0  501 -0.00000000000E+00  0.00000000000E+00  0.41627896135E+03  0.41627896135E+03  0.00000000000E+00 0.  1.
          2   -1    0    0  501    0  0.00000000000E+00 -0.00000000000E+00 -0.33126596873E+04  0.33126596873E+04  0.00000000000E+00 0. -1.
         24    2    1    2    0    0 -0.84016152488E+02 -0.63853551314E+03 -0.19588645429E+02  0.64827669014E+03  0.71362711072E+02 0.  0.
        254    2    1    2    0    0  0.84016152488E+02  0.63853551314E+03 -0.28767920805E+04  0.30806619585E+04  0.89429252077E+03 0.  0.
         23    2    4    4    0    0 -0.25895522490E+03  0.57934982402E+03 -0.23835005575E+04  0.24682077941E+04  0.90943830528E+02 0.  0.
         23    2    4    4    0    0  0.34297137739E+03  0.59185689115E+02 -0.49329152304E+03  0.61245416441E+03  0.10310802730E+03 0.  0.
          4    1    3    3  502    0 -0.29228696048E+02 -0.11742398011E+03  0.20624903555E+02  0.12275216668E+03  0.00000000000E+00 0. -1.
         -3    1    3    3    0  502 -0.54787456440E+02 -0.52111153302E+03 -0.40213548984E+02  0.52552452346E+03  0.00000000000E+00 0.  1.
         11    1    5    5    0    0 -0.24887416300E+03  0.55707786793E+03 -0.23407211713E+04  0.24189356548E+04  0.00000000000E+00 0. -1.
        -11    1    5    5    0    0 -0.10081061899E+02  0.22271956095E+02 -0.42779386158E+02  0.49272139363E+02  0.00000000000E+00 0.  1.
          2    1    6    6  503    0  0.33782181745E+03  0.58380012271E+02 -0.43464998142E+03  0.55358144163E+03  0.00000000000E+00 0. -1.
         -2    1    6    6    0  503  0.51495599382E+01  0.80567684418E+00 -0.58641541623E+02  0.58872722772E+02  0.00000000000E+00 0.  1.
<mgrwt>
<rscale>  0 0.23486086E+04</rscale>
<asrwt>0</asrwt>
<pdfrwt beam="1">  1        2 0.50963996E+00 0.23486086E+04</pdfrwt>
<pdfrwt beam="2">  1       -1 0.64042916E-01 0.23486086E+04</pdfrwt>
<totfact> 0.27788069E+00</totfact>
</mgrwt>
</event>
<event>
12    6  0.1540825E-007  0.2111691E+04  0.7818608E-02  0.8556111E-01
         -1   -1    0    0    0  501 -0.00000000000E+00  0.00000000000E+00  0.63770271280E+03  0.63770271280E+03  0.00000000000E+00 0.  1.
          2   -1    0    0  501    0  0.00000000000E+00 -0.00000000000E+00 -0.17481654768E+04  0.17481654768E+04  0.00000000000E+00 0. -1.
         24    2    1    2    0    0  0.85369190575E+03 -0.37762152174E+02 -0.32893066865E+03  0.91917290278E+03  0.80421330181E+02 0.  0.
        254    2    1    2    0    0 -0.85369190575E+03  0.37762152174E+02 -0.78153209537E+03  0.14666952868E+04  0.90010377083E+03 0.  0.
         23    2    4    4    0    0 -0.40349743023E+03 -0.12249994807E+03 -0.87099057025E+03  0.97208231086E+03  0.92211887237E+02 0.  0.
         23    2    4    4    0    0 -0.45019447552E+03  0.16026210024E+03  0.89458474879E+02  0.49461297598E+03  0.90995443376E+02 0.  0.
          2    1    3    3  502    0  0.11698692378E+03  0.89700697593E+01 -0.71435680686E+02  0.13736614926E+03  0.00000000000E+00 0. -1.
         -1    1    3    3    0  502  0.73670498198E+03 -0.46732221933E+02 -0.25749498796E+03  0.78180675353E+03  0.00000000000E+00 0.  1.
         11    1    5    5    0    0 -0.37319822058E+03 -0.85147828883E+02 -0.75433501787E+03  0.84590093024E+03  0.00000000000E+00 0. -1.
        -11    1    5    5    0    0 -0.30299209654E+02 -0.37352119186E+02 -0.11665555238E+03  0.12618138062E+03  0.00000000000E+00 0.  1.
          2    1    6    6  503    0 -0.44896998194E+03  0.16626602285E+03  0.83364924196E+02  0.48597134239E+03  0.00000000000E+00 0. -1.
         -2    1    6    6    0  503 -0.12244935787E+01 -0.60039226037E+01  0.60935506829E+01  0.86416335887E+01  0.00000000000E+00 0.  1.
<mgrwt>
<rscale>  0 0.21116911E+04</rscale>
<asrwt>0</asrwt>
<pdfrwt beam="1">  1        2 0.26894854E+00 0.21116911E+04</pdfrwt>
<pdfrwt beam="2">  1       -1 0.98108110E-01 0.21116911E+04</pdfrwt>
<totfact> 0.96235752E+00</totfact>
</mgrwt>
</event>
<event>
12    6  0.1540825E-007  0.1602443E+04  0.7818608E-02  0.8819048E-01
          2   -1    0    0  501    0  0.00000000000E+00  0.00000000000E+00  0.75098953157E+03  0.75098953157E+03  0.00000000000E+00 0. -1.
         -1   -1    0    0    0  501 -0.00000000000E+00 -0.00000000000E+00 -0.85481354673E+03  0.85481354673E+03  0.00000000000E+00 0.  1.
         24    2    1    2    0    0  0.12800315216E+03 -0.52571786607E+03 -0.63472195375E+02  0.55067306181E+03  0.80299562591E+02 0.  0.
        254    2    1    2    0    0 -0.12800315216E+03  0.52571786607E+03 -0.40351819785E+02  0.10551300165E+04  0.90493480466E+03 0.  0.
         23    2    4    4    0    0  0.36882729706E+03  0.26378172590E+03 -0.12653452333E+03  0.47964597979E+03  0.91841746255E+02 0.  0.
         23    2    4    4    0    0 -0.49683044922E+03  0.26193614017E+03  0.86182703548E+02  0.57548403670E+03  0.91122891267E+02 0.  0.
          2    1    3    3  502    0  0.46543712271E+02 -0.33427500618E+03 -0.58693045011E+02  0.34256527909E+03  0.00000000000E+00 0. -1.
         -1    1    3    3    0  502  0.81459439885E+02 -0.19144285989E+03 -0.47791503640E+01  0.20810778272E+03  0.00000000000E+00 0.  1.
         11    1    5    5    0    0  0.33296915297E+03  0.24350180919E+03 -0.14106968365E+03  0.43596128676E+03  0.00000000000E+00 0.  1.
        -11    1    5    5    0    0  0.35858144091E+02  0.20279916709E+02  0.14535160318E+02  0.43684693027E+02  0.00000000000E+00 0. -1.
          4    1    6    6  503    0 -0.29771366613E+03  0.15703143658E+03  0.96615823815E+02  0.35018126233E+03  0.00000000000E+00 0.  1.
         -4    1    6    6    0  503 -0.19911678309E+03  0.10490470359E+03 -0.10433120266E+02  0.22530277437E+03  0.00000000000E+00 0. -1.
<mgrwt>
<rscale>  0 0.16024432E+04</rscale>
<asrwt>0</asrwt>
<pdfrwt beam="1">  1        2 0.11553685E+00 0.16024432E+04</pdfrwt>
<pdfrwt beam="2">  1       -1 0.13150978E+00 0.16024432E+04</pdfrwt>
<totfact> 0.20188795E+01</totfact>
</mgrwt>
</event>
<event>
12    6  0.1540825E-007  0.1625347E+04  0.7818608E-02  0.8805126E-01
         -1   -1    0    0    0  501 -0.00000000000E+00  0.00000000000E+00  0.52583186013E+03  0.52583186013E+03  0.00000000000E+00 0.  1.
          2   -1    0    0  501    0  0.00000000000E+00 -0.00000000000E+00 -0.12559868158E+04  0.12559868158E+04  0.00000000000E+00 0. -1.
         24    2    1    2    0    0  0.39730923432E+03  0.17043548199E+03  0.14167034284E+03  0.46217366274E+03  0.81431733918E+02 0.  0.
        254    2    1    2    0    0 -0.39730923432E+03 -0.17043548199E+03 -0.87182529852E+03  0.13196450132E+04  0.89133648445E+03 0.  0.
         23    2    4    4    0    0 -0.62212351299E+03  0.85281612416E+02 -0.59202380728E+03  0.86806238688E+03  0.93431794904E+02 0.  0.
         23    2    4    4    0    0  0.22481427867E+03 -0.25571709441E+03 -0.27980149125E+03  0.45158262632E+03  0.98515489256E+02 0.  0.
          2    1    3    3  502    0  0.38720406519E+03  0.16247632892E+03  0.15105102421E+03  0.44625324366E+03  0.00000000000E+00 0. -1.
         -1    1    3    3    0  502  0.10105169135E+02  0.79591530759E+01 -0.93806813688E+01  0.15920419086E+02  0.00000000000E+00 0.  1.
         11    1    5    5    0    0 -0.58180918125E+03  0.55220642060E+02 -0.54003925846E+03  0.79573465639E+03  0.00000000000E+00 0.  1.
        -11    1    5    5    0    0 -0.40314331736E+02  0.30060970355E+02 -0.51984548813E+02  0.72327730486E+02  0.00000000000E+00 0. -1.
          4    1    6    6  503    0  0.35087352284E+02 -0.24041025951E+02 -0.11653958629E+01  0.42549399133E+02  0.00000000000E+00 0. -1.
         -4    1    6    6    0  503  0.18972692638E+03 -0.23167606846E+03 -0.27863609539E+03  0.40903322719E+03  0.00000000000E+00 0.  1.
<mgrwt>
<rscale>  0 0.16253466E+04</rscale>
<asrwt>0</asrwt>
<pdfrwt beam="1">  1        2 0.19322874E+00 0.16253466E+04</pdfrwt>
<pdfrwt beam="2">  1       -1 0.80897211E-01 0.16253466E+04</pdfrwt>
<totfact> 0.29161932E+01</totfact>
</mgrwt>
</event>
<event>
12    6  0.1540825E-007  0.5413465E+04  0.7818608E-02  0.7767710E-01
         -1   -1    0    0    0  501 -0.00000000000E+00  0.00000000000E+00  0.15068265686E+04  0.15068265686E+04  0.00000000000E+00 0.  1.
          2   -1    0    0  501    0  0.00000000000E+00 -0.00000000000E+00 -0.48621388763E+04  0.48621388763E+04  0.00000000000E+00 0. -1.
         24    2    1    2    0    0 -0.24931025596E+04 -0.80773575707E+03 -0.13568863744E+04  0.29521306950E+04  0.77055704534E+02 0.  0.
        254    2    1    2    0    0  0.24931025596E+04  0.80773575707E+03 -0.19984259333E+04  0.34168347499E+04  0.90169621896E+03 0.  0.
         23    2    4    4    0    0  0.42302924215E+03 -0.15334222577E+03 -0.53093452426E+03  0.70208927363E+03  0.92575921176E+02 0.  0.
         23    2    4    4    0    0  0.20700733174E+04  0.96107798284E+03 -0.14674914091E+04  0.27147454762E+04  0.86241153670E+02 0.  0.
          2    1    3    3  502    0 -0.79221459766E+02 -0.33219605262E+02 -0.31685293322E+02  0.91561671425E+02  0.00000000000E+00 0. -1.
         -1    1    3    3    0  502 -0.24138810998E+04 -0.77451615181E+03 -0.13252010810E+04  0.28605690236E+04  0.00000000000E+00 0.  1.
         11    1    5    5    0    0  0.24102908320E+03 -0.13548138408E+03 -0.31654135433E+03  0.42029591169E+03  0.00000000000E+00 0. -1.
        -11    1    5    5    0    0  0.18200015895E+03 -0.17860841689E+02 -0.21439316993E+03  0.28179336195E+03  0.00000000000E+00 0.  1.
          2    1    6    6  503    0  0.10487752186E+04  0.44186523587E+03 -0.74765625103E+03  0.13616769865E+04  0.00000000000E+00 0. -1.
         -2    1    6    6    0  503  0.10212980988E+04  0.51921274697E+03 -0.71983515803E+03  0.13530684897E+04  0.00000000000E+00 0.  1.
<mgrwt>
<rscale>  0 0.54134647E+04</rscale>
<asrwt>0</asrwt>
<pdfrwt beam="1">  1        2 0.74802137E+00 0.54134647E+04</pdfrwt>
<pdfrwt beam="2">  1       -1 0.23181947E+00 0.54134647E+04</pdfrwt>
<totfact> 0.36435985E-03</totfact>
</mgrwt>
</event>
<event>
12    6  0.1540825E-007  0.1679100E+04  0.7818608E-02  0.8773375E-01
         -1   -1    0    0    0  501 -0.00000000000E+00  0.00000000000E+00  0.13411738995E+04  0.13411738995E+04  0.00000000000E+00 0.  1.
          2   -1    0    0  501    0  0.00000000000E+00 -0.00000000000E+00 -0.52554260379E+03  0.52554260379E+03  0.00000000000E+00 0. -1.
         24    2    1    2    0    0  0.14947849352E+03 -0.34572159919E+03  0.77038335719E+03  0.86121398978E+03  0.79572451277E+02 0.  0.
        254    2    1    2    0    0 -0.14947849352E+03  0.34572159919E+03  0.45247938549E+02  0.10055025135E+04  0.93119315107E+03 0.  0.
         23    2    4    4    0    0 -0.31217653945E+03  0.34625690186E+03 -0.33523766476E+03  0.58187043564E+03  0.94025943938E+02 0.  0.
         23    2    4    4    0    0  0.16269804593E+03 -0.53530267020E+00  0.38048560331E+03  0.42363207789E+03  0.90685734208E+02 0.  0.
          2    1    3    3  502    0  0.81962424124E+02 -0.99445591512E+02  0.23376223282E+03  0.26693078903E+03  0.00000000000E+00 0. -1.
         -1    1    3    3    0  502  0.67516069401E+02 -0.24627600767E+03  0.53662112437E+03  0.59428320076E+03  0.00000000000E+00 0.  1.
         11    1    5    5    0    0 -0.19551829175E+03  0.26275919108E+03 -0.19459226021E+03  0.38096711491E+03  0.00000000000E+00 0.  1.
        -11    1    5    5    0    0 -0.11665824770E+03  0.83497710774E+02 -0.14064540455E+03  0.20090332074E+03  0.00000000000E+00 0. -1.
          1    1    6    6  503    0  0.46419706289E+02  0.34256500159E+01  0.22314377646E+03  0.22794663670E+03  0.00000000000E+00 0. -1.
         -1    1    6    6    0  503  0.11627833964E+03 -0.39609526861E+01  0.15734182685E+03  0.19568544119E+03  0.00000000000E+00 0.  1.
<mgrwt>
<rscale>  0 0.16790998E+04</rscale>
<asrwt>0</asrwt>
<pdfrwt beam="1">  1        2 0.80852709E-01 0.16790998E+04</pdfrwt>
<pdfrwt beam="2">  1       -1 0.20633444E+00 0.16790998E+04</pdfrwt>
<totfact> 0.86143061E+00</totfact>
</mgrwt>
</event>
<event>
12    6  0.1540825E-007  0.1156020E+04  0.7818608E-02  0.9152248E-01
         -1   -1    0    0    0  501 -0.00000000000E+00  0.00000000000E+00  0.30971414494E+03  0.30971414494E+03  0.00000000000E+00 0.  1.
          2   -1    0    0  501    0  0.00000000000E+00 -0.00000000000E+00 -0.10787216890E+04  0.10787216890E+04  0.00000000000E+00 0. -1.
         24    2    1    2    0    0  0.22554082894E+01  0.12562972703E+03 -0.36936180118E+03  0.39843264695E+03  0.80823998949E+02 0.  0.
        254    2    1    2    0    0 -0.22554082894E+01 -0.12562972703E+03 -0.39964574288E+03  0.99000318699E+03  0.89699591708E+03 0.  0.
         23    2    4    4    0    0 -0.26861287463E+03  0.28751581202E+03 -0.16744072590E+03  0.43721169454E+03  0.91101320366E+02 0.  0.
         23    2    4    4    0    0  0.26635746634E+03 -0.41314553905E+03 -0.23220501698E+03  0.55279149245E+03  0.10011856924E+03 0.  0.
          2    1    3    3  502    0 -0.25697621799E+02  0.11744767356E+03 -0.29324693591E+03  0.31693546537E+03  0.00000000000E+00 0. -1.
         -1    1    3    3    0  502  0.27953030088E+02  0.81820534674E+01 -0.76114865270E+02  0.81497181578E+02  0.00000000000E+00 0.  1.
         11    1    5    5    0    0  0.70033765241E+01  0.93229071907E+01 -0.10023447822E+01  0.11703357479E+02  0.00000000000E+00 0.  1.
        -11    1    5    5    0    0 -0.27561625115E+03  0.27819290483E+03 -0.16643838112E+03  0.42550833706E+03  0.00000000000E+00 0. -1.
          4    1    6    6  503    0  0.47978704365E+02 -0.16076497533E+03 -0.83875519283E+02  0.18756981660E+03  0.00000000000E+00 0. -1.
         -4    1    6    6    0  503  0.21837876197E+03 -0.25238056372E+03 -0.14832949769E+03  0.36522167585E+03  0.00000000000E+00 0.  1.
<mgrwt>
<rscale>  0 0.11560197E+04</rscale>
<asrwt>0</asrwt>
<pdfrwt beam="1">  1        2 0.16595718E+00 0.11560197E+04</pdfrwt>
<pdfrwt beam="2">  1       -1 0.47648330E-01 0.11560197E+04</pdfrwt>
<totfact> 0.11140922E+02</totfact>
</mgrwt>
</event>
<event>
12    6  0.1540825E-007  0.1924859E+04  0.7818608E-02  0.8642581E-01
          4   -1    0    0  501    0  0.00000000000E+00  0.00000000000E+00  0.34913967359E+04  0.34913967359E+04  0.00000000000E+00 0. -1.
         -3   -1    0    0    0  501 -0.00000000000E+00 -0.00000000000E+00 -0.26530076937E+03  0.26530076937E+03  0.00000000000E+00 0.  1.
         24    2    1    2    0    0 -0.38008130410E+02  0.19947163403E+03 -0.14819322211E+03  0.26365764996E+03  0.79502041122E+02 0.  0.
        254    2    1    2    0    0  0.38008130410E+02 -0.19947163403E+03  0.33742891887E+04  0.34930398553E+04  0.87992406002E+03 0.  0.
         23    2    4    4    0    0 -0.29824093188E+03  0.13690797977E+03  0.21434512226E+04  0.21702862356E+04  0.89820667335E+02 0.  0.
         23    2    4    4    0    0  0.33624906229E+03 -0.33637961380E+03  0.12308379661E+04  0.13227536197E+04  0.92197415341E+02 0.  0.
          4    1    3    3  502    0  0.52474303616E+00  0.11702878584E+03 -0.43283621279E+02  0.12477773816E+03  0.00000000000E+00 0. -1.
         -3    1    3    3    0  502 -0.38532873446E+02  0.82442848194E+02 -0.10490960083E+03  0.13887991180E+03  0.00000000000E+00 0.  1.
         11    1    5    5    0    0 -0.11277615146E+03  0.80550384919E+02  0.11297404089E+04  0.11382092146E+04  0.00000000000E+00 0. -1.
        -11    1    5    5    0    0 -0.18546478042E+03  0.56357594851E+02  0.10137108137E+04  0.10320770209E+04  0.00000000000E+00 0.  1.
          3    1    6    6  503    0  0.24620158157E+03 -0.29760611936E+03  0.99623497353E+03  0.10684890002E+04  0.00000000000E+00 0. -1.
         -3    1    6    6    0  503  0.90047480714E+02 -0.38773494443E+02  0.23460299252E+03  0.25426461955E+03  0.00000000000E+00 0.  1.
<mgrwt>
<rscale>  0 0.19248587E+04</rscale>
<asrwt>0</asrwt>
<pdfrwt beam="1">  1        4 0.53713793E+00 0.19248587E+04</pdfrwt>
<pdfrwt beam="2">  1       -3 0.40815505E-01 0.19248587E+04</pdfrwt>
<totfact> 0.76793559E-03</totfact>
</mgrwt>
</event>
<event>
12    6  0.1540825E-007  0.1585716E+04  0.7818608E-02  0.8829371E-01
          2   -1    0    0  501    0  0.00000000000E+00  0.00000000000E+00  0.13376957778E+04  0.13376957778E+04  0.00000000000E+00 0. -1.
         -1   -1    0    0    0  501 -0.00000000000E+00 -0.00000000000E+00 -0.46993045319E+03  0.46993045319E+03  0.00000000000E+00 0.  1.
         24    2    1    2    0    0 -0.28939691248E+03  0.40442059838E+03  0.68432171520E+02  0.50810386073E+03  0.78612835111E+02 0.  0.
        254    2    1    2    0    0  0.28939691248E+03 -0.40442059838E+03  0.79933315314E+03  0.12995223703E+04  0.89583386175E+03 0.  0.
         23    2    4    4    0    0  0.58869594054E+03 -0.15368981041E+03  0.56231794473E+03  0.83374104712E+03  0.93483658778E+02 0.  0.
         23    2    4    4    0    0 -0.29929902806E+03 -0.25073078797E+03  0.23701520841E+03  0.46578132318E+03  0.91269906174E+02 0.  0.
          2    1    3    3  502    0 -0.10380785210E+03  0.17101049961E+03  0.63411301643E+02  0.20986103571E+03  0.00000000000E+00 0. -1.
         -1    1    3    3    0  502 -0.18558906038E+03  0.23341009877E+03  0.50208698771E+01  0.29824282502E+03  0.00000000000E+00 0.  1.
         11    1    5    5    0    0  0.19977642846E+02 -0.11449712382E+02  0.50566040595E+02  0.55561916713E+02  0.00000000000E+00 0. -1.
        -11    1    5    5    0    0  0.56871829769E+03 -0.14224009803E+03  0.51175190413E+03  0.77817913041E+03  0.00000000000E+00 0.  1.
          2    1    6    6  503    0 -0.16522036517E+03 -0.19548038378E+03  0.15046059734E+03  0.29689853631E+03  0.00000000000E+00 0. -1.
         -2    1    6    6    0  503 -0.13407866289E+03 -0.55250404197E+02  0.86554611062E+02  0.16888278687E+03  0.00000000000E+00 0.  1.
<mgrwt>
<rscale>  0 0.15857162E+04</rscale>
<asrwt>0</asrwt>
<pdfrwt beam="1">  1        2 0.20579935E+00 0.15857162E+04</pdfrwt>
<pdfrwt beam="2">  1       -1 0.72296993E-01 0.15857162E+04</pdfrwt>
<totfact> 0.33196908E+01</totfact>
</mgrwt>
</event>
<event>
12    6  0.1540825E-007  0.2380093E+04  0.7818608E-02  0.8446994E-01
          2   -1    0    0  501    0  0.00000000000E+00  0.00000000000E+00  0.17368366042E+04  0.17368366042E+04  0.00000000000E+00 0. -1.
         -1   -1    0    0    0  501 -0.00000000000E+00 -0.00000000000E+00 -0.81539669912E+03  0.81539669912E+03  0.00000000000E+00 0.  1.
         24    2    1    2    0    0 -0.78107802771E+03 -0.87857682301E+02  0.10873132702E+04  0.13444089216E+04  0.85926383135E+02 0.  0.
        254    2    1    2    0    0  0.78107802771E+03  0.87857682301E+02 -0.16587336509E+03  0.12078243817E+04  0.90195560095E+03 0.  0.
         23    2    4    4    0    0 -0.11677385566E+03 -0.19553777053E+03 -0.61491935959E+02  0.25618955030E+03  0.99903325382E+02 0.  0.
         23    2    4    4    0    0  0.89785188337E+03  0.28339545284E+03 -0.10438142913E+03  0.95163483140E+03  0.90897648123E+02 0.  0.
          4    1    3    3  502    0 -0.77485424476E+03 -0.79286423762E+02  0.10798513713E+04  0.13314519975E+04  0.00000000000E+00 0. -1.
         -3    1    3    3    0  502 -0.62237829420E+01 -0.85712585386E+01  0.74618988787E+01  0.12956924092E+02  0.00000000000E+00 0.  1.
         11    1    5    5    0    0 -0.10177742959E+03 -0.20583219069E+03 -0.62492213130E+02  0.23797229376E+03  0.00000000000E+00 0. -1.
        -11    1    5    5    0    0 -0.14996426074E+02  0.10294420153E+02  0.10002771706E+01  0.18217256536E+02  0.00000000000E+00 0.  1.
          1    1    6    6  503    0  0.13532655981E+03  0.77847714928E+02 -0.14457790677E+02  0.15678830384E+03  0.00000000000E+00 0. -1.
         -1    1    6    6    0  503  0.76252532356E+03  0.20554773791E+03 -0.89923638450E+02  0.79484652756E+03  0.00000000000E+00 0.  1.
<mgrwt>
<rscale>  0 0.23800931E+04</rscale>
<asrwt>0</asrwt>
<pdfrwt beam="1">  1        2 0.26720563E+00 0.23800931E+04</pdfrwt>
<pdfrwt beam="2">  1       -1 0.12544565E+00 0.23800931E+04</pdfrwt>
<totfact> 0.53211553E+00</totfact>
</mgrwt>
</event>
<event>
12    6  0.1540825E-007  0.1715674E+04  0.7818608E-02  0.8752475E-01
         -1   -1    0    0    0  501 -0.00000000000E+00  0.00000000000E+00  0.44523327748E+03  0.44523327748E+03  0.00000000000E+00 0.  1.
          2   -1    0    0  501    0  0.00000000000E+00 -0.00000000000E+00 -0.16528067946E+04  0.16528067946E+04  0.00000000000E+00 0. -1.
         24    2    1    2    0    0 -0.13705442113E+03  0.59702165609E+03 -0.27185756113E+03  0.67527677656E+03  0.82906086805E+02 0.  0.
        254    2    1    2    0    0  0.13705442113E+03 -0.59702165609E+03 -0.93571595598E+03  0.14227632955E+04  0.87947272416E+03 0.  0.
         23    2    4    4    0    0 -0.23128818792E+03 -0.42935235352E+03 -0.87188809546E+03  0.10033506721E+04  0.93198985461E+02 0.  0.
         23    2    4    4    0    0  0.36834260905E+03 -0.16766930257E+03 -0.63827860520E+02  0.41941262338E+03  0.89686566486E+02 0.  0.
          4    1    3    3  502    0  0.98072320512E+01  0.57412632080E+02 -0.34976081606E+02  0.67939078647E+02  0.00000000000E+00 0. -1.
         -3    1    3    3    0  502 -0.14686165318E+03  0.53960902401E+03 -0.23688147952E+03  0.60733769791E+03  0.00000000000E+00 0.  1.
         11    1    5    5    0    0  0.72398107419E+01 -0.35078847468E+01 -0.19703882224E+02  0.21282929537E+02  0.00000000000E+00 0. -1.
        -11    1    5    5    0    0 -0.23852799866E+03 -0.42584446878E+03 -0.85218421324E+03  0.98206774258E+03  0.00000000000E+00 0.  1.
          3    1    6    6  503    0  0.31981557274E+02 -0.43041230302E+02  0.60492680916E+01  0.53962590338E+02  0.00000000000E+00 0. -1.
         -3    1    6    6    0  503  0.33636105177E+03 -0.12462807227E+03 -0.69877128612E+02  0.36545003304E+03  0.00000000000E+00 0.  1.
<mgrwt>
<rscale>  0 0.17156743E+04</rscale>
<asrwt>0</asrwt>
<pdfrwt beam="1">  1        2 0.25427797E+00 0.17156743E+04</pdfrwt>
<pdfrwt beam="2">  1       -1 0.68497428E-01 0.17156743E+04</pdfrwt>
<totfact> 0.24333692E+01</totfact>
</mgrwt>
</event>
<event>
12    6  0.1540825E-007  0.1547903E+04  0.7818608E-02  0.8853208E-01
         -1   -1    0    0    0  501 -0.00000000000E+00  0.00000000000E+00  0.46093516653E+03  0.46093516653E+03  0.00000000000E+00 0.  1.
          2   -1    0    0  501    0  0.00000000000E+00 -0.00000000000E+00 -0.12995335705E+04  0.12995335705E+04  0.00000000000E+00 0. -1.
         24    2    1    2    0    0 -0.47333039795E+03  0.69153909061E+02 -0.22565840055E+03  0.53488032457E+03  0.79695163649E+02 0.  0.
        254    2    1    2    0    0  0.47333039795E+03 -0.69153909061E+02 -0.61294000347E+03  0.12255884125E+04  0.94738987764E+03 0.  0.
         23    2    4    4    0    0  0.52779311229E+03  0.30105562742E+03 -0.57039315057E+03  0.83824181654E+03  0.90005203166E+02 0.  0.
         23    2    4    4    0    0 -0.54462714337E+02 -0.37020953648E+03 -0.42546852896E+02  0.38734659597E+03  0.90586216201E+02 0.  0.
          2    1    3    3  502    0 -0.14307516108E+03  0.24316081867E+02 -0.10997689271E+03  0.18208978688E+03  0.00000000000E+00 0. -1.
         -1    1    3    3    0  502 -0.33025523687E+03  0.44837827194E+02 -0.11568150785E+03  0.35279053769E+03  0.00000000000E+00 0.  1.
         11    1    5    5    0    0  0.52130664306E+03  0.29811977349E+03 -0.57358140439E+03  0.83044063178E+03  0.00000000000E+00 0.  1.
        -11    1    5    5    0    0  0.64864692218E+01  0.29358539245E+01  0.31882538166E+01  0.78011847581E+01  0.00000000000E+00 0. -1.
          1    1    6    6  503    0 -0.47838046284E+02 -0.73068507036E+02 -0.18208578997E+01  0.87354455617E+02  0.00000000000E+00 0. -1.
         -1    1    6    6    0  503 -0.66246680537E+01 -0.29714102944E+03 -0.40725994996E+02  0.29999214035E+03  0.00000000000E+00 0.  1.
<mgrwt>
<rscale>  0 0.15479027E+04</rscale>
<asrwt>0</asrwt>
<pdfrwt beam="1">  1        2 0.19992824E+00 0.15479027E+04</pdfrwt>
<pdfrwt beam="2">  1       -1 0.70913104E-01 0.15479027E+04</pdfrwt>
<totfact> 0.36470936E+01</totfact>
</mgrwt>
</event>
<event>
12    6  0.1540825E-007  0.1971833E+04  0.7818608E-02  0.8619904E-01
         -1   -1    0    0    0  501 -0.00000000000E+00  0.00000000000E+00  0.83917881197E+03  0.83917881197E+03  0.00000000000E+00 0.  1.
          2   -1    0    0  501    0  0.00000000000E+00 -0.00000000000E+00 -0.11583129246E+04  0.11583129246E+04  0.00000000000E+00 0. -1.
         24    2    1    2    0    0 -0.32378290796E+03  0.16552102860E+03  0.56768821620E+03  0.67903205571E+03  0.81129769382E+02 0.  0.
        254    2    1    2    0    0  0.32378290796E+03 -0.16552102860E+03 -0.88682232878E+03  0.13184596808E+04  0.90534496449E+03 0.  0.
         23    2    4    4    0    0  0.57583119980E+03  0.21182044380E+02 -0.78129362496E+03  0.97486669697E+03  0.88966840966E+02 0.  0.
         23    2    4    4    0    0 -0.25204829184E+03 -0.18670307298E+03 -0.10552870382E+03  0.34359298385E+03  0.92376687222E+02 0.  0.
          4    1    3    3  502    0 -0.18170251911E+02 -0.28927569823E+01  0.61728571974E+02  0.64412286836E+02  0.00000000000E+00 0. -1.
         -3    1    3    3    0  502 -0.30561265605E+03  0.16841378558E+03  0.50595964422E+03  0.61461976888E+03  0.00000000000E+00 0.  1.
         11    1    5    5    0    0  0.31073994781E+03  0.19954120926E+02 -0.49407041030E+03  0.58400603802E+03  0.00000000000E+00 0. -1.
        -11    1    5    5    0    0  0.26509125199E+03  0.12279234544E+01 -0.28722321466E+03  0.39086065895E+03  0.00000000000E+00 0.  1.
          1    1    6    6  503    0 -0.25826106796E+03 -0.17264216487E+03 -0.10593050572E+03  0.32821542979E+03  0.00000000000E+00 0. -1.
         -1    1    6    6    0  503  0.62127761175E+01 -0.14060908114E+02  0.40180189616E+00  0.15377554059E+02  0.00000000000E+00 0.  1.
<mgrwt>
<rscale>  0 0.19718333E+04</rscale>
<asrwt>0</asrwt>
<pdfrwt beam="1">  1        2 0.17820199E+00 0.19718333E+04</pdfrwt>
<pdfrwt beam="2">  1       -1 0.12910443E+00 0.19718333E+04</pdfrwt>
<totfact> 0.10997814E+01</totfact>
</mgrwt>
</event>
<event>
12    6  0.1540825E-007  0.1517155E+04  0.7818608E-02  0.8873125E-01
          2   -1    0    0  501    0  0.00000000000E+00  0.00000000000E+00  0.14933422127E+04  0.14933422127E+04  0.00000000000E+00 0. -1.
         -1   -1    0    0    0  501 -0.00000000000E+00 -0.00000000000E+00 -0.38533688344E+03  0.38533688344E+03  0.00000000000E+00 0.  1.
         24    2    1    2    0    0 -0.58076701021E+02 -0.35478274326E+03  0.82294716442E+03  0.90226463897E+03  0.87153572447E+02 0.  0.
        254    2    1    2    0    0  0.58076701021E+02  0.35478274326E+03  0.28505816488E+03  0.97641445722E+03  0.86190680284E+03 0.  0.
         23    2    4    4    0    0 -0.13083007431E+03  0.69035520304E+02  0.52208776218E+03  0.55017005936E+03  0.90714119027E+02 0.  0.
         23    2    4    4    0    0  0.18890677534E+03  0.28574722295E+03 -0.23702959729E+03  0.42624439786E+03  0.90354919754E+02 0.  0.
          2    1    3    3  502    0 -0.76141592450E+02 -0.31454449316E+03  0.68851668363E+03  0.76078315170E+03  0.00000000000E+00 0. -1.
         -1    1    3    3    0  502  0.18064891429E+02 -0.40238250097E+02  0.13443048079E+03  0.14148148727E+03  0.00000000000E+00 0.  1.
         11    1    5    5    0    0 -0.12716196030E+03  0.26919941535E+02  0.36333607296E+03  0.38588592786E+03  0.00000000000E+00 0.  1.
        -11    1    5    5    0    0 -0.36681140099E+01  0.42115578769E+02  0.15875168921E+03  0.16428413150E+03  0.00000000000E+00 0. -1.
          1    1    6    6  503    0  0.12677619686E+03  0.13827442786E+03 -0.16850951691E+03  0.25216557810E+03  0.00000000000E+00 0. -1.
         -1    1    6    6    0  503  0.62130578480E+02  0.14747279509E+03 -0.68520080382E+02  0.17407881976E+03  0.00000000000E+00 0.  1.
<mgrwt>
<rscale>  0 0.15171550E+04</rscale>
<asrwt>0</asrwt>
<pdfrwt beam="1">  1        2 0.22974495E+00 0.15171550E+04</pdfrwt>
<pdfrwt beam="2">  1       -1 0.59282598E-01 0.15171550E+04</pdfrwt>
<totfact> 0.40608427E+01</totfact>
</mgrwt>
</event>
<event>
12    6  0.1540825E-007  0.1642757E+04  0.7818608E-02  0.8794703E-01
          2   -1    0    0  501    0  0.00000000000E+00  0.00000000000E+00  0.12632837319E+04  0.12632837319E+04  0.00000000000E+00 0. -1.
         -1   -1    0    0    0  501 -0.00000000000E+00 -0.00000000000E+00 -0.53405457708E+03  0.53405457708E+03  0.00000000000E+00 0.  1.
         24    2    1    2    0    0  0.20681987273E+03 -0.32157088283E+03 -0.23360666805E+03  0.45518984001E+03  0.80270932780E+02 0.  0.
        254    2    1    2    0    0 -0.20681987273E+03  0.32157088283E+03  0.96283582287E+03  0.13421484690E+04  0.85330381371E+03 0.  0.
         23    2    4    4    0    0  0.16938308573E+02  0.57362002779E+03  0.66560089380E+03  0.88342141733E+03  0.89899989904E+02 0.  0.
         23    2    4    4    0    0 -0.22375818130E+03 -0.25204914496E+03  0.29723492906E+03  0.45872705163E+03  0.92116283403E+02 0.  0.
          4    1    3    3  502    0 -0.67960849780E+01 -0.18718094698E+02 -0.14771634164E+02  0.24794253690E+02  0.00000000000E+00 0. -1.
         -3    1    3    3    0  502  0.21361595771E+03 -0.30285278813E+03 -0.21883503389E+03  0.43039558632E+03  0.00000000000E+00 0.  1.
         11    1    5    5    0    0 -0.22959867067E+02  0.18094866086E+03  0.25876796040E+03  0.31659189928E+03  0.00000000000E+00 0. -1.
        -11    1    5    5    0    0  0.39898175640E+02  0.39267136693E+03  0.40683293341E+03  0.56682951805E+03  0.00000000000E+00 0.  1.
          1    1    6    6  503    0 -0.76135474386E+02 -0.44531656291E+02  0.11794420496E+03  0.14727699873E+03  0.00000000000E+00 0. -1.
         -1    1    6    6    0  503 -0.14762270692E+03 -0.20751748867E+03  0.17929072410E+03  0.31145005290E+03  0.00000000000E+00 0.  1.
<mgrwt>
<rscale>  0 0.16427568E+04</rscale>
<asrwt>0</asrwt>
<pdfrwt beam="1">  1        2 0.19435134E+00 0.16427568E+04</pdfrwt>
<pdfrwt beam="2">  1       -1 0.82162243E-01 0.16427568E+04</pdfrwt>
<totfact> 0.27891579E+01</totfact>
</mgrwt>
</event>
<event>
12    6  0.1540825E-007  0.1416951E+04  0.7818608E-02  0.8941639E-01
         -1   -1    0    0    0  501 -0.00000000000E+00  0.00000000000E+00  0.65136356380E+03  0.65136356380E+03  0.00000000000E+00 0.  1.
          2   -1    0    0  501    0  0.00000000000E+00 -0.00000000000E+00 -0.77059534240E+03  0.77059534240E+03  0.00000000000E+00 0. -1.
         24    2    1    2    0    0  0.15831659363E+03  0.94873765637E+02 -0.41190146124E+03  0.45772828351E+03  0.76073599386E+02 0.  0.
        254    2    1    2    0    0 -0.15831659363E+03 -0.94873765637E+02  0.29266968265E+03  0.96423062270E+03  0.90001109737E+03 0.  0.
         23    2    4    4    0    0  0.20328721190E+03 -0.34319191955E+03 -0.34229978149E+02  0.41044914476E+03  0.90500966122E+02 0.  0.
         23    2    4    4    0    0 -0.36160380553E+03  0.24831815391E+03  0.32689966079E+03  0.55378147794E+03  0.85972782556E+02 0.  0.
          4    1    3    3  502    0  0.15295289752E+03  0.91415238665E+02 -0.32541846927E+03  0.37101012771E+03  0.00000000000E+00 0. -1.
         -3    1    3    3    0  502  0.53636961135E+01  0.34585269725E+01 -0.86482991973E+02  0.86718155801E+02  0.00000000000E+00 0.  1.
         11    1    5    5    0    0  0.25935196422E+02 -0.88516892512E+02 -0.38813456203E+02  0.10007176952E+03  0.00000000000E+00 0. -1.
        -11    1    5    5    0    0  0.17735201548E+03 -0.25467502703E+03  0.45834780537E+01  0.31037737524E+03  0.00000000000E+00 0.  1.
          1    1    6    6  503    0 -0.10222109201E+03  0.11265651877E+03  0.13811887000E+03  0.20546889089E+03  0.00000000000E+00 0. -1.
         -1    1    6    6    0  503 -0.25938271352E+03  0.13566163514E+03  0.18878079080E+03  0.34831258705E+03  0.00000000000E+00 0.  1.
<mgrwt>
<rscale>  0 0.14169513E+04</rscale>
<asrwt>0</asrwt>
<pdfrwt beam="1">  1        2 0.11855313E+00 0.14169513E+04</pdfrwt>
<pdfrwt beam="2">  1       -1 0.10020978E+00 0.14169513E+04</pdfrwt>
<totfact> 0.38127173E+01</totfact>
</mgrwt>
</event>
<event>
12    6  0.1540825E-007  0.3108204E+04  0.7818608E-02  0.8213490E-01
         -1   -1    0    0    0  501 -0.00000000000E+00  0.00000000000E+00  0.30267923164E+04  0.30267923164E+04  0.00000000000E+00 0.  1.
          2   -1    0    0  501    0  0.00000000000E+00 -0.00000000000E+00 -0.79795144412E+03  0.79795144412E+03  0.00000000000E+00 0. -1.
         24    2    1    2    0    0 -0.75442410929E+03  0.31310919498E+03 -0.41214585531E+03  0.91832292455E+03  0.79118158713E+02 0.  0.
        254    2    1    2    0    0  0.75442410929E+03 -0.31310919498E+03  0.26409867276E+04  0.29064208359E+04  0.89737287441E+03 0.  0.
         23    2    4    4    0    0  0.24242167009E+03  0.24325811469E+03  0.14494469311E+04  0.14923008368E+04  0.90125495693E+02 0.  0.
         23    2    4    4    0    0  0.51200243920E+03 -0.55636730967E+03  0.11915397965E+04  0.14141199991E+04  0.90979142350E+02 0.  0.
          2    1    3    3  502    0 -0.64908261687E+03  0.29041568190E+03 -0.33668165866E+03  0.78676810503E+03  0.00000000000E+00 0. -1.
         -1    1    3    3    0  502 -0.10534149242E+03  0.22693513079E+02 -0.75464196658E+02  0.13155481952E+03  0.00000000000E+00 0.  1.
         11    1    5    5    0    0  0.17051376153E+03  0.22113727045E+03  0.11753598636E+04  0.12080759265E+04  0.00000000000E+00 0. -1.
        -11    1    5    5    0    0  0.71907908562E+02  0.22120844240E+02  0.27408706755E+03  0.28422491035E+03  0.00000000000E+00 0.  1.
          2    1    6    6  503    0  0.47235729368E+03 -0.48353870471E+03  0.10209783023E+04  0.12244704103E+04  0.00000000000E+00 0. -1.
         -2    1    6    6    0  503  0.39645145520E+02 -0.72828604962E+02  0.17056149411E+03  0.18964958881E+03  0.00000000000E+00 0.  1.
<mgrwt>
<rscale>  0 0.31082042E+04</rscale>
<asrwt>0</asrwt>
<pdfrwt beam="1">  1        2 0.12276176E+00 0.31082042E+04</pdfrwt>
<pdfrwt beam="2">  1       -1 0.46566035E+00 0.31082042E+04</pdfrwt>
<totfact> 0.84329315E-02</totfact>
</mgrwt>
</event>
<event>
12    6  0.1540825E-007  0.2784057E+04  0.7818608E-02  0.8308235E-01
          2   -1    0    0  501    0  0.00000000000E+00  0.00000000000E+00  0.15950846006E+04  0.15950846006E+04  0.00000000000E+00 0. -1.
         -1   -1    0    0    0  501 -0.00000000000E+00 -0.00000000000E+00 -0.12148219644E+04  0.12148219644E+04  0.00000000000E+00 0.  1.
         24    2    1    2    0    0 -0.57462177324E+03  0.23692001368E+03 -0.91707354288E+03  0.11107273797E+04  0.79813242615E+02 0.  0.
        254    2    1    2    0    0  0.57462177324E+03 -0.23692001368E+03  0.12973361791E+04  0.16991791853E+04  0.90432707958E+03 0.  0.
         23    2    4    4    0    0  0.77089993441E+03 -0.19547710747E+03  0.70648305113E+03  0.10685283332E+04  0.10068013146E+03 0.  0.
         23    2    4    4    0    0 -0.19627816117E+03 -0.41442906211E+02  0.59085312796E+03  0.63065085207E+03  0.91490149018E+02 0.  0.
          2    1    3    3  502    0 -0.72734182811E+02  0.36474325391E+02 -0.78287853335E+02  0.11291424065E+03  0.00000000000E+00 0. -1.
         -1    1    3    3    0  502 -0.50188759043E+03  0.20044568829E+03 -0.83878568955E+03  0.99781313901E+03  0.00000000000E+00 0.  1.
         11    1    5    5    0    0  0.78981667459E+02 -0.17502849524E+02  0.11724906952E+03  0.14244928164E+03  0.00000000000E+00 0. -1.
        -11    1    5    5    0    0  0.69191826695E+03 -0.17797425795E+03  0.58923398161E+03  0.92607905155E+03  0.00000000000E+00 0.  1.
          4    1    6    6  503    0 -0.50789695305E+02 -0.29300128429E+02  0.78989510140E+02  0.98373946689E+02  0.00000000000E+00 0. -1.
         -4    1    6    6    0  503 -0.14548846586E+03 -0.12142777782E+02  0.51186361782E+03  0.53227690538E+03  0.00000000000E+00 0.  1.
<mgrwt>
<rscale>  0 0.27840573E+04</rscale>
<asrwt>0</asrwt>
<pdfrwt beam="1">  1        2 0.24539763E+00 0.27840573E+04</pdfrwt>
<pdfrwt beam="2">  1       -1 0.18689569E+00 0.27840573E+04</pdfrwt>
<totfact> 0.20690020E+00</totfact>
</mgrwt>
</event>
<event>
12    6  0.1540825E-007  0.1761612E+04  0.7818608E-02  0.8726984E-01
          2   -1    0    0  501    0  0.00000000000E+00  0.00000000000E+00  0.23577162527E+04  0.23577162527E+04  0.00000000000E+00 0. -1.
         -1   -1    0    0    0  501 -0.00000000000E+00 -0.00000000000E+00 -0.32905555873E+03  0.32905555873E+03  0.00000000000E+00 0.  1.
         24    2    1    2    0    0 -0.22699264698E+03  0.16850491503E+03  0.16326692040E+04  0.16588826900E+04  0.79771431422E+02 0.  0.
        254    2    1    2    0    0  0.22699264698E+03 -0.16850491503E+03  0.39599149001E+03  0.10278891215E+04  0.90544310573E+03 0.  0.
         23    2    4    4    0    0  0.26255852212E+03  0.73277609366E+02 -0.21807223763E+03  0.36045177549E+03  0.89796414498E+02 0.  0.
         23    2    4    4    0    0 -0.35565875147E+02 -0.24178252440E+03  0.61406372764E+03  0.66743734598E+03  0.93137686458E+02 0.  0.
          2    1    3    3  502    0 -0.23081862118E+03  0.15978783201E+03  0.15121415171E+04  0.15379796341E+04  0.00000000000E+00 0. -1.
         -1    1    3    3    0  502  0.38259742061E+01  0.87170830230E+01  0.12052768687E+03  0.12090305587E+03  0.00000000000E+00 0.  1.
         11    1    5    5    0    0  0.73021888415E+02  0.49352048141E+02 -0.11002706273E+03  0.14097437844E+03  0.00000000000E+00 0. -1.
        -11    1    5    5    0    0  0.18953663371E+03  0.23925561225E+02 -0.10804517489E+03  0.21947739705E+03  0.00000000000E+00 0.  1.
          4    1    6    6  503    0 -0.21279159016E+02 -0.23270809384E+03  0.60427765075E+03  0.64788682557E+03  0.00000000000E+00 0. -1.
         -4    1    6    6    0  503 -0.14286716130E+02 -0.90744305603E+01  0.97860768817E+01  0.19550520416E+02  0.00000000000E+00 0.  1.
<mgrwt>
<rscale>  0 0.17616125E+04</rscale>
<asrwt>0</asrwt>
<pdfrwt beam="1">  1        2 0.36272557E+00 0.17616125E+04</pdfrwt>
<pdfrwt beam="2">  1       -1 0.50623934E-01 0.17616125E+04</pdfrwt>
<totfact> 0.17781057E+01</totfact>
</mgrwt>
</event>
<event>
12    6  0.1540825E-007  0.1734533E+04  0.7818608E-02  0.8741910E-01
          2   -1    0    0  501    0  0.00000000000E+00  0.00000000000E+00  0.16582702165E+04  0.16582702165E+04  0.00000000000E+00 0. -1.
         -1   -1    0    0    0  501 -0.00000000000E+00 -0.00000000000E+00 -0.45357565401E+03  0.45357565401E+03  0.00000000000E+00 0.  1.
         24    2    1    2    0    0 -0.12013522048E+02 -0.59472564920E+03  0.18824697496E+03  0.62911121317E+03  0.80629228095E+02 0.  0.
        254    2    1    2    0    0  0.12013522048E+02  0.59472564920E+03  0.10164475875E+04  0.14827346573E+04  0.90082930865E+03 0.  0.
         23    2    4    4    0    0 -0.18768639675E+03  0.72806873369E+03  0.95439447011E+03  0.12181472241E+04  0.87770100774E+02 0.  0.
         23    2    4    4    0    0  0.19969991880E+03 -0.13334308448E+03  0.62053117384E+02  0.26458743318E+03  0.92170953509E+02 0.  0.
          4    1    3    3  502    0  0.25632095878E+02 -0.20320854248E+03  0.89896387695E+02  0.22367851170E+03  0.00000000000E+00 0. -1.
         -3    1    3    3    0  502 -0.37645617926E+02 -0.39151710673E+03  0.98350587267E+02  0.40543270147E+03  0.00000000000E+00 0.  1.
         11    1    5    5    0    0 -0.84705391781E+02  0.31171830681E+03  0.34130205843E+03  0.46992595298E+03  0.00000000000E+00 0. -1.
        -11    1    5    5    0    0 -0.10298100497E+03  0.41635042688E+03  0.61309241168E+03  0.74822127115E+03  0.00000000000E+00 0.  1.
          2    1    6    6  503    0  0.18254818527E+03 -0.14055853679E+03  0.36944543198E+02  0.23333546984E+03  0.00000000000E+00 0. -1.
         -2    1    6    6    0  503  0.17151733527E+02  0.72154523107E+01  0.25108574186E+02  0.31251963341E+02  0.00000000000E+00 0.  1.
<mgrwt>
<rscale>  0 0.17345328E+04</rscale>
<asrwt>0</asrwt>
<pdfrwt beam="1">  1        2 0.25511849E+00 0.17345328E+04</pdfrwt>
<pdfrwt beam="2">  1       -1 0.69780870E-01 0.17345328E+04</pdfrwt>
<totfact> 0.23225996E+01</totfact>
</mgrwt>
</event>
<event>
12    6  0.1540825E-007  0.1185720E+04  0.7818608E-02  0.9125449E-01
         -1   -1    0    0    0  501 -0.00000000000E+00  0.00000000000E+00  0.36897691041E+03  0.36897691041E+03  0.00000000000E+00 0.  1.
          2   -1    0    0  501    0  0.00000000000E+00 -0.00000000000E+00 -0.95258740947E+03  0.95258740947E+03  0.00000000000E+00 0. -1.
         24    2    1    2    0    0 -0.65925064988E+02 -0.20654924901E+03 -0.20055367595E+03  0.30621744911E+03  0.80861874456E+02 0.  0.
        254    2    1    2    0    0  0.65925064988E+02  0.20654924901E+03 -0.38305682311E+03  0.10153468708E+04  0.91497979858E+03 0.  0.
         23    2    4    4    0    0 -0.22623539852E+03  0.82035740017E+02  0.21261199455E+03  0.33397529475E+03  0.91778641796E+02 0.  0.
         23    2    4    4    0    0  0.29216046351E+03  0.12451350899E+03 -0.59566881766E+03  0.68137157603E+03  0.92652759975E+02 0.  0.
          2    1    3    3  502    0 -0.46254345034E+02 -0.11621691716E+03 -0.16526077449E+03  0.20726060854E+03  0.00000000000E+00 0. -1.
         -1    1    3    3    0  502 -0.19670719954E+02 -0.90332331849E+02 -0.35292901460E+02  0.98956840563E+02  0.00000000000E+00 0.  1.
         11    1    5    5    0    0 -0.31018076433E+02 -0.52188053929E+01 -0.13471195466E+01  0.31482879894E+02  0.00000000000E+00 0.  1.
        -11    1    5    5    0    0 -0.19521732209E+03  0.87254545410E+02  0.21395911410E+03  0.30249241485E+03  0.00000000000E+00 0. -1.
          2    1    6    6  503    0  0.18142976080E+02  0.14474609070E+02 -0.11443863181E+03  0.11676849892E+03  0.00000000000E+00 0.  1.
         -2    1    6    6    0  503  0.27401748743E+03  0.11003889992E+03 -0.48123018584E+03  0.56460307711E+03  0.00000000000E+00 0. -1.
<mgrwt>
<rscale>  0 0.11857196E+04</rscale>
<asrwt>0</asrwt>
<pdfrwt beam="1">  1        2 0.14655191E+00 0.11857196E+04</pdfrwt>
<pdfrwt beam="2">  1       -1 0.56765679E-01 0.11857196E+04</pdfrwt>
<totfact> 0.95719010E+01</totfact>
</mgrwt>
</event>
<event>
12    6  0.1540825E-007  0.2359223E+04  0.7818608E-02  0.8454930E-01
         -1   -1    0    0    0  501 -0.00000000000E+00  0.00000000000E+00  0.10331248991E+04  0.10331248991E+04  0.00000000000E+00 0.  1.
          2   -1    0    0  501    0  0.00000000000E+00 -0.00000000000E+00 -0.13468681400E+04  0.13468681400E+04  0.00000000000E+00 0. -1.
         24    2    1    2    0    0  0.63666692207E+03 -0.60056218800E+03 -0.64254033552E+03  0.10873815423E+04  0.59336536067E+02 0.  0.
        254    2    1    2    0    0 -0.63666692207E+03  0.60056218800E+03  0.32879709463E+03  0.12926114967E+04  0.89259018635E+03 0.  0.
         23    2    4    4    0    0 -0.14406298265E+03  0.46125038712E+03  0.54074069693E+03  0.73090248488E+03  0.91169504173E+02 0.  0.
         23    2    4    4    0    0 -0.49260393942E+03  0.13931180088E+03 -0.21194360230E+03  0.56170901187E+03  0.92360730102E+02 0.  0.
          2    1    3    3  502    0  0.44805444544E+03 -0.42388299096E+03 -0.41866076283E+03  0.74545718216E+03  0.00000000000E+00 0. -1.
         -1    1    3    3    0  502  0.18861247663E+03 -0.17667919704E+03 -0.22387957269E+03  0.34192436017E+03  0.00000000000E+00 0.  1.
         11    1    5    5    0    0 -0.15592689332E+03  0.44430150999E+03  0.52190680146E+03  0.70292512919E+03  0.00000000000E+00 0. -1.
        -11    1    5    5    0    0  0.11863910672E+02  0.16948877135E+02  0.18833895476E+02  0.27977355690E+02  0.00000000000E+00 0.  1.
          4    1    6    6  503    0 -0.42524981581E+03  0.10081149291E+03 -0.20804995045E+03  0.48403010736E+03  0.00000000000E+00 0. -1.
         -4    1    6    6    0  503 -0.67354123607E+02  0.38500307976E+02 -0.38936518512E+01  0.77678904510E+02  0.00000000000E+00 0.  1.
<mgrwt>
<rscale>  0 0.23592228E+04</rscale>
<asrwt>0</asrwt>
<pdfrwt beam="1">  1        2 0.20721048E+00 0.23592228E+04</pdfrwt>
<pdfrwt beam="2">  1       -1 0.15894229E+00 0.23592228E+04</pdfrwt>
<totfact> 0.47522553E+00</totfact>
</mgrwt>
</event>
<event>
12    6  0.1540825E-007  0.1941622E+04  0.7818608E-02  0.8634411E-01
          2   -1    0    0  501    0  0.00000000000E+00  0.00000000000E+00  0.11818853462E+04  0.11818853462E+04  0.00000000000E+00 0. -1.
         -1   -1    0    0    0  501 -0.00000000000E+00 -0.00000000000E+00 -0.79743268223E+03  0.79743268223E+03  0.00000000000E+00 0.  1.
         24    2    1    2    0    0  0.99907993782E+02 -0.40553813855E+03  0.80315935915E+03  0.90908909418E+03  0.83278063964E+02 0.  0.
        254    2    1    2    0    0 -0.99907993782E+02  0.40553813855E+03 -0.41870669522E+03  0.10702289342E+04  0.89198199867E+03 0.  0.
         23    2    4    4    0    0  0.21905440567E+02 -0.13546620501E+03  0.18306587776E+03  0.24657704446E+03  0.91957502295E+02 0.  0.
         23    2    4    4    0    0 -0.12181343435E+03  0.54100434356E+03 -0.60177257297E+03  0.82365188975E+03  0.93530708168E+02 0.  0.
          4    1    3    3  502    0  0.16327352099E+02 -0.23075722500E+03  0.40898835296E+03  0.46987972096E+03  0.00000000000E+00 0. -1.
         -3    1    3    3    0  502  0.83580641683E+02 -0.17478091355E+03  0.39417100619E+03  0.43920937322E+03  0.00000000000E+00 0.  1.
         11    1    5    5    0    0  0.40742989658E+02 -0.56247141078E+02  0.13552938020E+03  0.15228901793E+03  0.00000000000E+00 0. -1.
        -11    1    5    5    0    0 -0.18837549091E+02 -0.79219063930E+02  0.47536497558E+02  0.94288026524E+02  0.00000000000E+00 0.  1.
          3    1    6    6  503    0 -0.10840749079E+03  0.52264413504E+03 -0.54665137742E+03  0.76402670398E+03  0.00000000000E+00 0. -1.
         -3    1    6    6    0  503 -0.13405943560E+02  0.18360208515E+02 -0.55121195551E+02  0.59625185773E+02  0.00000000000E+00 0.  1.
<mgrwt>
<rscale>  0 0.19416220E+04</rscale>
<asrwt>0</asrwt>
<pdfrwt beam="1">  1        2 0.18182851E+00 0.19416220E+04</pdfrwt>
<pdfrwt beam="2">  1       -1 0.12268195E+00 0.19416220E+04</pdfrwt>
<totfact> 0.12119583E+01</totfact>
</mgrwt>
</event>
<event>
12    6  0.1540825E-007  0.1994928E+04  0.7818608E-02  0.8608996E-01
          2   -1    0    0  501    0  0.00000000000E+00  0.00000000000E+00  0.55662124835E+04  0.55662124835E+04  0.00000000000E+00 0. -1.
         -1   -1    0    0    0  501 -0.00000000000E+00 -0.00000000000E+00 -0.17874531703E+03  0.17874531703E+03  0.00000000000E+00 0.  1.
         24    2    1    2    0    0  0.11499213700E+03 -0.71582168619E+03  0.30563620047E+04  0.31421549675E+04  0.78519158586E+02 0.  0.
        254    2    1    2    0    0 -0.11499213700E+03  0.71582168619E+03  0.23311051618E+04  0.26028028330E+04  0.90272223537E+03 0.  0.
         23    2    4    4    0    0 -0.45047566404E+03  0.17271633777E+03  0.76594458705E+03  0.90978544197E+03  0.90990014649E+02 0.  0.
         23    2    4    4    0    0  0.33548352704E+03  0.54310534842E+03  0.15651605747E+04  0.16930173910E+04  0.95224184169E+02 0.  0.
          2    1    3    3  502    0  0.86872182123E+02 -0.66639477232E+03  0.28424510703E+04  0.29208144165E+04  0.00000000000E+00 0. -1.
         -1    1    3    3    0  502  0.28119954879E+02 -0.49426913867E+02  0.21391093439E+03  0.22134055103E+03  0.00000000000E+00 0.  1.
         11    1    5    5    0    0 -0.42081199663E+03  0.15263971777E+03  0.74242406529E+03  0.86693431854E+03  0.00000000000E+00 0.  1.
        -11    1    5    5    0    0 -0.29663667415E+02  0.20076620000E+02  0.23520521756E+02  0.42851123425E+02  0.00000000000E+00 0. -1.
          4    1    6    6  503    0  0.26577810496E+01  0.10521605545E+02  0.77058395242E+02  0.77818791180E+02  0.00000000000E+00 0. -1.
         -4    1    6    6    0  503  0.33282574599E+03  0.53258374288E+03  0.14881021795E+04  0.16151985998E+04  0.00000000000E+00 0.  1.
<mgrwt>
<rscale>  0 0.19949280E+04</rscale>
<asrwt>0</asrwt>
<pdfrwt beam="1">  1        2 0.85634025E+00 0.19949280E+04</pdfrwt>
<pdfrwt beam="2">  1       -1 0.27499284E-01 0.19949280E+04</pdfrwt>
<totfact> 0.58644721E-02</totfact>
</mgrwt>
</event>
<event>
12    6  0.1540825E-007  0.2169432E+04  0.7818608E-02  0.8531260E-01
          2   -1    0    0  501    0  0.00000000000E+00  0.00000000000E+00  0.26958589049E+04  0.26958589049E+04  0.00000000000E+00 0. -1.
         -1   -1    0    0    0  501 -0.00000000000E+00 -0.00000000000E+00 -0.43645050888E+03  0.43645050888E+03  0.00000000000E+00 0.  1.
         24    2    1    2    0    0  0.88684395287E+03  0.11406613587E+03  0.93596156182E+03  0.12968940193E+04  0.80042314256E+02 0.  0.
        254    2    1    2    0    0 -0.88684395287E+03 -0.11406613587E+03  0.13234468342E+04  0.18354153945E+04  0.90428693850E+03 0.  0.
         23    2    4    4    0    0  0.10986156174E+03 -0.16181481230E+03  0.47692596891E+03  0.52370231980E+03  0.92477801220E+02 0.  0.
         23    2    4    4    0    0 -0.99670551461E+03  0.47748676426E+02  0.84652086534E+03  0.13117130747E+04  0.91059298699E+02 0.  0.
          2    1    3    3  502    0  0.81903411134E+03  0.97009187398E+02  0.88901903584E+03  0.12126757621E+04  0.00000000000E+00 0. -1.
         -1    1    3    3    0  502  0.67809841535E+02  0.17056948477E+02  0.46942525978E+02  0.84218257198E+02  0.00000000000E+00 0.  1.
         11    1    5    5    0    0 -0.43931684781E+01 -0.45764362889E+02  0.56532766786E+02  0.72867211833E+02  0.00000000000E+00 0. -1.
        -11    1    5    5    0    0  0.11425473022E+03 -0.11605044941E+03  0.42039320212E+03  0.45083510797E+03  0.00000000000E+00 0.  1.
          1    1    6    6  503    0 -0.21016498138E+02 -0.12262000808E+02  0.23919830623E+02  0.34120494645E+02  0.00000000000E+00 0. -1.
         -1    1    6    6    0  503 -0.97568901648E+03  0.60010677234E+02  0.82260103471E+03  0.12775925800E+04  0.00000000000E+00 0.  1.
<mgrwt>
<rscale>  0 0.21694322E+04</rscale>
<asrwt>0</asrwt>
<pdfrwt beam="1">  1        2 0.41474752E+00 0.21694322E+04</pdfrwt>
<pdfrwt beam="2">  1       -1 0.67146233E-01 0.21694322E+04</pdfrwt>
<totfact> 0.62599547E+00</totfact>
</mgrwt>
</event>
<event>
12    6  0.1540825E-007  0.1082600E+04  0.7818608E-02  0.9222319E-01
         -1   -1    0    0    0  501 -0.00000000000E+00  0.00000000000E+00  0.20766409836E+03  0.20766409836E+03  0.00000000000E+00 0.  1.
          2   -1    0    0  501    0  0.00000000000E+00 -0.00000000000E+00 -0.14109598173E+04  0.14109598173E+04  0.00000000000E+00 0. -1.
         24    2    1    2    0    0  0.50563622755E+02 -0.10284995859E+03 -0.52109706175E+02  0.14756546605E+03  0.76976303923E+02 0.  0.
        254    2    1    2    0    0 -0.50563622755E+02  0.10284995859E+03 -0.11511860128E+04  0.14710584496E+04  0.90865226146E+03 0.  0.
         23    2    4    4    0    0 -0.57920761756E+02  0.42665658635E+03 -0.10183037230E+04  0.11092767949E+04  0.90343113333E+02 0.  0.
         23    2    4    4    0    0  0.73571390008E+01 -0.32380662776E+03 -0.13288228983E+03  0.36178165476E+03  0.91232686538E+02 0.  0.
          4    1    3    3  502    0 -0.13330324061E+02 -0.58669198498E+02 -0.26815061054E+02  0.65869719077E+02  0.00000000000E+00 0. -1.
         -3    1    3    3    0  502  0.63893946816E+02 -0.44180760092E+02 -0.25294645121E+02  0.81695746976E+02  0.00000000000E+00 0.  1.
         11    1    5    5    0    0 -0.82331779012E+02  0.34503749337E+03 -0.82620463831E+03  0.89913486087E+03  0.00000000000E+00 0. -1.
        -11    1    5    5    0    0  0.24411017257E+02  0.81619092985E+02 -0.19209908466E+03  0.21014193402E+03  0.00000000000E+00 0.  1.
          1    1    6    6  503    0 -0.41789394971E+02 -0.13068095156E+03 -0.52620527253E+02  0.14694483496E+03  0.00000000000E+00 0.  1.
         -1    1    6    6    0  503  0.49146533972E+02 -0.19312567620E+03 -0.80261762579E+02  0.21483681980E+03  0.00000000000E+00 0. -1.
<mgrwt>
<rscale>  0 0.10826000E+04</rscale>
<asrwt>0</asrwt>
<pdfrwt beam="1">  1        2 0.21707075E+00 0.10826000E+04</pdfrwt>
<pdfrwt beam="2">  1       -1 0.31948322E-01 0.10826000E+04</pdfrwt>
<totfact> 0.14735837E+02</totfact>
</mgrwt>
</event>
<event>
12    6  0.1713114E-007  0.2687640E+04  0.7818608E-02  0.8339027E-01
          2   -1    0    0  501    0  0.00000000000E+00  0.00000000000E+00  0.16743722026E+04  0.16743722026E+04  0.00000000000E+00 0. -1.
         -1   -1    0    0    0  501 -0.00000000000E+00 -0.00000000000E+00 -0.10785247430E+04  0.10785247430E+04  0.00000000000E+00 0.  1.
         24    2    1    2    0    0  0.25875866223E+03 -0.38955826643E+03  0.13805957751E+04  0.14598670347E+04  0.80345358590E+02 0.  0.
        254    2    1    2    0    0 -0.25875866223E+03  0.38955826643E+03 -0.78474831553E+03  0.12930299109E+04  0.91508728734E+03 0.  0.
         23    2    4    4    0    0 -0.34073464511E+03  0.45648535827E+03 -0.92820503359E+03  0.10927434120E+04  0.89691690524E+02 0.  0.
         23    2    4    4    0    0  0.81975982881E+02 -0.66927091833E+02  0.14345671807E+03  0.20028649889E+03  0.91299256771E+02 0.  0.
          4    1    3    3  502    0  0.21504669481E+03 -0.34417465112E+03  0.12608548060E+04  0.13245588372E+04  0.00000000000E+00 0. -1.
         -3    1    3    3    0  502  0.43711967423E+02 -0.45383615313E+02  0.11974096908E+03  0.13530819750E+03  0.00000000000E+00 0.  1.
         11    1    5    5    0    0 -0.24056961241E+03  0.25080462594E+03 -0.57811569506E+03  0.67453276843E+03  0.00000000000E+00 0. -1.
        -11    1    5    5    0    0 -0.10016503270E+03  0.20568073232E+03 -0.35008933853E+03  0.41821064355E+03  0.00000000000E+00 0.  1.
          4    1    6    6  503    0  0.59227256619E+01 -0.20913127604E+02 -0.92265817709E+01  0.23612865066E+02  0.00000000000E+00 0. -1.
         -4    1    6    6    0  503  0.76053257219E+02 -0.46013964228E+02  0.15268329984E+03  0.17667363382E+03  0.00000000000E+00 0.  1.
<mgrwt>
<rscale>  0 0.26876397E+04</rscale>
<asrwt>0</asrwt>
<pdfrwt beam="1">  1        2 0.25759572E+00 0.26876397E+04</pdfrwt>
<pdfrwt beam="2">  1       -1 0.16592688E+00 0.26876397E+04</pdfrwt>
<totfact> 0.26725089E+00</totfact>
</mgrwt>
</event>
<event>
12    6  0.1540825E-007  0.1516978E+04  0.7818608E-02  0.8873240E-01
          2   -1    0    0  501    0  0.00000000000E+00  0.00000000000E+00  0.84296822334E+03  0.84296822334E+03  0.00000000000E+00 0. -1.
         -1   -1    0    0    0  501 -0.00000000000E+00 -0.00000000000E+00 -0.68247635404E+03  0.68247635404E+03  0.00000000000E+00 0.  1.
         24    2    1    2    0    0  0.24547539263E+03  0.46182844637E+02  0.47467156629E+03  0.54232240598E+03  0.80059182209E+02 0.  0.
        254    2    1    2    0    0 -0.24547539263E+03 -0.46182844637E+02 -0.31417969698E+03  0.98312217141E+03  0.89745712900E+03 0.  0.
         23    2    4    4    0    0  0.23757635957E+03 -0.59946454030E+02  0.15341421180E+03  0.30437623525E+03  0.95251604830E+02 0.  0.
         23    2    4    4    0    0 -0.48305175220E+03  0.13763609393E+02 -0.46759390878E+03  0.67874593616E+03  0.92323074422E+02 0.  0.
          2    1    3    3  502    0  0.18912115567E+03  0.36309749925E+02  0.28309851448E+03  0.34238863644E+03  0.00000000000E+00 0. -1.
         -1    1    3    3    0  502  0.56354236963E+02  0.98730947118E+01  0.19157305181E+03  0.19993376954E+03  0.00000000000E+00 0.  1.
         11    1    5    5    0    0  0.15062859444E+03 -0.73647663591E+02  0.65609322656E+02  0.18004870184E+03  0.00000000000E+00 0. -1.
        -11    1    5    5    0    0  0.86947765129E+02  0.13701209561E+02  0.87804889147E+02  0.12432753341E+03  0.00000000000E+00 0.  1.
          2    1    6    6  503    0 -0.23947174601E+03  0.22804440914E+02 -0.17255542612E+03  0.29604414324E+03  0.00000000000E+00 0. -1.
         -2    1    6    6    0  503 -0.24358000619E+03 -0.90408315214E+01 -0.29503848266E+03  0.38270179292E+03  0.00000000000E+00 0.  1.
<mgrwt>
<rscale>  0 0.15169784E+04</rscale>
<asrwt>0</asrwt>
<pdfrwt beam="1">  1        2 0.12968742E+00 0.15169784E+04</pdfrwt>
<pdfrwt beam="2">  1       -1 0.10499636E+00 0.15169784E+04</pdfrwt>
<totfact> 0.30116352E+01</totfact>
</mgrwt>
</event>
<event>
12    6  0.1540825E-007  0.2005618E+04  0.7818608E-02  0.8603999E-01
         -1   -1    0    0    0  501 -0.00000000000E+00  0.00000000000E+00  0.49163002283E+03  0.49163002283E+03  0.00000000000E+00 0.  1.
          2   -1    0    0  501    0  0.00000000000E+00 -0.00000000000E+00 -0.20454934456E+04  0.20454934456E+04  0.00000000000E+00 0. -1.
         24    2    1    2    0    0  0.26262926201E+03  0.74615441116E+03 -0.75478375292E+03  0.10962710543E+04  0.79944832963E+02 0.  0.
        254    2    1    2    0    0 -0.26262926201E+03 -0.74615441116E+03 -0.79907966984E+03  0.14408524141E+04  0.90100323304E+03 0.  0.
         23    2    4    4    0    0  0.14744953488E+03 -0.21220825352E+03 -0.70304767576E+03  0.75465965746E+03  0.91986172902E+02 0.  0.
         23    2    4    4    0    0 -0.41007879688E+03 -0.53394615763E+03 -0.96031994087E+02  0.68619275665E+03  0.91516318180E+02 0.  0.
          4    1    3    3  502    0  0.31896788595E+02  0.35155092860E+02 -0.48937860717E+02  0.68177708147E+02  0.00000000000E+00 0. -1.
         -3    1    3    3    0  502  0.23073247341E+03  0.71099931830E+03 -0.70584589221E+03  0.10280933462E+04  0.00000000000E+00 0.  1.
         11    1    5    5    0    0  0.70484403430E+02 -0.16567774074E+03 -0.52809036033E+03  0.55793959671E+03  0.00000000000E+00 0. -1.
        -11    1    5    5    0    0  0.76965131446E+02 -0.46530512785E+02 -0.17495731543E+03  0.19672006075E+03  0.00000000000E+00 0.  1.
          1    1    6    6  503    0 -0.68386632939E+02 -0.75243389621E+02  0.17172199034E+02  0.10311732961E+03  0.00000000000E+00 0. -1.
         -1    1    6    6    0  503 -0.34169216395E+03 -0.45870276801E+03 -0.11320419312E+03  0.58307542704E+03  0.00000000000E+00 0.  1.
<mgrwt>
<rscale>  0 0.20056181E+04</rscale>
<asrwt>0</asrwt>
<pdfrwt beam="1">  1        2 0.31469130E+00 0.20056181E+04</pdfrwt>
<pdfrwt beam="2">  1       -1 0.75635387E-01 0.20056181E+04</pdfrwt>
<totfact> 0.11704102E+01</totfact>
</mgrwt>
</event>
<event>
12    6  0.1540825E-007  0.1491807E+04  0.7818608E-02  0.8889919E-01
          2   -1    0    0  501    0  0.00000000000E+00  0.00000000000E+00  0.19543412415E+04  0.19543412415E+04  0.00000000000E+00 0. -1.
         -1   -1    0    0    0  501 -0.00000000000E+00 -0.00000000000E+00 -0.28468523322E+03  0.28468523322E+03  0.00000000000E+00 0.  1.
         24    2    1    2    0    0 -0.30938348527E+03  0.15800295895E+03  0.98804818132E+03  0.10514210475E+04  0.92541528491E+02 0.  0.
        254    2    1    2    0    0  0.30938348527E+03 -0.15800295895E+03  0.68160782697E+03  0.11876054272E+04  0.90836905772E+03 0.  0.
         23    2    4    4    0    0  0.77096616123E+02  0.91652034374E+01  0.83961922823E+03  0.84808869562E+03  0.90918084367E+02 0.  0.
         23    2    4    4    0    0  0.23228686914E+03 -0.16716816239E+03 -0.15801140126E+03  0.33951673162E+03  0.91660373265E+02 0.  0.
          4    1    3    3  502    0 -0.26544444362E+03  0.10607345477E+03  0.71493450961E+03  0.76996342997E+03  0.00000000000E+00 0. -1.
         -3    1    3    3    0  502 -0.43939041651E+02  0.51929504182E+02  0.27311367171E+03  0.28145761752E+03  0.00000000000E+00 0.  1.
         11    1    5    5    0    0  0.50308430214E+02  0.15544284487E+00  0.15654936887E+03  0.16443438572E+03  0.00000000000E+00 0.  1.
        -11    1    5    5    0    0  0.26788185909E+02  0.90097605925E+01  0.68306985936E+03  0.68365430990E+03  0.00000000000E+00 0. -1.
          1    1    6    6  503    0  0.13052689586E+03 -0.70634408785E+02 -0.33920045182E+02  0.15224013831E+03  0.00000000000E+00 0. -1.
         -1    1    6    6    0  503  0.10175997328E+03 -0.96533753605E+02 -0.12409135608E+03  0.18727659330E+03  0.00000000000E+00 0.  1.
<mgrwt>
<rscale>  0 0.14918071E+04</rscale>
<asrwt>0</asrwt>
<pdfrwt beam="1">  1        2 0.30066788E+00 0.14918071E+04</pdfrwt>
<pdfrwt beam="2">  1       -1 0.43797729E-01 0.14918071E+04</pdfrwt>
<totfact> 0.40196031E+01</totfact>
</mgrwt>
</event>
<event>
12    6  0.1540825E-007  0.1166141E+04  0.7818608E-02  0.9143021E-01
          2   -1    0    0  501    0  0.00000000000E+00  0.00000000000E+00  0.39460886345E+03  0.39460886345E+03  0.00000000000E+00 0. -1.
         -1   -1    0    0    0  501 -0.00000000000E+00 -0.00000000000E+00 -0.86153932227E+03  0.86153932227E+03  0.00000000000E+00 0.  1.
         24    2    1    2    0    0  0.12355745105E+03  0.12541261981E+03  0.58645920184E+02  0.20230423827E+03  0.80578483158E+02 0.  0.
        254    2    1    2    0    0 -0.12355745105E+03 -0.12541261981E+03 -0.52557637900E+03  0.10538439474E+04  0.89630450545E+03 0.  0.
         23    2    4    4    0    0 -0.36878827205E+03 -0.36248456743E+03 -0.45243620995E+03  0.69321204668E+03  0.91894321703E+02 0.  0.
         23    2    4    4    0    0  0.24523082100E+03  0.23707194762E+03 -0.73140169058E+02  0.36063190077E+03  0.91458294375E+02 0.  0.
          2    1    3    3  502    0  0.11405911281E+03  0.67483487821E+02  0.25726687971E+02  0.13500135117E+03  0.00000000000E+00 0. -1.
         -1    1    3    3    0  502  0.94983382441E+01  0.57929131986E+02  0.32919232213E+02  0.67302887096E+02  0.00000000000E+00 0.  1.
         11    1    5    5    0    0 -0.26000250263E+03 -0.30837744080E+03 -0.33683462089E+03  0.52550500397E+03  0.00000000000E+00 0. -1.
        -11    1    5    5    0    0 -0.10878576942E+03 -0.54107126623E+02 -0.11560158906E+03  0.16770704270E+03  0.00000000000E+00 0.  1.
          2    1    6    6  503    0  0.13956663590E+03  0.17459743065E+03 -0.80704127558E+02  0.23764735398E+03  0.00000000000E+00 0. -1.
         -2    1    6    6    0  503  0.10566418510E+03  0.62474516966E+02  0.75639584998E+01  0.12298454680E+03  0.00000000000E+00 0.  1.
<mgrwt>
<rscale>  0 0.11661407E+04</rscale>
<asrwt>0</asrwt>
<pdfrwt beam="1">  1        2 0.60709056E-01 0.11661407E+04</pdfrwt>
<pdfrwt beam="2">  1       -1 0.13254451E+00 0.11661407E+04</pdfrwt>
<totfact> 0.44137143E+01</totfact>
</mgrwt>
</event>
<event>
12    6  0.1540825E-007  0.1108080E+04  0.7818608E-02  0.9197352E-01
          2   -1    0    0  501    0  0.00000000000E+00  0.00000000000E+00  0.58988599178E+03  0.58988599178E+03  0.00000000000E+00 0. -1.
         -1   -1    0    0    0  501 -0.00000000000E+00 -0.00000000000E+00 -0.52037224455E+03  0.52037224455E+03  0.00000000000E+00 0.  1.
         24    2    1    2    0    0 -0.17356705936E+02 -0.11551033947E+03  0.14497082855E+03  0.20268308365E+03  0.80124886899E+02 0.  0.
        254    2    1    2    0    0  0.17356705936E+02  0.11551033947E+03 -0.75457081317E+02  0.90757515269E+03  0.89685840181E+03 0.  0.
         23    2    4    4    0    0 -0.92167162164E+02 -0.28506258685E+03 -0.29358851233E+03  0.42993937556E+03  0.94330206616E+02 0.  0.
         23    2    4    4    0    0  0.10952386810E+03  0.40057292632E+03  0.21813143101E+03  0.47763577713E+03  0.90002596685E+02 0.  0.
          4    1    3    3  502    0 -0.30237159701E+02 -0.12000691888E+03  0.11165333303E+03  0.16668057230E+03  0.00000000000E+00 0. -1.
         -3    1    3    3    0  502  0.12880453766E+02  0.44965794090E+01  0.33317495514E+02  0.36002511342E+02  0.00000000000E+00 0.  1.
         11    1    5    5    0    0 -0.23042722861E+02 -0.49537764979E+01 -0.10719615054E+02  0.25892414436E+02  0.00000000000E+00 0.  1.
        -11    1    5    5    0    0 -0.69124439304E+02 -0.28010881035E+03 -0.28286889728E+03  0.40404696112E+03  0.00000000000E+00 0. -1.
          4    1    6    6  503    0  0.27853075997E+02  0.22665459614E+03  0.15248872300E+03  0.27459226216E+03  0.00000000000E+00 0. -1.
         -4    1    6    6    0  503  0.81670792103E+02  0.17391833018E+03  0.65642708010E+02  0.20304351497E+03  0.00000000000E+00 0.  1.
<mgrwt>
<rscale>  0 0.11080800E+04</rscale>
<asrwt>0</asrwt>
<pdfrwt beam="1">  1        2 0.90751691E-01 0.11080800E+04</pdfrwt>
<pdfrwt beam="2">  1       -1 0.80057268E-01 0.11080800E+04</pdfrwt>
<totfact> 0.89481592E+01</totfact>
</mgrwt>
</event>
<event>
12    6  0.1540825E-007  0.1168104E+04  0.7818608E-02  0.9141243E-01
         -1   -1    0    0    0  501 -0.00000000000E+00  0.00000000000E+00  0.21538348244E+03  0.21538348244E+03  0.00000000000E+00 0.  1.
          2   -1    0    0  501    0  0.00000000000E+00 -0.00000000000E+00 -0.15837636909E+04  0.15837636909E+04  0.00000000000E+00 0. -1.
         24    2    1    2    0    0 -0.27360511318E+02  0.31002602413E+02 -0.63528433431E+03  0.64170549056E+03  0.80560488156E+02 0.  0.
        254    2    1    2    0    0  0.27360511318E+02 -0.31002602413E+02 -0.73309587410E+03  0.11574416827E+04  0.89472449915E+03 0.  0.
         23    2    4    4    0    0  0.63267753442E+02 -0.42691956451E+03 -0.19815302052E+03  0.48447637694E+03  0.95862490521E+02 0.  0.
         23    2    4    4    0    0 -0.35907242124E+02  0.39591696209E+03 -0.53494285358E+03  0.67296530579E+03  0.93160481428E+02 0.  0.
          4    1    3    3  502    0 -0.37439040230E+02  0.43299103063E+02 -0.60307937806E+03  0.60578975750E+03  0.00000000000E+00 0. -1.
         -3    1    3    3    0  502  0.10078528913E+02 -0.12296500650E+02 -0.32204956256E+02  0.35915733053E+02  0.00000000000E+00 0.  1.
         11    1    5    5    0    0 -0.16900882710E+02 -0.28581263159E+02 -0.19535967126E+01  0.33261764539E+02  0.00000000000E+00 0.  1.
        -11    1    5    5    0    0  0.80168636151E+02 -0.39833830135E+03 -0.19619942381E+03  0.45121461240E+03  0.00000000000E+00 0. -1.
          3    1    6    6  503    0 -0.16560040908E+02  0.34787581447E+03 -0.50403691900E+03  0.61265408916E+03  0.00000000000E+00 0. -1.
         -3    1    6    6    0  503 -0.19347201216E+02  0.48041147624E+02 -0.30905934573E+02  0.60311216633E+02  0.00000000000E+00 0.  1.
<mgrwt>
<rscale>  0 0.11681037E+04</rscale>
<asrwt>0</asrwt>
<pdfrwt beam="1">  1        2 0.24365595E+00 0.11681037E+04</pdfrwt>
<pdfrwt beam="2">  1       -1 0.33135920E-01 0.11681037E+04</pdfrwt>
<totfact> 0.10973934E+02</totfact>
</mgrwt>
</event>
<event>
12    6  0.1540825E-007  0.2296167E+04  0.7818608E-02  0.8479434E-01
         -1   -1    0    0    0  501 -0.00000000000E+00  0.00000000000E+00  0.17509282346E+04  0.17509282346E+04  0.00000000000E+00 0.  1.
          2   -1    0    0  501    0  0.00000000000E+00 -0.00000000000E+00 -0.75279827271E+03  0.75279827271E+03  0.00000000000E+00 0. -1.
         24    2    1    2    0    0 -0.84781924198E+02 -0.96369676834E+03  0.44366364069E+03  0.10683808177E+04  0.93277594016E+02 0.  0.
        254    2    1    2    0    0  0.84781924198E+02  0.96369676834E+03  0.55446632123E+03  0.14353456897E+04  0.90381685726E+03 0.  0.
         23    2    4    4    0    0  0.89152201466E+02  0.11256709601E+04  0.43118839249E+03  0.12121464197E+04  0.91061997903E+02 0.  0.
         23    2    4    4    0    0 -0.43702772682E+01 -0.16197419177E+03  0.12327792874E+03  0.22319926998E+03  0.91464355259E+02 0.  0.
          4    1    3    3  502    0  0.15687457784E+02 -0.23139202381E+03  0.12484097496E+03  0.26338875079E+03  0.00000000000E+00 0. -1.
         -3    1    3    3    0  502 -0.10046938198E+03 -0.73230474453E+03  0.31882266574E+03  0.80499206690E+03  0.00000000000E+00 0.  1.
         11    1    5    5    0    0  0.36663113819E+02  0.14006858933E+03  0.37809650394E+02  0.14964278565E+03  0.00000000000E+00 0. -1.
        -11    1    5    5    0    0  0.52489087647E+02  0.98560237078E+03  0.39337874210E+03  0.10625036340E+04  0.00000000000E+00 0.  1.
          2    1    6    6  503    0 -0.16792901798E+02 -0.69769919202E+01 -0.78395602312E+01  0.19802491552E+02  0.00000000000E+00 0. -1.
         -2    1    6    6    0  503  0.12422624530E+02 -0.15499719985E+03  0.13111748897E+03  0.20339677843E+03  0.00000000000E+00 0.  1.
<mgrwt>
<rscale>  0 0.22961670E+04</rscale>
<asrwt>0</asrwt>
<pdfrwt beam="1">  1        2 0.11581512E+00 0.22961670E+04</pdfrwt>
<pdfrwt beam="2">  1       -1 0.26937357E+00 0.22961670E+04</pdfrwt>
<totfact> 0.20140179E+00</totfact>
</mgrwt>
</event>
<event>
12    6  0.1540825E-007  0.1396864E+04  0.7818608E-02  0.8956092E-01
         -1   -1    0    0    0  501 -0.00000000000E+00  0.00000000000E+00  0.30204463977E+03  0.30204463977E+03  0.00000000000E+00 0.  1.
          2   -1    0    0  501    0  0.00000000000E+00 -0.00000000000E+00 -0.16150170787E+04  0.16150170787E+04  0.00000000000E+00 0. -1.
         24    2    1    2    0    0 -0.28867922216E+03 -0.22825605563E+03 -0.59069089274E+03  0.70067362154E+03  0.81186654811E+02 0.  0.
        254    2    1    2    0    0  0.28867922216E+03  0.22825605563E+03 -0.72228154618E+03  0.12163880969E+04  0.90690288904E+03 0.  0.
         23    2    4    4    0    0  0.34971593575E+03  0.53826982697E+03 -0.44368640177E+03  0.78577759405E+03  0.92483305884E+02 0.  0.
         23    2    4    4    0    0 -0.61036713590E+02 -0.31001377134E+03 -0.27859514442E+03  0.43061050287E+03  0.89309192523E+02 0.  0.
          4    1    3    3  502    0 -0.28824978017E+03 -0.20559704333E+03 -0.55955734510E+03  0.66216501149E+03  0.00000000000E+00 0. -1.
         -3    1    3    3    0  502 -0.42944198840E+00 -0.22659012305E+02 -0.31133547639E+02  0.38508610046E+02  0.00000000000E+00 0.  1.
         11    1    5    5    0    0  0.60090824471E+02  0.85807776928E+02 -0.11691901837E+03  0.15698388014E+03  0.00000000000E+00 0. -1.
        -11    1    5    5    0    0  0.28962511127E+03  0.45246205004E+03 -0.32676738339E+03  0.62879371391E+03  0.00000000000E+00 0.  1.
          3    1    6    6  503    0 -0.76144737670E+02 -0.15738400257E+03 -0.15450236303E+03  0.23332107818E+03  0.00000000000E+00 0. -1.
         -3    1    6    6    0  503  0.15108024081E+02 -0.15262976876E+03 -0.12409278138E+03  0.19728942469E+03  0.00000000000E+00 0.  1.
<mgrwt>
<rscale>  0 0.13968640E+04</rscale>
<asrwt>0</asrwt>
<pdfrwt beam="1">  1        2 0.24846416E+00 0.13968640E+04</pdfrwt>
<pdfrwt beam="2">  1       -1 0.46468407E-01 0.13968640E+04</pdfrwt>
<totfact> 0.55938314E+01</totfact>
</mgrwt>
</event>
<event>
12    6  0.1540825E-007  0.2405039E+04  0.7818608E-02  0.8437619E-01
         -1   -1    0    0    0  501 -0.00000000000E+00  0.00000000000E+00  0.11404591376E+04  0.11404591376E+04  0.00000000000E+00 0.  1.
          2   -1    0    0  501    0  0.00000000000E+00 -0.00000000000E+00 -0.12679569735E+04  0.12679569735E+04  0.00000000000E+00 0. -1.
         24    2    1    2    0    0  0.11354595740E+03 -0.64546480361E+03 -0.85421832576E+03  0.10795136571E+04  0.78379146958E+02 0.  0.
        254    2    1    2    0    0 -0.11354595740E+03  0.64546480361E+03  0.72672048989E+03  0.13289024540E+04  0.89907817493E+03 0.  0.
         23    2    4    4    0    0 -0.40337733391E+03  0.38801215264E+03  0.73781618618E+03  0.93051284157E+03  0.90635090541E+02 0.  0.
         23    2    4    4    0    0  0.28983137651E+03  0.25745265098E+03 -0.11095696284E+02  0.39838961242E+03  0.91143153902E+02 0.  0.
          2    1    3    3  502    0  0.58894045501E+02 -0.49402368315E+03 -0.67589653930E+03  0.83926398704E+03  0.00000000000E+00 0. -1.
         -1    1    3    3    0  502  0.54651911899E+02 -0.15144112047E+03 -0.17832178646E+03  0.24024967007E+03  0.00000000000E+00 0.  1.
         11    1    5    5    0    0 -0.33451428008E+03  0.30045937328E+03  0.64068943080E+03  0.78272510201E+03  0.00000000000E+00 0.  1.
        -11    1    5    5    0    0 -0.68863053824E+02  0.87552779359E+02  0.97126755375E+02  0.14778773956E+03  0.00000000000E+00 0. -1.
          2    1    6    6  503    0  0.10055444728E+03  0.95722029443E+02  0.39493852280E+02  0.14433872715E+03  0.00000000000E+00 0. -1.
         -2    1    6    6    0  503  0.18927692923E+03  0.16173062153E+03 -0.50589548564E+02  0.25405088526E+03  0.00000000000E+00 0.  1.
<mgrwt>
<rscale>  0 0.24050390E+04</rscale>
<asrwt>0</asrwt>
<pdfrwt beam="1">  1        2 0.19507030E+00 0.24050390E+04</pdfrwt>
<pdfrwt beam="2">  1       -1 0.17545525E+00 0.24050390E+04</pdfrwt>
<totfact> 0.39693211E+00</totfact>
</mgrwt>
</event>
<event>
12    6  0.1540825E-007  0.3162356E+04  0.7818608E-02  0.8198830E-01
          2   -1    0    0  501    0  0.00000000000E+00  0.00000000000E+00  0.11083877302E+04  0.11083877302E+04  0.00000000000E+00 0. -1.
         -1   -1    0    0    0  501 -0.00000000000E+00 -0.00000000000E+00 -0.22556407744E+04  0.22556407744E+04  0.00000000000E+00 0.  1.
         24    2    1    2    0    0  0.14391523890E+04  0.80450645158E+02 -0.33961698551E+03  0.14828334767E+04  0.76311976298E+02 0.  0.
        254    2    1    2    0    0 -0.14391523890E+04 -0.80450645158E+02 -0.80763605871E+03  0.18811950280E+04  0.89943694879E+03 0.  0.
         23    2    4    4    0    0 -0.13508938536E+04 -0.33339120916E+03 -0.55147629260E+03  0.14995093289E+04  0.91313875716E+02 0.  0.
         23    2    4    4    0    0 -0.88258535349E+02  0.25294056400E+03 -0.25615976610E+03  0.38168569909E+03  0.91091432886E+02 0.  0.
          2    1    3    3  502    0  0.91753669466E+03  0.15724162621E+02 -0.20634002909E+03  0.94058335247E+03  0.00000000000E+00 0. -1.
         -1    1    3    3    0  502  0.52161569434E+03  0.64726482537E+02 -0.13327695642E+03  0.54225012423E+03  0.00000000000E+00 0.  1.
         11    1    5    5    0    0 -0.18167376101E+02 -0.40188486952E+00 -0.18810780652E+02  0.26154550934E+02  0.00000000000E+00 0. -1.
        -11    1    5    5    0    0 -0.13327264775E+04 -0.33298932429E+03 -0.53266551195E+03  0.14733547779E+04  0.00000000000E+00 0.  1.
          4    1    6    6  503    0 -0.65230589585E+02  0.84856528333E+02 -0.13933759786E+03  0.17570038815E+03  0.00000000000E+00 0. -1.
         -4    1    6    6    0  503 -0.23027945764E+02  0.16808403567E+03 -0.11682216824E+03  0.20598531094E+03  0.00000000000E+00 0.  1.
<mgrwt>
<rscale>  0 0.31623564E+04</rscale>
<asrwt>0</asrwt>
<pdfrwt beam="1">  1        2 0.17052119E+00 0.31623564E+04</pdfrwt>
<pdfrwt beam="2">  1       -1 0.34702166E+00 0.31623564E+04</pdfrwt>
<totfact> 0.33676131E-01</totfact>
</mgrwt>
</event>
<event>
12    6  0.1540825E-007  0.1035795E+04  0.7818608E-02  0.9270134E-01
         -1   -1    0    0    0  501 -0.00000000000E+00  0.00000000000E+00  0.19219489533E+04  0.19219489533E+04  0.00000000000E+00 0.  1.
          2   -1    0    0  501    0  0.00000000000E+00 -0.00000000000E+00 -0.13955506379E+03  0.13955506379E+03  0.00000000000E+00 0. -1.
         24    2    1    2    0    0  0.77369841063E+02  0.33290070080E+02  0.35909389924E+03  0.37717498615E+03  0.78855695029E+02 0.  0.
        254    2    1    2    0    0 -0.77369841063E+02 -0.33290070080E+02  0.14232999903E+04  0.16843290309E+04  0.89670903925E+03 0.  0.
         23    2    4    4    0    0 -0.15978675373E+03  0.39624943851E+03  0.54036341229E+03  0.69478072430E+03  0.90455587630E+02 0.  0.
         23    2    4    4    0    0  0.82416912671E+02 -0.42953950859E+03  0.88293657799E+03  0.98954830664E+03  0.91280411313E+02 0.  0.
          4    1    3    3  502    0 -0.12299808888E+02 -0.99263590577E+01  0.46138175000E+02  0.48770371079E+02  0.00000000000E+00 0. -1.
         -3    1    3    3    0  502  0.89669649950E+02  0.43216429138E+02  0.31295572424E+03  0.32840461507E+03  0.00000000000E+00 0.  1.
         11    1    5    5    0    0 -0.14599322714E+03  0.39253835900E+03  0.53520985066E+03  0.67959544576E+03  0.00000000000E+00 0.  1.
        -11    1    5    5    0    0 -0.13793526589E+02  0.37110795062E+01  0.51535616349E+01  0.15185278542E+02  0.00000000000E+00 0. -1.
          4    1    6    6  503    0  0.37801331390E+01 -0.17186484087E+02  0.84416936130E+01  0.19517346974E+02  0.00000000000E+00 0. -1.
         -4    1    6    6    0  503  0.78636779532E+02 -0.41235302450E+03  0.87449488438E+03  0.97003095967E+03  0.00000000000E+00 0.  1.
<mgrwt>
<rscale>  0 0.10357948E+04</rscale>
<asrwt>0</asrwt>
<pdfrwt beam="1">  1        2 0.21470011E-01 0.10357948E+04</pdfrwt>
<pdfrwt beam="2">  1       -1 0.29568444E+00 0.10357948E+04</pdfrwt>
<totfact> 0.10673956E+01</totfact>
</mgrwt>
</event>
<event>
12    6  0.1540825E-007  0.2453107E+04  0.7818608E-02  0.8419885E-01
          2   -1    0    0  501    0  0.00000000000E+00  0.00000000000E+00  0.60683595457E+03  0.60683595457E+03  0.00000000000E+00 0. -1.
         -1   -1    0    0    0  501 -0.00000000000E+00 -0.00000000000E+00 -0.24791431350E+04  0.24791431350E+04  0.00000000000E+00 0.  1.
         24    2    1    2    0    0  0.36383592145E+03  0.27864062481E+03  0.39183074381E+03  0.60842625656E+03  0.81449385152E+02 0.  0.
        254    2    1    2    0    0 -0.36383592145E+03 -0.27864062481E+03 -0.22641379242E+04  0.24775528330E+04  0.89550562524E+03 0.  0.
         23    2    4    4    0    0  0.21080180441E+03 -0.34024159066E+03 -0.11196521321E+04  0.11924947226E+04  0.90669872079E+02 0.  0.
         23    2    4    4    0    0 -0.57463772585E+03  0.61600965847E+02 -0.11444857921E+04  0.12850581104E+04  0.86737672374E+02 0.  0.
          4    1    3    3  502    0  0.24266274733E+03  0.22396818948E+03  0.25119121001E+03  0.41490237747E+03  0.00000000000E+00 0. -1.
         -3    1    3    3    0  502  0.12117317412E+03  0.54672435333E+02  0.14063953380E+03  0.19352387909E+03  0.00000000000E+00 0.  1.
         11    1    5    5    0    0  0.98087211640E+02 -0.81284158261E+02 -0.31932295629E+03  0.34379552918E+03  0.00000000000E+00 0. -1.
        -11    1    5    5    0    0  0.11271459277E+03 -0.25895743240E+03 -0.80032917585E+03  0.84869919343E+03  0.00000000000E+00 0.  1.
          3    1    6    6  503    0 -0.24921886095E+03 -0.60192629215E+01 -0.55280189371E+03  0.60641257067E+03  0.00000000000E+00 0. -1.
         -3    1    6    6    0  503 -0.32541886490E+03  0.67620228769E+02 -0.59168389838E+03  0.67864553972E+03  0.00000000000E+00 0.  1.
<mgrwt>
<rscale>  0 0.24531068E+04</rscale>
<asrwt>0</asrwt>
<pdfrwt beam="1">  1        2 0.93359380E-01 0.24531068E+04</pdfrwt>
<pdfrwt beam="2">  1       -1 0.38140663E+00 0.24531068E+04</pdfrwt>
<totfact> 0.47854704E-01</totfact>
</mgrwt>
</event>
<event>
12    6  0.1540825E-007  0.2097238E+04  0.7818608E-02  0.8562461E-01
          2   -1    0    0  501    0  0.00000000000E+00  0.00000000000E+00  0.63679459112E+03  0.63679459112E+03  0.00000000000E+00 0. -1.
         -1   -1    0    0    0  501 -0.00000000000E+00 -0.00000000000E+00 -0.17267761280E+04  0.17267761280E+04  0.00000000000E+00 0.  1.
         24    2    1    2    0    0 -0.52987392750E+03 -0.63924922551E+03 -0.65945039076E+03  0.10634306751E+04  0.81265193051E+02 0.  0.
        254    2    1    2    0    0  0.52987392750E+03  0.63924922551E+03 -0.43053114614E+03  0.13001400440E+04  0.90310636963E+03 0.  0.
         23    2    4    4    0    0 -0.95249182111E+02  0.32582918199E+03  0.15483210871E+03  0.38325278590E+03  0.87593684017E+02 0.  0.
         23    2    4    4    0    0  0.62512310961E+03  0.31342004352E+03 -0.58536325485E+03  0.91688725811E+03  0.94979356169E+02 0.  0.
          2    1    3    3  502    0 -0.44355166411E+02 -0.27892479339E+02 -0.56081187094E+02  0.76749402193E+02  0.00000000000E+00 0. -1.
         -1    1    3    3    0  502 -0.48551876109E+03 -0.61135674617E+03 -0.60336920367E+03  0.98668127295E+03  0.00000000000E+00 0.  1.
         11    1    5    5    0    0 -0.14454602882E+02  0.15983040661E+03  0.38484985293E+02  0.16503268923E+03  0.00000000000E+00 0.  1.
        -11    1    5    5    0    0 -0.80794579229E+02  0.16599877538E+03  0.11634712342E+03  0.21822009666E+03  0.00000000000E+00 0. -1.
          1    1    6    6  503    0  0.33386703054E+03  0.21349138322E+03 -0.29959267893E+03  0.49679124193E+03  0.00000000000E+00 0. -1.
         -1    1    6    6    0  503  0.29125607907E+03  0.99928660306E+02 -0.28577057592E+03  0.42009601618E+03  0.00000000000E+00 0.  1.
<mgrwt>
<rscale>  0 0.20972379E+04</rscale>
<asrwt>0</asrwt>
<pdfrwt beam="1">  1        2 0.97968399E-01 0.20972379E+04</pdfrwt>
<pdfrwt beam="2">  1       -1 0.26565786E+00 0.20972379E+04</pdfrwt>
<totfact> 0.26758865E+00</totfact>
</mgrwt>
</event>
<event>
12    6  0.1540825E-007  0.2106872E+04  0.7818608E-02  0.8558222E-01
          2   -1    0    0  501    0  0.00000000000E+00  0.00000000000E+00  0.23567789053E+04  0.23567789053E+04  0.00000000000E+00 0. -1.
         -1   -1    0    0    0  501 -0.00000000000E+00 -0.00000000000E+00 -0.47086599368E+03  0.47086599368E+03  0.00000000000E+00 0.  1.
         24    2    1    2    0    0 -0.48551024732E+02  0.12118341079E+03  0.18813680199E+04  0.18876596997E+04  0.81675544903E+02 0.  0.
        254    2    1    2    0    0  0.48551024732E+02 -0.12118341079E+03  0.45448916779E+01  0.93998519921E+03  0.93086459683E+03 0.  0.
         23    2    4    4    0    0  0.47344308342E+03 -0.19543732075E+02  0.75746581363E+02  0.48899846608E+03  0.94083178808E+02 0.  0.
         23    2    4    4    0    0 -0.42489205869E+03 -0.10163967872E+03 -0.71201689685E+02  0.45098673313E+03  0.86345046281E+02 0.  0.
          4    1    3    3  502    0 -0.67514065410E+02  0.10203722165E+03  0.16872270176E+04  0.16916573981E+04  0.00000000000E+00 0. -1.
         -3    1    3    3    0  502  0.18963040678E+02  0.19146189145E+02  0.19414100228E+03  0.19600230161E+03  0.00000000000E+00 0.  1.
         11    1    5    5    0    0  0.27445654955E+03 -0.53969034679E+02  0.62578648238E+02  0.28662718208E+03  0.00000000000E+00 0.  1.
        -11    1    5    5    0    0  0.19898653388E+03  0.34425302604E+02  0.13167933125E+02  0.20237128400E+03  0.00000000000E+00 0. -1.
          2    1    6    6  503    0 -0.19284681851E+03 -0.25686589656E+02  0.68043762922E+01  0.19466893906E+03  0.00000000000E+00 0. -1.
         -2    1    6    6    0  503 -0.23204524018E+03 -0.75953089060E+02 -0.78006065977E+02  0.25631779407E+03  0.00000000000E+00 0.  1.
<mgrwt>
<rscale>  0 0.21068717E+04</rscale>
<asrwt>0</asrwt>
<pdfrwt beam="1">  1        2 0.36258136E+00 0.21068717E+04</pdfrwt>
<pdfrwt beam="2">  1       -1 0.72440923E-01 0.21068717E+04</pdfrwt>
<totfact> 0.84807334E+00</totfact>
</mgrwt>
</event>
<event>
12    6  0.1540825E-007  0.1967846E+04  0.7818608E-02  0.8621803E-01
          2   -1    0    0  501    0  0.00000000000E+00  0.00000000000E+00  0.14485282220E+04  0.14485282220E+04  0.00000000000E+00 0. -1.
         -1   -1    0    0    0  501 -0.00000000000E+00 -0.00000000000E+00 -0.66833656017E+03  0.66833656017E+03  0.00000000000E+00 0.  1.
         24    2    1    2    0    0  0.19035970650E+03  0.16571291614E+03 -0.47787557325E+03  0.54817482265E+03  0.91831281378E+02 0.  0.
        254    2    1    2    0    0 -0.19035970650E+03 -0.16571291614E+03  0.12580672351E+04  0.15686899595E+04  0.90241754896E+03 0.  0.
         23    2    4    4    0    0 -0.39123780435E+02  0.36422960052E+03  0.52620246083E+03  0.64746433166E+03  0.90150756502E+02 0.  0.
         23    2    4    4    0    0 -0.15123592606E+03 -0.52994251665E+03  0.73186477424E+03  0.92122562785E+03  0.96536176342E+02 0.  0.
          2    1    3    3  502    0  0.11921642290E+03  0.13202863132E+03 -0.24804422738E+03  0.30523770034E+03  0.00000000000E+00 0. -1.
         -1    1    3    3    0  502  0.71143283597E+02  0.33684284817E+02 -0.22983134588E+03  0.24293712230E+03  0.00000000000E+00 0.  1.
         11    1    5    5    0    0  0.62728717769E+01 -0.97875637689E+00  0.24169047006E+02  0.24988991927E+02  0.00000000000E+00 0.  1.
        -11    1    5    5    0    0 -0.45396652212E+02  0.36520835689E+03  0.50203341382E+03  0.62247533973E+03  0.00000000000E+00 0. -1.
          1    1    6    6  503    0 -0.16463076480E+03 -0.50454772469E+03  0.69704009095E+03  0.87609165251E+03  0.00000000000E+00 0. -1.
         -1    1    6    6    0  503  0.13394838734E+02 -0.25394791963E+02  0.34824683294E+02  0.45133975340E+02  0.00000000000E+00 0.  1.
<mgrwt>
<rscale>  0 0.19678459E+04</rscale>
<asrwt>0</asrwt>
<pdfrwt beam="1">  1        2 0.22285050E+00 0.19678459E+04</pdfrwt>
<pdfrwt beam="2">  1       -1 0.10282101E+00 0.19678459E+04</pdfrwt>
<totfact> 0.12881683E+01</totfact>
</mgrwt>
</event>
<event>
12    6  0.1540825E-007  0.1149787E+04  0.7818608E-02  0.9157980E-01
         -1   -1    0    0    0  501 -0.00000000000E+00  0.00000000000E+00  0.16073167615E+03  0.16073167615E+03  0.00000000000E+00 0.  1.
          2   -1    0    0  501    0  0.00000000000E+00 -0.00000000000E+00 -0.20562366078E+04  0.20562366078E+04  0.00000000000E+00 0. -1.
         24    2    1    2    0    0 -0.46474453505E+02  0.83839765975E+02 -0.72155237443E+03  0.73209785236E+03  0.78361056557E+02 0.  0.
        254    2    1    2    0    0  0.46474453505E+02 -0.83839765975E+02 -0.11739525573E+04  0.14848704316E+04  0.90414966177E+03 0.  0.
         23    2    4    4    0    0  0.30834025675E+03  0.12217102773E+03 -0.10736175352E+04  0.11273604864E+04  0.91036148451E+02 0.  0.
         23    2    4    4    0    0 -0.26186580325E+03 -0.20601079370E+03 -0.10033502200E+03  0.35750994525E+03  0.82049364879E+02 0.  0.
          2    1    3    3  502    0 -0.69227827158E+01  0.19272126007E+02 -0.44195216405E+03  0.44242632728E+03  0.00000000000E+00 0. -1.
         -1    1    3    3    0  502 -0.39551670789E+02  0.64567639968E+02 -0.27960021039E+03  0.28967152508E+03  0.00000000000E+00 0.  1.
         11    1    5    5    0    0  0.23922018619E+03  0.13325418834E+03 -0.84414936929E+03  0.88745204595E+03  0.00000000000E+00 0.  1.
        -11    1    5    5    0    0  0.69120070567E+02 -0.11083160616E+02 -0.22946816596E+03  0.23990844044E+03  0.00000000000E+00 0. -1.
          2    1    6    6  503    0 -0.15659657528E+03 -0.73300418684E+02 -0.38130228973E+02  0.17705748539E+03  0.00000000000E+00 0. -1.
         -2    1    6    6    0  503 -0.10526922797E+03 -0.13271037502E+03 -0.62204793032E+02  0.18045245986E+03  0.00000000000E+00 0.  1.
<mgrwt>
<rscale>  0 0.11497867E+04</rscale>
<asrwt>0</asrwt>
<pdfrwt beam="1">  1        2 0.31634407E+00 0.11497867E+04</pdfrwt>
<pdfrwt beam="2">  1       -1 0.24727952E-01 0.11497867E+04</pdfrwt>
<totfact> 0.10026306E+02</totfact>
</mgrwt>
</event>
<event>
12    6  0.1540825E-007  0.1548033E+04  0.7818608E-02  0.8853125E-01
          2   -1    0    0  501    0  0.00000000000E+00  0.00000000000E+00  0.40050955732E+03  0.40050955732E+03  0.00000000000E+00 0. -1.
         -3   -1    0    0    0  501 -0.00000000000E+00 -0.00000000000E+00 -0.14958480685E+04  0.14958480685E+04  0.00000000000E+00 0.  1.
         24    2    1    2    0    0  0.11090761184E+03 -0.49873395692E+03 -0.28685858232E+03  0.59056739768E+03  0.73796658519E+02 0.  0.
        254    2    1    2    0    0 -0.11090761184E+03  0.49873395692E+03 -0.80847992887E+03  0.13057902281E+04  0.88905132945E+03 0.  0.
         23    2    4    4    0    0 -0.28957826100E+03  0.45824032541E+03 -0.87589192686E+02  0.55662483441E+03  0.91211701747E+02 0.  0.
         23    2    4    4    0    0  0.17867064916E+03  0.40493631512E+02 -0.72089073618E+03  0.74916539373E+03  0.89456126645E+02 0.  0.
          4    1    3    3  502    0  0.10381175285E+03 -0.49482676214E+03 -0.28875829750E+03  0.58224716310E+03  0.00000000000E+00 0. -1.
         -3    1    3    3    0  502  0.70958589865E+01 -0.39071947756E+01  0.18997151788E+01  0.83202345839E+01  0.00000000000E+00 0.  1.
         11    1    5    5    0    0 -0.24028925155E+03  0.40776759809E+03 -0.10308380970E+03  0.48439612952E+03  0.00000000000E+00 0.  1.
        -11    1    5    5    0    0 -0.49289009448E+02  0.50472727311E+02  0.15494617012E+02  0.72228704895E+02  0.00000000000E+00 0. -1.
          1    1    6    6  503    0  0.16723059683E+03  0.25876191496E+02 -0.50750407713E+03  0.53497293212E+03  0.00000000000E+00 0.  1.
         -1    1    6    6    0  503  0.11440052332E+02  0.14617440016E+02 -0.21338665905E+03  0.21419246161E+03  0.00000000000E+00 0. -1.
<mgrwt>
<rscale>  0 0.15480329E+04</rscale>
<asrwt>0</asrwt>
<pdfrwt beam="1">  1        2 0.61616856E-01 0.15480329E+04</pdfrwt>
<pdfrwt beam="2">  1       -3 0.23013047E+00 0.15480329E+04</pdfrwt>
<totfact> 0.45653607E+00</totfact>
</mgrwt>
</event>
<event>
12    6  0.1540825E-007  0.2586554E+04  0.7818608E-02  0.8372783E-01
         -1   -1    0    0    0  501 -0.00000000000E+00  0.00000000000E+00  0.59589845753E+03  0.59589845753E+03  0.00000000000E+00 0.  1.
          2   -1    0    0  501    0  0.00000000000E+00 -0.00000000000E+00 -0.28067967165E+04  0.28067967165E+04  0.00000000000E+00 0. -1.
         24    2    1    2    0    0 -0.31019025968E+03  0.86275520574E+03 -0.18534586092E+04  0.20693296073E+04  0.79067473871E+02 0.  0.
        254    2    1    2    0    0  0.31019025968E+03 -0.86275520574E+03 -0.35743964979E+03  0.13333655668E+04  0.89974223484E+03 0.  0.
         23    2    4    4    0    0  0.35255854452E+03 -0.10072922181E+04 -0.41088585453E+03  0.11472359665E+04  0.91586229756E+02 0.  0.
         23    2    4    4    0    0 -0.42368284833E+02  0.14453701233E+03  0.53446204737E+02  0.18612960026E+03  0.95402891996E+02 0.  0.
          4    1    3    3  502    0 -0.19119971118E+03  0.57725074537E+03 -0.13033371629E+04  0.14382153916E+04  0.00000000000E+00 0. -1.
         -3    1    3    3    0  502 -0.11899054851E+03  0.28550446037E+03 -0.55012144632E+03  0.63111421567E+03  0.00000000000E+00 0.  1.
         11    1    5    5    0    0  0.21917631733E+03 -0.50191984876E+03 -0.18854866486E+03  0.57923431500E+03  0.00000000000E+00 0. -1.
        -11    1    5    5    0    0  0.13338222719E+03 -0.50537236930E+03 -0.22233718967E+03  0.56800165149E+03  0.00000000000E+00 0.  1.
          1    1    6    6  503    0 -0.71166804347E+02  0.80561597348E+02  0.24601115116E+02  0.11027284286E+03  0.00000000000E+00 0. -1.
         -1    1    6    6    0  503  0.28798519514E+02  0.63975414980E+02  0.28845089621E+02  0.75856757401E+02  0.00000000000E+00 0.  1.
<mgrwt>
<rscale>  0 0.25865543E+04</rscale>
<asrwt>0</asrwt>
<pdfrwt beam="1">  1        2 0.43181487E+00 0.25865543E+04</pdfrwt>
<pdfrwt beam="2">  1       -1 0.91676688E-01 0.25865543E+04</pdfrwt>
<totfact> 0.26738732E+00</totfact>
</mgrwt>
</event>
<event>
12    6  0.1540825E-007  0.2049676E+04  0.7818608E-02  0.8583741E-01
          2   -1    0    0  501    0  0.00000000000E+00  0.00000000000E+00  0.25175447319E+04  0.25175447319E+04  0.00000000000E+00 0. -1.
         -1   -1    0    0    0  501 -0.00000000000E+00 -0.00000000000E+00 -0.41718944195E+03  0.41718944195E+03  0.00000000000E+00 0.  1.
         24    2    1    2    0    0 -0.61656567333E+03  0.54345016653E+03  0.99192122146E+03  0.12906873980E+04  0.80466991546E+02 0.  0.
        254    2    1    2    0    0  0.61656567333E+03 -0.54345016653E+03  0.11084340685E+04  0.16440467758E+04  0.89374068049E+03 0.  0.
         23    2    4    4    0    0 -0.42196899880E+02 -0.98695694555E+01  0.68184469367E+03  0.69061835190E+03  0.10081435878E+03 0.  0.
         23    2    4    4    0    0  0.65876257321E+03 -0.53358059708E+03  0.42658937480E+03  0.95342842393E+03  0.91492532165E+02 0.  0.
          4    1    3    3  502    0 -0.14093325404E+03  0.12864530304E+03  0.28572990047E+03  0.34358895808E+03  0.00000000000E+00 0. -1.
         -3    1    3    3    0  502 -0.47563241929E+03  0.41480486350E+03  0.70619132099E+03  0.94709843992E+03  0.00000000000E+00 0.  1.
         11    1    5    5    0    0  0.20400676635E+01 -0.13127763329E+02  0.84079799109E+01  0.15722409875E+02  0.00000000000E+00 0. -1.
        -11    1    5    5    0    0 -0.44236967543E+02  0.32581938737E+01  0.67343671376E+03  0.67489594203E+03  0.00000000000E+00 0.  1.
          4    1    6    6  503    0  0.64866005559E+03 -0.53689413373E+03  0.42173105672E+03  0.94173895680E+03  0.00000000000E+00 0.  1.
         -4    1    6    6    0  503  0.10102517618E+02  0.33135366538E+01  0.48583180761E+01  0.11689467135E+02  0.00000000000E+00 0. -1.
<mgrwt>
<rscale>  0 0.20496762E+04</rscale>
<asrwt>0</asrwt>
<pdfrwt beam="1">  1        2 0.38731457E+00 0.20496762E+04</pdfrwt>
<pdfrwt beam="2">  1       -1 0.64182992E-01 0.20496762E+04</pdfrwt>
<totfact> 0.88205390E+00</totfact>
</mgrwt>
</event>
<event>
12    6  0.1540825E-007  0.1892548E+04  0.7818608E-02  0.8658575E-01
          2   -1    0    0  501    0  0.00000000000E+00  0.00000000000E+00  0.39836075664E+03  0.39836075664E+03  0.00000000000E+00 0. -1.
         -1   -1    0    0    0  501 -0.00000000000E+00 -0.00000000000E+00 -0.22477981878E+04  0.22477981878E+04  0.00000000000E+00 0.  1.
         24    2    1    2    0    0  0.33230752495E+03 -0.45367282573E+03 -0.16887891744E+03  0.59261050711E+03  0.80123657126E+02 0.  0.
        254    2    1    2    0    0 -0.33230752495E+03  0.45367282573E+03 -0.16805585138E+04  0.20535484374E+04  0.10375629824E+04 0.  0.
         23    2    4    4    0    0 -0.16486724311E+03 -0.30815975722E+03 -0.32102169408E+03  0.48350716824E+03  0.92631581268E+02 0.  0.
         23    2    4    4    0    0 -0.16744028184E+03  0.76183258296E+03 -0.13595368197E+04  0.15700412691E+04  0.90907041900E+02 0.  0.
          2    1    3    3  502    0  0.30710407305E+03 -0.44281217940E+03 -0.15023831051E+03  0.55943461446E+03  0.00000000000E+00 0. -1.
         -1    1    3    3    0  502  0.25203451900E+02 -0.10860646337E+02 -0.18640606931E+02  0.33175892652E+02  0.00000000000E+00 0.  1.
         11    1    5    5    0    0 -0.46117639903E+02 -0.95272410215E+02 -0.44341059772E+02  0.11475974225E+03  0.00000000000E+00 0. -1.
        -11    1    5    5    0    0 -0.11874960321E+03 -0.21288734701E+03 -0.27668063431E+03  0.36874742600E+03  0.00000000000E+00 0.  1.
          4    1    6    6  503    0 -0.17626605277E+03  0.75001764814E+03 -0.13371839903E+04  0.15432618759E+04  0.00000000000E+00 0. -1.
         -4    1    6    6    0  503  0.88257709321E+01  0.11814934824E+02 -0.22352829434E+02  0.26779393218E+02  0.00000000000E+00 0.  1.
<mgrwt>
<rscale>  0 0.18925481E+04</rscale>
<asrwt>0</asrwt>
<pdfrwt beam="1">  1        2 0.61286270E-01 0.18925481E+04</pdfrwt>
<pdfrwt beam="2">  1       -1 0.34581511E+00 0.18925481E+04</pdfrwt>
<totfact> 0.14201849E+00</totfact>
</mgrwt>
</event>
<event>
12    6  0.1540825E-007  0.2407424E+04  0.7818608E-02  0.8436729E-01
          2   -1    0    0  501    0  0.00000000000E+00  0.00000000000E+00  0.10077686125E+04  0.10077686125E+04  0.00000000000E+00 0. -1.
         -1   -1    0    0    0  501 -0.00000000000E+00 -0.00000000000E+00 -0.14377528130E+04  0.14377528130E+04  0.00000000000E+00 0.  1.
         24    2    1    2    0    0  0.77709872567E+03 -0.49079156387E+03 -0.66519115563E+03  0.11374185058E+04  0.80515807341E+02 0.  0.
        254    2    1    2    0    0 -0.77709872567E+03  0.49079156387E+03  0.23520695514E+03  0.13081029196E+04  0.90058433695E+03 0.  0.
         23    2    4    4    0    0 -0.51903136341E+03 -0.17823866166E+03  0.17252114536E+03  0.58225659766E+03  0.89981238050E+02 0.  0.
         23    2    4    4    0    0 -0.25806736226E+03  0.66903022553E+03  0.62685809788E+02  0.72584632197E+03  0.93397891967E+02 0.  0.
          4    1    3    3  502    0  0.13858566812E+03 -0.52876045995E+02 -0.11102616173E+03  0.18527998337E+03  0.00000000000E+00 0. -1.
         -3    1    3    3    0  502  0.63851305755E+03 -0.43791551787E+03 -0.55416499390E+03  0.95213852244E+03  0.00000000000E+00 0.  1.
         11    1    5    5    0    0 -0.39341215263E+03 -0.16620179911E+03  0.15739552085E+03  0.45515877433E+03  0.00000000000E+00 0. -1.
        -11    1    5    5    0    0 -0.12561921078E+03 -0.12036862555E+02  0.15125624502E+02  0.12709782332E+03  0.00000000000E+00 0.  1.
          3    1    6    6  503    0 -0.13356279400E+03  0.32369733468E+03 -0.15531780263E+02  0.35051422313E+03  0.00000000000E+00 0. -1.
         -3    1    6    6    0  503 -0.12450456826E+03  0.34533289085E+03  0.78217590051E+02  0.37533209884E+03  0.00000000000E+00 0.  1.
<mgrwt>
<rscale>  0 0.24074236E+04</rscale>
<asrwt>0</asrwt>
<pdfrwt beam="1">  1        2 0.15504132E+00 0.24074236E+04</pdfrwt>
<pdfrwt beam="2">  1       -1 0.22119274E+00 0.24074236E+04</pdfrwt>
<totfact> 0.27566317E+00</totfact>
</mgrwt>
</event>
<event>
12    6  0.1540825E-007  0.2967792E+04  0.7818608E-02  0.8252988E-01
          2   -1    0    0  501    0  0.00000000000E+00  0.00000000000E+00  0.27325042378E+04  0.27325042378E+04  0.00000000000E+00 0. -1.
         -1   -1    0    0    0  501 -0.00000000000E+00 -0.00000000000E+00 -0.80583508763E+03  0.80583508763E+03  0.00000000000E+00 0.  1.
         24    2    1    2    0    0  0.23865053944E+03 -0.81354712057E+03  0.21368490226E+04  0.23002727041E+04  0.79484402375E+02 0.  0.
        254    2    1    2    0    0 -0.23865053944E+03  0.81354712057E+03 -0.21017987251E+03  0.12380666213E+04  0.87739408628E+03 0.  0.
         23    2    4    4    0    0  0.21130849706E+03  0.27302190492E+03  0.20992184688E+03  0.41390083183E+03  0.89746728612E+02 0.  0.
         23    2    4    4    0    0 -0.44995903650E+03  0.54052521565E+03 -0.42010171939E+03  0.82416578948E+03  0.90183982146E+02 0.  0.
          2    1    3    3  502    0  0.55490672339E+02 -0.12925473697E+03  0.42387918174E+03  0.44660895922E+03  0.00000000000E+00 0. -1.
         -1    1    3    3    0  502  0.18315986710E+03 -0.68429238360E+03  0.17129698409E+04  0.18536637449E+04  0.00000000000E+00 0.  1.
         11    1    5    5    0    0  0.16880746200E+03  0.14816015097E+03  0.13915552690E+03  0.26421894373E+03  0.00000000000E+00 0.  1.
        -11    1    5    5    0    0  0.42501035066E+02  0.12486175395E+03  0.70766319983E+02  0.14968188810E+03  0.00000000000E+00 0. -1.
          3    1    6    6  503    0  0.84574594720E+00  0.19570054575E+02 -0.65934476070E+01  0.20668233442E+02  0.00000000000E+00 0. -1.
         -3    1    6    6    0  503 -0.45080478245E+03  0.52095516107E+03 -0.41350827178E+03  0.80349755604E+03  0.00000000000E+00 0.  1.
<mgrwt>
<rscale>  0 0.29677923E+04</rscale>
<asrwt>0</asrwt>
<pdfrwt beam="1">  1        2 0.42038526E+00 0.29677923E+04</pdfrwt>
<pdfrwt beam="2">  1       -1 0.12397463E+00 0.29677923E+04</pdfrwt>
<totfact> 0.14142202E+00</totfact>
</mgrwt>
</event>
<event>
12    6  0.1540825E-007  0.3449575E+04  0.7818608E-02  0.8125845E-01
         -1   -1    0    0    0  501 -0.00000000000E+00  0.00000000000E+00  0.12581909728E+04  0.12581909728E+04  0.00000000000E+00 0.  1.
          2   -1    0    0  501    0  0.00000000000E+00 -0.00000000000E+00 -0.23644201787E+04  0.23644201787E+04  0.00000000000E+00 0. -1.
         24    2    1    2    0    0  0.11895674004E+04  0.90460778630E+03 -0.11715939499E+04  0.19006327775E+04  0.79916984178E+02 0.  0.
        254    2    1    2    0    0 -0.11895674004E+04 -0.90460778630E+03  0.65364743966E+02  0.17219783740E+04  0.85296607414E+03 0.  0.
         23    2    4    4    0    0 -0.10439386039E+04 -0.30147013771E+03  0.88688819058E+02  0.10940648936E+04  0.91761822810E+02 0.  0.
         23    2    4    4    0    0 -0.14562879647E+03 -0.60313764859E+03 -0.23324075093E+02  0.62791348038E+03  0.93533720437E+02 0.  0.
          2    1    3    3  502    0  0.10661905816E+04  0.79495251474E+03 -0.10687928079E+04  0.17061740601E+04  0.00000000000E+00 0. -1.
         -1    1    3    3    0  502  0.12337681876E+03  0.10965527156E+03 -0.10280114204E+03  0.19445871745E+03  0.00000000000E+00 0.  1.
         11    1    5    5    0    0 -0.41758702906E+02 -0.31174780985E+02 -0.17555380896E+01  0.52141520422E+02  0.00000000000E+00 0.  1.
        -11    1    5    5    0    0 -0.10021799010E+04 -0.27029535672E+03  0.90444357148E+02  0.10419233732E+04  0.00000000000E+00 0. -1.
          3    1    6    6  503    0 -0.12207604695E+03 -0.33851119691E+03  0.11089631707E+02  0.36002134881E+03  0.00000000000E+00 0. -1.
         -3    1    6    6    0  503 -0.23552749520E+02 -0.26462645169E+03 -0.34413706800E+02  0.26789213157E+03  0.00000000000E+00 0.  1.
<mgrwt>
<rscale>  0 0.34495751E+04</rscale>
<asrwt>0</asrwt>
<pdfrwt beam="1">  1        2 0.36375695E+00 0.34495751E+04</pdfrwt>
<pdfrwt beam="2">  1       -1 0.19356784E+00 0.34495751E+04</pdfrwt>
<totfact> 0.65178464E-01</totfact>
</mgrwt>
</event>
<event>
12    6  0.1540825E-007  0.1673456E+04  0.7818608E-02  0.8776650E-01
          2   -1    0    0  501    0  0.00000000000E+00  0.00000000000E+00  0.94311892836E+03  0.94311892836E+03  0.00000000000E+00 0. -1.
         -1   -1    0    0    0  501 -0.00000000000E+00 -0.00000000000E+00 -0.74233909015E+03  0.74233909015E+03  0.00000000000E+00 0.  1.
         24    2    1    2    0    0  0.53667318772E+03 -0.36038326131E+02 -0.17099203723E+03  0.56986531461E+03  0.78684996279E+02 0.  0.
        254    2    1    2    0    0 -0.53667318772E+03  0.36038326131E+02  0.37177187544E+03  0.11155927039E+04  0.90388930863E+03 0.  0.
         23    2    4    4    0    0 -0.43423475306E+02 -0.38324619179E+03  0.16996413702E+03  0.43128540361E+03  0.91411431267E+02 0.  0.
         23    2    4    4    0    0 -0.49324971241E+03  0.41928451792E+03  0.20180773842E+03  0.68430730029E+03  0.91952880212E+02 0.  0.
          4    1    3    3  502    0  0.27025771124E+03  0.27600917335E+01 -0.50691874573E+02  0.27498457182E+03  0.00000000000E+00 0. -1.
         -3    1    3    3    0  502  0.26641547647E+03 -0.38798417864E+02 -0.12030016266E+03  0.29488074279E+03  0.00000000000E+00 0.  1.
         11    1    5    5    0    0  0.22008263735E+02 -0.70685680301E+02  0.53640501770E+02  0.91422822656E+02  0.00000000000E+00 0. -1.
        -11    1    5    5    0    0 -0.65431739041E+02 -0.31256051149E+03  0.11632363525E+03  0.33986258095E+03  0.00000000000E+00 0.  1.
          3    1    6    6  503    0 -0.10589242630E+03  0.44742191045E+02  0.39962758541E+02  0.12170493694E+03  0.00000000000E+00 0. -1.
         -3    1    6    6    0  503 -0.38735728611E+03  0.37454232687E+03  0.16184497988E+03  0.56260236334E+03  0.00000000000E+00 0.  1.
<mgrwt>
<rscale>  0 0.16734564E+04</rscale>
<asrwt>0</asrwt>
<pdfrwt beam="1">  1        2 0.14509522E+00 0.16734564E+04</pdfrwt>
<pdfrwt beam="2">  1       -1 0.11420601E+00 0.16734564E+04</pdfrwt>
<totfact> 0.20838187E+01</totfact>
</mgrwt>
</event>
<event>
12    6  0.1540825E-007  0.1871238E+04  0.7818608E-02  0.8669307E-01
         -1   -1    0    0    0  501 -0.00000000000E+00  0.00000000000E+00  0.10101550581E+04  0.10101550581E+04  0.00000000000E+00 0.  1.
          2   -1    0    0  501    0  0.00000000000E+00 -0.00000000000E+00 -0.86658285544E+03  0.86658285544E+03  0.00000000000E+00 0. -1.
         24    2    1    2    0    0  0.56067867170E+03 -0.33148059656E+03 -0.26935078054E+03  0.70923306023E+03  0.78877956074E+02 0.  0.
        254    2    1    2    0    0 -0.56067867170E+03  0.33148059656E+03  0.41292298322E+03  0.11675048533E+04  0.87653992133E+03 0.  0.
         23    2    4    4    0    0 -0.74630525699E+03  0.23405836508E+03  0.12049525501E+03  0.79659919021E+03  0.91084073729E+02 0.  0.
         23    2    4    4    0    0  0.18562658530E+03  0.97422231479E+02  0.29242772821E+03  0.37090566312E+03  0.90048400065E+02 0.  0.
          2    1    3    3  502    0  0.42156888072E+03 -0.22408113385E+03 -0.16660533695E+03  0.50565800106E+03  0.00000000000E+00 0. -1.
         -1    1    3    3    0  502  0.13910979098E+03 -0.10739946271E+03 -0.10274544360E+03  0.20357505917E+03  0.00000000000E+00 0.  1.
         11    1    5    5    0    0 -0.10415509100E+03  0.16213681754E+02  0.43922016181E+02  0.11419417657E+03  0.00000000000E+00 0.  1.
        -11    1    5    5    0    0 -0.64215016599E+03  0.21784468332E+03  0.76573238830E+02  0.68240501364E+03  0.00000000000E+00 0. -1.
          2    1    6    6  503    0  0.14550126360E+03  0.11332480118E+03  0.24681978362E+03  0.30811220985E+03  0.00000000000E+00 0. -1.
         -2    1    6    6    0  503  0.40125321691E+02 -0.15902569700E+02  0.45607944585E+02  0.62793453266E+02  0.00000000000E+00 0.  1.
<mgrwt>
<rscale>  0 0.18712382E+04</rscale>
<asrwt>0</asrwt>
<pdfrwt beam="1">  1        2 0.13332044E+00 0.18712382E+04</pdfrwt>
<pdfrwt beam="2">  1       -1 0.15540847E+00 0.18712382E+04</pdfrwt>
<totfact> 0.10490501E+01</totfact>
</mgrwt>
</event>
<event>
12    6  0.1540825E-007  0.2825396E+04  0.7818608E-02  0.8295427E-01
         -1   -1    0    0    0  501 -0.00000000000E+00  0.00000000000E+00  0.12126536561E+04  0.12126536561E+04  0.00000000000E+00 0.  1.
          2   -1    0    0  501    0  0.00000000000E+00 -0.00000000000E+00 -0.16457426539E+04  0.16457426539E+04  0.00000000000E+00 0. -1.
         24    2    1    2    0    0 -0.40321758162E+03 -0.12026303572E+04 -0.11907880108E+03  0.12765382476E+04  0.80411084554E+02 0.  0.
        254    2    1    2    0    0  0.40321758162E+03  0.12026303572E+04 -0.31401019675E+03  0.15818580624E+04  0.89149780247E+03 0.  0.
         23    2    4    4    0    0  0.65685975637E+03  0.61770374732E+03 -0.18632063486E+03  0.92524581178E+03  0.91333314063E+02 0.  0.
         23    2    4    4    0    0 -0.25364217475E+03  0.58492660985E+03 -0.12768956189E+03  0.65661225061E+03  0.91441411427E+02 0.  0.
          2    1    3    3  502    0 -0.29581144555E+03 -0.88664677237E+03 -0.12319013236E+03  0.94277394904E+03  0.00000000000E+00 0. -1.
         -1    1    3    3    0  502 -0.10740613608E+03 -0.31598358479E+03  0.41113312711E+01  0.33376429852E+03  0.00000000000E+00 0.  1.
         11    1    5    5    0    0  0.12226844167E+03  0.95918115410E+02 -0.28136219824E+00  0.15540249630E+03  0.00000000000E+00 0.  1.
        -11    1    5    5    0    0  0.53459131471E+03  0.52178563191E+03 -0.18603927266E+03  0.76984331548E+03  0.00000000000E+00 0. -1.
          1    1    6    6  503    0 -0.18704851031E+03  0.34799149420E+03 -0.48347350333E+02  0.39802348113E+03  0.00000000000E+00 0. -1.
         -1    1    6    6    0  503 -0.66593664435E+02  0.23693511564E+03 -0.79342211554E+02  0.25858876948E+03  0.00000000000E+00 0.  1.
<mgrwt>
<rscale>  0 0.28253961E+04</rscale>
<asrwt>0</asrwt>
<pdfrwt beam="1">  1        2 0.25319118E+00 0.28253961E+04</pdfrwt>
<pdfrwt beam="2">  1       -1 0.18656210E+00 0.28253961E+04</pdfrwt>
<totfact> 0.19421085E+00</totfact>
</mgrwt>
</event>
<event>
12    6  0.1540825E-007  0.2695870E+04  0.7818608E-02  0.8336346E-01
          2   -1    0    0  501    0  0.00000000000E+00  0.00000000000E+00  0.12600541036E+04  0.12600541036E+04  0.00000000000E+00 0. -1.
         -1   -1    0    0    0  501 -0.00000000000E+00 -0.00000000000E+00 -0.14419451187E+04  0.14419451187E+04  0.00000000000E+00 0.  1.
         24    2    1    2    0    0 -0.81113664797E+03 -0.80476467152E+03 -0.43041476605E+03  0.12235577845E+04  0.79043930407E+02 0.  0.
        254    2    1    2    0    0  0.81113664797E+03  0.80476467152E+03  0.24852375093E+03  0.14784414378E+04  0.90467463321E+03 0.  0.
         23    2    4    4    0    0  0.60100571514E+03  0.39929121938E+03  0.55857853453E+03  0.91681337709E+03  0.88856297853E+02 0.  0.
         23    2    4    4    0    0  0.21013093283E+03  0.40547345214E+03 -0.31005478360E+03  0.56162806070E+03  0.10357789535E+03 0.  0.
          4    1    3    3  502    0 -0.73541920589E+03 -0.72688114237E+03 -0.36388508461E+03  0.10961797108E+04  0.00000000000E+00 0. -1.
         -3    1    3    3    0  502 -0.75717442081E+02 -0.77883529152E+02 -0.66529681447E+02  0.12737807371E+03  0.00000000000E+00 0.  1.
         11    1    5    5    0    0  0.57749943755E+03  0.38545137624E+03  0.51143921305E+03  0.86235052760E+03  0.00000000000E+00 0. -1.
        -11    1    5    5    0    0  0.23506277589E+02  0.13839843141E+02  0.47139321483E+02  0.54462849486E+02  0.00000000000E+00 0.  1.
          1    1    6    6  503    0  0.76790461760E+02  0.58711258159E+02 -0.68933179204E+02  0.11872476594E+03  0.00000000000E+00 0.  1.
         -1    1    6    6    0  503  0.13334047107E+03  0.34676219398E+03 -0.24112160440E+03  0.44290329476E+03  0.00000000000E+00 0. -1.
<mgrwt>
<rscale>  0 0.26958701E+04</rscale>
<asrwt>0</asrwt>
<pdfrwt beam="1">  1        2 0.19385448E+00 0.26958701E+04</pdfrwt>
<pdfrwt beam="2">  1       -1 0.22183771E+00 0.26958701E+04</pdfrwt>
<totfact> 0.18663022E+00</totfact>
</mgrwt>
</event>
<event>
12    6  0.1540825E-007  0.2035980E+04  0.7818608E-02  0.8589981E-01
         -1   -1    0    0    0  501 -0.00000000000E+00  0.00000000000E+00  0.24888415145E+03  0.24888415145E+03  0.00000000000E+00 0.  1.
          2   -1    0    0  501    0  0.00000000000E+00 -0.00000000000E+00 -0.41637996378E+04  0.41637996378E+04  0.00000000000E+00 0. -1.
         24    2    1    2    0    0  0.51992314687E+03 -0.53795282434E+03 -0.22989932111E+04  0.24190148224E+04  0.80929638826E+02 0.  0.
        254    2    1    2    0    0 -0.51992314687E+03  0.53795282434E+03 -0.16159222753E+04  0.19936689669E+04  0.89654772873E+03 0.  0.
         23    2    4    4    0    0  0.19756117907E+01  0.41919151101E+03 -0.12917104578E+04  0.13610867158E+04  0.91190542890E+02 0.  0.
         23    2    4    4    0    0 -0.52189875866E+03  0.11876131333E+03 -0.32421181749E+03  0.63258225111E+03  0.92544248825E+02 0.  0.
          2    1    3    3  502    0  0.48814556711E+03 -0.49112404448E+03 -0.21783011778E+04  0.22857132242E+04  0.00000000000E+00 0. -1.
         -1    1    3    3    0  502  0.31777579760E+02 -0.46828779862E+02 -0.12069203324E+03  0.13330159821E+03  0.00000000000E+00 0.  1.
         11    1    5    5    0    0 -0.18247753316E+02  0.40271618471E+02 -0.80698271478E+02  0.92016274511E+02  0.00000000000E+00 0. -1.
        -11    1    5    5    0    0  0.20223365107E+02  0.37891989254E+03 -0.12110121863E+04  0.12690704413E+04  0.00000000000E+00 0.  1.
          1    1    6    6  503    0 -0.27252084277E+02  0.29921597788E+02 -0.28133950942E+02  0.49289931094E+02  0.00000000000E+00 0. -1.
         -1    1    6    6    0  503 -0.49464667438E+03  0.88839715542E+02 -0.29607786655E+03  0.58329232002E+03  0.00000000000E+00 0.  1.
<mgrwt>
<rscale>  0 0.20359801E+04</rscale>
<asrwt>0</asrwt>
<pdfrwt beam="1">  1        2 0.64058449E+00 0.20359801E+04</pdfrwt>
<pdfrwt beam="2">  1       -1 0.38289873E-01 0.20359801E+04</pdfrwt>
<totfact> 0.17583324E+00</totfact>
</mgrwt>
</event>
<event>
12    6  0.1696828E-007  0.1924450E+04  0.7818608E-02  0.8642781E-01
         -1   -1    0    0    0  501 -0.00000000000E+00  0.00000000000E+00  0.86790251858E+03  0.86790251858E+03  0.00000000000E+00 0.  1.
          2   -1    0    0  501    0  0.00000000000E+00 -0.00000000000E+00 -0.10667978532E+04  0.10667978532E+04  0.00000000000E+00 0. -1.
         24    2    1    2    0    0 -0.69535448908E+01 -0.12410736374E+03 -0.82134951858E+03  0.83459672120E+03  0.80533631765E+02 0.  0.
        254    2    1    2    0    0  0.69535448908E+01  0.12410736374E+03  0.62245418391E+03  0.11001036506E+04  0.89851424114E+03 0.  0.
         23    2    4    4    0    0 -0.99166902387E+02 -0.16961912519E+03  0.72663742305E+03  0.75838240519E+03  0.92397000882E+02 0.  0.
         23    2    4    4    0    0  0.10612044728E+03  0.29372648893E+03 -0.10418323914E+03  0.34172124544E+03  0.91555789730E+02 0.  0.
          2    1    3    3  502    0 -0.97441448685E+01 -0.12753371150E+03 -0.61307360962E+03  0.62627393905E+03  0.00000000000E+00 0. -1.
         -3    1    3    3    0  502  0.27905999777E+01  0.34263477584E+01 -0.20827590896E+03  0.20832278214E+03  0.00000000000E+00 0.  1.
         11    1    5    5    0    0  0.35076160926E+01  0.49550531791E+01  0.26920299262E+01  0.66410050282E+01  0.00000000000E+00 0.  1.
        -11    1    5    5    0    0 -0.10267451848E+03 -0.17457417837E+03  0.72394539312E+03  0.75174140017E+03  0.00000000000E+00 0. -1.
          3    1    6    6  503    0  0.11909218013E+03  0.25356385184E+03 -0.10588474071E+03  0.29948147296E+03  0.00000000000E+00 0. -1.
         -3    1    6    6    0  503 -0.12971732855E+02  0.40162637090E+02  0.17015015719E+01  0.42239772476E+02  0.00000000000E+00 0.  1.
<mgrwt>
<rscale>  0 0.19244496E+04</rscale>
<asrwt>0</asrwt>
<pdfrwt beam="1">  1        2 0.16412275E+00 0.19244496E+04</pdfrwt>
<pdfrwt beam="2">  1       -1 0.13352347E+00 0.19244496E+04</pdfrwt>
<totfact> 0.11541928E+01</totfact>
</mgrwt>
</event>
<event>
12    6  0.1540825E-007  0.1714301E+04  0.7818608E-02  0.8753250E-01
          2   -1    0    0  501    0  0.00000000000E+00  0.00000000000E+00  0.24226992781E+04  0.24226992781E+04  0.00000000000E+00 0. -1.
         -1   -1    0    0    0  501 -0.00000000000E+00 -0.00000000000E+00 -0.30325979399E+03  0.30325979399E+03  0.00000000000E+00 0.  1.
         24    2    1    2    0    0  0.56524422252E+02 -0.11280917976E+03  0.17139763662E+04  0.17218663382E+04  0.10577231030E+03 0.  0.
        254    2    1    2    0    0 -0.56524422252E+02  0.11280917976E+03  0.40546311790E+03  0.10040927338E+04  0.90987963861E+03 0.  0.
         23    2    4    4    0    0 -0.13657252302E+03  0.24330514392E+03 -0.21321362763E+03  0.36004432213E+03  0.79513620151E+02 0.  0.
         23    2    4    4    0    0  0.80048100768E+02 -0.13049596416E+03  0.61867674552E+03  0.64404841168E+03  0.92739128922E+02 0.  0.
          4    1    3    3  502    0  0.16172445787E+02 -0.73064093907E+02  0.14477047048E+04  0.14496374796E+04  0.00000000000E+00 0. -1.
         -3    1    3    3    0  502  0.40351976466E+02 -0.39745085850E+02  0.26627166136E+03  0.27222885868E+03  0.00000000000E+00 0.  1.
         11    1    5    5    0    0 -0.13674242853E+03  0.23418528997E+03 -0.21956705890E+03  0.34892826649E+03  0.00000000000E+00 0.  1.
        -11    1    5    5    0    0  0.16990551303E+00  0.91198539473E+01  0.63534312790E+01  0.11116055637E+02  0.00000000000E+00 0. -1.
          3    1    6    6  503    0  0.10122254619E+02  0.10110353054E+02  0.17010800139E+02  0.22227159036E+02  0.00000000000E+00 0. -1.
         -3    1    6    6    0  503  0.69925846149E+02 -0.14060631721E+03  0.60166594538E+03  0.62182125264E+03  0.00000000000E+00 0.  1.
<mgrwt>
<rscale>  0 0.17143014E+04</rscale>
<asrwt>0</asrwt>
<pdfrwt beam="1">  1        2 0.37272295E+00 0.17143014E+04</pdfrwt>
<pdfrwt beam="2">  1       -1 0.46655355E-01 0.17143014E+04</pdfrwt>
<totfact> 0.19133076E+01</totfact>
</mgrwt>
</event>
<event>
12    6  0.1540825E-007  0.3033278E+04  0.7818608E-02  0.8234291E-01
          2   -1    0    0  501    0  0.00000000000E+00  0.00000000000E+00  0.22812714726E+04  0.22812714726E+04  0.00000000000E+00 0. -1.
         -1   -1    0    0    0  501 -0.00000000000E+00 -0.00000000000E+00 -0.10082948004E+04  0.10082948004E+04  0.00000000000E+00 0.  1.
         24    2    1    2    0    0  0.13076478984E+04  0.14205843584E+03  0.12097560006E+03  0.13233352079E+04  0.80357646241E+02 0.  0.
        254    2    1    2    0    0 -0.13076478984E+04 -0.14205843584E+03  0.11520010721E+04  0.19662310651E+04  0.89935227002E+03 0.  0.
         23    2    4    4    0    0 -0.62713270697E+03 -0.30687484043E+03  0.11812783045E+03  0.71424935627E+03  0.93436388834E+02 0.  0.
         23    2    4    4    0    0 -0.68051519145E+03  0.16481640458E+03  0.10338732417E+04  0.12519817088E+04  0.91098552544E+02 0.  0.
          4    1    3    3  502    0  0.57447660604E+03  0.59326645803E+02  0.93073615449E+02  0.58498352087E+03  0.00000000000E+00 0. -1.
         -3    1    3    3    0  502  0.73317129238E+03  0.82731790039E+02  0.27901984615E+02  0.73835168707E+03  0.00000000000E+00 0.  1.
         11    1    5    5    0    0 -0.26033932036E+03 -0.95838590451E+02  0.10558450450E+02  0.27762038473E+03  0.00000000000E+00 0.  1.
        -11    1    5    5    0    0 -0.36679338662E+03 -0.21103624997E+03  0.10756938000E+03  0.43662897153E+03  0.00000000000E+00 0. -1.
          3    1    6    6  503    0 -0.76045413226E+02  0.49419075612E+02  0.13525094466E+03  0.16284338469E+03  0.00000000000E+00 0. -1.
         -3    1    6    6    0  503 -0.60446977823E+03  0.11539732897E+03  0.89862229704E+03  0.10891383241E+04  0.00000000000E+00 0.  1.
<mgrwt>
<rscale>  0 0.30332782E+04</rscale>
<asrwt>0</asrwt>
<pdfrwt beam="1">  1        2 0.35096484E+00 0.30332782E+04</pdfrwt>
<pdfrwt beam="2">  1       -1 0.15512228E+00 0.30332782E+04</pdfrwt>
<totfact> 0.14357614E+00</totfact>
</mgrwt>
</event>
<event>
12    6  0.1540825E-007  0.1622789E+04  0.7818608E-02  0.8806669E-01
         -1   -1    0    0    0  501 -0.00000000000E+00  0.00000000000E+00  0.26513195318E+03  0.26513195318E+03  0.00000000000E+00 0.  1.
          2   -1    0    0  501    0  0.00000000000E+00 -0.00000000000E+00 -0.24831459355E+04  0.24831459355E+04  0.00000000000E+00 0. -1.
         24    2    1    2    0    0 -0.40114458059E+03  0.85627677794E+01 -0.12353161712E+03  0.42783743976E+03  0.82428871793E+02 0.  0.
        254    2    1    2    0    0  0.40114458059E+03 -0.85627677794E+01 -0.20944823652E+04  0.23204404489E+04  0.91465687736E+03 0.  0.
         23    2    4    4    0    0  0.33247963969E+03  0.46070209589E+02 -0.16203637414E+03  0.38356781783E+03  0.90572122147E+02 0.  0.
         23    2    4    4    0    0  0.68664940903E+02 -0.54632977369E+02 -0.19324459910E+04  0.19368726311E+04  0.97100177011E+02 0.  0.
          4    1    3    3  502    0 -0.12494760316E+03  0.29333008082E+02 -0.10800607871E+02  0.12879822215E+03  0.00000000000E+00 0. -1.
         -3    1    3    3    0  502 -0.27619697743E+03 -0.20770240303E+02 -0.11273100925E+03  0.29903921762E+03  0.00000000000E+00 0.  1.
         11    1    5    5    0    0  0.23969880751E+03  0.34519169704E+02 -0.15961102498E+03  0.29003925716E+03  0.00000000000E+00 0. -1.
        -11    1    5    5    0    0  0.92780832181E+02  0.11551039885E+02 -0.24253491612E+01  0.93528560671E+02  0.00000000000E+00 0.  1.
          4    1    6    6  503    0 -0.22295946651E+02 -0.16963309521E+02 -0.67372044949E+03  0.67430268216E+03  0.00000000000E+00 0. -1.
         -4    1    6    6    0  503  0.90960887554E+02 -0.37669667847E+02 -0.12587255416E+04  0.12625699489E+04  0.00000000000E+00 0.  1.
<mgrwt>
<rscale>  0 0.16227894E+04</rscale>
<asrwt>0</asrwt>
<pdfrwt beam="1">  1        2 0.38202243E+00 0.16227894E+04</pdfrwt>
<pdfrwt beam="2">  1       -1 0.40789534E-01 0.16227894E+04</pdfrwt>
<totfact> 0.22850303E+01</totfact>
</mgrwt>
</event>
<event>
12    6  0.1540825E-007  0.1327746E+04  0.7818608E-02  0.9007847E-01
         -1   -1    0    0    0  501 -0.00000000000E+00  0.00000000000E+00  0.33650053656E+03  0.33650053656E+03  0.00000000000E+00 0.  1.
          2   -1    0    0  501    0  0.00000000000E+00 -0.00000000000E+00 -0.13097383447E+04  0.13097383447E+04  0.00000000000E+00 0. -1.
         24    2    1    2    0    0  0.20330173393E+03 -0.21065603571E+02  0.95283370026E+02  0.23917851510E+03  0.79699979975E+02 0.  0.
        254    2    1    2    0    0 -0.20330173393E+03  0.21065603571E+02 -0.10685211782E+04  0.14070603662E+04  0.89235979918E+03 0.  0.
         23    2    4    4    0    0 -0.10067804122E+03 -0.29979805251E+03 -0.99897452603E+03  0.10515828021E+04  0.88664230506E+02 0.  0.
         23    2    4    4    0    0 -0.10262369271E+03  0.32086365608E+03 -0.69546652158E+02  0.35547756407E+03  0.89679728124E+02 0.  0.
          2    1    3    3  502    0  0.63608755686E+02  0.28037442157E+02  0.16470122894E+02  0.71438343421E+02  0.00000000000E+00 0. -1.
         -3    1    3    3    0  502  0.13969297824E+03 -0.49103045728E+02  0.78813247132E+02  0.16774017167E+03  0.00000000000E+00 0.  1.
         11    1    5    5    0    0 -0.98130857741E+02 -0.29753262942E+03 -0.90774671990E+03  0.96029132991E+03  0.00000000000E+00 0. -1.
        -11    1    5    5    0    0 -0.25471834791E+01 -0.22654230829E+01 -0.91227806133E+02  0.91291472204E+02  0.00000000000E+00 0.  1.
          1    1    6    6  503    0 -0.20546945811E+02  0.90972236672E+02 -0.60574812645E+02  0.11120895987E+03  0.00000000000E+00 0. -1.
         -1    1    6    6    0  503 -0.82076746895E+02  0.22989141941E+03 -0.89718395127E+01  0.24426860421E+03  0.00000000000E+00 0.  1.
<mgrwt>
<rscale>  0 0.13277464E+04</rscale>
<asrwt>0</asrwt>
<pdfrwt beam="1">  1        2 0.20149821E+00 0.13277464E+04</pdfrwt>
<pdfrwt beam="2">  1       -1 0.51769313E-01 0.13277464E+04</pdfrwt>
<totfact> 0.68318037E+01</totfact>
</mgrwt>
</event>
<event>
12    6  0.1540825E-007  0.1353694E+04  0.7818608E-02  0.8988036E-01
         -1   -1    0    0    0  501 -0.00000000000E+00  0.00000000000E+00  0.20362527307E+03  0.20362527307E+03  0.00000000000E+00 0.  1.
          2   -1    0    0  501    0  0.00000000000E+00 -0.00000000000E+00 -0.22498294639E+04  0.22498294639E+04  0.00000000000E+00 0. -1.
         24    2    1    2    0    0  0.11965216885E+03  0.22750265658E+03 -0.10639508174E+04  0.10974548373E+04  0.79634651145E+02 0.  0.
        254    2    1    2    0    0 -0.11965216885E+03 -0.22750265658E+03 -0.98225337342E+03  0.13559998997E+04  0.89879916455E+03 0.  0.
         23    2    4    4    0    0 -0.42161352056E+03 -0.12884101687E+03 -0.17390762506E+03  0.48275631362E+03  0.91933823707E+02 0.  0.
         23    2    4    4    0    0  0.30196135171E+03 -0.98661639718E+02 -0.80834574836E+03  0.87324358610E+03  0.90646206202E+02 0.  0.
          4    1    3    3  502    0  0.32351905649E+02  0.14632975589E+03 -0.60085938191E+03  0.61926653396E+03  0.00000000000E+00 0. -1.
         -3    1    3    3    0  502  0.87300263202E+02  0.81172900690E+02 -0.46309143554E+03  0.47818830332E+03  0.00000000000E+00 0.  1.
         11    1    5    5    0    0 -0.37423427826E+03 -0.94699984771E+02 -0.12262983420E+03  0.40504007009E+03  0.00000000000E+00 0. -1.
        -11    1    5    5    0    0 -0.47379242296E+02 -0.34141032094E+02 -0.51277790859E+02  0.77716243530E+02  0.00000000000E+00 0.  1.
          1    1    6    6  503    0  0.16231051930E+03 -0.91504290833E+02 -0.39170802864E+03  0.43376597333E+03  0.00000000000E+00 0. -1.
         -1    1    6    6    0  503  0.13965083241E+03 -0.71573488851E+01 -0.41663771972E+03  0.43947761277E+03  0.00000000000E+00 0.  1.
<mgrwt>
<rscale>  0 0.13536944E+04</rscale>
<asrwt>0</asrwt>
<pdfrwt beam="1">  1        2 0.34612763E+00 0.13536944E+04</pdfrwt>
<pdfrwt beam="2">  1       -1 0.31326964E-01 0.13536944E+04</pdfrwt>
<totfact> 0.51005690E+01</totfact>
</mgrwt>
</event>
<event>
12    6  0.1540825E-007  0.3958942E+04  0.7818608E-02  0.8012881E-01
          2   -1    0    0  501    0  0.00000000000E+00  0.00000000000E+00  0.26591759572E+04  0.26591759572E+04  0.00000000000E+00 0. -1.
         -1   -1    0    0    0  501 -0.00000000000E+00 -0.00000000000E+00 -0.14735036644E+04  0.14735036644E+04  0.00000000000E+00 0.  1.
         24    2    1    2    0    0  0.50161001988E+03  0.17164694406E+04  0.11309764134E+04  0.21173727644E+04  0.79245335662E+02 0.  0.
        254    2    1    2    0    0 -0.50161001988E+03 -0.17164694406E+04  0.54695879322E+02  0.20153068572E+04  0.92767997533E+03 0.  0.
         23    2    4    4    0    0 -0.16512424331E+03 -0.80631201674E+02 -0.24118670663E+03  0.31685531572E+03  0.91972045936E+02 0.  0.
         23    2    4    4    0    0 -0.33648577657E+03 -0.16358382390E+04  0.29588258595E+03  0.16984515415E+04  0.89452289469E+02 0.  0.
          4    1    3    3  502    0  0.48358954725E+03  0.16732471363E+04  0.11142441858E+04  0.20676447797E+04  0.00000000000E+00 0. -1.
         -3    1    3    3    0  502  0.18020472627E+02  0.43222304383E+02  0.16732227536E+02  0.49727984759E+02  0.00000000000E+00 0.  1.
         11    1    5    5    0    0 -0.32871212684E+02 -0.31940952315E+02 -0.11296642136E+02  0.47205457117E+02  0.00000000000E+00 0. -1.
        -11    1    5    5    0    0 -0.13225303062E+03 -0.48690249359E+02 -0.22989006449E+03  0.26964985860E+03  0.00000000000E+00 0.  1.
          3    1    6    6  503    0 -0.43081027444E+02 -0.27994334924E+03  0.19485900867E+02  0.28390835500E+03  0.00000000000E+00 0. -1.
         -3    1    6    6    0  503 -0.29340474913E+03 -0.13558948897E+04  0.27639668508E+03  0.14145431865E+04  0.00000000000E+00 0.  1.
<mgrwt>
<rscale>  0 0.39589420E+04</rscale>
<asrwt>0</asrwt>
<pdfrwt beam="1">  1        2 0.40910399E+00 0.39589420E+04</pdfrwt>
<pdfrwt beam="2">  1       -1 0.22669287E+00 0.39589420E+04</pdfrwt>
<totfact> 0.25072079E-01</totfact>
</mgrwt>
</event>
<event>
12    6  0.1540825E-007  0.1672726E+04  0.7818608E-02  0.8777074E-01
         -1   -1    0    0    0  501 -0.00000000000E+00  0.00000000000E+00  0.25880714417E+03  0.25880714417E+03  0.00000000000E+00 0.  1.
          2   -1    0    0  501    0  0.00000000000E+00 -0.00000000000E+00 -0.27027962849E+04  0.27027962849E+04  0.00000000000E+00 0. -1.
         24    2    1    2    0    0  0.14254124948E+03 -0.48280198456E+03 -0.32841021766E+03  0.60652065159E+03  0.81229709084E+02 0.  0.
        254    2    1    2    0    0 -0.14254124948E+03  0.48280198456E+03 -0.21155789231E+04  0.23550827775E+04  0.90406025512E+03 0.  0.
         23    2    4    4    0    0 -0.33081974313E+02  0.73151032446E+03 -0.13712151543E+04  0.15573730345E+04  0.94752295427E+02 0.  0.
         23    2    4    4    0    0 -0.10945927517E+03 -0.24870833989E+03 -0.74436376874E+03  0.79770974292E+03  0.91794566679E+02 0.  0.
          4    1    3    3  502    0  0.44234559606E+02 -0.11980328110E+03 -0.12613882997E+03  0.17950077117E+03  0.00000000000E+00 0. -1.
         -3    1    3    3    0  502  0.98306689875E+02 -0.36299870347E+03 -0.20227138769E+03  0.42701988042E+03  0.00000000000E+00 0.  1.
         11    1    5    5    0    0  0.26202953680E+02  0.86975410637E+02 -0.15528107277E+03  0.17989866147E+03  0.00000000000E+00 0.  1.
        -11    1    5    5    0    0 -0.59284927993E+02  0.64453491382E+03 -0.12159340815E+04  0.13774743731E+04  0.00000000000E+00 0. -1.
          3    1    6    6  503    0 -0.12413174265E+03 -0.23836892482E+03 -0.70293629584E+03  0.75256087452E+03  0.00000000000E+00 0. -1.
         -3    1    6    6    0  503  0.14672467480E+02 -0.10339415071E+02 -0.41427472905E+02  0.45148868394E+02  0.00000000000E+00 0.  1.
<mgrwt>
<rscale>  0 0.16727259E+04</rscale>
<asrwt>0</asrwt>
<pdfrwt beam="1">  1        2 0.41581480E+00 0.16727259E+04</pdfrwt>
<pdfrwt beam="2">  1       -1 0.39816485E-01 0.16727259E+04</pdfrwt>
<totfact> 0.17694870E+01</totfact>
</mgrwt>
</event>
<event>
12    6  0.1540825E-007  0.2645056E+04  0.7818608E-02  0.8353056E-01
         -1   -1    0    0    0  501 -0.00000000000E+00  0.00000000000E+00  0.69381633877E+03  0.69381633877E+03  0.00000000000E+00 0.  1.
          2   -1    0    0  501    0  0.00000000000E+00 -0.00000000000E+00 -0.25209548619E+04  0.25209548619E+04  0.00000000000E+00 0. -1.
         24    2    1    2    0    0  0.11127806210E+04  0.15583865205E+03 -0.12039349400E+04  0.16487803422E+04  0.80317378813E+02 0.  0.
        254    2    1    2    0    0 -0.11127806210E+04 -0.15583865205E+03 -0.62320358315E+03  0.15659908585E+04  0.89519733405E+03 0.  0.
         23    2    4    4    0    0 -0.37823936695E+03  0.72861528988E+02 -0.68292594269E+03  0.78917859438E+03  0.89672679898E+02 0.  0.
         23    2    4    4    0    0 -0.73454125401E+03 -0.22870018103E+03  0.59722359535E+02  0.77681226408E+03  0.89531596383E+02 0.  0.
          4    1    3    3  502    0  0.21123236564E+03  0.51500312056E+02 -0.26752151295E+03  0.34473055323E+03  0.00000000000E+00 0. -1.
         -3    1    3    3    0  502  0.90154825531E+03  0.10433833999E+03 -0.93641342702E+03  0.13040497890E+04  0.00000000000E+00 0.  1.
         11    1    5    5    0    0 -0.63824572431E+02  0.48265546197E+02 -0.13123792786E+03  0.15370924730E+03  0.00000000000E+00 0. -1.
        -11    1    5    5    0    0 -0.31441479452E+03  0.24595982791E+02 -0.55168801482E+03  0.63546934708E+03  0.00000000000E+00 0.  1.
          3    1    6    6  503    0 -0.17995111569E+03 -0.95663568788E+02  0.26605218831E+02  0.20552800321E+03  0.00000000000E+00 0. -1.
         -3    1    6    6    0  503 -0.55459013831E+03 -0.13303661224E+03  0.33117140704E+02  0.57128426087E+03  0.00000000000E+00 0.  1.
<mgrwt>
<rscale>  0 0.26450555E+04</rscale>
<asrwt>0</asrwt>
<pdfrwt beam="1">  1        2 0.38783922E+00 0.26450555E+04</pdfrwt>
<pdfrwt beam="2">  1       -1 0.10674097E+00 0.26450555E+04</pdfrwt>
<totfact> 0.27781163E+00</totfact>
</mgrwt>
</event>
<event>
12    6  0.1540825E-007  0.1223886E+04  0.7818608E-02  0.9092202E-01
          2   -1    0    0  501    0  0.00000000000E+00  0.00000000000E+00  0.59579063227E+03  0.59579063227E+03  0.00000000000E+00 0. -1.
         -1   -1    0    0    0  501 -0.00000000000E+00 -0.00000000000E+00 -0.62853315288E+03  0.62853315288E+03  0.00000000000E+00 0.  1.
         24    2    1    2    0    0  0.53225798707E+02  0.62717956756E+02 -0.26655522090E+03  0.29185640747E+03  0.85801800961E+02 0.  0.
        254    2    1    2    0    0 -0.53225798707E+02 -0.62717956756E+02  0.23381270028E+03  0.93246737768E+03  0.89892185637E+03 0.  0.
         23    2    4    4    0    0 -0.38713284882E+03  0.15734385230E+03  0.29099251339E+03  0.51714842452E+03  0.90204875937E+02 0.  0.
         23    2    4    4    0    0  0.33390705011E+03 -0.22006180906E+03 -0.57179813113E+02  0.41531895315E+03  0.96432276217E+02 0.  0.
          2    1    3    3  502    0  0.49153062161E+02  0.11778523122E+00 -0.70005789327E+02  0.85538575698E+02  0.00000000000E+00 0. -1.
         -1    1    3    3    0  502  0.40727365460E+01  0.62600171525E+02 -0.19654943157E+03  0.20631783177E+03  0.00000000000E+00 0.  1.
         11    1    5    5    0    0 -0.27582393687E+03  0.15379341279E+03  0.20592017306E+03  0.37700712943E+03  0.00000000000E+00 0. -1.
        -11    1    5    5    0    0 -0.11130891195E+03  0.35504395107E+01  0.85072340337E+02  0.14014129509E+03  0.00000000000E+00 0.  1.
          1    1    6    6  503    0  0.14927704707E+03 -0.13259621531E+03  0.10937144987E+02  0.19996253208E+03  0.00000000000E+00 0. -1.
         -1    1    6    6    0  503  0.18463000305E+03 -0.87465593748E+02 -0.68116958101E+02  0.21535642107E+03  0.00000000000E+00 0.  1.
<mgrwt>
<rscale>  0 0.12238859E+04</rscale>
<asrwt>0</asrwt>
<pdfrwt beam="1">  1        2 0.91660097E-01 0.12238859E+04</pdfrwt>
<pdfrwt beam="2">  1       -1 0.96697408E-01 0.12238859E+04</pdfrwt>
<totfact> 0.57977145E+01</totfact>
</mgrwt>
</event>
<event>
12    6  0.1540825E-007  0.1425744E+04  0.7818608E-02  0.8935391E-01
          2   -1    0    0  501    0  0.00000000000E+00  0.00000000000E+00  0.72530335630E+03  0.72530335630E+03  0.00000000000E+00 0. -1.
         -1   -1    0    0    0  501 -0.00000000000E+00 -0.00000000000E+00 -0.70065419686E+03  0.70065419686E+03  0.00000000000E+00 0.  1.
         24    2    1    2    0    0  0.12744379889E+03  0.40358611102E+03  0.36389030823E+02  0.43212882823E+03  0.79293705530E+02 0.  0.
        254    2    1    2    0    0 -0.12744379889E+03 -0.40358611102E+03 -0.11739871379E+02  0.99382872493E+03  0.89912960080E+03 0.  0.
         23    2    4    4    0    0 -0.11889949052E+03  0.20243600215E+03 -0.23176645205E+03  0.34229308692E+03  0.91276750868E+02 0.  0.
         23    2    4    4    0    0 -0.85443083668E+01 -0.60602211317E+03  0.22002658067E+03  0.65153563801E+03  0.93547766056E+02 0.  0.
          4    1    3    3  502    0  0.90386010219E+02  0.29525881922E+03  0.61666276024E+02  0.31488113752E+03  0.00000000000E+00 0. -1.
         -3    1    3    3    0  502  0.37057788673E+02  0.10832729180E+03 -0.25277245201E+02  0.11724769071E+03  0.00000000000E+00 0.  1.
         11    1    5    5    0    0 -0.53971768506E+02  0.11616977710E+03 -0.65043877988E+02  0.14366306057E+03  0.00000000000E+00 0.  1.
        -11    1    5    5    0    0 -0.64927722019E+02  0.86266225047E+02 -0.16672257406E+03  0.19863002636E+03  0.00000000000E+00 0. -1.
          1    1    6    6  503    0  0.23822867297E+01 -0.58117322600E+03  0.22628753320E+03  0.62367783478E+03  0.00000000000E+00 0. -1.
         -1    1    6    6    0  503 -0.10926595097E+02 -0.24848887167E+02 -0.62609525366E+01  0.27857803225E+02  0.00000000000E+00 0.  1.
<mgrwt>
<rscale>  0 0.14257445E+04</rscale>
<asrwt>0</asrwt>
<pdfrwt beam="1">  1        2 0.11158513E+00 0.14257445E+04</pdfrwt>
<pdfrwt beam="2">  1       -1 0.10779295E+00 0.14257445E+04</pdfrwt>
<totfact> 0.34796293E+01</totfact>
</mgrwt>
</event>
<event>
12    6  0.1540825E-007  0.1319606E+04  0.7818608E-02  0.9014160E-01
         -3   -1    0    0    0  501 -0.00000000000E+00  0.00000000000E+00  0.75662619676E+03  0.75662619676E+03  0.00000000000E+00 0.  1.
          4   -1    0    0  501    0  0.00000000000E+00 -0.00000000000E+00 -0.57537027259E+03  0.57537027259E+03  0.00000000000E+00 0. -1.
         24    2    1    2    0    0 -0.12987911652E+03  0.16929243002E+03 -0.23071774257E+03  0.32460396657E+03  0.81292967758E+02 0.  0.
        254    2    1    2    0    0  0.12987911652E+03 -0.16929243002E+03  0.41197366673E+03  0.10073925028E+04  0.89419731649E+03 0.  0.
         23    2    4    4    0    0  0.39112422173E+03  0.20700799924E+03  0.22725577322E+03  0.50574345957E+03  0.91108681580E+02 0.  0.
         23    2    4    4    0    0 -0.26124510521E+03 -0.37630042926E+03  0.18471789351E+03  0.50164904321E+03  0.87635862045E+02 0.  0.
          4    1    3    3  502    0 -0.11489006169E+03  0.10977434682E+03 -0.20153001120E+03  0.25664075848E+03  0.00000000000E+00 0. -1.
         -1    1    3    3    0  502 -0.14989054835E+02  0.59518083197E+02 -0.29187731362E+02  0.67963208093E+02  0.00000000000E+00 0.  1.
         11    1    5    5    0    0  0.70395809847E+02  0.16502939954E+02  0.72673501385E+01  0.72668641443E+02  0.00000000000E+00 0. -1.
        -11    1    5    5    0    0  0.32072841189E+03  0.19050505929E+03  0.21998842309E+03  0.43307481813E+03  0.00000000000E+00 0.  1.
          2    1    6    6  503    0 -0.11829795969E+03 -0.24385698738E+03  0.11881028857E+03  0.29593330706E+03  0.00000000000E+00 0.  1.
         -2    1    6    6    0  503 -0.14294714553E+03 -0.13244344188E+03  0.65907604941E+02  0.20571573615E+03  0.00000000000E+00 0. -1.
<mgrwt>
<rscale>  0 0.13196063E+04</rscale>
<asrwt>0</asrwt>
<pdfrwt beam="1">  1        4 0.88518503E-01 0.13196063E+04</pdfrwt>
<pdfrwt beam="2">  1       -3 0.11640403E+00 0.13196063E+04</pdfrwt>
<totfact> 0.14990925E+00</totfact>
</mgrwt>
</event>
<event>
12    6  0.1540825E-007  0.2398226E+04  0.7818608E-02  0.8440168E-01
          2   -1    0    0  501    0  0.00000000000E+00  0.00000000000E+00  0.46272516706E+04  0.46272516706E+04  0.00000000000E+00 0. -1.
         -1   -1    0    0    0  501 -0.00000000000E+00 -0.00000000000E+00 -0.31074005528E+03  0.31074005528E+03  0.00000000000E+00 0.  1.
         24    2    1    2    0    0  0.86214286464E+03 -0.50682343373E+03  0.22797781100E+04  0.24907893858E+04  0.80518456136E+02 0.  0.
        254    2    1    2    0    0 -0.86214286464E+03  0.50682343373E+03  0.20367335053E+04  0.24472023400E+04  0.91670911925E+03 0.  0.
         23    2    4    4    0    0 -0.41348069485E+02  0.31284618621E+03  0.11838408501E+03  0.34971722166E+03  0.93300291853E+02 0.  0.
         23    2    4    4    0    0 -0.82079479516E+03  0.19397724752E+03  0.19183494203E+04  0.20974851183E+04  0.89710953073E+02 0.  0.
          4    1    3    3  502    0  0.35803546300E+03 -0.17688912595E+03  0.97586807821E+03  0.10544181626E+04  0.00000000000E+00 0. -1.
         -3    1    3    3    0  502  0.50410740164E+03 -0.32993430778E+03  0.13039100318E+04  0.14363712232E+04  0.00000000000E+00 0.  1.
         11    1    5    5    0    0 -0.36818669420E+02  0.41595593931E+02  0.52966807311E+01  0.55801995297E+02  0.00000000000E+00 0. -1.
        -11    1    5    5    0    0 -0.45294000652E+01  0.27125059228E+03  0.11308740428E+03  0.29391522636E+03  0.00000000000E+00 0.  1.
          4    1    6    6  503    0 -0.96881037275E+02 -0.33800878533E+01  0.25163188535E+03  0.26965898113E+03  0.00000000000E+00 0. -1.
         -4    1    6    6    0  503 -0.72391375788E+03  0.19735733537E+03  0.16667175349E+04  0.18278261372E+04  0.00000000000E+00 0.  1.
<mgrwt>
<rscale>  0 0.23982264E+04</rscale>
<asrwt>0</asrwt>
<pdfrwt beam="1">  1        2 0.71188482E+00 0.23982264E+04</pdfrwt>
<pdfrwt beam="2">  1       -1 0.47806166E-01 0.23982264E+04</pdfrwt>
<totfact> 0.41319444E-01</totfact>
</mgrwt>
</event>
<event>
12    6  0.1540825E-007  0.1792464E+04  0.7818608E-02  0.8710317E-01
         -1   -1    0    0    0  501 -0.00000000000E+00  0.00000000000E+00  0.31760453056E+03  0.31760453056E+03  0.00000000000E+00 0.  1.
          2   -1    0    0  501    0  0.00000000000E+00 -0.00000000000E+00 -0.25290306549E+04  0.25290306549E+04  0.00000000000E+00 0. -1.
         24    2    1    2    0    0 -0.49918880529E+03 -0.40888395206E+03 -0.11358423731E+04  0.13087850695E+04  0.80030694061E+02 0.  0.
        254    2    1    2    0    0  0.49918880529E+03  0.40888395206E+03 -0.10755837513E+04  0.15378501160E+04  0.88979043809E+03 0.  0.
         23    2    4    4    0    0  0.42075273363E+03 -0.19965466614E+03 -0.40113619836E+03  0.62117696979E+03  0.89753716333E+02 0.  0.
         23    2    4    4    0    0  0.78436071664E+02  0.60853861820E+03 -0.67444755293E+03  0.91667314623E+03  0.94544635893E+02 0.  0.
          4    1    3    3  502    0 -0.15929898056E+03 -0.97617262291E+02 -0.38150933649E+03  0.42479956325E+03  0.00000000000E+00 0. -1.
         -3    1    3    3    0  502 -0.33988982474E+03 -0.31126668977E+03 -0.75433303657E+03  0.88398550621E+03  0.00000000000E+00 0.  1.
         11    1    5    5    0    0  0.12072006762E+03 -0.94009748513E+02 -0.97495401156E+02  0.18142910678E+03  0.00000000000E+00 0. -1.
        -11    1    5    5    0    0  0.30003266601E+03 -0.10564491763E+03 -0.30364079720E+03  0.43974786301E+03  0.00000000000E+00 0.  1.
          3    1    6    6  503    0  0.10063461521E+03  0.49633592724E+03 -0.54945696215E+03  0.74724803894E+03  0.00000000000E+00 0. -1.
         -3    1    6    6    0  503 -0.22198543543E+02  0.11220269096E+03 -0.12499059078E+03  0.16942510728E+03  0.00000000000E+00 0.  1.
<mgrwt>
<rscale>  0 0.17924638E+04</rscale>
<asrwt>0</asrwt>
<pdfrwt beam="1">  1        2 0.38908165E+00 0.17924638E+04</pdfrwt>
<pdfrwt beam="2">  1       -1 0.48862235E-01 0.17924638E+04</pdfrwt>
<totfact> 0.15123220E+01</totfact>
</mgrwt>
</event>
<event>
12    6  0.1540825E-007  0.1627451E+04  0.7818608E-02  0.8803859E-01
          2   -1    0    0  501    0  0.00000000000E+00  0.00000000000E+00  0.23317721945E+04  0.23317721945E+04  0.00000000000E+00 0. -1.
         -1   -1    0    0    0  501 -0.00000000000E+00 -0.00000000000E+00 -0.28396833500E+03  0.28396833500E+03  0.00000000000E+00 0.  1.
         24    2    1    2    0    0 -0.42480939645E+02  0.15431498935E+02  0.16102422895E+04  0.16128237379E+04  0.79230153408E+02 0.  0.
        254    2    1    2    0    0  0.42480939645E+02 -0.15431498935E+02  0.43756156998E+03  0.10029167916E+04  0.90129861975E+03 0.  0.
         23    2    4    4    0    0 -0.36990939934E+03  0.90321208715E+02  0.77043006446E+01  0.39125038302E+03  0.89591414248E+02 0.  0.
         23    2    4    4    0    0  0.41239033898E+03 -0.10575270765E+03  0.42985726934E+03  0.61166640858E+03  0.90050522031E+02 0.  0.
          4    1    3    3  502    0 -0.58382361543E+02  0.10517709211E+02  0.15133622877E+04  0.15145245247E+04  0.00000000000E+00 0. -1.
         -3    1    3    3    0  502  0.15901421898E+02  0.49137897234E+01  0.96880001841E+02  0.98299213143E+02  0.00000000000E+00 0.  1.
         11    1    5    5    0    0 -0.21768703955E+03  0.97936811106E+02  0.80008938010E+01  0.23883735148E+03  0.00000000000E+00 0.  1.
        -11    1    5    5    0    0 -0.15222235978E+03 -0.76156023913E+01 -0.29659315639E+00  0.15241303155E+03  0.00000000000E+00 0. -1.
          4    1    6    6  503    0  0.82968046114E+02  0.58817473719E+01  0.52000267155E+02  0.98093421861E+02  0.00000000000E+00 0. -1.
         -4    1    6    6    0  503  0.32942229287E+03 -0.11163445502E+03  0.37785700218E+03  0.51357298672E+03  0.00000000000E+00 0.  1.
<mgrwt>
<rscale>  0 0.16274513E+04</rscale>
<asrwt>0</asrwt>
<pdfrwt beam="1">  1        2 0.35873417E+00 0.16274513E+04</pdfrwt>
<pdfrwt beam="2">  1       -1 0.43687438E-01 0.16274513E+04</pdfrwt>
<totfact> 0.24557312E+01</totfact>
</mgrwt>
</event>
<event>
12    6  0.1540825E-007  0.2373473E+04  0.7818608E-02  0.8449502E-01
          2   -1    0    0  501    0  0.00000000000E+00  0.00000000000E+00  0.12114617271E+04  0.12114617271E+04  0.00000000000E+00 0. -1.
         -1   -1    0    0    0  501 -0.00000000000E+00 -0.00000000000E+00 -0.11625162145E+04  0.11625162145E+04  0.00000000000E+00 0.  1.
         24    2    1    2    0    0  0.62623875792E+03 -0.54153152085E+03  0.63155959981E+03  0.10443584325E+04  0.79910183544E+02 0.  0.
        254    2    1    2    0    0 -0.62623875792E+03  0.54153152085E+03 -0.58261408725E+03  0.13296195091E+04  0.86198462532E+03 0.  0.
         23    2    4    4    0    0 -0.75540725651E+02  0.21431441273E+03  0.19626201485E+03  0.31709327271E+03  0.10194261321E+03 0.  0.
         23    2    4    4    0    0 -0.55069803227E+03  0.32721710813E+03 -0.77887610210E+03  0.10125262364E+04  0.90675456139E+02 0.  0.
          4    1    3    3  502    0  0.55398660872E+03 -0.44481982451E+03  0.52594873306E+03  0.88396148600E+03  0.00000000000E+00 0. -1.
         -3    1    3    3    0  502  0.72252149200E+02 -0.96711696341E+02  0.10561086675E+03  0.16039694651E+03  0.00000000000E+00 0.  1.
         11    1    5    5    0    0 -0.85883067169E+01  0.30986394370E+02 -0.94635244305E+01  0.33518262827E+02  0.00000000000E+00 0.  1.
        -11    1    5    5    0    0 -0.66952418934E+02  0.18332801836E+03  0.20572553928E+03  0.28357500988E+03  0.00000000000E+00 0. -1.
          4    1    6    6  503    0 -0.54009262731E+03  0.30400088889E+03 -0.73185778079E+03  0.95902679724E+03  0.00000000000E+00 0. -1.
         -4    1    6    6    0  503 -0.10605404962E+02  0.23216219235E+02 -0.47018321312E+02  0.53499439146E+02  0.00000000000E+00 0.  1.
<mgrwt>
<rscale>  0 0.23734733E+04</rscale>
<asrwt>0</asrwt>
<pdfrwt beam="1">  1        2 0.18637873E+00 0.23734733E+04</pdfrwt>
<pdfrwt beam="2">  1       -1 0.17884865E+00 0.23734733E+04</pdfrwt>
<totfact> 0.40624324E+00</totfact>
</mgrwt>
</event>
<event>
12    6  0.1540825E-007  0.2894999E+04  0.7818608E-02  0.8274367E-01
          2   -1    0    0  501    0  0.00000000000E+00  0.00000000000E+00  0.20902468331E+04  0.20902468331E+04  0.00000000000E+00 0. -1.
         -1   -1    0    0    0  501 -0.00000000000E+00 -0.00000000000E+00 -0.10023956853E+04  0.10023956853E+04  0.00000000000E+00 0.  1.
         24    2    1    2    0    0 -0.39504010572E+03 -0.69221484482E+03 -0.61552222678E+03  0.10101244219E+04  0.79155918687E+02 0.  0.
        254    2    1    2    0    0  0.39504010572E+03  0.69221484482E+03  0.17033733746E+04  0.20825180965E+04  0.89452931336E+03 0.  0.
         23    2    4    4    0    0 -0.10755433699E+03 -0.67926736340E+02  0.51900114521E+01  0.15312309953E+03  0.85075087278E+02 0.  0.
         23    2    4    4    0    0  0.50259444271E+03  0.76014158116E+03  0.16981833631E+04  0.19293949970E+04  0.91224570455E+02 0.  0.
          2    1    3    3  502    0 -0.61892490712E+02 -0.17486439595E+03 -0.14920532356E+03  0.23805559426E+03  0.00000000000E+00 0. -1.
         -1    1    3    3    0  502 -0.33314761501E+03 -0.51735044886E+03 -0.46631690322E+03  0.77206882760E+03  0.00000000000E+00 0.  1.
         11    1    5    5    0    0 -0.51953085677E+02 -0.26086249327E+02  0.44491616644E+02  0.73206007041E+02  0.00000000000E+00 0.  1.
        -11    1    5    5    0    0 -0.55601251310E+02 -0.41840487013E+02 -0.39301605192E+02  0.79917092486E+02  0.00000000000E+00 0. -1.
          2    1    6    6  503    0  0.71757607890E+02  0.63403377281E+02  0.15301594521E+03  0.18050767859E+03  0.00000000000E+00 0.  1.
         -2    1    6    6    0  503  0.43083683482E+03  0.69673820387E+03  0.15451674179E+04  0.17488873184E+04  0.00000000000E+00 0. -1.
<mgrwt>
<rscale>  0 0.28949987E+04</rscale>
<asrwt>0</asrwt>
<pdfrwt beam="1">  1        2 0.32157643E+00 0.28949987E+04</pdfrwt>
<pdfrwt beam="2">  1       -1 0.15421472E+00 0.28949987E+04</pdfrwt>
<totfact> 0.18907834E+00</totfact>
</mgrwt>
</event>
<event>
12    6  0.1540825E-007  0.1996120E+04  0.7818608E-02  0.8608437E-01
          2   -1    0    0  501    0  0.00000000000E+00  0.00000000000E+00  0.26157864464E+04  0.26157864464E+04  0.00000000000E+00 0. -1.
         -1   -1    0    0    0  501 -0.00000000000E+00 -0.00000000000E+00 -0.38081216773E+03  0.38081216773E+03  0.00000000000E+00 0.  1.
         24    2    1    2    0    0 -0.64702387433E+03  0.10278205761E+03  0.16399401653E+04  0.17680117061E+04  0.85191559951E+02 0.  0.
        254    2    1    2    0    0  0.64702387433E+03 -0.10278205761E+03  0.59503411344E+03  0.12285869081E+04  0.85214796205E+03 0.  0.
         23    2    4    4    0    0 -0.19738743899E+02  0.28069238884E+03  0.10843122907E+03  0.31389566924E+03  0.87151159296E+02 0.  0.
         23    2    4    4    0    0  0.66676261823E+03 -0.38347444644E+03  0.48660288437E+03  0.91469123884E+03  0.90844125808E+02 0.  0.
          4    1    3    3  502    0 -0.64756744867E+03  0.10157345426E+03  0.16138464696E+04  0.17418843804E+04  0.00000000000E+00 0. -1.
         -3    1    3    3    0  502  0.54357433491E+00  0.12086033425E+01  0.26093695615E+02  0.26127325656E+02  0.00000000000E+00 0.  1.
         11    1    5    5    0    0 -0.11914020021E+02  0.12228177174E+02 -0.10628817875E+02  0.20110792115E+02  0.00000000000E+00 0.  1.
        -11    1    5    5    0    0 -0.78247238771E+01  0.26846421166E+03  0.11906004695E+03  0.29378487712E+03  0.00000000000E+00 0. -1.
          2    1    6    6  503    0  0.20516778355E+03 -0.16355524343E+03  0.18522978833E+03  0.32117629356E+03  0.00000000000E+00 0. -1.
         -2    1    6    6    0  503  0.46159483468E+03 -0.21991920302E+03  0.30137309604E+03  0.59351494528E+03  0.00000000000E+00 0.  1.
<mgrwt>
<rscale>  0 0.19961195E+04</rscale>
<asrwt>0</asrwt>
<pdfrwt beam="1">  1        2 0.40242867E+00 0.19961195E+04</pdfrwt>
<pdfrwt beam="2">  1       -1 0.58586489E-01 0.19961195E+04</pdfrwt>
<totfact> 0.93121993E+00</totfact>
</mgrwt>
</event>
<event>
12    6  0.1540825E-007  0.2777415E+04  0.7818608E-02  0.8310314E-01
         -1   -1    0    0    0  501 -0.00000000000E+00  0.00000000000E+00  0.12356925537E+04  0.12356925537E+04  0.00000000000E+00 0.  1.
          2   -1    0    0  501    0  0.00000000000E+00 -0.00000000000E+00 -0.15606706252E+04  0.15606706252E+04  0.00000000000E+00 0. -1.
         24    2    1    2    0    0  0.76391098161E+03  0.96177945247E+03 -0.33789815301E+03  0.12755119347E+04  0.64620668362E+02 0.  0.
        254    2    1    2    0    0 -0.76391098161E+03 -0.96177945247E+03  0.12920081527E+02  0.15208512443E+04  0.89679533654E+03 0.  0.
         23    2    4    4    0    0 -0.72788638592E+03 -0.34979933609E+03  0.26039033941E+03  0.85355790324E+03  0.92627204361E+02 0.  0.
         23    2    4    4    0    0 -0.36024595687E+02 -0.61198011638E+03 -0.24747025789E+03  0.66729334101E+03  0.90672157172E+02 0.  0.
          4    1    3    3  502    0  0.47794608510E+03  0.60227046955E+03 -0.17897672747E+03  0.78942691095E+03  0.00000000000E+00 0. -1.
         -3    1    3    3    0  502  0.28596489651E+03  0.35950898292E+03 -0.15892142554E+03  0.48608502377E+03  0.00000000000E+00 0.  1.
         11    1    5    5    0    0 -0.11614912299E+03 -0.39134755186E+02  0.71642708947E+02  0.14196769203E+03  0.00000000000E+00 0. -1.
        -11    1    5    5    0    0 -0.61173726293E+03 -0.31066458091E+03  0.18874763047E+03  0.71159021121E+03  0.00000000000E+00 0.  1.
          4    1    6    6  503    0 -0.50803583127E+02 -0.17686752225E+03 -0.63688223659E+02  0.19472882251E+03  0.00000000000E+00 0.  1.
         -4    1    6    6    0  503  0.14778987441E+02 -0.43511259413E+03 -0.18378203423E+03  0.47256451850E+03  0.00000000000E+00 0. -1.
<mgrwt>
<rscale>  0 0.27774154E+04</rscale>
<asrwt>0</asrwt>
<pdfrwt beam="1">  1        2 0.24010317E+00 0.27774154E+04</pdfrwt>
<pdfrwt beam="2">  1       -1 0.19010655E+00 0.27774154E+04</pdfrwt>
<totfact> 0.20544706E+00</totfact>
</mgrwt>
</event>
<event>
12    6  0.1540825E-007  0.2050225E+04  0.7818608E-02  0.8583492E-01
          2   -1    0    0  501    0  0.00000000000E+00  0.00000000000E+00  0.90331982656E+03  0.90331982656E+03  0.00000000000E+00 0. -1.
         -1   -1    0    0    0  501 -0.00000000000E+00 -0.00000000000E+00 -0.11633261038E+04  0.11633261038E+04  0.00000000000E+00 0.  1.
         24    2    1    2    0    0  0.33058990905E+03  0.20284231180E+03 -0.84656995722E+03  0.93455131779E+03  0.79188267303E+02 0.  0.
        254    2    1    2    0    0 -0.33058990905E+03 -0.20284231180E+03  0.58656367994E+03  0.11320946126E+04  0.88721280978E+03 0.  0.
         23    2    4    4    0    0  0.12504031327E+03 -0.31937297916E+03  0.54572178387E+03  0.65110938853E+03  0.92179122774E+02 0.  0.
         23    2    4    4    0    0 -0.45563022232E+03  0.11653066736E+03  0.40841896071E+02  0.48098522408E+03  0.92197773191E+02 0.  0.
          4    1    3    3  502    0  0.18803466810E+03  0.86757175433E+02 -0.37440417124E+03  0.42785783543E+03  0.00000000000E+00 0. -1.
         -3    1    3    3    0  502  0.14255524095E+03  0.11608513637E+03 -0.47216578598E+03  0.50669348235E+03  0.00000000000E+00 0.  1.
         11    1    5    5    0    0  0.71320751218E+02 -0.27754963160E+03  0.45412942798E+03  0.53698601929E+03  0.00000000000E+00 0.  1.
        -11    1    5    5    0    0  0.53719562049E+02 -0.41823347556E+02  0.91592355890E+02  0.11412336923E+03  0.00000000000E+00 0. -1.
          2    1    6    6  503    0 -0.36218709412E+02 -0.97733957462E+01  0.19905946518E+02  0.42468351541E+02  0.00000000000E+00 0. -1.
         -2    1    6    6    0  503 -0.41941151291E+03  0.12630406310E+03  0.20935949554E+02  0.43851687254E+03  0.00000000000E+00 0.  1.
<mgrwt>
<rscale>  0 0.20502249E+04</rscale>
<asrwt>0</asrwt>
<pdfrwt beam="1">  1        2 0.13897228E+00 0.20502249E+04</pdfrwt>
<pdfrwt beam="2">  1       -1 0.17897325E+00 0.20502249E+04</pdfrwt>
<totfact> 0.65183615E+00</totfact>
</mgrwt>
</event>
<event>
12    6  0.1540825E-007  0.1119295E+04  0.7818608E-02  0.9186587E-01
          2   -1    0    0  501    0  0.00000000000E+00  0.00000000000E+00  0.11077884335E+04  0.11077884335E+04  0.00000000000E+00 0. -1.
         -1   -1    0    0    0  501 -0.00000000000E+00 -0.00000000000E+00 -0.28273015474E+03  0.28273015474E+03  0.00000000000E+00 0.  1.
         24    2    1    2    0    0  0.15199042720E+03 -0.10314378294E+03  0.12665998140E+03  0.23802678428E+03  0.82911212921E+02 0.  0.
        254    2    1    2    0    0 -0.15199042720E+03  0.10314378294E+03  0.69839829731E+03  0.11524918039E+04  0.89818564143E+03 0.  0.
         23    2    4    4    0    0  0.74477890508E+02  0.17595444428E+03 -0.15441172756E+03  0.26247963375E+03  0.92442706003E+02 0.  0.
         23    2    4    4    0    0 -0.22646831770E+03 -0.72810661335E+02  0.85281002487E+03  0.89001217016E+03  0.90815379672E+02 0.  0.
          2    1    3    3  502    0  0.12323055596E+03 -0.43805680918E+02  0.10767809968E+03  0.16940862066E+03  0.00000000000E+00 0. -1.
         -1    1    3    3    0  502  0.28759871233E+02 -0.59338102023E+02  0.18981881724E+02  0.68618163622E+02  0.00000000000E+00 0.  1.
         11    1    5    5    0    0  0.44896593520E+02  0.16752942723E+02 -0.19576586085E+02  0.51764929463E+02  0.00000000000E+00 0. -1.
        -11    1    5    5    0    0  0.29581296988E+02  0.15920150155E+03 -0.13483514147E+03  0.21071470429E+03  0.00000000000E+00 0.  1.
          3    1    6    6  503    0 -0.17836606645E+03 -0.40280278239E+02  0.49859202095E+03  0.53106586958E+03  0.00000000000E+00 0. -1.
         -3    1    6    6    0  503 -0.48102251255E+02 -0.32530383097E+02  0.35421800391E+03  0.35894630058E+03  0.00000000000E+00 0.  1.
<mgrwt>
<rscale>  0 0.11192948E+04</rscale>
<asrwt>0</asrwt>
<pdfrwt beam="1">  1        2 0.17042899E+00 0.11192948E+04</pdfrwt>
<pdfrwt beam="2">  1       -1 0.43496947E-01 0.11192948E+04</pdfrwt>
<totfact> 0.12703867E+02</totfact>
</mgrwt>
</event>
<event>
12    6  0.1540825E-007  0.2662194E+04  0.7818608E-02  0.8347377E-01
         -1   -1    0    0    0  501 -0.00000000000E+00  0.00000000000E+00  0.16614876246E+04  0.16614876246E+04  0.00000000000E+00 0.  1.
          2   -1    0    0  501    0  0.00000000000E+00 -0.00000000000E+00 -0.10664052529E+04  0.10664052529E+04  0.00000000000E+00 0. -1.
         24    2    1    2    0    0 -0.29186340213E+03 -0.80874410846E+03  0.10776762377E+04  0.13809620294E+04  0.80117257171E+02 0.  0.
        254    2    1    2    0    0  0.29186340213E+03  0.80874410846E+03 -0.48259386610E+03  0.13469308481E+04  0.91764622347E+03 0.  0.
         23    2    4    4    0    0  0.27865966093E+02 -0.19113091991E+03 -0.28349038386E+02  0.21383124530E+03  0.87250174060E+02 0.  0.
         23    2    4    4    0    0  0.26399743604E+03  0.99987502838E+03 -0.45424482771E+03  0.11330996028E+04  0.90175538374E+02 0.  0.
          4    1    3    3  502    0 -0.13269871912E+03 -0.43164698229E+03  0.51138485146E+03  0.68223348912E+03  0.00000000000E+00 0. -1.
         -3    1    3    3    0  502 -0.15916468302E+03 -0.37709712618E+03  0.56629138626E+03  0.69872854031E+03  0.00000000000E+00 0.  1.
         11    1    5    5    0    0  0.52927548939E+01 -0.49036728218E+02  0.30934649117E+02  0.58219983551E+02  0.00000000000E+00 0. -1.
        -11    1    5    5    0    0  0.22573211199E+02 -0.14209419170E+03 -0.59283687503E+02  0.15561126174E+03  0.00000000000E+00 0.  1.
          1    1    6    6  503    0  0.14370534496E+03  0.45412188415E+03 -0.25125381139E+03  0.53852241325E+03  0.00000000000E+00 0. -1.
         -1    1    6    6    0  503  0.12029209108E+03  0.54575314423E+03 -0.20299101633E+03  0.59457718954E+03  0.00000000000E+00 0.  1.
<mgrwt>
<rscale>  0 0.26621939E+04</rscale>
<asrwt>0</asrwt>
<pdfrwt beam="1">  1        2 0.16406235E+00 0.26621939E+04</pdfrwt>
<pdfrwt beam="2">  1       -1 0.25561348E+00 0.26621939E+04</pdfrwt>
<totfact> 0.14692290E+00</totfact>
</mgrwt>
</event>
<event>
12    6  0.1540825E-007  0.1953983E+04  0.7818608E-02  0.8628442E-01
         -1   -1    0    0    0  501 -0.00000000000E+00  0.00000000000E+00  0.27598951505E+03  0.27598951505E+03  0.00000000000E+00 0.  1.
          2   -1    0    0  501    0  0.00000000000E+00 -0.00000000000E+00 -0.34585104961E+04  0.34585104961E+04  0.00000000000E+00 0. -1.
         24    2    1    2    0    0  0.56606252243E+03 -0.22434809823E+03 -0.21487539253E+04  0.22357659073E+04  0.10366731586E+03 0.  0.
        254    2    1    2    0    0 -0.56606252243E+03  0.22434809823E+03 -0.10337670558E+04  0.14987341039E+04  0.89820417500E+03 0.  0.
         23    2    4    4    0    0 -0.52480091165E+03  0.81038698452E+02 -0.11627524358E+04  0.12818520767E+04  0.95750989213E+02 0.  0.
         23    2    4    4    0    0 -0.41261610783E+02  0.14330939978E+03  0.12898538004E+03  0.21688202719E+03  0.90335379919E+02 0.  0.
          4    1    3    3  502    0  0.40662858120E+03 -0.11095144155E+03 -0.14241984337E+04  0.14852603153E+04  0.00000000000E+00 0. -1.
         -3    1    3    3    0  502  0.15943394123E+03 -0.11339665668E+03 -0.72455549152E+03  0.75050559202E+03  0.00000000000E+00 0.  1.
         11    1    5    5    0    0 -0.10109485137E+03 -0.94849245768E+01 -0.16000039912E+03  0.18950002767E+03  0.00000000000E+00 0. -1.
        -11    1    5    5    0    0 -0.42370606027E+03  0.90523623029E+02 -0.10027520367E+04  0.10923520490E+04  0.00000000000E+00 0.  1.
          1    1    6    6  503    0 -0.30794153882E+02  0.27544915703E+01  0.10193541517E+02  0.32554192138E+02  0.00000000000E+00 0. -1.
         -1    1    6    6    0  503 -0.10467456901E+02  0.14055490821E+03  0.11879183852E+03  0.18432783505E+03  0.00000000000E+00 0.  1.
<mgrwt>
<rscale>  0 0.19539832E+04</rscale>
<asrwt>0</asrwt>
<pdfrwt beam="1">  1        2 0.53207852E+00 0.19539832E+04</pdfrwt>
<pdfrwt beam="2">  1       -1 0.42459927E-01 0.19539832E+04</pdfrwt>
<totfact> 0.50623155E+00</totfact>
</mgrwt>
</event>
<event>
12    6  0.1540825E-007  0.2091132E+04  0.7818608E-02  0.8565160E-01
         -1   -1    0    0    0  501 -0.00000000000E+00  0.00000000000E+00  0.55083075778E+03  0.55083075778E+03  0.00000000000E+00 0.  1.
          2   -1    0    0  501    0  0.00000000000E+00 -0.00000000000E+00 -0.19846529496E+04  0.19846529496E+04  0.00000000000E+00 0. -1.
         24    2    1    2    0    0 -0.47592735251E+03  0.64299167755E+02 -0.14325113208E+04  0.15130399491E+04  0.80993674679E+02 0.  0.
        254    2    1    2    0    0  0.47592735251E+03 -0.64299167755E+02 -0.13108709969E+01  0.10224437583E+04  0.90263408570E+03 0.  0.
         23    2    4    4    0    0 -0.60959238003E+02  0.70012866454E+02 -0.34323816272E+03  0.36707079677E+03  0.91163059026E+02 0.  0.
         23    2    4    4    0    0  0.53688659051E+03 -0.13431203421E+03  0.34192729172E+03  0.65537296154E+03  0.79451320207E+02 0.  0.
          4    1    3    3  502    0 -0.28982595273E+03  0.63080425005E+02 -0.97520713356E+03  0.10193170146E+04  0.00000000000E+00 0. -1.
         -3    1    3    3    0  502 -0.18610139978E+03  0.12187427498E+01 -0.45730418727E+03  0.49372293447E+03  0.00000000000E+00 0.  1.
         11    1    5    5    0    0 -0.68778211797E+02  0.72003935181E+02 -0.19818476504E+03  0.22179316986E+03  0.00000000000E+00 0. -1.
        -11    1    5    5    0    0  0.78189737939E+01 -0.19910687276E+01 -0.14505339767E+03  0.14527762691E+03  0.00000000000E+00 0.  1.
          3    1    6    6  503    0  0.25507707469E+03 -0.93809441542E+02  0.13534986472E+03  0.30361836446E+03  0.00000000000E+00 0. -1.
         -3    1    6    6    0  503  0.28180951582E+03 -0.40502592667E+02  0.20657742700E+03  0.35175459708E+03  0.00000000000E+00 0.  1.
<mgrwt>
<rscale>  0 0.20911316E+04</rscale>
<asrwt>0</asrwt>
<pdfrwt beam="1">  1        2 0.30533123E+00 0.20911316E+04</pdfrwt>
<pdfrwt beam="2">  1       -1 0.84743193E-01 0.20911316E+04</pdfrwt>
<totfact> 0.98581249E+00</totfact>
</mgrwt>
</event>
<event>
12    6  0.1540825E-007  0.1878681E+04  0.7818608E-02  0.8665542E-01
         -1   -1    0    0    0  501 -0.00000000000E+00  0.00000000000E+00  0.14113535285E+04  0.14113535285E+04  0.00000000000E+00 0.  1.
          2   -1    0    0  501    0  0.00000000000E+00 -0.00000000000E+00 -0.62518728834E+03  0.62518728834E+03  0.00000000000E+00 0. -1.
         24    2    1    2    0    0 -0.50197713276E+02  0.22246268064E+03  0.10476776107E+04  0.10750971553E+04  0.78715073208E+02 0.  0.
        254    2    1    2    0    0  0.50197713276E+02 -0.22246268064E+03 -0.26151137050E+03  0.96144366155E+03  0.89664723428E+03 0.  0.
         23    2    4    4    0    0  0.33004775064E+03  0.14930324903E+03 -0.30973902438E+03  0.48497377283E+03  0.89656674277E+02 0.  0.
         23    2    4    4    0    0 -0.27985003737E+03 -0.37176592967E+03  0.48227653875E+02  0.47646988871E+03  0.90397446740E+02 0.  0.
          2    1    3    3  502    0 -0.91951234969E+00  0.76352265361E+02  0.51219931047E+03  0.51785967943E+03  0.00000000000E+00 0. -1.
         -1    1    3    3    0  502 -0.49278200926E+02  0.14611041528E+03  0.53547830021E+03  0.55723747589E+03  0.00000000000E+00 0.  1.
         11    1    5    5    0    0  0.93523905496E+02  0.81404403451E+02 -0.75099171960E+02  0.14495959240E+03  0.00000000000E+00 0.  1.
        -11    1    5    5    0    0  0.23652384515E+03  0.67898845575E+02 -0.23463985242E+03  0.34001418043E+03  0.00000000000E+00 0. -1.
          2    1    6    6  503    0 -0.26790332470E+03 -0.31953574419E+03  0.24016758684E+02  0.41767461965E+03  0.00000000000E+00 0. -1.
         -2    1    6    6    0  503 -0.11946712666E+02 -0.52230185480E+02  0.24210895191E+02  0.58795269068E+02  0.00000000000E+00 0.  1.
<mgrwt>
<rscale>  0 0.18786807E+04</rscale>
<asrwt>0</asrwt>
<pdfrwt beam="1">  1        2 0.96182660E-01 0.18786807E+04</pdfrwt>
<pdfrwt beam="2">  1       -1 0.21713131E+00 0.18786807E+04</pdfrwt>
<totfact> 0.58134601E+00</totfact>
</mgrwt>
</event>
<event>
12    6  0.1540825E-007  0.2418067E+04  0.7818608E-02  0.8432771E-01
          2   -1    0    0  501    0  0.00000000000E+00  0.00000000000E+00  0.14367641320E+04  0.14367641320E+04  0.00000000000E+00 0. -1.
         -1   -1    0    0    0  501 -0.00000000000E+00 -0.00000000000E+00 -0.10173984007E+04  0.10173984007E+04  0.00000000000E+00 0.  1.
         24    2    1    2    0    0 -0.47772883947E+03  0.33516737509E+03 -0.68297845115E+03  0.90235009091E+03  0.84935907843E+02 0.  0.
        254    2    1    2    0    0  0.47772883947E+03 -0.33516737509E+03  0.11023441825E+04  0.15518124418E+04  0.92325356460E+03 0.  0.
         23    2    4    4    0    0  0.45833168896E+03  0.19776303130E+03  0.31703168460E+03  0.59819063230E+03  0.90248489629E+02 0.  0.
         23    2    4    4    0    0  0.19397150510E+02 -0.53293040639E+03  0.78531249790E+03  0.95362180953E+03  0.91037183311E+02 0.  0.
          2    1    3    3  502    0 -0.20460853208E+03  0.16996274093E+03 -0.25529822910E+03  0.36868573405E+03  0.00000000000E+00 0. -1.
         -1    1    3    3    0  502 -0.27312030739E+03  0.16520463416E+03 -0.42768022205E+03  0.53366435687E+03  0.00000000000E+00 0.  1.
         11    1    5    5    0    0  0.30764002192E+02  0.21991917457E+00  0.60158767206E+00  0.30770669525E+02  0.00000000000E+00 0. -1.
        -11    1    5    5    0    0  0.42756768677E+03  0.19754311213E+03  0.31643009693E+03  0.56741996278E+03  0.00000000000E+00 0.  1.
          1    1    6    6  503    0 -0.88119508283E+01 -0.10324149611E+02  0.59136450243E+01  0.14805733351E+02  0.00000000000E+00 0. -1.
         -1    1    6    6    0  503  0.28209101339E+02 -0.52260625678E+03  0.77939885287E+03  0.93881607618E+03  0.00000000000E+00 0.  1.
<mgrwt>
<rscale>  0 0.24180666E+04</rscale>
<asrwt>0</asrwt>
<pdfrwt beam="1">  1        2 0.22104063E+00 0.24180666E+04</pdfrwt>
<pdfrwt beam="2">  1       -1 0.15652283E+00 0.24180666E+04</pdfrwt>
<totfact> 0.43811756E+00</totfact>
</mgrwt>
</event>
<event>
12    6  0.1540825E-007  0.2269196E+04  0.7818608E-02  0.8490167E-01
          2   -1    0    0  501    0  0.00000000000E+00  0.00000000000E+00  0.12136983930E+04  0.12136983930E+04  0.00000000000E+00 0. -1.
         -1   -1    0    0    0  501 -0.00000000000E+00 -0.00000000000E+00 -0.10606531515E+04  0.10606531515E+04  0.00000000000E+00 0.  1.
         24    2    1    2    0    0  0.16930999191E+03 -0.94003993521E+03  0.62877129849E+02  0.96070095749E+03  0.81558832200E+02 0.  0.
        254    2    1    2    0    0 -0.16930999191E+03  0.94003993521E+03  0.90168111688E+02  0.13136505871E+04  0.89733306156E+03 0.  0.
         23    2    4    4    0    0 -0.10611941077E+03 -0.50340401070E+02 -0.22233757815E+03  0.26917807135E+03  0.96059097014E+02 0.  0.
         23    2    4    4    0    0 -0.63190581136E+02  0.99038033628E+03  0.31250568983E+03  0.10444725157E+04  0.91742955332E+02 0.  0.
          4    1    3    3  502    0  0.13800021948E+03 -0.84099054008E+03  0.34149124446E+02  0.85292163285E+03  0.00000000000E+00 0. -1.
         -3    1    3    3    0  502  0.31309772430E+02 -0.99049395126E+02  0.28728005403E+02  0.10777932464E+03  0.00000000000E+00 0.  1.
         11    1    5    5    0    0 -0.67386320708E+02 -0.96301036897E+00 -0.18323681698E+03  0.19523722674E+03  0.00000000000E+00 0.  1.
        -11    1    5    5    0    0 -0.38733090064E+02 -0.49377390701E+02 -0.39100761162E+02  0.73940844611E+02  0.00000000000E+00 0. -1.
          4    1    6    6  503    0  0.40055809060E+01  0.32999811881E+03  0.67137289941E+02  0.33678215332E+03  0.00000000000E+00 0. -1.
         -4    1    6    6    0  503 -0.67196162042E+02  0.66038221747E+03  0.24536839989E+03  0.70769036238E+03  0.00000000000E+00 0.  1.
<mgrwt>
<rscale>  0 0.22691964E+04</rscale>
<asrwt>0</asrwt>
<pdfrwt beam="1">  1        2 0.18672283E+00 0.22691964E+04</pdfrwt>
<pdfrwt beam="2">  1       -1 0.16317741E+00 0.22691964E+04</pdfrwt>
<totfact> 0.53256304E+00</totfact>
</mgrwt>
</event>
<event>
12    6  0.1540825E-007  0.1307460E+04  0.7818608E-02  0.9023670E-01
         -1   -1    0    0    0  501 -0.00000000000E+00  0.00000000000E+00  0.50155065214E+03  0.50155065214E+03  0.00000000000E+00 0.  1.
          2   -1    0    0  501    0  0.00000000000E+00 -0.00000000000E+00 -0.85208376647E+03  0.85208376647E+03  0.00000000000E+00 0. -1.
         24    2    1    2    0    0 -0.20729534490E+02  0.10406578189E+03 -0.42291280843E+03  0.44324034073E+03  0.79670292842E+02 0.  0.
        254    2    1    2    0    0  0.20729534490E+02 -0.10406578189E+03  0.72379694100E+02  0.91039407788E+03  0.90128749928E+03 0.  0.
         23    2    4    4    0    0  0.64197014717E+02  0.38414876330E+03  0.94720356848E+02  0.41112024173E+03  0.91413227243E+02 0.  0.
         23    2    4    4    0    0 -0.43467480227E+02 -0.48821454518E+03 -0.22340662748E+02  0.49927383616E+03  0.92370960215E+02 0.  0.
          2    1    3    3  502    0 -0.24582573327E+01  0.10184798728E+03 -0.40477795345E+03  0.41740178143E+03  0.00000000000E+00 0. -1.
         -3    1    3    3    0  502 -0.18271277157E+02  0.22177946110E+01 -0.18134854980E+02  0.25838559306E+02  0.00000000000E+00 0.  1.
         11    1    5    5    0    0 -0.12233197128E+02  0.34059567553E+02 -0.10453491202E+02  0.37669360655E+02  0.00000000000E+00 0. -1.
        -11    1    5    5    0    0  0.76430211845E+02  0.35008919574E+03  0.10517384805E+03  0.37345088107E+03  0.00000000000E+00 0.  1.
          2    1    6    6  503    0 -0.22369990971E+02 -0.47074200791E+03 -0.18748617201E+02  0.47164601679E+03  0.00000000000E+00 0. -1.
         -2    1    6    6    0  503 -0.21097489256E+02 -0.17472537276E+02 -0.35920455464E+01  0.27627819367E+02  0.00000000000E+00 0.  1.
<mgrwt>
<rscale>  0 0.13074604E+04</rscale>
<asrwt>0</asrwt>
<pdfrwt beam="1">  1        2 0.13108981E+00 0.13074604E+04</pdfrwt>
<pdfrwt beam="2">  1       -1 0.77161640E-01 0.13074604E+04</pdfrwt>
<totfact> 0.59595651E+01</totfact>
</mgrwt>
</event>
<event>
12    6  0.1540825E-007  0.1212008E+04  0.7818608E-02  0.9102410E-01
          2   -1    0    0  501    0  0.00000000000E+00  0.00000000000E+00  0.13007361081E+04  0.13007361081E+04  0.00000000000E+00 0. -1.
         -1   -1    0    0    0  501 -0.00000000000E+00 -0.00000000000E+00 -0.28233331185E+03  0.28233331185E+03  0.00000000000E+00 0.  1.
         24    2    1    2    0    0  0.91401092953E+02  0.44445829472E+02  0.55339977356E+03  0.56764023967E+03  0.75063578116E+02 0.  0.
        254    2    1    2    0    0 -0.91401092953E+02 -0.44445829472E+02  0.46500302265E+03  0.10154291802E+04  0.89696098994E+03 0.  0.
         23    2    4    4    0    0 -0.17544213118E+03 -0.35197605683E+03 -0.46076194543E+02  0.40652714050E+03  0.92055495676E+02 0.  0.
         23    2    4    4    0    0  0.84041038230E+02  0.30753022735E+03  0.51107921719E+03  0.60890203975E+03  0.89005566815E+02 0.  0.
          4    1    3    3  502    0  0.28456720524E+02  0.22551348903E+02  0.38228994367E+03  0.38401035053E+03  0.00000000000E+00 0. -1.
         -3    1    3    3    0  502  0.62944372429E+02  0.21894480569E+02  0.17110982990E+03  0.18362988914E+03  0.00000000000E+00 0.  1.
         11    1    5    5    0    0 -0.14219074256E+03 -0.18874867717E+03 -0.12829154348E+02  0.23666190569E+03  0.00000000000E+00 0.  1.
        -11    1    5    5    0    0 -0.33251388626E+02 -0.16322737966E+03 -0.33247040196E+02  0.16986523481E+03  0.00000000000E+00 0. -1.
          1    1    6    6  503    0 -0.16482610064E+02  0.17747413249E+02  0.34606258253E+02  0.42240267777E+02  0.00000000000E+00 0. -1.
         -1    1    6    6    0  503  0.10052364829E+03  0.28978281411E+03  0.47647295894E+03  0.56666177198E+03  0.00000000000E+00 0.  1.
<mgrwt>
<rscale>  0 0.12120085E+04</rscale>
<asrwt>0</asrwt>
<pdfrwt beam="1">  1        2 0.20011324E+00 0.12120085E+04</pdfrwt>
<pdfrwt beam="2">  1       -1 0.43435895E-01 0.12120085E+04</pdfrwt>
<totfact> 0.97043885E+01</totfact>
</mgrwt>
</event>
<event>
12    6  0.1540825E-007  0.1525852E+04  0.7818608E-02  0.8867441E-01
          2   -1    0    0  501    0  0.00000000000E+00  0.00000000000E+00  0.27221194502E+04  0.27221194502E+04  0.00000000000E+00 0. -1.
         -1   -1    0    0    0  501 -0.00000000000E+00 -0.00000000000E+00 -0.21382460066E+03  0.21382460066E+03  0.00000000000E+00 0.  1.
         24    2    1    2    0    0  0.11454285394E+03 -0.46566267816E+03  0.58341653287E+03  0.75944563635E+03  0.80131320492E+02 0.  0.
        254    2    1    2    0    0 -0.11454285394E+03  0.46566267816E+03  0.19248783167E+04  0.21764984146E+04  0.89555961231E+03 0.  0.
         23    2    4    4    0    0  0.26720058295E+02  0.41709359385E+03  0.25589117732E+03  0.49827830638E+03  0.90110756527E+02 0.  0.
         23    2    4    4    0    0 -0.14126291223E+03  0.48569084310E+02  0.16689871394E+04  0.16782201082E+04  0.92684916202E+02 0.  0.
          2    1    3    3  502    0  0.11297044886E+02 -0.93645309095E+02  0.16548067724E+03  0.19047551464E+03  0.00000000000E+00 0. -1.
         -1    1    3    3    0  502  0.10324580905E+03 -0.37201736906E+03  0.41793585563E+03  0.56897012170E+03  0.00000000000E+00 0.  1.
         11    1    5    5    0    0 -0.11042219206E+02  0.12643120710E+03  0.12199321355E+03  0.17603728266E+03  0.00000000000E+00 0.  1.
        -11    1    5    5    0    0  0.37762277501E+02  0.29066238675E+03  0.13389796377E+03  0.32224102373E+03  0.00000000000E+00 0. -1.
          2    1    6    6  503    0 -0.64051535656E+02  0.59082137147E+02  0.11638893835E+04  0.11671468610E+04  0.00000000000E+00 0. -1.
         -2    1    6    6    0  503 -0.77211376577E+02 -0.10513052837E+02  0.50509775586E+03  0.51107324712E+03  0.00000000000E+00 0.  1.
<mgrwt>
<rscale>  0 0.15258520E+04</rscale>
<asrwt>0</asrwt>
<pdfrwt beam="1">  1        2 0.41878758E+00 0.15258520E+04</pdfrwt>
<pdfrwt beam="2">  1       -1 0.32896094E-01 0.15258520E+04</pdfrwt>
<totfact> 0.24627825E+01</totfact>
</mgrwt>
</event>
<event>
12    6  0.1540825E-007  0.2372202E+04  0.7818608E-02  0.8449985E-01
          2   -1    0    0  501    0  0.00000000000E+00  0.00000000000E+00  0.18516399483E+04  0.18516399483E+04  0.00000000000E+00 0. -1.
         -1   -1    0    0    0  501 -0.00000000000E+00 -0.00000000000E+00 -0.75977832736E+03  0.75977832736E+03  0.00000000000E+00 0.  1.
         24    2    1    2    0    0 -0.65297428978E+03 -0.14294247662E+03  0.13078292070E+04  0.14711231779E+04  0.83535592835E+02 0.  0.
        254    2    1    2    0    0  0.65297428978E+03  0.14294247662E+03 -0.21596758599E+03  0.11402950978E+04  0.89823323088E+03 0.  0.
         23    2    4    4    0    0  0.18869300217E+03  0.19311007624E+03  0.31774262693E+03  0.42497323698E+03  0.82129924876E+02 0.  0.
         23    2    4    4    0    0  0.46428128761E+03 -0.50167599619E+02 -0.53371021293E+03  0.71532186079E+03  0.93620890120E+02 0.  0.
          4    1    3    3  502    0 -0.56122996681E+03 -0.14486438435E+03  0.10845140796E+04  0.12296892105E+04  0.00000000000E+00 0. -1.
         -3    1    3    3    0  502 -0.91744322977E+02  0.19219077221E+01  0.22331512734E+03  0.24143396742E+03  0.00000000000E+00 0.  1.
         11    1    5    5    0    0  0.11018005591E+03  0.93164308399E+02  0.22635468415E+03  0.26843188357E+03  0.00000000000E+00 0. -1.
        -11    1    5    5    0    0  0.78512946258E+02  0.99945767845E+02  0.91387942786E+02  0.15654135341E+03  0.00000000000E+00 0.  1.
          4    1    6    6  503    0  0.26842854265E+03  0.51905591359E+01 -0.35026727959E+03  0.44132526731E+03  0.00000000000E+00 0. -1.
         -4    1    6    6    0  503  0.19585274496E+03 -0.55358158755E+02 -0.18344293334E+03  0.27399659348E+03  0.00000000000E+00 0.  1.
<mgrwt>
<rscale>  0 0.23722023E+04</rscale>
<asrwt>0</asrwt>
<pdfrwt beam="1">  1        2 0.28486768E+00 0.23722023E+04</pdfrwt>
<pdfrwt beam="2">  1       -1 0.11688897E+00 0.23722023E+04</pdfrwt>
<totfact> 0.54690966E+00</totfact>
</mgrwt>
</event>
<event>
12    6  0.1540825E-007  0.2404069E+04  0.7818608E-02  0.8437982E-01
          2   -1    0    0  501    0  0.00000000000E+00  0.00000000000E+00  0.93738144442E+03  0.93738144442E+03  0.00000000000E+00 0. -1.
         -1   -1    0    0    0  501 -0.00000000000E+00 -0.00000000000E+00 -0.15414074699E+04  0.15414074699E+04  0.00000000000E+00 0.  1.
         24    2    1    2    0    0 -0.36489014705E+03  0.83857085553E+03  0.24141313703E+03  0.94919350750E+03  0.79637383177E+02 0.  0.
        254    2    1    2    0    0  0.36489014705E+03 -0.83857085553E+03 -0.84543916255E+03  0.15295954069E+04  0.88800272070E+03 0.  0.
         23    2    4    4    0    0  0.30693846131E+03 -0.67542394006E+03 -0.95907683335E+02  0.75390227125E+03  0.93603595195E+02 0.  0.
         23    2    4    4    0    0  0.57951685740E+02 -0.16314691547E+03 -0.74953147922E+03  0.77569313562E+03  0.99634775075E+02 0.  0.
          2    1    3    3  502    0 -0.31593652558E+03  0.65469530069E+03  0.17555102270E+03  0.74783687159E+03  0.00000000000E+00 0. -1.
         -1    1    3    3    0  502 -0.48953621478E+02  0.18387555484E+03  0.65862114323E+02  0.20135663591E+03  0.00000000000E+00 0.  1.
         11    1    5    5    0    0  0.56454917848E+01 -0.28200579833E+02 -0.21923559009E+02  0.36163333918E+02  0.00000000000E+00 0. -1.
        -11    1    5    5    0    0  0.30129296953E+03 -0.64722336023E+03 -0.73984124327E+02  0.71773893733E+03  0.00000000000E+00 0.  1.
          4    1    6    6  503    0  0.15346764870E+02  0.33001030228E+00 -0.20461479049E+03  0.20518977700E+03  0.00000000000E+00 0. -1.
         -4    1    6    6    0  503  0.42604920870E+02 -0.16347692577E+03 -0.54491668873E+03  0.57050335862E+03  0.00000000000E+00 0.  1.
<mgrwt>
<rscale>  0 0.24040689E+04</rscale>
<asrwt>0</asrwt>
<pdfrwt beam="1">  1        2 0.14421253E+00 0.24040689E+04</pdfrwt>
<pdfrwt beam="2">  1       -1 0.23713961E+00 0.24040689E+04</pdfrwt>
<totfact> 0.24020062E+00</totfact>
</mgrwt>
</event>
<event>
12    6  0.1540825E-007  0.1760880E+04  0.7818608E-02  0.8727384E-01
         -1   -1    0    0    0  501 -0.00000000000E+00  0.00000000000E+00  0.34243128580E+03  0.34243128580E+03  0.00000000000E+00 0.  1.
          2   -1    0    0  501    0  0.00000000000E+00 -0.00000000000E+00 -0.22637368063E+04  0.22637368063E+04  0.00000000000E+00 0. -1.
         24    2    1    2    0    0  0.33876288766E+03 -0.59229822919E+02  0.98395657923E+02  0.36639334515E+03  0.79334178577E+02 0.  0.
        254    2    1    2    0    0 -0.33876288766E+03  0.59229822919E+02 -0.20197011785E+04  0.22397747470E+04  0.90505778878E+03 0.  0.
         23    2    4    4    0    0 -0.28099762340E+03 -0.67164524876E+02 -0.11365074890E+03  0.32642961048E+03  0.10084175780E+03 0.  0.
         23    2    4    4    0    0 -0.57765264261E+02  0.12639434780E+03 -0.19060504296E+04  0.19133451365E+04  0.92460880819E+02 0.  0.
          2    1    3    3  502    0  0.11217549204E+03  0.77915087109E+01  0.57634693181E+01  0.11259336659E+03  0.00000000000E+00 0. -1.
         -1    1    3    3    0  502  0.22658739562E+03 -0.67021331630E+02  0.92632188605E+02  0.25379997855E+03  0.00000000000E+00 0.  1.
         11    1    5    5    0    0 -0.26485208417E+03 -0.83252231758E+02 -0.12046942111E+03  0.30263912834E+03  0.00000000000E+00 0. -1.
        -11    1    5    5    0    0 -0.16145539229E+02  0.16087706882E+02  0.68186722079E+01  0.23790482139E+02  0.00000000000E+00 0.  1.
          2    1    6    6  503    0 -0.67951785480E+02  0.86354061859E+02 -0.16771554007E+04  0.16807512330E+04  0.00000000000E+00 0. -1.
         -2    1    6    6    0  503  0.10186521218E+02  0.40040285936E+02 -0.22889502886E+03  0.23259390351E+03  0.00000000000E+00 0.  1.
<mgrwt>
<rscale>  0 0.17608797E+04</rscale>
<asrwt>0</asrwt>
<pdfrwt beam="1">  1        2 0.34826721E+00 0.17608797E+04</pdfrwt>
<pdfrwt beam="2">  1       -1 0.52681734E-01 0.17608797E+04</pdfrwt>
<totfact> 0.18624504E+01</totfact>
</mgrwt>
</event>
<event>
12    6  0.1540825E-007  0.1638893E+04  0.7818608E-02  0.8797004E-01
         -1   -1    0    0    0  501 -0.00000000000E+00  0.00000000000E+00  0.71096360275E+03  0.71096360275E+03  0.00000000000E+00 0.  1.
          2   -1    0    0  501    0  0.00000000000E+00 -0.00000000000E+00 -0.94448246699E+03  0.94448246699E+03  0.00000000000E+00 0. -1.
         24    2    1    2    0    0 -0.11738364637E+03 -0.92781581311E+02 -0.59715197525E+03  0.62063962750E+03  0.78839859276E+02 0.  0.
        254    2    1    2    0    0  0.11738364637E+03  0.92781581311E+02  0.36363311101E+03  0.10348064422E+04  0.95718754235E+03 0.  0.
         23    2    4    4    0    0  0.46941162488E+03 -0.12116617327E+03  0.36648247665E+03  0.61474174785E+03  0.92571570918E+02 0.  0.
         23    2    4    4    0    0 -0.35202797851E+03  0.21394775458E+03 -0.28493656428E+01  0.42006469440E+03  0.82151623563E+02 0.  0.
          2    1    3    3  502    0 -0.12557840524E+03 -0.77881672424E+02 -0.47913518344E+03  0.50140404343E+03  0.00000000000E+00 0. -1.
         -1    1    3    3    0  502  0.81947588717E+01 -0.14899908887E+02 -0.11801679182E+03  0.11923558407E+03  0.00000000000E+00 0.  1.
         11    1    5    5    0    0  0.24557853829E+03 -0.16110333635E+02  0.19132122532E+03  0.31172451392E+03  0.00000000000E+00 0. -1.
        -11    1    5    5    0    0  0.22383308659E+03 -0.10505583964E+03  0.17516125133E+03  0.30301723393E+03  0.00000000000E+00 0.  1.
          3    1    6    6  503    0 -0.35365934432E+03  0.20617626721E+03  0.42812937547E+01  0.40939212799E+03  0.00000000000E+00 0. -1.
         -3    1    6    6    0  503  0.16313658094E+01  0.77714873663E+01 -0.71306593975E+01  0.10672566408E+02  0.00000000000E+00 0.  1.
<mgrwt>
<rscale>  0 0.16388931E+04</rscale>
<asrwt>0</asrwt>
<pdfrwt beam="1">  1        2 0.14530499E+00 0.16388931E+04</pdfrwt>
<pdfrwt beam="2">  1       -1 0.10937902E+00 0.16388931E+04</pdfrwt>
<totfact> 0.23108684E+01</totfact>
</mgrwt>
</event>
<event>
12    6  0.1540825E-007  0.1586583E+04  0.7818608E-02  0.8828833E-01
         -1   -1    0    0    0  501 -0.00000000000E+00  0.00000000000E+00  0.38944886441E+03  0.38944886441E+03  0.00000000000E+00 0.  1.
          2   -1    0    0  501    0  0.00000000000E+00 -0.00000000000E+00 -0.16159026435E+04  0.16159026435E+04  0.00000000000E+00 0. -1.
         24    2    1    2    0    0  0.17013403120E+03 -0.38457636600E+03 -0.82108146606E+03  0.92612172473E+03  0.81744145101E+02 0.  0.
        254    2    1    2    0    0 -0.17013403120E+03  0.38457636600E+03 -0.40537231308E+03  0.10792297832E+04  0.90750517514E+03 0.  0.
         23    2    4    4    0    0 -0.10372504013E+03  0.56891651510E+03 -0.56244524918E+03  0.81174880975E+03  0.90369169005E+02 0.  0.
         23    2    4    4    0    0 -0.66408991072E+02 -0.18434014910E+03  0.15707293609E+03  0.26748097347E+03  0.92101678858E+02 0.  0.
          2    1    3    3  502    0  0.17319747270E+03 -0.37334993603E+03 -0.81492439441E+03  0.91295635596E+03  0.00000000000E+00 0. -1.
         -1    1    3    3    0  502 -0.30634414939E+01 -0.11226429972E+02 -0.61570716501E+01  0.13165368776E+02  0.00000000000E+00 0.  1.
         11    1    5    5    0    0 -0.93571067424E+02  0.50266699312E+03 -0.45142492016E+03  0.68206605924E+03  0.00000000000E+00 0.  1.
        -11    1    5    5    0    0 -0.10153972705E+02  0.66249521988E+02 -0.11102032902E+03  0.12968275051E+03  0.00000000000E+00 0. -1.
          1    1    6    6  503    0 -0.14259557433E+02  0.71683683281E+01  0.22863130577E+02  0.27882668855E+02  0.00000000000E+00 0. -1.
         -1    1    6    6    0  503 -0.52149433640E+02 -0.19150851743E+03  0.13420980551E+03  0.23959830461E+03  0.00000000000E+00 0.  1.
<mgrwt>
<rscale>  0 0.15865831E+04</rscale>
<asrwt>0</asrwt>
<pdfrwt beam="1">  1        2 0.24860041E+00 0.15865831E+04</pdfrwt>
<pdfrwt beam="2">  1       -1 0.59915210E-01 0.15865831E+04</pdfrwt>
<totfact> 0.33747228E+01</totfact>
</mgrwt>
</event>
<event>
12    6  0.1540825E-007  0.2226231E+04  0.7818608E-02  0.8507589E-01
          2   -1    0    0  501    0  0.00000000000E+00  0.00000000000E+00  0.10244458386E+04  0.10244458386E+04  0.00000000000E+00 0. -1.
         -1   -1    0    0    0  501 -0.00000000000E+00 -0.00000000000E+00 -0.12094600725E+04  0.12094600725E+04  0.00000000000E+00 0.  1.
         24    2    1    2    0    0 -0.69095396640E+03  0.48938997550E+03 -0.44524317021E+03  0.95998454633E+03  0.80055710493E+02 0.  0.
        254    2    1    2    0    0  0.69095396640E+03 -0.48938997550E+03  0.26022893628E+03  0.12739213648E+04  0.91555262685E+03 0.  0.
         23    2    4    4    0    0  0.30347617669E+03 -0.60396811018E+02  0.53716732360E+03  0.62646409657E+03  0.90349134745E+02 0.  0.
         23    2    4    4    0    0  0.38747778971E+03 -0.42899316448E+03 -0.27693838732E+03  0.64745726820E+03  0.91279083461E+02 0.  0.
          2    1    3    3  502    0 -0.24170901250E+03  0.13183602286E+03 -0.16624076716E+03  0.32162085802E+03  0.00000000000E+00 0. -1.
         -1    1    3    3    0  502 -0.44924495390E+03  0.35755395264E+03 -0.27900240305E+03  0.63836368831E+03  0.00000000000E+00 0.  1.
         11    1    5    5    0    0  0.76808425605E+02 -0.34525536576E+01  0.69461164195E+02  0.10361615560E+03  0.00000000000E+00 0. -1.
        -11    1    5    5    0    0  0.22666775108E+03 -0.56944257361E+02  0.46770615941E+03  0.52284794097E+03  0.00000000000E+00 0.  1.
          1    1    6    6  503    0  0.17282922131E+03 -0.24373207932E+03 -0.10983159346E+03  0.31833668521E+03  0.00000000000E+00 0. -1.
         -1    1    6    6    0  503  0.21464856840E+03 -0.18526108516E+03 -0.16710679386E+03  0.32912058299E+03  0.00000000000E+00 0.  1.
<mgrwt>
<rscale>  0 0.22262312E+04</rscale>
<asrwt>0</asrwt>
<pdfrwt beam="1">  1        2 0.15760705E+00 0.22262312E+04</pdfrwt>
<pdfrwt beam="2">  1       -1 0.18607078E+00 0.22262312E+04</pdfrwt>
<totfact> 0.47597848E+00</totfact>
</mgrwt>
</event>
<event>
12    6  0.1540825E-007  0.2219284E+04  0.7818608E-02  0.8510444E-01
         -1   -1    0    0    0  501 -0.00000000000E+00  0.00000000000E+00  0.71385974698E+03  0.71385974698E+03  0.00000000000E+00 0.  1.
          2   -1    0    0  501    0  0.00000000000E+00 -0.00000000000E+00 -0.17248567988E+04  0.17248567988E+04  0.00000000000E+00 0. -1.
         24    2    1    2    0    0  0.22982924810E+03 -0.10361475153E+03 -0.13917951527E+04  0.14167026906E+04  0.79970411366E+02 0.  0.
        254    2    1    2    0    0 -0.22982924810E+03  0.10361475153E+03  0.38079810088E+03  0.10220138551E+04  0.91430171516E+03 0.  0.
         23    2    4    4    0    0  0.73047325790E+02 -0.84448011233E+02  0.58409480395E+03  0.60151191632E+03  0.90456990132E+02 0.  0.
         23    2    4    4    0    0 -0.30287657389E+03  0.18806276277E+03 -0.20329670307E+03  0.42050193877E+03  0.91599723157E+02 0.  0.
          2    1    3    3  502    0  0.23524698409E+03 -0.10619094265E+03 -0.13467390362E+04  0.13712489531E+04  0.00000000000E+00 0. -1.
         -1    1    3    3    0  502 -0.54177359891E+01  0.25761911219E+01 -0.45056116435E+02  0.45453737494E+02  0.00000000000E+00 0.  1.
         11    1    5    5    0    0  0.40405390507E+02 -0.39481188601E+02  0.10523768764E+03  0.11944174620E+03  0.00000000000E+00 0. -1.
        -11    1    5    5    0    0  0.32641935283E+02 -0.44966822632E+02  0.47885711631E+03  0.48207017012E+03  0.00000000000E+00 0.  1.
          4    1    6    6  503    0  0.46767619257E+01  0.99486763057E+01 -0.14085048793E+02  0.17867200728E+02  0.00000000000E+00 0. -1.
         -4    1    6    6    0  503 -0.30755333581E+03  0.17811408646E+03 -0.18921165428E+03  0.40263473805E+03  0.00000000000E+00 0.  1.
<mgrwt>
<rscale>  0 0.22192844E+04</rscale>
<asrwt>0</asrwt>
<pdfrwt beam="1">  1        2 0.26536259E+00 0.22192844E+04</pdfrwt>
<pdfrwt beam="2">  1       -1 0.10982458E+00 0.22192844E+04</pdfrwt>
<totfact> 0.75620711E+00</totfact>
</mgrwt>
</event>
<event>
12    6  0.1540825E-007  0.3600413E+04  0.7818608E-02  0.8090397E-01
          2   -1    0    0  501    0  0.00000000000E+00  0.00000000000E+00  0.28024384128E+04  0.28024384128E+04  0.00000000000E+00 0. -1.
         -1   -1    0    0    0  501 -0.00000000000E+00 -0.00000000000E+00 -0.11564011252E+04  0.11564011252E+04  0.00000000000E+00 0.  1.
         24    2    1    2    0    0 -0.86505763427E+03 -0.14457646469E+03 -0.81173498237E+03  0.11976668826E+04  0.79153113614E+02 0.  0.
        254    2    1    2    0    0  0.86505763427E+03  0.14457646469E+03  0.24577722700E+04  0.27611726553E+04  0.90233188834E+03 0.  0.
         23    2    4    4    0    0  0.64899395300E+03 -0.32579332269E+03  0.13661801718E+04  0.15496512363E+04  0.87385652194E+02 0.  0.
         23    2    4    4    0    0  0.21606368127E+03  0.47036978738E+03  0.10915920982E+04  0.12115214190E+04  0.90992245402E+02 0.  0.
          2    1    3    3  502    0 -0.12170623469E+03 -0.30216840537E+02 -0.82658821470E+02  0.15019302840E+03  0.00000000000E+00 0. -1.
         -1    1    3    3    0  502 -0.74335139958E+03 -0.11435962415E+03 -0.72907616090E+03  0.10474738542E+04  0.00000000000E+00 0.  1.
         11    1    5    5    0    0  0.57276515940E+02 -0.47281036443E+02  0.18788417440E+03  0.20203108344E+03  0.00000000000E+00 0.  1.
        -11    1    5    5    0    0  0.59171743706E+03 -0.27851228625E+03  0.11782959974E+04  0.13476201528E+04  0.00000000000E+00 0. -1.
          3    1    6    6  503    0  0.20990623706E+03  0.42295609172E+03  0.92995911276E+03  0.10429652129E+04  0.00000000000E+00 0. -1.
         -3    1    6    6    0  503  0.61574442113E+01  0.47413695655E+02  0.16163298544E+03  0.16855620616E+03  0.00000000000E+00 0.  1.
<mgrwt>
<rscale>  0 0.36004127E+04</rscale>
<asrwt>0</asrwt>
<pdfrwt beam="1">  1        2 0.43114437E+00 0.36004127E+04</pdfrwt>
<pdfrwt beam="2">  1       -1 0.17790787E+00 0.36004127E+04</pdfrwt>
<totfact> 0.45950003E-01</totfact>
</mgrwt>
</event>
<event>
12    6  0.1540825E-007  0.1995098E+04  0.7818608E-02  0.8608916E-01
          2   -1    0    0  501    0  0.00000000000E+00  0.00000000000E+00  0.28202153594E+04  0.28202153594E+04  0.00000000000E+00 0. -1.
         -1   -1    0    0    0  501 -0.00000000000E+00 -0.00000000000E+00 -0.35284673575E+03  0.35284673575E+03  0.00000000000E+00 0.  1.
         24    2    1    2    0    0 -0.10659444504E+03 -0.75238532438E+03  0.61395565221E+03  0.98020324932E+03  0.80067565472E+02 0.  0.
        254    2    1    2    0    0  0.10659444504E+03  0.75238532438E+03  0.18534129714E+04  0.21928588458E+04  0.89221310402E+03 0.  0.
         23    2    4    4    0    0 -0.36800099114E+03  0.22866628100E+03  0.53157098197E+03  0.69173514289E+03  0.90646574665E+02 0.  0.
         23    2    4    4    0    0  0.47459543618E+03  0.52371904337E+03  0.13218419894E+04  0.15011237029E+04  0.81139767992E+02 0.  0.
          2    1    3    3  502    0 -0.44114743730E+02 -0.24661650696E+03  0.25031649457E+03  0.35415273481E+03  0.00000000000E+00 0. -1.
         -1    1    3    3    0  502 -0.62479701311E+02 -0.50576881742E+03  0.36363915765E+03  0.62605051451E+03  0.00000000000E+00 0.  1.
         11    1    5    5    0    0 -0.79744860324E+02  0.77108185842E+02  0.18839874900E+03  0.21862983259E+03  0.00000000000E+00 0. -1.
        -11    1    5    5    0    0 -0.28825613082E+03  0.15155809516E+03  0.34317223296E+03  0.47310531031E+03  0.00000000000E+00 0.  1.
          1    1    6    6  503    0  0.21866996926E+03  0.24282356636E+03  0.52645495993E+03  0.61962461593E+03  0.00000000000E+00 0. -1.
         -1    1    6    6    0  503  0.25592546693E+03  0.28089547702E+03  0.79538702951E+03  0.88149908698E+03  0.00000000000E+00 0.  1.
<mgrwt>
<rscale>  0 0.19950978E+04</rscale>
<asrwt>0</asrwt>
<pdfrwt beam="1">  1        2 0.43387927E+00 0.19950978E+04</pdfrwt>
<pdfrwt beam="2">  1       -1 0.54284115E-01 0.19950978E+04</pdfrwt>
<totfact> 0.81636974E+00</totfact>
</mgrwt>
</event>
<event>
12    6  0.1540825E-007  0.1810012E+04  0.7818608E-02  0.8700994E-01
         -1   -1    0    0    0  501 -0.00000000000E+00  0.00000000000E+00  0.11336084999E+04  0.11336084999E+04  0.00000000000E+00 0.  1.
          2   -1    0    0  501    0  0.00000000000E+00 -0.00000000000E+00 -0.72250291282E+03  0.72250291282E+03  0.00000000000E+00 0. -1.
         24    2    1    2    0    0 -0.27992984326E+03 -0.29856890258E+03 -0.39956043748E+03  0.57743972294E+03  0.79271581823E+02 0.  0.
        254    2    1    2    0    0  0.27992984326E+03  0.29856890258E+03  0.81066602452E+03  0.12786716897E+04  0.90017652717E+03 0.  0.
         23    2    4    4    0    0  0.49845081095E+03  0.23144275179E+03  0.86326257736E+03  0.10269680419E+04  0.86151746422E+02 0.  0.
         23    2    4    4    0    0 -0.21852096768E+03  0.67126150793E+02 -0.52596552838E+02  0.25170364779E+03  0.91274287199E+02 0.  0.
          4    1    3    3  502    0 -0.23650719401E+03 -0.20438785646E+03 -0.28652170631E+03  0.42403388647E+03  0.00000000000E+00 0. -1.
         -3    1    3    3    0  502 -0.43422649251E+02 -0.94181046128E+02 -0.11303873117E+03  0.15340583647E+03  0.00000000000E+00 0.  1.
         11    1    5    5    0    0  0.15623058279E+03  0.69255498520E+02  0.34587617630E+03  0.38579093873E+03  0.00000000000E+00 0.  1.
        -11    1    5    5    0    0  0.34222022816E+03  0.16218725327E+03  0.51738640106E+03  0.64117710322E+03  0.00000000000E+00 0. -1.
          4    1    6    6  503    0 -0.19909324702E+03  0.26156121138E+02 -0.42937194595E+02  0.20534328906E+03  0.00000000000E+00 0. -1.
         -4    1    6    6    0  503 -0.19427720663E+02  0.40970029655E+02 -0.96593582435E+01  0.46360358732E+02  0.00000000000E+00 0.  1.
<mgrwt>
<rscale>  0 0.18100115E+04</rscale>
<asrwt>0</asrwt>
<pdfrwt beam="1">  1        2 0.11115429E+00 0.18100115E+04</pdfrwt>
<pdfrwt beam="2">  1       -1 0.17440131E+00 0.18100115E+04</pdfrwt>
<totfact> 0.96828456E+00</totfact>
</mgrwt>
</event>
<event>
12    6  0.1540825E-007  0.1191016E+04  0.7818608E-02  0.9120757E-01
          2   -1    0    0  501    0  0.00000000000E+00  0.00000000000E+00  0.18425119691E+04  0.18425119691E+04  0.00000000000E+00 0. -1.
         -1   -1    0    0    0  501 -0.00000000000E+00 -0.00000000000E+00 -0.19247085546E+03  0.19247085546E+03  0.00000000000E+00 0.  1.
         24    2    1    2    0    0  0.23428224017E+03 -0.92702326663E+01  0.50412417662E+03  0.56149209647E+03  0.78473458357E+02 0.  0.
        254    2    1    2    0    0 -0.23428224017E+03  0.92702326663E+01  0.11459169371E+04  0.14734907281E+04  0.89614462781E+03 0.  0.
         23    2    4    4    0    0 -0.16546742825E+03 -0.39971869211E+03  0.32219445892E+03  0.54715225770E+03  0.91715980638E+02 0.  0.
         23    2    4    4    0    0 -0.68814811919E+02  0.40898892478E+03  0.82372247813E+03  0.92633847042E+03  0.87044941695E+02 0.  0.
          4    1    3    3  502    0  0.13647821750E+03 -0.32222125112E+02  0.22813605398E+03  0.26778840215E+03  0.00000000000E+00 0. -1.
         -3    1    3    3    0  502  0.97804022671E+02  0.22951892446E+02  0.27598812264E+03  0.29370369432E+03  0.00000000000E+00 0.  1.
         11    1    5    5    0    0 -0.11648710819E+02 -0.63599301789E+02  0.89330354139E+02  0.11027454748E+03  0.00000000000E+00 0.  1.
        -11    1    5    5    0    0 -0.15381871744E+03 -0.33611939032E+03  0.23286410478E+03  0.43687771021E+03  0.00000000000E+00 0. -1.
          1    1    6    6  503    0 -0.69941272036E+02  0.34951690505E+03  0.75841825932E+03  0.83800483562E+03  0.00000000000E+00 0. -1.
         -1    1    6    6    0  503  0.11264601174E+01  0.59472019732E+02  0.65304218812E+02  0.88333634806E+02  0.00000000000E+00 0.  1.
<mgrwt>
<rscale>  0 0.11910161E+04</rscale>
<asrwt>0</asrwt>
<pdfrwt beam="1">  1        2 0.28346337E+00 0.11910161E+04</pdfrwt>
<pdfrwt beam="2">  1       -1 0.29610902E-01 0.11910161E+04</pdfrwt>
<totfact> 0.96014468E+01</totfact>
</mgrwt>
</event>
<event>
12    6  0.1540825E-007  0.1823198E+04  0.7818608E-02  0.8694060E-01
         -1   -1    0    0    0  501 -0.00000000000E+00  0.00000000000E+00  0.12612254489E+04  0.12612254489E+04  0.00000000000E+00 0.  1.
          2   -1    0    0  501    0  0.00000000000E+00 -0.00000000000E+00 -0.65889288607E+03  0.65889288607E+03  0.00000000000E+00 0. -1.
         24    2    1    2    0    0  0.94715215112E+02  0.54884886256E+03 -0.18198280721E+03  0.59121661665E+03  0.78824487092E+02 0.  0.
        254    2    1    2    0    0 -0.94715215112E+02 -0.54884886256E+03  0.78431537005E+03  0.13289017183E+04  0.91685502199E+03 0.  0.
         23    2    4    4    0    0  0.40096049098E+03 -0.30889109121E+03  0.36332978572E+03  0.62963588585E+03  0.90828376657E+02 0.  0.
         23    2    4    4    0    0 -0.49567570609E+03 -0.23995777135E+03  0.42098558434E+03  0.69926583247E+03  0.92030998034E+02 0.  0.
          4    1    3    3  502    0  0.72979410001E+02  0.45482940315E+03 -0.18037821543E+03  0.49470403360E+03  0.00000000000E+00 0. -1.
         -3    1    3    3    0  502  0.21735805111E+02  0.94019459412E+02 -0.16045917839E+01  0.96512583049E+02  0.00000000000E+00 0.  1.
         11    1    5    5    0    0  0.52520531137E+02 -0.11852146562E+02  0.58895685778E+02  0.79797126341E+02  0.00000000000E+00 0.  1.
        -11    1    5    5    0    0  0.34843995984E+03 -0.29703894465E+03  0.30443409994E+03  0.54983875951E+03  0.00000000000E+00 0. -1.
          4    1    6    6  503    0 -0.37247036068E+03 -0.22214452851E+03  0.33419105882E+03  0.54750892680E+03  0.00000000000E+00 0. -1.
         -4    1    6    6    0  503 -0.12320534541E+03 -0.17813242842E+02  0.86794525515E+02  0.15175690567E+03  0.00000000000E+00 0.  1.
<mgrwt>
<rscale>  0 0.18231977E+04</rscale>
<asrwt>0</asrwt>
<pdfrwt beam="1">  1        2 0.10136814E+00 0.18231977E+04</pdfrwt>
<pdfrwt beam="2">  1       -1 0.19403468E+00 0.18231977E+04</pdfrwt>
<totfact> 0.78755567E+00</totfact>
</mgrwt>
</event>
<event>
12    6  0.1540825E-007  0.1696494E+04  0.7818608E-02  0.8763367E-01
          2   -1    0    0  501    0  0.00000000000E+00  0.00000000000E+00  0.36629794011E+04  0.36629794011E+04  0.00000000000E+00 0. -1.
         -1   -1    0    0    0  501 -0.00000000000E+00 -0.00000000000E+00 -0.19643102985E+03  0.19643102985E+03  0.00000000000E+00 0.  1.
         24    2    1    2    0    0 -0.58752352487E+02  0.97184206542E+01 -0.12383891791E+03  0.15970300316E+03  0.81379880843E+02 0.  0.
        254    2    1    2    0    0  0.58752352487E+02 -0.97184206542E+01  0.35903872892E+04  0.36997074278E+04  0.89073446016E+03 0.  0.
         23    2    4    4    0    0 -0.25959451261E+01 -0.43107609142E+03  0.21661737706E+04  0.22106611676E+04  0.94237242902E+02 0.  0.
         23    2    4    4    0    0  0.61348297613E+02  0.42135767077E+03  0.14242135186E+04  0.14890462602E+04  0.86998380645E+02 0.  0.
          4    1    3    3  502    0 -0.20014458686E+02 -0.32655925407E+02 -0.26098495029E+02  0.46347809694E+02  0.00000000000E+00 0. -1.
         -3    1    3    3    0  502 -0.38737893801E+02  0.42374346061E+02 -0.97740422883E+02  0.11335519347E+03  0.00000000000E+00 0.  1.
         11    1    5    5    0    0 -0.10696865098E+02 -0.54038479492E+02  0.15658016827E+03  0.16598773836E+03  0.00000000000E+00 0.  1.
        -11    1    5    5    0    0  0.81009199720E+01 -0.37703761193E+03  0.20095936024E+04  0.20446734293E+04  0.00000000000E+00 0. -1.
          4    1    6    6  503    0  0.39193267378E+02  0.36985312829E+03  0.13106081550E+04  0.13623586843E+04  0.00000000000E+00 0. -1.
         -4    1    6    6    0  503  0.22155030235E+02  0.51504542480E+02  0.11360536359E+03  0.12668757594E+03  0.00000000000E+00 0.  1.
<mgrwt>
<rscale>  0 0.16964938E+04</rscale>
<asrwt>0</asrwt>
<pdfrwt beam="1">  1        2 0.56353524E+00 0.16964938E+04</pdfrwt>
<pdfrwt beam="2">  1       -1 0.30220161E-01 0.16964938E+04</pdfrwt>
<totfact> 0.68670689E+00</totfact>
</mgrwt>
</event>
<event>
12    6  0.1540825E-007  0.1653918E+04  0.7818608E-02  0.8788092E-01
          2   -1    0    0  501    0  0.00000000000E+00  0.00000000000E+00  0.16123986355E+04  0.16123986355E+04  0.00000000000E+00 0. -1.
         -1   -1    0    0    0  501 -0.00000000000E+00 -0.00000000000E+00 -0.42412659286E+03  0.42412659286E+03  0.00000000000E+00 0.  1.
         24    2    1    2    0    0  0.36108377617E+03  0.17282126121E+03 -0.96607859708E+02  0.41778127232E+03  0.70423229145E+02 0.  0.
        254    2    1    2    0    0 -0.36108377617E+03 -0.17282126121E+03  0.12848799024E+04  0.16187439561E+04  0.89953707543E+03 0.  0.
         23    2    4    4    0    0 -0.16853872580E+03 -0.53253987759E+03  0.75956384001E+03  0.94732601007E+03  0.92115791154E+02 0.  0.
         23    2    4    4    0    0 -0.19254505037E+03  0.35971861638E+03  0.52531606235E+03  0.67141794600E+03  0.91509635858E+02 0.  0.
          2    1    3    3  502    0  0.47244075953E+02 -0.14357200544E+01 -0.15692644386E+02  0.49802842213E+02  0.00000000000E+00 0. -1.
         -1    1    3    3    0  502  0.31383970021E+03  0.17425698127E+03 -0.80915215322E+02  0.36797843010E+03  0.00000000000E+00 0.  1.
         11    1    5    5    0    0 -0.89642059652E+02 -0.26316616654E+03  0.45441202074E+03  0.53271231886E+03  0.00000000000E+00 0.  1.
        -11    1    5    5    0    0 -0.78896666144E+02 -0.26937371105E+03  0.30515181927E+03  0.41461369120E+03  0.00000000000E+00 0. -1.
          2    1    6    6  503    0 -0.73417142207E+02  0.21092970610E+03  0.33033282983E+03  0.39874954062E+03  0.00000000000E+00 0. -1.
         -2    1    6    6    0  503 -0.11912790816E+03  0.14878891028E+03  0.19498323252E+03  0.27266840538E+03  0.00000000000E+00 0.  1.
<mgrwt>
<rscale>  0 0.16539179E+04</rscale>
<asrwt>0</asrwt>
<pdfrwt beam="1">  1        2 0.24806133E+00 0.16539179E+04</pdfrwt>
<pdfrwt beam="2">  1       -1 0.65250246E-01 0.16539179E+04</pdfrwt>
<totfact> 0.28431821E+01</totfact>
</mgrwt>
</event>
<event>
12    6  0.1540825E-007  0.1190281E+04  0.7818608E-02  0.9121406E-01
         -1   -1    0    0    0  501 -0.00000000000E+00  0.00000000000E+00  0.27634657869E+03  0.27634657869E+03  0.00000000000E+00 0.  1.
          2   -1    0    0  501    0  0.00000000000E+00 -0.00000000000E+00 -0.12816961337E+04  0.12816961337E+04  0.00000000000E+00 0. -1.
         24    2    1    2    0    0 -0.25612031143E+03 -0.15053306277E+02 -0.29302261264E+03  0.39744610115E+03  0.79227115574E+02 0.  0.
        254    2    1    2    0    0  0.25612031143E+03  0.15053306277E+02 -0.71232694237E+03  0.11605966112E+04  0.87963094833E+03 0.  0.
         23    2    4    4    0    0  0.18681840906E+02  0.34121513071E+03 -0.65374540763E+03  0.74331202826E+03  0.91394402226E+02 0.  0.
         23    2    4    4    0    0  0.23743847052E+03 -0.32616182444E+03 -0.58581534746E+02  0.41728458299E+03  0.89084588918E+02 0.  0.
          2    1    3    3  502    0 -0.20011264747E+03 -0.41631492528E+02 -0.24475105306E+03  0.31887510223E+03  0.00000000000E+00 0. -1.
         -1    1    3    3    0  502 -0.56007663960E+02  0.26578186251E+02 -0.48271559574E+02  0.78570998914E+02  0.00000000000E+00 0.  1.
         11    1    5    5    0    0  0.31460495502E+02  0.18427843533E+03 -0.43793020673E+03  0.47616296630E+03  0.00000000000E+00 0.  1.
        -11    1    5    5    0    0 -0.12778654595E+02  0.15693669538E+03 -0.21581520089E+03  0.26714906196E+03  0.00000000000E+00 0. -1.
          2    1    6    6  503    0 -0.62807311146E+01 -0.17955086615E+01  0.24868262868E+01  0.69896880952E+01  0.00000000000E+00 0. -1.
         -2    1    6    6    0  503  0.24371920164E+03 -0.32436631577E+03 -0.61068361033E+02  0.41029489489E+03  0.00000000000E+00 0.  1.
<mgrwt>
<rscale>  0 0.11902812E+04</rscale>
<asrwt>0</asrwt>
<pdfrwt beam="1">  1        2 0.19718403E+00 0.11902812E+04</pdfrwt>
<pdfrwt beam="2">  1       -1 0.42514857E-01 0.11902812E+04</pdfrwt>
<totfact> 0.10374565E+02</totfact>
</mgrwt>
</event>
<event>
12    6  0.1540825E-007  0.1614240E+04  0.7818608E-02  0.8811847E-01
          2   -1    0    0  501    0  0.00000000000E+00  0.00000000000E+00  0.21256025968E+04  0.21256025968E+04  0.00000000000E+00 0. -1.
         -1   -1    0    0    0  501 -0.00000000000E+00 -0.00000000000E+00 -0.30647443337E+03  0.30647443337E+03  0.00000000000E+00 0.  1.
         24    2    1    2    0    0  0.31574866065E+03  0.38204488435E+03  0.98332615311E+03  0.11036975956E+04  0.74582496691E+02 0.  0.
        254    2    1    2    0    0 -0.31574866065E+03 -0.38204488435E+03  0.83580201031E+03  0.13283794345E+04  0.90574356820E+03 0.  0.
         23    2    4    4    0    0  0.76415360747E+02 -0.56118812954E+03  0.60064652955E+03  0.83022223326E+03  0.87870808790E+02 0.  0.
         23    2    4    4    0    0 -0.39216402140E+03  0.17914324519E+03  0.23515548076E+03  0.49815720129E+03  0.83531880664E+02 0.  0.
          4    1    3    3  502    0  0.21270766354E+03  0.21506144769E+03  0.54140021298E+03  0.62016946638E+03  0.00000000000E+00 0. -1.
         -3    1    3    3    0  502  0.10304099712E+03  0.16698343666E+03  0.44192594013E+03  0.48352812924E+03  0.00000000000E+00 0.  1.
         11    1    5    5    0    0  0.48240466967E+01 -0.28829088165E+03  0.34365099862E+03  0.44858768677E+03  0.00000000000E+00 0. -1.
        -11    1    5    5    0    0  0.71591314051E+02 -0.27289724789E+03  0.25699553093E+03  0.38163454649E+03  0.00000000000E+00 0.  1.
          1    1    6    6  503    0 -0.87740861755E+02  0.20955200326E+02  0.84006405940E+02  0.12326660327E+03  0.00000000000E+00 0.  1.
         -1    1    6    6    0  503 -0.30442315965E+03  0.15818804486E+03  0.15114907482E+03  0.37489059802E+03  0.00000000000E+00 0. -1.
<mgrwt>
<rscale>  0 0.16142402E+04</rscale>
<asrwt>0</asrwt>
<pdfrwt beam="1">  1        2 0.32701578E+00 0.16142402E+04</pdfrwt>
<pdfrwt beam="2">  1       -1 0.47149914E-01 0.16142402E+04</pdfrwt>
<totfact> 0.27840820E+01</totfact>
</mgrwt>
</event>
<event>
12    6  0.1540825E-007  0.1591667E+04  0.7818608E-02  0.8825683E-01
          2   -1    0    0  501    0  0.00000000000E+00  0.00000000000E+00  0.49781390870E+03  0.49781390870E+03  0.00000000000E+00 0. -1.
         -1   -1    0    0    0  501 -0.00000000000E+00 -0.00000000000E+00 -0.12722650632E+04  0.12722650632E+04  0.00000000000E+00 0.  1.
         24    2    1    2    0    0 -0.40251055690E+03  0.18381515099E+03  0.68002509464E+02  0.45539623805E+03  0.83418428345E+02 0.  0.
        254    2    1    2    0    0  0.40251055690E+03 -0.18381515099E+03 -0.84245366398E+03  0.13146827339E+04  0.90711617593E+03 0.  0.
         23    2    4    4    0    0  0.42198385268E+03  0.19312240197E+03 -0.10961147843E+03  0.48556254804E+03  0.91595184330E+02 0.  0.
         23    2    4    4    0    0 -0.19473295774E+02 -0.37693755297E+03 -0.73284218555E+03  0.82912018583E+03  0.89002727718E+02 0.  0.
          4    1    3    3  502    0 -0.31735189486E+03  0.12270241515E+03  0.22088186014E+02  0.34096333500E+03  0.00000000000E+00 0. -1.
         -3    1    3    3    0  502 -0.85158662045E+02  0.61112735837E+02  0.45914323451E+02  0.11443290305E+03  0.00000000000E+00 0.  1.
         11    1    5    5    0    0  0.10746733095E+02 -0.69272757790E+01  0.56014147899E+01  0.13959056901E+02  0.00000000000E+00 0.  1.
        -11    1    5    5    0    0  0.41123711958E+03  0.20004967775E+03 -0.11521289322E+03  0.47160349114E+03  0.00000000000E+00 0. -1.
          1    1    6    6  503    0 -0.47544720720E+02 -0.22973737127E+03 -0.39288605084E+03  0.45760158345E+03  0.00000000000E+00 0. -1.
         -1    1    6    6    0  503  0.28071424946E+02 -0.14720018169E+03 -0.33995613471E+03  0.37151860238E+03  0.00000000000E+00 0.  1.
<mgrwt>
<rscale>  0 0.15916674E+04</rscale>
<asrwt>0</asrwt>
<pdfrwt beam="1">  1        2 0.76586757E-01 0.15916674E+04</pdfrwt>
<pdfrwt beam="2">  1       -1 0.19573308E+00 0.15916674E+04</pdfrwt>
<totfact> 0.10936350E+01</totfact>
</mgrwt>
</event>
<event>
12    6  0.1540825E-007  0.1957854E+04  0.7818608E-02  0.8626583E-01
          2   -1    0    0  501    0  0.00000000000E+00  0.00000000000E+00  0.46160817897E+03  0.46160817897E+03  0.00000000000E+00 0. -1.
         -1   -1    0    0    0  501 -0.00000000000E+00 -0.00000000000E+00 -0.20759982531E+04  0.20759982531E+04  0.00000000000E+00 0.  1.
         24    2    1    2    0    0 -0.38958282456E+03  0.19570318769E+02  0.18213680889E+03  0.44427483013E+03  0.10976580964E+03 0.  0.
        254    2    1    2    0    0  0.38958282456E+03 -0.19570318769E+02 -0.17965268830E+04  0.20933316019E+04  0.10011845882E+04 0.  0.
         23    2    4    4    0    0  0.56512696308E+03 -0.35741833722E+03 -0.10089465809E+04  0.12138145081E+04  0.90863109963E+02 0.  0.
         23    2    4    4    0    0 -0.17554413852E+03  0.33784801845E+03 -0.78758030212E+03  0.87951709386E+03  0.91162261690E+02 0.  0.
          2    1    3    3  502    0 -0.38797197268E+03  0.20803211557E+02  0.19257877891E+03  0.43363764975E+03  0.00000000000E+00 0. -1.
         -1    1    3    3    0  502 -0.16108518835E+01 -0.12328927878E+01 -0.10441970026E+02  0.10637180380E+02  0.00000000000E+00 0.  1.
         11    1    5    5    0    0  0.13638609341E+03 -0.45993760555E+02 -0.24303676166E+03  0.28245966084E+03  0.00000000000E+00 0.  1.
        -11    1    5    5    0    0  0.42874086967E+03 -0.31142457666E+03 -0.76590981922E+03  0.93135484723E+03  0.00000000000E+00 0. -1.
          1    1    6    6  503    0 -0.17909647871E+03  0.33868848967E+03 -0.75415588740E+03  0.84589393201E+03  0.00000000000E+00 0. -1.
         -1    1    6    6    0  503  0.35523401894E+01 -0.84047121954E+00 -0.33424414723E+02  0.33623161842E+02  0.00000000000E+00 0.  1.
<mgrwt>
<rscale>  0 0.19578537E+04</rscale>
<asrwt>0</asrwt>
<pdfrwt beam="1">  1        2 0.71016643E-01 0.19578537E+04</pdfrwt>
<pdfrwt beam="2">  1       -1 0.31938435E+00 0.19578537E+04</pdfrwt>
<totfact> 0.17794088E+00</totfact>
</mgrwt>
</event>
<event>
12    6  0.1540825E-007  0.1676276E+04  0.7818608E-02  0.8775012E-01
          2   -1    0    0  501    0  0.00000000000E+00  0.00000000000E+00  0.62914066720E+03  0.62914066720E+03  0.00000000000E+00 0. -1.
         -1   -1    0    0    0  501 -0.00000000000E+00 -0.00000000000E+00 -0.11165625981E+04  0.11165625981E+04  0.00000000000E+00 0.  1.
         24    2    1    2    0    0  0.14709218153E+02 -0.22478151608E+03 -0.72144217736E+03  0.76204212072E+03  0.97397573909E+02 0.  0.
        254    2    1    2    0    0 -0.14709218153E+02  0.22478151608E+03  0.23402024648E+03  0.98366114455E+03  0.92848299956E+03 0.  0.
         23    2    4    4    0    0 -0.42903553656E+02  0.17431995630E+03  0.58366939120E+03  0.61737257542E+03  0.90833785380E+02 0.  0.
         23    2    4    4    0    0  0.28194335503E+02  0.50461559776E+02 -0.34964914472E+03  0.36628856914E+03  0.92582406038E+02 0.  0.
          2    1    3    3  502    0  0.28463163120E+02 -0.11283772969E+02 -0.11337740796E+03  0.11743897063E+03  0.00000000000E+00 0. -1.
         -1    1    3    3    0  502 -0.13753944966E+02 -0.21349774311E+03 -0.60806476940E+03  0.64460315009E+03  0.00000000000E+00 0.  1.
         11    1    5    5    0    0 -0.47631651972E+02  0.37934521688E+02  0.23988854754E+03  0.24749609582E+03  0.00000000000E+00 0. -1.
        -11    1    5    5    0    0  0.47280983159E+01  0.13638543461E+03  0.34378084366E+03  0.36987647959E+03  0.00000000000E+00 0.  1.
          4    1    6    6  503    0  0.55048436487E+02  0.48843018375E+02 -0.17909877872E+03  0.19362939689E+03  0.00000000000E+00 0. -1.
         -4    1    6    6    0  503 -0.26854100985E+02  0.16185414007E+01 -0.17055036600E+03  0.17265917224E+03  0.00000000000E+00 0.  1.
<mgrwt>
<rscale>  0 0.16762756E+04</rscale>
<asrwt>0</asrwt>
<pdfrwt beam="1">  1        2 0.96790873E-01 0.16762756E+04</pdfrwt>
<pdfrwt beam="2">  1       -1 0.17177886E+00 0.16762756E+04</pdfrwt>
<totfact> 0.12170206E+01</totfact>
</mgrwt>
</event>
<event>
12    6  0.1540825E-007  0.1936931E+04  0.7818608E-02  0.8636689E-01
          2   -1    0    0  501    0  0.00000000000E+00  0.00000000000E+00  0.88544715621E+03  0.88544715621E+03  0.00000000000E+00 0. -1.
         -1   -1    0    0    0  501 -0.00000000000E+00 -0.00000000000E+00 -0.10592677191E+04  0.10592677191E+04  0.00000000000E+00 0.  1.
         24    2    1    2    0    0 -0.37228218942E+03 -0.52409108072E+03  0.33542492071E+03  0.72965962556E+03  0.81411315435E+02 0.  0.
        254    2    1    2    0    0  0.37228218942E+03  0.52409108072E+03 -0.50924548362E+03  0.12150552498E+04  0.89652819697E+03 0.  0.
         23    2    4    4    0    0 -0.64761262549E+02 -0.16975960015E+03 -0.30251045734E+03  0.36432489821E+03  0.90596422028E+02 0.  0.
         23    2    4    4    0    0  0.43704345197E+03  0.69385068087E+03 -0.20673502628E+03  0.85073035156E+03  0.92558163995E+02 0.  0.
          2    1    3    3  502    0 -0.23148765876E+03 -0.38363721170E+03  0.21292227725E+03  0.49608461225E+03  0.00000000000E+00 0. -1.
         -1    1    3    3    0  502 -0.14079453066E+03 -0.14045386902E+03  0.12250264347E+03  0.23357501331E+03  0.00000000000E+00 0.  1.
         11    1    5    5    0    0 -0.81712574344E+01 -0.11578613853E+03 -0.23023005529E+03  0.25783536934E+03  0.00000000000E+00 0.  1.
        -11    1    5    5    0    0 -0.56590005115E+02 -0.53973461619E+02 -0.72280402052E+02  0.10648952887E+03  0.00000000000E+00 0. -1.
          1    1    6    6  503    0  0.41626916786E+03  0.60778550406E+03 -0.18264399250E+03  0.75897435204E+03  0.00000000000E+00 0. -1.
         -1    1    6    6    0  503  0.20774284110E+02  0.86065176815E+02 -0.24091033773E+02  0.91755999524E+02  0.00000000000E+00 0.  1.
<mgrwt>
<rscale>  0 0.19369312E+04</rscale>
<asrwt>0</asrwt>
<pdfrwt beam="1">  1        2 0.13622264E+00 0.19369312E+04</pdfrwt>
<pdfrwt beam="2">  1       -1 0.16296426E+00 0.19369312E+04</pdfrwt>
<totfact> 0.88721636E+00</totfact>
</mgrwt>
</event>
<event>
12    6  0.1540825E-007  0.1278483E+04  0.7818608E-02  0.9046805E-01
          2   -1    0    0  501    0  0.00000000000E+00  0.00000000000E+00  0.12782239768E+04  0.12782239768E+04  0.00000000000E+00 0. -1.
         -1   -1    0    0    0  501 -0.00000000000E+00 -0.00000000000E+00 -0.31968546843E+03  0.31968546843E+03  0.00000000000E+00 0.  1.
         24    2    1    2    0    0 -0.24010568433E+03 -0.18119347546E+03  0.35926071282E+03  0.47501530935E+03  0.78035050757E+02 0.  0.
        254    2    1    2    0    0  0.24010568433E+03  0.18119347546E+03  0.59927779559E+03  0.11228941359E+04  0.90070835956E+03 0.  0.
         23    2    4    4    0    0  0.38338393490E+03  0.47055420610E+03  0.38613603547E+03  0.72542666269E+03  0.93478888700E+02 0.  0.
         23    2    4    4    0    0 -0.14327825056E+03 -0.28936073064E+03  0.21314176012E+03  0.39746747323E+03  0.91064223727E+02 0.  0.
          4    1    3    3  502    0 -0.54489447182E+02 -0.74381646110E+02  0.14676754783E+03  0.17332755761E+03  0.00000000000E+00 0. -1.
         -3    1    3    3    0  502 -0.18561623715E+03 -0.10681182935E+03  0.21249316499E+03  0.30168775174E+03  0.00000000000E+00 0.  1.
         11    1    5    5    0    0  0.18485928141E+03  0.28449302910E+03  0.24821540712E+03  0.42038092947E+03  0.00000000000E+00 0.  1.
        -11    1    5    5    0    0  0.19852465349E+03  0.18606117700E+03  0.13792062835E+03  0.30504573322E+03  0.00000000000E+00 0. -1.
          3    1    6    6  503    0 -0.37636765606E+02 -0.13400565511E+03  0.13528506262E+03  0.19410329697E+03  0.00000000000E+00 0. -1.
         -3    1    6    6    0  503 -0.10564148496E+03 -0.15535507554E+03  0.77856697494E+02  0.20336417626E+03  0.00000000000E+00 0.  1.
<mgrwt>
<rscale>  0 0.12784829E+04</rscale>
<asrwt>0</asrwt>
<pdfrwt beam="1">  1        2 0.19664984E+00 0.12784829E+04</pdfrwt>
<pdfrwt beam="2">  1       -1 0.49182381E-01 0.12784829E+04</pdfrwt>
<totfact> 0.78874249E+01</totfact>
</mgrwt>
</event>
<event>
12    6  0.1813018E-007  0.1974831E+04  0.7818608E-02  0.8618479E-01
          2   -1    0    0  501    0  0.00000000000E+00  0.00000000000E+00  0.28272415730E+04  0.28272415730E+04  0.00000000000E+00 0. -1.
         -1   -1    0    0    0  501 -0.00000000000E+00 -0.00000000000E+00 -0.34485539195E+03  0.34485539195E+03  0.00000000000E+00 0.  1.
         24    2    1    2    0    0 -0.33250188791E+03  0.80805210180E+02 -0.14072648649E+03  0.37880160376E+03  0.81238682616E+02 0.  0.
        254    2    1    2    0    0  0.33250188791E+03 -0.80805210180E+02  0.26231126676E+04  0.27932953612E+04  0.89704621997E+03 0.  0.
         23    2    4    4    0    0 -0.27720127323E+03 -0.16372105215E+03  0.80654721342E+03  0.87321871303E+03  0.91364021996E+02 0.  0.
         23    2    4    4    0    0  0.60970316115E+03  0.82915841972E+02  0.18165654542E+04  0.19200766482E+04  0.90395266068E+02 0.  0.
          4    1    3    3  502    0 -0.73823935617E+02  0.38800396726E+02 -0.46896960633E+01  0.83531057130E+02  0.00000000000E+00 0. -1.
         -3    1    3    3    0  502 -0.25867795230E+03  0.42004813455E+02 -0.13603679043E+03  0.29527054663E+03  0.00000000000E+00 0.  1.
         11    1    5    5    0    0 -0.22779141485E+02 -0.43560581861E+02  0.77680190721E+02  0.91927284357E+02  0.00000000000E+00 0. -1.
        -11    1    5    5    0    0 -0.25442213175E+03 -0.12016047029E+03  0.72886702270E+03  0.78129142868E+03  0.00000000000E+00 0.  1.
          2    1    6    6  503    0  0.48497942027E+02 -0.35628885196E+01  0.22656670314E+03  0.23172659651E+03  0.00000000000E+00 0. -1.
         -2    1    6    6    0  503  0.56120521912E+03  0.86478730491E+02  0.15899987510E+04  0.16883500517E+04  0.00000000000E+00 0.  1.
<mgrwt>
<rscale>  0 0.19748311E+04</rscale>
<asrwt>0</asrwt>
<pdfrwt beam="1">  1        2 0.43496023E+00 0.19748311E+04</pdfrwt>
<pdfrwt beam="2">  1       -1 0.53054677E-01 0.19748311E+04</pdfrwt>
<totfact> 0.84651116E+00</totfact>
</mgrwt>
</event>
<event>
12    6  0.1540825E-007  0.1402289E+04  0.7818608E-02  0.8952163E-01
          2   -1    0    0  501    0  0.00000000000E+00  0.00000000000E+00  0.29186167457E+04  0.29186167457E+04  0.00000000000E+00 0. -1.
         -1   -1    0    0    0  501 -0.00000000000E+00 -0.00000000000E+00 -0.16843729555E+03  0.16843729555E+03  0.00000000000E+00 0.  1.
         24    2    1    2    0    0  0.35962119609E+02 -0.15205630990E+03 -0.12144970949E+02  0.17622854632E+03  0.80589110863E+02 0.  0.
        254    2    1    2    0    0 -0.35962119609E+02  0.15205630990E+03  0.27623244211E+04  0.29108254949E+04  0.90446363062E+03 0.  0.
         23    2    4    4    0    0 -0.19205294599E+03  0.31944959013E+03  0.47577257529E+03  0.61099195112E+03  0.89550244204E+02 0.  0.
         23    2    4    4    0    0  0.15609082638E+03 -0.16739328023E+03  0.22865518458E+04  0.22998335438E+04  0.92358699276E+02 0.  0.
          2    1    3    3  502    0  0.35979411192E+02 -0.95150399494E+02  0.29263758715E+02  0.10585123583E+03  0.00000000000E+00 0. -1.
         -3    1    3    3    0  502 -0.17291582274E-01 -0.56905910410E+02 -0.41408729664E+02  0.70377310484E+02  0.00000000000E+00 0.  1.
         11    1    5    5    0    0 -0.32870433769E+02  0.82007695885E+02  0.61436230676E+02  0.10761104981E+03  0.00000000000E+00 0.  1.
        -11    1    5    5    0    0 -0.15918251222E+03  0.23744189425E+03  0.41433634462E+03  0.50338090132E+03  0.00000000000E+00 0. -1.
          1    1    6    6  503    0  0.15790136451E+03 -0.11840969254E+03  0.18832310900E+04  0.18935450971E+04  0.00000000000E+00 0. -1.
         -1    1    6    6    0  503 -0.18105381305E+01 -0.48983587684E+02  0.40332075576E+03  0.40628844671E+03  0.00000000000E+00 0.  1.
<mgrwt>
<rscale>  0 0.14022894E+04</rscale>
<asrwt>0</asrwt>
<pdfrwt beam="1">  1        2 0.44901792E+00 0.14022894E+04</pdfrwt>
<pdfrwt beam="2">  1       -1 0.25913432E-01 0.14022894E+04</pdfrwt>
<totfact> 0.28784848E+01</totfact>
</mgrwt>
</event>
<event>
12    6  0.1540825E-007  0.1638940E+04  0.7818608E-02  0.8796976E-01
         -1   -1    0    0    0  501 -0.00000000000E+00  0.00000000000E+00  0.38475321526E+03  0.38475321526E+03  0.00000000000E+00 0.  1.
          2   -1    0    0  501    0  0.00000000000E+00 -0.00000000000E+00 -0.17453554942E+04  0.17453554942E+04  0.00000000000E+00 0. -1.
         24    2    1    2    0    0  0.11307248615E+03 -0.20325384930E+03 -0.11501955375E+04  0.11759825818E+04  0.76731634378E+02 0.  0.
        254    2    1    2    0    0 -0.11307248615E+03  0.20325384930E+03 -0.21040674139E+03  0.95412612767E+03  0.90110385433E+03 0.  0.
         23    2    4    4    0    0 -0.47306556074E+03  0.15264617620E+03  0.34654584827E+02  0.50657692159E+03  0.91254355407E+02 0.  0.
         23    2    4    4    0    0  0.35999307458E+03  0.50607673106E+02 -0.24506132622E+03  0.44754920607E+03  0.89939356926E+02 0.  0.
          2    1    3    3  502    0  0.78415498303E+02 -0.11882867005E+03 -0.86213286927E+03  0.87380909098E+03  0.00000000000E+00 0. -1.
         -1    1    3    3    0  502  0.34656987849E+02 -0.84425179247E+02 -0.28806266826E+03  0.30217349080E+03  0.00000000000E+00 0.  1.
         11    1    5    5    0    0 -0.12300348723E+03  0.65406233668E+01  0.31888836919E+02  0.12723810571E+03  0.00000000000E+00 0.  1.
        -11    1    5    5    0    0 -0.35006207351E+03  0.14610555283E+03  0.27657479086E+01  0.37933881589E+03  0.00000000000E+00 0. -1.
          1    1    6    6  503    0  0.32871413583E+03  0.30934169356E+02 -0.18908807260E+03  0.38047891548E+03  0.00000000000E+00 0. -1.
         -1    1    6    6    0  503  0.31278938758E+02  0.19673503749E+02 -0.55973253622E+02  0.67070290596E+02  0.00000000000E+00 0.  1.
<mgrwt>
<rscale>  0 0.16389401E+04</rscale>
<asrwt>0</asrwt>
<pdfrwt beam="1">  1        2 0.26851623E+00 0.16389401E+04</pdfrwt>
<pdfrwt beam="2">  1       -1 0.59192803E-01 0.16389401E+04</pdfrwt>
<totfact> 0.29155625E+01</totfact>
</mgrwt>
</event>
<event>
12    6  0.1540825E-007  0.1914983E+04  0.7818608E-02  0.8647434E-01
         -1   -1    0    0    0  501 -0.00000000000E+00  0.00000000000E+00  0.32751601830E+03  0.32751601830E+03  0.00000000000E+00 0.  1.
          2   -1    0    0  501    0  0.00000000000E+00 -0.00000000000E+00 -0.27992212569E+04  0.27992212569E+04  0.00000000000E+00 0. -1.
         24    2    1    2    0    0 -0.42303138160E+03 -0.33926239038E+03 -0.18054613214E+04  0.18868217984E+04  0.79695647902E+02 0.  0.
        254    2    1    2    0    0  0.42303138160E+03  0.33926239038E+03 -0.66624391721E+03  0.12399154769E+04  0.89412242630E+03 0.  0.
         23    2    4    4    0    0 -0.39798564613E+02 -0.14064035508E+03 -0.52488686155E+03  0.55222211313E+03  0.89885535968E+02 0.  0.
         23    2    4    4    0    0  0.46282994621E+03  0.47990274546E+03 -0.14135705566E+03  0.68769336374E+03  0.91772224224E+02 0.  0.
          2    1    3    3  502    0 -0.42646020781E+03 -0.33347966700E+03 -0.17841213974E+04  0.18644479498E+04  0.00000000000E+00 0. -1.
         -1    1    3    3    0  502  0.34288262109E+01 -0.57827233763E+01 -0.21339924072E+02  0.22373848534E+02  0.00000000000E+00 0.  1.
         11    1    5    5    0    0  0.67051941575E+01 -0.99862220026E+02 -0.22863077340E+03  0.24957855109E+03  0.00000000000E+00 0. -1.
        -11    1    5    5    0    0 -0.46503758770E+02 -0.40778135052E+02 -0.29625608815E+03  0.30264356203E+03  0.00000000000E+00 0.  1.
          3    1    6    6  503    0  0.18476281968E+03  0.24020349352E+03 -0.95420079629E+02  0.31771057495E+03  0.00000000000E+00 0. -1.
         -3    1    6    6    0  503  0.27806712653E+03  0.23969925194E+03 -0.45936976026E+02  0.36998278880E+03  0.00000000000E+00 0.  1.
<mgrwt>
<rscale>  0 0.19149828E+04</rscale>
<asrwt>0</asrwt>
<pdfrwt beam="1">  1        2 0.43064941E+00 0.19149828E+04</pdfrwt>
<pdfrwt beam="2">  1       -1 0.50387082E-01 0.19149828E+04</pdfrwt>
<totfact> 0.97688807E+00</totfact>
</mgrwt>
</event>
<event>
12    6  0.1540825E-007  0.2264416E+04  0.7818608E-02  0.8492085E-01
          2   -1    0    0  501    0  0.00000000000E+00  0.00000000000E+00  0.18320007494E+04  0.18320007494E+04  0.00000000000E+00 0. -1.
         -1   -1    0    0    0  501 -0.00000000000E+00 -0.00000000000E+00 -0.69972427946E+03  0.69972427946E+03  0.00000000000E+00 0.  1.
         24    2    1    2    0    0 -0.83061382167E+03  0.42405503309E+03  0.25781822698E+03  0.96937890572E+03  0.59018919459E+02 0.  0.
        254    2    1    2    0    0  0.83061382167E+03 -0.42405503309E+03  0.87445824295E+03  0.15623461231E+04  0.89805690128E+03 0.  0.
         23    2    4    4    0    0  0.66236639405E+03  0.14617011750E+03  0.37821321379E+03  0.78237706134E+03  0.94729550870E+02 0.  0.
         23    2    4    4    0    0  0.16824742762E+03 -0.57022515059E+03  0.49624502916E+03  0.77996906178E+03  0.92890737485E+02 0.  0.
          4    1    3    3  502    0 -0.71835434429E+03  0.35408362972E+03  0.20312486942E+03  0.82623718954E+03  0.00000000000E+00 0. -1.
         -1    1    3    3    0  502 -0.11225947738E+03  0.69971403362E+02  0.54693357558E+02  0.14314171618E+03  0.00000000000E+00 0.  1.
         11    1    5    5    0    0  0.33186253646E+03  0.72415517709E+02  0.13529130307E+03  0.36562342239E+03  0.00000000000E+00 0.  1.
        -11    1    5    5    0    0  0.33050385758E+03  0.73754599794E+02  0.24292191072E+03  0.41675363895E+03  0.00000000000E+00 0. -1.
          2    1    6    6  503    0  0.62750242197E+02 -0.36104202491E+03  0.28053602247E+03  0.46150774268E+03  0.00000000000E+00 0. -1.
         -2    1    6    6    0  503  0.10549718543E+03 -0.20918312568E+03  0.21570900668E+03  0.31846131910E+03  0.00000000000E+00 0.  1.
<mgrwt>
<rscale>  0 0.22644164E+04</rscale>
<asrwt>0</asrwt>
<pdfrwt beam="1">  1        2 0.28184627E+00 0.22644164E+04</pdfrwt>
<pdfrwt beam="2">  1       -1 0.10764989E+00 0.22644164E+04</pdfrwt>
<totfact> 0.68851940E+00</totfact>
</mgrwt>
</event>
<event>
12    6  0.1540825E-007  0.2219740E+04  0.7818608E-02  0.8510257E-01
          2   -1    0    0  501    0  0.00000000000E+00  0.00000000000E+00  0.17874489214E+04  0.17874489214E+04  0.00000000000E+00 0. -1.
         -1   -1    0    0    0  501 -0.00000000000E+00 -0.00000000000E+00 -0.68914465808E+03  0.68914465808E+03  0.00000000000E+00 0.  1.
         24    2    1    2    0    0  0.63753468515E+03 -0.61657937650E+03  0.17093522605E+03  0.90685429164E+03  0.80902734540E+02 0.  0.
        254    2    1    2    0    0 -0.63753468515E+03  0.61657937650E+03  0.92736903732E+03  0.15697392879E+04  0.90412803200E+03 0.  0.
         23    2    4    4    0    0  0.14645236607E+03 -0.81713914271E+02  0.45777138923E+02  0.19577077608E+03  0.90028834298E+02 0.  0.
         23    2    4    4    0    0 -0.78398705122E+03  0.69829329077E+03  0.88159189839E+03  0.13739685118E+04  0.91301586553E+02 0.  0.
          4    1    3    3  502    0  0.73982241034E+02 -0.99050706689E+02  0.44218678214E+02  0.13130006088E+03  0.00000000000E+00 0. -1.
         -3    1    3    3    0  502  0.56355244412E+03 -0.51752866981E+03  0.12671654784E+03  0.77555423076E+03  0.00000000000E+00 0.  1.
         11    1    5    5    0    0  0.61209272121E+02 -0.75377904606E+02 -0.33930418406E+01  0.97159231313E+02  0.00000000000E+00 0.  1.
        -11    1    5    5    0    0  0.85243093948E+02 -0.63360096641E+01  0.49170180764E+02  0.98611544763E+02  0.00000000000E+00 0. -1.
          1    1    6    6  503    0 -0.57715928764E+03  0.54261025518E+03  0.62012739730E+03  0.10060301791E+04  0.00000000000E+00 0. -1.
         -1    1    6    6    0  503 -0.20682776358E+03  0.15568303559E+03  0.26146450109E+03  0.36793833273E+03  0.00000000000E+00 0.  1.
<mgrwt>
<rscale>  0 0.22197395E+04</rscale>
<asrwt>0</asrwt>
<pdfrwt beam="1">  1        2 0.27499214E+00 0.22197395E+04</pdfrwt>
<pdfrwt beam="2">  1       -1 0.10602226E+00 0.22197395E+04</pdfrwt>
<totfact> 0.75823345E+00</totfact>
</mgrwt>
</event>
<event>
12    6  0.1540825E-007  0.1044612E+04  0.7818608E-02  0.9260925E-01
          2   -1    0    0  501    0  0.00000000000E+00  0.00000000000E+00  0.37302948895E+04  0.37302948895E+04  0.00000000000E+00 0. -1.
         -1   -1    0    0    0  501 -0.00000000000E+00 -0.00000000000E+00 -0.73131889266E+02  0.73131889266E+02  0.00000000000E+00 0.  1.
         24    2    1    2    0    0  0.86124492049E+02  0.81921237975E+02  0.43276738391E+03  0.45350303386E+03  0.65183401096E+02 0.  0.
        254    2    1    2    0    0 -0.86124492049E+02 -0.81921237975E+02  0.32243956163E+04  0.33499237449E+04  0.90062949584E+03 0.  0.
         23    2    4    4    0    0  0.33169569544E+03  0.18989122521E+03  0.11786696596E+04  0.12423457607E+04  0.89889436728E+02 0.  0.
         23    2    4    4    0    0 -0.41782018748E+03 -0.27181246319E+03  0.20457259567E+04  0.21075779842E+04  0.91839781060E+02 0.  0.
          2    1    3    3  502    0  0.46358606332E+02  0.63400399142E+02  0.36055683471E+03  0.36901214350E+03  0.00000000000E+00 0. -1.
         -1    1    3    3    0  502  0.39765885717E+02  0.18520838834E+02  0.72210549203E+02  0.84490890362E+02  0.00000000000E+00 0.  1.
         11    1    5    5    0    0  0.21664283001E+02  0.38899101560E+02  0.19378698441E+03  0.19883630601E+03  0.00000000000E+00 0. -1.
        -11    1    5    5    0    0  0.31003141243E+03  0.15099212365E+03  0.98488267520E+03  0.10435094547E+04  0.00000000000E+00 0.  1.
          3    1    6    6  503    0 -0.26658813626E+03 -0.15210678538E+03  0.14203718140E+04  0.14531558067E+04  0.00000000000E+00 0. -1.
         -3    1    6    6    0  503 -0.15123205122E+03 -0.11970567781E+03  0.62535414277E+03  0.65442217757E+03  0.00000000000E+00 0.  1.
<mgrwt>
<rscale>  0 0.10446119E+04</rscale>
<asrwt>0</asrwt>
<pdfrwt beam="1">  1        2 0.57389137E+00 0.10446119E+04</pdfrwt>
<pdfrwt beam="2">  1       -1 0.11251063E-01 0.10446119E+04</pdfrwt>
<totfact> 0.34340447E+01</totfact>
</mgrwt>
</event>
<event>
12    6  0.1540825E-007  0.1433927E+04  0.7818608E-02  0.8929620E-01
          2   -1    0    0  501    0  0.00000000000E+00  0.00000000000E+00  0.83999669718E+03  0.83999669718E+03  0.00000000000E+00 0. -1.
         -1   -1    0    0    0  501 -0.00000000000E+00 -0.00000000000E+00 -0.61195115924E+03  0.61195115924E+03  0.00000000000E+00 0.  1.
         24    2    1    2    0    0  0.23719387627E+03  0.34216689534E+03  0.15976049369E+03  0.45296876236E+03  0.79486886483E+02 0.  0.
        254    2    1    2    0    0 -0.23719387627E+03 -0.34216689534E+03  0.68285044252E+02  0.99897909407E+03  0.90551491644E+03 0.  0.
         23    2    4    4    0    0 -0.14090637189E+03 -0.36647930494E+03 -0.36689213877E+03  0.54482219500E+03  0.89775810131E+02 0.  0.
         23    2    4    4    0    0 -0.96287504375E+02  0.24312409596E+02  0.43517718302E+03  0.45415689906E+03  0.83767127108E+02 0.  0.
          4    1    3    3  502    0  0.26719933833E+02  0.50930012737E+02 -0.48715059922E+01  0.57719603533E+02  0.00000000000E+00 0. -1.
         -3    1    3    3    0  502  0.21047394243E+03  0.29123688261E+03  0.16463199968E+03  0.39524915883E+03  0.00000000000E+00 0.  1.
         11    1    5    5    0    0 -0.79598170571E+02 -0.18055672735E+03 -0.24348095358E+03  0.31340002441E+03  0.00000000000E+00 0.  1.
        -11    1    5    5    0    0 -0.61308201320E+02 -0.18592257759E+03 -0.12341118520E+03  0.23142217059E+03  0.00000000000E+00 0. -1.
          2    1    6    6  503    0 -0.14746998547E+02  0.43619125520E+02  0.14674132708E+03  0.15379570589E+03  0.00000000000E+00 0. -1.
         -2    1    6    6    0  503 -0.81540505828E+02 -0.19306715924E+02  0.28843585594E+03  0.30036119317E+03  0.00000000000E+00 0.  1.
<mgrwt>
<rscale>  0 0.14339274E+04</rscale>
<asrwt>0</asrwt>
<pdfrwt beam="1">  1        2 0.12923026E+00 0.14339274E+04</pdfrwt>
<pdfrwt beam="2">  1       -1 0.94146332E-01 0.14339274E+04</pdfrwt>
<totfact> 0.39078724E+01</totfact>
</mgrwt>
</event>
<event>
12    6  0.1540825E-007  0.1852519E+04  0.7818608E-02  0.8678858E-01
          2   -1    0    0  501    0  0.00000000000E+00  0.00000000000E+00  0.15061844734E+04  0.15061844734E+04  0.00000000000E+00 0. -1.
         -1   -1    0    0    0  501 -0.00000000000E+00 -0.00000000000E+00 -0.56962266664E+03  0.56962266664E+03  0.00000000000E+00 0.  1.
         24    2    1    2    0    0 -0.51577796451E+03  0.13598807114E+03  0.86465150053E+03  0.10191318228E+04  0.80546822544E+02 0.  0.
        254    2    1    2    0    0  0.51577796451E+03 -0.13598807114E+03  0.71910306224E+02  0.10566753173E+04  0.90932500782E+03 0.  0.
         23    2    4    4    0    0  0.33043720944E+03  0.33522033104E+03  0.21073799897E+03  0.52375484967E+03  0.91363114084E+02 0.  0.
         23    2    4    4    0    0  0.18534075507E+03 -0.47120840218E+03 -0.13882769274E+03  0.53292046762E+03  0.91337521071E+02 0.  0.
          2    1    3    3  502    0 -0.34664377711E+03  0.91533708173E+02  0.50631397466E+03  0.62039839529E+03  0.00000000000E+00 0. -1.
         -1    1    3    3    0  502 -0.16913418740E+03  0.44454362964E+02  0.35833752586E+03  0.39873342746E+03  0.00000000000E+00 0.  1.
         11    1    5    5    0    0  0.34776582216E+02  0.30321389403E+02 -0.66949636360E+01  0.46622096307E+02  0.00000000000E+00 0. -1.
        -11    1    5    5    0    0  0.29566062722E+03  0.30489894164E+03  0.21743296260E+03  0.47713275336E+03  0.00000000000E+00 0.  1.
          2    1    6    6  503    0  0.80266315696E+02 -0.13801613623E+03 -0.79968788879E+01  0.15985958015E+03  0.00000000000E+00 0. -1.
         -2    1    6    6    0  503  0.10507443938E+03 -0.33319226595E+03 -0.13083081385E+03  0.37306088746E+03  0.00000000000E+00 0.  1.
<mgrwt>
<rscale>  0 0.18525192E+04</rscale>
<asrwt>0</asrwt>
<pdfrwt beam="1">  1        2 0.23172069E+00 0.18525192E+04</pdfrwt>
<pdfrwt beam="2">  1       -1 0.87634257E-01 0.18525192E+04</pdfrwt>
<totfact> 0.17277432E+01</totfact>
</mgrwt>
</event>
<event>
12    6  0.1540825E-007  0.2146630E+04  0.7818608E-02  0.8540976E-01
          2   -1    0    0  501    0  0.00000000000E+00  0.00000000000E+00  0.58415461619E+03  0.58415461619E+03  0.00000000000E+00 0. -1.
         -1   -1    0    0    0  501 -0.00000000000E+00 -0.00000000000E+00 -0.19720898046E+04  0.19720898046E+04  0.00000000000E+00 0.  1.
         24    2    1    2    0    0 -0.70304546373E+03 -0.51079291225E+03 -0.40040873697E+03  0.96025295507E+03  0.81094129281E+02 0.  0.
        254    2    1    2    0    0  0.70304546373E+03  0.51079291225E+03 -0.98752645140E+03  0.15959914657E+04  0.90376874421E+03 0.  0.
         23    2    4    4    0    0  0.41958206985E+03  0.14004831850E+03  0.50608354770E+02  0.45423585386E+03  0.90035329199E+02 0.  0.
         23    2    4    4    0    0  0.28346339388E+03  0.37074459375E+03 -0.10381348062E+04  0.11417556118E+04  0.89882989841E+02 0.  0.
          2    1    3    3  502    0 -0.43144844154E+03 -0.31392725814E+03 -0.20201186921E+03  0.57053209937E+03  0.00000000000E+00 0. -1.
         -1    1    3    3    0  502 -0.27159702219E+03 -0.19686565412E+03 -0.19839686776E+03  0.38972085571E+03  0.00000000000E+00 0.  1.
         11    1    5    5    0    0  0.27836591576E+03  0.13348076064E+03  0.50803722322E+02  0.31286692814E+03  0.00000000000E+00 0. -1.
        -11    1    5    5    0    0  0.14121615409E+03  0.65675578599E+01 -0.19536755129E+00  0.14136892572E+03  0.00000000000E+00 0.  1.
          1    1    6    6  503    0  0.11529476604E+03  0.15951416235E+03 -0.54648079642E+03  0.58084327656E+03  0.00000000000E+00 0. -1.
         -1    1    6    6    0  503  0.16816862785E+03  0.21123043140E+03 -0.49165400975E+03  0.56091233525E+03  0.00000000000E+00 0.  1.
<mgrwt>
<rscale>  0 0.21466303E+04</rscale>
<asrwt>0</asrwt>
<pdfrwt beam="1">  1        2 0.89869938E-01 0.21466303E+04</pdfrwt>
<pdfrwt beam="2">  1       -1 0.30339844E+00 0.21466303E+04</pdfrwt>
<totfact> 0.16862531E+00</totfact>
</mgrwt>
</event>
<event>
12    6  0.1540825E-007  0.1716318E+04  0.7818608E-02  0.8752112E-01
          2   -1    0    0  501    0  0.00000000000E+00  0.00000000000E+00  0.22208632567E+04  0.22208632567E+04  0.00000000000E+00 0. -1.
         -1   -1    0    0    0  501 -0.00000000000E+00 -0.00000000000E+00 -0.33159926374E+03  0.33159926374E+03  0.00000000000E+00 0.  1.
         24    2    1    2    0    0  0.22031058373E+03  0.49834870266E+03  0.25038850463E+03  0.60505122884E+03  0.80649882363E+02 0.  0.
        254    2    1    2    0    0 -0.22031058373E+03 -0.49834870266E+03  0.16388754883E+04  0.19474112916E+04  0.89978313479E+03 0.  0.
         23    2    4    4    0    0 -0.30764922265E+03  0.14592594350E+03  0.32013976154E+03  0.47409754804E+03  0.79602719552E+02 0.  0.
         23    2    4    4    0    0  0.87338638917E+02 -0.64427464615E+03  0.13187357268E+04  0.14733137435E+04  0.94189236675E+02 0.  0.
          2    1    3    3  502    0  0.10514519893E+03  0.17995109684E+03  0.13031770611E+03  0.24580605086E+03  0.00000000000E+00 0. -1.
         -1    1    3    3    0  502  0.11516538480E+03  0.31839760581E+03  0.12007079852E+03  0.35924517798E+03  0.00000000000E+00 0.  1.
         11    1    5    5    0    0 -0.27574840945E+03  0.12720065101E+03  0.24439364040E+03  0.38980179887E+03  0.00000000000E+00 0.  1.
        -11    1    5    5    0    0 -0.31900813199E+02  0.18725292488E+02  0.75746121142E+02  0.84295749179E+02  0.00000000000E+00 0. -1.
          3    1    6    6  503    0  0.57160732824E+02 -0.13458129983E+03  0.28058073244E+03  0.31639377847E+03  0.00000000000E+00 0. -1.
         -3    1    6    6    0  503  0.30177906092E+02 -0.50969334632E+03  0.10381549943E+04  0.11569199651E+04  0.00000000000E+00 0.  1.
<mgrwt>
<rscale>  0 0.17163177E+04</rscale>
<asrwt>0</asrwt>
<pdfrwt beam="1">  1        2 0.34167126E+00 0.17163177E+04</pdfrwt>
<pdfrwt beam="2">  1       -1 0.51015273E-01 0.17163177E+04</pdfrwt>
<totfact> 0.21021316E+01</totfact>
</mgrwt>
</event>
<event>
12    6  0.1540825E-007  0.1699973E+04  0.7818608E-02  0.8761380E-01
         -1   -1    0    0    0  501 -0.00000000000E+00  0.00000000000E+00  0.12816737841E+04  0.12816737841E+04  0.00000000000E+00 0.  1.
          2   -1    0    0  501    0  0.00000000000E+00 -0.00000000000E+00 -0.56369776941E+03  0.56369776941E+03  0.00000000000E+00 0. -1.
         24    2    1    2    0    0  0.39567579159E+03 -0.51958354066E+02 -0.23005792078E+03  0.46755874734E+03  0.80159420509E+02 0.  0.
        254    2    1    2    0    0 -0.39567579159E+03  0.51958354066E+02  0.94803393545E+03  0.13778128061E+04  0.91670103272E+03 0.  0.
         23    2    4    4    0    0 -0.15746913635E+03 -0.16846590211E+03  0.10057625654E+04  0.10362351103E+04  0.95118750599E+02 0.  0.
         23    2    4    4    0    0 -0.23820665524E+03  0.22042425618E+03 -0.57728629970E+02  0.34157769585E+03  0.89517955036E+02 0.  0.
          4    1    3    3  502    0  0.27568491397E+03 -0.87060392096E+01 -0.18573451555E+03  0.33252861107E+03  0.00000000000E+00 0. -1.
         -3    1    3    3    0  502  0.11999087762E+03 -0.43252314856E+02 -0.44323405226E+02  0.13503013628E+03  0.00000000000E+00 0.  1.
         11    1    5    5    0    0 -0.10623133030E+03 -0.16594250186E+03  0.83509520102E+03  0.85802447764E+03  0.00000000000E+00 0. -1.
        -11    1    5    5    0    0 -0.51237806056E+02 -0.25234002541E+01  0.17066736440E+03  0.17821063265E+03  0.00000000000E+00 0.  1.
          3    1    6    6  503    0 -0.18105261459E+03  0.12574950780E+03 -0.67544133756E+02  0.23055411072E+03  0.00000000000E+00 0. -1.
         -3    1    6    6    0  503 -0.57154040649E+02  0.94674748372E+02  0.98155037856E+01  0.11102358514E+03  0.00000000000E+00 0.  1.
<mgrwt>
<rscale>  0 0.16999725E+04</rscale>
<asrwt>0</asrwt>
<pdfrwt beam="1">  1        2 0.86722734E-01 0.16999725E+04</pdfrwt>
<pdfrwt beam="2">  1       -1 0.19718058E+00 0.16999725E+04</pdfrwt>
<totfact> 0.91488856E+00</totfact>
</mgrwt>
</event>
<event>
12    6  0.1540825E-007  0.1589940E+04  0.7818608E-02  0.8826752E-01
          2   -1    0    0  501    0  0.00000000000E+00  0.00000000000E+00  0.64232250144E+03  0.64232250144E+03  0.00000000000E+00 0. -1.
         -1   -1    0    0    0  501 -0.00000000000E+00 -0.00000000000E+00 -0.98389370256E+03  0.98389370256E+03  0.00000000000E+00 0.  1.
         24    2    1    2    0    0  0.58763875736E+02  0.41141242218E+03 -0.45313157417E+03  0.62017032710E+03  0.81053296575E+02 0.  0.
        254    2    1    2    0    0 -0.58763875736E+02 -0.41141242218E+03  0.11156037305E+03  0.10060458769E+04  0.90937847753E+03 0.  0.
         23    2    4    4    0    0  0.13638488464E+03 -0.23571105353E+03 -0.35882569392E+03  0.45910838158E+03  0.88679704010E+02 0.  0.
         23    2    4    4    0    0 -0.19514876038E+03 -0.17570136865E+03  0.47038606697E+03  0.54693749533E+03  0.94464608062E+02 0.  0.
          4    1    3    3  502    0  0.67853027258E+02  0.29046070001E+03 -0.28253497890E+03  0.41084968768E+03  0.00000000000E+00 0. -1.
         -3    1    3    3    0  502 -0.90891515222E+01  0.12095172217E+03 -0.17059659526E+03  0.20932063942E+03  0.00000000000E+00 0.  1.
         11    1    5    5    0    0  0.90397079059E+01 -0.84866326231E+01  0.34884587190E+01  0.12880551096E+02  0.00000000000E+00 0.  1.
        -11    1    5    5    0    0  0.12734517674E+03 -0.22722442091E+03 -0.36231415264E+03  0.44622783049E+03  0.00000000000E+00 0. -1.
          4    1    6    6  503    0 -0.14897595947E+03 -0.13679868626E+03  0.26811256957E+03  0.33584530222E+03  0.00000000000E+00 0. -1.
         -4    1    6    6    0  503 -0.46172800906E+02 -0.38902682388E+02  0.20227349740E+03  0.21109219311E+03  0.00000000000E+00 0.  1.
<mgrwt>
<rscale>  0 0.15899397E+04</rscale>
<asrwt>0</asrwt>
<pdfrwt beam="1">  1        2 0.98818847E-01 0.15899397E+04</pdfrwt>
<pdfrwt beam="2">  1       -1 0.15136826E+00 0.15899397E+04</pdfrwt>
<totfact> 0.17030039E+01</totfact>
</mgrwt>
</event>
<event>
12    6  0.1540825E-007  0.2700832E+04  0.7818608E-02  0.8334735E-01
          2   -1    0    0  501    0  0.00000000000E+00  0.00000000000E+00  0.31729657586E+04  0.31729657586E+04  0.00000000000E+00 0. -1.
         -1   -1    0    0    0  501 -0.00000000000E+00 -0.00000000000E+00 -0.57473759948E+03  0.57473759948E+03  0.00000000000E+00 0.  1.
         24    2    1    2    0    0 -0.80762059567E+03 -0.69186611800E+03  0.38088815003E+03  0.11325169234E+04  0.81172945681E+02 0.  0.
        254    2    1    2    0    0  0.80762059567E+03  0.69186611800E+03  0.22173400091E+04  0.26151864347E+04  0.88976042877E+03 0.  0.
         23    2    4    4    0    0  0.46504874681E+03  0.29022775815E+03  0.31632210612E+03  0.63996726241E+03  0.94846895686E+02 0.  0.
         23    2    4    4    0    0  0.34257184885E+03  0.40163835986E+03  0.19010179030E+04  0.19752191723E+04  0.94619593499E+02 0.  0.
          2    1    3    3  502    0 -0.97937069328E+02 -0.90826479842E+02  0.76740125386E+02  0.15404598610E+03  0.00000000000E+00 0. -1.
         -1    1    3    3    0  502 -0.70968352634E+03 -0.60103963816E+03  0.30414802464E+03  0.97847093728E+03  0.00000000000E+00 0.  1.
         11    1    5    5    0    0  0.39283158030E+03  0.26792142725E+03  0.24031354318E+03  0.53277494376E+03  0.00000000000E+00 0.  1.
        -11    1    5    5    0    0  0.72217166510E+02  0.22306330900E+02  0.76008562941E+02  0.10719231865E+03  0.00000000000E+00 0. -1.
          1    1    6    6  503    0  0.81744433485E+01 -0.46283913576E+01  0.49495673926E+02  0.50379214643E+02  0.00000000000E+00 0. -1.
         -1    1    6    6    0  503  0.33439740550E+03  0.40626675121E+03  0.18515222291E+04  0.19248399577E+04  0.00000000000E+00 0.  1.
<mgrwt>
<rscale>  0 0.27008315E+04</rscale>
<asrwt>0</asrwt>
<pdfrwt beam="1">  1        2 0.48814857E+00 0.27008315E+04</pdfrwt>
<pdfrwt beam="2">  1       -1 0.88421171E-01 0.27008315E+04</pdfrwt>
<totfact> 0.16910423E+00</totfact>
</mgrwt>
</event>
<event>
12    6  0.1540825E-007  0.1301389E+04  0.7818608E-02  0.9028464E-01
          2   -1    0    0  501    0  0.00000000000E+00  0.00000000000E+00  0.30689233916E+04  0.30689233916E+04  0.00000000000E+00 0. -1.
         -1   -1    0    0    0  501 -0.00000000000E+00 -0.00000000000E+00 -0.13796480141E+03  0.13796480141E+03  0.00000000000E+00 0.  1.
         24    2    1    2    0    0  0.16257082680E+03 -0.27814728731E+03  0.53849916329E+03  0.63261695627E+03  0.80172796758E+02 0.  0.
        254    2    1    2    0    0 -0.16257082680E+03  0.27814728731E+03  0.23924594269E+04  0.25742712367E+04  0.89398831296E+03 0.  0.
         23    2    4    4    0    0 -0.18297639167E+03  0.38629685779E+03  0.45306002348E+03  0.62962401683E+03  0.91964098687E+02 0.  0.
         23    2    4    4    0    0  0.20405564870E+02 -0.10814957048E+03  0.19393994034E+04  0.19446472199E+04  0.90939799782E+02 0.  0.
          2    1    3    3  502    0  0.75264559468E+02 -0.17142423900E+03  0.24501399933E+03  0.30835512562E+03  0.00000000000E+00 0. -1.
         -1    1    3    3    0  502  0.87306267334E+02 -0.10672304831E+03  0.29348516396E+03  0.32426183066E+03  0.00000000000E+00 0.  1.
         11    1    5    5    0    0  0.76004763755E+01  0.19285164621E+01  0.11920496022E+02  0.14268309020E+02  0.00000000000E+00 0. -1.
        -11    1    5    5    0    0 -0.19057686805E+03  0.38436834133E+03  0.44113952746E+03  0.61535570781E+03  0.00000000000E+00 0.  1.
          1    1    6    6  503    0 -0.25538572069E+02 -0.13668104473E+02  0.20104356703E+03  0.20311954998E+03  0.00000000000E+00 0. -1.
         -1    1    6    6    0  503  0.45944136940E+02 -0.94481466011E+02  0.17383558364E+04  0.17415276699E+04  0.00000000000E+00 0.  1.
<mgrwt>
<rscale>  0 0.13013891E+04</rscale>
<asrwt>0</asrwt>
<pdfrwt beam="1">  1        2 0.47214201E+00 0.13013891E+04</pdfrwt>
<pdfrwt beam="2">  1       -1 0.21225356E-01 0.13013891E+04</pdfrwt>
<totfact> 0.32950158E+01</totfact>
</mgrwt>
</event>
<event>
12    6  0.1540825E-007  0.3040938E+04  0.7818608E-02  0.8232137E-01
          4   -1    0    0  501    0  0.00000000000E+00  0.00000000000E+00  0.13788486917E+04  0.13788486917E+04  0.00000000000E+00 0. -1.
         -3   -1    0    0    0  501 -0.00000000000E+00 -0.00000000000E+00 -0.16766347033E+04  0.16766347033E+04  0.00000000000E+00 0.  1.
         24    2    1    2    0    0  0.13759458191E+03 -0.44296147671E+03 -0.14550803941E+04  0.15293371512E+04  0.80411628029E+02 0.  0.
        254    2    1    2    0    0 -0.13759458191E+03  0.44296147671E+03  0.11572943825E+04  0.15261462437E+04  0.88013915417E+03 0.  0.
         23    2    4    4    0    0 -0.49118931975E+03  0.23812020543E+03  0.81529596803E+03  0.98546832609E+03  0.92044153473E+02 0.  0.
         23    2    4    4    0    0  0.35359473783E+03  0.20484127128E+03  0.34199841447E+03  0.54067791765E+03  0.91545125968E+02 0.  0.
          2    1    3    3  502    0  0.46167488296E+01  0.16435228848E+01 -0.35320621101E+02  0.35658965383E+02  0.00000000000E+00 0. -1.
         -1    1    3    3    0  502  0.13297783308E+03 -0.44460499960E+03 -0.14197597730E+04  0.14936781858E+04  0.00000000000E+00 0.  1.
         11    1    5    5    0    0 -0.14421453243E+03  0.10334161582E+03  0.21041416678E+03  0.27522979945E+03  0.00000000000E+00 0.  1.
        -11    1    5    5    0    0 -0.34697478731E+03  0.13477858961E+03  0.60488180124E+03  0.71023852664E+03  0.00000000000E+00 0. -1.
          3    1    6    6  503    0  0.12207507578E+03  0.79707274628E+02  0.68362676313E+02  0.16102493369E+03  0.00000000000E+00 0. -1.
         -3    1    6    6    0  503  0.23151966205E+03  0.12513399665E+03  0.27363573816E+03  0.37965298396E+03  0.00000000000E+00 0.  1.
<mgrwt>
<rscale>  0 0.30409377E+04</rscale>
<asrwt>0</asrwt>
<pdfrwt beam="1">  1        4 0.21213057E+00 0.30409377E+04</pdfrwt>
<pdfrwt beam="2">  1       -3 0.25794380E+00 0.30409377E+04</pdfrwt>
<totfact> 0.13952599E-02</totfact>
</mgrwt>
</event>
<event>
12    6  0.1540825E-007  0.1699344E+04  0.7818608E-02  0.8761739E-01
         -1   -1    0    0    0  501 -0.00000000000E+00  0.00000000000E+00  0.46980646914E+03  0.46980646914E+03  0.00000000000E+00 0.  1.
          2   -1    0    0  501    0  0.00000000000E+00 -0.00000000000E+00 -0.15366804822E+04  0.15366804822E+04  0.00000000000E+00 0. -1.
         24    2    1    2    0    0  0.32494234381E+03 -0.36913956648E+03 -0.80203650268E+03  0.94424064636E+03  0.80475463769E+02 0.  0.
        254    2    1    2    0    0 -0.32494234381E+03  0.36913956648E+03 -0.26483751035E+03  0.10622463050E+04  0.90353569889E+03 0.  0.
         23    2    4    4    0    0 -0.23544596715E+03  0.64041366864E+02  0.30587482345E+03  0.40260244247E+03  0.94832583758E+02 0.  0.
         23    2    4    4    0    0 -0.89496376654E+02  0.30509819962E+03 -0.57071233380E+03  0.65964386249E+03  0.91230173278E+02 0.  0.
          2    1    3    3  502    0  0.21926130243E+03 -0.27179558214E+03 -0.62794601920E+03  0.71851552540E+03  0.00000000000E+00 0. -1.
         -1    1    3    3    0  502  0.10568104138E+03 -0.97343984342E+02 -0.17409048348E+03  0.22572512096E+03  0.00000000000E+00 0.  1.
         11    1    5    5    0    0 -0.18775329625E+03  0.12415200857E+02  0.24952054575E+03  0.31251550396E+03  0.00000000000E+00 0.  1.
        -11    1    5    5    0    0 -0.47692670905E+02  0.51626166007E+02  0.56354277703E+02  0.90086938510E+02  0.00000000000E+00 0. -1.
          1    1    6    6  503    0 -0.31251217489E+02  0.36139032984E+02 -0.42059198642E+02  0.63652529329E+02  0.00000000000E+00 0. -1.
         -1    1    6    6    0  503 -0.58245159164E+02  0.26895916664E+03 -0.52865313516E+03  0.59599133316E+03  0.00000000000E+00 0.  1.
<mgrwt>
<rscale>  0 0.16993439E+04</rscale>
<asrwt>0</asrwt>
<pdfrwt beam="1">  1        2 0.23641239E+00 0.16993439E+04</pdfrwt>
<pdfrwt beam="2">  1       -1 0.72277917E-01 0.16993439E+04</pdfrwt>
<totfact> 0.25342395E+01</totfact>
</mgrwt>
</event>
<event>
12    6  0.1540825E-007  0.1118612E+04  0.7818608E-02  0.9187239E-01
         -1   -1    0    0    0  501 -0.00000000000E+00  0.00000000000E+00  0.43832781898E+03  0.43832781898E+03  0.00000000000E+00 0.  1.
          2   -1    0    0  501    0  0.00000000000E+00 -0.00000000000E+00 -0.71367363916E+03  0.71367363916E+03  0.00000000000E+00 0. -1.
         24    2    1    2    0    0 -0.53967964777E+02 -0.67699276413E+02 -0.23703688031E+03  0.26568688899E+03  0.83110210589E+02 0.  0.
        254    2    1    2    0    0  0.53967964777E+02  0.67699276413E+02 -0.38308939872E+02  0.88631456915E+03  0.88124355734E+03 0.  0.
         23    2    4    4    0    0  0.24039015391E+03 -0.22950475355E+03  0.24593676487E+03  0.42554943946E+03  0.10073517317E+03 0.  0.
         23    2    4    4    0    0 -0.18642218913E+03  0.29720402996E+03 -0.28424570474E+03  0.46076512968E+03  0.91790065058E+02 0.  0.
          2    1    3    3  502    0 -0.62108694762E+02 -0.74335708896E+02 -0.15361426480E+03  0.18160569907E+03  0.00000000000E+00 0. -1.
         -1    1    3    3    0  502  0.81407299855E+01  0.66364324828E+01 -0.83422615507E+02  0.84081189923E+02  0.00000000000E+00 0.  1.
         11    1    5    5    0    0  0.25032354413E+03 -0.21992554957E+03  0.23264924582E+03  0.40639241588E+03  0.00000000000E+00 0. -1.
        -11    1    5    5    0    0 -0.99333902231E+01 -0.95792039826E+01  0.13287519043E+02  0.19157023584E+02  0.00000000000E+00 0.  1.
          3    1    6    6  503    0 -0.64228954879E+02  0.12259313294E+03 -0.16914114546E+03  0.21854784826E+03  0.00000000000E+00 0. -1.
         -3    1    6    6    0  503 -0.12219323426E+03  0.17461089702E+03 -0.11510455928E+03  0.24221728143E+03  0.00000000000E+00 0.  1.
<mgrwt>
<rscale>  0 0.11186117E+04</rscale>
<asrwt>0</asrwt>
<pdfrwt beam="1">  1        2 0.10979594E+00 0.11186117E+04</pdfrwt>
<pdfrwt beam="2">  1       -1 0.67435050E-01 0.11186117E+04</pdfrwt>
<totfact> 0.10087320E+02</totfact>
</mgrwt>
</event>
<event>
12    6  0.1540825E-007  0.1584440E+04  0.7818608E-02  0.8830165E-01
          2   -1    0    0  501    0  0.00000000000E+00  0.00000000000E+00  0.17930449353E+04  0.17930449353E+04  0.00000000000E+00 0. -1.
         -1   -1    0    0    0  501 -0.00000000000E+00 -0.00000000000E+00 -0.35002599272E+03  0.35002599272E+03  0.00000000000E+00 0.  1.
         24    2    1    2    0    0 -0.19226615789E+03  0.24940216909E+03 -0.10236113386E+03  0.34107483039E+03  0.81771148864E+02 0.  0.
        254    2    1    2    0    0  0.19226615789E+03 -0.24940216909E+03  0.15453800765E+04  0.18019960977E+04  0.87167805857E+03 0.  0.
         23    2    4    4    0    0  0.26011505430E+03 -0.46436937393E+03  0.14377119313E+04  0.15355391258E+04  0.86983059547E+02 0.  0.
         23    2    4    4    0    0 -0.67848896411E+02  0.21496720485E+03  0.10766814520E+03  0.26645697185E+03  0.92695827587E+02 0.  0.
          2    1    3    3  502    0 -0.50077729315E+01  0.25510693312E+02  0.10633013000E+02  0.28087973021E+02  0.00000000000E+00 0. -1.
         -1    1    3    3    0  502 -0.18725838495E+03  0.22389147577E+03 -0.11299414686E+03  0.31298685737E+03  0.00000000000E+00 0.  1.
         11    1    5    5    0    0  0.19809876302E+03 -0.37674581177E+03  0.10435740916E+04  0.11270436599E+04  0.00000000000E+00 0.  1.
        -11    1    5    5    0    0  0.62016291273E+02 -0.87623562163E+02  0.39413783969E+03  0.40849546595E+03  0.00000000000E+00 0. -1.
          1    1    6    6  503    0 -0.13763914600E+01  0.60200294571E+01 -0.14281975576E+02  0.15559885426E+02  0.00000000000E+00 0. -1.
         -1    1    6    6    0  503 -0.66472504951E+02  0.20894717539E+03  0.12195012078E+03  0.25089708642E+03  0.00000000000E+00 0.  1.
<mgrwt>
<rscale>  0 0.15844398E+04</rscale>
<asrwt>0</asrwt>
<pdfrwt beam="1">  1        2 0.27585306E+00 0.15844398E+04</pdfrwt>
<pdfrwt beam="2">  1       -1 0.53850153E-01 0.15844398E+04</pdfrwt>
<totfact> 0.33141698E+01</totfact>
</mgrwt>
</event>
<event>
12    6  0.1540825E-007  0.1505744E+04  0.7818608E-02  0.8880642E-01
          2   -1    0    0  501    0  0.00000000000E+00  0.00000000000E+00  0.18582329153E+04  0.18582329153E+04  0.00000000000E+00 0. -1.
         -1   -1    0    0    0  501 -0.00000000000E+00 -0.00000000000E+00 -0.30502975370E+03  0.30502975370E+03  0.00000000000E+00 0.  1.
         24    2    1    2    0    0  0.34669299790E+03 -0.28675125234E+03  0.41439581195E+03  0.61681303277E+03  0.79448806986E+02 0.  0.
        254    2    1    2    0    0 -0.34669299790E+03  0.28675125234E+03  0.11388073497E+04  0.15464496363E+04  0.94456444051E+03 0.  0.
         23    2    4    4    0    0 -0.23863048091E+03  0.58323937046E+03  0.10083057022E+04  0.11925025369E+04  0.90935372091E+02 0.  0.
         23    2    4    4    0    0 -0.10806251699E+03 -0.29648811812E+03  0.13050164751E+03  0.35394709932E+03  0.93086826936E+02 0.  0.
          4    1    3    3  502    0  0.33953118451E+03 -0.26504532373E+03  0.40747758249E+03  0.59293206113E+03  0.00000000000E+00 0. -1.
         -3    1    3    3    0  502  0.71618133936E+01 -0.21705928607E+02  0.69182294516E+01  0.23880971641E+02  0.00000000000E+00 0.  1.
         11    1    5    5    0    0 -0.94111348598E+02  0.27727187996E+03  0.54642744248E+03  0.61993515084E+03  0.00000000000E+00 0. -1.
        -11    1    5    5    0    0 -0.14451913231E+03  0.30596749050E+03  0.46187825969E+03  0.57256738609E+03  0.00000000000E+00 0.  1.
          2    1    6    6  503    0 -0.11942901161E+03 -0.25581356892E+03  0.92366524618E+02  0.29704451809E+03  0.00000000000E+00 0. -1.
         -2    1    6    6    0  503  0.11366494618E+02 -0.40674549195E+02  0.38135122891E+02  0.56902581224E+02  0.00000000000E+00 0.  1.
<mgrwt>
<rscale>  0 0.15057441E+04</rscale>
<asrwt>0</asrwt>
<pdfrwt beam="1">  1        2 0.28588198E+00 0.15057441E+04</pdfrwt>
<pdfrwt beam="2">  1       -1 0.46927655E-01 0.15057441E+04</pdfrwt>
<totfact> 0.39892595E+01</totfact>
</mgrwt>
</event>
<event>
12    6  0.1540825E-007  0.1856320E+04  0.7818608E-02  0.8676909E-01
          2   -1    0    0  501    0  0.00000000000E+00  0.00000000000E+00  0.34606432312E+04  0.34606432312E+04  0.00000000000E+00 0. -1.
         -1   -1    0    0    0  501 -0.00000000000E+00 -0.00000000000E+00 -0.24893666840E+03  0.24893666840E+03  0.00000000000E+00 0.  1.
         24    2    1    2    0    0  0.63885289040E+03 -0.85374226442E+02  0.70894523606E+03  0.96135083883E+03  0.78551343035E+02 0.  0.
        254    2    1    2    0    0 -0.63885289040E+03  0.85374226442E+02  0.25027613267E+04  0.27482290608E+04  0.93462663008E+03 0.  0.
         23    2    4    4    0    0 -0.13260177013E+03  0.31006348880E+03  0.18701674819E+04  0.19025363066E+04  0.91626366680E+02 0.  0.
         23    2    4    4    0    0 -0.50625112026E+03 -0.22468926236E+03  0.63259384483E+03  0.84569275414E+03  0.90806390219E+02 0.  0.
          4    1    3    3  502    0  0.17498692769E+03  0.58623356595E+01  0.22099136957E+03  0.28194321639E+03  0.00000000000E+00 0. -1.
         -3    1    3    3    0  502  0.46386596271E+03 -0.91236562101E+02  0.48795386648E+03  0.67940762245E+03  0.00000000000E+00 0.  1.
         11    1    5    5    0    0 -0.14121385467E+03  0.29538272186E+03  0.16797597297E+04  0.17113693507E+04  0.00000000000E+00 0.  1.
        -11    1    5    5    0    0  0.86120845359E+01  0.14680766936E+02  0.19040775221E+03  0.19116695588E+03  0.00000000000E+00 0. -1.
          4    1    6    6  503    0 -0.95836889668E+02 -0.83334765383E+01  0.89306656779E+02  0.13126246683E+03  0.00000000000E+00 0. -1.
         -4    1    6    6    0  503 -0.41041423060E+03 -0.21635578582E+03  0.54328718805E+03  0.71443028732E+03  0.00000000000E+00 0.  1.
<mgrwt>
<rscale>  0 0.18563200E+04</rscale>
<asrwt>0</asrwt>
<pdfrwt beam="1">  1        2 0.53240662E+00 0.18563200E+04</pdfrwt>
<pdfrwt beam="2">  1       -1 0.38297951E-01 0.18563200E+04</pdfrwt>
<totfact> 0.61528375E+00</totfact>
</mgrwt>
</event>
<event>
12    6  0.1540825E-007  0.1194359E+04  0.7818608E-02  0.9117809E-01
         -3   -1    0    0    0  501 -0.00000000000E+00  0.00000000000E+00  0.40070577323E+03  0.40070577323E+03  0.00000000000E+00 0.  1.
          4   -1    0    0  501    0  0.00000000000E+00 -0.00000000000E+00 -0.88998743880E+03  0.88998743880E+03  0.00000000000E+00 0. -1.
         24    2    1    2    0    0  0.22883975389E+03  0.38720714672E+02 -0.25182948734E+03  0.35203269107E+03  0.81498455102E+02 0.  0.
        254    2    1    2    0    0 -0.22883975389E+03 -0.38720714672E+02 -0.23745217823E+03  0.93866052096E+03  0.87797101886E+03 0.  0.
         23    2    4    4    0    0 -0.50004973127E+03  0.16695742995E+03 -0.39704549548E+02  0.53532632347E+03  0.84102938039E+02 0.  0.
         23    2    4    4    0    0  0.27120997738E+03 -0.20567814463E+03 -0.19774762869E+03  0.40333419749E+03  0.87840760537E+02 0.  0.
          2    1    3    3  502    0  0.17087413266E+02  0.21735998113E+02 -0.58902246736E+02  0.65068486817E+02  0.00000000000E+00 0. -1.
         -1    1    3    3    0  502  0.21175234062E+03  0.16984716559E+02 -0.19292724060E+03  0.28696420425E+03  0.00000000000E+00 0.  1.
         11    1    5    5    0    0 -0.34898637829E+03  0.99286806463E+02 -0.62687319961E+02  0.36821062213E+03  0.00000000000E+00 0. -1.
        -11    1    5    5    0    0 -0.15106335298E+03  0.67670623491E+02  0.22982770412E+02  0.16711570133E+03  0.00000000000E+00 0.  1.
          3    1    6    6  503    0  0.19375045676E+03 -0.18455450784E+03 -0.17557415581E+03  0.32004045064E+03  0.00000000000E+00 0.  1.
         -3    1    6    6    0  503  0.77459520615E+02 -0.21123636786E+02 -0.22173472874E+02  0.83293746850E+02  0.00000000000E+00 0. -1.
<mgrwt>
<rscale>  0 0.11943586E+04</rscale>
<asrwt>0</asrwt>
<pdfrwt beam="1">  1        4 0.13692114E+00 0.11943586E+04</pdfrwt>
<pdfrwt beam="2">  1       -3 0.61647042E-01 0.11943586E+04</pdfrwt>
<totfact> 0.21891366E+00</totfact>
</mgrwt>
</event>
<event>
12    6  0.1540825E-007  0.1389381E+04  0.7818608E-02  0.8961541E-01
         -1   -1    0    0    0  501 -0.00000000000E+00  0.00000000000E+00  0.77679496588E+03  0.77679496588E+03  0.00000000000E+00 0.  1.
          2   -1    0    0  501    0  0.00000000000E+00 -0.00000000000E+00 -0.62126420410E+03  0.62126420410E+03  0.00000000000E+00 0. -1.
         24    2    1    2    0    0  0.22200055187E+03  0.31224838617E+03 -0.30070201452E+02  0.39253061627E+03  0.79954787183E+02 0.  0.
        254    2    1    2    0    0 -0.22200055187E+03 -0.31224838617E+03  0.18560096323E+03  0.10055285537E+04  0.91096468377E+03 0.  0.
         23    2    4    4    0    0  0.73643624581E+02 -0.26602790488E+03  0.48899257118E+03  0.56893607185E+03  0.91543921494E+02 0.  0.
         23    2    4    4    0    0 -0.29564417645E+03 -0.46220481289E+02 -0.30339160795E+03  0.43659248186E+03  0.94998502538E+02 0.  0.
          4    1    3    3  502    0  0.21653055735E+03  0.29296685586E+03 -0.10401305211E+02  0.36444923933E+03  0.00000000000E+00 0. -1.
         -3    1    3    3    0  502  0.54699945192E+01  0.19281530308E+02 -0.19668896240E+02  0.28081376931E+02  0.00000000000E+00 0.  1.
         11    1    5    5    0    0  0.30839322303E+02 -0.79671658394E+02  0.24162501441E+03  0.25628360178E+03  0.00000000000E+00 0. -1.
        -11    1    5    5    0    0  0.42804302278E+02 -0.18635624649E+03  0.24736755677E+03  0.31265247007E+03  0.00000000000E+00 0.  1.
          2    1    6    6  503    0 -0.12882423593E+02 -0.22371621565E+02 -0.81012219623E+01  0.27056904597E+02  0.00000000000E+00 0. -1.
         -2    1    6    6    0  503 -0.28276175286E+03 -0.23848859724E+02 -0.29529038599E+03  0.40953557727E+03  0.00000000000E+00 0.  1.
<mgrwt>
<rscale>  0 0.13893810E+04</rscale>
<asrwt>0</asrwt>
<pdfrwt beam="1">  1        2 0.95579109E-01 0.13893810E+04</pdfrwt>
<pdfrwt beam="2">  1       -1 0.11950692E+00 0.13893810E+04</pdfrwt>
<totfact> 0.33099057E+01</totfact>
</mgrwt>
</event>
<event>
12    6  0.1540825E-007  0.1913136E+04  0.7818608E-02  0.8648345E-01
         -1   -1    0    0    0  501 -0.00000000000E+00  0.00000000000E+00  0.42298818151E+03  0.42298818151E+03  0.00000000000E+00 0.  1.
          2   -1    0    0  501    0  0.00000000000E+00 -0.00000000000E+00 -0.21632343242E+04  0.21632343242E+04  0.00000000000E+00 0. -1.
         24    2    1    2    0    0 -0.30422225201E+03  0.23434074294E+03 -0.15305983646E+04  0.15800410585E+04  0.79571543003E+02 0.  0.
        254    2    1    2    0    0  0.30422225201E+03 -0.23434074294E+03 -0.20964777818E+03  0.10061814473E+04  0.90608065400E+03 0.  0.
         23    2    4    4    0    0  0.38446818901E+03 -0.44035413421E+03 -0.38810821137E+03  0.70758137174E+03  0.91191348406E+02 0.  0.
         23    2    4    4    0    0 -0.80245937003E+02  0.20601339127E+03  0.17846043319E+03  0.29860007555E+03  0.91831101045E+02 0.  0.
          2    1    3    3  502    0 -0.25925906780E+03  0.22324800160E+03 -0.14084275661E+04  0.14493871614E+04  0.00000000000E+00 0. -1.
         -1    1    3    3    0  502 -0.44963184211E+02  0.11092741347E+02 -0.12217079842E+03  0.13065389711E+03  0.00000000000E+00 0.  1.
         11    1    5    5    0    0  0.29919954629E+03 -0.38631388875E+03 -0.34307108924E+03  0.59703983235E+03  0.00000000000E+00 0.  1.
        -11    1    5    5    0    0  0.85268642722E+02 -0.54040245462E+02 -0.45037122130E+02  0.11054153939E+03  0.00000000000E+00 0. -1.
          3    1    6    6  503    0 -0.80686909266E+02  0.10432565659E+03  0.67732773509E+02  0.14826310585E+03  0.00000000000E+00 0. -1.
         -3    1    6    6    0  503  0.44097226306E+00  0.10168773468E+03  0.11072765968E+03  0.15033696970E+03  0.00000000000E+00 0.  1.
<mgrwt>
<rscale>  0 0.19131362E+04</rscale>
<asrwt>0</asrwt>
<pdfrwt beam="1">  1        2 0.33280528E+00 0.19131362E+04</pdfrwt>
<pdfrwt beam="2">  1       -1 0.65075104E-01 0.19131362E+04</pdfrwt>
<totfact> 0.13812381E+01</totfact>
</mgrwt>
</event>
<event>
12    6  0.1677922E-007  0.2005665E+04  0.7818608E-02  0.8603977E-01
          2   -1    0    0  501    0  0.00000000000E+00  0.00000000000E+00  0.23653527114E+04  0.23653527114E+04  0.00000000000E+00 0. -1.
         -1   -1    0    0    0  501 -0.00000000000E+00 -0.00000000000E+00 -0.42516845912E+03  0.42516845912E+03  0.00000000000E+00 0.  1.
         24    2    1    2    0    0  0.26977427861E+03 -0.70301099012E+03  0.39637743256E+03  0.85481244419E+03  0.81158068421E+02 0.  0.
        254    2    1    2    0    0 -0.26977427861E+03  0.70301099012E+03  0.15438068198E+04  0.19357087264E+04  0.89253916607E+03 0.  0.
         23    2    4    4    0    0 -0.11059207279E+03  0.31542315280E+03  0.14577820695E+04  0.14984329674E+04  0.91926186683E+02 0.  0.
         23    2    4    4    0    0 -0.15918220582E+03  0.38758783732E+03  0.86024750259E+02  0.43727575895E+03  0.90810381677E+02 0.  0.
          2    1    3    3  502    0  0.34094934802E+02 -0.72341333923E+02  0.16117868808E+02  0.81581363483E+02  0.00000000000E+00 0. -1.
         -1    1    3    3    0  502  0.23567934381E+03 -0.63066965620E+03  0.38025956375E+03  0.77323108071E+03  0.00000000000E+00 0.  1.
         11    1    5    5    0    0 -0.29140429289E+02  0.13190725101E+03  0.41293827551E+03  0.43447290695E+03  0.00000000000E+00 0.  1.
        -11    1    5    5    0    0 -0.81451643500E+02  0.18351590179E+03  0.10448437940E+04  0.10639600605E+04  0.00000000000E+00 0. -1.
          4    1    6    6  503    0 -0.15994240315E+03  0.32365200817E+03  0.93426447481E+02  0.37290842818E+03  0.00000000000E+00 0. -1.
         -4    1    6    6    0  503  0.76019732521E+00  0.63935829152E+02 -0.74016972224E+01  0.64367330775E+02  0.00000000000E+00 0.  1.
<mgrwt>
<rscale>  0 0.20056653E+04</rscale>
<asrwt>0</asrwt>
<pdfrwt beam="1">  1        2 0.36390041E+00 0.20056653E+04</pdfrwt>
<pdfrwt beam="2">  1       -1 0.65410533E-01 0.20056653E+04</pdfrwt>
<totfact> 0.10425304E+01</totfact>
</mgrwt>
</event>
<event>
12    6  0.1540825E-007  0.3067278E+04  0.7818608E-02  0.8224776E-01
         -1   -1    0    0    0  501 -0.00000000000E+00  0.00000000000E+00  0.16035197539E+04  0.16035197539E+04  0.00000000000E+00 0.  1.
          2   -1    0    0  501    0  0.00000000000E+00 -0.00000000000E+00 -0.14668035874E+04  0.14668035874E+04  0.00000000000E+00 0. -1.
         24    2    1    2    0    0 -0.59090686828E+02  0.52635750084E+03  0.13606820336E+04  0.14621634115E+04  0.76956593405E+02 0.  0.
        254    2    1    2    0    0  0.59090686828E+02 -0.52635750084E+03 -0.12239658671E+04  0.16081599298E+04  0.89863340026E+03 0.  0.
         23    2    4    4    0    0  0.33078019698E+03  0.66687087578E+02 -0.63548845328E+03  0.72533369957E+03  0.91655305964E+02 0.  0.
         23    2    4    4    0    0 -0.27168951015E+03 -0.59304458842E+03 -0.58847741380E+03  0.88282623023E+03  0.86944881641E+02 0.  0.
          4    1    3    3  502    0  0.30825596842E+01  0.10391461137E+03  0.19950331654E+03  0.22496515717E+03  0.00000000000E+00 0. -1.
         -3    1    3    3    0  502 -0.62173246513E+02  0.42244288947E+03  0.11611787171E+04  0.12371982543E+04  0.00000000000E+00 0.  1.
         11    1    5    5    0    0  0.29254882832E+03  0.25800367510E+02 -0.53308931904E+03  0.60863346769E+03  0.00000000000E+00 0. -1.
        -11    1    5    5    0    0  0.38231368660E+02  0.40886720068E+02 -0.10239913424E+03  0.11670023188E+03  0.00000000000E+00 0.  1.
          3    1    6    6  503    0 -0.87954510162E+02 -0.28906296324E+03 -0.29144412233E+03  0.41980122560E+03  0.00000000000E+00 0. -1.
         -3    1    6    6    0  503 -0.18373499999E+03 -0.30398162518E+03 -0.29703329148E+03  0.46302500463E+03  0.00000000000E+00 0.  1.
<mgrwt>
<rscale>  0 0.30672780E+04</rscale>
<asrwt>0</asrwt>
<pdfrwt beam="1">  1        2 0.22566209E+00 0.30672780E+04</pdfrwt>
<pdfrwt beam="2">  1       -1 0.24669535E+00 0.30672780E+04</pdfrwt>
<totfact> 0.94156332E-01</totfact>
</mgrwt>
</event>
<event>
12    6  0.1540825E-007  0.2268506E+04  0.7818608E-02  0.8490443E-01
          2   -1    0    0  501    0  0.00000000000E+00  0.00000000000E+00  0.18504030523E+04  0.18504030523E+04  0.00000000000E+00 0. -1.
         -1   -1    0    0    0  501 -0.00000000000E+00 -0.00000000000E+00 -0.69527034862E+03  0.69527034862E+03  0.00000000000E+00 0.  1.
         24    2    1    2    0    0 -0.56552477556E+03 -0.52198733844E+03 -0.14188331825E+03  0.78675354233E+03  0.81001278332E+02 0.  0.
        254    2    1    2    0    0  0.56552477556E+03  0.52198733844E+03  0.12970160220E+04  0.17589198586E+04  0.90512952363E+03 0.  0.
         23    2    4    4    0    0  0.56462453846E+03 -0.12487672057E+02  0.96730234388E+03  0.11238298315E+04  0.91448643076E+02 0.  0.
         23    2    4    4    0    0  0.90023709911E+00  0.53447501050E+03  0.32971367809E+03  0.63509002711E+03  0.94677799652E+02 0.  0.
          4    1    3    3  502    0 -0.20703406978E+03 -0.16313984155E+03 -0.15668024169E+02  0.26405151189E+03  0.00000000000E+00 0. -1.
         -3    1    3    3    0  502 -0.35849070579E+03 -0.35884749689E+03 -0.12621529408E+03  0.52270203043E+03  0.00000000000E+00 0.  1.
         11    1    5    5    0    0 -0.56030535129E+00  0.51710723742E+01  0.31146985334E+01  0.60626131775E+01  0.00000000000E+00 0. -1.
        -11    1    5    5    0    0  0.56518484382E+03 -0.17658744431E+02  0.96418764534E+03  0.11177672183E+04  0.00000000000E+00 0.  1.
          3    1    6    6  503    0  0.45340558942E+02  0.19305612629E+03  0.11246760961E+03  0.22798113385E+03  0.00000000000E+00 0. -1.
         -3    1    6    6    0  503 -0.44440321843E+02  0.34141888421E+03  0.21724606848E+03  0.40710889326E+03  0.00000000000E+00 0.  1.
<mgrwt>
<rscale>  0 0.22685064E+04</rscale>
<asrwt>0</asrwt>
<pdfrwt beam="1">  1        2 0.28467739E+00 0.22685064E+04</pdfrwt>
<pdfrwt beam="2">  1       -1 0.10696467E+00 0.22685064E+04</pdfrwt>
<totfact> 0.68242671E+00</totfact>
</mgrwt>
</event>
<event>
12    6  0.1540825E-007  0.1186214E+04  0.7818608E-02  0.9125009E-01
          2   -1    0    0  501    0  0.00000000000E+00  0.00000000000E+00  0.51231453956E+03  0.51231453956E+03  0.00000000000E+00 0. -1.
         -1   -1    0    0    0  501 -0.00000000000E+00 -0.00000000000E+00 -0.68664098281E+03  0.68664098281E+03  0.00000000000E+00 0.  1.
         24    2    1    2    0    0  0.14721439636E+03 -0.12933354091E+03  0.83143202338E+02  0.22857787592E+03  0.83281510337E+02 0.  0.
        254    2    1    2    0    0 -0.14721439636E+03  0.12933354091E+03 -0.25746964559E+03  0.97037764644E+03  0.91484584221E+03 0.  0.
         23    2    4    4    0    0 -0.15458904458E+02  0.17401317865E+03  0.31618821217E+03  0.37319473054E+03  0.93700359221E+02 0.  0.
         23    2    4    4    0    0 -0.13175549190E+03 -0.44679637732E+02 -0.57365785776E+03  0.59718291590E+03  0.90489323151E+02 0.  0.
          4    1    3    3  502    0  0.57858122631E+02 -0.80763612372E+02  0.78758118204E+02  0.12677998510E+03  0.00000000000E+00 0. -1.
         -3    1    3    3    0  502  0.89356273731E+02 -0.48569928542E+02  0.43850841334E+01  0.10179789083E+03  0.00000000000E+00 0.  1.
         11    1    5    5    0    0  0.28793401320E+02  0.31235217887E+02  0.11469521038E+03  0.12230981187E+03  0.00000000000E+00 0. -1.
        -11    1    5    5    0    0 -0.44252305778E+02  0.14277796076E+03  0.20149300179E+03  0.25088491867E+03  0.00000000000E+00 0.  1.
          2    1    6    6  503    0 -0.93060300310E+02 -0.45807835070E+02 -0.24224782893E+03  0.26351961572E+03  0.00000000000E+00 0. -1.
         -2    1    6    6    0  503 -0.38695191594E+02  0.11281973377E+01 -0.33141002883E+03  0.33366330018E+03  0.00000000000E+00 0.  1.
<mgrwt>
<rscale>  0 0.11862144E+04</rscale>
<asrwt>0</asrwt>
<pdfrwt beam="1">  1        2 0.78817622E-01 0.11862144E+04</pdfrwt>
<pdfrwt beam="2">  1       -1 0.10563707E+00 0.11862144E+04</pdfrwt>
<totfact> 0.56772577E+01</totfact>
</mgrwt>
</event>
<event>
12    6  0.1540825E-007  0.1252458E+04  0.7818608E-02  0.9068140E-01
          2   -1    0    0  501    0  0.00000000000E+00  0.00000000000E+00  0.83314107929E+03  0.83314107929E+03  0.00000000000E+00 0. -1.
         -1   -1    0    0    0  501 -0.00000000000E+00 -0.00000000000E+00 -0.47070361282E+03  0.47070361282E+03  0.00000000000E+00 0.  1.
         24    2    1    2    0    0 -0.28034326199E+03  0.76825552700E+02  0.10582914470E+03  0.31902116780E+03  0.77975557346E+02 0.  0.
        254    2    1    2    0    0  0.28034326199E+03 -0.76825552700E+02  0.25660832177E+03  0.98482352431E+03  0.90528174241E+03 0.  0.
         23    2    4    4    0    0  0.28290565398E+03 -0.45291048358E+03  0.45570097392E+02  0.54372979237E+03  0.91662086714E+02 0.  0.
         23    2    4    4    0    0 -0.25623919896E+01  0.37608493088E+03  0.21103822437E+03  0.44109373194E+03  0.92628867644E+02 0.  0.
          4    1    3    3  502    0 -0.40065622290E+02 -0.10262705280E+02 -0.25055261446E+01  0.41434947453E+02  0.00000000000E+00 0. -1.
         -3    1    3    3    0  502 -0.24027763970E+03  0.87088257980E+02  0.10833467084E+03  0.27758622035E+03  0.00000000000E+00 0.  1.
         11    1    5    5    0    0  0.69807280608E+02 -0.83118333165E+02 -0.24350875474E+02  0.11124153393E+03  0.00000000000E+00 0.  1.
        -11    1    5    5    0    0  0.21309837338E+03 -0.36979215041E+03  0.69920972867E+02  0.43248825844E+03  0.00000000000E+00 0. -1.
          2    1    6    6  503    0  0.20405294283E+02  0.11139087807E+03  0.22896050477E+02  0.11553585106E+03  0.00000000000E+00 0. -1.
         -2    1    6    6    0  503 -0.22967686273E+02  0.26469405281E+03  0.18814217390E+03  0.32555788088E+03  0.00000000000E+00 0.  1.
<mgrwt>
<rscale>  0 0.12524576E+04</rscale>
<asrwt>0</asrwt>
<pdfrwt beam="1">  1        2 0.12817555E+00 0.12524576E+04</pdfrwt>
<pdfrwt beam="2">  1       -1 0.72415940E-01 0.12524576E+04</pdfrwt>
<totfact> 0.70445778E+01</totfact>
</mgrwt>
</event>
<event>
12    6  0.1540825E-007  0.2020124E+04  0.7818608E-02  0.8597270E-01
          2   -1    0    0  501    0  0.00000000000E+00  0.00000000000E+00  0.27925219391E+04  0.27925219391E+04  0.00000000000E+00 0. -1.
         -1   -1    0    0    0  501 -0.00000000000E+00 -0.00000000000E+00 -0.36534173427E+03  0.36534173427E+03  0.00000000000E+00 0.  1.
         24    2    1    2    0    0  0.45920319758E+03  0.44094212736E+01  0.18739105569E+04  0.19309849632E+04  0.79215738205E+02 0.  0.
        254    2    1    2    0    0 -0.45920319758E+03 -0.44094212736E+01  0.55326964789E+03  0.12268787101E+04  0.99410112484E+03 0.  0.
         23    2    4    4    0    0  0.87410813919E+02 -0.17868647443E+03 -0.18603541084E+03  0.28617857320E+03  0.87860657499E+02 0.  0.
         23    2    4    4    0    0 -0.54661401150E+03  0.17427705316E+03  0.73930505873E+03  0.94070013693E+03  0.95840539040E+02 0.  0.
          2    1    3    3  502    0  0.43962263780E+03  0.15109835950E+02  0.17149528438E+04  0.17704687591E+04  0.00000000000E+00 0. -1.
         -3    1    3    3    0  502  0.19580559780E+02 -0.10700414676E+02  0.15895771315E+03  0.16051620406E+03  0.00000000000E+00 0.  1.
         11    1    5    5    0    0  0.38824694677E+02 -0.93767105801E+02 -0.37247897331E+02  0.10810658122E+03  0.00000000000E+00 0.  1.
        -11    1    5    5    0    0  0.48586119241E+02 -0.84919368634E+02 -0.14878751351E+03  0.17807199198E+03  0.00000000000E+00 0. -1.
          3    1    6    6  503    0 -0.26506454967E+03  0.40664755444E+02  0.37962803327E+03  0.46479057808E+03  0.00000000000E+00 0. -1.
         -3    1    6    6    0  503 -0.28154946183E+03  0.13361229772E+03  0.35967702546E+03  0.47590955885E+03  0.00000000000E+00 0.  1.
<mgrwt>
<rscale>  0 0.20201236E+04</rscale>
<asrwt>0</asrwt>
<pdfrwt beam="1">  1        2 0.42961875E+00 0.20201236E+04</pdfrwt>
<pdfrwt beam="2">  1       -1 0.56206423E-01 0.20201236E+04</pdfrwt>
<totfact> 0.79119738E+00</totfact>
</mgrwt>
</event>
<event>
12    6  0.1540825E-007  0.2059341E+04  0.7818608E-02  0.8579368E-01
         -1   -1    0    0    0  501 -0.00000000000E+00  0.00000000000E+00  0.59792786965E+03  0.59792786965E+03  0.00000000000E+00 0.  1.
          2   -1    0    0  501    0  0.00000000000E+00 -0.00000000000E+00 -0.17731599675E+04  0.17731599675E+04  0.00000000000E+00 0. -1.
         24    2    1    2    0    0  0.96641892730E+02  0.60811210104E+03 -0.11186311438E+04  0.12794440724E+04  0.80631976767E+02 0.  0.
        254    2    1    2    0    0 -0.96641892730E+02 -0.60811210104E+03 -0.56600954076E+02  0.10916437648E+04  0.89963462487E+03 0.  0.
         23    2    4    4    0    0 -0.14030363412E+03 -0.15327228398E+02  0.33432476583E+03  0.37452039086E+03  0.92587474537E+02 0.  0.
         23    2    4    4    0    0  0.43661741389E+02 -0.59278487265E+03 -0.39092571991E+03  0.71712337390E+03  0.90237253995E+02 0.  0.
          2    1    3    3  502    0  0.30412321646E+02  0.13106828937E+03 -0.18311388977E+03  0.22723226534E+03  0.00000000000E+00 0. -1.
         -1    1    3    3    0  502  0.66229571084E+02  0.47704381167E+03 -0.93551725400E+03  0.10522118070E+04  0.00000000000E+00 0.  1.
         11    1    5    5    0    0 -0.11522718055E+03  0.21995693873E+02  0.28262069723E+03  0.30599930096E+03  0.00000000000E+00 0. -1.
        -11    1    5    5    0    0 -0.25076453572E+02 -0.37322922270E+02  0.51704068606E+02  0.68521089899E+02  0.00000000000E+00 0.  1.
          3    1    6    6  503    0  0.13991927013E+02 -0.52514939960E+03 -0.32241910842E+03  0.61638603764E+03  0.00000000000E+00 0. -1.
         -3    1    6    6    0  503  0.29669814376E+02 -0.67635473047E+02 -0.68506611492E+02  0.10073733626E+03  0.00000000000E+00 0.  1.
<mgrwt>
<rscale>  0 0.20593414E+04</rscale>
<asrwt>0</asrwt>
<pdfrwt beam="1">  1        2 0.27279384E+00 0.20593414E+04</pdfrwt>
<pdfrwt beam="2">  1       -1 0.91988903E-01 0.20593414E+04</pdfrwt>
<totfact> 0.10819747E+01</totfact>
</mgrwt>
</event>
<event>
12    6  0.1540825E-007  0.1523812E+04  0.7818608E-02  0.8868771E-01
          2   -1    0    0  501    0  0.00000000000E+00  0.00000000000E+00  0.15435668585E+04  0.15435668585E+04  0.00000000000E+00 0. -1.
         -1   -1    0    0    0  501 -0.00000000000E+00 -0.00000000000E+00 -0.37607750533E+03  0.37607750533E+03  0.00000000000E+00 0.  1.
         24    2    1    2    0    0  0.38839729569E+03  0.12696395432E+03  0.43141655559E+02  0.41730443955E+03  0.72866232470E+02 0.  0.
        254    2    1    2    0    0 -0.38839729569E+03 -0.12696395432E+03  0.11243476976E+04  0.15023399242E+04  0.90878776286E+03 0.  0.
         23    2    4    4    0    0 -0.26520093907E+03 -0.26835481067E+03  0.30635426133E+02  0.38922592659E+03  0.90622569482E+02 0.  0.
         23    2    4    4    0    0 -0.12319635661E+03  0.14139085635E+03  0.10937122714E+04  0.11131139976E+04  0.87450114453E+02 0.  0.
          4    1    3    3  502    0  0.19523714702E+03  0.80778698713E+02  0.55052488107E+02  0.21834266232E+03  0.00000000000E+00 0. -1.
         -3    1    3    3    0  502  0.19316014866E+03  0.46185255604E+02 -0.11910832548E+02  0.19896177723E+03  0.00000000000E+00 0.  1.
         11    1    5    5    0    0 -0.88382107307E+02 -0.49182438301E+02 -0.20003444435E+02  0.10310405869E+03  0.00000000000E+00 0. -1.
        -11    1    5    5    0    0 -0.17681883177E+03 -0.21917237237E+03  0.50638870567E+02  0.28612186790E+03  0.00000000000E+00 0.  1.
          1    1    6    6  503    0 -0.12487703202E+03  0.86311952643E+02  0.80806213261E+03  0.82219732209E+03  0.00000000000E+00 0. -1.
         -1    1    6    6    0  503  0.16806754036E+01  0.55078903711E+02  0.28565013882E+03  0.29091667555E+03  0.00000000000E+00 0.  1.
<mgrwt>
<rscale>  0 0.15238120E+04</rscale>
<asrwt>0</asrwt>
<pdfrwt beam="1">  1        2 0.23747182E+00 0.15238120E+04</pdfrwt>
<pdfrwt beam="2">  1       -1 0.57858079E-01 0.15238120E+04</pdfrwt>
<totfact> 0.39889507E+01</totfact>
</mgrwt>
</event>
<event>
12    6  0.1540825E-007  0.1640729E+04  0.7818608E-02  0.8795910E-01
          2   -1    0    0  501    0  0.00000000000E+00  0.00000000000E+00  0.22421235731E+04  0.22421235731E+04  0.00000000000E+00 0. -1.
         -1   -1    0    0    0  501 -0.00000000000E+00 -0.00000000000E+00 -0.30016096292E+03  0.30016096292E+03  0.00000000000E+00 0.  1.
         24    2    1    2    0    0  0.48410558276E+02  0.17135580471E+02 -0.19916899101E+03  0.21958843016E+03  0.76899814100E+02 0.  0.
        254    2    1    2    0    0 -0.48410558276E+02 -0.17135580471E+02  0.21411316012E+04  0.23226961059E+04  0.89879667126E+03 0.  0.
         23    2    4    4    0    0  0.63957447223E+02 -0.17482698706E+03  0.36192810004E+02  0.20694763674E+03  0.82839449520E+02 0.  0.
         23    2    4    4    0    0 -0.11236800550E+03  0.15769140659E+03  0.21049387912E+04  0.21157484691E+04  0.90172731790E+02 0.  0.
          2    1    3    3  502    0  0.45547189182E+02 -0.12929672374E+02 -0.56300610410E+02  0.73562773212E+02  0.00000000000E+00 0. -1.
         -1    1    3    3    0  502  0.28633690933E+01  0.30065252845E+02 -0.14286838060E+03  0.14602565695E+03  0.00000000000E+00 0.  1.
         11    1    5    5    0    0  0.31590997561E+02 -0.63755661593E+02  0.54747797182E+02  0.89778041906E+02  0.00000000000E+00 0.  1.
        -11    1    5    5    0    0  0.32366449662E+02 -0.11107132546E+03 -0.18554987178E+02  0.11716959483E+03  0.00000000000E+00 0. -1.
          1    1    6    6  503    0 -0.15866349074E+02  0.83806352445E+02  0.11398423158E+04  0.11430291993E+04  0.00000000000E+00 0. -1.
         -1    1    6    6    0  503 -0.96501656424E+02  0.73885054141E+02  0.96509647545E+03  0.97271926980E+03  0.00000000000E+00 0.  1.
<mgrwt>
<rscale>  0 0.16407291E+04</rscale>
<asrwt>0</asrwt>
<pdfrwt beam="1">  1        2 0.34494208E+00 0.16407291E+04</pdfrwt>
<pdfrwt beam="2">  1       -1 0.46178611E-01 0.16407291E+04</pdfrwt>
<totfact> 0.24853511E+01</totfact>
</mgrwt>
</event>
<event>
12    6  0.1540825E-007  0.1804600E+04  0.7818608E-02  0.8703857E-01
          2   -1    0    0  501    0  0.00000000000E+00  0.00000000000E+00  0.72517344501E+03  0.72517344501E+03  0.00000000000E+00 0. -1.
         -1   -1    0    0    0  501 -0.00000000000E+00 -0.00000000000E+00 -0.11226906793E+04  0.11226906793E+04  0.00000000000E+00 0.  1.
         24    2    1    2    0    0  0.96666529341E+02 -0.65199538124E+03 -0.24290108918E+03  0.70766124356E+03  0.85680227929E+02 0.  0.
        254    2    1    2    0    0 -0.96666529341E+02  0.65199538124E+03 -0.15461614509E+03  0.11402028807E+04  0.91744975984E+03 0.  0.
         23    2    4    4    0    0 -0.39143453624E+03  0.72252112936E+02  0.12439774813E+03  0.42652877018E+03  0.89502112092E+02 0.  0.
         23    2    4    4    0    0  0.29476800690E+03  0.57974326831E+03 -0.27901389322E+03  0.71367411054E+03  0.92149598007E+02 0.  0.
          4    1    3    3  502    0 -0.13695821689E+01 -0.12189721580E+03 -0.74571926129E+02  0.14290479048E+03  0.00000000000E+00 0. -1.
         -3    1    3    3    0  502  0.98036111509E+02 -0.53009816544E+03 -0.16832916305E+03  0.56475645309E+03  0.00000000000E+00 0.  1.
         11    1    5    5    0    0 -0.35337393666E+03  0.74002214026E+02  0.13735542920E+03  0.38628484403E+03  0.00000000000E+00 0. -1.
        -11    1    5    5    0    0 -0.38060599572E+02 -0.17501010893E+01 -0.12957681068E+02  0.40243926153E+02  0.00000000000E+00 0.  1.
          2    1    6    6  503    0  0.19685418918E+03  0.46237634004E+03 -0.23393459365E+03  0.55431836135E+03  0.00000000000E+00 0. -1.
         -2    1    6    6    0  503  0.97913817716E+02  0.11736692827E+03 -0.45079299577E+02  0.15935574919E+03  0.00000000000E+00 0.  1.
<mgrwt>
<rscale>  0 0.18046002E+04</rscale>
<asrwt>0</asrwt>
<pdfrwt beam="1">  1        2 0.11156515E+00 0.18046002E+04</pdfrwt>
<pdfrwt beam="2">  1       -1 0.17272164E+00 0.18046002E+04</pdfrwt>
<totfact> 0.99173856E+00</totfact>
</mgrwt>
</event>
<event>
12    6  0.1540825E-007  0.1102722E+04  0.7818608E-02  0.9202543E-01
          2   -1    0    0  501    0  0.00000000000E+00  0.00000000000E+00  0.15475288435E+04  0.15475288435E+04  0.00000000000E+00 0. -1.
         -1   -1    0    0    0  501 -0.00000000000E+00 -0.00000000000E+00 -0.19644164880E+03  0.19644164880E+03  0.00000000000E+00 0.  1.
         24    2    1    2    0    0  0.67737063738E+02  0.90261773498E+02  0.42210036154E+03  0.44712184027E+03  0.94940651341E+02 0.  0.
        254    2    1    2    0    0 -0.67737063738E+02 -0.90261773498E+02  0.92898683316E+03  0.12968486520E+04  0.89781088906E+03 0.  0.
         23    2    4    4    0    0 -0.12032379192E+03 -0.44347536766E+03  0.26767861879E+03  0.53954705863E+03  0.91164515548E+02 0.  0.
         23    2    4    4    0    0  0.52586728186E+02  0.35321359416E+03  0.66130821436E+03  0.75730159339E+03  0.93015815293E+02 0.  0.
          2    1    3    3  502    0  0.61726065180E+02  0.10285759848E+03  0.41390374326E+03  0.43093630779E+03  0.00000000000E+00 0. -1.
         -3    1    3    3    0  502  0.60109985575E+01 -0.12595824980E+02  0.81966182867E+01  0.16185532488E+02  0.00000000000E+00 0.  1.
         11    1    5    5    0    0 -0.10991664749E+03 -0.30749533755E+03  0.14973576724E+03  0.35924344393E+03  0.00000000000E+00 0. -1.
        -11    1    5    5    0    0 -0.10407144430E+02 -0.13598003010E+03  0.11794285155E+03  0.18030361470E+03  0.00000000000E+00 0.  1.
          1    1    6    6  503    0  0.31756005070E+02  0.31015168095E+03  0.50172736256E+03  0.59070538799E+03  0.00000000000E+00 0. -1.
         -1    1    6    6    0  503  0.20830723116E+02  0.43061913210E+02  0.15958085180E+03  0.16659620541E+03  0.00000000000E+00 0.  1.
<mgrwt>
<rscale>  0 0.11027223E+04</rscale>
<asrwt>0</asrwt>
<pdfrwt beam="1">  1        2 0.23808135E+00 0.11027223E+04</pdfrwt>
<pdfrwt beam="2">  1       -1 0.30221793E-01 0.11027223E+04</pdfrwt>
<totfact> 0.13587964E+02</totfact>
</mgrwt>
</event>
<event>
12    6  0.1540825E-007  0.1246288E+04  0.7818608E-02  0.9073278E-01
         -1   -1    0    0    0  501 -0.00000000000E+00  0.00000000000E+00  0.13437966178E+03  0.13437966178E+03  0.00000000000E+00 0.  1.
          2   -1    0    0  501    0  0.00000000000E+00 -0.00000000000E+00 -0.28896367138E+04  0.28896367138E+04  0.00000000000E+00 0. -1.
         24    2    1    2    0    0 -0.13478301791E+03  0.11723218345E+03 -0.11530459373E+03  0.22675494049E+03  0.78821360985E+02 0.  0.
        254    2    1    2    0    0  0.13478301791E+03 -0.11723218345E+03 -0.26399524583E+04  0.27972614351E+04  0.90742090975E+03 0.  0.
         23    2    4    4    0    0 -0.24280522839E+03 -0.15185218580E+03 -0.21494205336E+04  0.21703356412E+04  0.91294579927E+02 0.  0.
         23    2    4    4    0    0  0.37758824630E+03  0.34620002353E+02 -0.49053192478E+03  0.62692579389E+03  0.92967486269E+02 0.  0.
          4    1    3    3  502    0 -0.15871404960E+02 -0.99627959653E+01 -0.23039623330E+02  0.29698199306E+02  0.00000000000E+00 0. -1.
         -3    1    3    3    0  502 -0.11891161295E+03  0.12719497941E+03 -0.92264970404E+02  0.19705674118E+03  0.00000000000E+00 0.  1.
         11    1    5    5    0    0 -0.12119426443E+03 -0.23184316712E+02 -0.91597309508E+03  0.92424686810E+03  0.00000000000E+00 0. -1.
        -11    1    5    5    0    0 -0.12161096396E+03 -0.12866786909E+03 -0.12334474385E+04  0.12460887732E+04  0.00000000000E+00 0.  1.
          3    1    6    6  503    0  0.29054252211E+02 -0.12945398106E+02 -0.81224920074E+02  0.87230846291E+02  0.00000000000E+00 0. -1.
         -3    1    6    6    0  503  0.34853399409E+03  0.47565400459E+02 -0.40930700471E+03  0.53969494760E+03  0.00000000000E+00 0.  1.
<mgrwt>
<rscale>  0 0.12462879E+04</rscale>
<asrwt>0</asrwt>
<pdfrwt beam="1">  1        2 0.44455952E+00 0.12462879E+04</pdfrwt>
<pdfrwt beam="2">  1       -1 0.20673793E-01 0.12462879E+04</pdfrwt>
<totfact> 0.44688088E+01</totfact>
</mgrwt>
</event>
<event>
12    6  0.1540825E-007  0.1482643E+04  0.7818608E-02  0.8896078E-01
          2   -1    0    0  501    0  0.00000000000E+00  0.00000000000E+00  0.11543574768E+04  0.11543574768E+04  0.00000000000E+00 0. -1.
         -1   -1    0    0    0  501 -0.00000000000E+00 -0.00000000000E+00 -0.47607246911E+03  0.47607246911E+03  0.00000000000E+00 0.  1.
         24    2    1    2    0    0 -0.38115461890E+03 -0.93188224636E+02  0.42498170180E+03  0.58119526971E+03  0.56706313187E+02 0.  0.
        254    2    1    2    0    0  0.38115461890E+03  0.93188224636E+02  0.25330330585E+03  0.10492346762E+04  0.93955731713E+03 0.  0.
         23    2    4    4    0    0 -0.17203302604E+03  0.32228192063E+03 -0.32326196412E+02  0.37904830549E+03  0.95768661416E+02 0.  0.
         23    2    4    4    0    0  0.55318764493E+03 -0.22909369600E+03  0.28562950227E+03  0.67018637066E+03  0.95210644390E+02 0.  0.
          2    1    3    3  502    0 -0.22411769914E+03 -0.45776471453E+02  0.20790686669E+03  0.30911081123E+03  0.00000000000E+00 0. -1.
         -1    1    3    3    0  502 -0.15703691976E+03 -0.47411753183E+02  0.21707483511E+03  0.27208445848E+03  0.00000000000E+00 0.  1.
         11    1    5    5    0    0 -0.95261619682E+02  0.83047423070E+02 -0.82987453312E+01  0.12665117385E+03  0.00000000000E+00 0. -1.
        -11    1    5    5    0    0 -0.76771406354E+02  0.23923449756E+03 -0.24027451081E+02  0.25239713164E+03  0.00000000000E+00 0.  1.
          2    1    6    6  503    0  0.28034463838E+03 -0.70458072436E+02  0.16088772365E+03  0.33082067025E+03  0.00000000000E+00 0. -1.
         -2    1    6    6    0  503  0.27284300655E+03 -0.15863562356E+03  0.12474177861E+03  0.33936570041E+03  0.00000000000E+00 0.  1.
<mgrwt>
<rscale>  0 0.14826433E+04</rscale>
<asrwt>0</asrwt>
<pdfrwt beam="1">  1        2 0.17759346E+00 0.14826433E+04</pdfrwt>
<pdfrwt beam="2">  1       -1 0.73241918E-01 0.14826433E+04</pdfrwt>
<totfact> 0.41829938E+01</totfact>
</mgrwt>
</event>
<event>
12    6  0.1540825E-007  0.2120152E+04  0.7818608E-02  0.8552418E-01
          2   -1    0    0  501    0  0.00000000000E+00  0.00000000000E+00  0.13670464125E+04  0.13670464125E+04  0.00000000000E+00 0. -1.
         -1   -1    0    0    0  501 -0.00000000000E+00 -0.00000000000E+00 -0.82203617709E+03  0.82203617709E+03  0.00000000000E+00 0.  1.
         24    2    1    2    0    0 -0.44597932815E+03  0.60454884902E+03 -0.14275909426E+03  0.76938335299E+03  0.84815758430E+02 0.  0.
        254    2    1    2    0    0  0.44597932815E+03 -0.60454884902E+03  0.68776932962E+03  0.14196992366E+04  0.98901081872E+03 0.  0.
         23    2    4    4    0    0  0.57947240694E+02  0.76220068630E+02 -0.19453814221E+03  0.23618466919E+03  0.93652162913E+02 0.  0.
         23    2    4    4    0    0  0.38803208745E+03 -0.68076891765E+03  0.88230747183E+03  0.11835145674E+04  0.90691985352E+02 0.  0.
          4    1    3    3  502    0 -0.32633253969E+03  0.43360556171E+03 -0.14107374800E+03  0.56072142101E+03  0.00000000000E+00 0. -1.
         -3    1    3    3    0  502 -0.11964678846E+03  0.17094328731E+03 -0.16853462534E+01  0.20866193198E+03  0.00000000000E+00 0.  1.
         11    1    5    5    0    0  0.59736496411E+02  0.45622835730E+02 -0.19108994022E+03  0.20534180625E+03  0.00000000000E+00 0.  1.
        -11    1    5    5    0    0 -0.17892557171E+01  0.30597232900E+02 -0.34482019986E+01  0.30842862937E+02  0.00000000000E+00 0. -1.
          1    1    6    6  503    0  0.11619862240E+03 -0.12901559209E+03  0.18606524432E+03  0.25449443608E+03  0.00000000000E+00 0. -1.
         -1    1    6    6    0  503  0.27183346506E+03 -0.55175332555E+03  0.69624222751E+03  0.92902013130E+03  0.00000000000E+00 0.  1.
<mgrwt>
<rscale>  0 0.21201525E+04</rscale>
<asrwt>0</asrwt>
<pdfrwt beam="1">  1        2 0.21031483E+00 0.21201525E+04</pdfrwt>
<pdfrwt beam="2">  1       -1 0.12646710E+00 0.21201525E+04</pdfrwt>
<totfact> 0.86150501E+00</totfact>
</mgrwt>
</event>
<event>
12    6  0.1540825E-007  0.1187680E+04  0.7818608E-02  0.9123709E-01
          2   -1    0    0  501    0  0.00000000000E+00  0.00000000000E+00  0.13356491589E+04  0.13356491589E+04  0.00000000000E+00 0. -1.
         -1   -1    0    0    0  501 -0.00000000000E+00 -0.00000000000E+00 -0.26402577489E+03  0.26402577489E+03  0.00000000000E+00 0.  1.
         24    2    1    2    0    0 -0.43932984356E+02 -0.23363127432E+03  0.31208630180E+03  0.39865448337E+03  0.70808600368E+02 0.  0.
        254    2    1    2    0    0  0.43932984356E+02  0.23363127432E+03  0.75953708219E+03  0.12010204504E+04  0.89946643272E+03 0.  0.
         23    2    4    4    0    0  0.39513276356E+03  0.42254672513E+02  0.92371876241E+02  0.41779456229E+03  0.90024299912E+02 0.  0.
         23    2    4    4    0    0 -0.35119977920E+03  0.19137660180E+03  0.66716520595E+03  0.78322588810E+03  0.91471805131E+02 0.  0.
          2    1    3    3  502    0 -0.24631973811E+02 -0.12408815573E+03  0.22201108491E+03  0.25552597979E+03  0.00000000000E+00 0. -1.
         -1    1    3    3    0  502 -0.19301010545E+02 -0.10954311859E+03  0.90075216887E+02  0.14312850357E+03  0.00000000000E+00 0.  1.
         11    1    5    5    0    0  0.10664692866E+02 -0.12397307009E+02 -0.56142077368E+01  0.17290119246E+02  0.00000000000E+00 0.  1.
        -11    1    5    5    0    0  0.38446807069E+03  0.54651979523E+02  0.97986083978E+02  0.40050444305E+03  0.00000000000E+00 0. -1.
          3    1    6    6  503    0 -0.26247610834E+02 -0.80060130386E+01  0.29556214857E+02  0.40331168542E+02  0.00000000000E+00 0.  1.
         -3    1    6    6    0  503 -0.32495216837E+03  0.19938261484E+03  0.63760899109E+03  0.74289471956E+03  0.00000000000E+00 0. -1.
<mgrwt>
<rscale>  0 0.11876798E+04</rscale>
<asrwt>0</asrwt>
<pdfrwt beam="1">  1        2 0.20548448E+00 0.11876798E+04</pdfrwt>
<pdfrwt beam="2">  1       -1 0.40619351E-01 0.11876798E+04</pdfrwt>
<totfact> 0.10497360E+02</totfact>
</mgrwt>
</event>
<event>
12    6  0.1540825E-007  0.3154168E+04  0.7818608E-02  0.8201027E-01
         -1   -1    0    0    0  501 -0.00000000000E+00  0.00000000000E+00  0.67488899787E+03  0.67488899787E+03  0.00000000000E+00 0.  1.
          2   -1    0    0  501    0  0.00000000000E+00 -0.00000000000E+00 -0.36853379074E+04  0.36853379074E+04  0.00000000000E+00 0. -1.
         24    2    1    2    0    0  0.83608073108E+02 -0.71463684963E+03  0.35306904332E+03  0.80552869754E+03  0.80762593280E+02 0.  0.
        254    2    1    2    0    0 -0.83608073108E+02  0.71463684963E+03 -0.33635179529E+04  0.35546982077E+04  0.89717901895E+03 0.  0.
         23    2    4    4    0    0 -0.35883372446E+03  0.19906717428E+03 -0.62715633814E+03  0.75516714960E+03  0.92536315465E+02 0.  0.
         23    2    4    4    0    0  0.27522565136E+03  0.51556967535E+03 -0.27363616147E+04  0.27995310581E+04  0.90210917161E+02 0.  0.
          2    1    3    3  502    0  0.53112501202E+02 -0.16597888033E+03  0.75935005306E+02  0.19009484878E+03  0.00000000000E+00 0. -1.
         -1    1    3    3    0  502  0.30495571906E+02 -0.54865796930E+03  0.27713403802E+03  0.61543384877E+03  0.00000000000E+00 0.  1.
         11    1    5    5    0    0 -0.12974114348E+02  0.16672567982E+01 -0.10192051041E+01  0.13120448445E+02  0.00000000000E+00 0.  1.
        -11    1    5    5    0    0 -0.34585961012E+03  0.19739991748E+03 -0.62613713304E+03  0.74204670116E+03  0.00000000000E+00 0. -1.
          4    1    6    6  503    0  0.18081146068E+03  0.36688601279E+03 -0.20872634753E+04  0.21269619052E+04  0.00000000000E+00 0. -1.
         -4    1    6    6    0  503  0.94414190678E+02  0.14868366256E+03 -0.64909813940E+03  0.67256915294E+03  0.00000000000E+00 0.  1.
<mgrwt>
<rscale>  0 0.31541680E+04</rscale>
<asrwt>0</asrwt>
<pdfrwt beam="1">  1        2 0.56697506E+00 0.31541680E+04</pdfrwt>
<pdfrwt beam="2">  1       -1 0.10382908E+00 0.31541680E+04</pdfrwt>
<totfact> 0.50133523E-01</totfact>
</mgrwt>
</event>
<event>
12    6  0.1540825E-007  0.1265663E+04  0.7818608E-02  0.9057246E-01
          2   -1    0    0  501    0  0.00000000000E+00  0.00000000000E+00  0.10005267784E+04  0.10005267784E+04  0.00000000000E+00 0. -1.
         -1   -1    0    0    0  501 -0.00000000000E+00 -0.00000000000E+00 -0.40026510544E+03  0.40026510544E+03  0.00000000000E+00 0.  1.
         24    2    1    2    0    0  0.30007824911E+03  0.84076178528E+02  0.18321090618E+03  0.37421224600E+03  0.96709924690E+02 0.  0.
        254    2    1    2    0    0 -0.30007824911E+03 -0.84076178528E+02  0.41705076681E+03  0.10265796379E+04  0.88477039475E+03 0.  0.
         23    2    4    4    0    0  0.12776484218E+03 -0.15319208060E+03 -0.17933380695E+03  0.28379362044E+03  0.92663564739E+02 0.  0.
         23    2    4    4    0    0 -0.42784309129E+03  0.69115902075E+02  0.59638457376E+03  0.74278601744E+03  0.90718185605E+02 0.  0.
          4    1    3    3  502    0  0.21088510430E+03  0.85549108807E+02  0.16993817584E+03  0.28402492996E+03  0.00000000000E+00 0. -1.
         -3    1    3    3    0  502  0.89193144806E+02 -0.14729302799E+01  0.13272730343E+02  0.90187316041E+02  0.00000000000E+00 0.  1.
         11    1    5    5    0    0  0.57565451321E+02 -0.12643097628E+03 -0.83722764922E+02  0.16219763967E+03  0.00000000000E+00 0. -1.
        -11    1    5    5    0    0  0.70199390861E+02 -0.26761104326E+02 -0.95611042026E+02  0.12159598077E+03  0.00000000000E+00 0.  1.
          1    1    6    6  503    0 -0.28823051452E+03  0.85789093964E+02  0.43368466035E+03  0.52774897704E+03  0.00000000000E+00 0. -1.
         -1    1    6    6    0  503 -0.13961257677E+03 -0.16673191889E+02  0.16269991341E+03  0.21503704040E+03  0.00000000000E+00 0.  1.
<mgrwt>
<rscale>  0 0.12656634E+04</rscale>
<asrwt>0</asrwt>
<pdfrwt beam="1">  1        2 0.15392720E+00 0.12656634E+04</pdfrwt>
<pdfrwt beam="2">  1       -1 0.61579247E-01 0.12656634E+04</pdfrwt>
<totfact> 0.75452925E+01</totfact>
</mgrwt>
</event>
<event>
12    6  0.1540825E-007  0.2177593E+04  0.7818608E-02  0.8527812E-01
          2   -1    0    0  501    0  0.00000000000E+00  0.00000000000E+00  0.21046106866E+04  0.21046106866E+04  0.00000000000E+00 0. -1.
         -1   -1    0    0    0  501 -0.00000000000E+00 -0.00000000000E+00 -0.56327674515E+03  0.56327674515E+03  0.00000000000E+00 0.  1.
         24    2    1    2    0    0 -0.39095293105E+03 -0.13143413388E+03  0.16141043953E+04  0.16681566134E+04  0.85407037351E+02 0.  0.
        254    2    1    2    0    0  0.39095293105E+03  0.13143413388E+03 -0.72770453928E+02  0.99973081828E+03  0.90777036975E+03 0.  0.
         23    2    4    4    0    0 -0.26866111911E+03  0.15399013824E+03  0.35087597826E+02  0.32480542919E+03  0.91518674100E+02 0.  0.
         23    2    4    4    0    0  0.65961405017E+03 -0.22556004367E+02 -0.10785805175E+03  0.67492538909E+03  0.91057415937E+02 0.  0.
          2    1    3    3  502    0 -0.25363795603E+03 -0.42314867417E+02  0.95225473816E+03  0.98636293883E+03  0.00000000000E+00 0. -1.
         -1    1    3    3    0  502 -0.13731497503E+03 -0.89119266460E+02  0.66184965719E+03  0.68179367461E+03  0.00000000000E+00 0.  1.
         11    1    5    5    0    0 -0.10181765784E+03  0.14323177161E+02  0.30204370877E+02  0.10716479306E+03  0.00000000000E+00 0.  1.
        -11    1    5    5    0    0 -0.16684346127E+03  0.13966696108E+03  0.48832269485E+01  0.21764063613E+03  0.00000000000E+00 0. -1.
          2    1    6    6  503    0  0.34441899386E+03  0.28999830994E+02 -0.35569856486E+02  0.34746316096E+03  0.00000000000E+00 0.  1.
         -2    1    6    6    0  503  0.31519505630E+03 -0.51555835360E+02 -0.72288195268E+02  0.32746222813E+03  0.00000000000E+00 0. -1.
<mgrwt>
<rscale>  0 0.21775934E+04</rscale>
<asrwt>0</asrwt>
<pdfrwt beam="1">  1        2 0.32378626E+00 0.21775934E+04</pdfrwt>
<pdfrwt beam="2">  1       -1 0.86657962E-01 0.21775934E+04</pdfrwt>
<totfact> 0.79908316E+00</totfact>
</mgrwt>
</event>
<event>
12    6  0.1540825E-007  0.1653651E+04  0.7818608E-02  0.8788249E-01
          2   -1    0    0  501    0  0.00000000000E+00  0.00000000000E+00  0.99080309837E+03  0.99080309837E+03  0.00000000000E+00 0. -1.
         -3   -1    0    0    0  501 -0.00000000000E+00 -0.00000000000E+00 -0.68998645803E+03  0.68998645803E+03  0.00000000000E+00 0.  1.
         24    2    1    2    0    0  0.40696354596E+03 -0.40622567157E+03 -0.62854845915E+01  0.58059559751E+03  0.80081936432E+02 0.  0.
        254    2    1    2    0    0 -0.40696354596E+03  0.40622567157E+03  0.30710212492E+03  0.11001939589E+04  0.88627106918E+03 0.  0.
         23    2    4    4    0    0  0.78251439537E+00  0.92826363749E+02 -0.28481147345E+03  0.31084960356E+03  0.83021409797E+02 0.  0.
         23    2    4    4    0    0 -0.40774606036E+03  0.31339930782E+03  0.59191359838E+03  0.78934435534E+03  0.90701860406E+02 0.  0.
          2    1    3    3  502    0  0.73018676005E+01  0.21190815216E+01 -0.52061556841E+01  0.92147617418E+01  0.00000000000E+00 0. -1.
         -1    1    3    3    0  502  0.39966167836E+03 -0.40834475309E+03 -0.10793289074E+01  0.57138083576E+03  0.00000000000E+00 0.  1.
         11    1    5    5    0    0 -0.12536367906E+02  0.29591234776E+02 -0.20800846027E+03  0.21047641492E+03  0.00000000000E+00 0.  1.
        -11    1    5    5    0    0  0.13318882302E+02  0.63235128972E+02 -0.76803013184E+02  0.10037318863E+03  0.00000000000E+00 0. -1.
          4    1    6    6  503    0 -0.36260594970E+03  0.24104904907E+03  0.51611194458E+03  0.67524755324E+03  0.00000000000E+00 0.  1.
         -4    1    6    6    0  503 -0.45140110659E+02  0.72350258749E+02  0.75801653801E+02  0.11409680210E+03  0.00000000000E+00 0. -1.
<mgrwt>
<rscale>  0 0.16536514E+04</rscale>
<asrwt>0</asrwt>
<pdfrwt beam="1">  1        2 0.15243125E+00 0.16536514E+04</pdfrwt>
<pdfrwt beam="2">  1       -3 0.10615176E+00 0.16536514E+04</pdfrwt>
<totfact> 0.11725521E+01</totfact>
</mgrwt>
</event>
<event>
12    6  0.1540825E-007  0.2499211E+04  0.7818608E-02  0.8403267E-01
          2   -1    0    0  501    0  0.00000000000E+00  0.00000000000E+00  0.42741822228E+04  0.42741822228E+04  0.00000000000E+00 0. -1.
         -1   -1    0    0    0  501 -0.00000000000E+00 -0.00000000000E+00 -0.36533642519E+03  0.36533642519E+03  0.00000000000E+00 0.  1.
         24    2    1    2    0    0  0.38273398852E+03 -0.62512969126E+03  0.21621932651E+03  0.76812827198E+03  0.77445517642E+02 0.  0.
        254    2    1    2    0    0 -0.38273398852E+03  0.62512969126E+03  0.36926264711E+04  0.38713903760E+04  0.90271853391E+03 0.  0.
         23    2    4    4    0    0 -0.50071065720E+03  0.16052798709E+03  0.28411485737E+04  0.28908255828E+04  0.90922691438E+02 0.  0.
         23    2    4    4    0    0  0.11797666868E+03  0.46460170417E+03  0.85147789742E+03  0.98056479316E+03  0.81972348525E+02 0.  0.
          2    1    3    3  502    0  0.17029437138E+03 -0.27486034754E+03  0.55481986639E+02  0.32806498505E+03  0.00000000000E+00 0. -1.
         -1    1    3    3    0  502  0.21243961713E+03 -0.35026934372E+03  0.16073733987E+03  0.44006328693E+03  0.00000000000E+00 0.  1.
         11    1    5    5    0    0  0.37603299355E+01 -0.32197291070E+00  0.30903897112E+02  0.31133496503E+02  0.00000000000E+00 0. -1.
        -11    1    5    5    0    0 -0.50447098713E+03  0.16084996000E+03  0.28102446766E+04  0.28596920863E+04  0.00000000000E+00 0.  1.
          3    1    6    6  503    0  0.10446136489E+02  0.28461596761E+02  0.10560819628E+03  0.10987390672E+03  0.00000000000E+00 0. -1.
         -3    1    6    6    0  503  0.10753053219E+03  0.43614010741E+03  0.74586970115E+03  0.87069088644E+03  0.00000000000E+00 0.  1.
<mgrwt>
<rscale>  0 0.24992114E+04</rscale>
<asrwt>0</asrwt>
<pdfrwt beam="1">  1        2 0.65756646E+00 0.24992114E+04</pdfrwt>
<pdfrwt beam="2">  1       -1 0.56205607E-01 0.24992114E+04</pdfrwt>
<totfact> 0.65314849E-01</totfact>
</mgrwt>
</event>
<event>
12    6  0.1540825E-007  0.3967925E+04  0.7818608E-02  0.8011049E-01
         -1   -1    0    0    0  501 -0.00000000000E+00  0.00000000000E+00  0.18860153484E+04  0.18860153484E+04  0.00000000000E+00 0.  1.
          2   -1    0    0  501    0  0.00000000000E+00 -0.00000000000E+00 -0.20869960045E+04  0.20869960045E+04  0.00000000000E+00 0. -1.
         24    2    1    2    0    0  0.18499515451E+03  0.10905779792E+04  0.14291882567E+04  0.18090206886E+04  0.79957756423E+02 0.  0.
        254    2    1    2    0    0 -0.18499515451E+03 -0.10905779792E+04 -0.16301689127E+04  0.21639906644E+04  0.89544479197E+03 0.  0.
         23    2    4    4    0    0 -0.53260150957E+03 -0.75746306970E+03 -0.98621018400E+03  0.13557694604E+04  0.89920146139E+02 0.  0.
         23    2    4    4    0    0  0.34760635506E+03 -0.33311490950E+03 -0.64395872875E+03  0.80822120400E+03  0.82115462963E+02 0.  0.
          2    1    3    3  502    0  0.93819107659E+02  0.59015156632E+03  0.70751825664E+03  0.92610095545E+03  0.00000000000E+00 0. -1.
         -1    1    3    3    0  502  0.91176046853E+02  0.50042641288E+03  0.72167000003E+03  0.88291973314E+03  0.00000000000E+00 0.  1.
         11    1    5    5    0    0 -0.32628403019E+03 -0.52505307934E+03 -0.62107650265E+03  0.87628649803E+03  0.00000000000E+00 0.  1.
        -11    1    5    5    0    0 -0.20631747938E+03 -0.23240999036E+03 -0.36513368135E+03  0.47948296234E+03  0.00000000000E+00 0. -1.
          1    1    6    6  503    0  0.30210106650E+01 -0.21092126582E+02 -0.14742630619E+02  0.25910412324E+02  0.00000000000E+00 0. -1.
         -1    1    6    6    0  503  0.34458534439E+03 -0.31202278292E+03 -0.62921609813E+03  0.78231079168E+03  0.00000000000E+00 0.  1.
<mgrwt>
<rscale>  0 0.39679246E+04</rscale>
<asrwt>0</asrwt>
<pdfrwt beam="1">  1        2 0.32107631E+00 0.39679246E+04</pdfrwt>
<pdfrwt beam="2">  1       -1 0.29015621E+00 0.39679246E+04</pdfrwt>
<totfact> 0.20562687E-01</totfact>
</mgrwt>
</event>
<event>
12    6  0.1540825E-007  0.2150705E+04  0.7818608E-02  0.8539230E-01
         -1   -1    0    0    0  501 -0.00000000000E+00  0.00000000000E+00  0.62706239531E+03  0.62706239531E+03  0.00000000000E+00 0.  1.
          2   -1    0    0  501    0  0.00000000000E+00 -0.00000000000E+00 -0.18441281670E+04  0.18441281670E+04  0.00000000000E+00 0. -1.
         24    2    1    2    0    0 -0.13558550404E+03  0.37690108249E+02 -0.15033834397E+04  0.15121925404E+04  0.82222498838E+02 0.  0.
        254    2    1    2    0    0  0.13558550404E+03 -0.37690108249E+02  0.28631766798E+03  0.95899802194E+03  0.90437571060E+03 0.  0.
         23    2    4    4    0    0 -0.26911099080E+03 -0.17880397541E+03  0.38354587783E+03  0.51012791486E+03  0.93442293007E+02 0.  0.
         23    2    4    4    0    0  0.40469649484E+03  0.14111386716E+03 -0.97228209853E+02  0.44887010708E+03  0.91316328212E+02 0.  0.
          2    1    3    3  502    0 -0.10293550161E+03 -0.66901233489E+01 -0.11398033838E+04  0.11444615455E+04  0.00000000000E+00 0. -1.
         -1    1    3    3    0  502 -0.32650002429E+02  0.44380231598E+02 -0.36358005588E+03  0.36773099495E+03  0.00000000000E+00 0.  1.
         11    1    5    5    0    0 -0.11630384541E+02 -0.43683393470E+02  0.59858247171E+02  0.75010095747E+02  0.00000000000E+00 0.  1.
        -11    1    5    5    0    0 -0.25748060626E+03 -0.13512058194E+03  0.32368763066E+03  0.43511781911E+03  0.00000000000E+00 0. -1.
          1    1    6    6  503    0  0.32259919766E+03  0.82111811760E+02 -0.10047492991E+03  0.34771799422E+03  0.00000000000E+00 0. -1.
         -1    1    6    6    0  503  0.82097297182E+02  0.59002055401E+02  0.32467200565E+01  0.10115211287E+03  0.00000000000E+00 0.  1.
<mgrwt>
<rscale>  0 0.21507054E+04</rscale>
<asrwt>0</asrwt>
<pdfrwt beam="1">  1        2 0.28371203E+00 0.21507054E+04</pdfrwt>
<pdfrwt beam="2">  1       -1 0.96471137E-01 0.21507054E+04</pdfrwt>
<totfact> 0.88134022E+00</totfact>
</mgrwt>
</event>
<event>
12    6  0.1540825E-007  0.1718708E+04  0.7818608E-02  0.8750766E-01
          2   -1    0    0  501    0  0.00000000000E+00  0.00000000000E+00  0.86007876810E+03  0.86007876810E+03  0.00000000000E+00 0. -1.
         -1   -1    0    0    0  501 -0.00000000000E+00 -0.00000000000E+00 -0.85863015066E+03  0.85863015066E+03  0.00000000000E+00 0.  1.
         24    2    1    2    0    0  0.26907736787E+03 -0.52375399934E+03  0.19318961630E+03  0.62468493109E+03  0.78664817797E+02 0.  0.
        254    2    1    2    0    0 -0.26907736787E+03  0.52375399934E+03 -0.19174099886E+03  0.10940239877E+04  0.90188857031E+03 0.  0.
         23    2    4    4    0    0 -0.63279887490E+02  0.74038021252E+03 -0.46575033395E+02  0.74998972184E+03  0.90267080842E+02 0.  0.
         23    2    4    4    0    0 -0.20579748038E+03 -0.21662621318E+03 -0.14516596547E+03  0.34403426584E+03  0.89481279469E+02 0.  0.
          4    1    3    3  502    0  0.26745211215E+03 -0.50808436208E+03  0.19930604751E+03  0.60778553114E+03  0.00000000000E+00 0. -1.
         -3    1    3    3    0  502  0.16252557213E+01 -0.15669637251E+02 -0.61164312127E+01  0.16899399946E+02  0.00000000000E+00 0.  1.
         11    1    5    5    0    0 -0.54951312024E+02  0.25837076865E+03 -0.44696887727E+02  0.26790467065E+03  0.00000000000E+00 0. -1.
        -11    1    5    5    0    0 -0.83285754659E+01  0.48200944386E+03 -0.18781456677E+01  0.48208505118E+03  0.00000000000E+00 0.  1.
          1    1    6    6  503    0 -0.39998186713E+02 -0.97646951581E+02 -0.29976528125E+02  0.10969673802E+03  0.00000000000E+00 0. -1.
         -1    1    6    6    0  503 -0.16579929367E+03 -0.11897926160E+03 -0.11518943734E+03  0.23433752782E+03  0.00000000000E+00 0.  1.
<mgrwt>
<rscale>  0 0.17187083E+04</rscale>
<asrwt>0</asrwt>
<pdfrwt beam="1">  1        2 0.13231981E+00 0.17187083E+04</pdfrwt>
<pdfrwt beam="2">  1       -1 0.13209695E+00 0.17187083E+04</pdfrwt>
<totfact> 0.16494983E+01</totfact>
</mgrwt>
</event>
<event>
12    6  0.1540825E-007  0.1465875E+04  0.7818608E-02  0.8907468E-01
          2   -1    0    0  501    0  0.00000000000E+00  0.00000000000E+00  0.11164983820E+04  0.11164983820E+04  0.00000000000E+00 0. -1.
         -1   -1    0    0    0  501 -0.00000000000E+00 -0.00000000000E+00 -0.48114486708E+03  0.48114486708E+03  0.00000000000E+00 0.  1.
         24    2    1    2    0    0  0.33404066159E+03 -0.30216725992E+03  0.22505453648E+03  0.50896176619E+03  0.74191094387E+02 0.  0.
        254    2    1    2    0    0 -0.33404066159E+03  0.30216725992E+03  0.41029897840E+03  0.10886814829E+04  0.90221610653E+03 0.  0.
         23    2    4    4    0    0 -0.56749543398E+03  0.25619119406E+03  0.30137417951E+02  0.63000983135E+03  0.91209254606E+02 0.  0.
         23    2    4    4    0    0  0.23345477239E+03  0.45976065859E+02  0.38016156045E+03  0.45867165151E+03  0.96135022114E+02 0.  0.
          4    1    3    3  502    0  0.99635028733E+02 -0.68849522042E+02  0.29164048121E+02  0.12457101324E+03  0.00000000000E+00 0. -1.
         -3    1    3    3    0  502  0.23440563286E+03 -0.23331773787E+03  0.19589048836E+03  0.38439075295E+03  0.00000000000E+00 0.  1.
         11    1    5    5    0    0 -0.39783074627E+03  0.15908918496E+03  0.58645520494E+02  0.43245574169E+03  0.00000000000E+00 0. -1.
        -11    1    5    5    0    0 -0.16966468772E+03  0.97102009099E+02 -0.28508102543E+02  0.19755408966E+03  0.00000000000E+00 0.  1.
          2    1    6    6  503    0  0.20827776187E+03  0.71941429480E+02  0.33104011231E+03  0.39767166271E+03  0.00000000000E+00 0. -1.
         -2    1    6    6    0  503  0.25177010519E+02 -0.25965363622E+02  0.49121448134E+02  0.60999988799E+02  0.00000000000E+00 0.  1.
<mgrwt>
<rscale>  0 0.14658751E+04</rscale>
<asrwt>0</asrwt>
<pdfrwt beam="1">  1        2 0.17176898E+00 0.14658751E+04</pdfrwt>
<pdfrwt beam="2">  1       -1 0.74022287E-01 0.14658751E+04</pdfrwt>
<totfact> 0.43211469E+01</totfact>
</mgrwt>
</event>
<event>
12    6  0.1540825E-007  0.1315607E+04  0.7818608E-02  0.9017280E-01
          2   -1    0    0  501    0  0.00000000000E+00  0.00000000000E+00  0.12087369788E+04  0.12087369788E+04  0.00000000000E+00 0. -1.
         -1   -1    0    0    0  501 -0.00000000000E+00 -0.00000000000E+00 -0.35798136779E+03  0.35798136779E+03  0.00000000000E+00 0.  1.
         24    2    1    2    0    0 -0.23019282295E+03 -0.15707407391E+03  0.45245250997E+03  0.53725674133E+03  0.79186690130E+02 0.  0.
        254    2    1    2    0    0  0.23019282295E+03  0.15707407391E+03  0.39830310101E+03  0.10294616052E+04  0.90746065256E+03 0.  0.
         23    2    4    4    0    0 -0.26595613801E+03 -0.14457853067E+03 -0.54652071249E+01  0.31637999470E+03  0.91819462450E+02 0.  0.
         23    2    4    4    0    0  0.49614896096E+03  0.30165260458E+03  0.40376830814E+03  0.71308161054E+03  0.91095835939E+02 0.  0.
          2    1    3    3  502    0 -0.23525738342E+03 -0.15826607639E+03  0.44893184859E+03  0.53097456820E+03  0.00000000000E+00 0. -1.
         -1    1    3    3    0  502  0.50645604758E+01  0.11920024793E+01  0.35206613761E+01  0.62821731311E+01  0.00000000000E+00 0.  1.
         11    1    5    5    0    0  0.66656424025E+01 -0.10709567264E+02 -0.44248296446E+00  0.12622258545E+02  0.00000000000E+00 0. -1.
        -11    1    5    5    0    0 -0.27262178041E+03 -0.13386896340E+03 -0.50227241604E+01  0.30375773616E+03  0.00000000000E+00 0.  1.
          3    1    6    6  503    0  0.52322109795E+02  0.57535151798E+02  0.29075390375E+02  0.83025750170E+02  0.00000000000E+00 0. -1.
         -3    1    6    6    0  503  0.44382685116E+03  0.24411745278E+03  0.37469291776E+03  0.63005586037E+03  0.00000000000E+00 0.  1.
<mgrwt>
<rscale>  0 0.13156068E+04</rscale>
<asrwt>0</asrwt>
<pdfrwt beam="1">  1        2 0.18595953E+00 0.13156068E+04</pdfrwt>
<pdfrwt beam="2">  1       -1 0.55074057E-01 0.13156068E+04</pdfrwt>
<totfact> 0.69607447E+01</totfact>
</mgrwt>
</event>
<event>
12    6  0.1540825E-007  0.2391416E+04  0.7818608E-02  0.8442724E-01
          2   -1    0    0  501    0  0.00000000000E+00  0.00000000000E+00  0.12339925891E+04  0.12339925891E+04  0.00000000000E+00 0. -1.
         -1   -1    0    0    0  501 -0.00000000000E+00 -0.00000000000E+00 -0.11586109070E+04  0.11586109070E+04  0.00000000000E+00 0.  1.
         24    2    1    2    0    0 -0.80351413323E+00  0.42110713621E+03 -0.90336893890E+03  0.99959687078E+03  0.76069694974E+02 0.  0.
        254    2    1    2    0    0  0.80351413323E+00 -0.42110713621E+03  0.97875062094E+03  0.13930066253E+04  0.89731979494E+03 0.  0.
         23    2    4    4    0    0  0.31614811525E+02 -0.49137011186E+03  0.11092325919E+04  0.12169561146E+04  0.90228371293E+02 0.  0.
         23    2    4    4    0    0 -0.30811297392E+02  0.70262975645E+02 -0.13048197093E+03  0.17605051067E+03  0.89900032130E+02 0.  0.
          4    1    3    3  502    0  0.20907664096E+02  0.43083493908E+02 -0.78170669856E+02  0.91673177599E+02  0.00000000000E+00 0. -1.
         -3    1    3    3    0  502 -0.21711178229E+02  0.37802364230E+03 -0.82519826904E+03  0.90792369318E+03  0.00000000000E+00 0.  1.
         11    1    5    5    0    0  0.10515999365E+02 -0.38627871202E+03  0.77567008085E+03  0.86659442874E+03  0.00000000000E+00 0.  1.
        -11    1    5    5    0    0  0.21098812161E+02 -0.10509139983E+03  0.33356251101E+03  0.35036168590E+03  0.00000000000E+00 0. -1.
          3    1    6    6  503    0  0.97921788524E+00 -0.54248378082E+01 -0.78910033103E+02  0.79102345460E+02  0.00000000000E+00 0. -1.
         -3    1    6    6    0  503 -0.31790515277E+02  0.75687813453E+02 -0.51571937825E+02  0.96948165212E+02  0.00000000000E+00 0.  1.
<mgrwt>
<rscale>  0 0.23914157E+04</rscale>
<asrwt>0</asrwt>
<pdfrwt beam="1">  1        2 0.18984501E+00 0.23914157E+04</pdfrwt>
<pdfrwt beam="2">  1       -1 0.17824783E+00 0.23914157E+04</pdfrwt>
<totfact> 0.39724210E+00</totfact>
</mgrwt>
</event>
<event>
12    6  0.1540825E-007  0.2342254E+04  0.7818608E-02  0.8461445E-01
          2   -1    0    0  501    0  0.00000000000E+00  0.00000000000E+00  0.33856325250E+03  0.33856325250E+03  0.00000000000E+00 0. -1.
         -1   -1    0    0    0  501 -0.00000000000E+00 -0.00000000000E+00 -0.40510569870E+04  0.40510569870E+04  0.00000000000E+00 0.  1.
         24    2    1    2    0    0 -0.40799162916E+03  0.43611145351E+03 -0.30701369581E+04  0.31287368729E+04  0.81259518283E+02 0.  0.
        254    2    1    2    0    0  0.40799162916E+03 -0.43611145351E+03 -0.64235677649E+03  0.12608833666E+04  0.90584450465E+03 0.  0.
         23    2    4    4    0    0 -0.18734346573E+03  0.12736568750E+03 -0.24378254612E+03  0.34475346416E+03  0.90030154669E+02 0.  0.
         23    2    4    4    0    0  0.59533509490E+03 -0.56347714102E+03 -0.39857423036E+03  0.91612990248E+03  0.92207469569E+02 0.  0.
          4    1    3    3  502    0 -0.92969186245E+01  0.31248353933E+02 -0.23182918337E+03  0.23411036411E+03  0.00000000000E+00 0. -1.
         -3    1    3    3    0  502 -0.39869471054E+03  0.40486309958E+03 -0.28383077747E+04  0.28946265088E+04  0.00000000000E+00 0.  1.
         11    1    5    5    0    0 -0.96660690052E+02  0.78332854722E+02 -0.70167957297E+02  0.14283860599E+03  0.00000000000E+00 0. -1.
        -11    1    5    5    0    0 -0.90682775679E+02  0.49032832778E+02 -0.17361458883E+03  0.20191485817E+03  0.00000000000E+00 0.  1.
          1    1    6    6  503    0  0.47085390096E+03 -0.43883074481E+03 -0.35335652607E+03  0.73425925473E+03  0.00000000000E+00 0. -1.
         -1    1    6    6    0  503  0.12448119394E+03 -0.12464639621E+03 -0.45217704290E+02  0.18187064775E+03  0.00000000000E+00 0.  1.
<mgrwt>
<rscale>  0 0.23422545E+04</rscale>
<asrwt>0</asrwt>
<pdfrwt beam="1">  1        2 0.52086653E-01 0.23422545E+04</pdfrwt>
<pdfrwt beam="2">  1       -1 0.62323955E+00 0.23422545E+04</pdfrwt>
<totfact> 0.35014465E-02</totfact>
</mgrwt>
</event>
<event>
12    6  0.1540825E-007  0.1577182E+04  0.7818608E-02  0.8834690E-01
          2   -1    0    0  501    0  0.00000000000E+00  0.00000000000E+00  0.24255076701E+04  0.24255076701E+04  0.00000000000E+00 0. -1.
         -1   -1    0    0    0  501 -0.00000000000E+00 -0.00000000000E+00 -0.25638981113E+03  0.25638981113E+03  0.00000000000E+00 0.  1.
         24    2    1    2    0    0  0.49389569742E+02 -0.25256818880E+02 -0.15824604790E+03  0.18579979473E+03  0.80015720627E+02 0.  0.
        254    2    1    2    0    0 -0.49389569742E+02  0.25256818880E+02  0.23273639068E+04  0.24960976865E+04  0.90044637212E+03 0.  0.
         23    2    4    4    0    0  0.19057909114E+03  0.16864247359E+03  0.21175550602E+04  0.21347504507E+04  0.91429645034E+02 0.  0.
         23    2    4    4    0    0 -0.23996866089E+03 -0.14338565471E+03  0.20980884664E+03  0.36134723575E+03  0.91693339316E+02 0.  0.
          4    1    3    3  502    0  0.21936671215E+01  0.16629440178E+02 -0.15140244114E+01  0.16841696055E+02  0.00000000000E+00 0. -1.
         -3    1    3    3    0  502  0.47195902621E+02 -0.41886259059E+02 -0.15673202349E+03  0.16895809868E+03  0.00000000000E+00 0.  1.
         11    1    5    5    0    0  0.88061452997E+02  0.10082913234E+03  0.76530062556E+03  0.77692109053E+03  0.00000000000E+00 0.  1.
        -11    1    5    5    0    0  0.10251763815E+03  0.67813341251E+02  0.13522544346E+04  0.13578293602E+04  0.00000000000E+00 0. -1.
          2    1    6    6  503    0 -0.19999321539E+03 -0.77567591462E+02  0.13197057895E+03  0.25185363042E+03  0.00000000000E+00 0. -1.
         -2    1    6    6    0  503 -0.39975445496E+02 -0.65818063247E+02  0.77838267687E+02  0.10949360533E+03  0.00000000000E+00 0.  1.
<mgrwt>
<rscale>  0 0.15771816E+04</rscale>
<asrwt>0</asrwt>
<pdfrwt beam="1">  1        2 0.37315501E+00 0.15771816E+04</pdfrwt>
<pdfrwt beam="2">  1       -1 0.39444588E-01 0.15771816E+04</pdfrwt>
<totfact> 0.26324324E+01</totfact>
</mgrwt>
</event>
<event>
12    6  0.1540825E-007  0.1677667E+04  0.7818608E-02  0.8774205E-01
         -1   -1    0    0    0  501 -0.00000000000E+00  0.00000000000E+00  0.95318591233E+03  0.95318591233E+03  0.00000000000E+00 0.  1.
          2   -1    0    0  501    0  0.00000000000E+00 -0.00000000000E+00 -0.73819967223E+03  0.73819967223E+03  0.00000000000E+00 0. -1.
         24    2    1    2    0    0 -0.45737234492E+03 -0.15702651086E+03  0.51679036647E+03  0.71201550754E+03  0.77762542981E+02 0.  0.
        254    2    1    2    0    0  0.45737234492E+03  0.15702651086E+03 -0.30180412637E+03  0.97937007701E+03  0.79638761293E+03 0.  0.
         23    2    4    4    0    0 -0.16145358589E+03 -0.12646062724E+03  0.11221931463E+02  0.22449327124E+03  0.90618687070E+02 0.  0.
         23    2    4    4    0    0  0.61882593081E+03  0.28348713810E+03 -0.31302605784E+03  0.75487680577E+03  0.92429372415E+02 0.  0.
          4    1    3    3  502    0 -0.41406513803E+02 -0.34459661285E+02  0.37338610465E+02  0.65544942388E+02  0.00000000000E+00 0. -1.
         -3    1    3    3    0  502 -0.41596583112E+03 -0.12256684958E+03  0.47945175601E+03  0.64647056516E+03  0.00000000000E+00 0.  1.
         11    1    5    5    0    0 -0.16292775881E+03 -0.13704694093E+03  0.14266655132E+02  0.21337960553E+03  0.00000000000E+00 0. -1.
        -11    1    5    5    0    0  0.14741729170E+01  0.10586313686E+02 -0.30447236690E+01  0.11113665708E+02  0.00000000000E+00 0.  1.
          1    1    6    6  503    0  0.58476915930E+03  0.28257438625E+03 -0.31266250539E+03  0.72080586548E+03  0.00000000000E+00 0. -1.
         -1    1    6    6    0  503  0.34056771510E+02  0.91275185209E+00 -0.36355244929E+00  0.34070940287E+02  0.00000000000E+00 0.  1.
<mgrwt>
<rscale>  0 0.16776669E+04</rscale>
<asrwt>0</asrwt>
<pdfrwt beam="1">  1        2 0.11356918E+00 0.16776669E+04</pdfrwt>
<pdfrwt beam="2">  1       -1 0.14664399E+00 0.16776669E+04</pdfrwt>
<totfact> 0.15448710E+01</totfact>
</mgrwt>
</event>
<event>
12    6  0.1540825E-007  0.1144633E+04  0.7818608E-02  0.9162749E-01
          2   -1    0    0  501    0  0.00000000000E+00  0.00000000000E+00  0.19121307113E+04  0.19121307113E+04  0.00000000000E+00 0. -1.
         -1   -1    0    0    0  501 -0.00000000000E+00 -0.00000000000E+00 -0.17129914669E+03  0.17129914669E+03  0.00000000000E+00 0.  1.
         24    2    1    2    0    0 -0.62032619964E+01  0.19886844201E+03  0.21521766197E+03  0.30362642309E+03  0.79266796873E+02 0.  0.
        254    2    1    2    0    0  0.62032619964E+01 -0.19886844201E+03  0.15256139026E+04  0.17798034349E+04  0.89477111557E+03 0.  0.
         23    2    4    4    0    0 -0.97521313813E+02 -0.36034979886E+03  0.19263758510E+03  0.43001171578E+03  0.91861049028E+02 0.  0.
         23    2    4    4    0    0  0.10372457581E+03  0.16148135685E+03  0.13329763175E+04  0.13497917191E+04  0.90976951171E+02 0.  0.
          2    1    3    3  502    0  0.33102324973E+02  0.70170510746E+02  0.99306220051E+02  0.12602138643E+03  0.00000000000E+00 0. -1.
         -1    1    3    3    0  502 -0.39305586970E+02  0.12869793126E+03  0.11591144192E+03  0.17760503666E+03  0.00000000000E+00 0.  1.
         11    1    5    5    0    0  0.16724063493E+02 -0.44219429962E+02  0.13753486775E+02  0.49236274071E+02  0.00000000000E+00 0. -1.
        -11    1    5    5    0    0 -0.11424537731E+03 -0.31613036890E+03  0.17888409832E+03  0.38077544171E+03  0.00000000000E+00 0.  1.
          1    1    6    6  503    0 -0.35643922785E+01  0.68073117929E+02  0.52223933552E+03  0.52666932495E+03  0.00000000000E+00 0. -1.
         -1    1    6    6    0  503  0.10728896809E+03  0.93408238923E+02  0.81073698199E+03  0.82312239414E+03  0.00000000000E+00 0.  1.
<mgrwt>
<rscale>  0 0.11446333E+04</rscale>
<asrwt>0</asrwt>
<pdfrwt beam="1">  1        2 0.29417394E+00 0.11446333E+04</pdfrwt>
<pdfrwt beam="2">  1       -1 0.26353716E-01 0.11446333E+04</pdfrwt>
<totfact> 0.10798798E+02</totfact>
</mgrwt>
</event>
<event>
12    6  0.1540825E-007  0.1466149E+04  0.7818608E-02  0.8907281E-01
         -1   -1    0    0    0  501 -0.00000000000E+00  0.00000000000E+00  0.25242083002E+03  0.25242083002E+03  0.00000000000E+00 0.  1.
          2   -1    0    0  501    0  0.00000000000E+00 -0.00000000000E+00 -0.21289763333E+04  0.21289763333E+04  0.00000000000E+00 0. -1.
         24    2    1    2    0    0 -0.22123716877E+03 -0.39045363395E+03 -0.48385595723E+03  0.66482882300E+03  0.80503735473E+02 0.  0.
        254    2    1    2    0    0  0.22123716877E+03  0.39045363395E+03 -0.13926995460E+04  0.17165683403E+04  0.89754939491E+03 0.  0.
         23    2    4    4    0    0  0.26655700087E+03  0.65874047471E+03 -0.10088450927E+04  0.12373456233E+04  0.90907220866E+02 0.  0.
         23    2    4    4    0    0 -0.45319832094E+02 -0.26828684076E+03 -0.38385445339E+03  0.47922271702E+03  0.90986015458E+02 0.  0.
          2    1    3    3  502    0 -0.71528744354E+02 -0.12159700904E+03 -0.10035411678E+03  0.17312753285E+03  0.00000000000E+00 0. -1.
         -1    1    3    3    0  502 -0.14970842442E+03 -0.26885662491E+03 -0.38350184045E+03  0.49170129014E+03  0.00000000000E+00 0.  1.
         11    1    5    5    0    0  0.26884807809E+03  0.65108506169E+03 -0.97665530462E+03  0.12041788201E+04  0.00000000000E+00 0.  1.
        -11    1    5    5    0    0 -0.22910772239E+01  0.76554130112E+01 -0.32189788029E+02  0.33166803231E+02  0.00000000000E+00 0. -1.
          4    1    6    6  503    0 -0.35188869040E+02 -0.63337052802E+02 -0.52504416533E+02  0.89479341289E+02  0.00000000000E+00 0. -1.
         -4    1    6    6    0  503 -0.10130963053E+02 -0.20494978796E+03 -0.33135003686E+03  0.38974337573E+03  0.00000000000E+00 0.  1.
<mgrwt>
<rscale>  0 0.14661487E+04</rscale>
<asrwt>0</asrwt>
<pdfrwt beam="1">  1        2 0.32753483E+00 0.14661487E+04</pdfrwt>
<pdfrwt beam="2">  1       -1 0.38833973E-01 0.14661487E+04</pdfrwt>
<totfact> 0.40189939E+01</totfact>
</mgrwt>
</event>
<event>
12    6  0.1540825E-007  0.1497481E+04  0.7818608E-02  0.8886130E-01
          2   -1    0    0  501    0  0.00000000000E+00  0.00000000000E+00  0.17734638653E+04  0.17734638653E+04  0.00000000000E+00 0. -1.
         -1   -1    0    0    0  501 -0.00000000000E+00 -0.00000000000E+00 -0.31611152149E+03  0.31611152149E+03  0.00000000000E+00 0.  1.
         24    2    1    2    0    0 -0.10658505815E+02  0.40385591087E+02  0.11148678866E+04  0.11184572804E+04  0.79193964111E+02 0.  0.
        254    2    1    2    0    0  0.10658505815E+02 -0.40385591087E+02  0.34248445726E+03  0.97111810637E+03  0.90776107723E+03 0.  0.
         23    2    4    4    0    0  0.11003523923E+03  0.22457157815E+03  0.54812217948E+03  0.60975135732E+03  0.93907648964E+02 0.  0.
         23    2    4    4    0    0 -0.99376733420E+02 -0.26495716924E+03 -0.20563772222E+03  0.36136674905E+03  0.90669828717E+02 0.  0.
          4    1    3    3  502    0  0.14581162414E+02  0.52485837426E+02  0.50123981548E+03  0.50419116022E+03  0.00000000000E+00 0. -1.
         -3    1    3    3    0  502 -0.25239668229E+02 -0.12100246339E+02  0.61362807109E+03  0.61426612021E+03  0.00000000000E+00 0.  1.
         11    1    5    5    0    0  0.44895714425E+02  0.18179112843E+03  0.35188329945E+03  0.39860443548E+03  0.00000000000E+00 0.  1.
        -11    1    5    5    0    0  0.65139524810E+02  0.42780449725E+02  0.19623888002E+03  0.21114692184E+03  0.00000000000E+00 0. -1.
          1    1    6    6  503    0  0.16500299232E+02 -0.48121358553E+02 -0.28168678381E+02  0.58149801938E+02  0.00000000000E+00 0. -1.
         -1    1    6    6    0  503 -0.11587703265E+03 -0.21683581069E+03 -0.17746904384E+03  0.30321694711E+03  0.00000000000E+00 0.  1.
<mgrwt>
<rscale>  0 0.14974810E+04</rscale>
<asrwt>0</asrwt>
<pdfrwt beam="1">  1        2 0.27284059E+00 0.14974810E+04</pdfrwt>
<pdfrwt beam="2">  1       -1 0.48632543E-01 0.14974810E+04</pdfrwt>
<totfact> 0.41581600E+01</totfact>
</mgrwt>
</event>
<event>
12    6  0.1540825E-007  0.2703333E+04  0.7818608E-02  0.8333924E-01
          2   -1    0    0  501    0  0.00000000000E+00  0.00000000000E+00  0.18859046765E+04  0.18859046765E+04  0.00000000000E+00 0. -1.
         -1   -1    0    0    0  501 -0.00000000000E+00 -0.00000000000E+00 -0.96876676760E+03  0.96876676760E+03  0.00000000000E+00 0.  1.
         24    2    1    2    0    0 -0.54219817613E+03  0.46918141115E+03  0.14273860066E+04  0.15990879120E+04  0.74439772279E+02 0.  0.
        254    2    1    2    0    0  0.54219817613E+03 -0.46918141115E+03 -0.51024809769E+03  0.12555835321E+04  0.89555950452E+03 0.  0.
         23    2    4    4    0    0  0.38458916712E+03  0.74620158173E+02 -0.54725376618E+03  0.67935990971E+03  0.92553805190E+02 0.  0.
         23    2    4    4    0    0  0.15760900901E+03 -0.54380156933E+03  0.37005668485E+02  0.57622362240E+03  0.10051615286E+03 0.  0.
          4    1    3    3  502    0 -0.49360939235E+03  0.39631014252E+03  0.12676868061E+04  0.14169480582E+04  0.00000000000E+00 0. -1.
         -3    1    3    3    0  502 -0.48588783778E+02  0.72871268631E+02  0.15969920048E+03  0.18213985378E+03  0.00000000000E+00 0.  1.
         11    1    5    5    0    0  0.29673790472E+03  0.24673119660E+02 -0.44633138062E+03  0.53653876678E+03  0.00000000000E+00 0. -1.
        -11    1    5    5    0    0  0.87851262399E+02  0.49947038513E+02 -0.10092238556E+03  0.14282114293E+03  0.00000000000E+00 0.  1.
          3    1    6    6  503    0  0.93560210415E+01 -0.78911132405E+02 -0.27354796161E+02  0.84040388030E+02  0.00000000000E+00 0. -1.
         -3    1    6    6    0  503  0.14825298797E+03 -0.46489043692E+03  0.64360464646E+02  0.49218323437E+03  0.00000000000E+00 0.  1.
<mgrwt>
<rscale>  0 0.27033326E+04</rscale>
<asrwt>0</asrwt>
<pdfrwt beam="1">  1        2 0.29013918E+00 0.27033326E+04</pdfrwt>
<pdfrwt beam="2">  1       -1 0.14904104E+00 0.27033326E+04</pdfrwt>
<totfact> 0.27392112E+00</totfact>
</mgrwt>
</event>
<event>
12    6  0.1540825E-007  0.2074021E+04  0.7818608E-02  0.8572775E-01
         -1   -1    0    0    0  501 -0.00000000000E+00  0.00000000000E+00  0.25864344105E+04  0.25864344105E+04  0.00000000000E+00 0.  1.
          2   -1    0    0  501    0  0.00000000000E+00 -0.00000000000E+00 -0.41578110754E+03  0.41578110754E+03  0.00000000000E+00 0. -1.
         24    2    1    2    0    0  0.46163981953E+03 -0.59874675678E+01  0.19043677808E+04  0.19611071222E+04  0.78595976715E+02 0.  0.
        254    2    1    2    0    0 -0.46163981953E+03  0.59874675678E+01  0.26628552221E+03  0.10411083959E+04  0.89434419541E+03 0.  0.
         23    2    4    4    0    0 -0.43906748188E+03  0.39830394901E+03  0.12514019517E+03  0.61286230738E+03  0.92270525737E+02 0.  0.
         23    2    4    4    0    0 -0.22572337658E+02 -0.39231648144E+03  0.14114532704E+03  0.42824608849E+03  0.95136622386E+02 0.  0.
          4    1    3    3  502    0  0.21085311311E+02 -0.13189730839E+02  0.16163128790E+03  0.16353358242E+03  0.00000000000E+00 0. -1.
         -3    1    3    3    0  502  0.44055450822E+03  0.72022632716E+01  0.17427364929E+04  0.17975735398E+04  0.00000000000E+00 0.  1.
         11    1    5    5    0    0 -0.23251101531E+03  0.14917239559E+03  0.62531407252E+02  0.28323833205E+03  0.00000000000E+00 0.  1.
        -11    1    5    5    0    0 -0.20655646656E+03  0.24913155342E+03  0.62608787914E+02  0.32962397533E+03  0.00000000000E+00 0. -1.
          3    1    6    6  503    0 -0.50599219973E+02 -0.32764055075E+03  0.98439268797E+02  0.34583074068E+03  0.00000000000E+00 0. -1.
         -3    1    6    6    0  503  0.28026882316E+02 -0.64675930696E+02  0.42706058246E+02  0.82415347810E+02  0.00000000000E+00 0.  1.
<mgrwt>
<rscale>  0 0.20740208E+04</rscale>
<asrwt>0</asrwt>
<pdfrwt beam="1">  1        2 0.63966326E-01 0.20740208E+04</pdfrwt>
<pdfrwt beam="2">  1       -1 0.39791298E+00 0.20740208E+04</pdfrwt>
<totfact> 0.59460198E-01</totfact>
</mgrwt>
</event>
<event>
12    6  0.1540825E-007  0.2530956E+04  0.7818608E-02  0.8392040E-01
         -1   -1    0    0    0  501 -0.00000000000E+00  0.00000000000E+00  0.10044703417E+04  0.10044703417E+04  0.00000000000E+00 0.  1.
          2   -1    0    0  501    0  0.00000000000E+00 -0.00000000000E+00 -0.15943069529E+04  0.15943069529E+04  0.00000000000E+00 0. -1.
         24    2    1    2    0    0  0.63364380091E+03  0.50890552136E+03  0.51302201069E+03  0.96435794388E+03  0.79406324551E+02 0.  0.
        254    2    1    2    0    0 -0.63364380091E+03 -0.50890552136E+03 -0.11028586219E+04  0.16344193508E+04  0.89136983251E+03 0.  0.
         23    2    4    4    0    0  0.95841644365E+02 -0.35646845813E+03 -0.12251891135E+03  0.39954855501E+03  0.91502905622E+02 0.  0.
         23    2    4    4    0    0 -0.72948544528E+03 -0.15243706324E+03 -0.98033971052E+03  0.12348707958E+04  0.91944880997E+02 0.  0.
          2    1    3    3  502    0  0.50578051209E+02  0.18378565407E+02  0.23642603307E+02  0.58778258069E+02  0.00000000000E+00 0. -1.
         -1    1    3    3    0  502  0.58306574970E+03  0.49052695595E+03  0.48937940738E+03  0.90557968582E+03  0.00000000000E+00 0.  1.
         11    1    5    5    0    0  0.86827058676E+01 -0.15491098513E+03 -0.84546295489E+02  0.17669430884E+03  0.00000000000E+00 0. -1.
        -11    1    5    5    0    0  0.87158938498E+02 -0.20155747299E+03 -0.37972615864E+02  0.22285424617E+03  0.00000000000E+00 0.  1.
          2    1    6    6  503    0 -0.22025735486E+02 -0.57311992230E+01 -0.64161424166E+02  0.68078396127E+02  0.00000000000E+00 0. -1.
         -2    1    6    6    0  503 -0.70745970979E+03 -0.14670586401E+03 -0.91617828635E+03  0.11667923997E+04  0.00000000000E+00 0.  1.
<mgrwt>
<rscale>  0 0.25309556E+04</rscale>
<asrwt>0</asrwt>
<pdfrwt beam="1">  1        2 0.24527799E+00 0.25309556E+04</pdfrwt>
<pdfrwt beam="2">  1       -1 0.15453390E+00 0.25309556E+04</pdfrwt>
<totfact> 0.36620609E+00</totfact>
</mgrwt>
</event>
<event>
12    6  0.1540825E-007  0.1276455E+04  0.7818608E-02  0.9048448E-01
         -1   -1    0    0    0  501 -0.00000000000E+00  0.00000000000E+00  0.14959888607E+04  0.14959888607E+04  0.00000000000E+00 0.  1.
          2   -1    0    0  501    0  0.00000000000E+00 -0.00000000000E+00 -0.27228413125E+03  0.27228413125E+03  0.00000000000E+00 0. -1.
         24    2    1    2    0    0 -0.13186811503E+02 -0.31509873025E+03  0.37349745170E+03  0.49581243467E+03  0.82876547587E+02 0.  0.
        254    2    1    2    0    0  0.13186811503E+02  0.31509873025E+03  0.85020727770E+03  0.12724605572E+04  0.89266026734E+03 0.  0.
         23    2    4    4    0    0 -0.18635223613E+03  0.16020974204E+03 -0.10352740112E+03  0.28154587087E+03  0.90309674277E+02 0.  0.
         23    2    4    4    0    0  0.19953904763E+03  0.15488898821E+03  0.95373467882E+03  0.99091468637E+03  0.92171838860E+02 0.  0.
          2    1    3    3  502    0  0.59598329325E+01 -0.90896067199E+02  0.56921823249E+02  0.10741372632E+03  0.00000000000E+00 0. -1.
         -1    1    3    3    0  502 -0.19146644435E+02 -0.22420266305E+03  0.31657562845E+03  0.38839870834E+03  0.00000000000E+00 0.  1.
         11    1    5    5    0    0 -0.11776458044E+03  0.45756910604E+02 -0.32803535153E+02  0.13053069828E+03  0.00000000000E+00 0. -1.
        -11    1    5    5    0    0 -0.68587655691E+02  0.11445283144E+03 -0.70723865968E+02  0.15101517260E+03  0.00000000000E+00 0.  1.
          4    1    6    6  503    0  0.88509886231E+02  0.76791317758E+02  0.27811029467E+03  0.30178840675E+03  0.00000000000E+00 0. -1.
         -4    1    6    6    0  503  0.11102916140E+03  0.78097670449E+02  0.67562438415E+03  0.68912627962E+03  0.00000000000E+00 0.  1.
<mgrwt>
<rscale>  0 0.12764545E+04</rscale>
<asrwt>0</asrwt>
<pdfrwt beam="1">  1        2 0.41889867E-01 0.12764545E+04</pdfrwt>
<pdfrwt beam="2">  1       -1 0.23015213E+00 0.12764545E+04</pdfrwt>
<totfact> 0.12973322E+01</totfact>
</mgrwt>
</event>
<event>
12    6  0.1540825E-007  0.2336192E+04  0.7818608E-02  0.8463786E-01
          2   -1    0    0  501    0  0.00000000000E+00  0.00000000000E+00  0.27535810704E+04  0.27535810704E+04  0.00000000000E+00 0. -1.
         -1   -1    0    0    0  501 -0.00000000000E+00 -0.00000000000E+00 -0.49551793056E+03  0.49551793056E+03  0.00000000000E+00 0.  1.
         24    2    1    2    0    0 -0.61415440967E+03  0.74626450137E+03  0.65109137400E+03  0.11681385111E+04  0.80816204066E+02 0.  0.
        254    2    1    2    0    0  0.61415440967E+03 -0.74626450137E+03  0.16069717658E+04  0.20809604899E+04  0.90218731944E+03 0.  0.
         23    2    4    4    0    0  0.14509425652E+03 -0.66122190796E+03  0.13910312099E+04  0.15497312686E+04  0.91828225327E+02 0.  0.
         23    2    4    4    0    0  0.46906015315E+03 -0.85042593410E+02  0.21594055590E+03  0.53122922131E+03  0.91238653648E+02 0.  0.
          2    1    3    3  502    0 -0.37967204167E+02  0.32954244331E+02  0.16122407919E+02  0.52796049557E+02  0.00000000000E+00 0. -1.
         -1    1    3    3    0  502 -0.57618720550E+03  0.71331025704E+03  0.63496896608E+03  0.11153424615E+04  0.00000000000E+00 0.  1.
         11    1    5    5    0    0  0.62248129095E+02 -0.31997323941E+03  0.56751860863E+03  0.65447312753E+03  0.00000000000E+00 0. -1.
        -11    1    5    5    0    0  0.82846127421E+02 -0.34124866855E+03  0.82351260130E+03  0.89525814105E+03  0.00000000000E+00 0.  1.
          3    1    6    6  503    0  0.28898127251E+03 -0.13011998711E+02  0.15348473935E+03  0.32747069058E+03  0.00000000000E+00 0. -1.
         -3    1    6    6    0  503  0.18007888064E+03 -0.72030594698E+02  0.62455816557E+02  0.20375853073E+03  0.00000000000E+00 0.  1.
<mgrwt>
<rscale>  0 0.23361925E+04</rscale>
<asrwt>0</asrwt>
<pdfrwt beam="1">  1        2 0.42362785E+00 0.23361925E+04</pdfrwt>
<pdfrwt beam="2">  1       -1 0.76233529E-01 0.23361925E+04</pdfrwt>
<totfact> 0.43829845E+00</totfact>
</mgrwt>
</event>
<event>
12    6  0.1540825E-007  0.1576454E+04  0.7818608E-02  0.8835145E-01
         -1   -1    0    0    0  501 -0.00000000000E+00  0.00000000000E+00  0.72703580107E+03  0.72703580107E+03  0.00000000000E+00 0.  1.
          2   -1    0    0  501    0  0.00000000000E+00 -0.00000000000E+00 -0.85456805372E+03  0.85456805372E+03  0.00000000000E+00 0. -1.
         24    2    1    2    0    0  0.29792315422E+03 -0.11315977071E+03 -0.46744648517E+03  0.57119464926E+03  0.78700516653E+02 0.  0.
        254    2    1    2    0    0 -0.29792315422E+03  0.11315977071E+03  0.33991423252E+03  0.10104092055E+04  0.89656106185E+03 0.  0.
         23    2    4    4    0    0 -0.57454610221E+03 -0.99704939427E+02  0.18649901713E+03  0.61832368276E+03  0.86590962362E+02 0.  0.
         23    2    4    4    0    0  0.27662294800E+03  0.21286471014E+03  0.15341521540E+03  0.39208552277E+03  0.91450471123E+02 0.  0.
          4    1    3    3  502    0  0.21354757825E+03 -0.96800478852E+02 -0.39231674203E+03  0.45703974330E+03  0.00000000000E+00 0. -1.
         -3    1    3    3    0  502  0.84375575968E+02 -0.16359291857E+02 -0.75129743142E+02  0.11415490596E+03  0.00000000000E+00 0.  1.
         11    1    5    5    0    0 -0.44048727202E+03 -0.11301363577E+03  0.14742793126E+03  0.47805450902E+03  0.00000000000E+00 0.  1.
        -11    1    5    5    0    0 -0.13405883020E+03  0.13308696343E+02  0.39071085871E+02  0.14026917374E+03  0.00000000000E+00 0. -1.
          2    1    6    6  503    0  0.95725119185E+02  0.37488805398E+02  0.78131010570E+02  0.12912460566E+03  0.00000000000E+00 0. -1.
         -2    1    6    6    0  503  0.18089782881E+03  0.17537590474E+03  0.75284204826E+02  0.26296091711E+03  0.00000000000E+00 0.  1.
<mgrwt>
<rscale>  0 0.15764537E+04</rscale>
<asrwt>0</asrwt>
<pdfrwt beam="1">  1        2 0.13147201E+00 0.15764537E+04</pdfrwt>
<pdfrwt beam="2">  1       -1 0.11185166E+00 0.15764537E+04</pdfrwt>
<totfact> 0.25349110E+01</totfact>
</mgrwt>
</event>
<event>
12    6  0.1540825E-007  0.2807749E+04  0.7818608E-02  0.8300867E-01
         -1   -1    0    0    0  501 -0.00000000000E+00  0.00000000000E+00  0.86736276537E+03  0.86736276537E+03  0.00000000000E+00 0.  1.
          2   -1    0    0  501    0  0.00000000000E+00 -0.00000000000E+00 -0.22722479783E+04  0.22722479783E+04  0.00000000000E+00 0. -1.
         24    2    1    2    0    0 -0.18488466027E+03  0.12414222538E+04 -0.69790978297E+03  0.14382694677E+04  0.78926843421E+02 0.  0.
        254    2    1    2    0    0  0.18488466027E+03 -0.12414222538E+04 -0.70697542995E+03  0.17013412760E+04  0.90522722498E+03 0.  0.
         23    2    4    4    0    0  0.26000866649E+02  0.73596736415E+02 -0.28355386168E+03  0.30777963134E+03  0.90735794026E+02 0.  0.
         23    2    4    4    0    0  0.15888379362E+03 -0.13150189902E+04 -0.42342156828E+03  0.13935616446E+04  0.90604791894E+02 0.  0.
          4    1    3    3  502    0 -0.15917719611E+03  0.96576458105E+03 -0.51025335843E+03  0.11038102625E+04  0.00000000000E+00 0. -1.
         -3    1    3    3    0  502 -0.25707464159E+02  0.27565767278E+03 -0.18765642454E+03  0.33445920521E+03  0.00000000000E+00 0.  1.
         11    1    5    5    0    0 -0.12778008737E+02  0.74721114479E+02 -0.14153651411E+03  0.16055873468E+03  0.00000000000E+00 0. -1.
        -11    1    5    5    0    0  0.38778875386E+02 -0.11243780642E+01 -0.14201734757E+03  0.14722089666E+03  0.00000000000E+00 0.  1.
          1    1    6    6  503    0  0.83266300422E+02 -0.82484726629E+03 -0.30745650372E+03  0.88421478792E+03  0.00000000000E+00 0. -1.
         -1    1    6    6    0  503  0.75617493194E+02 -0.49017172395E+03 -0.11596506455E+03  0.50934685671E+03  0.00000000000E+00 0.  1.
<mgrwt>
<rscale>  0 0.28077488E+04</rscale>
<asrwt>0</asrwt>
<pdfrwt beam="1">  1        2 0.34957661E+00 0.28077488E+04</pdfrwt>
<pdfrwt beam="2">  1       -1 0.13344043E+00 0.28077488E+04</pdfrwt>
<totfact> 0.22056946E+00</totfact>
</mgrwt>
</event>
<event>
12    6  0.1540825E-007  0.3096330E+04  0.7818608E-02  0.8216746E-01
         -1   -1    0    0    0  501 -0.00000000000E+00  0.00000000000E+00  0.25558711508E+04  0.25558711508E+04  0.00000000000E+00 0.  1.
          2   -1    0    0  501    0  0.00000000000E+00 -0.00000000000E+00 -0.93776853437E+03  0.93776853437E+03  0.00000000000E+00 0. -1.
         24    2    1    2    0    0 -0.96357068923E+02  0.89802783958E+03 -0.48325807130E+03  0.10272379854E+04  0.77076778513E+02 0.  0.
        254    2    1    2    0    0  0.96357068923E+02 -0.89802783958E+03  0.21013606877E+04  0.24664016998E+04  0.92286614376E+03 0.  0.
         23    2    4    4    0    0 -0.27963587842E+03 -0.14701595013E+03  0.19871972735E+03  0.38462329563E+03  0.92928119568E+02 0.  0.
         23    2    4    4    0    0  0.37599294735E+03 -0.75101188945E+03  0.19026409604E+04  0.20817784042E+04  0.91483032861E+02 0.  0.
          2    1    3    3  502    0 -0.86013156968E+02  0.83094180742E+03 -0.46845282369E+03  0.95776333116E+03  0.00000000000E+00 0. -1.
         -1    1    3    3    0  502 -0.10343911955E+02  0.67086032159E+02 -0.14805247610E+02  0.69474654243E+02  0.00000000000E+00 0.  1.
         11    1    5    5    0    0 -0.95961365595E+01 -0.34304634846E+02  0.12380081473E+02  0.37711539694E+02  0.00000000000E+00 0. -1.
        -11    1    5    5    0    0 -0.27003974186E+03 -0.11271131528E+03  0.18633964588E+03  0.34691175593E+03  0.00000000000E+00 0.  1.
          2    1    6    6  503    0  0.40289385154E+02 -0.99454884638E+02  0.17789207232E+03  0.20775008550E+03  0.00000000000E+00 0. -1.
         -2    1    6    6    0  503  0.33570356219E+03 -0.65155700481E+03  0.17247488881E+04  0.18740283187E+04  0.00000000000E+00 0.  1.
<mgrwt>
<rscale>  0 0.30963304E+04</rscale>
<asrwt>0</asrwt>
<pdfrwt beam="1">  1        2 0.14427208E+00 0.30963304E+04</pdfrwt>
<pdfrwt beam="2">  1       -1 0.39321094E+00 0.30963304E+04</pdfrwt>
<totfact> 0.21294533E-01</totfact>
</mgrwt>
</event>
<event>
12    6  0.1540825E-007  0.2202244E+04  0.7818608E-02  0.8517495E-01
         -1   -1    0    0    0  501 -0.00000000000E+00  0.00000000000E+00  0.66694979546E+03  0.66694979546E+03  0.00000000000E+00 0.  1.
          2   -1    0    0  501    0  0.00000000000E+00 -0.00000000000E+00 -0.18179323189E+04  0.18179323189E+04  0.00000000000E+00 0. -1.
         24    2    1    2    0    0  0.29354909404E+03  0.61230969855E+03 -0.11677433922E+04  0.13533407627E+04  0.82536974995E+02 0.  0.
        254    2    1    2    0    0 -0.29354909404E+03 -0.61230969855E+03  0.16760868768E+02  0.11315413517E+04  0.90499208085E+03 0.  0.
         23    2    4    4    0    0  0.11678867504E+03 -0.51679951376E+02 -0.31834309101E+03  0.35487478320E+03  0.91013054890E+02 0.  0.
         23    2    4    4    0    0 -0.41033776909E+03 -0.56062974717E+03  0.33510395978E+03  0.77666656853E+03  0.90738617234E+02 0.  0.
          2    1    3    3  502    0  0.23770671347E+03  0.41572638143E+03 -0.84768671139E+03  0.97360447129E+03  0.00000000000E+00 0. -1.
         -1    1    3    3    0  502  0.55842380572E+02  0.19658331712E+03 -0.32005668084E+03  0.37973629138E+03  0.00000000000E+00 0.  1.
         11    1    5    5    0    0  0.10319527966E+03 -0.76385232587E+02 -0.25322282293E+03  0.28391154882E+03  0.00000000000E+00 0. -1.
        -11    1    5    5    0    0  0.13593395383E+02  0.24705281211E+02 -0.65120268087E+02  0.70963234378E+02  0.00000000000E+00 0.  1.
          3    1    6    6  503    0 -0.98069800214E+02 -0.11592212821E+03  0.11462106067E+03  0.19024619069E+03  0.00000000000E+00 0. -1.
         -3    1    6    6    0  503 -0.31226796887E+03 -0.44470761896E+03  0.22048289912E+03  0.58642037784E+03  0.00000000000E+00 0.  1.
<mgrwt>
<rscale>  0 0.22022439E+04</rscale>
<asrwt>0</asrwt>
<pdfrwt beam="1">  1        2 0.27968189E+00 0.22022439E+04</pdfrwt>
<pdfrwt beam="2">  1       -1 0.10260766E+00 0.22022439E+04</pdfrwt>
<totfact> 0.78809893E+00</totfact>
</mgrwt>
</event>
<event>
12    6  0.1540825E-007  0.2334397E+04  0.7818608E-02  0.8464481E-01
         -1   -1    0    0    0  501 -0.00000000000E+00  0.00000000000E+00  0.88212416763E+03  0.88212416763E+03  0.00000000000E+00 0.  1.
          2   -1    0    0  501    0  0.00000000000E+00 -0.00000000000E+00 -0.15444003118E+04  0.15444003118E+04  0.00000000000E+00 0. -1.
         24    2    1    2    0    0 -0.51408119401E+03 -0.82352094334E+03 -0.17436861530E+03  0.98963312352E+03  0.80641719997E+02 0.  0.
        254    2    1    2    0    0  0.51408119401E+03  0.82352094334E+03 -0.48790752887E+03  0.14368913559E+04  0.94028548525E+03 0.  0.
         23    2    4    4    0    0  0.44705353746E+03 -0.59298630377E+02 -0.13462746252E+03  0.47909593647E+03  0.89639108445E+02 0.  0.
         23    2    4    4    0    0  0.67027656558E+02  0.88281957372E+03 -0.35328006635E+03  0.95779541943E+03  0.93285334912E+02 0.  0.
          2    1    3    3  502    0 -0.49968136723E+03 -0.78928544390E+03 -0.15247772767E+03  0.94652122964E+03  0.00000000000E+00 0. -1.
         -1    1    3    3    0  502 -0.14399826780E+02 -0.34235499439E+02 -0.21890887623E+02  0.43111893882E+02  0.00000000000E+00 0.  1.
         11    1    5    5    0    0  0.36131627566E+03 -0.42334804014E+02 -0.70158026060E+02  0.37049134310E+03  0.00000000000E+00 0. -1.
        -11    1    5    5    0    0  0.85737261792E+02 -0.16963826363E+02 -0.64469436457E+02  0.10860459337E+03  0.00000000000E+00 0.  1.
          3    1    6    6  503    0  0.12564414440E+02  0.68227254084E+03 -0.27558767559E+03  0.73593630935E+03  0.00000000000E+00 0. -1.
         -3    1    6    6    0  503  0.54463242117E+02  0.20054703288E+03 -0.77692390762E+02  0.22185911007E+03  0.00000000000E+00 0.  1.
<mgrwt>
<rscale>  0 0.23343974E+04</rscale>
<asrwt>0</asrwt>
<pdfrwt beam="1">  1        2 0.23760005E+00 0.23343974E+04</pdfrwt>
<pdfrwt beam="2">  1       -1 0.13571141E+00 0.23343974E+04</pdfrwt>
<totfact> 0.56078568E+00</totfact>
</mgrwt>
</event>
<event>
12    6  0.1540825E-007  0.2845637E+04  0.7818608E-02  0.8289238E-01
         -1   -1    0    0    0  501 -0.00000000000E+00  0.00000000000E+00  0.23009365324E+04  0.23009365324E+04  0.00000000000E+00 0.  1.
          2   -1    0    0  501    0  0.00000000000E+00 -0.00000000000E+00 -0.87982128474E+03  0.87982128474E+03  0.00000000000E+00 0. -1.
         24    2    1    2    0    0 -0.10094000706E+04  0.48297584487E+03  0.13324170310E+04  0.17418024143E+04  0.79914559686E+02 0.  0.
        254    2    1    2    0    0  0.10094000706E+04 -0.48297584487E+03  0.88698216720E+02  0.14389554028E+04  0.90031722651E+03 0.  0.
         23    2    4    4    0    0  0.75007995332E+03 -0.15582263187E+03 -0.33135048724E+03  0.83997590461E+03  0.94158090251E+02 0.  0.
         23    2    4    4    0    0  0.25932011731E+03 -0.32715321300E+03  0.42004870396E+03  0.59897949821E+03  0.89774036155E+02 0.  0.
          4    1    3    3  502    0 -0.28638851186E+03  0.10360253812E+03  0.33320881120E+03  0.45141995690E+03  0.00000000000E+00 0. -1.
         -3    1    3    3    0  502 -0.72301155878E+03  0.37937330675E+03  0.99920821978E+03  0.12903824574E+04  0.00000000000E+00 0.  1.
         11    1    5    5    0    0  0.55169807780E+03 -0.77470568893E+02 -0.21626499747E+03  0.59761443024E+03  0.00000000000E+00 0. -1.
        -11    1    5    5    0    0  0.19838187552E+03 -0.78352062981E+02 -0.11508548976E+03  0.24236147438E+03  0.00000000000E+00 0.  1.
          3    1    6    6  503    0  0.70893563462E+02 -0.14791841581E+03  0.12904252403E+03  0.20870488276E+03  0.00000000000E+00 0. -1.
         -3    1    6    6    0  503  0.18842655385E+03 -0.17923479718E+03  0.29100617992E+03  0.39027461546E+03  0.00000000000E+00 0.  1.
<mgrwt>
<rscale>  0 0.28456373E+04</rscale>
<asrwt>0</asrwt>
<pdfrwt beam="1">  1        2 0.13535712E+00 0.28456373E+04</pdfrwt>
<pdfrwt beam="2">  1       -1 0.35399023E+00 0.28456373E+04</pdfrwt>
<totfact> 0.43715795E-01</totfact>
</mgrwt>
</event>
<event>
12    6  0.1540825E-007  0.1957788E+04  0.7818608E-02  0.8626615E-01
         -1   -1    0    0    0  501 -0.00000000000E+00  0.00000000000E+00  0.20259431036E+03  0.20259431036E+03  0.00000000000E+00 0.  1.
          2   -1    0    0  501    0  0.00000000000E+00 -0.00000000000E+00 -0.47298125578E+04  0.47298125578E+04  0.00000000000E+00 0. -1.
         24    2    1    2    0    0 -0.15845721666E+03  0.36576277094E+03 -0.12868461563E+03  0.42636381915E+03  0.79594483839E+02 0.  0.
        254    2    1    2    0    0  0.15845721666E+03 -0.36576277094E+03 -0.43985336319E+04  0.45060430491E+04  0.89355176417E+03 0.  0.
         23    2    4    4    0    0 -0.25994575959E+03  0.93737644642E+02 -0.76094519770E+03  0.81460869529E+03  0.90505185403E+02 0.  0.
         23    2    4    4    0    0  0.41840297625E+03 -0.45950041559E+03 -0.36375884342E+04  0.36914343538E+04  0.91849275446E+02 0.  0.
          4    1    3    3  502    0 -0.48679433094E+02  0.54910884769E+02 -0.26599787978E+01  0.73430020834E+02  0.00000000000E+00 0. -1.
         -3    1    3    3    0  502 -0.10977778357E+03  0.31085188617E+03 -0.12602463683E+03  0.35293379831E+03  0.00000000000E+00 0.  1.
         11    1    5    5    0    0 -0.81228170567E+02  0.47000252525E+02 -0.15564716101E+03  0.18175004309E+03  0.00000000000E+00 0. -1.
        -11    1    5    5    0    0 -0.17871758902E+03  0.46737392118E+02 -0.60529803668E+03  0.63285865220E+03  0.00000000000E+00 0.  1.
          1    1    6    6  503    0  0.39683300559E+03 -0.42959211885E+03 -0.35183303987E+04  0.35666054754E+04  0.00000000000E+00 0. -1.
         -1    1    6    6    0  503  0.21569970660E+02 -0.29908296734E+02 -0.11925803551E+03  0.12482887839E+03  0.00000000000E+00 0.  1.
<mgrwt>
<rscale>  0 0.19577876E+04</rscale>
<asrwt>0</asrwt>
<pdfrwt beam="1">  1        2 0.72766339E+00 0.19577876E+04</pdfrwt>
<pdfrwt beam="2">  1       -1 0.31168359E-01 0.19577876E+04</pdfrwt>
<totfact> 0.73684004E-01</totfact>
</mgrwt>
</event>
<event>
12    6  0.1540825E-007  0.1643718E+04  0.7818608E-02  0.8794131E-01
         -1   -1    0    0    0  501 -0.00000000000E+00  0.00000000000E+00  0.30693093649E+03  0.30693093649E+03  0.00000000000E+00 0.  1.
          2   -1    0    0  501    0  0.00000000000E+00 -0.00000000000E+00 -0.22006660495E+04  0.22006660495E+04  0.00000000000E+00 0. -1.
         24    2    1    2    0    0 -0.18578040984E+03 -0.26945882362E+03 -0.13954399893E+04  0.14355073597E+04  0.79411572004E+02 0.  0.
        254    2    1    2    0    0  0.18578040984E+03  0.26945882362E+03 -0.49829512376E+03  0.10720896263E+04  0.89104192842E+03 0.  0.
         23    2    4    4    0    0 -0.62015542722E+02 -0.26403986327E+03 -0.36188155261E+03  0.46115574822E+03  0.90240728424E+02 0.  0.
         23    2    4    4    0    0  0.24779595256E+03  0.53349868689E+03 -0.13641357116E+03  0.61093387810E+03  0.92778542790E+02 0.  0.
          4    1    3    3  502    0 -0.15498996896E+03 -0.15887512029E+03 -0.93121070169E+03  0.95729648765E+03  0.00000000000E+00 0. -1.
         -1    1    3    3    0  502 -0.30790440879E+02 -0.11058370333E+03 -0.46422928757E+03  0.47821087203E+03  0.00000000000E+00 0.  1.
         11    1    5    5    0    0 -0.46839051970E+02 -0.23149583106E+03 -0.25121387725E+03  0.34480810419E+03  0.00000000000E+00 0. -1.
        -11    1    5    5    0    0 -0.15176490752E+02 -0.32544032202E+02 -0.11066767535E+03  0.11634764403E+03  0.00000000000E+00 0.  1.
          3    1    6    6  503    0  0.21083894982E+03  0.50691583062E+03 -0.11646963686E+03  0.56123248160E+03  0.00000000000E+00 0. -1.
         -3    1    6    6    0  503  0.36957002743E+02  0.26582856269E+02 -0.19943934298E+02  0.49701396504E+02  0.00000000000E+00 0.  1.
<mgrwt>
<rscale>  0 0.16437183E+04</rscale>
<asrwt>0</asrwt>
<pdfrwt beam="1">  1        2 0.33856400E+00 0.16437183E+04</pdfrwt>
<pdfrwt beam="2">  1       -1 0.47220145E-01 0.16437183E+04</pdfrwt>
<totfact> 0.25140419E+01</totfact>
</mgrwt>
</event>
<event>
12    6  0.1540825E-007  0.1481145E+04  0.7818608E-02  0.8897089E-01
         -1   -1    0    0    0  501 -0.00000000000E+00  0.00000000000E+00  0.30655591702E+03  0.30655591702E+03  0.00000000000E+00 0.  1.
          2   -1    0    0  501    0  0.00000000000E+00 -0.00000000000E+00 -0.17890626650E+04  0.17890626650E+04  0.00000000000E+00 0. -1.
         24    2    1    2    0    0  0.44969548055E+03 -0.29360223874E+02 -0.32006070322E+03  0.55896024694E+03  0.83124340304E+02 0.  0.
        254    2    1    2    0    0 -0.44969548055E+03  0.29360223874E+02 -0.11624460448E+04  0.15366583351E+04  0.89830394848E+03 0.  0.
         23    2    4    4    0    0 -0.23740863678E+03  0.27944934244E+03 -0.59319240241E+02  0.38215072125E+03  0.89808717173E+02 0.  0.
         23    2    4    4    0    0 -0.21228684377E+03 -0.25008911857E+03 -0.11031268046E+04  0.11545076139E+04  0.91590459587E+02 0.  0.
          4    1    3    3  502    0  0.10357551103E+03  0.12984525607E+02 -0.40262804201E+02  0.11188198154E+03  0.00000000000E+00 0. -1.
         -3    1    3    3    0  502  0.34611996951E+03 -0.42344749481E+02 -0.27979789902E+03  0.44707826541E+03  0.00000000000E+00 0.  1.
         11    1    5    5    0    0 -0.80800920226E+02  0.44120215046E+02 -0.34776032099E+02  0.98411150250E+02  0.00000000000E+00 0. -1.
        -11    1    5    5    0    0 -0.15660771655E+03  0.23532912740E+03 -0.24543208142E+02  0.28373957100E+03  0.00000000000E+00 0.  1.
          4    1    6    6  503    0 -0.21398763088E+03 -0.20846825879E+03 -0.95524636865E+03  0.10008722925E+04  0.00000000000E+00 0.  1.
         -4    1    6    6    0  503  0.17007871151E+01 -0.41620859775E+02 -0.14788043591E+03  0.15363532137E+03  0.00000000000E+00 0. -1.
<mgrwt>
<rscale>  0 0.14811452E+04</rscale>
<asrwt>0</asrwt>
<pdfrwt beam="1">  1        2 0.27524041E+00 0.14811452E+04</pdfrwt>
<pdfrwt beam="2">  1       -1 0.47162449E-01 0.14811452E+04</pdfrwt>
<totfact> 0.43250377E+01</totfact>
</mgrwt>
</event>
<event>
12    6  0.1540825E-007  0.1792775E+04  0.7818608E-02  0.8710151E-01
          2   -1    0    0  501    0  0.00000000000E+00  0.00000000000E+00  0.66731713146E+03  0.66731713146E+03  0.00000000000E+00 0. -1.
         -1   -1    0    0    0  501 -0.00000000000E+00 -0.00000000000E+00 -0.12040915397E+04  0.12040915397E+04  0.00000000000E+00 0.  1.
         24    2    1    2    0    0  0.29733625192E+03 -0.56973415542E+03 -0.34953174894E+03  0.73584772876E+03  0.79332098449E+02 0.  0.
        254    2    1    2    0    0 -0.29733625192E+03  0.56973415542E+03 -0.18724265926E+03  0.11355609424E+04  0.91729656372E+03 0.  0.
         23    2    4    4    0    0 -0.91530567664E+02  0.19418891042E+03  0.36484316920E+03  0.43113388768E+03  0.81723394766E+02 0.  0.
         23    2    4    4    0    0 -0.20580568425E+03  0.37554524500E+03 -0.55208582846E+03  0.70442705467E+03  0.89601912123E+02 0.  0.
          2    1    3    3  502    0  0.22729452289E+03 -0.41092258583E+03 -0.29205941171E+03  0.55300892548E+03  0.00000000000E+00 0. -1.
         -1    1    3    3    0  502  0.70041729023E+02 -0.15881156959E+03 -0.57472337226E+02  0.18283880328E+03  0.00000000000E+00 0.  1.
         11    1    5    5    0    0 -0.66385659595E+02  0.10412381313E+03  0.13479568319E+03  0.18280782387E+03  0.00000000000E+00 0. -1.
        -11    1    5    5    0    0 -0.25144908069E+02  0.90065097289E+02  0.23004748601E+03  0.24832606382E+03  0.00000000000E+00 0.  1.
          2    1    6    6  503    0 -0.13140916491E+03  0.19981168376E+03 -0.37067376537E+03  0.44112596605E+03  0.00000000000E+00 0. -1.
         -2    1    6    6    0  503 -0.74396519341E+02  0.17573356124E+03 -0.18141206309E+03  0.26330108862E+03  0.00000000000E+00 0.  1.
<mgrwt>
<rscale>  0 0.17927754E+04</rscale>
<asrwt>0</asrwt>
<pdfrwt beam="1">  1        2 0.10266417E+00 0.17927754E+04</pdfrwt>
<pdfrwt beam="2">  1       -1 0.18524485E+00 0.17927754E+04</pdfrwt>
<totfact> 0.89602449E+00</totfact>
</mgrwt>
</event>
<event>
12    6  0.1540825E-007  0.1632976E+04  0.7818608E-02  0.8800542E-01
          2   -1    0    0  501    0  0.00000000000E+00  0.00000000000E+00  0.13959304298E+04  0.13959304298E+04  0.00000000000E+00 0. -1.
         -1   -1    0    0    0  501 -0.00000000000E+00 -0.00000000000E+00 -0.47756886728E+03  0.47756886728E+03  0.00000000000E+00 0.  1.
         24    2    1    2    0    0  0.51633139815E+03 -0.13881727649E+03  0.54661714347E+03  0.76885789695E+03  0.80522141089E+02 0.  0.
        254    2    1    2    0    0 -0.51633139815E+03  0.13881727649E+03  0.37174441900E+03  0.11046414001E+04  0.89228378936E+03 0.  0.
         23    2    4    4    0    0 -0.72100093821E+03  0.22366239062E+03  0.13956492168E+03  0.77303286159E+03  0.90742602296E+02 0.  0.
         23    2    4    4    0    0  0.20466954006E+03 -0.84845114132E+02  0.23217949732E+03  0.33160853849E+03  0.83478079782E+02 0.  0.
          4    1    3    3  502    0  0.16566548171E+03 -0.24035588238E+02  0.21724791987E+03  0.27426159049E+03  0.00000000000E+00 0. -1.
         -3    1    3    3    0  502  0.35066591643E+03 -0.11478168825E+03  0.32936922360E+03  0.49459630646E+03  0.00000000000E+00 0.  1.
         11    1    5    5    0    0 -0.39702357852E+03  0.16906486247E+03  0.89299780117E+02  0.44066438517E+03  0.00000000000E+00 0. -1.
        -11    1    5    5    0    0 -0.32397735968E+03  0.54597528147E+02  0.50265141562E+02  0.33236847643E+03  0.00000000000E+00 0.  1.
          3    1    6    6  503    0  0.68797375303E+02 -0.69045038607E+02  0.73288720334E+02  0.12194889394E+03  0.00000000000E+00 0. -1.
         -3    1    6    6    0  503  0.13587216475E+03 -0.15800075525E+02  0.15889077699E+03  0.20965964455E+03  0.00000000000E+00 0.  1.
<mgrwt>
<rscale>  0 0.16329763E+04</rscale>
<asrwt>0</asrwt>
<pdfrwt beam="1">  1        2 0.21475853E+00 0.16329763E+04</pdfrwt>
<pdfrwt beam="2">  1       -1 0.73472134E-01 0.16329763E+04</pdfrwt>
<totfact> 0.29603571E+01</totfact>
</mgrwt>
</event>
<event>
12    6  0.1540825E-007  0.1357137E+04  0.7818608E-02  0.8985443E-01
          2   -1    0    0  501    0  0.00000000000E+00  0.00000000000E+00  0.69372284649E+03  0.69372284649E+03  0.00000000000E+00 0. -1.
         -1   -1    0    0    0  501 -0.00000000000E+00 -0.00000000000E+00 -0.66374505800E+03  0.66374505800E+03  0.00000000000E+00 0.  1.
         24    2    1    2    0    0 -0.24995718211E+03 -0.24110995202E+03  0.15599698488E+03  0.38896451683E+03  0.79660116811E+02 0.  0.
        254    2    1    2    0    0  0.24995718211E+03  0.24110995202E+03 -0.12601919639E+03  0.96850338766E+03  0.89526832414E+03 0.  0.
         23    2    4    4    0    0  0.50601729386E+03  0.11514564858E+03  0.16428546268E+03  0.55182056308E+03  0.90577030901E+02 0.  0.
         23    2    4    4    0    0 -0.25606011174E+03  0.12596430344E+03 -0.29030465906E+03  0.41668282458E+03  0.88960635447E+02 0.  0.
          2    1    3    3  502    0 -0.12835816804E+03 -0.16163973764E+03  0.60381902786E+02  0.21505626769E+03  0.00000000000E+00 0. -1.
         -1    1    3    3    0  502 -0.12159901407E+03 -0.79470214375E+02  0.95615082096E+02  0.17390824914E+03  0.00000000000E+00 0.  1.
         11    1    5    5    0    0  0.19470151403E+03  0.89382552184E+02  0.73932713129E+02  0.22663619806E+03  0.00000000000E+00 0.  1.
        -11    1    5    5    0    0  0.31131577983E+03  0.25763096393E+02  0.90352749547E+02  0.32518436503E+03  0.00000000000E+00 0. -1.
          4    1    6    6  503    0 -0.58124319875E+02  0.63199585439E+02 -0.51084613583E+02  0.99911270163E+02  0.00000000000E+00 0. -1.
         -4    1    6    6    0  503 -0.19793579187E+03  0.62764718000E+02 -0.23922004548E+03  0.31677155442E+03  0.00000000000E+00 0.  1.
<mgrwt>
<rscale>  0 0.13571369E+04</rscale>
<asrwt>0</asrwt>
<pdfrwt beam="1">  1        2 0.10672659E+00 0.13571369E+04</pdfrwt>
<pdfrwt beam="2">  1       -1 0.10211462E+00 0.13571369E+04</pdfrwt>
<totfact> 0.41996489E+01</totfact>
</mgrwt>
</event>
<event>
12    6  0.1540825E-007  0.1698610E+04  0.7818608E-02  0.8762158E-01
         -1   -1    0    0    0  501 -0.00000000000E+00  0.00000000000E+00  0.79538436791E+03  0.79538436791E+03  0.00000000000E+00 0.  1.
          2   -1    0    0  501    0  0.00000000000E+00 -0.00000000000E+00 -0.90688064319E+03  0.90688064319E+03  0.00000000000E+00 0. -1.
         24    2    1    2    0    0 -0.39413216754E+03 -0.33949818578E+03 -0.35078670815E+03  0.63253354840E+03  0.80300632573E+02 0.  0.
        254    2    1    2    0    0  0.39413216754E+03  0.33949818578E+03  0.23929043287E+03  0.10697314627E+04  0.90358525187E+03 0.  0.
         23    2    4    4    0    0  0.33057286843E+03  0.60876796843E+03  0.11845521162E+02  0.70006251144E+03  0.10035109780E+03 0.  0.
         23    2    4    4    0    0  0.63559299110E+02 -0.26926978264E+03  0.22744491171E+03  0.36966895126E+03  0.91531116646E+02 0.  0.
          2    1    3    3  502    0 -0.39309220468E+03 -0.32012874260E+03 -0.33790836328E+03  0.60925032228E+03  0.00000000000E+00 0. -1.
         -1    1    3    3    0  502 -0.10399628606E+01 -0.19369443183E+02 -0.12878344871E+02  0.23283226120E+02  0.00000000000E+00 0.  1.
         11    1    5    5    0    0  0.15465489296E+03  0.20575984112E+03  0.34750618846E+02  0.25973612311E+03  0.00000000000E+00 0.  1.
        -11    1    5    5    0    0  0.17591797547E+03  0.40300812730E+03 -0.22905097684E+02  0.44032638834E+03  0.00000000000E+00 0. -1.
          4    1    6    6  503    0  0.22713610982E+02 -0.23824503869E+03  0.19735169594E+03  0.31020041663E+03  0.00000000000E+00 0.  1.
         -4    1    6    6    0  503  0.40845688129E+02 -0.31024743952E+02  0.30093215766E+02  0.59468534631E+02  0.00000000000E+00 0. -1.
<mgrwt>
<rscale>  0 0.16986097E+04</rscale>
<asrwt>0</asrwt>
<pdfrwt beam="1">  1        2 0.13952010E+00 0.16986097E+04</pdfrwt>
<pdfrwt beam="2">  1       -1 0.12236683E+00 0.16986097E+04</pdfrwt>
<totfact> 0.18591455E+01</totfact>
</mgrwt>
</event>
<event>
12    6  0.1540825E-007  0.1375761E+04  0.7818608E-02  0.8971554E-01
          2   -1    0    0  501    0  0.00000000000E+00  0.00000000000E+00  0.10557139867E+04  0.10557139867E+04  0.00000000000E+00 0. -1.
         -1   -1    0    0    0  501 -0.00000000000E+00 -0.00000000000E+00 -0.44820780633E+03  0.44820780633E+03  0.00000000000E+00 0.  1.
         24    2    1    2    0    0  0.32248628725E+02 -0.39454926265E+02 -0.24214127589E+03  0.25984802222E+03  0.79321698822E+02 0.  0.
        254    2    1    2    0    0 -0.32248628725E+02  0.39454926265E+02  0.84964745627E+03  0.12440737708E+04  0.90731586674E+03 0.  0.
         23    2    4    4    0    0 -0.45992151810E+03  0.26258267279E+02  0.47538943270E+03  0.66824070400E+03  0.91286506921E+02 0.  0.
         23    2    4    4    0    0  0.42767288937E+03  0.13196658985E+02  0.37425802356E+03  0.57583306682E+03  0.91849880381E+02 0.  0.
          2    1    3    3  502    0 -0.85842284919E+01 -0.19331422850E+02 -0.10201640561E+02  0.23483320855E+02  0.00000000000E+00 0. -1.
         -1    1    3    3    0  502  0.40832857217E+02 -0.20123503414E+02 -0.23193963532E+03  0.23636470137E+03  0.00000000000E+00 0.  1.
         11    1    5    5    0    0 -0.40309541926E+03  0.24671486724E+02  0.36628793309E+03  0.54521688273E+03  0.00000000000E+00 0. -1.
        -11    1    5    5    0    0 -0.56826098834E+02  0.15867805549E+01  0.10910149962E+03  0.12302382127E+03  0.00000000000E+00 0.  1.
          4    1    6    6  503    0  0.36274459945E+03  0.10618727329E+02  0.35594128031E+03  0.50832135193E+03  0.00000000000E+00 0. -1.
         -4    1    6    6    0  503  0.64928289919E+02  0.25779316564E+01  0.18316743258E+02  0.67511714887E+02  0.00000000000E+00 0.  1.
<mgrwt>
<rscale>  0 0.13757605E+04</rscale>
<asrwt>0</asrwt>
<pdfrwt beam="1">  1        2 0.16241754E+00 0.13757605E+04</pdfrwt>
<pdfrwt beam="2">  1       -1 0.68955047E-01 0.13757605E+04</pdfrwt>
<totfact> 0.54948813E+01</totfact>
</mgrwt>
</event>
<event>
12    6  0.1540825E-007  0.2170714E+04  0.7818608E-02  0.8530717E-01
          2   -1    0    0  501    0  0.00000000000E+00  0.00000000000E+00  0.93660981276E+03  0.93660981276E+03  0.00000000000E+00 0. -1.
         -1   -1    0    0    0  501 -0.00000000000E+00 -0.00000000000E+00 -0.12577276736E+04  0.12577276736E+04  0.00000000000E+00 0.  1.
         24    2    1    2    0    0  0.54148099153E+03 -0.64531478313E+03 -0.42784411097E+03  0.94748674582E+03  0.71047284913E+02 0.  0.
        254    2    1    2    0    0 -0.54148099153E+03  0.64531478313E+03  0.10672625009E+03  0.12468507406E+04  0.91302433885E+03 0.  0.
         23    2    4    4    0    0 -0.59761673583E+03  0.34990144761E+03 -0.27636355872E+03  0.75123236490E+03  0.91632218697E+02 0.  0.
         23    2    4    4    0    0  0.56135744300E+02  0.29541333552E+03  0.38308980881E+03  0.49561837569E+03  0.91975606113E+02 0.  0.
          2    1    3    3  502    0  0.47292360128E+02 -0.92374821258E+02 -0.54349033857E+02  0.11714731073E+03  0.00000000000E+00 0. -1.
         -1    1    3    3    0  502  0.49418863140E+03 -0.55293996187E+03 -0.37349507711E+03  0.83033943509E+03  0.00000000000E+00 0.  1.
         11    1    5    5    0    0 -0.47196128374E+03  0.23314464504E+03 -0.19471916906E+03  0.56126592063E+03  0.00000000000E+00 0.  1.
        -11    1    5    5    0    0 -0.12565545208E+03  0.11675680257E+03 -0.81644389657E+02  0.18996644427E+03  0.00000000000E+00 0. -1.
          4    1    6    6  503    0  0.10850112624E+02  0.22502991782E+03  0.31737642508E+03  0.38920943469E+03  0.00000000000E+00 0.  1.
         -4    1    6    6    0  503  0.45285631676E+02  0.70383417703E+02  0.65713383731E+02  0.10640894100E+03  0.00000000000E+00 0. -1.
<mgrwt>
<rscale>  0 0.21707142E+04</rscale>
<asrwt>0</asrwt>
<pdfrwt beam="1">  1        2 0.14409382E+00 0.21707142E+04</pdfrwt>
<pdfrwt beam="2">  1       -1 0.19349656E+00 0.21707142E+04</pdfrwt>
<totfact> 0.48361990E+00</totfact>
</mgrwt>
</event>
<event>
12    6  0.1540825E-007  0.2525650E+04  0.7818608E-02  0.8393904E-01
          2   -1    0    0  501    0  0.00000000000E+00  0.00000000000E+00  0.10988995713E+04  0.10988995713E+04  0.00000000000E+00 0. -1.
         -1   -1    0    0    0  501 -0.00000000000E+00 -0.00000000000E+00 -0.14512038352E+04  0.14512038352E+04  0.00000000000E+00 0.  1.
         24    2    1    2    0    0  0.48413471221E+03 -0.47820008542E+01 -0.11112952979E+04  0.12148648299E+04  0.80684749913E+02 0.  0.
        254    2    1    2    0    0 -0.48413471221E+03  0.47820008542E+01  0.75899103402E+03  0.13352385765E+04  0.98609602954E+03 0.  0.
         23    2    4    4    0    0 -0.75421945116E+03  0.47839953412E+02  0.71860844356E+03  0.10467740082E+04  0.90565376406E+02 0.  0.
         23    2    4    4    0    0  0.27008473894E+03 -0.43057952558E+02  0.40382590457E+02  0.28846456836E+03  0.82348649667E+02 0.  0.
          2    1    3    3  502    0  0.16635757459E+03  0.19851677809E+02 -0.30743320652E+03  0.35012013396E+03  0.00000000000E+00 0. -1.
         -1    1    3    3    0  502  0.31777713763E+03 -0.24633678663E+02 -0.80386209135E+03  0.86474469598E+03  0.00000000000E+00 0.  1.
         11    1    5    5    0    0 -0.68036595130E+03  0.69798845596E+02  0.65213909849E+03  0.94501593125E+03  0.00000000000E+00 0.  1.
        -11    1    5    5    0    0 -0.73853499860E+02 -0.21958892184E+02  0.66469345070E+02  0.10175807694E+03  0.00000000000E+00 0. -1.
          4    1    6    6  503    0  0.22132966118E+03 -0.25034500636E+02  0.16220269341E+00  0.22274104123E+03  0.00000000000E+00 0. -1.
         -4    1    6    6    0  503  0.48755077764E+02 -0.18023451922E+02  0.40220387764E+02  0.65723527133E+02  0.00000000000E+00 0.  1.
<mgrwt>
<rscale>  0 0.25256502E+04</rscale>
<asrwt>0</asrwt>
<pdfrwt beam="1">  1        2 0.16906147E+00 0.25256502E+04</pdfrwt>
<pdfrwt beam="2">  1       -1 0.22326213E+00 0.25256502E+04</pdfrwt>
<totfact> 0.23166470E+00</totfact>
</mgrwt>
</event>
<event>
12    6  0.1540825E-007  0.2366277E+04  0.7818608E-02  0.8452238E-01
         -1   -1    0    0    0  501 -0.00000000000E+00  0.00000000000E+00  0.16295907937E+04  0.16295907937E+04  0.00000000000E+00 0.  1.
          2   -1    0    0  501    0  0.00000000000E+00 -0.00000000000E+00 -0.85899897922E+03  0.85899897922E+03  0.00000000000E+00 0. -1.
         24    2    1    2    0    0 -0.27578240251E+03 -0.50175635880E+03 -0.54551959147E+03  0.79471284674E+03  0.78495267202E+02 0.  0.
        254    2    1    2    0    0  0.27578240251E+03  0.50175635880E+03  0.13161114060E+04  0.16938769262E+04  0.89958569967E+03 0.  0.
         23    2    4    4    0    0  0.19592219783E+03 -0.22673855007E+03  0.27963625609E+03  0.42146132495E+03  0.98169929302E+02 0.  0.
         23    2    4    4    0    0  0.79860204676E+02  0.72849490887E+03  0.10364751499E+04  0.12724156012E+04  0.87625575212E+02 0.  0.
          2    1    3    3  502    0 -0.22504297858E+03 -0.45182707062E+03 -0.49828565951E+03  0.70928177929E+03  0.00000000000E+00 0. -1.
         -1    1    3    3    0  502 -0.50739423923E+02 -0.49929288180E+02 -0.47233931952E+02  0.85431067451E+02  0.00000000000E+00 0.  1.
         11    1    5    5    0    0  0.10745934213E+03 -0.15245893543E+03  0.22896430729E+03  0.29532336720E+03  0.00000000000E+00 0. -1.
        -11    1    5    5    0    0  0.88462855704E+02 -0.74279614643E+02  0.50671948806E+02  0.12613795775E+03  0.00000000000E+00 0.  1.
          4    1    6    6  503    0  0.18139906358E+02  0.49745077224E+03  0.66627851132E+03  0.83169308140E+03  0.00000000000E+00 0.  1.
         -4    1    6    6    0  503  0.61720298318E+02  0.23104413663E+03  0.37019663855E+03  0.44072251983E+03  0.00000000000E+00 0. -1.
<mgrwt>
<rscale>  0 0.23662771E+04</rscale>
<asrwt>0</asrwt>
<pdfrwt beam="1">  1        2 0.13215369E+00 0.23662771E+04</pdfrwt>
<pdfrwt beam="2">  1       -1 0.25070628E+00 0.23662771E+04</pdfrwt>
<totfact> 0.22193954E+00</totfact>
</mgrwt>
</event>
<event>
12    6  0.1540825E-007  0.2163575E+04  0.7818608E-02  0.8533744E-01
         -1   -1    0    0    0  501 -0.00000000000E+00  0.00000000000E+00  0.14114141638E+04  0.14114141638E+04  0.00000000000E+00 0.  1.
          2   -1    0    0  501    0  0.00000000000E+00 -0.00000000000E+00 -0.82914283909E+03  0.82914283909E+03  0.00000000000E+00 0. -1.
         24    2    1    2    0    0 -0.17010893484E+03  0.77503244712E+03 -0.18215906777E+03  0.81805461888E+03  0.80119221812E+02 0.  0.
        254    2    1    2    0    0  0.17010893484E+03 -0.77503244712E+03  0.76443039253E+03  0.14225023841E+04  0.89974822247E+03 0.  0.
         23    2    4    4    0    0  0.74785093101E+02 -0.60335898008E+03  0.95398522894E+03  0.11350512827E+04  0.92837106959E+02 0.  0.
         23    2    4    4    0    0  0.95323841735E+02 -0.17167346704E+03 -0.18955483642E+03  0.28745110131E+03  0.90214663704E+02 0.  0.
          4    1    3    3  502    0 -0.81328248604E+02  0.40317887949E+03 -0.53942658290E+02  0.41482201397E+03  0.00000000000E+00 0. -1.
         -3    1    3    3    0  502 -0.88780686233E+02  0.37185356763E+03 -0.12821640948E+03  0.40323260491E+03  0.00000000000E+00 0.  1.
         11    1    5    5    0    0  0.15016233640E+02 -0.32239776431E+03  0.43200107297E+03  0.53925015786E+03  0.00000000000E+00 0. -1.
        -11    1    5    5    0    0  0.59768859462E+02 -0.28096121577E+03  0.52198415598E+03  0.59580112489E+03  0.00000000000E+00 0.  1.
          2    1    6    6  503    0  0.92075196837E+02 -0.18263360332E+03 -0.17715561932E+03  0.27058637880E+03  0.00000000000E+00 0. -1.
         -2    1    6    6    0  503  0.32486448982E+01  0.10960136277E+02 -0.12399217095E+02  0.16864722514E+02  0.00000000000E+00 0.  1.
<mgrwt>
<rscale>  0 0.21635748E+04</rscale>
<asrwt>0</asrwt>
<pdfrwt beam="1">  1        2 0.12756044E+00 0.21635748E+04</pdfrwt>
<pdfrwt beam="2">  1       -1 0.21714064E+00 0.21635748E+04</pdfrwt>
<totfact> 0.39496308E+00</totfact>
</mgrwt>
</event>
<event>
12    6  0.1540825E-007  0.1574778E+04  0.7818608E-02  0.8836194E-01
          2   -1    0    0  501    0  0.00000000000E+00  0.00000000000E+00  0.67034770347E+03  0.67034770347E+03  0.00000000000E+00 0. -1.
         -1   -1    0    0    0  501 -0.00000000000E+00 -0.00000000000E+00 -0.92486567416E+03  0.92486567416E+03  0.00000000000E+00 0.  1.
         24    2    1    2    0    0 -0.28895022433E+03 -0.42552998080E+03 -0.16539703840E+03  0.54639134071E+03  0.81359204719E+02 0.  0.
        254    2    1    2    0    0  0.28895022433E+03  0.42552998080E+03 -0.89120932294E+02  0.10488220369E+04  0.90967968420E+03 0.  0.
         23    2    4    4    0    0 -0.36605724064E+02  0.54899956557E+03  0.19589324589E+03  0.58992161949E+03  0.83023197517E+02 0.  0.
         23    2    4    4    0    0  0.32555594839E+03 -0.12346958477E+03 -0.28501417818E+03  0.45890041743E+03  0.90139322450E+02 0.  0.
          4    1    3    3  502    0 -0.25840374890E+02 -0.22792348451E+02  0.73835077098E+01  0.35238222266E+02  0.00000000000E+00 0. -1.
         -3    1    3    3    0  502 -0.26310984944E+03 -0.40273763235E+03 -0.17278054611E+03  0.51115311844E+03  0.00000000000E+00 0.  1.
         11    1    5    5    0    0 -0.16461483757E+02  0.80161363777E+02  0.59670924093E+02  0.10127903965E+03  0.00000000000E+00 0. -1.
        -11    1    5    5    0    0 -0.20144240307E+02  0.46883820179E+03  0.13622232180E+03  0.48864257984E+03  0.00000000000E+00 0.  1.
          3    1    6    6  503    0  0.31935738173E+03 -0.10211790070E+03 -0.27811767872E+03  0.43562213686E+03  0.00000000000E+00 0. -1.
         -3    1    6    6    0  503  0.61985666637E+01 -0.21351684068E+02 -0.68964994678E+01  0.23278280567E+02  0.00000000000E+00 0.  1.
<mgrwt>
<rscale>  0 0.15747782E+04</rscale>
<asrwt>0</asrwt>
<pdfrwt beam="1">  1        2 0.10313042E+00 0.15747782E+04</pdfrwt>
<pdfrwt beam="2">  1       -1 0.14228703E+00 0.15747782E+04</pdfrwt>
<totfact> 0.19076403E+01</totfact>
</mgrwt>
</event>
<event>
12    6  0.2100189E-007  0.3820869E+04  0.7818608E-02  0.8041691E-01
         -1   -1    0    0    0  501 -0.00000000000E+00  0.00000000000E+00  0.17962524878E+04  0.17962524878E+04  0.00000000000E+00 0.  1.
          2   -1    0    0  501    0  0.00000000000E+00 -0.00000000000E+00 -0.20318751447E+04  0.20318751447E+04  0.00000000000E+00 0. -1.
         24    2    1    2    0    0  0.13614176102E+04  0.48000059560E+03 -0.11564990684E+04  0.18511208667E+04  0.72800321818E+02 0.  0.
        254    2    1    2    0    0 -0.13614176102E+04 -0.48000059560E+03  0.92087641146E+03  0.19770067657E+04  0.98827319380E+03 0.  0.
         23    2    4    4    0    0 -0.79731002950E+03 -0.10878657516E+03  0.10048447465E+04  0.12905765392E+04  0.91307375828E+02 0.  0.
         23    2    4    4    0    0 -0.56410758066E+03 -0.37121402045E+03 -0.83968335049E+02  0.68643022654E+03  0.90103069219E+02 0.  0.
          4    1    3    3  502    0  0.11083437999E+04  0.36311122143E+03 -0.91789110100E+03  0.14841832135E+04  0.00000000000E+00 0. -1.
         -3    1    3    3    0  502  0.25307381030E+03  0.11688937417E+03 -0.23860796736E+03  0.36693765321E+03  0.00000000000E+00 0.  1.
         11    1    5    5    0    0 -0.72081395816E+03 -0.12352224180E+03  0.92259514080E+03  0.11772902362E+04  0.00000000000E+00 0. -1.
        -11    1    5    5    0    0 -0.76496071340E+02  0.14735666643E+02  0.82249605708E+02  0.11328630297E+03  0.00000000000E+00 0.  1.
          4    1    6    6  503    0 -0.11778189141E+03 -0.12198245968E+03 -0.94309818258E+01  0.16982708215E+03  0.00000000000E+00 0.  1.
         -4    1    6    6    0  503 -0.44632568926E+03 -0.24923156077E+03 -0.74537353223E+02  0.51660314439E+03  0.00000000000E+00 0. -1.
<mgrwt>
<rscale>  0 0.38208694E+04</rscale>
<asrwt>0</asrwt>
<pdfrwt beam="1">  1        2 0.31259617E+00 0.38208694E+04</pdfrwt>
<pdfrwt beam="2">  1       -1 0.27634654E+00 0.38208694E+04</pdfrwt>
<totfact> 0.27446839E-01</totfact>
</mgrwt>
</event>
<event>
12    6  0.1540825E-007  0.3722591E+04  0.7818608E-02  0.8062974E-01
         -1   -1    0    0    0  501 -0.00000000000E+00  0.00000000000E+00  0.10980351955E+04  0.10980351955E+04  0.00000000000E+00 0.  1.
          2   -1    0    0  501    0  0.00000000000E+00 -0.00000000000E+00 -0.31551098671E+04  0.31551098671E+04  0.00000000000E+00 0. -1.
         24    2    1    2    0    0  0.13236240179E+03  0.17451967692E+04 -0.89598642503E+03  0.19678733718E+04  0.80637243759E+02 0.  0.
        254    2    1    2    0    0 -0.13236240179E+03 -0.17451967692E+04 -0.11610882466E+04  0.22852716908E+04  0.90061602030E+03 0.  0.
         23    2    4    4    0    0 -0.35746245335E+03 -0.16638629863E+04 -0.10667281715E+04  0.20105118660E+04  0.89607638236E+02 0.  0.
         23    2    4    4    0    0  0.22510005156E+03 -0.81333782898E+02 -0.94360075115E+02  0.27475982484E+03  0.96456830347E+02 0.  0.
          4    1    3    3  502    0  0.67426784694E+02  0.12552735617E+04 -0.61663345377E+03  0.14001767397E+04  0.00000000000E+00 0. -1.
         -3    1    3    3    0  502  0.64935617100E+02  0.48992320747E+03 -0.27935297126E+03  0.56769663213E+03  0.00000000000E+00 0.  1.
         11    1    5    5    0    0 -0.32483601096E+03 -0.14442526944E+04 -0.89532655434E+03  0.17300271437E+04  0.00000000000E+00 0.  1.
        -11    1    5    5    0    0 -0.32626442393E+02 -0.21961029191E+03 -0.17140161716E+03  0.28048472226E+03  0.00000000000E+00 0. -1.
          3    1    6    6  503    0  0.30455547050E+02 -0.52033590442E+02 -0.12469067080E+02  0.61567138266E+02  0.00000000000E+00 0. -1.
         -3    1    6    6    0  503  0.19464450451E+03 -0.29300192455E+02 -0.81891008036E+02  0.21319268658E+03  0.00000000000E+00 0.  1.
<mgrwt>
<rscale>  0 0.37225914E+04</rscale>
<asrwt>0</asrwt>
<pdfrwt beam="1">  1        2 0.48540152E+00 0.37225914E+04</pdfrwt>
<pdfrwt beam="2">  1       -1 0.16892849E+00 0.37225914E+04</pdfrwt>
<totfact> 0.31807375E-01</totfact>
</mgrwt>
</event>
<event>
12    6  0.1540825E-007  0.1545259E+04  0.7818608E-02  0.8854902E-01
         -1   -1    0    0    0  501 -0.00000000000E+00  0.00000000000E+00  0.10617221224E+04  0.10617221224E+04  0.00000000000E+00 0.  1.
          2   -1    0    0  501    0  0.00000000000E+00 -0.00000000000E+00 -0.56225273045E+03  0.56225273045E+03  0.00000000000E+00 0. -1.
         24    2    1    2    0    0  0.39617464355E+03 -0.20515853837E+03 -0.13452474830E+03  0.47295501297E+03  0.80902177545E+02 0.  0.
        254    2    1    2    0    0 -0.39617464355E+03  0.20515853837E+03  0.63399414024E+03  0.11510198399E+04  0.85079593785E+03 0.  0.
         23    2    4    4    0    0 -0.20744295120E+03 -0.20411935112E+03 -0.67169382236E+02  0.31250125925E+03  0.91913130818E+02 0.  0.
         23    2    4    4    0    0 -0.18873169235E+03  0.40927788950E+03  0.70116352248E+03  0.83851858062E+03  0.91406139111E+02 0.  0.
          4    1    3    3  502    0  0.29336676525E+03 -0.11639633269E+03 -0.11409163661E+03  0.33560254284E+03  0.00000000000E+00 0. -1.
         -3    1    3    3    0  502  0.10280787831E+03 -0.88762205680E+02 -0.20433111687E+02  0.13735247013E+03  0.00000000000E+00 0.  1.
         11    1    5    5    0    0 -0.54231647444E+02 -0.61539810781E+01 -0.17286575571E+02  0.57251801392E+02  0.00000000000E+00 0. -1.
        -11    1    5    5    0    0 -0.15321130376E+03 -0.19796537005E+03 -0.49882806665E+02  0.25524945786E+03  0.00000000000E+00 0.  1.
          1    1    6    6  503    0 -0.21856078842E+02  0.89819871065E+01  0.59698173931E+02  0.64204643488E+02  0.00000000000E+00 0. -1.
         -1    1    6    6    0  503 -0.16687561351E+03  0.40029590239E+03  0.64146534854E+03  0.77431393713E+03  0.00000000000E+00 0.  1.
<mgrwt>
<rscale>  0 0.15452588E+04</rscale>
<asrwt>0</asrwt>
<pdfrwt beam="1">  1        2 0.86500420E-01 0.15452588E+04</pdfrwt>
<pdfrwt beam="2">  1       -1 0.16334186E+00 0.15452588E+04</pdfrwt>
<totfact> 0.16272823E+01</totfact>
</mgrwt>
</event>
<event>
12    6  0.1540825E-007  0.1838688E+04  0.7818608E-02  0.8685992E-01
         -1   -1    0    0    0  501 -0.00000000000E+00  0.00000000000E+00  0.72805835632E+03  0.72805835632E+03  0.00000000000E+00 0.  1.
          2   -1    0    0  501    0  0.00000000000E+00 -0.00000000000E+00 -0.11608868263E+04  0.11608868263E+04  0.00000000000E+00 0. -1.
         24    2    1    2    0    0  0.96650656460E+02 -0.68625833382E+03 -0.12559353053E+03  0.70877998496E+03  0.79394471032E+02 0.  0.
        254    2    1    2    0    0 -0.96650656460E+02  0.68625833382E+03 -0.30723493943E+03  0.11801651977E+04  0.90449142373E+03 0.  0.
         23    2    4    4    0    0 -0.31791889277E+03  0.15705417492E+02  0.11802962195E+03  0.35076733245E+03  0.88247647765E+02 0.  0.
         23    2    4    4    0    0  0.22126823631E+03  0.67055291633E+03 -0.42526456139E+03  0.82939786520E+03  0.91924020958E+02 0.  0.
          4    1    3    3  502    0  0.37785991163E+02 -0.28434719741E+03 -0.91797488101E+02  0.30117750352E+03  0.00000000000E+00 0. -1.
         -3    1    3    3    0  502  0.58864665297E+02 -0.40191113641E+03 -0.33796042432E+02  0.40760248144E+03  0.00000000000E+00 0.  1.
         11    1    5    5    0    0 -0.47459434796E+02  0.11793177736E+02  0.53905808000E+02  0.72782643044E+02  0.00000000000E+00 0.  1.
        -11    1    5    5    0    0 -0.27045945798E+03  0.39122397558E+01  0.64123813952E+02  0.27798468941E+03  0.00000000000E+00 0. -1.
          1    1    6    6  503    0  0.13434438581E+03  0.48490110860E+03 -0.26174946685E+03  0.56717747004E+03  0.00000000000E+00 0. -1.
         -1    1    6    6    0  503  0.86923850502E+02  0.18565180773E+03 -0.16351509453E+03  0.26222039517E+03  0.00000000000E+00 0.  1.
<mgrwt>
<rscale>  0 0.18386880E+04</rscale>
<asrwt>0</asrwt>
<pdfrwt beam="1">  1        2 0.17859797E+00 0.18386880E+04</pdfrwt>
<pdfrwt beam="2">  1       -1 0.11200898E+00 0.18386880E+04</pdfrwt>
<totfact> 0.15691090E+01</totfact>
</mgrwt>
</event>
<event>
12    6  0.1540825E-007  0.1265552E+04  0.7818608E-02  0.9057338E-01
         -1   -1    0    0    0  501 -0.00000000000E+00  0.00000000000E+00  0.64247703286E+03  0.64247703286E+03  0.00000000000E+00 0.  1.
          2   -1    0    0  501    0  0.00000000000E+00 -0.00000000000E+00 -0.62322171336E+03  0.62322171336E+03  0.00000000000E+00 0. -1.
         24    2    1    2    0    0 -0.13872552454E+03  0.24455592811E+03  0.10950381134E+03  0.31182752631E+03  0.78695287877E+02 0.  0.
        254    2    1    2    0    0  0.13872552454E+03 -0.24455592811E+03 -0.90248491835E+02  0.95387121992E+03  0.90701330794E+03 0.  0.
         23    2    4    4    0    0  0.48907742838E+03  0.23552369935E+02 -0.29846642931E+02  0.49953050550E+03  0.94278622985E+02 0.  0.
         23    2    4    4    0    0 -0.35035190384E+03 -0.26810829805E+03 -0.60401848903E+02  0.45434071442E+03  0.90269515472E+02 0.  0.
          4    1    3    3  502    0 -0.14807671058E+03  0.23878182985E+03  0.10491300926E+03  0.29991701185E+03  0.00000000000E+00 0. -1.
         -3    1    3    3    0  502  0.93511860393E+01  0.57740982580E+01  0.45908020797E+01  0.11910514463E+02  0.00000000000E+00 0.  1.
         11    1    5    5    0    0  0.42703629322E+03  0.35098362387E+02 -0.54194702829E+02  0.43188998204E+03  0.00000000000E+00 0. -1.
        -11    1    5    5    0    0  0.62041135153E+02 -0.11545992452E+02  0.24348059898E+02  0.67640523457E+02  0.00000000000E+00 0.  1.
          3    1    6    6  503    0 -0.30406746416E+03 -0.21189923341E+03 -0.20204839144E+02  0.37116915740E+03  0.00000000000E+00 0. -1.
         -3    1    6    6    0  503 -0.46284439683E+02 -0.56209064632E+02 -0.40197009759E+02  0.83171557020E+02  0.00000000000E+00 0.  1.
<mgrwt>
<rscale>  0 0.12655523E+04</rscale>
<asrwt>0</asrwt>
<pdfrwt beam="1">  1        2 0.95880263E-01 0.12655523E+04</pdfrwt>
<pdfrwt beam="2">  1       -1 0.98842621E-01 0.12655523E+04</pdfrwt>
<totfact> 0.52063313E+01</totfact>
</mgrwt>
</event>
<event>
12    6  0.1540825E-007  0.1968607E+04  0.7818608E-02  0.8621440E-01
          2   -1    0    0  501    0  0.00000000000E+00  0.00000000000E+00  0.15028968798E+04  0.15028968798E+04  0.00000000000E+00 0. -1.
         -1   -1    0    0    0  501 -0.00000000000E+00 -0.00000000000E+00 -0.64465753000E+03  0.64465753000E+03  0.00000000000E+00 0.  1.
         24    2    1    2    0    0 -0.16605806914E+03  0.28223609492E+03  0.11120855658E+04  0.11619222423E+04  0.78080059884E+02 0.  0.
        254    2    1    2    0    0  0.16605806914E+03 -0.28223609492E+03 -0.25384621604E+03  0.98563216753E+03  0.89431558897E+03 0.  0.
         23    2    4    4    0    0  0.54518621427E+02  0.16190855705E+03  0.23636000177E+03  0.30858381217E+03  0.10085265374E+03 0.  0.
         23    2    4    4    0    0  0.11153944771E+03 -0.44414465197E+03 -0.49020621780E+03  0.67704835536E+03  0.91579578827E+02 0.  0.
          2    1    3    3  502    0 -0.12635272167E+03  0.19331645885E+03  0.88900092850E+03  0.91850907149E+03  0.00000000000E+00 0. -1.
         -1    1    3    3    0  502 -0.39705347465E+02  0.88919636070E+02  0.22308463734E+03  0.24341317079E+03  0.00000000000E+00 0.  1.
         11    1    5    5    0    0  0.66998845806E+02  0.17048365330E+03  0.22041873358E+03  0.28659717287E+03  0.00000000000E+00 0. -1.
        -11    1    5    5    0    0 -0.12480224379E+02 -0.85750962505E+01  0.15941268186E+02  0.21986639298E+02  0.00000000000E+00 0.  1.
          3    1    6    6  503    0  0.12259482982E+03 -0.39702057080E+03 -0.46050939699E+03  0.62026101816E+03  0.00000000000E+00 0. -1.
         -3    1    6    6    0  503 -0.11055382113E+02 -0.47124081171E+02 -0.29696820815E+02  0.56787337201E+02  0.00000000000E+00 0.  1.
<mgrwt>
<rscale>  0 0.19686074E+04</rscale>
<asrwt>0</asrwt>
<pdfrwt beam="1">  1        2 0.23121490E+00 0.19686074E+04</pdfrwt>
<pdfrwt beam="2">  1       -1 0.99178082E-01 0.19686074E+04</pdfrwt>
<totfact> 0.13035272E+01</totfact>
</mgrwt>
</event>
<event>
12    6  0.1540825E-007  0.1903630E+04  0.7818608E-02  0.8653052E-01
         -1   -1    0    0    0  501 -0.00000000000E+00  0.00000000000E+00  0.26878126650E+03  0.26878126650E+03  0.00000000000E+00 0.  1.
          2   -1    0    0  501    0  0.00000000000E+00 -0.00000000000E+00 -0.33705896344E+04  0.33705896344E+04  0.00000000000E+00 0. -1.
         24    2    1    2    0    0 -0.30409384555E+03 -0.47563352459E+03 -0.43310657382E+03  0.71617527894E+03  0.81396617087E+02 0.  0.
        254    2    1    2    0    0  0.30409384555E+03  0.47563352459E+03 -0.26687017941E+04  0.29231956220E+04  0.10509058292E+04 0.  0.
         23    2    4    4    0    0  0.66446526446E+03  0.22365156773E+03 -0.12603019903E+04  0.14450180183E+04  0.90453606455E+02 0.  0.
         23    2    4    4    0    0 -0.36037141891E+03  0.25198195685E+03 -0.14083998038E+04  0.14781776037E+04  0.89758312225E+02 0.  0.
          2    1    3    3  502    0 -0.16409894890E+03 -0.32408960684E+03 -0.25787899208E+03  0.44549311201E+03  0.00000000000E+00 0. -1.
         -1    1    3    3    0  502 -0.13999489665E+03 -0.15154391774E+03 -0.17522758174E+03  0.27068216693E+03  0.00000000000E+00 0.  1.
         11    1    5    5    0    0  0.43513736764E+03  0.18400782559E+03 -0.89087284058E+03  0.10083936863E+04  0.00000000000E+00 0. -1.
        -11    1    5    5    0    0  0.22932789682E+03  0.39643742147E+02 -0.36942914973E+03  0.43662433192E+03  0.00000000000E+00 0.  1.
          2    1    6    6  503    0 -0.31705677858E+03  0.18805096669E+03 -0.10941588682E+04  0.11545872838E+04  0.00000000000E+00 0. -1.
         -2    1    6    6    0  503 -0.43314640334E+02  0.63930990159E+02 -0.31424093557E+03  0.32359031994E+03  0.00000000000E+00 0.  1.
<mgrwt>
<rscale>  0 0.19036295E+04</rscale>
<asrwt>0</asrwt>
<pdfrwt beam="1">  1        2 0.51855227E+00 0.19036295E+04</pdfrwt>
<pdfrwt beam="2">  1       -1 0.41350963E-01 0.19036295E+04</pdfrwt>
<totfact> 0.61320539E+00</totfact>
</mgrwt>
</event>
<event>
12    6  0.1540825E-007  0.1132835E+04  0.7818608E-02  0.9173767E-01
         -1   -1    0    0    0  501 -0.00000000000E+00  0.00000000000E+00  0.16532486422E+03  0.16532486422E+03  0.00000000000E+00 0.  1.
          2   -1    0    0  501    0  0.00000000000E+00 -0.00000000000E+00 -0.19405947106E+04  0.19405947106E+04  0.00000000000E+00 0. -1.
         24    2    1    2    0    0 -0.15710350507E+03 -0.42858699322E+02 -0.15321302525E+03  0.23808800470E+03  0.81812514098E+02 0.  0.
        254    2    1    2    0    0  0.15710350507E+03  0.42858699322E+02 -0.16220568211E+04  0.18678315701E+04  0.91170612805E+03 0.  0.
         23    2    4    4    0    0  0.34825745706E+02  0.42454998606E+03 -0.45148030703E+03  0.62721681953E+03  0.90060800824E+02 0.  0.
         23    2    4    4    0    0  0.12227775937E+03 -0.38169128673E+03 -0.11705765141E+04  0.12406147506E+04  0.90749629130E+02 0.  0.
          2    1    3    3  502    0 -0.53795950413E+02 -0.75132044227E+01 -0.10604839192E+03  0.11914996413E+03  0.00000000000E+00 0. -1.
         -3    1    3    3    0  502 -0.10330755466E+03 -0.35345494900E+02 -0.47164633327E+02  0.11893804058E+03  0.00000000000E+00 0.  1.
         11    1    5    5    0    0 -0.23568965811E+02  0.58271823652E+02 -0.85787838564E+02  0.10635156241E+03  0.00000000000E+00 0.  1.
        -11    1    5    5    0    0  0.58394711517E+02  0.36627816240E+03 -0.36569246847E+03  0.52086525712E+03  0.00000000000E+00 0. -1.
          2    1    6    6  503    0  0.13568343872E+03 -0.34036250859E+03 -0.10161884566E+04  0.10802294257E+04  0.00000000000E+00 0. -1.
         -2    1    6    6    0  503 -0.13405679349E+02 -0.41328778145E+02 -0.15438805751E+03  0.16038532490E+03  0.00000000000E+00 0.  1.
<mgrwt>
<rscale>  0 0.11328346E+04</rscale>
<asrwt>0</asrwt>
<pdfrwt beam="1">  1        2 0.29855304E+00 0.11328346E+04</pdfrwt>
<pdfrwt beam="2">  1       -1 0.25434594E-01 0.11328346E+04</pdfrwt>
<totfact> 0.11081433E+02</totfact>
</mgrwt>
</event>
<event>
12    6  0.2087451E-007  0.1250784E+04  0.7818608E-02  0.9069531E-01
         -1   -1    0    0    0  501 -0.00000000000E+00  0.00000000000E+00  0.47265577814E+03  0.47265577814E+03  0.00000000000E+00 0.  1.
          2   -1    0    0  501    0  0.00000000000E+00 -0.00000000000E+00 -0.82748390961E+03  0.82748390961E+03  0.00000000000E+00 0. -1.
         24    2    1    2    0    0  0.74989921522E+01 -0.11931964662E+03 -0.38034419860E+03  0.40670251727E+03  0.80323192127E+02 0.  0.
        254    2    1    2    0    0 -0.74989921522E+01  0.11931964662E+03  0.25516067133E+02  0.89343717048E+03  0.88503417728E+03 0.  0.
         23    2    4    4    0    0 -0.25478665664E+03 -0.58818903390E+02  0.34487892793E+03  0.44290203890E+03  0.94046995337E+02 0.  0.
         23    2    4    4    0    0  0.24728766449E+03  0.17813855001E+03 -0.31936286080E+03  0.45053513158E+03  0.90026306864E+02 0.  0.
          4    1    3    3  502    0  0.74131073101E+01 -0.12696234632E+03 -0.37782417929E+03  0.39865461492E+03  0.00000000000E+00 0. -1.
         -3    1    3    3    0  502  0.85884842118E-01  0.76426997031E+01 -0.25200193179E+01  0.80479023553E+01  0.00000000000E+00 0.  1.
         11    1    5    5    0    0 -0.12976150652E+03  0.12889189792E+02  0.12974914272E+03  0.18395385243E+03  0.00000000000E+00 0. -1.
        -11    1    5    5    0    0 -0.12502515012E+03 -0.71708093181E+02  0.21512978521E+03  0.25894818647E+03  0.00000000000E+00 0.  1.
          3    1    6    6  503    0  0.86980742066E+01  0.42214467300E+02 -0.47183102067E+02  0.63905890691E+02  0.00000000000E+00 0. -1.
         -3    1    6    6    0  503  0.23858959028E+03  0.13592408270E+03 -0.27217975873E+03  0.38662924089E+03  0.00000000000E+00 0.  1.
<mgrwt>
<rscale>  0 0.12507838E+04</rscale>
<asrwt>0</asrwt>
<pdfrwt beam="1">  1        2 0.12730522E+00 0.12507838E+04</pdfrwt>
<pdfrwt beam="2">  1       -1 0.72716275E-01 0.12507838E+04</pdfrwt>
<totfact> 0.70500315E+01</totfact>
</mgrwt>
</event>
<event>
12    6  0.1540825E-007  0.1216672E+04  0.7818608E-02  0.9098388E-01
          2   -1    0    0  501    0  0.00000000000E+00  0.00000000000E+00  0.26974740351E+04  0.26974740351E+04  0.00000000000E+00 0. -1.
         -1   -1    0    0    0  501 -0.00000000000E+00 -0.00000000000E+00 -0.13719227239E+03  0.13719227239E+03  0.00000000000E+00 0.  1.
         24    2    1    2    0    0 -0.18856027499E+03  0.13966480701E+03  0.88803313248E+03  0.92196119725E+03  0.79676654170E+02 0.  0.
        254    2    1    2    0    0  0.18856027499E+03 -0.13966480701E+03  0.16722486302E+04  0.19127051102E+04  0.89831181768E+03 0.  0.
         23    2    4    4    0    0  0.52458296720E+02 -0.24296250898E+03  0.16969132504E+04  0.17173896622E+04  0.90166616211E+02 0.  0.
         23    2    4    4    0    0  0.13610197827E+03  0.10329770197E+03 -0.24664620198E+02  0.19531544804E+03  0.91354348721E+02 0.  0.
          4    1    3    3  502    0 -0.57553665436E+02  0.46324494973E+02  0.43473441065E+03  0.44096756234E+03  0.00000000000E+00 0. -1.
         -3    1    3    3    0  502 -0.13100660956E+03  0.93340312036E+02  0.45329872184E+03  0.48099363490E+03  0.00000000000E+00 0.  1.
         11    1    5    5    0    0  0.39345544035E+02 -0.26907415617E+02  0.27643537047E+03  0.28051487465E+03  0.00000000000E+00 0. -1.
        -11    1    5    5    0    0  0.13112752685E+02 -0.21605509337E+03  0.14204778799E+04  0.14368747875E+04  0.00000000000E+00 0.  1.
          1    1    6    6  503    0  0.14485432496E+03  0.83104336079E+02 -0.70897810906E+01  0.16715074374E+03  0.00000000000E+00 0. -1.
         -1    1    6    6    0  503 -0.87523466912E+01  0.20193365895E+02 -0.17574839107E+02  0.28164704302E+02  0.00000000000E+00 0.  1.
<mgrwt>
<rscale>  0 0.12166718E+04</rscale>
<asrwt>0</asrwt>
<pdfrwt beam="1">  1        2 0.41499597E+00 0.12166718E+04</pdfrwt>
<pdfrwt beam="2">  1       -1 0.21106505E-01 0.12166718E+04</pdfrwt>
<totfact> 0.56391870E+01</totfact>
</mgrwt>
</event>
<event>
12    6  0.1540825E-007  0.1539605E+04  0.7818608E-02  0.8858535E-01
          2   -1    0    0  501    0  0.00000000000E+00  0.00000000000E+00  0.12931836872E+04  0.12931836872E+04  0.00000000000E+00 0. -1.
         -1   -1    0    0    0  501 -0.00000000000E+00 -0.00000000000E+00 -0.45824581572E+03  0.45824581572E+03  0.00000000000E+00 0.  1.
         24    2    1    2    0    0 -0.48619521404E+02  0.40990228477E+03 -0.52983397214E+02  0.42376738626E+03  0.79923815958E+02 0.  0.
        254    2    1    2    0    0  0.48619521404E+02 -0.40990228477E+03  0.88792126871E+03  0.13276621167E+04  0.89660402393E+03 0.  0.
         23    2    4    4    0    0 -0.12260568949E+03 -0.28487870888E+03 -0.78680124550E+02  0.33364873293E+03  0.94566807699E+02 0.  0.
         23    2    4    4    0    0  0.17122521089E+03 -0.12502357588E+03  0.96660139326E+03  0.99401338374E+03  0.93783720565E+02 0.  0.
          2    1    3    3  502    0  0.21295681235E+02  0.83355304029E+02 -0.18906202652E+02  0.88085510998E+02  0.00000000000E+00 0. -1.
         -1    1    3    3    0  502 -0.69915202639E+02  0.32654698074E+03 -0.34077194562E+02  0.33568187526E+03  0.00000000000E+00 0.  1.
         11    1    5    5    0    0 -0.67843960371E+01 -0.15879843876E+02 -0.32984968282E+02  0.37231782172E+02  0.00000000000E+00 0. -1.
        -11    1    5    5    0    0 -0.11582129345E+03 -0.26899886501E+03 -0.45695156268E+02  0.29641695076E+03  0.00000000000E+00 0.  1.
          4    1    6    6  503    0 -0.10965247349E+02 -0.10305324842E+02  0.40232447384E+02  0.42954466497E+02  0.00000000000E+00 0. -1.
         -4    1    6    6    0  503  0.18219045824E+03 -0.11471825104E+03  0.92636894587E+03  0.95105891725E+03  0.00000000000E+00 0.  1.
<mgrwt>
<rscale>  0 0.15396052E+04</rscale>
<asrwt>0</asrwt>
<pdfrwt beam="1">  1        2 0.19895133E+00 0.15396052E+04</pdfrwt>
<pdfrwt beam="2">  1       -1 0.70499357E-01 0.15396052E+04</pdfrwt>
<totfact> 0.37254287E+01</totfact>
</mgrwt>
</event>
<event>
12    6  0.1540825E-007  0.1684177E+04  0.7818608E-02  0.8770441E-01
          2   -1    0    0  501    0  0.00000000000E+00  0.00000000000E+00  0.44488495545E+04  0.44488495545E+04  0.00000000000E+00 0. -1.
         -1   -1    0    0    0  501 -0.00000000000E+00 -0.00000000000E+00 -0.15939242157E+03  0.15939242157E+03  0.00000000000E+00 0.  1.
         24    2    1    2    0    0 -0.14247827729E+03 -0.45858978614E+03  0.52591893926E+03  0.71667036923E+03  0.80131367240E+02 0.  0.
        254    2    1    2    0    0  0.14247827729E+03  0.45858978614E+03  0.37635381937E+04  0.38915716069E+04  0.86573967474E+03 0.  0.
         23    2    4    4    0    0 -0.18644475192E+03  0.54222112882E+03  0.29302409501E+04  0.29871371862E+04  0.88944622096E+02 0.  0.
         23    2    4    4    0    0  0.32892302921E+03 -0.83631342685E+02  0.83329724366E+03  0.90443442066E+03  0.91830084220E+02 0.  0.
          2    1    3    3  502    0 -0.22890756248E+01 -0.51752090204E+02  0.29147004797E+02  0.59439604611E+02  0.00000000000E+00 0. -1.
         -1    1    3    3    0  502 -0.14018920166E+03 -0.40683769593E+03  0.49677193446E+03  0.65723076462E+03  0.00000000000E+00 0.  1.
         11    1    5    5    0    0 -0.13492087711E+03  0.42288388883E+03  0.24346190198E+04  0.24747533611E+04  0.00000000000E+00 0.  1.
        -11    1    5    5    0    0 -0.51523874803E+02  0.11933723999E+03  0.49562193024E+03  0.51238382514E+03  0.00000000000E+00 0. -1.
          3    1    6    6  503    0  0.98185914996E+02  0.14726255221E+02  0.27525153500E+03  0.29261022541E+03  0.00000000000E+00 0. -1.
         -3    1    6    6    0  503  0.23073711421E+03 -0.98357597905E+02  0.55804570866E+03  0.61182419525E+03  0.00000000000E+00 0.  1.
<mgrwt>
<rscale>  0 0.16841768E+04</rscale>
<asrwt>0</asrwt>
<pdfrwt beam="1">  1        2 0.68443830E+00 0.16841768E+04</pdfrwt>
<pdfrwt beam="2">  1       -1 0.24521914E-01 0.16841768E+04</pdfrwt>
<totfact> 0.22236779E+00</totfact>
</mgrwt>
</event>
<event>
12    6  0.1540825E-007  0.2270193E+04  0.7818608E-02  0.8489767E-01
         -1   -1    0    0    0  501 -0.00000000000E+00  0.00000000000E+00  0.92452189732E+03  0.92452189732E+03  0.00000000000E+00 0.  1.
          2   -1    0    0  501    0  0.00000000000E+00 -0.00000000000E+00 -0.13936325119E+04  0.13936325119E+04  0.00000000000E+00 0. -1.
         24    2    1    2    0    0 -0.28018484906E+03  0.14795013379E+03 -0.11176858546E+04  0.11645533819E+04  0.81056264183E+02 0.  0.
        254    2    1    2    0    0  0.28018484906E+03 -0.14795013379E+03  0.64857524002E+03  0.11536010273E+04  0.89986259869E+03 0.  0.
         23    2    4    4    0    0  0.25315401180E+01 -0.11790064561E+02  0.79368832496E+03  0.79882033907E+03  0.89595550194E+02 0.  0.
         23    2    4    4    0    0  0.27765330894E+03 -0.13616006923E+03 -0.14511308494E+03  0.35478068825E+03  0.95815473236E+02 0.  0.
          4    1    3    3  502    0 -0.16128801460E+03  0.70446101026E+02 -0.75127097637E+03  0.77161166187E+03  0.00000000000E+00 0. -1.
         -3    1    3    3    0  502 -0.11889683446E+03  0.77504032766E+02 -0.36641487821E+03  0.39294172000E+03  0.00000000000E+00 0.  1.
         11    1    5    5    0    0  0.93222099616E+01 -0.32603458668E+02  0.11795685169E+03  0.12273429829E+03  0.00000000000E+00 0. -1.
        -11    1    5    5    0    0 -0.67906698436E+01  0.20813394107E+02  0.67573147327E+03  0.67608604078E+03  0.00000000000E+00 0.  1.
          3    1    6    6  503    0  0.58158207802E+02 -0.51734524251E+01 -0.63951575330E+02  0.86596453345E+02  0.00000000000E+00 0. -1.
         -3    1    6    6    0  503  0.21949510114E+03 -0.13098661681E+03 -0.81161509611E+02  0.26818423490E+03  0.00000000000E+00 0.  1.
<mgrwt>
<rscale>  0 0.22701927E+04</rscale>
<asrwt>0</asrwt>
<pdfrwt beam="1">  1        2 0.21440500E+00 0.22701927E+04</pdfrwt>
<pdfrwt beam="2">  1       -1 0.14223414E+00 0.22701927E+04</pdfrwt>
<totfact> 0.60762683E+00</totfact>
</mgrwt>
</event>
<event>
12    6  0.1540825E-007  0.1570122E+04  0.7818608E-02  0.8839117E-01
          2   -1    0    0  501    0  0.00000000000E+00  0.00000000000E+00  0.86706807314E+03  0.86706807314E+03  0.00000000000E+00 0. -1.
         -1   -1    0    0    0  501 -0.00000000000E+00 -0.00000000000E+00 -0.71080969680E+03  0.71080969680E+03  0.00000000000E+00 0.  1.
         24    2    1    2    0    0  0.81157197347E+02 -0.31789549133E+03 -0.41649502264E+03  0.53600334935E+03  0.78660361973E+02 0.  0.
        254    2    1    2    0    0 -0.81157197347E+02  0.31789549133E+03  0.57275339897E+03  0.10418744206E+04  0.80610906096E+03 0.  0.
         23    2    4    4    0    0 -0.40759649290E+03  0.28365319901E+03  0.45958256315E+03  0.68273718527E+03  0.91213450012E+02 0.  0.
         23    2    4    4    0    0  0.32643929555E+03  0.34242292321E+02  0.11317083582E+03  0.35913723533E+03  0.91851877789E+02 0.  0.
          2    1    3    3  502    0  0.22708044340E+02 -0.42452050002E+02 -0.26418706211E+02  0.54916116623E+02  0.00000000000E+00 0. -1.
         -1    1    3    3    0  502  0.58449153008E+02 -0.27544344133E+03 -0.39007631642E+03  0.48108723273E+03  0.00000000000E+00 0.  1.
         11    1    5    5    0    0 -0.79961005816E+02  0.60789160978E+02  0.14699252506E+03  0.17803338723E+03  0.00000000000E+00 0. -1.
        -11    1    5    5    0    0 -0.32763548708E+03  0.22286403803E+03  0.31259003809E+03  0.50470379804E+03  0.00000000000E+00 0.  1.
          2    1    6    6  503    0  0.15530408006E+02 -0.14432979743E+02  0.24058734209E+02  0.32067540736E+02  0.00000000000E+00 0. -1.
         -2    1    6    6    0  503  0.31090888755E+03  0.48675272065E+02  0.89112101615E+02  0.32706969459E+03  0.00000000000E+00 0.  1.
<mgrwt>
<rscale>  0 0.15701215E+04</rscale>
<asrwt>0</asrwt>
<pdfrwt beam="1">  1        2 0.13339509E+00 0.15701215E+04</pdfrwt>
<pdfrwt beam="2">  1       -1 0.10935534E+00 0.15701215E+04</pdfrwt>
<totfact> 0.26226072E+01</totfact>
</mgrwt>
</event>
<event>
12    6  0.1540825E-007  0.1854680E+04  0.7818608E-02  0.8677750E-01
          2   -1    0    0  501    0  0.00000000000E+00  0.00000000000E+00  0.38311365343E+04  0.38311365343E+04  0.00000000000E+00 0. -1.
         -1   -1    0    0    0  501 -0.00000000000E+00 -0.00000000000E+00 -0.22446582626E+03  0.22446582626E+03  0.00000000000E+00 0.  1.
         24    2    1    2    0    0  0.69592724408E+03  0.62987517868E+02  0.14019142240E+04  0.15682568751E+04  0.76052471420E+02 0.  0.
        254    2    1    2    0    0 -0.69592724408E+03 -0.62987517868E+02  0.22047564840E+04  0.24873454854E+04  0.91523453474E+03 0.  0.
         23    2    4    4    0    0 -0.26172437713E+01 -0.37231147311E+03  0.83897469601E+03  0.92212759682E+03  0.88419914669E+02 0.  0.
         23    2    4    4    0    0 -0.69331000031E+03  0.30932395524E+03  0.13657817880E+04  0.15652178886E+04  0.90482487354E+02 0.  0.
          4    1    3    3  502    0  0.58381161341E+03  0.24936299140E+02  0.11779457786E+04  0.13149197985E+04  0.00000000000E+00 0. -1.
         -3    1    3    3    0  502  0.11211563067E+03  0.38051218728E+02  0.22396844535E+03  0.25333707664E+03  0.00000000000E+00 0.  1.
         11    1    5    5    0    0  0.37293088780E+02 -0.18659490632E+03  0.47176611915E+03  0.50869608285E+03  0.00000000000E+00 0.  1.
        -11    1    5    5    0    0 -0.39910332551E+02 -0.18571656679E+03  0.36720857686E+03  0.41343151397E+03  0.00000000000E+00 0. -1.
          3    1    6    6  503    0 -0.68140631064E+03  0.30297356310E+03  0.13057837581E+04  0.15037216375E+04  0.00000000000E+00 0. -1.
         -3    1    6    6    0  503 -0.11903689672E+02  0.63503921457E+01  0.59998029938E+02  0.61496251143E+02  0.00000000000E+00 0.  1.
<mgrwt>
<rscale>  0 0.18546797E+04</rscale>
<asrwt>0</asrwt>
<pdfrwt beam="1">  1        2 0.58940557E+00 0.18546797E+04</pdfrwt>
<pdfrwt beam="2">  1       -1 0.34533207E-01 0.18546797E+04</pdfrwt>
<totfact> 0.39986847E+00</totfact>
</mgrwt>
</event>
<event>
12    6  0.1540825E-007  0.3069092E+04  0.7818608E-02  0.8224272E-01
         -1   -1    0    0    0  501 -0.00000000000E+00  0.00000000000E+00  0.76300360363E+03  0.76300360363E+03  0.00000000000E+00 0.  1.
          2   -1    0    0  501    0  0.00000000000E+00 -0.00000000000E+00 -0.30862643908E+04  0.30862643908E+04  0.00000000000E+00 0. -1.
         24    2    1    2    0    0  0.12023367337E+04  0.11540434119E+03 -0.17047322767E+03  0.12224889785E+04  0.80538178179E+02 0.  0.
        254    2    1    2    0    0 -0.12023367337E+04 -0.11540434119E+03 -0.21527875595E+04  0.26267790159E+04  0.89807680004E+03 0.  0.
         23    2    4    4    0    0 -0.91219325876E+03 -0.66847431638E+01 -0.21109905173E+04  0.23014702365E+04  0.91340343846E+02 0.  0.
         23    2    4    4    0    0 -0.29014347494E+03 -0.10871959802E+03 -0.41797042242E+02  0.32530877938E+03  0.89864465506E+02 0.  0.
          4    1    3    3  502    0  0.12471811935E+02 -0.70505667537E+01 -0.62150889945E+00  0.14340253060E+02  0.00000000000E+00 0. -1.
         -3    1    3    3    0  502  0.11898649218E+04  0.12245490794E+03 -0.16985171877E+03  0.12081487255E+04  0.00000000000E+00 0.  1.
         11    1    5    5    0    0 -0.33204395811E+03  0.18805170514E+02 -0.86753422062E+03  0.92909765283E+03  0.00000000000E+00 0.  1.
        -11    1    5    5    0    0 -0.58014930065E+03 -0.25489913678E+02 -0.12434562967E+04  0.13723725837E+04  0.00000000000E+00 0. -1.
          1    1    6    6  503    0 -0.21372317262E+03 -0.11067661123E+03 -0.56456860472E+01  0.24074629916E+03  0.00000000000E+00 0. -1.
         -1    1    6    6    0  503 -0.76420302316E+02  0.19570132059E+01 -0.36151356195E+02  0.84562480223E+02  0.00000000000E+00 0.  1.
<mgrwt>
<rscale>  0 0.30690916E+04</rscale>
<asrwt>0</asrwt>
<pdfrwt beam="1">  1        2 0.47480990E+00 0.30690916E+04</pdfrwt>
<pdfrwt beam="2">  1       -1 0.11738517E+00 0.30690916E+04</pdfrwt>
<totfact> 0.96926670E-01</totfact>
</mgrwt>
</event>
<event>
12    6  0.1540825E-007  0.1675923E+04  0.7818608E-02  0.8775217E-01
          2   -1    0    0  501    0  0.00000000000E+00  0.00000000000E+00  0.14975566132E+04  0.14975566132E+04  0.00000000000E+00 0. -1.
         -1   -1    0    0    0  501 -0.00000000000E+00 -0.00000000000E+00 -0.46888355455E+03  0.46888355455E+03  0.00000000000E+00 0.  1.
         24    2    1    2    0    0 -0.47582166662E+03  0.13464065144E+03  0.75416220495E+03  0.90524230417E+03  0.78540654694E+02 0.  0.
        254    2    1    2    0    0  0.47582166662E+03 -0.13464065144E+03  0.27451085373E+03  0.10611978636E+04  0.89791443549E+03 0.  0.
         23    2    4    4    0    0 -0.20368730458E+02  0.27179691558E+03  0.29722783582E+03  0.41375054022E+03  0.92502295349E+02 0.  0.
         23    2    4    4    0    0  0.49619039708E+03 -0.40643756703E+03 -0.22716982086E+02  0.64744732339E+03  0.85296947450E+02 0.  0.
          4    1    3    3  502    0 -0.26970240010E+03  0.54824884394E+02  0.35766266051E+03  0.45129561409E+03  0.00000000000E+00 0. -1.
         -3    1    3    3    0  502 -0.20611926653E+03  0.79815767050E+02  0.39649954444E+03  0.45394669009E+03  0.00000000000E+00 0.  1.
         11    1    5    5    0    0  0.35126043798E+02  0.14073763779E+03  0.13847003751E+03  0.20053646285E+03  0.00000000000E+00 0.  1.
        -11    1    5    5    0    0 -0.55494774256E+02  0.13105927780E+03  0.15875779831E+03  0.21321407737E+03  0.00000000000E+00 0. -1.
          4    1    6    6  503    0  0.18796750303E+03 -0.11152526444E+03 -0.31198404223E+02  0.22077818558E+03  0.00000000000E+00 0. -1.
         -4    1    6    6    0  503  0.30822289405E+03 -0.29491230259E+03  0.84814221367E+01  0.42666913781E+03  0.00000000000E+00 0.  1.
<mgrwt>
<rscale>  0 0.16759232E+04</rscale>
<asrwt>0</asrwt>
<pdfrwt beam="1">  1        2 0.23039332E+00 0.16759232E+04</pdfrwt>
<pdfrwt beam="2">  1       -1 0.72135932E-01 0.16759232E+04</pdfrwt>
<totfact> 0.26823838E+01</totfact>
</mgrwt>
</event>
<event>
12    6  0.1540825E-007  0.1390868E+04  0.7818608E-02  0.8960455E-01
          4   -1    0    0  501    0  0.00000000000E+00  0.00000000000E+00  0.40059536853E+03  0.40059536853E+03  0.00000000000E+00 0. -1.
         -3   -1    0    0    0  501 -0.00000000000E+00 -0.00000000000E+00 -0.12072739785E+04  0.12072739785E+04  0.00000000000E+00 0.  1.
         24    2    1    2    0    0 -0.31966606682E+03 -0.33179073497E+02  0.31237693606E+02  0.33272162806E+03  0.80253617257E+02 0.  0.
        254    2    1    2    0    0  0.31966606682E+03  0.33179073497E+02 -0.83791630353E+03  0.12751477189E+04  0.90587566926E+03 0.  0.
         23    2    4    4    0    0  0.25607229245E+03  0.38611814451E+03 -0.76326829987E+03  0.89752602717E+03  0.91182407176E+02 0.  0.
         23    2    4    4    0    0  0.63593774364E+02 -0.35293907101E+03 -0.74648003659E+02  0.37762169175E+03  0.91736915404E+02 0.  0.
          4    1    3    3  502    0 -0.18247220787E+03 -0.55550785326E+02  0.33695116817E+02  0.19369397846E+03  0.00000000000E+00 0. -1.
         -3    1    3    3    0  502 -0.13719385895E+03  0.22371711829E+02 -0.24574232113E+01  0.13902764960E+03  0.00000000000E+00 0.  1.
         11    1    5    5    0    0  0.47057126765E+02  0.13827682921E+03 -0.27574525172E+03  0.31204214222E+03  0.00000000000E+00 0. -1.
        -11    1    5    5    0    0  0.20901516569E+03  0.24784131530E+03 -0.48752304815E+03  0.58548388495E+03  0.00000000000E+00 0.  1.
          1    1    6    6  503    0  0.49056423297E+01 -0.20647653060E+01  0.10547109638E+02  0.11813979183E+02  0.00000000000E+00 0. -1.
         -1    1    6    6    0  503  0.58688132035E+02 -0.35087430570E+03 -0.85195113297E+02  0.36580771257E+03  0.00000000000E+00 0.  1.
<mgrwt>
<rscale>  0 0.13908679E+04</rscale>
<asrwt>0</asrwt>
<pdfrwt beam="1">  1        4 0.61630057E-01 0.13908679E+04</pdfrwt>
<pdfrwt beam="2">  1       -3 0.18573446E+00 0.13908679E+04</pdfrwt>
<totfact> 0.99907696E-01</totfact>
</mgrwt>
</event>
<event>
12    6  0.1540825E-007  0.1641807E+04  0.7818608E-02  0.8795268E-01
         -1   -1    0    0    0  501 -0.00000000000E+00  0.00000000000E+00  0.97718005680E+03  0.97718005680E+03  0.00000000000E+00 0.  1.
          2   -1    0    0  501    0  0.00000000000E+00 -0.00000000000E+00 -0.68961995083E+03  0.68961995083E+03  0.00000000000E+00 0. -1.
         24    2    1    2    0    0 -0.48595273082E+03 -0.81942507927E+02  0.42025639385E+03  0.65220409058E+03  0.76747039080E+02 0.  0.
        254    2    1    2    0    0  0.48595273082E+03  0.81942507927E+02 -0.13269628788E+03  0.10145959170E+04  0.87688764324E+03 0.  0.
         23    2    4    4    0    0  0.25739159104E+03 -0.14268620000E+03  0.32537908855E+03  0.44817862053E+03  0.91557314432E+02 0.  0.
         23    2    4    4    0    0  0.22856113978E+03  0.22462870793E+03 -0.45807537643E+03  0.56641729651E+03  0.91089254289E+02 0.  0.
          2    1    3    3  502    0 -0.22440033047E+03 -0.58007089699E+02  0.24003762628E+03  0.33367408170E+03  0.00000000000E+00 0. -1.
         -1    1    3    3    0  502 -0.26155240035E+03 -0.23935418228E+02  0.18021876757E+03  0.31853000888E+03  0.00000000000E+00 0.  1.
         11    1    5    5    0    0  0.25650371819E+03 -0.13168560906E+03  0.28160340241E+03  0.40303316654E+03  0.00000000000E+00 0. -1.
        -11    1    5    5    0    0  0.88787284891E+00 -0.11000590941E+02  0.43775686143E+02  0.45145453996E+02  0.00000000000E+00 0.  1.
          2    1    6    6  503    0  0.79677053341E+02  0.11686884969E+03 -0.13971391335E+03  0.19881332561E+03  0.00000000000E+00 0. -1.
         -2    1    6    6    0  503  0.14888408644E+03  0.10775985824E+03 -0.31836146309E+03  0.36760397090E+03  0.00000000000E+00 0.  1.
<mgrwt>
<rscale>  0 0.16418074E+04</rscale>
<asrwt>0</asrwt>
<pdfrwt beam="1">  1        2 0.10609538E+00 0.16418074E+04</pdfrwt>
<pdfrwt beam="2">  1       -1 0.15033539E+00 0.16418074E+04</pdfrwt>
<totfact> 0.15809303E+01</totfact>
</mgrwt>
</event>
<event>
12    6  0.1540825E-007  0.2136687E+04  0.7818608E-02  0.8545253E-01
         -1   -1    0    0    0  501 -0.00000000000E+00  0.00000000000E+00  0.32435063743E+03  0.32435063743E+03  0.00000000000E+00 0.  1.
          2   -1    0    0  501    0  0.00000000000E+00 -0.00000000000E+00 -0.35189001141E+04  0.35189001141E+04  0.00000000000E+00 0. -1.
         24    2    1    2    0    0  0.35591624351E+03  0.54937345719E+03 -0.26630891547E+03  0.71120192399E+03  0.80001064861E+02 0.  0.
        254    2    1    2    0    0 -0.35591624351E+03 -0.54937345719E+03 -0.29282405612E+04  0.31320488276E+04  0.89813668555E+03 0.  0.
         23    2    4    4    0    0  0.90680405371E+02  0.17676862055E+03 -0.97091921013E+03  0.99538646963E+03  0.92951762733E+02 0.  0.
         23    2    4    4    0    0 -0.44659664888E+03 -0.72614207774E+03 -0.19573213511E+04  0.21366623579E+04  0.86534828014E+02 0.  0.
          4    1    3    3  502    0  0.15222707754E+02  0.24082395778E+02 -0.31615770968E+02  0.42558778080E+02  0.00000000000E+00 0. -1.
         -3    1    3    3    0  502  0.34069353575E+03  0.52529106141E+03 -0.23469314450E+03  0.66864314591E+03  0.00000000000E+00 0.  1.
         11    1    5    5    0    0  0.77645811948E+02  0.58785090127E+02 -0.35403227377E+03  0.36718307396E+03  0.00000000000E+00 0. -1.
        -11    1    5    5    0    0  0.13034593423E+02  0.11798353042E+03 -0.61688693636E+03  0.62820339567E+03  0.00000000000E+00 0.  1.
          2    1    6    6  503    0 -0.28870328679E+03 -0.40707562054E+03 -0.12101380072E+04  0.13090050210E+04  0.00000000000E+00 0. -1.
         -2    1    6    6    0  503 -0.15789336209E+03 -0.31906645720E+03 -0.74718334395E+03  0.82765733693E+03  0.00000000000E+00 0.  1.
<mgrwt>
<rscale>  0 0.21366867E+04</rscale>
<asrwt>0</asrwt>
<pdfrwt beam="1">  1        2 0.54136927E+00 0.21366867E+04</pdfrwt>
<pdfrwt beam="2">  1       -1 0.49900096E-01 0.21366867E+04</pdfrwt>
<totfact> 0.33360282E+00</totfact>
</mgrwt>
</event>
<event>
12    6  0.1540825E-007  0.1273947E+04  0.7818608E-02  0.9050485E-01
          2   -1    0    0  501    0  0.00000000000E+00  0.00000000000E+00  0.91685729859E+03  0.91685729859E+03  0.00000000000E+00 0. -1.
         -1   -1    0    0    0  501 -0.00000000000E+00 -0.00000000000E+00 -0.44252805146E+03  0.44252805146E+03  0.00000000000E+00 0.  1.
         24    2    1    2    0    0 -0.23399086584E+02  0.18459102214E+03  0.39683078472E+03  0.44546186033E+03  0.79625590075E+02 0.  0.
        254    2    1    2    0    0  0.23399086584E+02 -0.18459102214E+03  0.77498462403E+02  0.91392348972E+03  0.89141952564E+03 0.  0.
         23    2    4    4    0    0 -0.36375311149E+03 -0.28725135674E+03 -0.68971327856E+02  0.47760882780E+03  0.92322696350E+02 0.  0.
         23    2    4    4    0    0  0.38715219807E+03  0.10266033460E+03  0.14646979026E+03  0.43631466192E+03  0.92147251590E+02 0.  0.
          2    1    3    3  502    0 -0.17441687184E+02  0.18974242756E+03  0.35507472823E+03  0.40296955703E+03  0.00000000000E+00 0. -1.
         -1    1    3    3    0  502 -0.59573994001E+01 -0.51514054181E+01  0.41756056498E+02  0.42492303299E+02  0.00000000000E+00 0.  1.
         11    1    5    5    0    0 -0.15277678182E+03 -0.95014581113E+02 -0.67570383856E+02  0.19218291407E+03  0.00000000000E+00 0. -1.
        -11    1    5    5    0    0 -0.21097632967E+03 -0.19223677562E+03 -0.14009440007E+01  0.28542591373E+03  0.00000000000E+00 0.  1.
          3    1    6    6  503    0  0.20977700122E+03  0.82461084149E+01  0.80073400346E+02  0.22469120586E+03  0.00000000000E+00 0. -1.
         -3    1    6    6    0  503  0.17737519685E+03  0.94414226181E+02  0.66396389914E+02  0.21162345606E+03  0.00000000000E+00 0.  1.
<mgrwt>
<rscale>  0 0.12739467E+04</rscale>
<asrwt>0</asrwt>
<pdfrwt beam="1">  1        2 0.14105497E+00 0.12739467E+04</pdfrwt>
<pdfrwt beam="2">  1       -1 0.68081239E-01 0.12739467E+04</pdfrwt>
<totfact> 0.69921588E+01</totfact>
</mgrwt>
</event>
<event>
12    6  0.1540825E-007  0.1301993E+04  0.7818608E-02  0.9027986E-01
         -1   -1    0    0    0  501 -0.00000000000E+00  0.00000000000E+00  0.96892621629E+02  0.96892621629E+02  0.00000000000E+00 0.  1.
          2   -1    0    0  501    0  0.00000000000E+00 -0.00000000000E+00 -0.43738782406E+04  0.43738782406E+04  0.00000000000E+00 0. -1.
         24    2    1    2    0    0  0.10559117119E+03 -0.26311835498E+03 -0.16993326503E+04  0.17249376479E+04  0.85426392204E+02 0.  0.
        254    2    1    2    0    0 -0.10559117119E+03  0.26311835498E+03 -0.25776529687E+04  0.27458332144E+04  0.90273166005E+03 0.  0.
         23    2    4    4    0    0  0.25791477583E+03  0.39639517884E+03 -0.88966819343E+03  0.10118856797E+04  0.93562626154E+02 0.  0.
         23    2    4    4    0    0 -0.36350594702E+03 -0.13327682387E+03 -0.16879847753E+04  0.17339475347E+04  0.85919533135E+02 0.  0.
          4    1    3    3  502    0  0.94044322289E+02 -0.19218842645E+03 -0.14408902749E+04  0.14566899155E+04  0.00000000000E+00 0. -1.
         -3    1    3    3    0  502  0.11546848903E+02 -0.70929928523E+02 -0.25844237543E+03  0.26824773233E+03  0.00000000000E+00 0.  1.
         11    1    5    5    0    0  0.14236820558E+03  0.16775992834E+03 -0.49044994065E+03  0.53754371338E+03  0.00000000000E+00 0. -1.
        -11    1    5    5    0    0  0.11554657025E+03  0.22863525051E+03 -0.39921825278E+03  0.47434196633E+03  0.00000000000E+00 0.  1.
          3    1    6    6  503    0 -0.19830047858E+03 -0.78031855899E+02 -0.73920711923E+03  0.76931087050E+03  0.00000000000E+00 0. -1.
         -3    1    6    6    0  503 -0.16520546844E+03 -0.55244967970E+02 -0.94877765602E+03  0.96463666416E+03  0.00000000000E+00 0.  1.
<mgrwt>
<rscale>  0 0.13019931E+04</rscale>
<asrwt>0</asrwt>
<pdfrwt beam="1">  1        2 0.67290433E+00 0.13019931E+04</pdfrwt>
<pdfrwt beam="2">  1       -1 0.14906558E-01 0.13019931E+04</pdfrwt>
<totfact> 0.62979142E+00</totfact>
</mgrwt>
</event>
<event>
12    6  0.1540825E-007  0.1775424E+04  0.7818608E-02  0.8719479E-01
         -1   -1    0    0    0  501 -0.00000000000E+00  0.00000000000E+00  0.20879921918E+03  0.20879921918E+03  0.00000000000E+00 0.  1.
          2   -1    0    0  501    0  0.00000000000E+00 -0.00000000000E+00 -0.37741168146E+04  0.37741168146E+04  0.00000000000E+00 0. -1.
         24    2    1    2    0    0  0.50100962667E+03  0.32353269468E+03 -0.19102463415E+04  0.20031156793E+04  0.88018684070E+02 0.  0.
        254    2    1    2    0    0 -0.50100962667E+03 -0.32353269468E+03 -0.16550712538E+04  0.19798003544E+04  0.90811042149E+03 0.  0.
         23    2    4    4    0    0 -0.61371488681E+03 -0.68032061243E+02 -0.15445786475E+04  0.16659269325E+04  0.91186744180E+02 0.  0.
         23    2    4    4    0    0  0.11270526014E+03 -0.25550063344E+03 -0.11049260633E+03  0.31387342198E+03  0.91240668669E+02 0.  0.
          4    1    3    3  502    0  0.49459042374E+03  0.30431328798E+03 -0.18111978313E+04  0.19020157331E+04  0.00000000000E+00 0. -1.
         -3    1    3    3    0  502  0.64192029334E+01  0.19219406704E+02 -0.99048510192E+02  0.10109994625E+03  0.00000000000E+00 0.  1.
         11    1    5    5    0    0 -0.33019036308E+03  0.33485205796E+01 -0.87832254203E+03  0.93834288845E+03  0.00000000000E+00 0.  1.
        -11    1    5    5    0    0 -0.28352452373E+03 -0.71380581823E+02 -0.66625610547E+03  0.72758404401E+03  0.00000000000E+00 0. -1.
          1    1    6    6  503    0  0.11822768459E+03 -0.16842148422E+03 -0.87748287541E+02  0.22370369625E+03  0.00000000000E+00 0. -1.
         -1    1    6    6    0  503 -0.55224244468E+01 -0.87079149220E+02 -0.22744318790E+02  0.90169725728E+02  0.00000000000E+00 0.  1.
<mgrwt>
<rscale>  0 0.17754241E+04</rscale>
<asrwt>0</asrwt>
<pdfrwt beam="1">  1        2 0.58063336E+00 0.17754241E+04</pdfrwt>
<pdfrwt beam="2">  1       -1 0.32122957E-01 0.17754241E+04</pdfrwt>
<totfact> 0.50643441E+00</totfact>
</mgrwt>
</event>
<event>
12    6  0.1540825E-007  0.1361278E+04  0.7818608E-02  0.8982334E-01
         -1   -1    0    0    0  501 -0.00000000000E+00  0.00000000000E+00  0.24341342307E+03  0.24341342307E+03  0.00000000000E+00 0.  1.
          2   -1    0    0  501    0  0.00000000000E+00 -0.00000000000E+00 -0.19032212178E+04  0.19032212178E+04  0.00000000000E+00 0. -1.
         24    2    1    2    0    0  0.21804745897E+03 -0.16411484062E+03 -0.89279299454E+03  0.93716558797E+03  0.81985565158E+02 0.  0.
        254    2    1    2    0    0 -0.21804745897E+03  0.16411484062E+03 -0.76701480019E+03  0.12094690529E+04  0.89444134013E+03 0.  0.
         23    2    4    4    0    0 -0.83197209385E+02 -0.27940518876E+03  0.25942650425E+01  0.30659762565E+03  0.94901731716E+02 0.  0.
         23    2    4    4    0    0 -0.13485024958E+03  0.44352002938E+03 -0.76960906523E+03  0.90287142725E+03  0.89353760891E+02 0.  0.
          2    1    3    3  502    0  0.16061451890E+03 -0.14060800300E+03 -0.77702564657E+03  0.80581417809E+03  0.00000000000E+00 0. -1.
         -3    1    3    3    0  502  0.57432940067E+02 -0.23506837620E+02 -0.11576734798E+03  0.13135140988E+03  0.00000000000E+00 0.  1.
         11    1    5    5    0    0 -0.42968829337E+02 -0.55899171083E+02  0.32324617523E+02  0.77562352468E+02  0.00000000000E+00 0.  1.
        -11    1    5    5    0    0 -0.40228380048E+02 -0.22350601768E+03 -0.29730352480E+02  0.22903527318E+03  0.00000000000E+00 0. -1.
          4    1    6    6  503    0 -0.77416152053E+02  0.12999048976E+03 -0.28826745112E+03  0.32555938230E+03  0.00000000000E+00 0.  1.
         -4    1    6    6    0  503 -0.57434097531E+02  0.31352953962E+03 -0.48134161412E+03  0.57731204496E+03  0.00000000000E+00 0. -1.
<mgrwt>
<rscale>  0 0.13612782E+04</rscale>
<asrwt>0</asrwt>
<pdfrwt beam="1">  1        2 0.29280328E+00 0.13612782E+04</pdfrwt>
<pdfrwt beam="2">  1       -1 0.37448217E-01 0.13612782E+04</pdfrwt>
<totfact> 0.57772200E+01</totfact>
</mgrwt>
</event>
<event>
12    6  0.1540825E-007  0.1874980E+04  0.7818608E-02  0.8667412E-01
          2   -1    0    0  501    0  0.00000000000E+00  0.00000000000E+00  0.30538132911E+04  0.30538132911E+04  0.00000000000E+00 0. -1.
         -1   -1    0    0    0  501 -0.00000000000E+00 -0.00000000000E+00 -0.28779993909E+03  0.28779993909E+03  0.00000000000E+00 0.  1.
         24    2    1    2    0    0  0.51007842369E+03 -0.44572754340E+03  0.94941325964E+03  0.11689762772E+04  0.79164118949E+02 0.  0.
        254    2    1    2    0    0 -0.51007842369E+03  0.44572754340E+03  0.18166000923E+04  0.21726369530E+04  0.98054188732E+03 0.  0.
         23    2    4    4    0    0  0.12671934560E+02  0.41300857092E+03  0.19424010772E+03  0.46540203710E+03  0.90184140014E+02 0.  0.
         23    2    4    4    0    0 -0.52275035825E+03  0.32718972477E+02  0.16223599846E+04  0.17072349159E+04  0.90888228798E+02 0.  0.
          2    1    3    3  502    0  0.72267688543E+02 -0.91203667182E+02  0.20069044122E+03  0.23198573428E+03  0.00000000000E+00 0. -1.
         -1    1    3    3    0  502  0.43781073515E+03 -0.35452387622E+03  0.74872281842E+03  0.93699054288E+03  0.00000000000E+00 0.  1.
         11    1    5    5    0    0 -0.33352575881E+02  0.27777269005E+03  0.12012130301E+03  0.30446541526E+03  0.00000000000E+00 0. -1.
        -11    1    5    5    0    0  0.46024510442E+02  0.13523588088E+03  0.74118804704E+02  0.16093662184E+03  0.00000000000E+00 0.  1.
          1    1    6    6  503    0 -0.32514150845E+03  0.23944071207E+02  0.11451345913E+04  0.11906399755E+04  0.00000000000E+00 0. -1.
         -1    1    6    6    0  503 -0.19760884981E+03  0.87749012694E+01  0.47722539336E+03  0.51659494043E+03  0.00000000000E+00 0.  1.
<mgrwt>
<rscale>  0 0.18749798E+04</rscale>
<asrwt>0</asrwt>
<pdfrwt beam="1">  1        2 0.46981741E+00 0.18749798E+04</pdfrwt>
<pdfrwt beam="2">  1       -1 0.44276916E-01 0.18749798E+04</pdfrwt>
<totfact> 0.87149017E+00</totfact>
</mgrwt>
</event>
<event>
12    6  0.1540825E-007  0.1409754E+04  0.7818608E-02  0.8946788E-01
         -1   -1    0    0    0  501 -0.00000000000E+00  0.00000000000E+00  0.86553511436E+03  0.86553511436E+03  0.00000000000E+00 0.  1.
          2   -1    0    0  501    0  0.00000000000E+00 -0.00000000000E+00 -0.57403950342E+03  0.57403950342E+03  0.00000000000E+00 0. -1.
         24    2    1    2    0    0 -0.39310228761E+03 -0.48367181987E+02 -0.24743505460E+02  0.40491685268E+03  0.80477473293E+02 0.  0.
        254    2    1    2    0    0  0.39310228761E+03  0.48367181987E+02  0.31623911640E+03  0.10346577651E+04  0.90202035416E+03 0.  0.
         23    2    4    4    0    0  0.51479303039E+02 -0.16974557080E+03 -0.25886209996E+03  0.32544222176E+03  0.86251814244E+02 0.  0.
         23    2    4    4    0    0  0.34162298457E+03  0.21811275279E+03  0.57510121636E+03  0.70921554334E+03  0.89251562161E+02 0.  0.
          2    1    3    3  502    0 -0.38731790200E+03 -0.56975313239E+02 -0.16787887808E+02  0.39184585835E+03  0.00000000000E+00 0. -1.
         -1    1    3    3    0  502 -0.57843856010E+01  0.86081312525E+01 -0.79556176523E+01  0.13070994326E+02  0.00000000000E+00 0.  1.
         11    1    5    5    0    0 -0.71137965620E+01 -0.10869288912E+03 -0.11398029934E+03  0.15765867843E+03  0.00000000000E+00 0.  1.
        -11    1    5    5    0    0  0.58593099601E+02 -0.61052681681E+02 -0.14488180062E+03  0.16778354333E+03  0.00000000000E+00 0. -1.
          3    1    6    6  503    0  0.32749073458E+03  0.20723789223E+03  0.57228250949E+03  0.69116206195E+03  0.00000000000E+00 0. -1.
         -3    1    6    6    0  503  0.14132249985E+02  0.10874860562E+02  0.28187068651E+01  0.18053481389E+02  0.00000000000E+00 0.  1.
<mgrwt>
<rscale>  0 0.14097537E+04</rscale>
<asrwt>0</asrwt>
<pdfrwt beam="1">  1        2 0.88313770E-01 0.14097537E+04</pdfrwt>
<pdfrwt beam="2">  1       -1 0.13315925E+00 0.14097537E+04</pdfrwt>
<totfact> 0.27752356E+01</totfact>
</mgrwt>
</event>
<event>
12    6  0.1540825E-007  0.1360443E+04  0.7818608E-02  0.8982961E-01
         -1   -1    0    0    0  501 -0.00000000000E+00  0.00000000000E+00  0.15045402190E+03  0.15045402190E+03  0.00000000000E+00 0.  1.
          2   -1    0    0  501    0  0.00000000000E+00 -0.00000000000E+00 -0.30753646377E+04  0.30753646377E+04  0.00000000000E+00 0. -1.
         24    2    1    2    0    0 -0.26956317301E+03  0.17854010199E+03 -0.14011824304E+04  0.14401911163E+04  0.79356006840E+02 0.  0.
        254    2    1    2    0    0  0.26956317301E+03 -0.17854010199E+03 -0.15237281854E+04  0.17856275434E+04  0.87302764464E+03 0.  0.
         23    2    4    4    0    0  0.53967994703E+03 -0.20223767399E+03 -0.68488318538E+03  0.89964531787E+03  0.90234130762E+02 0.  0.
         23    2    4    4    0    0 -0.27011677402E+03  0.23697571994E+02 -0.83884500004E+03  0.88598222549E+03  0.88198204375E+02 0.  0.
          4    1    3    3  502    0 -0.21205276798E+03  0.17026670366E+03 -0.12190444782E+04  0.12490102348E+04  0.00000000000E+00 0. -1.
         -3    1    3    3    0  502 -0.57510405029E+02  0.82733983360E+01 -0.18213795221E+03  0.19118088147E+03  0.00000000000E+00 0.  1.
         11    1    5    5    0    0  0.10474989288E+03 -0.31358572419E+01 -0.11383574975E+03  0.15472863852E+03  0.00000000000E+00 0. -1.
        -11    1    5    5    0    0  0.43493005415E+03 -0.19910181675E+03 -0.57104743563E+03  0.74491667935E+03  0.00000000000E+00 0.  1.
          4    1    6    6  503    0 -0.22606045695E+03 -0.61688325651E+01 -0.59814480905E+03  0.63946743255E+03  0.00000000000E+00 0.  1.
         -4    1    6    6    0  503 -0.44056317070E+02  0.29866404559E+02 -0.24070019099E+03  0.24651479294E+03  0.00000000000E+00 0. -1.
<mgrwt>
<rscale>  0 0.13604425E+04</rscale>
<asrwt>0</asrwt>
<pdfrwt beam="1">  1        2 0.47313305E+00 0.13604425E+04</pdfrwt>
<pdfrwt beam="2">  1       -1 0.23146771E-01 0.13604425E+04</pdfrwt>
<totfact> 0.28025231E+01</totfact>
</mgrwt>
</event>
<event>
12    6  0.1540825E-007  0.1623597E+04  0.7818608E-02  0.8806181E-01
         -1   -1    0    0    0  501 -0.00000000000E+00  0.00000000000E+00  0.24789961984E+03  0.24789961984E+03  0.00000000000E+00 0.  1.
          2   -1    0    0  501    0  0.00000000000E+00 -0.00000000000E+00 -0.26584029122E+04  0.26584029122E+04  0.00000000000E+00 0. -1.
         24    2    1    2    0    0  0.86734230432E+02 -0.27979927618E+03 -0.16796287871E+04  0.17068309279E+04  0.79426017750E+02 0.  0.
        254    2    1    2    0    0 -0.86734230432E+02  0.27979927618E+03 -0.73087450533E+03  0.11994716042E+04  0.90484480719E+03 0.  0.
         23    2    4    4    0    0  0.38251566045E+03  0.11737536893E+03 -0.49303573876E+03  0.64149165454E+03  0.91280312386E+02 0.  0.
         23    2    4    4    0    0 -0.46924989088E+03  0.16242390725E+03 -0.23783876657E+03  0.55797994967E+03  0.90539271106E+02 0.  0.
          4    1    3    3  502    0  0.57010766194E+02 -0.20418192810E+03 -0.13879904701E+04  0.14040861912E+04  0.00000000000E+00 0. -1.
         -3    1    3    3    0  502  0.29723464238E+02 -0.75617348074E+02 -0.29163831696E+03  0.30274473666E+03  0.00000000000E+00 0.  1.
         11    1    5    5    0    0  0.14090764590E+03  0.40113180195E+02 -0.11505087830E+03  0.18628133695E+03  0.00000000000E+00 0. -1.
        -11    1    5    5    0    0  0.24160801455E+03  0.77262188730E+02 -0.37798486046E+03  0.45521031759E+03  0.00000000000E+00 0.  1.
          1    1    6    6  503    0 -0.11957032175E+03  0.14668002066E+02 -0.90920928559E+02  0.15092656286E+03  0.00000000000E+00 0. -1.
         -1    1    6    6    0  503 -0.34967956913E+03  0.14775590518E+03 -0.14691783801E+03  0.40705338681E+03  0.00000000000E+00 0.  1.
<mgrwt>
<rscale>  0 0.16235973E+04</rscale>
<asrwt>0</asrwt>
<pdfrwt beam="1">  1        2 0.40898503E+00 0.16235973E+04</pdfrwt>
<pdfrwt beam="2">  1       -1 0.38138406E-01 0.16235973E+04</pdfrwt>
<totfact> 0.20420193E+01</totfact>
</mgrwt>
</event>
<event>
12    6  0.1540825E-007  0.2084880E+04  0.7818608E-02  0.8567933E-01
         -1   -1    0    0    0  501 -0.00000000000E+00  0.00000000000E+00  0.60050082153E+03  0.60050082153E+03  0.00000000000E+00 0.  1.
          2   -1    0    0  501    0  0.00000000000E+00 -0.00000000000E+00 -0.18096238977E+04  0.18096238977E+04  0.00000000000E+00 0. -1.
         24    2    1    2    0    0  0.19018438956E+02 -0.82524558888E+03 -0.71512112805E+03  0.10949367753E+04  0.78079005443E+02 0.  0.
        254    2    1    2    0    0 -0.19018438956E+02  0.82524558888E+03 -0.49400194811E+03  0.13151879439E+04  0.89682184417E+03 0.  0.
         23    2    4    4    0    0  0.39888844813E+03  0.54760222098E+03 -0.41284220398E+03  0.79859245333E+03  0.91274501674E+02 0.  0.
         23    2    4    4    0    0 -0.41790688709E+03  0.27764336790E+03 -0.81159744128E+02  0.51659549061E+03  0.92476974649E+02 0.  0.
          2    1    3    3  502    0  0.63999753244E+01 -0.60324394132E+03 -0.47642641571E+03  0.76871733558E+03  0.00000000000E+00 0. -1.
         -1    1    3    3    0  502  0.12618463631E+02 -0.22200164755E+03 -0.23869471234E+03  0.32621943970E+03  0.00000000000E+00 0.  1.
         11    1    5    5    0    0  0.15843889785E+03  0.18821302344E+03 -0.10340134734E+03  0.26686862906E+03  0.00000000000E+00 0. -1.
        -11    1    5    5    0    0  0.24044955028E+03  0.35938919754E+03 -0.30944085664E+03  0.53172382427E+03  0.00000000000E+00 0.  1.
          3    1    6    6  503    0 -0.30201350597E+02 -0.35995665481E+01 -0.11821546924E+02  0.32631693626E+02  0.00000000000E+00 0. -1.
         -3    1    6    6    0  503 -0.38770553649E+03  0.28124293444E+03 -0.69338197204E+02  0.48396379698E+03  0.00000000000E+00 0.  1.
<mgrwt>
<rscale>  0 0.20848795E+04</rscale>
<asrwt>0</asrwt>
<pdfrwt beam="1">  1        2 0.27840368E+00 0.20848795E+04</pdfrwt>
<pdfrwt beam="2">  1       -1 0.92384742E-01 0.20848795E+04</pdfrwt>
<totfact> 0.10206520E+01</totfact>
</mgrwt>
</event>
<event>
12    6  0.1540825E-007  0.1526511E+04  0.7818608E-02  0.8867012E-01
          2   -1    0    0  501    0  0.00000000000E+00  0.00000000000E+00  0.26476974861E+04  0.26476974861E+04  0.00000000000E+00 0. -1.
         -1   -1    0    0    0  501 -0.00000000000E+00 -0.00000000000E+00 -0.22002478508E+03  0.22002478508E+03  0.00000000000E+00 0.  1.
         24    2    1    2    0    0  0.23188496793E+03  0.12271824550E+03  0.23206732872E+02  0.27551819021E+03  0.80878393616E+02 0.  0.
        254    2    1    2    0    0 -0.23188496793E+03 -0.12271824550E+03  0.24044659681E+04  0.25922040810E+04  0.93232773172E+03 0.  0.
         23    2    4    4    0    0 -0.40006955237E+03 -0.37046731602E+03  0.90861899939E+03  0.10639137438E+04  0.94985732116E+02 0.  0.
         23    2    4    4    0    0  0.16818458443E+03  0.24774907053E+03  0.14958469688E+04  0.15282903371E+04  0.91910523137E+02 0.  0.
          4    1    3    3  502    0  0.11705595388E+03  0.16685800688E+02  0.93124680468E+01  0.11860537233E+03  0.00000000000E+00 0. -1.
         -3    1    3    3    0  502  0.11482901405E+03  0.10603244481E+03  0.13894264825E+02  0.15691281788E+03  0.00000000000E+00 0.  1.
         11    1    5    5    0    0 -0.28255113638E+02 -0.54986317189E+02  0.14823643384E+03  0.16061097983E+03  0.00000000000E+00 0.  1.
        -11    1    5    5    0    0 -0.37181443873E+03 -0.31548099884E+03  0.76038256555E+03  0.90330276401E+03  0.00000000000E+00 0. -1.
          3    1    6    6  503    0  0.15146260121E+03  0.21501220297E+03  0.11116323606E+04  0.11423211773E+04  0.00000000000E+00 0. -1.
         -3    1    6    6    0  503  0.16721983225E+02  0.32736867559E+02  0.38421460813E+03  0.38596915981E+03  0.00000000000E+00 0.  1.
<mgrwt>
<rscale>  0 0.15265111E+04</rscale>
<asrwt>0</asrwt>
<pdfrwt beam="1">  1        2 0.40733805E+00 0.15265111E+04</pdfrwt>
<pdfrwt beam="2">  1       -1 0.33849969E-01 0.15265111E+04</pdfrwt>
<totfact> 0.25898854E+01</totfact>
</mgrwt>
</event>
<event>
12    6  0.1540825E-007  0.1263042E+04  0.7818608E-02  0.9059398E-01
          2   -1    0    0  501    0  0.00000000000E+00  0.00000000000E+00  0.94973990533E+03  0.94973990533E+03  0.00000000000E+00 0. -1.
         -1   -1    0    0    0  501 -0.00000000000E+00 -0.00000000000E+00 -0.41992415883E+03  0.41992415883E+03  0.00000000000E+00 0.  1.
         24    2    1    2    0    0 -0.29104524586E+03  0.43452912580E+02  0.27884635131E+03  0.41353881075E+03  0.81630690373E+02 0.  0.
        254    2    1    2    0    0  0.29104524586E+03 -0.43452912580E+02  0.25096939520E+03  0.95612525341E+03  0.87441087147E+03 0.  0.
         23    2    4    4    0    0 -0.28425311762E+03 -0.14317854480E+03  0.93121603161E+02  0.34473891024E+03  0.94198474978E+02 0.  0.
         23    2    4    4    0    0  0.57529836348E+03  0.99725632217E+02  0.15784779203E+03  0.61138634318E+03  0.89240833866E+02 0.  0.
          4    1    3    3  502    0 -0.26149246801E+03  0.21280059539E+02  0.26798492188E+03  0.37502942566E+03  0.00000000000E+00 0. -1.
         -3    1    3    3    0  502 -0.29552777845E+02  0.22172853041E+02  0.10861429431E+02  0.38509385084E+02  0.00000000000E+00 0.  1.
         11    1    5    5    0    0 -0.19252621306E+03 -0.14211346863E+03  0.78532178253E+02  0.25185290092E+03  0.00000000000E+00 0. -1.
        -11    1    5    5    0    0 -0.91726904559E+02 -0.10650761685E+01  0.14589424908E+02  0.92886009315E+02  0.00000000000E+00 0.  1.
          4    1    6    6  503    0  0.45643085495E+03  0.68455711651E+02  0.87468281699E+02  0.46975100863E+03  0.00000000000E+00 0. -1.
         -4    1    6    6    0  503  0.11886750853E+03  0.31269920566E+02  0.70379510336E+02  0.14163533454E+03  0.00000000000E+00 0.  1.
<mgrwt>
<rscale>  0 0.12630419E+04</rscale>
<asrwt>0</asrwt>
<pdfrwt beam="1">  1        2 0.14611383E+00 0.12630419E+04</pdfrwt>
<pdfrwt beam="2">  1       -1 0.64603717E-01 0.12630419E+04</pdfrwt>
<totfact> 0.73991558E+01</totfact>
</mgrwt>
</event>
<event>
12    6  0.1540825E-007  0.1905031E+04  0.7818608E-02  0.8652356E-01
          2   -1    0    0  501    0  0.00000000000E+00  0.00000000000E+00  0.13367420397E+04  0.13367420397E+04  0.00000000000E+00 0. -1.
         -1   -1    0    0    0  501 -0.00000000000E+00 -0.00000000000E+00 -0.67872913015E+03  0.67872913015E+03  0.00000000000E+00 0.  1.
         24    2    1    2    0    0 -0.25769557328E+03 -0.62932979604E+03 -0.46859070947E+02  0.68728927543E+03  0.87793934404E+02 0.  0.
        254    2    1    2    0    0  0.25769557328E+03  0.62932979604E+03  0.70487198051E+03  0.13281818944E+04  0.89708396214E+03 0.  0.
         23    2    4    4    0    0 -0.27168993650E+03 -0.12482554160E+02  0.15525563620E+03  0.32708508740E+03  0.94388061099E+02 0.  0.
         23    2    4    4    0    0  0.52938550978E+03  0.64181235020E+03  0.54961634432E+03  0.10010968070E+04  0.89132375090E+02 0.  0.
          2    1    3    3  502    0 -0.18607351522E+03 -0.34351189181E+03 -0.37794522610E+02  0.39249483923E+03  0.00000000000E+00 0. -1.
         -1    1    3    3    0  502 -0.71622058064E+02 -0.28581790423E+03 -0.90645483370E+01  0.29479443620E+03  0.00000000000E+00 0.  1.
         11    1    5    5    0    0 -0.25827198714E+03  0.13522926676E+02  0.13926632342E+03  0.29373865549E+03  0.00000000000E+00 0. -1.
        -11    1    5    5    0    0 -0.13417949354E+02 -0.26005480836E+02  0.15989312779E+02  0.33346431915E+02  0.00000000000E+00 0.  1.
          1    1    6    6  503    0  0.38732523867E+03  0.47583321821E+03  0.35707130514E+03  0.70988591268E+03  0.00000000000E+00 0. -1.
         -1    1    6    6    0  503  0.14206027111E+03  0.16597913199E+03  0.19254503917E+03  0.29121089436E+03  0.00000000000E+00 0.  1.
<mgrwt>
<rscale>  0 0.19050310E+04</rscale>
<asrwt>0</asrwt>
<pdfrwt beam="1">  1        2 0.20565262E+00 0.19050310E+04</pdfrwt>
<pdfrwt beam="2">  1       -1 0.10441987E+00 0.19050310E+04</pdfrwt>
<totfact> 0.14484046E+01</totfact>
</mgrwt>
</event>
<event>
12    6  0.1540825E-007  0.1685656E+04  0.7818608E-02  0.8769588E-01
          2   -1    0    0  501    0  0.00000000000E+00  0.00000000000E+00  0.94631938331E+03  0.94631938331E+03  0.00000000000E+00 0. -1.
         -1   -1    0    0    0  501 -0.00000000000E+00 -0.00000000000E+00 -0.75065487354E+03  0.75065487354E+03  0.00000000000E+00 0.  1.
         24    2    1    2    0    0 -0.12817818334E+03  0.29436656148E+03  0.60242676955E+03  0.68703833387E+03  0.77603739266E+02 0.  0.
        254    2    1    2    0    0  0.12817818334E+03 -0.29436656148E+03 -0.40676225977E+03  0.10099359230E+04  0.86685276336E+03 0.  0.
         23    2    4    4    0    0 -0.79291368419E+02  0.15901469589E+03 -0.45919509785E+03  0.50034811798E+03  0.88968009174E+02 0.  0.
         23    2    4    4    0    0  0.20746955176E+03 -0.45338125736E+03  0.52432838087E+02  0.50958780500E+03  0.91281701673E+02 0.  0.
          2    1    3    3  502    0 -0.12707759173E+03  0.23090489788E+03  0.44348799844E+03  0.51589474793E+03  0.00000000000E+00 0. -1.
         -1    1    3    3    0  502 -0.11005916112E+01  0.63461663597E+02  0.15893877111E+03  0.17114358595E+03  0.00000000000E+00 0.  1.
         11    1    5    5    0    0 -0.59394339572E+02  0.15956198349E+03 -0.44331462446E+03  0.47488479699E+03  0.00000000000E+00 0. -1.
        -11    1    5    5    0    0 -0.19897028847E+02 -0.54728760436E+00 -0.15880473394E+02  0.25463320990E+02  0.00000000000E+00 0.  1.
          1    1    6    6  503    0  0.19280028204E+03 -0.39358699104E+03  0.73750515171E+02  0.44443425471E+03  0.00000000000E+00 0. -1.
         -1    1    6    6    0  503  0.14669269712E+02 -0.59794266326E+02 -0.21317677084E+02  0.65153550291E+02  0.00000000000E+00 0.  1.
<mgrwt>
<rscale>  0 0.16856563E+04</rscale>
<asrwt>0</asrwt>
<pdfrwt beam="1">  1        2 0.14558760E+00 0.16856563E+04</pdfrwt>
<pdfrwt beam="2">  1       -1 0.11548537E+00 0.16856563E+04</pdfrwt>
<totfact> 0.20169822E+01</totfact>
</mgrwt>
</event>
<event>
12    6  0.1540825E-007  0.1709015E+04  0.7818608E-02  0.8756240E-01
         -1   -1    0    0    0  501 -0.00000000000E+00  0.00000000000E+00  0.57558358716E+03  0.57558358716E+03  0.00000000000E+00 0.  1.
          2   -1    0    0  501    0  0.00000000000E+00 -0.00000000000E+00 -0.12685955103E+04  0.12685955103E+04  0.00000000000E+00 0. -1.
         24    2    1    2    0    0  0.56042914509E+03 -0.22915929339E+03 -0.37413845175E+03  0.71601862128E+03  0.78155463843E+02 0.  0.
        254    2    1    2    0    0 -0.56042914509E+03  0.22915929339E+03 -0.31887347139E+03  0.11281604762E+04  0.89692305181E+03 0.  0.
         23    2    4    4    0    0 -0.18531968563E+03 -0.26427347593E+03 -0.37086829507E+03  0.50004862934E+03  0.91222165421E+02 0.  0.
         23    2    4    4    0    0 -0.37510945946E+03  0.49343276932E+03  0.51994823672E+02  0.62811184685E+03  0.87395801103E+02 0.  0.
          2    1    3    3  502    0  0.54116610076E+03 -0.22736163216E+03 -0.37517827689E+03  0.69664395486E+03  0.00000000000E+00 0. -1.
         -1    1    3    3    0  502  0.19263044325E+02 -0.17976612292E+01  0.10398251362E+01  0.19374666419E+02  0.00000000000E+00 0.  1.
         11    1    5    5    0    0 -0.36323998656E+02 -0.12834650017E+03 -0.13656955452E+03  0.19090180776E+03  0.00000000000E+00 0.  1.
        -11    1    5    5    0    0 -0.14899568697E+03 -0.13592697576E+03 -0.23429874054E+03  0.30914682158E+03  0.00000000000E+00 0. -1.
          1    1    6    6  503    0 -0.36451070966E+03  0.46821962724E+03  0.66603785203E+02  0.59710446405E+03  0.00000000000E+00 0. -1.
         -1    1    6    6    0  503 -0.10598749798E+02  0.25213142082E+02 -0.14608961531E+02  0.31007382797E+02  0.00000000000E+00 0.  1.
<mgrwt>
<rscale>  0 0.17090146E+04</rscale>
<asrwt>0</asrwt>
<pdfrwt beam="1">  1        2 0.19516854E+00 0.17090146E+04</pdfrwt>
<pdfrwt beam="2">  1       -1 0.88551321E-01 0.17090146E+04</pdfrwt>
<totfact> 0.23409571E+01</totfact>
</mgrwt>
</event>
<event>
12    6  0.1540825E-007  0.1626305E+04  0.7818608E-02  0.8804549E-01
         -1   -1    0    0    0  501 -0.00000000000E+00  0.00000000000E+00  0.50413566218E+03  0.50413566218E+03  0.00000000000E+00 0.  1.
          2   -1    0    0  501    0  0.00000000000E+00 -0.00000000000E+00 -0.13115852298E+04  0.13115852298E+04  0.00000000000E+00 0. -1.
         24    2    1    2    0    0  0.47195034286E+03 -0.18915284968E+03 -0.17584834904E+03  0.54463727124E+03  0.84800876734E+02 0.  0.
        254    2    1    2    0    0 -0.47195034286E+03  0.18915284968E+03 -0.63160121853E+03  0.12710836207E+04  0.97888586918E+03 0.  0.
         23    2    4    4    0    0 -0.46327139324E+03 -0.44733234110E+02  0.11086520157E+03  0.48689349148E+03  0.90292486402E+02 0.  0.
         23    2    4    4    0    0 -0.86789496276E+01  0.23388608379E+03 -0.74246642010E+03  0.78419012922E+03  0.94444425107E+02 0.  0.
          2    1    3    3  502    0  0.33544820519E+02 -0.32926301998E+02  0.30927507961E+00  0.47005233730E+02  0.00000000000E+00 0. -1.
         -1    1    3    3    0  502  0.43840552234E+03 -0.15622654768E+03 -0.17615762412E+03  0.49763203751E+03  0.00000000000E+00 0.  1.
         11    1    5    5    0    0 -0.13008262913E+03  0.13298368278E+02  0.63582204864E+02  0.14539956594E+03  0.00000000000E+00 0. -1.
        -11    1    5    5    0    0 -0.33318876411E+03 -0.58031602388E+02  0.47282996706E+02  0.34149392554E+03  0.00000000000E+00 0.  1.
          4    1    6    6  503    0 -0.32419601436E+02  0.18411138364E+03 -0.65171218881E+03  0.67799469702E+03  0.00000000000E+00 0. -1.
         -4    1    6    6    0  503  0.23740651808E+02  0.49774700149E+02 -0.90754231288E+02  0.10619543220E+03  0.00000000000E+00 0.  1.
<mgrwt>
<rscale>  0 0.16263049E+04</rscale>
<asrwt>0</asrwt>
<pdfrwt beam="1">  1        2 0.20178234E+00 0.16263049E+04</pdfrwt>
<pdfrwt beam="2">  1       -1 0.77559333E-01 0.16263049E+04</pdfrwt>
<totfact> 0.29583709E+01</totfact>
</mgrwt>
</event>
<event>
12    6  0.1540825E-007  0.2625625E+04  0.7818608E-02  0.8359549E-01
         -1   -1    0    0    0  501 -0.00000000000E+00  0.00000000000E+00  0.90696262955E+03  0.90696262955E+03  0.00000000000E+00 0.  1.
          2   -1    0    0  501    0  0.00000000000E+00 -0.00000000000E+00 -0.19002726768E+04  0.19002726768E+04  0.00000000000E+00 0. -1.
         24    2    1    2    0    0  0.98635892367E+03  0.79815852523E+02 -0.10787768081E+04  0.14660543710E+04  0.79256043223E+02 0.  0.
        254    2    1    2    0    0 -0.98635892367E+03 -0.79815852523E+02  0.85466760847E+02  0.13411809353E+04  0.90121431275E+03 0.  0.
         23    2    4    4    0    0 -0.10616079551E+04 -0.26441366712E+03 -0.19952013867E+02  0.10979973403E+04  0.90961744260E+02 0.  0.
         23    2    4    4    0    0  0.75249031393E+02  0.18459781459E+03  0.10541877471E+03  0.24318359501E+03  0.91029516858E+02 0.  0.
          4    1    3    3  502    0  0.40525211171E+03  0.71904577499E+02 -0.44412271859E+03  0.60551179301E+03  0.00000000000E+00 0. -1.
         -3    1    3    3    0  502  0.58110681196E+03  0.79112750236E+01 -0.63465408946E+03  0.86054257794E+03  0.00000000000E+00 0.  1.
         11    1    5    5    0    0 -0.14419334112E+03 -0.36573029391E+02 -0.34059721467E+02  0.15260855392E+03  0.00000000000E+00 0.  1.
        -11    1    5    5    0    0 -0.91741461394E+03 -0.22784063773E+03  0.14107707600E+02  0.94538878642E+03  0.00000000000E+00 0. -1.
          1    1    6    6  503    0  0.69394446792E+02  0.14310833080E+03  0.37543378145E+02  0.16341691722E+03  0.00000000000E+00 0. -1.
         -1    1    6    6    0  503  0.58545846016E+01  0.41489483795E+02  0.67875396569E+02  0.79766677791E+02  0.00000000000E+00 0.  1.
<mgrwt>
<rscale>  0 0.26256247E+04</rscale>
<asrwt>0</asrwt>
<pdfrwt beam="1">  1        2 0.29234964E+00 0.26256247E+04</pdfrwt>
<pdfrwt beam="2">  1       -1 0.13953272E+00 0.26256247E+04</pdfrwt>
<totfact> 0.32240618E+00</totfact>
</mgrwt>
</event>
<event>
12    6  0.1731277E-007  0.2605482E+04  0.7818608E-02  0.8366341E-01
         -1   -1    0    0    0  501 -0.00000000000E+00  0.00000000000E+00  0.79986999777E+03  0.79986999777E+03  0.00000000000E+00 0.  1.
          2   -1    0    0  501    0  0.00000000000E+00 -0.00000000000E+00 -0.21217631960E+04  0.21217631960E+04  0.00000000000E+00 0. -1.
         24    2    1    2    0    0  0.38764137694E+03 -0.17415964535E+03  0.60920954854E+03  0.74705865057E+03  0.79768002249E+02 0.  0.
        254    2    1    2    0    0 -0.38764137694E+03  0.17415964535E+03 -0.19311027468E+04  0.21745745432E+04  0.90499679898E+03 0.  0.
         23    2    4    4    0    0  0.17050602663E+03 -0.10118701983E+03 -0.11541227770E+04  0.11749204685E+04  0.95538499279E+02 0.  0.
         23    2    4    4    0    0 -0.55814740357E+03  0.27534666518E+03 -0.77697996980E+03  0.99965407471E+03  0.90918015137E+02 0.  0.
          2    1    3    3  502    0  0.72724258044E+02 -0.54358670211E+02  0.88111880894E+02  0.12652029991E+03  0.00000000000E+00 0. -1.
         -1    1    3    3    0  502  0.31491711889E+03 -0.11980097514E+03  0.52109766765E+03  0.62053835066E+03  0.00000000000E+00 0.  1.
         11    1    5    5    0    0  0.42354726727E+01 -0.10148903774E+02 -0.89908276228E+01  0.14204733645E+02  0.00000000000E+00 0. -1.
        -11    1    5    5    0    0  0.16627055396E+03 -0.91038116055E+02 -0.11451319494E+04  0.11607157349E+04  0.00000000000E+00 0.  1.
          1    1    6    6  503    0 -0.10929212607E+02 -0.67044108179E+01 -0.22293249624E+02  0.25717421944E+02  0.00000000000E+00 0. -1.
         -1    1    6    6    0  503 -0.54721819096E+03  0.28205107600E+03 -0.75468672017E+03  0.97393665276E+03  0.00000000000E+00 0.  1.
<mgrwt>
<rscale>  0 0.26054825E+04</rscale>
<asrwt>0</asrwt>
<pdfrwt beam="1">  1        2 0.32642510E+00 0.26054825E+04</pdfrwt>
<pdfrwt beam="2">  1       -1 0.12305693E+00 0.26054825E+04</pdfrwt>
<totfact> 0.33432727E+00</totfact>
</mgrwt>
</event>
<event>
12    6  0.1540825E-007  0.3294684E+04  0.7818608E-02  0.8164249E-01
         -1   -1    0    0    0  501 -0.00000000000E+00  0.00000000000E+00  0.97074960191E+03  0.97074960191E+03  0.00000000000E+00 0.  1.
          2   -1    0    0  501    0  0.00000000000E+00 -0.00000000000E+00 -0.27955049949E+04  0.27955049949E+04  0.00000000000E+00 0. -1.
         24    2    1    2    0    0 -0.14044454274E+04  0.54045204565E+03 -0.10846757416E+04  0.18569259924E+04  0.84245500502E+02 0.  0.
        254    2    1    2    0    0  0.14044454274E+04 -0.54045204565E+03 -0.74007965136E+03  0.19093286045E+04  0.91283210794E+03 0.  0.
         23    2    4    4    0    0  0.12903650377E+04 -0.10305079186E+03 -0.57347310664E+03  0.14189074511E+04  0.93624539118E+02 0.  0.
         23    2    4    4    0    0  0.11408038967E+03 -0.43740125379E+03 -0.16660654472E+03  0.49042115341E+03  0.91765869689E+02 0.  0.
          2    1    3    3  502    0 -0.93231324031E+03  0.33115844849E+03 -0.75004159653E+03  0.12415459285E+04  0.00000000000E+00 0. -1.
         -1    1    3    3    0  502 -0.47213218710E+03  0.20929359716E+03 -0.33463414512E+03  0.61538006385E+03  0.00000000000E+00 0.  1.
         11    1    5    5    0    0  0.53047927586E+02 -0.23142814477E+02 -0.22281900511E+02  0.62017381221E+02  0.00000000000E+00 0. -1.
        -11    1    5    5    0    0  0.12373171102E+04 -0.79907977380E+02 -0.55119120613E+03  0.13568900698E+04  0.00000000000E+00 0.  1.
          1    1    6    6  503    0  0.26161845960E+02 -0.18580222859E+02 -0.28654886997E+01  0.32216112289E+02  0.00000000000E+00 0. -1.
         -1    1    6    6    0  503  0.87918543710E+02 -0.41882103093E+03 -0.16374105602E+03  0.45820504112E+03  0.00000000000E+00 0.  1.
<mgrwt>
<rscale>  0 0.32946838E+04</rscale>
<asrwt>0</asrwt>
<pdfrwt beam="1">  1        2 0.43007769E+00 0.32946838E+04</pdfrwt>
<pdfrwt beam="2">  1       -1 0.14934609E+00 0.32946838E+04</pdfrwt>
<totfact> 0.77939746E-01</totfact>
</mgrwt>
</event>
<event>
12    6  0.1540825E-007  0.1440654E+04  0.7818608E-02  0.8924906E-01
         -1   -1    0    0    0  501 -0.00000000000E+00  0.00000000000E+00  0.27415849270E+03  0.27415849270E+03  0.00000000000E+00 0.  1.
          2   -1    0    0  501    0  0.00000000000E+00 -0.00000000000E+00 -0.18925944442E+04  0.18925944442E+04  0.00000000000E+00 0. -1.
         24    2    1    2    0    0  0.51889124773E+02  0.42025494817E+03 -0.60763732196E+03  0.74491235775E+03  0.79778461783E+02 0.  0.
        254    2    1    2    0    0 -0.51889124773E+02 -0.42025494817E+03 -0.10107986295E+04  0.14218405792E+04  0.90587530064E+03 0.  0.
         23    2    4    4    0    0  0.33020513474E+03 -0.18046026813E+03 -0.84983722899E+03  0.93387091485E+03  0.91050702610E+02 0.  0.
         23    2    4    4    0    0 -0.38209425951E+03 -0.23979468004E+03 -0.16096140055E+03  0.48796966431E+03  0.93318321300E+02 0.  0.
          4    1    3    3  502    0  0.38924598413E+02  0.25097413637E+03 -0.42844345891E+03  0.49806318773E+03  0.00000000000E+00 0. -1.
         -3    1    3    3    0  502  0.12964526361E+02  0.16928081179E+03 -0.17919386305E+03  0.24684917002E+03  0.00000000000E+00 0.  1.
         11    1    5    5    0    0  0.12113815238E+03 -0.10119713022E+03 -0.43266752627E+03  0.46056107023E+03  0.00000000000E+00 0.  1.
        -11    1    5    5    0    0  0.20906698236E+03 -0.79263137908E+02 -0.41716970272E+03  0.47330984462E+03  0.00000000000E+00 0. -1.
          3    1    6    6  503    0 -0.18768435016E+03 -0.13936810600E+03 -0.12849370496E+03  0.26675741129E+03  0.00000000000E+00 0. -1.
         -3    1    6    6    0  503 -0.19440990935E+03 -0.10042657404E+03 -0.32467695594E+02  0.22121225302E+03  0.00000000000E+00 0.  1.
<mgrwt>
<rscale>  0 0.14406538E+04</rscale>
<asrwt>0</asrwt>
<pdfrwt beam="1">  1        2 0.29116838E+00 0.14406538E+04</pdfrwt>
<pdfrwt beam="2">  1       -1 0.42178229E-01 0.14406538E+04</pdfrwt>
<totfact> 0.46825018E+01</totfact>
</mgrwt>
</event>
<event>
12    6  0.1540825E-007  0.1558704E+04  0.7818608E-02  0.8846327E-01
          2   -1    0    0  501    0  0.00000000000E+00  0.00000000000E+00  0.29346675826E+04  0.29346675826E+04  0.00000000000E+00 0. -1.
         -1   -1    0    0    0  501 -0.00000000000E+00 -0.00000000000E+00 -0.20697057954E+03  0.20697057954E+03  0.00000000000E+00 0.  1.
         24    2    1    2    0    0 -0.19417245110E+03 -0.23404703697E+03  0.17467374262E+04  0.17748017648E+04  0.79678804228E+02 0.  0.
        254    2    1    2    0    0  0.19417245110E+03  0.23404703697E+03  0.98095957684E+03  0.13668363974E+04  0.90193075647E+03 0.  0.
         23    2    4    4    0    0  0.36498852029E+03  0.43184936840E+03  0.33306887080E+03  0.66246953825E+03  0.90667080532E+02 0.  0.
         23    2    4    4    0    0 -0.17081606919E+03 -0.19780233143E+03  0.64789070604E+03  0.70436685910E+03  0.89813213985E+02 0.  0.
          4    1    3    3  502    0 -0.18320820390E+03 -0.21290401095E+03  0.16913019959E+04  0.17144666241E+04  0.00000000000E+00 0. -1.
         -3    1    3    3    0  502 -0.10964247202E+02 -0.21143026014E+02  0.55435430380E+02  0.60335140732E+02  0.00000000000E+00 0.  1.
         11    1    5    5    0    0  0.16117967170E+03  0.17724469065E+03  0.19252411222E+03  0.30734361994E+03  0.00000000000E+00 0.  1.
        -11    1    5    5    0    0  0.20380884859E+03  0.25460467775E+03  0.14054475858E+03  0.35512591832E+03  0.00000000000E+00 0. -1.
          4    1    6    6  503    0 -0.12624799546E+03 -0.14460996296E+03  0.35728040042E+03  0.40558585067E+03  0.00000000000E+00 0.  1.
         -4    1    6    6    0  503 -0.44568073737E+02 -0.53192368472E+02  0.29061030563E+03  0.29878100843E+03  0.00000000000E+00 0. -1.
<mgrwt>
<rscale>  0 0.15587044E+04</rscale>
<asrwt>0</asrwt>
<pdfrwt beam="1">  1        2 0.45148729E+00 0.15587044E+04</pdfrwt>
<pdfrwt beam="2">  1       -1 0.31841630E-01 0.15587044E+04</pdfrwt>
<totfact> 0.19354222E+01</totfact>
</mgrwt>
</event>
<event>
12    6  0.1540825E-007  0.1938282E+04  0.7818608E-02  0.8636032E-01
          2   -1    0    0  501    0  0.00000000000E+00  0.00000000000E+00  0.14421624606E+04  0.14421624606E+04  0.00000000000E+00 0. -1.
         -1   -1    0    0    0  501 -0.00000000000E+00 -0.00000000000E+00 -0.65126818783E+03  0.65126818783E+03  0.00000000000E+00 0.  1.
         24    2    1    2    0    0  0.11718448237E+03  0.18669863342E+03 -0.45173203655E+03  0.51356082620E+03  0.10532951502E+03 0.  0.
        254    2    1    2    0    0 -0.11718448237E+03 -0.18669863342E+03  0.12426263093E+04  0.15798698222E+04  0.95041039973E+03 0.  0.
         23    2    4    4    0    0  0.40153684994E+03 -0.17658194921E+03  0.59970347457E+03  0.74857573758E+03  0.91150155431E+02 0.  0.
         23    2    4    4    0    0 -0.51872133231E+03 -0.10116684211E+02  0.64292283471E+03  0.83129408461E+03  0.92335885852E+02 0.  0.
          2    1    3    3  502    0  0.59890541121E+02  0.11859365263E+03 -0.15692776761E+03  0.20561530976E+03  0.00000000000E+00 0. -1.
         -1    1    3    3    0  502  0.57293941244E+02  0.68104980791E+02 -0.29480426894E+03  0.30794551644E+03  0.00000000000E+00 0.  1.
         11    1    5    5    0    0  0.86406162489E+02 -0.59590786424E+02  0.20360617923E+03  0.22906890440E+03  0.00000000000E+00 0.  1.
        -11    1    5    5    0    0  0.31513068745E+03 -0.11699116279E+03  0.39609729534E+03  0.51950683318E+03  0.00000000000E+00 0. -1.
          2    1    6    6  503    0 -0.52206538026E+03 -0.10951132088E+02  0.64231767787E+03  0.82779477400E+03  0.00000000000E+00 0. -1.
         -2    1    6    6    0  503  0.33440479478E+01  0.83444787681E+00  0.60515684553E+00  0.34993106098E+01  0.00000000000E+00 0.  1.
<mgrwt>
<rscale>  0 0.19382823E+04</rscale>
<asrwt>0</asrwt>
<pdfrwt beam="1">  1        2 0.22187115E+00 0.19382823E+04</pdfrwt>
<pdfrwt beam="2">  1       -1 0.10019511E+00 0.19382823E+04</pdfrwt>
<totfact> 0.13821714E+01</totfact>
</mgrwt>
</event>
<event>
12    6  0.1540825E-007  0.1975398E+04  0.7818608E-02  0.8618210E-01
          2   -1    0    0  501    0  0.00000000000E+00  0.00000000000E+00  0.52693648352E+03  0.52693648352E+03  0.00000000000E+00 0. -1.
         -1   -1    0    0    0  501 -0.00000000000E+00 -0.00000000000E+00 -0.18513595088E+04  0.18513595088E+04  0.00000000000E+00 0.  1.
         24    2    1    2    0    0  0.53672022520E+03 -0.37193742108E+03 -0.10349957270E+04  0.12263249389E+04  0.79061086594E+02 0.  0.
        254    2    1    2    0    0 -0.53672022520E+03  0.37193742108E+03 -0.28942729823E+03  0.11519710534E+04  0.90380479175E+03 0.  0.
         23    2    4    4    0    0 -0.37516641864E+03  0.53134929250E+03  0.12833664912E+03  0.66872736282E+03  0.87430417829E+02 0.  0.
         23    2    4    4    0    0 -0.16155380656E+03 -0.15941187142E+03 -0.41776394735E+03  0.48324369059E+03  0.86521509595E+02 0.  0.
          2    1    3    3  502    0  0.18043110331E+01  0.34430450826E+01 -0.10054735280E+02  0.10779972138E+02  0.00000000000E+00 0. -1.
         -1    1    3    3    0  502  0.53491591417E+03 -0.37538046616E+03 -0.10249409917E+04  0.12155449667E+04  0.00000000000E+00 0.  1.
         11    1    5    5    0    0 -0.19211614029E+03  0.33873959797E+03  0.95696851779E+02  0.40101248613E+03  0.00000000000E+00 0. -1.
        -11    1    5    5    0    0 -0.18305027834E+03  0.19260969453E+03  0.32639797343E+02  0.26771487669E+03  0.00000000000E+00 0.  1.
          3    1    6    6  503    0 -0.11185638852E+03 -0.72611756606E+02 -0.17009203447E+03  0.21613796298E+03  0.00000000000E+00 0. -1.
         -3    1    6    6    0  503 -0.49697418043E+02 -0.86800114815E+02 -0.24767191288E+03  0.26710572761E+03  0.00000000000E+00 0.  1.
<mgrwt>
<rscale>  0 0.19753975E+04</rscale>
<asrwt>0</asrwt>
<pdfrwt beam="1">  1        2 0.81067151E-01 0.19753975E+04</pdfrwt>
<pdfrwt beam="2">  1       -1 0.28482454E+00 0.19753975E+04</pdfrwt>
<totfact> 0.25517631E+00</totfact>
</mgrwt>
</event>
<event>
12    6  0.1540825E-007  0.1674273E+04  0.7818608E-02  0.8776175E-01
         -1   -1    0    0    0  501 -0.00000000000E+00  0.00000000000E+00  0.42628723107E+03  0.42628723107E+03  0.00000000000E+00 0.  1.
          2   -1    0    0  501    0  0.00000000000E+00 -0.00000000000E+00 -0.16439567684E+04  0.16439567684E+04  0.00000000000E+00 0. -1.
         24    2    1    2    0    0  0.45876982407E+03  0.37636145001E+03 -0.33800639931E+03  0.68751157119E+03  0.79411220961E+02 0.  0.
        254    2    1    2    0    0 -0.45876982407E+03 -0.37636145001E+03 -0.87966313800E+03  0.13827324282E+04  0.88657996777E+03 0.  0.
         23    2    4    4    0    0  0.21327371098E+03  0.12474909297E+02 -0.40783841571E+03  0.46945669069E+03  0.91739369705E+02 0.  0.
         23    2    4    4    0    0 -0.67204353505E+03 -0.38883635931E+03 -0.47182472229E+03  0.91327573756E+03  0.92831982211E+02 0.  0.
          4    1    3    3  502    0  0.26482808791E+02  0.51431210171E+02 -0.30111986076E+02  0.65216870874E+02  0.00000000000E+00 0. -1.
         -3    1    3    3    0  502  0.43228701528E+03  0.32493023984E+03 -0.30789441323E+03  0.62229470032E+03  0.00000000000E+00 0.  1.
         11    1    5    5    0    0  0.11179744608E+03  0.26194769058E+02 -0.13053692804E+03  0.17385259405E+03  0.00000000000E+00 0. -1.
        -11    1    5    5    0    0  0.10147626490E+03 -0.13719859761E+02 -0.27730148767E+03  0.29560409664E+03  0.00000000000E+00 0.  1.
          1    1    6    6  503    0 -0.20159052367E+03 -0.11940598022E+03 -0.19344678336E+03  0.30383907803E+03  0.00000000000E+00 0. -1.
         -1    1    6    6    0  503 -0.47045301138E+03 -0.26943037908E+03 -0.27837793893E+03  0.60943665952E+03  0.00000000000E+00 0.  1.
<mgrwt>
<rscale>  0 0.16742733E+04</rscale>
<asrwt>0</asrwt>
<pdfrwt beam="1">  1        2 0.25291642E+00 0.16742733E+04</pdfrwt>
<pdfrwt beam="2">  1       -1 0.65582652E-01 0.16742733E+04</pdfrwt>
<totfact> 0.26977253E+01</totfact>
</mgrwt>
</event>
<event>
12    6  0.1540825E-007  0.3718654E+04  0.7818608E-02  0.8063840E-01
          2   -1    0    0  501    0  0.00000000000E+00  0.00000000000E+00  0.35835910420E+04  0.35835910420E+04  0.00000000000E+00 0. -1.
         -1   -1    0    0    0  501 -0.00000000000E+00 -0.00000000000E+00 -0.96470179469E+03  0.96470179469E+03  0.00000000000E+00 0.  1.
         24    2    1    2    0    0 -0.17012893553E+04 -0.18429381758E+03  0.76317036680E+03  0.18768873189E+04  0.10921225800E+03 0.  0.
        254    2    1    2    0    0  0.17012893553E+04  0.18429381758E+03  0.18557188805E+04  0.26714055178E+04  0.87427981539E+03 0.  0.
         23    2    4    4    0    0  0.56187948430E+02  0.12994393764E+03 -0.24083218571E+02  0.17109498017E+03  0.93010635654E+02 0.  0.
         23    2    4    4    0    0  0.16451014069E+04  0.54349879938E+02  0.18798020991E+04  0.25003105376E+04  0.92651523024E+02 0.  0.
          2    1    3    3  502    0 -0.64787418809E+02  0.27889103144E+01  0.50365840253E+02  0.82109107419E+02  0.00000000000E+00 0. -1.
         -3    1    3    3    0  502 -0.16365019365E+04 -0.18708272790E+03  0.71280452655E+03  0.17947782114E+04  0.00000000000E+00 0.  1.
         11    1    5    5    0    0 -0.83046242934E+01  0.74294059990E+02 -0.39464449302E+02  0.84534116741E+02  0.00000000000E+00 0.  1.
        -11    1    5    5    0    0  0.64492572724E+02  0.55649877653E+02  0.15381230731E+02  0.86560863432E+02  0.00000000000E+00 0. -1.
          1    1    6    6  503    0  0.54449752786E+03  0.61394525982E+02  0.63194838016E+03  0.83642429475E+03  0.00000000000E+00 0. -1.
         -1    1    6    6    0  503  0.11006038790E+04 -0.70446460433E+01  0.12478537189E+04  0.16638862429E+04  0.00000000000E+00 0.  1.
<mgrwt>
<rscale>  0 0.37186539E+04</rscale>
<asrwt>0</asrwt>
<pdfrwt beam="1">  1        2 0.55132169E+00 0.37186539E+04</pdfrwt>
<pdfrwt beam="2">  1       -1 0.14841566E+00 0.37186539E+04</pdfrwt>
<totfact> 0.23284357E-01</totfact>
</mgrwt>
</event>
<event>
12    6  0.1540825E-007  0.2549354E+04  0.7818608E-02  0.8385611E-01
         -1   -1    0    0    0  501 -0.00000000000E+00  0.00000000000E+00  0.11967548650E+04  0.11967548650E+04  0.00000000000E+00 0.  1.
          2   -1    0    0  501    0  0.00000000000E+00 -0.00000000000E+00 -0.13576726158E+04  0.13576726158E+04  0.00000000000E+00 0. -1.
         24    2    1    2    0    0 -0.62256078808E+02 -0.25574907264E+03  0.98317617499E+03  0.10209996252E+04  0.80755408539E+02 0.  0.
        254    2    1    2    0    0  0.62256078808E+02  0.25574907264E+03 -0.11440939257E+04  0.15334278557E+04  0.98649210342E+03 0.  0.
         23    2    4    4    0    0 -0.43617595912E+02 -0.23652562923E+03 -0.95313757614E+03  0.98721991371E+03  0.91022255533E+02 0.  0.
         23    2    4    4    0    0  0.10587367472E+03  0.49227470187E+03 -0.19095634959E+03  0.54620794196E+03  0.91297159385E+02 0.  0.
          4    1    3    3  502    0 -0.30440687562E+02 -0.30358009570E+02  0.23731704258E+03  0.24117964861E+03  0.00000000000E+00 0. -1.
         -3    1    3    3    0  502 -0.31815391245E+02 -0.22539106307E+03  0.74585913241E+03  0.77981997656E+03  0.00000000000E+00 0.  1.
         11    1    5    5    0    0  0.11401846378E+02 -0.17142918354E+03 -0.65114311422E+03  0.67342803793E+03  0.00000000000E+00 0. -1.
        -11    1    5    5    0    0 -0.55019442290E+02 -0.65096445686E+02 -0.30199446192E+03  0.31379187578E+03  0.00000000000E+00 0.  1.
          1    1    6    6  503    0  0.33778066038E+02  0.35550946735E+03 -0.13578922346E+03  0.38205582357E+03  0.00000000000E+00 0. -1.
         -1    1    6    6    0  503  0.72095608681E+02  0.13676523452E+03 -0.55167126131E+02  0.16415211838E+03  0.00000000000E+00 0.  1.
<mgrwt>
<rscale>  0 0.25493539E+04</rscale>
<asrwt>0</asrwt>
<pdfrwt beam="1">  1        2 0.20887271E+00 0.25493539E+04</pdfrwt>
<pdfrwt beam="2">  1       -1 0.18411613E+00 0.25493539E+04</pdfrwt>
<totfact> 0.30120825E+00</totfact>
</mgrwt>
</event>
<event>
12    6  0.1540825E-007  0.1410951E+04  0.7818608E-02  0.8945930E-01
          2   -1    0    0  501    0  0.00000000000E+00  0.00000000000E+00  0.12958549744E+04  0.12958549744E+04  0.00000000000E+00 0. -1.
         -1   -1    0    0    0  501 -0.00000000000E+00 -0.00000000000E+00 -0.38406721339E+03  0.38406721339E+03  0.00000000000E+00 0.  1.
         24    2    1    2    0    0 -0.37517865944E+03 -0.10197177448E+03  0.57261784948E+03  0.69658621022E+03  0.78637633754E+02 0.  0.
        254    2    1    2    0    0  0.37517865944E+03  0.10197177448E+03  0.33916991151E+03  0.98333597755E+03  0.83711178858E+03 0.  0.
         23    2    4    4    0    0  0.29702162411E+03 -0.33959910823E+03  0.22123811174E+03  0.51066747479E+03  0.91025096691E+02 0.  0.
         23    2    4    4    0    0  0.78157035334E+02  0.44157088271E+03  0.11793179977E+03  0.47266850275E+03  0.91729152764E+02 0.  0.
          4    1    3    3  502    0 -0.24880353831E+03 -0.10226068386E+03  0.41508975303E+03  0.49463112641E+03  0.00000000000E+00 0. -1.
         -3    1    3    3    0  502 -0.12637512113E+03  0.28890937900E+00  0.15752809645E+03  0.20195508382E+03  0.00000000000E+00 0.  1.
         11    1    5    5    0    0  0.17721901394E+03 -0.13836445849E+03  0.12696961789E+03  0.25821035251E+03  0.00000000000E+00 0.  1.
        -11    1    5    5    0    0  0.11980261017E+03 -0.20123464975E+03  0.94268493847E+02  0.25245712229E+03  0.00000000000E+00 0. -1.
          1    1    6    6  503    0  0.98027379329E+02  0.39663530684E+03  0.10655854069E+03  0.42223649336E+03  0.00000000000E+00 0. -1.
         -1    1    6    6    0  503 -0.19870343995E+02  0.44935575866E+02  0.11373259078E+02  0.50432009388E+02  0.00000000000E+00 0.  1.
<mgrwt>
<rscale>  0 0.14109506E+04</rscale>
<asrwt>0</asrwt>
<pdfrwt beam="1">  1        2 0.19936230E+00 0.14109506E+04</pdfrwt>
<pdfrwt beam="2">  1       -1 0.59087264E-01 0.14109506E+04</pdfrwt>
<totfact> 0.53504140E+01</totfact>
</mgrwt>
</event>
<event>
12    6  0.1540825E-007  0.4582327E+04  0.7818608E-02  0.7896380E-01
          2   -1    0    0  501    0  0.00000000000E+00  0.00000000000E+00  0.19874663057E+04  0.19874663057E+04  0.00000000000E+00 0. -1.
         -1   -1    0    0    0  501 -0.00000000000E+00 -0.00000000000E+00 -0.26412674053E+04  0.26412674053E+04  0.00000000000E+00 0.  1.
         24    2    1    2    0    0 -0.34727269415E+03  0.21127675049E+03  0.18709125409E+04  0.19160634464E+04  0.75823516231E+02 0.  0.
        254    2    1    2    0    0  0.34727269415E+03 -0.21127675049E+03 -0.25247136405E+04  0.27126702646E+04  0.90507723898E+03 0.  0.
         23    2    4    4    0    0 -0.25821935845E+03 -0.10916025784E+03 -0.38643062848E+03  0.48626662941E+03  0.92376432535E+02 0.  0.
         23    2    4    4    0    0  0.60549205260E+03 -0.10211649265E+03 -0.21382830120E+04  0.22264036352E+04  0.87008640071E+02 0.  0.
          2    1    3    3  502    0 -0.33824234590E+03  0.18533076127E+03  0.17256733973E+04  0.17682488654E+04  0.00000000000E+00 0. -1.
         -1    1    3    3    0  502 -0.90303482516E+01  0.25945989218E+02  0.14523914358E+03  0.14781458106E+03  0.00000000000E+00 0.  1.
         11    1    5    5    0    0 -0.10151691802E+03 -0.61669403149E+02 -0.23464192160E+03  0.26299359555E+03  0.00000000000E+00 0. -1.
        -11    1    5    5    0    0 -0.15670244043E+03 -0.47490854688E+02 -0.15178870688E+03  0.22327303387E+03  0.00000000000E+00 0.  1.
          3    1    6    6  503    0  0.39755304333E+02 -0.21826906153E+02 -0.10544868800E+03  0.11478816949E+03  0.00000000000E+00 0. -1.
         -3    1    6    6    0  503  0.56573674827E+03 -0.80289586498E+02 -0.20328343240E+04  0.21116154657E+04  0.00000000000E+00 0.  1.
<mgrwt>
<rscale>  0 0.45823269E+04</rscale>
<asrwt>0</asrwt>
<pdfrwt beam="1">  1        2 0.30576405E+00 0.45823269E+04</pdfrwt>
<pdfrwt beam="2">  1       -1 0.40634883E+00 0.45823269E+04</pdfrwt>
<totfact> 0.37655553E-02</totfact>
</mgrwt>
</event>
<event>
12    6  0.1540825E-007  0.2765852E+04  0.7818608E-02  0.8313949E-01
         -1   -1    0    0    0  501 -0.00000000000E+00  0.00000000000E+00  0.55973136795E+03  0.55973136795E+03  0.00000000000E+00 0.  1.
          2   -1    0    0  501    0  0.00000000000E+00 -0.00000000000E+00 -0.34167886378E+04  0.34167886378E+04  0.00000000000E+00 0. -1.
         24    2    1    2    0    0 -0.18267916915E+03  0.52380385532E+03  0.30724453953E+03  0.63926425207E+03  0.80730534586E+02 0.  0.
        254    2    1    2    0    0  0.18267916915E+03 -0.52380385532E+03 -0.31643018094E+04  0.33372557537E+04  0.90372997455E+03 0.  0.
         23    2    4    4    0    0  0.32030462556E+03 -0.70035802510E+03 -0.19353233561E+04  0.20848982196E+04  0.90706544220E+02 0.  0.
         23    2    4    4    0    0 -0.13762545640E+03  0.17655416978E+03 -0.12289784533E+04  0.12523575340E+04  0.88877518372E+02 0.  0.
          4    1    3    3  502    0 -0.11779094469E+03  0.22930207685E+03  0.12050277319E+03  0.28456118401E+03  0.00000000000E+00 0. -1.
         -3    1    3    3    0  502 -0.64888224462E+02  0.29450177846E+03  0.18674176635E+03  0.35470306806E+03  0.00000000000E+00 0.  1.
         11    1    5    5    0    0  0.17849408149E+03 -0.48651470393E+03 -0.12541781165E+04  0.13570259549E+04  0.00000000000E+00 0.  1.
        -11    1    5    5    0    0  0.14181054406E+03 -0.21384332117E+03 -0.68114523957E+03  0.72787226476E+03  0.00000000000E+00 0. -1.
          4    1    6    6  503    0 -0.71509638784E+02  0.28611394122E+02 -0.32788748898E+03  0.33681218170E+03  0.00000000000E+00 0. -1.
         -4    1    6    6    0  503 -0.66115817621E+02  0.14794277566E+03 -0.90109096432E+03  0.91554535234E+03  0.00000000000E+00 0.  1.
<mgrwt>
<rscale>  0 0.27658516E+04</rscale>
<asrwt>0</asrwt>
<pdfrwt beam="1">  1        2 0.52565982E+00 0.27658516E+04</pdfrwt>
<pdfrwt beam="2">  1       -1 0.86112514E-01 0.27658516E+04</pdfrwt>
<totfact> 0.12253828E+00</totfact>
</mgrwt>
</event>
<event>
12    6  0.1540825E-007  0.1459920E+04  0.7818608E-02  0.8911552E-01
          2   -1    0    0  501    0  0.00000000000E+00  0.00000000000E+00  0.22997803211E+04  0.22997803211E+04  0.00000000000E+00 0. -1.
         -1   -1    0    0    0  501 -0.00000000000E+00 -0.00000000000E+00 -0.23169249502E+03  0.23169249502E+03  0.00000000000E+00 0.  1.
         24    2    1    2    0    0 -0.44241191561E+02 -0.43654242272E+03  0.55529893065E+03  0.71250322473E+03  0.82324801888E+02 0.  0.
        254    2    1    2    0    0  0.44241191561E+02  0.43654242272E+03  0.15127888954E+04  0.18189695914E+04  0.90972169501E+03 0.  0.
         23    2    4    4    0    0  0.45505502053E+03  0.11178449887E+03  0.68025481036E+03  0.83158788077E+03  0.96025780555E+02 0.  0.
         23    2    4    4    0    0 -0.41081382896E+03  0.32475792385E+03  0.83253408507E+03  0.98738171061E+03  0.87028319973E+02 0.  0.
          2    1    3    3  502    0 -0.32239797812E+02 -0.37106375880E+03  0.51179725200E+03  0.63298036684E+03  0.00000000000E+00 0. -1.
         -1    1    3    3    0  502 -0.12001393749E+02 -0.65478663924E+02  0.43501678650E+02  0.79522857887E+02  0.00000000000E+00 0.  1.
         11    1    5    5    0    0  0.20926869195E+03  0.16539673356E+02  0.36076188470E+03  0.41739200242E+03  0.00000000000E+00 0. -1.
        -11    1    5    5    0    0  0.24578632857E+03  0.95244825509E+02  0.31949292566E+03  0.41419587835E+03  0.00000000000E+00 0.  1.
          3    1    6    6  503    0 -0.11073577512E+03  0.42572993926E+02  0.17251505177E+03  0.20937123678E+03  0.00000000000E+00 0. -1.
         -3    1    6    6    0  503 -0.30007805384E+03  0.28218492993E+03  0.66001903330E+03  0.77801047383E+03  0.00000000000E+00 0.  1.
<mgrwt>
<rscale>  0 0.14599203E+04</rscale>
<asrwt>0</asrwt>
<pdfrwt beam="1">  1        2 0.35381234E+00 0.14599203E+04</pdfrwt>
<pdfrwt beam="2">  1       -1 0.35645001E-01 0.14599203E+04</pdfrwt>
<totfact> 0.37653011E+01</totfact>
</mgrwt>
</event>
<event>
12    6  0.1540825E-007  0.2849422E+04  0.7818608E-02  0.8288087E-01
          2   -1    0    0  501    0  0.00000000000E+00  0.00000000000E+00  0.39761637058E+04  0.39761637058E+04  0.00000000000E+00 0. -1.
         -3   -1    0    0    0  501 -0.00000000000E+00 -0.00000000000E+00 -0.51049247887E+03  0.51049247887E+03  0.00000000000E+00 0.  1.
         24    2    1    2    0    0 -0.25821203689E+03 -0.11229645124E+04  0.68283334306E+03  0.13418545320E+04  0.81175479725E+02 0.  0.
        254    2    1    2    0    0  0.25821203689E+03  0.11229645124E+04  0.27828378838E+04  0.31448016526E+04  0.90436054454E+03 0.  0.
         23    2    4    4    0    0  0.50626222477E+03  0.36971419625E+03  0.15690812990E+04  0.16921401962E+04  0.91281397203E+02 0.  0.
         23    2    4    4    0    0 -0.24805018788E+03  0.75325031617E+03  0.12137565848E+04  0.14526614564E+04  0.90029580315E+02 0.  0.
          2    1    3    3  502    0 -0.12732478857E+03 -0.65064938752E+03  0.43162427946E+03  0.79111045113E+03  0.00000000000E+00 0. -1.
         -1    1    3    3    0  502 -0.13088724832E+03 -0.47231512490E+03  0.25120906360E+03  0.55074408087E+03  0.00000000000E+00 0.  1.
         11    1    5    5    0    0  0.11040913592E+03  0.92424430594E+02  0.46815546953E+03  0.48979791375E+03  0.00000000000E+00 0.  1.
        -11    1    5    5    0    0  0.39585308885E+03  0.27728976565E+03  0.11009258295E+04  0.12023422824E+04  0.00000000000E+00 0. -1.
          1    1    6    6  503    0 -0.24292705702E+03  0.75234960261E+03  0.12122048161E+04  0.14472332209E+04  0.00000000000E+00 0. -1.
         -1    1    6    6    0  503 -0.51231308625E+01  0.90071356254E+00  0.15517687291E+01  0.54282355278E+01  0.00000000000E+00 0.  1.
<mgrwt>
<rscale>  0 0.28494222E+04</rscale>
<asrwt>0</asrwt>
<pdfrwt beam="1">  1        2 0.61171747E+00 0.28494222E+04</pdfrwt>
<pdfrwt beam="2">  1       -3 0.78537307E-01 0.28494222E+04</pdfrwt>
<totfact> 0.30231711E-01</totfact>
</mgrwt>
</event>
<event>
12    6  0.1540825E-007  0.1144655E+04  0.7818608E-02  0.9162729E-01
          2   -1    0    0  501    0  0.00000000000E+00  0.00000000000E+00  0.22445885906E+04  0.22445885906E+04  0.00000000000E+00 0. -1.
         -1   -1    0    0    0  501 -0.00000000000E+00 -0.00000000000E+00 -0.14593269299E+03  0.14593269299E+03  0.00000000000E+00 0.  1.
         24    2    1    2    0    0  0.50209259721E+02  0.12708241806E+03  0.76440318830E+02  0.17534564643E+03  0.78943414154E+02 0.  0.
        254    2    1    2    0    0 -0.50209259721E+02 -0.12708241806E+03  0.20222155788E+04  0.22151756372E+04  0.89385476765E+03 0.  0.
         23    2    4    4    0    0 -0.46097198248E+03 -0.25421279482E+02  0.10926115966E+04  0.11896771976E+04  0.91598707745E+02 0.  0.
         23    2    4    4    0    0  0.41076272276E+03 -0.10166113858E+03  0.92960398214E+03  0.10254984396E+04  0.91774094685E+02 0.  0.
          2    1    3    3  502    0 -0.86971685350E+00  0.26883412920E+02  0.54474748572E+02  0.60753374635E+02  0.00000000000E+00 0. -1.
         -1    1    3    3    0  502  0.51078976574E+02  0.10019900514E+03  0.21965570258E+02  0.11459227180E+03  0.00000000000E+00 0.  1.
         11    1    5    5    0    0 -0.82230169821E+02  0.13416973618E+02  0.12887519690E+03  0.15346215295E+03  0.00000000000E+00 0. -1.
        -11    1    5    5    0    0 -0.37874181265E+03 -0.38838253100E+02  0.96373639975E+03  0.10362150446E+04  0.00000000000E+00 0.  1.
          4    1    6    6  503    0  0.11216732645E+03  0.72199876271E+01  0.19474825731E+03  0.22485666783E+03  0.00000000000E+00 0. -1.
         -4    1    6    6    0  503  0.29859539630E+03 -0.10888112620E+03  0.73485572483E+03  0.80064177174E+03  0.00000000000E+00 0.  1.
<mgrwt>
<rscale>  0 0.11446552E+04</rscale>
<asrwt>0</asrwt>
<pdfrwt beam="1">  1        2 0.34532130E+00 0.11446552E+04</pdfrwt>
<pdfrwt beam="2">  1       -1 0.22451185E-01 0.11446552E+04</pdfrwt>
<totfact> 0.92901962E+01</totfact>
</mgrwt>
</event>
<event>
12    6  0.1540825E-007  0.1147124E+04  0.7818608E-02  0.9160441E-01
          2   -1    0    0  501    0  0.00000000000E+00  0.00000000000E+00  0.28641651270E+04  0.28641651270E+04  0.00000000000E+00 0. -1.
         -1   -1    0    0    0  501 -0.00000000000E+00 -0.00000000000E+00 -0.11485838793E+03  0.11485838793E+03  0.00000000000E+00 0.  1.
         24    2    1    2    0    0  0.54537657381E+02  0.35239975491E+02  0.20134638037E+02  0.10376948737E+03  0.78399559405E+02 0.  0.
        254    2    1    2    0    0 -0.54537657381E+02 -0.35239975491E+02  0.27291721011E+04  0.28752540276E+04  0.90249052849E+03 0.  0.
         23    2    4    4    0    0 -0.20614894073E+03  0.32348780891E+03  0.20480367608E+04  0.20852636411E+04  0.82025184630E+02 0.  0.
         23    2    4    4    0    0  0.15161128335E+03 -0.35872778440E+03  0.68113534027E+03  0.78999038652E+03  0.92020945982E+02 0.  0.
          4    1    3    3  502    0  0.52248904435E+02  0.25623924355E+01  0.39649178320E+02  0.65639707579E+02  0.00000000000E+00 0. -1.
         -3    1    3    3    0  502  0.22887529465E+01  0.32677583056E+02 -0.19514540283E+02  0.38129779791E+02  0.00000000000E+00 0.  1.
         11    1    5    5    0    0 -0.10697437728E+02  0.38123790462E+02  0.11764694359E+03  0.12413163138E+03  0.00000000000E+00 0. -1.
        -11    1    5    5    0    0 -0.19545150300E+03  0.28536401844E+03  0.19303898172E+04  0.19611320097E+04  0.00000000000E+00 0.  1.
          1    1    6    6  503    0  0.75715249685E+02 -0.83278019016E+02  0.22862794690E+03  0.25483085682E+03  0.00000000000E+00 0. -1.
         -1    1    6    6    0  503  0.75896033665E+02 -0.27544976538E+03  0.45250739337E+03  0.53515952970E+03  0.00000000000E+00 0.  1.
<mgrwt>
<rscale>  0 0.11471240E+04</rscale>
<asrwt>0</asrwt>
<pdfrwt beam="1">  1        2 0.44064073E+00 0.11471240E+04</pdfrwt>
<pdfrwt beam="2">  1       -1 0.17670523E-01 0.11471240E+04</pdfrwt>
<totfact> 0.60754234E+01</totfact>
</mgrwt>
</event>
<event>
12    6  0.1540825E-007  0.2831987E+04  0.7818608E-02  0.8293406E-01
         -1   -1    0    0    0  501 -0.00000000000E+00  0.00000000000E+00  0.70852147845E+03  0.70852147845E+03  0.00000000000E+00 0.  1.
          2   -1    0    0  501    0  0.00000000000E+00 -0.00000000000E+00 -0.28298904999E+04  0.28298904999E+04  0.00000000000E+00 0. -1.
         24    2    1    2    0    0  0.20246610532E+03 -0.16501641934E+03  0.60644884663E+03  0.66520032687E+03  0.80550163470E+02 0.  0.
        254    2    1    2    0    0 -0.20246610532E+03  0.16501641934E+03 -0.27278178681E+04  0.28732116515E+04  0.86378928587E+03 0.  0.
         23    2    4    4    0    0  0.23617702365E+03  0.64938796722E+02 -0.28172517970E+03  0.38444253521E+03  0.91816949330E+02 0.  0.
         23    2    4    4    0    0 -0.43864312897E+03  0.10007762261E+03 -0.24460926884E+04  0.24887691163E+04  0.90437541133E+02 0.  0.
          2    1    3    3  502    0  0.88572946258E+02 -0.23744065410E+02  0.21472931664E+03  0.23349010016E+03  0.00000000000E+00 0. -1.
         -1    1    3    3    0  502  0.11389315907E+03 -0.14127235393E+03  0.39171952999E+03  0.43171022670E+03  0.00000000000E+00 0.  1.
         11    1    5    5    0    0  0.13210211670E+02  0.93325448950E+00 -0.67160569866E+02  0.68453800486E+02  0.00000000000E+00 0. -1.
        -11    1    5    5    0    0  0.22296681198E+03  0.64005542232E+02 -0.21456460983E+03  0.31598873472E+03  0.00000000000E+00 0.  1.
          1    1    6    6  503    0 -0.14502425785E+03  0.75022194115E+02 -0.95016805594E+03  0.96409527512E+03  0.00000000000E+00 0. -1.
         -1    1    6    6    0  503 -0.29361887112E+03  0.25055428500E+02 -0.14959246325E+04  0.15246738412E+04  0.00000000000E+00 0.  1.
<mgrwt>
<rscale>  0 0.28319874E+04</rscale>
<asrwt>0</asrwt>
<pdfrwt beam="1">  1        2 0.43536777E+00 0.28319874E+04</pdfrwt>
<pdfrwt beam="2">  1       -1 0.10900331E+00 0.28319874E+04</pdfrwt>
<totfact> 0.17051766E+00</totfact>
</mgrwt>
</event>
<event>
12    6  0.1540825E-007  0.1638043E+04  0.7818608E-02  0.8797512E-01
         -1   -1    0    0    0  501 -0.00000000000E+00  0.00000000000E+00  0.33210871487E+03  0.33210871487E+03  0.00000000000E+00 0.  1.
          2   -1    0    0  501    0  0.00000000000E+00 -0.00000000000E+00 -0.20198083292E+04  0.20198083292E+04  0.00000000000E+00 0. -1.
         24    2    1    2    0    0  0.24839651346E+03 -0.45158689918E+03 -0.99203535284E+03  0.11207850828E+04  0.79959396392E+02 0.  0.
        254    2    1    2    0    0 -0.24839651346E+03  0.45158689918E+03 -0.69566426153E+03  0.12311319613E+04  0.87527457751E+03 0.  0.
         23    2    4    4    0    0  0.20111421655E+03  0.16449054163E+03  0.78246041598E+02  0.28561918592E+03  0.89172921635E+02 0.  0.
         23    2    4    4    0    0 -0.44951073001E+03  0.28709635754E+03 -0.77391030313E+03  0.94551277541E+03  0.10282527063E+03 0.  0.
          2    1    3    3  502    0  0.22629465482E+03 -0.34503144352E+03 -0.77527248040E+03  0.87823879821E+03  0.00000000000E+00 0. -1.
         -1    1    3    3    0  502  0.22101858638E+02 -0.10655545565E+03 -0.21676287244E+03  0.24254628456E+03  0.00000000000E+00 0.  1.
         11    1    5    5    0    0  0.14948117281E+03  0.89333325628E+02  0.15285904088E+02  0.17481053446E+03  0.00000000000E+00 0.  1.
        -11    1    5    5    0    0  0.51633043738E+02  0.75157216006E+02  0.62960137510E+02  0.11080865146E+03  0.00000000000E+00 0. -1.
          1    1    6    6  503    0 -0.44263649027E+03  0.26432709275E+03 -0.75866665892E+03  0.91726276161E+03  0.00000000000E+00 0. -1.
         -1    1    6    6    0  503 -0.68742397405E+01  0.22769264794E+02 -0.15243644204E+02  0.28250013804E+02  0.00000000000E+00 0.  1.
<mgrwt>
<rscale>  0 0.16380427E+04</rscale>
<asrwt>0</asrwt>
<pdfrwt beam="1">  1        2 0.31073974E+00 0.16380427E+04</pdfrwt>
<pdfrwt beam="2">  1       -1 0.51093649E-01 0.16380427E+04</pdfrwt>
<totfact> 0.27325601E+01</totfact>
</mgrwt>
</event>
<event>
12    6  0.1540825E-007  0.2474216E+04  0.7818608E-02  0.8412229E-01
          2   -1    0    0  501    0  0.00000000000E+00  0.00000000000E+00  0.19190352939E+04  0.19190352939E+04  0.00000000000E+00 0. -1.
         -1   -1    0    0    0  501 -0.00000000000E+00 -0.00000000000E+00 -0.79750293118E+03  0.79750293118E+03  0.00000000000E+00 0.  1.
         24    2    1    2    0    0  0.80634880346E+03 -0.48499270567E+02  0.12603916947E+04  0.14987957034E+04  0.72462159465E+02 0.  0.
        254    2    1    2    0    0 -0.80634880346E+03  0.48499270567E+02 -0.13885933190E+03  0.12177425217E+04  0.90059111868E+03 0.  0.
         23    2    4    4    0    0 -0.40900056714E+03  0.30152053501E+02  0.37413579184E+03  0.56258916319E+03  0.91314651328E+02 0.  0.
         23    2    4    4    0    0 -0.39734823631E+03  0.18347217066E+02 -0.51299512373E+03  0.65515335852E+03  0.88541995294E+02 0.  0.
          2    1    3    3  502    0  0.55959629667E+03 -0.51586301964E+02  0.92647336544E+03  0.10835875870E+04  0.00000000000E+00 0. -1.
         -1    1    3    3    0  502  0.24675250678E+03  0.30870313969E+01  0.33391832921E+03  0.41520811643E+03  0.00000000000E+00 0.  1.
         11    1    5    5    0    0 -0.40481528614E+03  0.17851444464E+02  0.35117518963E+03  0.53620714633E+03  0.00000000000E+00 0. -1.
        -11    1    5    5    0    0 -0.41852810023E+01  0.12300609037E+02  0.22960602206E+02  0.26382016856E+02  0.00000000000E+00 0.  1.
          4    1    6    6  503    0 -0.33155749068E+02 -0.21402650249E+02 -0.33809648136E+02  0.51966041229E+02  0.00000000000E+00 0.  1.
         -4    1    6    6    0  503 -0.36419248725E+03  0.39749867315E+02 -0.47918547560E+03  0.60318731729E+03  0.00000000000E+00 0. -1.
<mgrwt>
<rscale>  0 0.24742161E+04</rscale>
<asrwt>0</asrwt>
<pdfrwt beam="1">  1        2 0.29523620E+00 0.24742161E+04</pdfrwt>
<pdfrwt beam="2">  1       -1 0.12269276E+00 0.24742161E+04</pdfrwt>
<totfact> 0.44181622E+00</totfact>
</mgrwt>
</event>
<event>
12    6  0.1540825E-007  0.2005139E+04  0.7818608E-02  0.8604222E-01
          2   -1    0    0  501    0  0.00000000000E+00  0.00000000000E+00  0.25650615305E+04  0.25650615305E+04  0.00000000000E+00 0. -1.
         -1   -1    0    0    0  501 -0.00000000000E+00 -0.00000000000E+00 -0.39186022240E+03  0.39186022240E+03  0.00000000000E+00 0.  1.
         24    2    1    2    0    0 -0.21839096381E+03  0.52669087089E+02 -0.25843778706E+03  0.35556031117E+03  0.95730869057E+02 0.  0.
        254    2    1    2    0    0  0.21839096381E+03 -0.52669087089E+02  0.24316390951E+04  0.26013614417E+04  0.89651771627E+03 0.  0.
         23    2    4    4    0    0 -0.59374746822E+02  0.24189157352E+03  0.19386580687E+04  0.19567278205E+04  0.91387975791E+02 0.  0.
         23    2    4    4    0    0  0.27776571063E+03 -0.29456066060E+03  0.49298102638E+03  0.64463362119E+03  0.92749341909E+02 0.  0.
          2    1    3    3  502    0 -0.33715776439E+02  0.48990932750E+02 -0.61236472043E+02  0.85362583026E+02  0.00000000000E+00 0. -1.
         -1    1    3    3    0  502 -0.18467518737E+03  0.36781543385E+01 -0.19720131501E+03  0.27019772814E+03  0.00000000000E+00 0.  1.
         11    1    5    5    0    0 -0.32013484344E+02  0.22145371173E+03  0.18032531651E+04  0.18170824382E+04  0.00000000000E+00 0. -1.
        -11    1    5    5    0    0 -0.27361262477E+02  0.20437861790E+02  0.13540490361E+03  0.13964538231E+03  0.00000000000E+00 0.  1.
          3    1    6    6  503    0  0.12547381933E+03 -0.13944064303E+03  0.15778330252E+03  0.24511822213E+03  0.00000000000E+00 0. -1.
         -3    1    6    6    0  503  0.15229189130E+03 -0.15512001757E+03  0.33519772386E+03  0.39951539906E+03  0.00000000000E+00 0.  1.
<mgrwt>
<rscale>  0 0.20051390E+04</rscale>
<asrwt>0</asrwt>
<pdfrwt beam="1">  1        2 0.39462484E+00 0.20051390E+04</pdfrwt>
<pdfrwt beam="2">  1       -1 0.60286190E-01 0.20051390E+04</pdfrwt>
<totfact> 0.94158587E+00</totfact>
</mgrwt>
</event>
<event>
12    6  0.1540825E-007  0.1346881E+04  0.7818608E-02  0.8993192E-01
         -1   -1    0    0    0  501 -0.00000000000E+00  0.00000000000E+00  0.24351374250E+03  0.24351374250E+03  0.00000000000E+00 0.  1.
          2   -1    0    0  501    0  0.00000000000E+00 -0.00000000000E+00 -0.18624092325E+04  0.18624092325E+04  0.00000000000E+00 0. -1.
         24    2    1    2    0    0  0.60712954363E+01 -0.11405192036E+03 -0.99401600724E+03  0.10036195466E+04  0.78356049094E+02 0.  0.
        254    2    1    2    0    0 -0.60712954363E+01  0.11405192036E+03 -0.62487948272E+03  0.11023034284E+04  0.90086279708E+03 0.  0.
         23    2    4    4    0    0  0.31274477218E+03  0.30442671177E+03 -0.55654289984E+03  0.71300164836E+03  0.90257608235E+02 0.  0.
         23    2    4    4    0    0 -0.31881606762E+03 -0.19037479141E+03 -0.68336582888E+02  0.38930178004E+03  0.94866965832E+02 0.  0.
          4    1    3    3  502    0  0.95250369916E+01 -0.91509169659E+02 -0.94599347310E+03  0.95045689309E+03  0.00000000000E+00 0. -1.
         -3    1    3    3    0  502 -0.34537415553E+01 -0.22542750700E+02 -0.48022534139E+02  0.53162653480E+02  0.00000000000E+00 0.  1.
         11    1    5    5    0    0  0.95633532925E+02  0.14705278953E+03 -0.18669726798E+03  0.25617604376E+03  0.00000000000E+00 0.  1.
        -11    1    5    5    0    0  0.21711123926E+03  0.15737392224E+03 -0.36984563186E+03  0.45682560460E+03  0.00000000000E+00 0. -1.
          2    1    6    6  503    0 -0.30404322748E+03 -0.19874756738E+03 -0.54309904289E+02  0.36727706901E+03  0.00000000000E+00 0. -1.
         -2    1    6    6    0  503 -0.14772840140E+02  0.83727759784E+01 -0.14026678599E+02  0.22024711029E+02  0.00000000000E+00 0.  1.
<mgrwt>
<rscale>  0 0.13468812E+04</rscale>
<asrwt>0</asrwt>
<pdfrwt beam="1">  1        2 0.28652449E+00 0.13468812E+04</pdfrwt>
<pdfrwt beam="2">  1       -1 0.37463653E-01 0.13468812E+04</pdfrwt>
<totfact> 0.60877225E+01</totfact>
</mgrwt>
</event>
<event>
12    6  0.1540825E-007  0.1677309E+04  0.7818608E-02  0.8774413E-01
          2   -1    0    0  501    0  0.00000000000E+00  0.00000000000E+00  0.12507056949E+04  0.12507056949E+04  0.00000000000E+00 0. -1.
         -1   -1    0    0    0  501 -0.00000000000E+00 -0.00000000000E+00 -0.56235584520E+03  0.56235584520E+03  0.00000000000E+00 0.  1.
         24    2    1    2    0    0  0.11943105743E+03 -0.29065609235E+03 -0.30070433481E+03  0.44220877500E+03  0.79879673367E+02 0.  0.
        254    2    1    2    0    0 -0.11943105743E+03  0.29065609235E+03  0.98905418449E+03  0.13708527651E+04  0.89569212466E+03 0.  0.
         23    2    4    4    0    0 -0.31451880892E+03  0.48050372403E+03  0.37041996281E+03  0.68944345861E+03  0.91188945567E+02 0.  0.
         23    2    4    4    0    0  0.19508775149E+03 -0.18984763168E+03  0.61863422168E+03  0.68140930648E+03  0.86654421015E+02 0.  0.
          4    1    3    3  502    0 -0.32839267858E+01 -0.80429273596E+01 -0.32755972623E+02  0.33888443431E+02  0.00000000000E+00 0. -1.
         -3    1    3    3    0  502  0.12271498421E+03 -0.28261316499E+03 -0.26794836218E+03  0.40832033157E+03  0.00000000000E+00 0.  1.
         11    1    5    5    0    0 -0.18384284507E+03  0.23437641625E+03  0.14646622119E+03  0.33193802152E+03  0.00000000000E+00 0. -1.
        -11    1    5    5    0    0 -0.13067596385E+03  0.24612730778E+03  0.22395374162E+03  0.35750543709E+03  0.00000000000E+00 0.  1.
          4    1    6    6  503    0  0.72169204794E+02 -0.66535580649E+02  0.33036358252E+03  0.34463817878E+03  0.00000000000E+00 0. -1.
         -4    1    6    6    0  503  0.12291854670E+03 -0.12331205103E+03  0.28827063916E+03  0.33677112770E+03  0.00000000000E+00 0.  1.
<mgrwt>
<rscale>  0 0.16773093E+04</rscale>
<asrwt>0</asrwt>
<pdfrwt beam="1">  1        2 0.19241626E+00 0.16773093E+04</pdfrwt>
<pdfrwt beam="2">  1       -1 0.86516284E-01 0.16773093E+04</pdfrwt>
<totfact> 0.25302316E+01</totfact>
</mgrwt>
</event>
<event>
12    6  0.1918210E-007  0.1418763E+04  0.7818608E-02  0.8940348E-01
         -1   -1    0    0    0  501 -0.00000000000E+00  0.00000000000E+00  0.51300879033E+03  0.51300879033E+03  0.00000000000E+00 0.  1.
          2   -1    0    0  501    0  0.00000000000E+00 -0.00000000000E+00 -0.98092355186E+03  0.98092355186E+03  0.00000000000E+00 0. -1.
         24    2    1    2    0    0  0.33830146450E+03 -0.27401909054E+03 -0.12651174499E+03  0.46029145999E+03  0.79552898452E+02 0.  0.
        254    2    1    2    0    0 -0.33830146450E+03  0.27401909054E+03 -0.34140301655E+03  0.10336408822E+04  0.87311116748E+03 0.  0.
         23    2    4    4    0    0  0.16140257325E+03 -0.10095995932E+03  0.12757389103E+03  0.24719783706E+03  0.92671295112E+02 0.  0.
         23    2    4    4    0    0 -0.49970403775E+03  0.37497904986E+03 -0.46897690758E+03  0.78644304514E+03  0.90773951300E+02 0.  0.
          2    1    3    3  502    0  0.19985894656E+02 -0.29640264977E+02 -0.32064513383E+02  0.48022019028E+02  0.00000000000E+00 0. -1.
         -1    1    3    3    0  502  0.31831556984E+03 -0.24437882557E+03 -0.94447231603E+02  0.41226944096E+03  0.00000000000E+00 0.  1.
         11    1    5    5    0    0  0.16021918499E+02 -0.11512532300E+01 -0.13802612964E+02  0.21178748335E+02  0.00000000000E+00 0. -1.
        -11    1    5    5    0    0  0.14538065475E+03 -0.99808706090E+02  0.14137650399E+03  0.22601908872E+03  0.00000000000E+00 0.  1.
          1    1    6    6  503    0 -0.32940975879E+02  0.31258335135E+01 -0.37569624012E+02  0.50063513414E+02  0.00000000000E+00 0. -1.
         -1    1    6    6    0  503 -0.46676306187E+03  0.37185321635E+03 -0.43140728357E+03  0.73637953173E+03  0.00000000000E+00 0.  1.
<mgrwt>
<rscale>  0 0.14187634E+04</rscale>
<asrwt>0</asrwt>
<pdfrwt beam="1">  1        2 0.15091132E+00 0.14187634E+04</pdfrwt>
<pdfrwt beam="2">  1       -1 0.78924429E-01 0.14187634E+04</pdfrwt>
<totfact> 0.46151909E+01</totfact>
</mgrwt>
</event>
<event>
12    6  0.1540825E-007  0.1700350E+04  0.7818608E-02  0.8761165E-01
          2   -1    0    0  501    0  0.00000000000E+00  0.00000000000E+00  0.26543124325E+04  0.26543124325E+04  0.00000000000E+00 0. -1.
         -1   -1    0    0    0  501 -0.00000000000E+00 -0.00000000000E+00 -0.27231063995E+03  0.27231063995E+03  0.00000000000E+00 0.  1.
         24    2    1    2    0    0 -0.39859618987E+03 -0.45954977914E+03  0.80296041612E+03  0.10105884664E+04  0.80490349958E+02 0.  0.
        254    2    1    2    0    0  0.39859618987E+03  0.45954977914E+03  0.15790413764E+04  0.19160346060E+04  0.89875025512E+03 0.  0.
         23    2    4    4    0    0  0.33289258401E+03  0.34760222562E+03  0.16651082429E+04  0.17356215666E+04  0.90288326422E+02 0.  0.
         23    2    4    4    0    0  0.65703605863E+02  0.11194755352E+03 -0.86066866541E+02  0.18041303947E+03  0.91061192241E+02 0.  0.
          2    1    3    3  502    0 -0.23923615874E+03 -0.29749144858E+03  0.56151229043E+03  0.67899274955E+03  0.00000000000E+00 0. -1.
         -1    1    3    3    0  502 -0.15936003113E+03 -0.16205833056E+03  0.24144812569E+03  0.33159571683E+03  0.00000000000E+00 0.  1.
         11    1    5    5    0    0  0.24436463185E+03  0.28120477924E+03  0.13908400098E+04  0.14398701796E+04  0.00000000000E+00 0.  1.
        -11    1    5    5    0    0  0.88527952155E+02  0.66397446381E+02  0.27426823312E+03  0.29575138697E+03  0.00000000000E+00 0. -1.
          1    1    6    6  503    0  0.28391915413E+02  0.12512083124E+02 -0.65159536763E+02  0.72169372424E+02  0.00000000000E+00 0. -1.
         -1    1    6    6    0  503  0.37311690450E+02  0.99435470397E+02 -0.20907329778E+02  0.10824366705E+03  0.00000000000E+00 0.  1.
<mgrwt>
<rscale>  0 0.17003500E+04</rscale>
<asrwt>0</asrwt>
<pdfrwt beam="1">  1        2 0.40835574E+00 0.17003500E+04</pdfrwt>
<pdfrwt beam="2">  1       -1 0.41893947E-01 0.17003500E+04</pdfrwt>
<totfact> 0.17174108E+01</totfact>
</mgrwt>
</event>
<event>
12    6  0.1540825E-007  0.2043125E+04  0.7818608E-02  0.8586720E-01
         -3   -1    0    0    0  501 -0.00000000000E+00  0.00000000000E+00  0.18181710184E+04  0.18181710184E+04  0.00000000000E+00 0.  1.
          2   -1    0    0  501    0  0.00000000000E+00 -0.00000000000E+00 -0.57397790554E+03  0.57397790554E+03  0.00000000000E+00 0. -1.
         24    2    1    2    0    0  0.69697479970E+03  0.41977667397E+03  0.63518233524E+03  0.10340386066E+04  0.61586633492E+02 0.  0.
        254    2    1    2    0    0 -0.69697479970E+03 -0.41977667397E+03  0.60901077762E+03  0.13581103174E+04  0.90087911481E+03 0.  0.
         23    2    4    4    0    0 -0.30653153619E+03 -0.65407298771E+03  0.25018520592E+03  0.77105932977E+03  0.10083053519E+03 0.  0.
         23    2    4    4    0    0 -0.39044326351E+03  0.23429631374E+03  0.35882557170E+03  0.58705098761E+03  0.92370809800E+02 0.  0.
          2    1    3    3  502    0  0.58467080838E+03  0.37438629423E+03  0.55411581990E+03  0.88828452274E+03  0.00000000000E+00 0. -1.
         -1    1    3    3    0  502  0.11230399133E+03  0.45390379737E+02  0.81066515337E+02  0.14575408382E+03  0.00000000000E+00 0.  1.
         11    1    5    5    0    0 -0.11204180095E+03 -0.14564132083E+03  0.43900782250E+02  0.18892336588E+03  0.00000000000E+00 0.  1.
        -11    1    5    5    0    0 -0.19448973524E+03 -0.50843166688E+03  0.20628442367E+03  0.58213596389E+03  0.00000000000E+00 0. -1.
          3    1    6    6  503    0 -0.39492754343E+03  0.22563056971E+03  0.35036273412E+03  0.57413497020E+03  0.00000000000E+00 0. -1.
         -3    1    6    6    0  503  0.44842799192E+01  0.86657440308E+01  0.84628375808E+01  0.12916017417E+02  0.00000000000E+00 0.  1.
<mgrwt>
<rscale>  0 0.20431251E+04</rscale>
<asrwt>0</asrwt>
<pdfrwt beam="1">  1        2 0.88304294E-01 0.20431251E+04</pdfrwt>
<pdfrwt beam="2">  1       -3 0.27971862E+00 0.20431251E+04</pdfrwt>
<totfact> 0.14951867E+00</totfact>
</mgrwt>
</event>
<event>
12    6  0.1540825E-007  0.1438757E+04  0.7818608E-02  0.8926233E-01
         -1   -1    0    0    0  501 -0.00000000000E+00  0.00000000000E+00  0.18093417375E+04  0.18093417375E+04  0.00000000000E+00 0.  1.
          2   -1    0    0  501    0  0.00000000000E+00 -0.00000000000E+00 -0.28601851781E+03  0.28601851781E+03  0.00000000000E+00 0. -1.
         24    2    1    2    0    0  0.18866161149E+02  0.35564443436E+03  0.10926812493E+03  0.38092265447E+03  0.79521379718E+02 0.  0.
        254    2    1    2    0    0 -0.18866161149E+02 -0.35564443436E+03  0.14140550947E+04  0.17144376008E+04  0.90161276632E+03 0.  0.
         23    2    4    4    0    0  0.28614026010E+03 -0.26256741239E+03  0.13063428821E+04  0.13656193518E+04  0.86986170106E+02 0.  0.
         23    2    4    4    0    0 -0.30500642125E+03 -0.93077021972E+02  0.10771221259E+03  0.34881824901E+03  0.91542345810E+02 0.  0.
          4    1    3    3  502    0  0.33181473578E+02  0.29896290389E+03  0.11532474876E+03  0.32214845299E+03  0.00000000000E+00 0. -1.
         -3    1    3    3    0  502 -0.14315312428E+02  0.56681530470E+02 -0.60566238287E+01  0.58774201471E+02  0.00000000000E+00 0.  1.
         11    1    5    5    0    0  0.25919218200E+03 -0.23382177869E+03  0.12424303691E+04  0.12905372655E+04  0.00000000000E+00 0. -1.
        -11    1    5    5    0    0  0.26948078105E+02 -0.28745633696E+02  0.63912513018E+02  0.75082086349E+02  0.00000000000E+00 0.  1.
          1    1    6    6  503    0 -0.25936472179E+03 -0.10877673465E+03  0.76972141723E+02  0.29159414862E+03  0.00000000000E+00 0. -1.
         -1    1    6    6    0  503 -0.45641699463E+02  0.15699712677E+02  0.30740070870E+02  0.57224100387E+02  0.00000000000E+00 0.  1.
<mgrwt>
<rscale>  0 0.14387567E+04</rscale>
<asrwt>0</asrwt>
<pdfrwt beam="1">  1        2 0.44002850E-01 0.14387567E+04</pdfrwt>
<pdfrwt beam="2">  1       -1 0.27836026E+00 0.14387567E+04</pdfrwt>
<totfact> 0.58830478E+00</totfact>
</mgrwt>
</event>
<event>
12    6  0.1540825E-007  0.1490546E+04  0.7818608E-02  0.8890764E-01
          2   -1    0    0  501    0  0.00000000000E+00  0.00000000000E+00  0.65500992424E+03  0.65500992424E+03  0.00000000000E+00 0. -1.
         -1   -1    0    0    0  501 -0.00000000000E+00 -0.00000000000E+00 -0.84797526281E+03  0.84797526281E+03  0.00000000000E+00 0.  1.
         24    2    1    2    0    0  0.33635304334E+02 -0.44187153442E+03  0.81861557914E+02  0.45743315634E+03  0.78498351774E+02 0.  0.
        254    2    1    2    0    0 -0.33635304334E+02  0.44187153442E+03 -0.27482689649E+03  0.10455520307E+04  0.90623806985E+03 0.  0.
         23    2    4    4    0    0 -0.24855397112E+03 -0.15705977083E+03 -0.26004099626E+03  0.40289184046E+03  0.90849695625E+02 0.  0.
         23    2    4    4    0    0  0.21491866679E+03  0.59893130525E+03 -0.14785900226E+02  0.64266019024E+03  0.88796145951E+02 0.  0.
          4    1    3    3  502    0 -0.12861962735E+02 -0.27793774247E+03  0.68290072309E+02  0.28649319844E+03  0.00000000000E+00 0. -1.
         -3    1    3    3    0  502  0.46497267069E+02 -0.16393379195E+03  0.13571485605E+02  0.17093995791E+03  0.00000000000E+00 0.  1.
         11    1    5    5    0    0 -0.34640076586E+02 -0.66262384897E+02 -0.74148782217E+02  0.10530280368E+03  0.00000000000E+00 0. -1.
        -11    1    5    5    0    0 -0.21391389454E+03 -0.90797385935E+02 -0.18589221404E+03  0.29758903678E+03  0.00000000000E+00 0.  1.
          3    1    6    6  503    0  0.69164179726E+02  0.18479679004E+03 -0.45697139284E+02  0.20253830726E+03  0.00000000000E+00 0. -1.
         -3    1    6    6    0  503  0.14575448706E+03  0.41413451521E+03  0.30911239057E+02  0.44012188299E+03  0.00000000000E+00 0.  1.
<mgrwt>
<rscale>  0 0.14905465E+04</rscale>
<asrwt>0</asrwt>
<pdfrwt beam="1">  1        2 0.10077076E+00 0.14905465E+04</pdfrwt>
<pdfrwt beam="2">  1       -1 0.13045773E+00 0.14905465E+04</pdfrwt>
<totfact> 0.24732617E+01</totfact>
</mgrwt>
</event>
<event>
12    6  0.1540825E-007  0.2279067E+04  0.7818608E-02  0.8486221E-01
         -1   -1    0    0    0  501 -0.00000000000E+00  0.00000000000E+00  0.11362475579E+04  0.11362475579E+04  0.00000000000E+00 0.  1.
          2   -1    0    0  501    0  0.00000000000E+00 -0.00000000000E+00 -0.11428290050E+04  0.11428290050E+04  0.00000000000E+00 0. -1.
         24    2    1    2    0    0 -0.22641186441E+03 -0.48567651655E+03 -0.80039978309E+03  0.96671617718E+03  0.82196979167E+02 0.  0.
        254    2    1    2    0    0  0.22641186441E+03  0.48567651655E+03  0.79381833604E+03  0.13123603857E+04  0.89721693049E+03 0.  0.
         23    2    4    4    0    0  0.41106023895E+03  0.44781245350E+03  0.14798427072E+03  0.63287408493E+03  0.95518319935E+02 0.  0.
         23    2    4    4    0    0 -0.18464837454E+03  0.37864063052E+02  0.64583406532E+03  0.67948630082E+03  0.95243286279E+02 0.  0.
          2    1    3    3  502    0 -0.23017364980E+03 -0.48026973026E+03 -0.79858544734E+03  0.95988418029E+03  0.00000000000E+00 0. -1.
         -1    1    3    3    0  502  0.37617853868E+01 -0.54067862937E+01 -0.18143357416E+01  0.68319968900E+01  0.00000000000E+00 0.  1.
         11    1    5    5    0    0  0.10946080635E+03  0.18651572390E+03  0.54422353547E+02  0.22300577561E+03  0.00000000000E+00 0.  1.
        -11    1    5    5    0    0  0.30159943260E+03  0.26129672960E+03  0.93561917177E+02  0.40986830932E+03  0.00000000000E+00 0. -1.
          1    1    6    6  503    0 -0.74223659363E+02  0.63092954169E+02  0.27540995297E+03  0.29213098889E+03  0.00000000000E+00 0. -1.
         -1    1    6    6    0  503 -0.11042471517E+03 -0.25228891117E+02  0.37042411234E+03  0.38735531192E+03  0.00000000000E+00 0.  1.
<mgrwt>
<rscale>  0 0.22790671E+04</rscale>
<asrwt>0</asrwt>
<pdfrwt beam="1">  1        2 0.17581985E+00 0.22790671E+04</pdfrwt>
<pdfrwt beam="2">  1       -1 0.17480732E+00 0.22790671E+04</pdfrwt>
<totfact> 0.48181349E+00</totfact>
</mgrwt>
</event>
<event>
12    6  0.1540825E-007  0.1250067E+04  0.7818608E-02  0.9070127E-01
          2   -1    0    0  501    0  0.00000000000E+00  0.00000000000E+00  0.74853890283E+03  0.74853890283E+03  0.00000000000E+00 0. -1.
         -1   -1    0    0    0  501 -0.00000000000E+00 -0.00000000000E+00 -0.52190615975E+03  0.52190615975E+03  0.00000000000E+00 0.  1.
         24    2    1    2    0    0  0.28471228484E+03  0.11642382752E+02  0.23957400073E+03  0.38336249533E+03  0.91512134633E+02 0.  0.
        254    2    1    2    0    0 -0.28471228484E+03 -0.11642382752E+02 -0.12941257650E+02  0.88708256726E+03  0.83997105591E+03 0.  0.
         23    2    4    4    0    0  0.20965272536E+03  0.28242114011E+02 -0.24125243677E+03  0.33381304737E+03  0.92068073145E+02 0.  0.
         23    2    4    4    0    0 -0.49436501020E+03 -0.39884496763E+02  0.22831117912E+03  0.55326951989E+03  0.89407106747E+02 0.  0.
          4    1    3    3  502    0  0.25161318189E+03 -0.95658419805E+01  0.23384990533E+03  0.34363712962E+03  0.00000000000E+00 0. -1.
         -3    1    3    3    0  502  0.33099102943E+02  0.21208224733E+02  0.57240954005E+01  0.39725365702E+02  0.00000000000E+00 0.  1.
         11    1    5    5    0    0  0.11713865757E+03  0.59254091373E+02 -0.15906428057E+03  0.20623762458E+03  0.00000000000E+00 0. -1.
        -11    1    5    5    0    0  0.92514067793E+02 -0.31011977362E+02 -0.82188156201E+02  0.12757542279E+03  0.00000000000E+00 0.  1.
          1    1    6    6  503    0 -0.27265498676E+03 -0.57635849247E+02  0.97551815478E+02  0.29526088401E+03  0.00000000000E+00 0. -1.
         -1    1    6    6    0  503 -0.22171002344E+03  0.17751352485E+02  0.13075936364E+03  0.25800863588E+03  0.00000000000E+00 0.  1.
<mgrwt>
<rscale>  0 0.12500673E+04</rscale>
<asrwt>0</asrwt>
<pdfrwt beam="1">  1        2 0.11515983E+00 0.12500673E+04</pdfrwt>
<pdfrwt beam="2">  1       -1 0.80293255E-01 0.12500673E+04</pdfrwt>
<totfact> 0.65380355E+01</totfact>
</mgrwt>
</event>
<event>
12    6  0.1540825E-007  0.1565002E+04  0.7818608E-02  0.8842342E-01
          2   -1    0    0  501    0  0.00000000000E+00  0.00000000000E+00  0.97929688456E+03  0.97929688456E+03  0.00000000000E+00 0. -1.
         -1   -1    0    0    0  501 -0.00000000000E+00 -0.00000000000E+00 -0.62525269051E+03  0.62525269051E+03  0.00000000000E+00 0.  1.
         24    2    1    2    0    0  0.12765167666E+03 -0.23086394650E+03  0.58322436430E+03  0.64525523074E+03  0.81305235590E+02 0.  0.
        254    2    1    2    0    0 -0.12765167666E+03  0.23086394650E+03 -0.22918017024E+03  0.95929434434E+03  0.89338064469E+03 0.  0.
         23    2    4    4    0    0  0.35302557068E+03  0.15846238330E+03 -0.23924325679E+03  0.46426116348E+03  0.92540323732E+02 0.  0.
         23    2    4    4    0    0 -0.48067724734E+03  0.72401563199E+02  0.10063086544E+02  0.49503318086E+03  0.93080513425E+02 0.  0.
          2    1    3    3  502    0  0.74661432615E+02 -0.56318550942E+02  0.20666729845E+03  0.22684241435E+03  0.00000000000E+00 0. -1.
         -1    1    3    3    0  502  0.52990244040E+02 -0.17454539556E+03  0.37655706585E+03  0.41841281638E+03  0.00000000000E+00 0.  1.
         11    1    5    5    0    0  0.83145175795E+01  0.17886107597E+02 -0.33609911923E+02  0.38970119669E+02  0.00000000000E+00 0. -1.
        -11    1    5    5    0    0  0.34471105310E+03  0.14057627571E+03 -0.20563334487E+03  0.42529104381E+03  0.00000000000E+00 0.  1.
          1    1    6    6  503    0 -0.25032409876E+02  0.11280312253E+02  0.21952161854E+02  0.35153440782E+02  0.00000000000E+00 0. -1.
         -1    1    6    6    0  503 -0.45564483746E+03  0.61121250946E+02 -0.11889075310E+02  0.45987974008E+03  0.00000000000E+00 0.  1.
<mgrwt>
<rscale>  0 0.15650023E+04</rscale>
<asrwt>0</asrwt>
<pdfrwt beam="1">  1        2 0.15066106E+00 0.15650023E+04</pdfrwt>
<pdfrwt beam="2">  1       -1 0.96192721E-01 0.15650023E+04</pdfrwt>
<totfact> 0.29675938E+01</totfact>
</mgrwt>
</event>
<event>
12    6  0.1540825E-007  0.1711594E+04  0.7818608E-02  0.8754779E-01
         -1   -1    0    0    0  501 -0.00000000000E+00  0.00000000000E+00  0.86212301897E+03  0.86212301897E+03  0.00000000000E+00 0.  1.
          2   -1    0    0  501    0  0.00000000000E+00 -0.00000000000E+00 -0.84951747254E+03  0.84951747254E+03  0.00000000000E+00 0. -1.
         24    2    1    2    0    0 -0.56705991797E+03 -0.16148608862E+03 -0.15867985954E+03  0.61513042889E+03  0.74642074792E+02 0.  0.
        254    2    1    2    0    0  0.56705991797E+03  0.16148608862E+03  0.17128540597E+03  0.10965100626E+04  0.90849376428E+03 0.  0.
         23    2    4    4    0    0  0.71975222282E+03 -0.92051694185E+02  0.25711500494E+03  0.77551698950E+03  0.93817368155E+02 0.  0.
         23    2    4    4    0    0 -0.15269230485E+03  0.25353778280E+03 -0.85829598967E+02  0.32099307313E+03  0.89852577406E+02 0.  0.
          2    1    3    3  502    0 -0.48156346965E+03 -0.15506193345E+03 -0.15574377739E+03  0.52934270818E+03  0.00000000000E+00 0. -1.
         -1    1    3    3    0  502 -0.85496448327E+02 -0.64241551654E+01 -0.29360821479E+01  0.85787720709E+02  0.00000000000E+00 0.  1.
         11    1    5    5    0    0  0.27921999246E+01 -0.42169356476E+01  0.11528087290E+02  0.12588714121E+02  0.00000000000E+00 0. -1.
        -11    1    5    5    0    0  0.71696002290E+03 -0.87834758537E+02  0.24558691765E+03  0.76292827537E+03  0.00000000000E+00 0.  1.
          2    1    6    6  503    0 -0.90935407201E+02  0.22053956731E+03 -0.75506191630E+02  0.25021617455E+03  0.00000000000E+00 0. -1.
         -2    1    6    6    0  503 -0.61756897650E+02  0.32998215496E+02 -0.10323407337E+02  0.70776898578E+02  0.00000000000E+00 0.  1.
<mgrwt>
<rscale>  0 0.17115941E+04</rscale>
<asrwt>0</asrwt>
<pdfrwt beam="1">  1        2 0.13069499E+00 0.17115941E+04</pdfrwt>
<pdfrwt beam="2">  1       -1 0.13263431E+00 0.17115941E+04</pdfrwt>
<totfact> 0.16614134E+01</totfact>
</mgrwt>
</event>
<event>
12    6  0.1540825E-007  0.2246301E+04  0.7818608E-02  0.8499400E-01
         -1   -1    0    0    0  501 -0.00000000000E+00  0.00000000000E+00  0.12222217505E+04  0.12222217505E+04  0.00000000000E+00 0.  1.
          2   -1    0    0  501    0  0.00000000000E+00 -0.00000000000E+00 -0.10321102162E+04  0.10321102162E+04  0.00000000000E+00 0. -1.
         24    2    1    2    0    0 -0.64793091984E+03 -0.32845254860E+03  0.68835995659E+03  0.10046405149E+04  0.88133879528E+02 0.  0.
        254    2    1    2    0    0  0.64793091984E+03  0.32845254860E+03 -0.49824842231E+03  0.12496914518E+04  0.88644327561E+03 0.  0.
         23    2    4    4    0    0  0.96867790198E+02 -0.22812998319E+03 -0.36437089774E+03  0.45021408938E+03  0.92194995255E+02 0.  0.
         23    2    4    4    0    0  0.55106312965E+03  0.55658253179E+03 -0.13387752457E+03  0.79947736245E+03  0.88239299283E+02 0.  0.
          2    1    3    3  502    0 -0.29387647426E+03 -0.10015308501E+03  0.29104218204E+03  0.42555795643E+03  0.00000000000E+00 0. -1.
         -1    1    3    3    0  502 -0.35405444558E+03 -0.22829946359E+03  0.39731777456E+03  0.57908255844E+03  0.00000000000E+00 0.  1.
         11    1    5    5    0    0  0.67595687567E+02 -0.12281438384E+03 -0.12817380516E+03  0.18995018869E+03  0.00000000000E+00 0.  1.
        -11    1    5    5    0    0  0.29272102631E+02 -0.10531559936E+03 -0.23619709257E+03  0.26026390069E+03  0.00000000000E+00 0. -1.
          4    1    6    6  503    0  0.44565208788E+03  0.39645042026E+03 -0.10026384280E+03  0.60484010890E+03  0.00000000000E+00 0. -1.
         -4    1    6    6    0  503  0.10541104176E+03  0.16013211153E+03 -0.33613681774E+02  0.19463725355E+03  0.00000000000E+00 0.  1.
<mgrwt>
<rscale>  0 0.22463015E+04</rscale>
<asrwt>0</asrwt>
<pdfrwt beam="1">  1        2 0.15878619E+00 0.22463015E+04</pdfrwt>
<pdfrwt beam="2">  1       -1 0.18803412E+00 0.22463015E+04</pdfrwt>
<totfact> 0.45509970E+00</totfact>
</mgrwt>
</event>
<event>
12    6  0.1540825E-007  0.2089673E+04  0.7818608E-02  0.8565806E-01
          2   -1    0    0  501    0  0.00000000000E+00  0.00000000000E+00  0.16999187950E+04  0.16999187950E+04  0.00000000000E+00 0. -1.
         -1   -1    0    0    0  501 -0.00000000000E+00 -0.00000000000E+00 -0.64219709900E+03  0.64219709900E+03  0.00000000000E+00 0.  1.
         24    2    1    2    0    0 -0.29022266242E+03 -0.47570622903E+03 -0.28927636306E+03  0.63302394826E+03  0.80702507552E+02 0.  0.
        254    2    1    2    0    0  0.29022266242E+03  0.47570622903E+03  0.13469980591E+04  0.17090919458E+04  0.89222525059E+03 0.  0.
         23    2    4    4    0    0 -0.11194773385E+03  0.59567881997E+03  0.90242148131E+03  0.10909394163E+04  0.91753628508E+02 0.  0.
         23    2    4    4    0    0  0.40217039627E+03 -0.11997259094E+03  0.44457657776E+03  0.61815252949E+03  0.91267551815E+02 0.  0.
          2    1    3    3  502    0 -0.36282225285E+02 -0.70192608498E+02 -0.11709758613E+02  0.79878161008E+02  0.00000000000E+00 0. -1.
         -1    1    3    3    0  502 -0.25394043714E+03 -0.40551362053E+03 -0.27756660445E+03  0.55314578725E+03  0.00000000000E+00 0.  1.
         11    1    5    5    0    0 -0.13063059654E+02  0.26118681934E+03  0.33665538915E+03  0.42629338391E+03  0.00000000000E+00 0. -1.
        -11    1    5    5    0    0 -0.98884674199E+02  0.33449200063E+03  0.56576609216E+03  0.66464603235E+03  0.00000000000E+00 0.  1.
          3    1    6    6  503    0  0.48664009734E+02 -0.47858140400E+02  0.81425226658E+02  0.10624808225E+03  0.00000000000E+00 0. -1.
         -3    1    6    6    0  503  0.35350638654E+03 -0.72114450539E+02  0.36315135110E+03  0.51190444724E+03  0.00000000000E+00 0.  1.
<mgrwt>
<rscale>  0 0.20896726E+04</rscale>
<asrwt>0</asrwt>
<pdfrwt beam="1">  1        2 0.26152597E+00 0.20896726E+04</pdfrwt>
<pdfrwt beam="2">  1       -1 0.98799554E-01 0.20896726E+04</pdfrwt>
<totfact> 0.10093816E+01</totfact>
</mgrwt>
</event>
<event>
12    6  0.1540825E-007  0.1255476E+04  0.7818608E-02  0.9065638E-01
          2   -1    0    0  501    0  0.00000000000E+00  0.00000000000E+00  0.40954730620E+03  0.40954730620E+03  0.00000000000E+00 0. -1.
         -1   -1    0    0    0  501 -0.00000000000E+00 -0.00000000000E+00 -0.96217198581E+03  0.96217198581E+03  0.00000000000E+00 0.  1.
         24    2    1    2    0    0  0.76004445939E+02 -0.16202464162E+03  0.12640445213E+03  0.23346073392E+03  0.80605015161E+02 0.  0.
        254    2    1    2    0    0 -0.76004445939E+02  0.16202464162E+03 -0.67902913174E+03  0.11382585581E+04  0.89583666088E+03 0.  0.
         23    2    4    4    0    0  0.63637606976E+01  0.40175184897E+03 -0.75340351867E+03  0.85886658923E+03  0.92681770286E+02 0.  0.
         23    2    4    4    0    0 -0.82368206636E+02 -0.23972720735E+03  0.74374386928E+02  0.27939196885E+03  0.90965198954E+02 0.  0.
          4    1    3    3  502    0  0.88600478559E+02 -0.15079946843E+03  0.12766998288E+03  0.21654133326E+03  0.00000000000E+00 0. -1.
         -3    1    3    3    0  502 -0.12596032621E+02 -0.11225173190E+02 -0.12655307402E+01  0.16919400669E+02  0.00000000000E+00 0.  1.
         11    1    5    5    0    0  0.26439758697E+02  0.35367417388E+03 -0.60147211190E+03  0.69825008665E+03  0.00000000000E+00 0. -1.
        -11    1    5    5    0    0 -0.20075997999E+02  0.48077675094E+02 -0.15193140677E+03  0.16061650258E+03  0.00000000000E+00 0.  1.
          4    1    6    6  503    0 -0.72000762171E+02 -0.21465284334E+03  0.94777112703E+02  0.24544378990E+03  0.00000000000E+00 0. -1.
         -4    1    6    6    0  503 -0.10367444466E+02 -0.25074364002E+02 -0.20402725776E+02  0.33948178949E+02  0.00000000000E+00 0.  1.
<mgrwt>
<rscale>  0 0.12554759E+04</rscale>
<asrwt>0</asrwt>
<pdfrwt beam="1">  1        2 0.63007278E-01 0.12554759E+04</pdfrwt>
<pdfrwt beam="2">  1       -1 0.14802646E+00 0.12554759E+04</pdfrwt>
<totfact> 0.31498438E+01</totfact>
</mgrwt>
</event>
<event>
12    6  0.1540825E-007  0.1240422E+04  0.7818608E-02  0.9078193E-01
          2   -1    0    0  501    0  0.00000000000E+00  0.00000000000E+00  0.76319719620E+03  0.76319719620E+03  0.00000000000E+00 0. -1.
         -1   -1    0    0    0  501 -0.00000000000E+00 -0.00000000000E+00 -0.50401329735E+03  0.50401329735E+03  0.00000000000E+00 0.  1.
         24    2    1    2    0    0 -0.63992086892E+02 -0.15136818393E+03  0.90263972373E+02  0.20437737532E+03  0.81333956885E+02 0.  0.
        254    2    1    2    0    0  0.63992086892E+02  0.15136818393E+03  0.16891992648E+03  0.10628331182E+04  0.10363749232E+04 0.  0.
         23    2    4    4    0    0 -0.15040195607E+03  0.14734572137E+03 -0.39320120637E+03  0.45566546749E+03  0.93232610068E+02 0.  0.
         23    2    4    4    0    0  0.21439404297E+03  0.40224625527E+01  0.56212113284E+03  0.60716765074E+03  0.81800991786E+02 0.  0.
          4    1    3    3  502    0 -0.81299062717E+02 -0.10357056256E+03  0.56049552323E+02  0.14310119267E+03  0.00000000000E+00 0. -1.
         -3    1    3    3    0  502  0.17306975825E+02 -0.47797621362E+02  0.34214420050E+02  0.61276182645E+02  0.00000000000E+00 0.  1.
         11    1    5    5    0    0 -0.76888094023E+02  0.30774518561E+02 -0.21493798201E+03  0.23034145546E+03  0.00000000000E+00 0.  1.
        -11    1    5    5    0    0 -0.73513862050E+02  0.11657120281E+03 -0.17826322436E+03  0.22532401203E+03  0.00000000000E+00 0. -1.
          3    1    6    6  503    0  0.16648864849E+03 -0.17620270466E+02  0.34096754328E+03  0.37985235234E+03  0.00000000000E+00 0. -1.
         -3    1    6    6    0  503  0.47905394477E+02  0.21642733018E+02  0.22115358956E+03  0.22731529841E+03  0.00000000000E+00 0.  1.
<mgrwt>
<rscale>  0 0.12404218E+04</rscale>
<asrwt>0</asrwt>
<pdfrwt beam="1">  1        2 0.11741495E+00 0.12404218E+04</pdfrwt>
<pdfrwt beam="2">  1       -1 0.77540507E-01 0.12404218E+04</pdfrwt>
<totfact> 0.68690169E+01</totfact>
</mgrwt>
</event>
<event>
12    6  0.1540825E-007  0.1825110E+04  0.7818608E-02  0.8693059E-01
         -1   -1    0    0    0  501 -0.00000000000E+00  0.00000000000E+00  0.29411243875E+03  0.29411243875E+03  0.00000000000E+00 0.  1.
          2   -1    0    0  501    0  0.00000000000E+00 -0.00000000000E+00 -0.28314240610E+04  0.28314240610E+04  0.00000000000E+00 0. -1.
         24    2    1    2    0    0 -0.65925060706E+03  0.18421027603E+03 -0.10784478898E+04  0.12797544951E+04  0.78593434204E+02 0.  0.
        254    2    1    2    0    0  0.65925060706E+03 -0.18421027603E+03 -0.14588637325E+04  0.18457820047E+04  0.90004612678E+03 0.  0.
         23    2    4    4    0    0  0.43462995068E+03 -0.27549591547E+03 -0.19596038705E+03  0.55649763701E+03  0.80547831992E+02 0.  0.
         23    2    4    4    0    0  0.22462065638E+03  0.91285639440E+02 -0.12629033454E+04  0.12892843677E+04  0.92421933130E+02 0.  0.
          4    1    3    3  502    0 -0.28294828987E+03  0.97128874318E+02 -0.53621003837E+03  0.61401543810E+03  0.00000000000E+00 0. -1.
         -3    1    3    3    0  502 -0.37630231718E+03  0.87081401711E+02 -0.54223785147E+03  0.66573905699E+03  0.00000000000E+00 0.  1.
         11    1    5    5    0    0  0.23934106493E+03 -0.14880347980E+03 -0.64336811454E+02  0.28907757830E+03  0.00000000000E+00 0.  1.
        -11    1    5    5    0    0  0.19528888574E+03 -0.12669243566E+03 -0.13162357560E+03  0.26742005872E+03  0.00000000000E+00 0. -1.
          2    1    6    6  503    0  0.15298085690E+03  0.10627853532E+03 -0.91229514320E+03  0.93111798283E+03  0.00000000000E+00 0. -1.
         -2    1    6    6    0  503  0.71639799483E+02 -0.14992895882E+02 -0.35060820220E+03  0.35816638487E+03  0.00000000000E+00 0.  1.
<mgrwt>
<rscale>  0 0.18251104E+04</rscale>
<asrwt>0</asrwt>
<pdfrwt beam="1">  1        2 0.43560371E+00 0.18251104E+04</pdfrwt>
<pdfrwt beam="2">  1       -1 0.45248067E-01 0.18251104E+04</pdfrwt>
<totfact> 0.11536511E+01</totfact>
</mgrwt>
</event>
<event>
12    6  0.1540825E-007  0.1379532E+04  0.7818608E-02  0.8968769E-01
          2   -1    0    0  501    0  0.00000000000E+00  0.00000000000E+00  0.12152539651E+04  0.12152539651E+04  0.00000000000E+00 0. -1.
         -1   -1    0    0    0  501 -0.00000000000E+00 -0.00000000000E+00 -0.39150419305E+03  0.39150419305E+03  0.00000000000E+00 0.  1.
         24    2    1    2    0    0 -0.10358571940E+02 -0.13286728347E+03 -0.19393720641E+03  0.24833243821E+03  0.79349510466E+02 0.  0.
        254    2    1    2    0    0  0.10358571940E+02  0.13286728347E+03  0.10176869784E+04  0.13584257199E+04  0.88987225791E+03 0.  0.
         23    2    4    4    0    0  0.21998900700E+03  0.43396174754E+03  0.73471765424E+03  0.88651252516E+03  0.96832144893E+02 0.  0.
         23    2    4    4    0    0 -0.20963043506E+03 -0.30109446408E+03  0.28296932418E+03  0.47191319474E+03  0.89597038657E+02 0.  0.
          4    1    3    3  502    0  0.14528396666E+02  0.41191181123E+01 -0.27185143375E+02  0.31097804810E+02  0.00000000000E+00 0. -1.
         -3    1    3    3    0  502 -0.24886968607E+02 -0.13698640158E+03 -0.16675206303E+03  0.21723463340E+03  0.00000000000E+00 0.  1.
         11    1    5    5    0    0  0.50499438538E+02  0.11115570176E+03  0.11628350605E+03  0.16860497355E+03  0.00000000000E+00 0.  1.
        -11    1    5    5    0    0  0.16948956846E+03  0.32280604578E+03  0.61843414819E+03  0.71790755161E+03  0.00000000000E+00 0. -1.
          1    1    6    6  503    0 -0.21596531989E+03 -0.28730788794E+03  0.25706565149E+03  0.44189318963E+03  0.00000000000E+00 0. -1.
         -1    1    6    6    0  503  0.63348848275E+01 -0.13786576132E+02  0.25903672697E+02  0.30020005103E+02  0.00000000000E+00 0.  1.
<mgrwt>
<rscale>  0 0.13795318E+04</rscale>
<asrwt>0</asrwt>
<pdfrwt beam="1">  1        2 0.18696215E+00 0.13795318E+04</pdfrwt>
<pdfrwt beam="2">  1       -1 0.60231415E-01 0.13795318E+04</pdfrwt>
<totfact> 0.57612991E+01</totfact>
</mgrwt>
</event>
<event>
12    6  0.1540825E-007  0.2098509E+04  0.7818608E-02  0.8561900E-01
         -1   -1    0    0    0  501 -0.00000000000E+00  0.00000000000E+00  0.20479012855E+04  0.20479012855E+04  0.00000000000E+00 0.  1.
          2   -1    0    0  501    0  0.00000000000E+00 -0.00000000000E+00 -0.53759207569E+03  0.53759207569E+03  0.00000000000E+00 0. -1.
         24    2    1    2    0    0 -0.64043777494E+03 -0.36323997710E+03  0.81019399510E+02  0.74473866921E+03  0.77251005035E+02 0.  0.
        254    2    1    2    0    0  0.64043777494E+03  0.36323997710E+03  0.14292898103E+04  0.18407546920E+04  0.89632842737E+03 0.  0.
         23    2    4    4    0    0  0.56850216970E+02  0.53196789145E+03  0.60472808580E+03  0.81250013184E+03  0.90766853958E+02 0.  0.
         23    2    4    4    0    0  0.58358755797E+03 -0.16872791434E+03  0.82456172455E+03  0.10282545602E+04  0.91443184903E+02 0.  0.
          2    1    3    3  502    0 -0.45694582439E+03 -0.29521492277E+03  0.46228752877E+02  0.54597475642E+03  0.00000000000E+00 0. -1.
         -1    1    3    3    0  502 -0.18349195055E+03 -0.68025054331E+02  0.34790646633E+02  0.19876391279E+03  0.00000000000E+00 0.  1.
         11    1    5    5    0    0 -0.52447569329E+01  0.15711913043E+02  0.23350676309E+01  0.16727947501E+02  0.00000000000E+00 0. -1.
        -11    1    5    5    0    0  0.62094973902E+02  0.51625597841E+03  0.60239301817E+03  0.79577218434E+03  0.00000000000E+00 0.  1.
          2    1    6    6  503    0  0.21169368489E+03 -0.46568646237E+02  0.36570130729E+03  0.42511210426E+03  0.00000000000E+00 0. -1.
         -2    1    6    6    0  503  0.37189387308E+03 -0.12215926811E+03  0.45886041726E+03  0.60314245593E+03  0.00000000000E+00 0.  1.
<mgrwt>
<rscale>  0 0.20985095E+04</rscale>
<asrwt>0</asrwt>
<pdfrwt beam="1">  1        2 0.82706474E-01 0.20985095E+04</pdfrwt>
<pdfrwt beam="2">  1       -1 0.31506173E+00 0.20985095E+04</pdfrwt>
<totfact> 0.15703585E+00</totfact>
</mgrwt>
</event>
<event>
12    6  0.1540825E-007  0.1823332E+04  0.7818608E-02  0.8693989E-01
          2   -1    0    0  501    0  0.00000000000E+00  0.00000000000E+00  0.36908131522E+04  0.36908131522E+04  0.00000000000E+00 0. -1.
         -1   -1    0    0    0  501 -0.00000000000E+00 -0.00000000000E+00 -0.22519020004E+03  0.22519020004E+03  0.00000000000E+00 0.  1.
         24    2    1    2    0    0 -0.21820532594E+03 -0.31643561607E+03  0.24727234488E+04  0.25036677790E+04  0.79031828926E+02 0.  0.
        254    2    1    2    0    0  0.21820532594E+03  0.31643561607E+03  0.99289950336E+03  0.14123355732E+04  0.92795327698E+03 0.  0.
         23    2    4    4    0    0 -0.89182345418E+02 -0.26291614414E+03  0.11810360374E+03  0.31538737527E+03  0.91882238112E+02 0.  0.
         23    2    4    4    0    0  0.30738767136E+03  0.57935176021E+03  0.87479589962E+03  0.10969481980E+04  0.88836031233E+02 0.  0.
          2    1    3    3  502    0 -0.20467316196E+03 -0.31404685232E+03  0.22948251465E+04  0.23252395536E+04  0.00000000000E+00 0. -1.
         -1    1    3    3    0  502 -0.13532163989E+02 -0.23887637440E+01  0.17789830226E+03  0.17842822535E+03  0.00000000000E+00 0.  1.
         11    1    5    5    0    0 -0.62080095832E+02 -0.12932767317E+03  0.14525959572E+02  0.14418942002E+03  0.00000000000E+00 0.  1.
        -11    1    5    5    0    0 -0.27102249586E+02 -0.13358847098E+03  0.10357764417E+03  0.17119795525E+03  0.00000000000E+00 0. -1.
          1    1    6    6  503    0  0.92309792444E+02  0.18276098179E+03  0.20802516523E+03  0.29188549744E+03  0.00000000000E+00 0. -1.
         -1    1    6    6    0  503  0.21507787892E+03  0.39659077842E+03  0.66677073438E+03  0.80506270051E+03  0.00000000000E+00 0.  1.
<mgrwt>
<rscale>  0 0.18233321E+04</rscale>
<asrwt>0</asrwt>
<pdfrwt beam="1">  1        2 0.56781736E+00 0.18233321E+04</pdfrwt>
<pdfrwt beam="2">  1       -1 0.34644649E-01 0.18233321E+04</pdfrwt>
<totfact> 0.50770122E+00</totfact>
</mgrwt>
</event>
<event>
12    6  0.1540825E-007  0.3213790E+04  0.7818608E-02  0.8185185E-01
          2   -1    0    0  501    0  0.00000000000E+00  0.00000000000E+00  0.11703493638E+04  0.11703493638E+04  0.00000000000E+00 0. -1.
         -1   -1    0    0    0  501 -0.00000000000E+00 -0.00000000000E+00 -0.22062745728E+04  0.22062745728E+04  0.00000000000E+00 0.  1.
         24    2    1    2    0    0  0.26110871930E+03  0.89438314403E+03 -0.16763054746E+04  0.19194625489E+04  0.78977596816E+02 0.  0.
        254    2    1    2    0    0 -0.26110871930E+03 -0.89438314403E+03  0.64038026567E+03  0.14571613877E+04  0.91931140180E+03 0.  0.
         23    2    4    4    0    0 -0.57057468749E+03 -0.71885285289E+03  0.56701064307E+03  0.10825206644E+04  0.89694043732E+02 0.  0.
         23    2    4    4    0    0  0.30946596820E+03 -0.17553029114E+03  0.73369622597E+02  0.37464072324E+03  0.91610596606E+02 0.  0.
          4    1    3    3  502    0  0.15748905461E+03  0.40591672152E+03 -0.80613477268E+03  0.91620110176E+03  0.00000000000E+00 0. -1.
         -3    1    3    3    0  502  0.10361966469E+03  0.48846642251E+03 -0.87017070196E+03  0.10032614472E+04  0.00000000000E+00 0.  1.
         11    1    5    5    0    0 -0.11099120631E+03 -0.17147414754E+03  0.89861280359E+02  0.22315349171E+03  0.00000000000E+00 0.  1.
        -11    1    5    5    0    0 -0.45958348118E+03 -0.54737870535E+03  0.47714936272E+03  0.85936717274E+03  0.00000000000E+00 0. -1.
          4    1    6    6  503    0  0.18441189610E+03 -0.14731918633E+03  0.23930064167E+02  0.23724109689E+03  0.00000000000E+00 0. -1.
         -4    1    6    6    0  503  0.12505407210E+03 -0.28211104812E+02  0.49439558430E+02  0.13739962635E+03  0.00000000000E+00 0.  1.
<mgrwt>
<rscale>  0 0.32137903E+04</rscale>
<asrwt>0</asrwt>
<pdfrwt beam="1">  1        2 0.18005375E+00 0.32137903E+04</pdfrwt>
<pdfrwt beam="2">  1       -1 0.33942686E+00 0.32137903E+04</pdfrwt>
<totfact> 0.34502366E-01</totfact>
</mgrwt>
</event>
<event>
12    6  0.2317076E-007  0.2013597E+04  0.7818608E-02  0.8600290E-01
          2   -1    0    0  501    0  0.00000000000E+00  0.00000000000E+00  0.12990693338E+04  0.12990693338E+04  0.00000000000E+00 0. -1.
         -1   -1    0    0    0  501 -0.00000000000E+00 -0.00000000000E+00 -0.78028427630E+03  0.78028427630E+03  0.00000000000E+00 0.  1.
         24    2    1    2    0    0  0.16899621686E+03  0.61138587702E+03 -0.30172767138E+03  0.70674043944E+03  0.78038766852E+02 0.  0.
        254    2    1    2    0    0 -0.16899621686E+03 -0.61138587702E+03  0.82051272884E+03  0.13726131706E+04  0.89915147002E+03 0.  0.
         23    2    4    4    0    0  0.26443142240E+03 -0.26448876437E+03  0.69741074605E+03  0.79643822126E+03  0.89743010614E+02 0.  0.
         23    2    4    4    0    0 -0.43342763926E+03 -0.34689711265E+03  0.12310198279E+03  0.57617494935E+03  0.92878139829E+02 0.  0.
          4    1    3    3  502    0  0.10074990402E+02  0.41764661949E+02 -0.27207443026E+00  0.42963547850E+02  0.00000000000E+00 0. -1.
         -3    1    3    3    0  502  0.15892122646E+03  0.56962121507E+03 -0.30145559695E+03  0.66377689159E+03  0.00000000000E+00 0.  1.
         11    1    5    5    0    0  0.22967170546E+03 -0.24626044963E+03  0.66553592956E+03  0.74587624636E+03  0.00000000000E+00 0. -1.
        -11    1    5    5    0    0  0.34759716946E+02 -0.18228314743E+02  0.31874816481E+02  0.50561974904E+02  0.00000000000E+00 0.  1.
          4    1    6    6  503    0 -0.26530435302E+03 -0.20618375777E+03  0.27904883390E+02  0.33715993863E+03  0.00000000000E+00 0. -1.
         -4    1    6    6    0  503 -0.16812328624E+03 -0.14071335488E+03  0.95197099404E+02  0.23901501072E+03  0.00000000000E+00 0.  1.
<mgrwt>
<rscale>  0 0.20135972E+04</rscale>
<asrwt>0</asrwt>
<pdfrwt beam="1">  1        2 0.19985682E+00 0.20135972E+04</pdfrwt>
<pdfrwt beam="2">  1       -1 0.12004374E+00 0.20135972E+04</pdfrwt>
<totfact> 0.10831064E+01</totfact>
</mgrwt>
</event>
<event>
12    6  0.1540825E-007  0.1876286E+04  0.7818608E-02  0.8666751E-01
         -1   -1    0    0    0  501 -0.00000000000E+00  0.00000000000E+00  0.57857431661E+03  0.57857431661E+03  0.00000000000E+00 0.  1.
          2   -1    0    0  501    0  0.00000000000E+00 -0.00000000000E+00 -0.15211744160E+04  0.15211744160E+04  0.00000000000E+00 0. -1.
         24    2    1    2    0    0  0.25720773358E+03 -0.39844063557E+03  0.23808642840E+03  0.53668195811E+03  0.80197372103E+02 0.  0.
        254    2    1    2    0    0 -0.25720773358E+03  0.39844063557E+03 -0.11806865278E+04  0.15630667745E+04  0.90788011673E+03 0.  0.
         23    2    4    4    0    0 -0.35475871610E+01  0.33651360916E+03  0.13892098499E+01  0.34910450777E+03  0.92833361005E+02 0.  0.
         23    2    4    4    0    0 -0.25366014641E+03  0.61927026410E+02 -0.11820757377E+04  0.12139622668E+04  0.90680257161E+02 0.  0.
          2    1    3    3  502    0  0.14396519659E+03 -0.16497267980E+03  0.81614095158E+02  0.23367247044E+03  0.00000000000E+00 0. -1.
         -1    1    3    3    0  502  0.11324253698E+03 -0.23346795577E+03  0.15647233324E+03  0.30300948768E+03  0.00000000000E+00 0.  1.
         11    1    5    5    0    0  0.31965635251E+02  0.24266476122E+03  0.24958249756E+02  0.24603028757E+03  0.00000000000E+00 0.  1.
        -11    1    5    5    0    0 -0.35513222412E+02  0.93848847946E+02 -0.23569039906E+02  0.10307422020E+03  0.00000000000E+00 0. -1.
          4    1    6    6  503    0 -0.94299230109E+02  0.34716095436E+02 -0.27933234261E+03  0.29685705265E+03  0.00000000000E+00 0.  1.
         -4    1    6    6    0  503 -0.15936091631E+03  0.27210930973E+02 -0.90274339506E+03  0.91710521410E+03  0.00000000000E+00 0. -1.
<mgrwt>
<rscale>  0 0.18762862E+04</rscale>
<asrwt>0</asrwt>
<pdfrwt beam="1">  1        2 0.23402683E+00 0.18762862E+04</pdfrwt>
<pdfrwt beam="2">  1       -1 0.89011433E-01 0.18762862E+04</pdfrwt>
<totfact> 0.16341777E+01</totfact>
</mgrwt>
</event>
<event>
12    6  0.1540825E-007  0.2496051E+04  0.7818608E-02  0.8404394E-01
          2   -1    0    0  501    0  0.00000000000E+00  0.00000000000E+00  0.10481134515E+04  0.10481134515E+04  0.00000000000E+00 0. -1.
         -1   -1    0    0    0  501 -0.00000000000E+00 -0.00000000000E+00 -0.14860675204E+04  0.14860675204E+04  0.00000000000E+00 0.  1.
         24    2    1    2    0    0 -0.79247510988E+03  0.59512429205E+03  0.25364727912E+03  0.10259658899E+04  0.77970137550E+02 0.  0.
        254    2    1    2    0    0  0.79247510988E+03 -0.59512429205E+03 -0.69160134808E+03  0.15082150820E+04  0.90233618240E+03 0.  0.
         23    2    4    4    0    0 -0.98579531001E+02 -0.17578231100E+03 -0.43276063646E+03  0.48597356594E+03  0.90946102342E+02 0.  0.
         23    2    4    4    0    0  0.89105464088E+03 -0.41934198105E+03 -0.25884071162E+03  0.10222415160E+04  0.90294700882E+02 0.  0.
          2    1    3    3  502    0 -0.48682391367E+03  0.39657077316E+03  0.18954562034E+03  0.65589133493E+03  0.00000000000E+00 0. -1.
         -1    1    3    3    0  502 -0.30565119621E+03  0.19855351889E+03  0.64101658781E+02  0.37007455502E+03  0.00000000000E+00 0.  1.
         11    1    5    5    0    0 -0.75494472077E+02 -0.61184348897E+02 -0.13713699287E+03  0.16807585989E+03  0.00000000000E+00 0. -1.
        -11    1    5    5    0    0 -0.23085058924E+02 -0.11459796210E+03 -0.29562364359E+03  0.31789770605E+03  0.00000000000E+00 0.  1.
          3    1    6    6  503    0  0.42606745602E+03 -0.24707107827E+03 -0.14576578539E+03  0.51363923039E+03  0.00000000000E+00 0. -1.
         -3    1    6    6    0  503  0.46498718486E+03 -0.17227090277E+03 -0.11307492623E+03  0.50860228565E+03  0.00000000000E+00 0.  1.
<mgrwt>
<rscale>  0 0.24960508E+04</rscale>
<asrwt>0</asrwt>
<pdfrwt beam="1">  1        2 0.16124822E+00 0.24960508E+04</pdfrwt>
<pdfrwt beam="2">  1       -1 0.22862577E+00 0.24960508E+04</pdfrwt>
<totfact> 0.23012490E+00</totfact>
</mgrwt>
</event>
<event>
12    6  0.1540825E-007  0.1331554E+04  0.7818608E-02  0.9004910E-01
         -1   -1    0    0    0  501 -0.00000000000E+00  0.00000000000E+00  0.25296605727E+03  0.25296605727E+03  0.00000000000E+00 0.  1.
          2   -1    0    0  501    0  0.00000000000E+00 -0.00000000000E+00 -0.17522474850E+04  0.17522474850E+04  0.00000000000E+00 0. -1.
         24    2    1    2    0    0 -0.12501057747E+03  0.13822201297E+03 -0.86676275155E+03  0.89009792008E+03  0.79143354145E+02 0.  0.
        254    2    1    2    0    0  0.12501057747E+03 -0.13822201297E+03 -0.63251867614E+03  0.11151156221E+04  0.89926081075E+03 0.  0.
         23    2    4    4    0    0  0.79427379452E+02 -0.51003676245E+03 -0.44002181442E+03  0.68441018278E+03  0.91388694431E+02 0.  0.
         23    2    4    4    0    0  0.45583198017E+02  0.37181474948E+03 -0.19249686171E+03  0.43070543936E+03  0.90155964060E+02 0.  0.
          2    1    3    3  502    0 -0.90872853834E+02  0.12315990114E+03 -0.54192734827E+03  0.56312652896E+03  0.00000000000E+00 0. -1.
         -1    1    3    3    0  502 -0.34137723635E+02  0.15062111831E+02 -0.32483540328E+03  0.32697139112E+03  0.00000000000E+00 0.  1.
         11    1    5    5    0    0  0.89411078798E+02 -0.41085645265E+03 -0.38721359748E+03  0.57160452742E+03  0.00000000000E+00 0. -1.
        -11    1    5    5    0    0 -0.99836993461E+01 -0.99180309797E+02 -0.52808216947E+02  0.11280565536E+03  0.00000000000E+00 0.  1.
          4    1    6    6  503    0 -0.15055128142E+02  0.15146611797E+03 -0.45089065648E+02  0.15875032478E+03  0.00000000000E+00 0. -1.
         -4    1    6    6    0  503  0.60638326159E+02  0.22034863151E+03 -0.14740779607E+03  0.27195511458E+03  0.00000000000E+00 0.  1.
<mgrwt>
<rscale>  0 0.13315542E+04</rscale>
<asrwt>0</asrwt>
<pdfrwt beam="1">  1        2 0.26957652E+00 0.13315542E+04</pdfrwt>
<pdfrwt beam="2">  1       -1 0.38917857E-01 0.13315542E+04</pdfrwt>
<totfact> 0.65451170E+01</totfact>
</mgrwt>
</event>
<event>
12    6  0.1540825E-007  0.1309604E+04  0.7818608E-02  0.9021984E-01
          2   -1    0    0  501    0  0.00000000000E+00  0.00000000000E+00  0.14766706204E+04  0.14766706204E+04  0.00000000000E+00 0. -1.
         -1   -1    0    0    0  501 -0.00000000000E+00 -0.00000000000E+00 -0.29035949739E+03  0.29035949739E+03  0.00000000000E+00 0.  1.
         24    2    1    2    0    0 -0.11994373628E+03  0.27708623010E+03  0.51631708859E+03  0.60346529972E+03  0.80148320075E+02 0.  0.
        254    2    1    2    0    0  0.11994373628E+03 -0.27708623010E+03  0.66999403444E+03  0.11635648181E+04  0.90212404962E+03 0.  0.
         23    2    4    4    0    0 -0.12708054983E+03  0.88206612772E+02 -0.14614174242E+03  0.23144274304E+03  0.90986052495E+02 0.  0.
         23    2    4    4    0    0  0.24702428611E+03 -0.36529284288E+03  0.81613577686E+03  0.93212207504E+03  0.91181673185E+02 0.  0.
          2    1    3    3  502    0 -0.76137612033E+02  0.13963715939E+03  0.34217046768E+03  0.37732757811E+03  0.00000000000E+00 0. -1.
         -1    1    3    3    0  502 -0.43806124249E+02  0.13744907071E+03  0.17414662091E+03  0.22613772161E+03  0.00000000000E+00 0.  1.
         11    1    5    5    0    0 -0.56301507296E+01  0.11960653827E+02  0.12079157455E+02  0.17907034429E+02  0.00000000000E+00 0.  1.
        -11    1    5    5    0    0 -0.12145039910E+03  0.76245958944E+02 -0.15822089987E+03  0.21353570861E+03  0.00000000000E+00 0. -1.
          3    1    6    6  503    0  0.61627497642E+02 -0.14673433866E+03  0.35714689227E+03  0.39100232386E+03  0.00000000000E+00 0. -1.
         -3    1    6    6    0  503  0.18539678847E+03 -0.21855850421E+03  0.45898888459E+03  0.54111975118E+03  0.00000000000E+00 0.  1.
<mgrwt>
<rscale>  0 0.13096035E+04</rscale>
<asrwt>0</asrwt>
<pdfrwt beam="1">  1        2 0.22718009E+00 0.13096035E+04</pdfrwt>
<pdfrwt beam="2">  1       -1 0.44670693E-01 0.13096035E+04</pdfrwt>
<totfact> 0.72500643E+01</totfact>
</mgrwt>
</event>
<event>
12    6  0.1540825E-007  0.1686215E+04  0.7818608E-02  0.8769266E-01
          2   -1    0    0  501    0  0.00000000000E+00  0.00000000000E+00  0.11101190738E+04  0.11101190738E+04  0.00000000000E+00 0. -1.
         -1   -1    0    0    0  501 -0.00000000000E+00 -0.00000000000E+00 -0.64031880461E+03  0.64031880461E+03  0.00000000000E+00 0.  1.
         24    2    1    2    0    0  0.10298635616E+03  0.52463735752E+03  0.45179679483E+03  0.70388118984E+03  0.74012425452E+02 0.  0.
        254    2    1    2    0    0 -0.10298635616E+03 -0.52463735752E+03  0.18003474390E+02  0.10465566886E+04  0.89950332457E+03 0.  0.
         23    2    4    4    0    0 -0.12295667362E+03  0.12165249602E+03 -0.26975807074E+03  0.33322694246E+03  0.91395323041E+02 0.  0.
         23    2    4    4    0    0  0.19970317462E+02 -0.64628985355E+03  0.28776154513E+03  0.71332974615E+03  0.89124808585E+02 0.  0.
          2    1    3    3  502    0  0.70614738035E+02  0.46052430382E+03  0.36943100701E+03  0.59459931431E+03  0.00000000000E+00 0. -1.
         -1    1    3    3    0  502  0.32371618126E+02  0.64113053701E+02  0.82365787820E+02  0.10928187552E+03  0.00000000000E+00 0.  1.
         11    1    5    5    0    0 -0.71167403124E+02  0.88003548504E+02 -0.94628298347E+02  0.14752606097E+03  0.00000000000E+00 0.  1.
        -11    1    5    5    0    0 -0.51789270498E+02  0.33648947520E+02 -0.17512977239E+03  0.18570088149E+03  0.00000000000E+00 0. -1.
          4    1    6    6  503    0  0.40696767471E+02 -0.50568315739E+03  0.25352136926E+03  0.56713734424E+03  0.00000000000E+00 0. -1.
         -4    1    6    6    0  503 -0.20726450009E+02 -0.14060669615E+03  0.34240175868E+02  0.14619240191E+03  0.00000000000E+00 0.  1.
<mgrwt>
<rscale>  0 0.16862148E+04</rscale>
<asrwt>0</asrwt>
<pdfrwt beam="1">  1        2 0.17078755E+00 0.16862148E+04</pdfrwt>
<pdfrwt beam="2">  1       -1 0.98510585E-01 0.16862148E+04</pdfrwt>
<totfact> 0.23017101E+01</totfact>
</mgrwt>
</event>
<event>
12    6  0.1540825E-007  0.2481538E+04  0.7818608E-02  0.8409592E-01
         -1   -1    0    0    0  501 -0.00000000000E+00  0.00000000000E+00  0.55365342320E+03  0.55365342320E+03  0.00000000000E+00 0.  1.
          2   -1    0    0  501    0  0.00000000000E+00 -0.00000000000E+00 -0.27806336738E+04  0.27806336738E+04  0.00000000000E+00 0. -1.
         24    2    1    2    0    0 -0.99778406310E+03  0.65172483406E+01 -0.41759620131E+03  0.10846066620E+04  0.79809227589E+02 0.  0.
        254    2    1    2    0    0  0.99778406310E+03 -0.65172483406E+01 -0.18093840493E+04  0.22496804350E+04  0.88970551908E+03 0.  0.
         23    2    4    4    0    0  0.47069959333E+02  0.13321934044E+03  0.31490251096E+02  0.17116769845E+03  0.91344246338E+02 0.  0.
         23    2    4    4    0    0  0.95071410377E+03 -0.13973658878E+03 -0.18408743004E+04  0.20785127366E+04  0.89517511272E+02 0.  0.
          2    1    3    3  502    0 -0.67321400151E+03 -0.12079354895E+02 -0.31763808262E+03  0.74448435455E+03  0.00000000000E+00 0. -1.
         -3    1    3    3    0  502 -0.32457006159E+03  0.18596603235E+02 -0.99958118690E+02  0.34012230745E+03  0.00000000000E+00 0.  1.
         11    1    5    5    0    0  0.26232820596E+00  0.84693950952E+01 -0.25035935875E+02  0.26430996093E+02  0.00000000000E+00 0.  1.
        -11    1    5    5    0    0  0.46807631127E+02  0.12474994534E+03  0.56526186971E+02  0.14473670235E+03  0.00000000000E+00 0. -1.
          4    1    6    6  503    0  0.74934177967E+03 -0.73402411190E+02 -0.14511246517E+04  0.16348283615E+04  0.00000000000E+00 0. -1.
         -4    1    6    6    0  503  0.20137232410E+03 -0.66334177587E+02 -0.38974964869E+03  0.44368437507E+03  0.00000000000E+00 0.  1.
<mgrwt>
<rscale>  0 0.24815377E+04</rscale>
<asrwt>0</asrwt>
<pdfrwt beam="1">  1        2 0.42778979E+00 0.24815377E+04</pdfrwt>
<pdfrwt beam="2">  1       -1 0.85177450E-01 0.24815377E+04</pdfrwt>
<totfact> 0.32890405E+00</totfact>
</mgrwt>
</event>
<event>
12    6  0.1540825E-007  0.1419153E+04  0.7818608E-02  0.8940070E-01
          2   -1    0    0  501    0  0.00000000000E+00  0.00000000000E+00  0.47451685630E+03  0.47451685630E+03  0.00000000000E+00 0. -1.
         -1   -1    0    0    0  501 -0.00000000000E+00 -0.00000000000E+00 -0.10610761304E+04  0.10610761304E+04  0.00000000000E+00 0.  1.
         24    2    1    2    0    0 -0.21826755102E+03  0.36000787335E+03 -0.10326416973E+03  0.44040630887E+03  0.77767830381E+02 0.  0.
        254    2    1    2    0    0  0.21826755102E+03 -0.36000787335E+03 -0.48329510441E+03  0.10951866779E+04  0.88803902432E+03 0.  0.
         23    2    4    4    0    0 -0.23661745843E+03  0.40034324149E+02 -0.40056582234E+03  0.47722749886E+03  0.98501466453E+02 0.  0.
         23    2    4    4    0    0  0.45488500945E+03 -0.40004219750E+03 -0.82729282064E+02  0.61795917900E+03  0.89862568417E+02 0.  0.
          2    1    3    3  502    0 -0.21048080101E+03  0.29390291495E+03 -0.90047852580E+02  0.37254490570E+03  0.00000000000E+00 0. -1.
         -3    1    3    3    0  502 -0.77867500024E+01  0.66104958401E+02 -0.13216317146E+02  0.67861403167E+02  0.00000000000E+00 0.  1.
         11    1    5    5    0    0 -0.16650260406E+03 -0.18633139080E+02 -0.24559260259E+03  0.29729789349E+03  0.00000000000E+00 0.  1.
        -11    1    5    5    0    0 -0.70114854372E+02  0.58667463229E+02 -0.15497321976E+03  0.17992960537E+03  0.00000000000E+00 0. -1.
          1    1    6    6  503    0  0.17450754341E+03 -0.14763808298E+03  0.12330090788E+02  0.22891465089E+03  0.00000000000E+00 0. -1.
         -1    1    6    6    0  503  0.28037746604E+03 -0.25240411452E+03 -0.95059372851E+02  0.38904452811E+03  0.00000000000E+00 0.  1.
<mgrwt>
<rscale>  0 0.14191526E+04</rscale>
<asrwt>0</asrwt>
<pdfrwt beam="1">  1        2 0.73002594E-01 0.14191526E+04</pdfrwt>
<pdfrwt beam="2">  1       -1 0.16324248E+00 0.14191526E+04</pdfrwt>
<totfact> 0.20089230E+01</totfact>
</mgrwt>
</event>
