<event>
12    7  0.1730932E-007  0.2076341E+04  0.7818608E-02  0.8571737E-01
         -1   -1    0    0    0  501 -0.00000000000E+00  0.00000000000E+00  0.64641713151E+03  0.64641713151E+03  0.00000000000E+00 0.  1.
          2   -1    0    0  501    0  0.00000000000E+00 -0.00000000000E+00 -0.16673415832E+04  0.16673415832E+04  0.00000000000E+00 0. -1.
         24    2    1    2    0    0 -0.31351119485E+03  0.73953765642E+03 -0.70038682320E+03  0.10686442866E+04  0.79080304229E+02 0.  0.
        254    2    1    2    0    0  0.31351119485E+03 -0.73953765642E+03 -0.32053762853E+03  0.12451144282E+04  0.89574569685E+03 0.  0.
         23    2    4    4    0    0  0.14867687147E+03 -0.57932746931E+03 -0.61292435485E+03  0.86159232683E+03  0.94551277489E+02 0.  0.
         23    2    4    4    0    0  0.16483432337E+03 -0.16021018712E+03  0.29238672631E+03  0.38352210137E+03  0.93603131863E+02 0.  0.
          2    1    3    3  502    0 -0.28882986359E+03  0.71786036393E+03 -0.66405872701E+03  0.10196667030E+04  0.00000000000E+00 0. -1.
         -1    1    3    3    0  502 -0.24681331255E+02  0.21677292494E+02 -0.36328096193E+02  0.48977583601E+02  0.00000000000E+00 0.  1.
         13    1    5    5    0    0  0.12322654141E+03 -0.30983818548E+03 -0.36723833127E+03  0.49603273445E+03  0.00000000000E+00 0.  1.
        -13    1    5    5    0    0  0.25450330063E+02 -0.26948928383E+03 -0.24568602358E+03  0.36555959238E+03  0.00000000000E+00 0. -1.
          3    1    6    6  503    0  0.34475089656E+02  0.79285083564E+01  0.44762282905E+02  0.57053089508E+02  0.00000000000E+00 0. -1.
         -3    1    6    6    0  503  0.13035923372E+03 -0.16813869547E+03  0.24762444341E+03  0.32646901186E+03  0.00000000000E+00 0.  1.
<mgrwt>
<rscale>  0 0.20763412E+04</rscale>
<asrwt>0</asrwt>
<pdfrwt beam="1">  1        2 0.25651409E+00 0.20763412E+04</pdfrwt>
<pdfrwt beam="2">  1       -1 0.99448791E-01 0.20763412E+04</pdfrwt>
<totfact> 0.10380500E+01</totfact>
</mgrwt>
</event>
<event>
12    7  0.1851843E-007  0.2093917E+04  0.7818608E-02  0.8563928E-01
          2   -1    0    0  501    0  0.00000000000E+00  0.00000000000E+00  0.80161697038E+03  0.80161697038E+03  0.00000000000E+00 0. -1.
         -1   -1    0    0    0  501 -0.00000000000E+00 -0.00000000000E+00 -0.13673883019E+04  0.13673883019E+04  0.00000000000E+00 0.  1.
         24    2    1    2    0    0  0.14481593561E+03  0.14729945907E+03 -0.10237286625E+04  0.10478857999E+04  0.85880668310E+02 0.  0.
        254    2    1    2    0    0 -0.14481593561E+03 -0.14729945907E+03  0.45795733097E+03  0.11211194725E+04  0.10022550417E+04 0.  0.
         23    2    4    4    0    0  0.17174071588E+02 -0.55868284927E+03  0.31032642976E+03  0.64586665150E+03  0.91759270458E+02 0.  0.
         23    2    4    4    0    0 -0.16199000720E+03  0.41138339020E+03  0.14763090121E+03  0.47525282096E+03  0.92700079151E+02 0.  0.
          2    1    3    3  502    0 -0.74837727517E+01  0.22726223609E+02 -0.17623356413E+03  0.17785037875E+03  0.00000000000E+00 0. -1.
         -1    1    3    3    0  502  0.15229970837E+03  0.12457323546E+03 -0.84749509840E+03  0.87003542111E+03  0.00000000000E+00 0.  1.
         13    1    5    5    0    0  0.14344401250E+02 -0.21176411896E+02  0.77335742553E+00  0.25589066996E+02  0.00000000000E+00 0.  1.
        -13    1    5    5    0    0  0.28296703378E+01 -0.53750643737E+03  0.30955307233E+03  0.62027758451E+03  0.00000000000E+00 0. -1.
          4    1    6    6  503    0 -0.13546767705E+03  0.39070877199E+03  0.15353543495E+03  0.44110992487E+03  0.00000000000E+00 0. -1.
         -4    1    6    6    0  503 -0.26522330152E+02  0.20674618212E+02 -0.59045337387E+01  0.34142896092E+02  0.00000000000E+00 0.  1.
<mgrwt>
<rscale>  0 0.20939166E+04</rscale>
<asrwt>0</asrwt>
<pdfrwt beam="1">  1        2 0.12332569E+00 0.20939166E+04</pdfrwt>
<pdfrwt beam="2">  1       -1 0.21036743E+00 0.20939166E+04</pdfrwt>
<totfact> 0.46195774E+00</totfact>
</mgrwt>
</event>
<event>
12    7  0.1730932E-007  0.1382034E+04  0.7818608E-02  0.8966927E-01
         -1   -1    0    0    0  501 -0.00000000000E+00  0.00000000000E+00  0.21620415726E+03  0.21620415726E+03  0.00000000000E+00 0.  1.
          2   -1    0    0  501    0  0.00000000000E+00 -0.00000000000E+00 -0.22085817218E+04  0.22085817218E+04  0.00000000000E+00 0. -1.
         24    2    1    2    0    0  0.14359545043E+03 -0.15536356213E+03  0.16030906904E+01  0.22606272355E+03  0.79651084464E+02 0.  0.
        254    2    1    2    0    0 -0.14359545043E+03  0.15536356213E+03 -0.19939806553E+04  0.21987231555E+04  0.90203501668E+03 0.  0.
         23    2    4    4    0    0 -0.38155154966E+03  0.40678992735E+03 -0.11312111266E+04  0.12646042724E+04  0.92334840444E+02 0.  0.
         23    2    4    4    0    0  0.23795609923E+03 -0.25142636523E+03 -0.86276952870E+03  0.93411888318E+03  0.91479538518E+02 0.  0.
          2    1    3    3  502    0  0.43450491761E+02 -0.19197816744E+02 -0.26989314798E+02  0.54634462707E+02  0.00000000000E+00 0. -1.
         -1    1    3    3    0  502  0.10014495867E+03 -0.13616574538E+03  0.28592405489E+02  0.17142826084E+03  0.00000000000E+00 0.  1.
         13    1    5    5    0    0 -0.31546768331E+03  0.31460888070E+03 -0.81757207914E+03  0.93108684429E+03  0.00000000000E+00 0.  1.
        -13    1    5    5    0    0 -0.66083866357E+02  0.92181046658E+02 -0.31363904743E+03  0.33351742807E+03  0.00000000000E+00 0. -1.
          1    1    6    6  503    0  0.18923737663E+03 -0.15008444865E+03 -0.51949445438E+03  0.57289668752E+03  0.00000000000E+00 0. -1.
         -1    1    6    6    0  503  0.48718722599E+02 -0.10134191657E+03 -0.34327507433E+03  0.36122219566E+03  0.00000000000E+00 0.  1.
<mgrwt>
<rscale>  0 0.13820341E+04</rscale>
<asrwt>0</asrwt>
<pdfrwt beam="1">  1        2 0.33978180E+00 0.13820341E+04</pdfrwt>
<pdfrwt beam="2">  1       -1 0.33262179E-01 0.13820341E+04</pdfrwt>
<totfact> 0.48264119E+01</totfact>
</mgrwt>
</event>
<event>
12    7  0.1730932E-007  0.1668372E+04  0.7818608E-02  0.8779611E-01
          2   -1    0    0  501    0  0.00000000000E+00  0.00000000000E+00  0.12604007214E+04  0.12604007214E+04  0.00000000000E+00 0. -1.
         -1   -1    0    0    0  501 -0.00000000000E+00 -0.00000000000E+00 -0.55209954291E+03  0.55209954291E+03  0.00000000000E+00 0.  1.
         24    2    1    2    0    0 -0.10249074219E+02 -0.19233192620E+03 -0.35177564231E+03  0.40853098829E+03  0.77812932812E+02 0.  0.
        254    2    1    2    0    0  0.10249074219E+02  0.19233192620E+03  0.10600768208E+04  0.14039692760E+04  0.90015012563E+03 0.  0.
         23    2    4    4    0    0 -0.15663669915E+03  0.15442809405E+02 -0.10312285353E+03  0.21152521953E+03  0.96618112651E+02 0.  0.
         23    2    4    4    0    0  0.16688577337E+03  0.17688911680E+03  0.11631996743E+04  0.11924440565E+04  0.98735629470E+02 0.  0.
          2    1    3    3  502    0  0.28538274655E+02 -0.32529370070E+02 -0.71413945584E+02  0.83501764421E+02  0.00000000000E+00 0. -1.
         -1    1    3    3    0  502 -0.38787348875E+02 -0.15980255613E+03 -0.28036169672E+03  0.32502922387E+03  0.00000000000E+00 0.  1.
         13    1    5    5    0    0 -0.17237476463E+02  0.36660413491E+02 -0.76171845265E+01  0.41220601794E+02  0.00000000000E+00 0. -1.
        -13    1    5    5    0    0 -0.13939922269E+03 -0.21217604086E+02 -0.95505668999E+02  0.17030461773E+03  0.00000000000E+00 0.  1.
          2    1    6    6  503    0 -0.26246842295E+01  0.78658664404E+01  0.48248815846E+01  0.95937638323E+01  0.00000000000E+00 0. -1.
         -2    1    6    6    0  503  0.16951045760E+03  0.16902325036E+03  0.11583747928E+04  0.11828502927E+04  0.00000000000E+00 0.  1.
<mgrwt>
<rscale>  0 0.16683725E+04</rscale>
<asrwt>0</asrwt>
<pdfrwt beam="1">  1        2 0.19390780E+00 0.16683725E+04</pdfrwt>
<pdfrwt beam="2">  1       -1 0.84938391E-01 0.16683725E+04</pdfrwt>
<totfact> 0.26009720E+01</totfact>
</mgrwt>
</event>
<event>
12    7  0.1730932E-007  0.2185092E+04  0.7818608E-02  0.8524659E-01
          2   -1    0    0  501    0  0.00000000000E+00  0.00000000000E+00  0.31890101017E+04  0.31890101017E+04  0.00000000000E+00 0. -1.
         -1   -1    0    0    0  501 -0.00000000000E+00 -0.00000000000E+00 -0.37430310550E+03  0.37430310550E+03  0.00000000000E+00 0.  1.
         24    2    1    2    0    0  0.39557683235E+03 -0.80149944697E+03  0.91993470111E+03  0.12851291424E+04  0.79966646407E+02 0.  0.
        254    2    1    2    0    0 -0.39557683235E+03  0.80149944697E+03  0.18947722951E+04  0.22781840649E+04  0.89502971413E+03 0.  0.
         23    2    4    4    0    0  0.21425384498E+03  0.73599269124E+01  0.19954155741E+03  0.30720241825E+03  0.92723319789E+02 0.  0.
         23    2    4    4    0    0 -0.60983067733E+03  0.79413952006E+03  0.16952307377E+04  0.19709816466E+04  0.91708041112E+02 0.  0.
          4    1    3    3  502    0  0.62523531245E+02 -0.12182327211E+03  0.18473353548E+03  0.22994908288E+03  0.00000000000E+00 0. -1.
         -3    1    3    3    0  502  0.33305330111E+03 -0.67967617486E+03  0.73520116563E+03  0.10551800595E+04  0.00000000000E+00 0.  1.
         13    1    5    5    0    0  0.11316818357E+03  0.17247156528E+02  0.16316415910E+03  0.19931644437E+03  0.00000000000E+00 0. -1.
        -13    1    5    5    0    0  0.10108566141E+03 -0.98872296154E+01  0.36377398307E+02  0.10788597388E+03  0.00000000000E+00 0.  1.
          3    1    6    6  503    0 -0.39569222038E+03  0.57818101293E+03  0.11473412821E+04  0.13443428263E+04  0.00000000000E+00 0.  1.
         -3    1    6    6    0  503 -0.21413845695E+03  0.21595850713E+03  0.54788945563E+03  0.62663882033E+03  0.00000000000E+00 0. -1.
<mgrwt>
<rscale>  0 0.21850917E+04</rscale>
<asrwt>0</asrwt>
<pdfrwt beam="1">  1        2 0.49061692E+00 0.21850917E+04</pdfrwt>
<pdfrwt beam="2">  1       -1 0.57585095E-01 0.21850917E+04</pdfrwt>
<totfact> 0.42018516E+00</totfact>
</mgrwt>
</event>
<event>
12    7  0.1730932E-007  0.3626746E+04  0.7818608E-02  0.8084393E-01
          2   -1    0    0  501    0  0.00000000000E+00  0.00000000000E+00  0.47684172858E+04  0.47684172858E+04  0.00000000000E+00 0. -1.
         -1   -1    0    0    0  501 -0.00000000000E+00 -0.00000000000E+00 -0.68960444136E+03  0.68960444136E+03  0.00000000000E+00 0.  1.
         24    2    1    2    0    0 -0.71006866877E+03  0.39134845490E+03  0.41629383231E+04  0.42418885097E+04  0.78813194956E+02 0.  0.
        254    2    1    2    0    0  0.71006866877E+03 -0.39134845490E+03 -0.84125478595E+02  0.12161332175E+04  0.90252522346E+03 0.  0.
         23    2    4    4    0    0  0.45493257227E+03 -0.28626111076E+03 -0.47976409090E+03  0.72589175575E+03  0.88522253145E+02 0.  0.
         23    2    4    4    0    0  0.25513609650E+03 -0.10508734414E+03  0.39563861231E+03  0.49024146173E+03  0.87572836036E+02 0.  0.
          4    1    3    3  502    0 -0.36853733246E+03  0.21995228228E+03  0.23911561000E+04  0.24293674622E+04  0.00000000000E+00 0. -1.
         -3    1    3    3    0  502 -0.34153133631E+03  0.17139617262E+03  0.17717822231E+04  0.18125210475E+04  0.00000000000E+00 0.  1.
         13    1    5    5    0    0  0.52204428623E+02 -0.14597504672E+02 -0.22314144659E+02  0.58620052562E+02  0.00000000000E+00 0.  1.
        -13    1    5    5    0    0  0.40272814364E+03 -0.27166360609E+03 -0.45744994625E+03  0.66727170319E+03  0.00000000000E+00 0. -1.
          2    1    6    6  503    0  0.23397851251E+03 -0.64165601689E+02  0.31830713144E+03  0.40022818327E+03  0.00000000000E+00 0. -1.
         -2    1    6    6    0  503  0.21157583989E+02 -0.40921742451E+02  0.77331480873E+02  0.90013278462E+02  0.00000000000E+00 0.  1.
<mgrwt>
<rscale>  0 0.36267461E+04</rscale>
<asrwt>0</asrwt>
<pdfrwt beam="1">  1        2 0.73360264E+00 0.36267461E+04</pdfrwt>
<pdfrwt beam="2">  1       -1 0.10609299E+00 0.36267461E+04</pdfrwt>
<totfact> 0.49173902E-02</totfact>
</mgrwt>
</event>
<event>
12    7  0.1730932E-007  0.1763399E+04  0.7818608E-02  0.8726009E-01
          2   -1    0    0  501    0  0.00000000000E+00  0.00000000000E+00  0.19610728530E+04  0.19610728530E+04  0.00000000000E+00 0. -1.
         -1   -1    0    0    0  501 -0.00000000000E+00 -0.00000000000E+00 -0.39641266139E+03  0.39641266139E+03  0.00000000000E+00 0.  1.
         24    2    1    2    0    0 -0.18653312797E+03 -0.21411627453E+03  0.13540101340E+04  0.13876606281E+04  0.10778770343E+03 0.  0.
        254    2    1    2    0    0  0.18653312797E+03  0.21411627453E+03  0.21065005755E+03  0.96982488622E+03  0.90307611879E+03 0.  0.
         23    2    4    4    0    0 -0.34272089306E+03 -0.17964710679E+02  0.13434125429E+03  0.37964434509E+03  0.91114843915E+02 0.  0.
         23    2    4    4    0    0  0.52925402103E+03  0.23208098521E+03  0.76308803259E+02  0.59018054113E+03  0.92296452803E+02 0.  0.
          2    1    3    3  502    0 -0.14777246825E+03 -0.18718702549E+03  0.89496156930E+03  0.92619214821E+03  0.00000000000E+00 0. -1.
         -1    1    3    3    0  502 -0.38760659727E+02 -0.26929249038E+02  0.45904856473E+03  0.46146847994E+03  0.00000000000E+00 0.  1.
         13    1    5    5    0    0 -0.33614725917E+03 -0.30972510213E+02  0.11764967338E+03  0.35748527506E+03  0.00000000000E+00 0. -1.
        -13    1    5    5    0    0 -0.65736338880E+01  0.13007799534E+02  0.16691580907E+02  0.22159070026E+02  0.00000000000E+00 0.  1.
          1    1    6    6  503    0  0.35565795818E+03  0.11089489432E+03  0.64948160067E+02  0.37816467881E+03  0.00000000000E+00 0. -1.
         -1    1    6    6    0  503  0.17359606286E+03  0.12118609088E+03  0.11360643192E+02  0.21201586232E+03  0.00000000000E+00 0.  1.
<mgrwt>
<rscale>  0 0.17633991E+04</rscale>
<asrwt>0</asrwt>
<pdfrwt beam="1">  1        2 0.30170351E+00 0.17633991E+04</pdfrwt>
<pdfrwt beam="2">  1       -1 0.60986564E-01 0.17633991E+04</pdfrwt>
<totfact> 0.20649709E+01</totfact>
</mgrwt>
</event>
<event>
12    7  0.1730932E-007  0.2735493E+04  0.7818608E-02  0.8323580E-01
          2   -1    0    0  501    0  0.00000000000E+00  0.00000000000E+00  0.17728517615E+04  0.17728517615E+04  0.00000000000E+00 0. -1.
         -1   -1    0    0    0  501 -0.00000000000E+00 -0.00000000000E+00 -0.10552097904E+04  0.10552097904E+04  0.00000000000E+00 0.  1.
         24    2    1    2    0    0  0.22630800800E+03 -0.31440049844E+03  0.15134709150E+04  0.15643180705E+04  0.80211142140E+02 0.  0.
        254    2    1    2    0    0 -0.22630800800E+03  0.31440049844E+03 -0.79582894385E+03  0.12637434813E+04  0.90202044925E+03 0.  0.
         23    2    4    4    0    0  0.20444367049E+03 -0.19963594854E+03 -0.30188965998E+03  0.42593362574E+03  0.92899732918E+02 0.  0.
         23    2    4    4    0    0 -0.43075167850E+03  0.51403644698E+03 -0.49393928387E+03  0.83780985561E+03  0.90381749565E+02 0.  0.
          4    1    3    3  502    0  0.12321010721E+03 -0.19642722009E+03  0.10423504571E+04  0.10678290401E+04  0.00000000000E+00 0. -1.
         -3    1    3    3    0  502  0.10309790079E+03 -0.11797327835E+03  0.47112045781E+03  0.49648903041E+03  0.00000000000E+00 0.  1.
         13    1    5    5    0    0 -0.64963823759E+01  0.19700977144E+01 -0.16231669307E+02  0.17594071657E+02  0.00000000000E+00 0. -1.
        -13    1    5    5    0    0  0.21094005287E+03 -0.20160604625E+03 -0.28565799067E+03  0.40833955408E+03  0.00000000000E+00 0.  1.
          3    1    6    6  503    0 -0.79043815697E+02  0.14643060595E+03 -0.97786012245E+02  0.19300764583E+03  0.00000000000E+00 0. -1.
         -3    1    6    6    0  503 -0.35170786280E+03  0.36760584103E+03 -0.39615327162E+03  0.64480220978E+03  0.00000000000E+00 0.  1.
<mgrwt>
<rscale>  0 0.27354930E+04</rscale>
<asrwt>0</asrwt>
<pdfrwt beam="1">  1        2 0.27274642E+00 0.27354930E+04</pdfrwt>
<pdfrwt beam="2">  1       -1 0.16233997E+00 0.27354930E+04</pdfrwt>
<totfact> 0.24957165E+00</totfact>
</mgrwt>
</event>
<event>
12    7  0.1730932E-007  0.1518309E+04  0.7818608E-02  0.8872368E-01
          2   -1    0    0  501    0  0.00000000000E+00  0.00000000000E+00  0.84041950624E+03  0.84041950624E+03  0.00000000000E+00 0. -1.
         -1   -1    0    0    0  501 -0.00000000000E+00 -0.00000000000E+00 -0.68574782275E+03  0.68574782275E+03  0.00000000000E+00 0.  1.
         24    2    1    2    0    0  0.38930980515E+03  0.15599350632E+03 -0.22119475918E+03  0.48104185549E+03  0.81105159199E+02 0.  0.
        254    2    1    2    0    0 -0.38930980515E+03 -0.15599350632E+03  0.37586644268E+03  0.10451254735E+04  0.88040648238E+03 0.  0.
         23    2    4    4    0    0  0.10577570391E+02  0.29694206895E+03  0.29582840431E+03  0.42888816835E+03  0.90244882648E+02 0.  0.
         23    2    4    4    0    0 -0.39988737554E+03 -0.45293557527E+03  0.80038038370E+02  0.61623730515E+03  0.91004286767E+02 0.  0.
          2    1    3    3  502    0  0.38214552747E+03  0.15747395115E+03 -0.22713517202E+03  0.47161810379E+03  0.00000000000E+00 0. -1.
         -1    1    3    3    0  502  0.71642776795E+01 -0.14804448277E+01  0.59404128342E+01  0.94237517050E+01  0.00000000000E+00 0.  1.
         13    1    5    5    0    0  0.65272206724E+01  0.17229531069E+03  0.10807913861E+03  0.20349294558E+03  0.00000000000E+00 0.  1.
        -13    1    5    5    0    0  0.40503497185E+01  0.12464675826E+03  0.18774926570E+03  0.22539522277E+03  0.00000000000E+00 0. -1.
          1    1    6    6  503    0 -0.20920936915E+03 -0.19304602540E+03  0.23747460954E+01  0.28467695284E+03  0.00000000000E+00 0. -1.
         -1    1    6    6    0  503 -0.19067800639E+03 -0.25988954987E+03  0.77663292274E+02  0.33156035231E+03  0.00000000000E+00 0.  1.
<mgrwt>
<rscale>  0 0.15183094E+04</rscale>
<asrwt>0</asrwt>
<pdfrwt beam="1">  1        2 0.12929531E+00 0.15183094E+04</pdfrwt>
<pdfrwt beam="2">  1       -1 0.10549967E+00 0.15183094E+04</pdfrwt>
<totfact> 0.29902338E+01</totfact>
</mgrwt>
</event>
<event>
12    7  0.2048285E-007  0.3346741E+04  0.7818608E-02  0.8151103E-01
         -1   -1    0    0    0  501 -0.00000000000E+00  0.00000000000E+00  0.12718270888E+04  0.12718270888E+04  0.00000000000E+00 0.  1.
          2   -1    0    0  501    0  0.00000000000E+00 -0.00000000000E+00 -0.22016899022E+04  0.22016899022E+04  0.00000000000E+00 0. -1.
         24    2    1    2    0    0  0.10417809586E+04  0.84954759378E+03 -0.12025951529E+04  0.18057145648E+04  0.85623056814E+02 0.  0.
        254    2    1    2    0    0 -0.10417809586E+04 -0.84954759378E+03  0.27273233960E+03  0.16678024262E+04  0.94875883338E+03 0.  0.
         23    2    4    4    0    0  0.15868944485E+03 -0.43551170690E+02 -0.16061560121E+02  0.18995595063E+03  0.93521361688E+02 0.  0.
         23    2    4    4    0    0 -0.12004704035E+04 -0.80599642309E+03  0.28879389973E+03  0.14778464756E+04  0.99342162149E+02 0.  0.
          4    1    3    3  502    0  0.92819437808E+03  0.74211793762E+03 -0.10947402301E+04  0.16157784527E+04  0.00000000000E+00 0. -1.
         -3    1    3    3    0  502  0.11358658054E+03  0.10742965616E+03 -0.10785492287E+03  0.18993611212E+03  0.00000000000E+00 0.  1.
         13    1    5    5    0    0  0.15496772630E+03 -0.12374538997E+02 -0.18015675270E+01  0.15547144771E+03  0.00000000000E+00 0.  1.
        -13    1    5    5    0    0  0.37217185529E+01 -0.31176631693E+02 -0.14259992594E+02  0.34484502918E+02  0.00000000000E+00 0. -1.
          4    1    6    6  503    0 -0.20157812853E+03 -0.14209596913E+03  0.87425929476E+02  0.26166447884E+03  0.00000000000E+00 0. -1.
         -4    1    6    6    0  503 -0.99889227494E+03 -0.66390045396E+03  0.20136797025E+03  0.12161819967E+04  0.00000000000E+00 0.  1.
<mgrwt>
<rscale>  0 0.33467410E+04</rscale>
<asrwt>0</asrwt>
<pdfrwt beam="1">  1        2 0.33872152E+00 0.33467410E+04</pdfrwt>
<pdfrwt beam="2">  1       -1 0.19566571E+00 0.33467410E+04</pdfrwt>
<totfact> 0.78616700E-01</totfact>
</mgrwt>
</event>
<event>
12    7  0.1730932E-007  0.1970991E+04  0.7818608E-02  0.8620304E-01
          2   -1    0    0  501    0  0.00000000000E+00  0.00000000000E+00  0.24960884184E+04  0.24960884184E+04  0.00000000000E+00 0. -1.
         -1   -1    0    0    0  501 -0.00000000000E+00 -0.00000000000E+00 -0.38908952061E+03  0.38908952061E+03  0.00000000000E+00 0.  1.
         24    2    1    2    0    0 -0.44254478203E+03 -0.45578749401E+03  0.14950859245E+04  0.16264287551E+04  0.80002810800E+02 0.  0.
        254    2    1    2    0    0  0.44254478203E+03  0.45578749401E+03  0.61191297326E+03  0.12587491840E+04  0.89801107869E+03 0.  0.
         23    2    4    4    0    0  0.30000105611E+03  0.53860437889E+03  0.78536024928E+03  0.10025514108E+04  0.90682410547E+02 0.  0.
         23    2    4    4    0    0  0.14254372593E+03 -0.82816884888E+02 -0.17344727602E+03  0.25619777312E+03  0.91520441258E+02 0.  0.
          2    1    3    3  502    0 -0.86331976313E+02 -0.12352661388E+03  0.41713978280E+03  0.44352861561E+03  0.00000000000E+00 0. -1.
         -1    1    3    3    0  502 -0.35621280572E+03 -0.33226088012E+03  0.10779461417E+04  0.11829001394E+04  0.00000000000E+00 0.  1.
         13    1    5    5    0    0  0.17821426696E+02  0.30164646263E+02  0.16958948962E+02  0.38924479233E+02  0.00000000000E+00 0.  1.
        -13    1    5    5    0    0  0.28217962941E+03  0.50843973263E+03  0.76840130032E+03  0.96362693160E+03  0.00000000000E+00 0. -1.
          4    1    6    6  503    0  0.13342150524E+03 -0.61878259567E+02 -0.17999322936E+03  0.23243876544E+03  0.00000000000E+00 0. -1.
         -4    1    6    6    0  503  0.91222206862E+01 -0.20938625321E+02  0.65459533342E+01  0.23759007674E+02  0.00000000000E+00 0.  1.
<mgrwt>
<rscale>  0 0.19709915E+04</rscale>
<asrwt>0</asrwt>
<pdfrwt beam="1">  1        2 0.38401359E+00 0.19709915E+04</pdfrwt>
<pdfrwt beam="2">  1       -1 0.59859928E-01 0.19709915E+04</pdfrwt>
<totfact> 0.10503342E+01</totfact>
</mgrwt>
</event>
<event>
12    7  0.1730932E-007  0.2154423E+04  0.7818608E-02  0.8537642E-01
         -3   -1    0    0    0  501 -0.00000000000E+00  0.00000000000E+00  0.10574635515E+04  0.10574635515E+04  0.00000000000E+00 0.  1.
          2   -1    0    0  501    0  0.00000000000E+00 -0.00000000000E+00 -0.10973279008E+04  0.10973279008E+04  0.00000000000E+00 0. -1.
         24    2    1    2    0    0 -0.25125705556E+03 -0.46837697181E+03 -0.71930969201E+03  0.89840497877E+03  0.84958679191E+02 0.  0.
        254    2    1    2    0    0  0.25125705556E+03  0.46837697181E+03  0.67944534273E+03  0.12563864736E+04  0.91342974635E+03 0.  0.
         23    2    4    4    0    0 -0.19674166128E+03  0.54367118421E+03  0.45590997409E+03  0.74195947148E+03  0.91456629201E+02 0.  0.
         23    2    4    4    0    0  0.44799871684E+03 -0.75294212406E+02  0.22353536864E+03  0.51442700208E+03  0.91076949481E+02 0.  0.
          4    1    3    3  502    0 -0.13590605947E+03 -0.28576778155E+03 -0.49082975816E+03  0.58399275121E+03  0.00000000000E+00 0. -1.
         -3    1    3    3    0  502 -0.11535099609E+03 -0.18260919026E+03 -0.22847993385E+03  0.31441222756E+03  0.00000000000E+00 0.  1.
         13    1    5    5    0    0 -0.24588286219E+00  0.45904922191E+02  0.63509981726E+02  0.78363512673E+02  0.00000000000E+00 0.  1.
        -13    1    5    5    0    0 -0.19649577842E+03  0.49776626202E+03  0.39239999236E+03  0.66359595881E+03  0.00000000000E+00 0. -1.
          1    1    6    6  503    0  0.29150409297E+03 -0.70991486628E+01  0.12436841987E+03  0.31700558038E+03  0.00000000000E+00 0. -1.
         -1    1    6    6    0  503  0.15649462387E+03 -0.68195063743E+02  0.99166948779E+02  0.19742142171E+03  0.00000000000E+00 0.  1.
<mgrwt>
<rscale>  0 0.21544227E+04</rscale>
<asrwt>0</asrwt>
<pdfrwt beam="1">  1        2 0.16881968E+00 0.21544227E+04</pdfrwt>
<pdfrwt beam="2">  1       -3 0.16268670E+00 0.21544227E+04</pdfrwt>
<totfact> 0.32990532E+00</totfact>
</mgrwt>
</event>
<event>
12    7  0.1730932E-007  0.1450598E+04  0.7818608E-02  0.8917986E-01
          2   -1    0    0  501    0  0.00000000000E+00  0.00000000000E+00  0.24870020404E+04  0.24870020404E+04  0.00000000000E+00 0. -1.
         -1   -1    0    0    0  501 -0.00000000000E+00 -0.00000000000E+00 -0.21152312141E+03  0.21152312141E+03  0.00000000000E+00 0.  1.
         24    2    1    2    0    0 -0.21008113540E+03 -0.36078126910E+02 -0.16256680471E+02  0.22801389704E+03  0.79311681942E+02 0.  0.
        254    2    1    2    0    0  0.21008113540E+03  0.36078126910E+02  0.22917355995E+04  0.24705112648E+04  0.89774057323E+03 0.  0.
         23    2    4    4    0    0 -0.29277499567E+03  0.13949793672E+03  0.13758061215E+04  0.14165099716E+04  0.92093122945E+02 0.  0.
         23    2    4    4    0    0  0.50285613107E+03 -0.10341980981E+03  0.91592947799E+03  0.10540012932E+04  0.91825768515E+02 0.  0.
          4    1    3    3  502    0 -0.26333491863E+02 -0.15036655115E+02 -0.29870236822E+02  0.42565065941E+02  0.00000000000E+00 0. -1.
         -3    1    3    3    0  502 -0.18374764354E+03 -0.21041471795E+02  0.13613556351E+02  0.18544883110E+03  0.00000000000E+00 0.  1.
         13    1    5    5    0    0 -0.89199197796E+02  0.74533641418E+01  0.27206921993E+03  0.28641527536E+03  0.00000000000E+00 0. -1.
        -13    1    5    5    0    0 -0.20357579787E+03  0.13204457258E+03  0.11037369015E+04  0.11300946962E+04  0.00000000000E+00 0.  1.
          1    1    6    6  503    0  0.73006045476E+02 -0.25596256813E+02  0.82960285801E+02  0.11343482736E+03  0.00000000000E+00 0. -1.
         -1    1    6    6    0  503  0.42985008559E+03 -0.77823552994E+02  0.83296919219E+03  0.94056646582E+03  0.00000000000E+00 0.  1.
<mgrwt>
<rscale>  0 0.14505977E+04</rscale>
<asrwt>0</asrwt>
<pdfrwt beam="1">  1        2 0.38261568E+00 0.14505977E+04</pdfrwt>
<pdfrwt beam="2">  1       -1 0.32542020E-01 0.14505977E+04</pdfrwt>
<totfact> 0.34679413E+01</totfact>
</mgrwt>
</event>
<event>
12    7  0.1730932E-007  0.1780785E+04  0.7818608E-02  0.8716585E-01
         -1   -1    0    0    0  501 -0.00000000000E+00  0.00000000000E+00  0.30338002127E+03  0.30338002127E+03  0.00000000000E+00 0.  1.
          2   -1    0    0  501    0  0.00000000000E+00 -0.00000000000E+00 -0.26132207291E+04  0.26132207291E+04  0.00000000000E+00 0. -1.
         24    2    1    2    0    0 -0.21120608043E+03  0.45720761046E+03 -0.16366684975E+03  0.53335953245E+03  0.63551126438E+02 0.  0.
        254    2    1    2    0    0  0.21120608043E+03 -0.45720761046E+03 -0.21461738581E+04  0.23832412180E+04  0.90561010720E+03 0.  0.
         23    2    4    4    0    0  0.26537062513E+03  0.11596046668E+03 -0.23117046860E+03  0.38147816382E+03  0.90649905696E+02 0.  0.
         23    2    4    4    0    0 -0.54164544698E+02 -0.57316807714E+03 -0.19150033895E+04  0.20017630541E+04  0.91443427953E+02 0.  0.
          2    1    3    3  502    0 -0.48835890340E+01  0.25194484410E+02  0.42503320957E+01  0.26013012310E+02  0.00000000000E+00 0. -1.
         -1    1    3    3    0  502 -0.20632249140E+03  0.43201312605E+03 -0.16791718185E+03  0.50734652014E+03  0.00000000000E+00 0.  1.
         13    1    5    5    0    0  0.25102233902E+02 -0.82098435831E+01 -0.11533322617E+01  0.26435844110E+02  0.00000000000E+00 0. -1.
        -13    1    5    5    0    0  0.24026839123E+03  0.12417031026E+03 -0.23001713634E+03  0.35504231971E+03  0.00000000000E+00 0.  1.
          4    1    6    6  503    0  0.40764023185E+01 -0.62431387229E+01 -0.61996269313E+01  0.96968660434E+01  0.00000000000E+00 0. -1.
         -4    1    6    6    0  503 -0.58240947017E+02 -0.56692493842E+03 -0.19088037626E+04  0.19920661881E+04  0.00000000000E+00 0.  1.
<mgrwt>
<rscale>  0 0.17807852E+04</rscale>
<asrwt>0</asrwt>
<pdfrwt beam="1">  1        2 0.40203397E+00 0.17807852E+04</pdfrwt>
<pdfrwt beam="2">  1       -1 0.46673848E-01 0.17807852E+04</pdfrwt>
<totfact> 0.14742131E+01</totfact>
</mgrwt>
</event>
<event>
12    7  0.1730932E-007  0.1361547E+04  0.7818608E-02  0.8982133E-01
          2   -1    0    0  501    0  0.00000000000E+00  0.00000000000E+00  0.57170314213E+03  0.57170314213E+03  0.00000000000E+00 0. -1.
         -1   -1    0    0    0  501 -0.00000000000E+00 -0.00000000000E+00 -0.81065259261E+03  0.81065259261E+03  0.00000000000E+00 0.  1.
         24    2    1    2    0    0  0.17466323395E+03  0.29115205829E+03  0.10658291943E+03  0.36351207523E+03  0.74191264853E+02 0.  0.
        254    2    1    2    0    0 -0.17466323395E+03 -0.29115205829E+03 -0.34553236991E+03  0.10188436595E+04  0.89631078179E+03 0.  0.
         23    2    4    4    0    0  0.31329534410E+03 -0.14458113049E+03 -0.35149939572E+03  0.50115691871E+03  0.92459483250E+02 0.  0.
         23    2    4    4    0    0 -0.48795857805E+03 -0.14657092780E+03  0.59670258181E+01  0.51768674081E+03  0.91527839715E+02 0.  0.
          2    1    3    3  502    0  0.17570738440E+03  0.25718857244E+03  0.10753536373E+03  0.32951919698E+03  0.00000000000E+00 0. -1.
         -1    1    3    3    0  502 -0.10441504510E+01  0.33963485852E+02 -0.95244429722E+00  0.33992878247E+02  0.00000000000E+00 0.  1.
         13    1    5    5    0    0  0.15404390596E+03 -0.76805680286E+02 -0.11085388479E+03  0.20473695627E+03  0.00000000000E+00 0. -1.
        -13    1    5    5    0    0  0.15925143814E+03 -0.67775450207E+02 -0.24064551093E+03  0.29641996244E+03  0.00000000000E+00 0.  1.
          3    1    6    6  503    0 -0.44006216592E+03 -0.15611156538E+03 -0.76212150292E+01  0.46699423298E+03  0.00000000000E+00 0. -1.
         -3    1    6    6    0  503 -0.47896412129E+02  0.95406375812E+01  0.13588240847E+02  0.50692507825E+02  0.00000000000E+00 0.  1.
<mgrwt>
<rscale>  0 0.13615471E+04</rscale>
<asrwt>0</asrwt>
<pdfrwt beam="1">  1        2 0.87954330E-01 0.13615471E+04</pdfrwt>
<pdfrwt beam="2">  1       -1 0.12471578E+00 0.13615471E+04</pdfrwt>
<totfact> 0.33015154E+01</totfact>
</mgrwt>
</event>
<event>
12    7  0.1730932E-007  0.1554561E+04  0.7818608E-02  0.8848959E-01
         -3   -1    0    0    0  501 -0.00000000000E+00  0.00000000000E+00  0.40440302246E+03  0.40440302246E+03  0.00000000000E+00 0.  1.
          2   -1    0    0  501    0  0.00000000000E+00 -0.00000000000E+00 -0.14939682570E+04  0.14939682570E+04  0.00000000000E+00 0. -1.
         24    2    1    2    0    0  0.39278219799E+03 -0.28899737827E+03 -0.55178067508E+03  0.74028127188E+03  0.75875611380E+02 0.  0.
        254    2    1    2    0    0 -0.39278219799E+03  0.28899737827E+03 -0.53778455947E+03  0.11580900076E+04  0.90230975478E+03 0.  0.
         23    2    4    4    0    0 -0.14379842128E+03 -0.21051015418E+03  0.11494171954E+03  0.29428886302E+03  0.91661469744E+02 0.  0.
         23    2    4    4    0    0 -0.24898377672E+03  0.49950753245E+03 -0.65272627900E+03  0.86380114456E+03  0.92736864331E+02 0.  0.
          4    1    3    3  502    0  0.16700109017E+03 -0.97830955561E+02 -0.26590284466E+03  0.32888384390E+03  0.00000000000E+00 0. -1.
         -3    1    3    3    0  502  0.22578110783E+03 -0.19116642271E+03 -0.28587783042E+03  0.41139742798E+03  0.00000000000E+00 0.  1.
         13    1    5    5    0    0  0.64898158853E+01 -0.50984898159E+02  0.27788800603E+02  0.58427690263E+02  0.00000000000E+00 0.  1.
        -13    1    5    5    0    0 -0.15028823716E+03 -0.15952525602E+03  0.87152918936E+02  0.23586117276E+03  0.00000000000E+00 0. -1.
          3    1    6    6  503    0 -0.23378075655E+03  0.49428284642E+03 -0.64610202331E+03  0.84641408242E+03  0.00000000000E+00 0. -1.
         -3    1    6    6    0  503 -0.15203020170E+02  0.52246860289E+01 -0.66242556908E+01  0.17387062140E+02  0.00000000000E+00 0.  1.
<mgrwt>
<rscale>  0 0.15545614E+04</rscale>
<asrwt>0</asrwt>
<pdfrwt beam="1">  1        2 0.22984127E+00 0.15545614E+04</pdfrwt>
<pdfrwt beam="2">  1       -3 0.62215850E-01 0.15545614E+04</pdfrwt>
<totfact> 0.19779009E+01</totfact>
</mgrwt>
</event>
<event>
12    7  0.1730932E-007  0.2304874E+04  0.7818608E-02  0.8476002E-01
          2   -1    0    0  501    0  0.00000000000E+00  0.00000000000E+00  0.25558619908E+04  0.25558619908E+04  0.00000000000E+00 0. -1.
         -3   -1    0    0    0  501 -0.00000000000E+00 -0.00000000000E+00 -0.51963322834E+03  0.51963322834E+03  0.00000000000E+00 0.  1.
         24    2    1    2    0    0  0.56075810756E+00 -0.12728833601E+03  0.21586399836E+04  0.21643254752E+04  0.91518026396E+02 0.  0.
        254    2    1    2    0    0 -0.56075810756E+00  0.12728833601E+03 -0.12241122112E+03  0.91116974390E+03  0.89389214126E+03 0.  0.
         23    2    4    4    0    0 -0.52208694055E+02  0.27284250671E+03 -0.45053430043E+03  0.53710639033E+03  0.91287115557E+02 0.  0.
         23    2    4    4    0    0  0.51647935948E+02 -0.14555417069E+03  0.32812307932E+03  0.37406335357E+03  0.91679394683E+02 0.  0.
          2    1    3    3  502    0 -0.31327176263E+02 -0.10402086790E+03  0.18475365367E+04  0.18507276913E+04  0.00000000000E+00 0. -1.
         -1    1    3    3    0  502  0.31887934371E+02 -0.23267468113E+02  0.31110344692E+03  0.31359778398E+03  0.00000000000E+00 0.  1.
         13    1    5    5    0    0 -0.23680772356E+02  0.17445132375E+03 -0.20005953443E+03  0.26649176471E+03  0.00000000000E+00 0.  1.
        -13    1    5    5    0    0 -0.28527921699E+02  0.98391182955E+02 -0.25047476600E+03  0.27061462563E+03  0.00000000000E+00 0. -1.
          4    1    6    6  503    0  0.73883419918E+02 -0.10463461255E+03  0.27531557267E+03  0.30365412303E+03  0.00000000000E+00 0. -1.
         -4    1    6    6    0  503 -0.22235483970E+02 -0.40919558145E+02  0.52807506649E+02  0.70409230535E+02  0.00000000000E+00 0.  1.
<mgrwt>
<rscale>  0 0.23048738E+04</rscale>
<asrwt>0</asrwt>
<pdfrwt beam="1">  1        2 0.39320953E+00 0.23048738E+04</pdfrwt>
<pdfrwt beam="2">  1       -3 0.79943575E-01 0.23048738E+04</pdfrwt>
<totfact> 0.27322069E+00</totfact>
</mgrwt>
</event>
<event>
12    7  0.1730932E-007  0.1532337E+04  0.7818608E-02  0.8863229E-01
         -1   -1    0    0    0  501 -0.00000000000E+00  0.00000000000E+00  0.43314865135E+03  0.43314865135E+03  0.00000000000E+00 0.  1.
          2   -1    0    0  501    0  0.00000000000E+00 -0.00000000000E+00 -0.13552256924E+04  0.13552256924E+04  0.00000000000E+00 0. -1.
         24    2    1    2    0    0  0.19701537429E+02  0.44514849968E+03 -0.53626092096E+03  0.70189943265E+03  0.80880781734E+02 0.  0.
        254    2    1    2    0    0 -0.19701537429E+02 -0.44514849968E+03 -0.38581612013E+03  0.10864749111E+04  0.91270384936E+03 0.  0.
         23    2    4    4    0    0  0.92683944126E+02 -0.18897665999E+03  0.27804395277E+03  0.36023391834E+03  0.90319127147E+02 0.  0.
         23    2    4    4    0    0 -0.11238548155E+03 -0.25617183969E+03 -0.66386007291E+03  0.72624099280E+03  0.91985190703E+02 0.  0.
          2    1    3    3  502    0  0.26108765282E+02  0.19521783338E+03 -0.29318620528E+03  0.35319940693E+03  0.00000000000E+00 0. -1.
         -1    1    3    3    0  502 -0.64072278533E+01  0.24993066630E+03 -0.24307471568E+03  0.34870002571E+03  0.00000000000E+00 0.  1.
         13    1    5    5    0    0  0.78855772701E+02 -0.85443054600E+02  0.19397104535E+03  0.22614931992E+03  0.00000000000E+00 0. -1.
        -13    1    5    5    0    0  0.13828171425E+02 -0.10353360539E+03  0.84072907425E+02  0.13408459842E+03  0.00000000000E+00 0.  1.
          1    1    6    6  503    0 -0.33990320332E+02 -0.18461410382E+03 -0.44623393425E+03  0.48410993925E+03  0.00000000000E+00 0. -1.
         -1    1    6    6    0  503 -0.78395161223E+02 -0.71557735874E+02 -0.21762613865E+03  0.24213105355E+03  0.00000000000E+00 0.  1.
<mgrwt>
<rscale>  0 0.15323370E+04</rscale>
<asrwt>0</asrwt>
<pdfrwt beam="1">  1        2 0.20849626E+00 0.15323370E+04</pdfrwt>
<pdfrwt beam="2">  1       -1 0.66638254E-01 0.15323370E+04</pdfrwt>
<totfact> 0.38489720E+01</totfact>
</mgrwt>
</event>
<event>
12    7  0.1730932E-007  0.1623742E+04  0.7818608E-02  0.8806094E-01
          2   -1    0    0  501    0  0.00000000000E+00  0.00000000000E+00  0.69470852705E+03  0.69470852705E+03  0.00000000000E+00 0. -1.
         -1   -1    0    0    0  501 -0.00000000000E+00 -0.00000000000E+00 -0.94879331076E+03  0.94879331076E+03  0.00000000000E+00 0.  1.
         24    2    1    2    0    0 -0.21566939189E+02 -0.23028110794E+03 -0.58716121392E+03  0.63611575602E+03  0.79940242603E+02 0.  0.
        254    2    1    2    0    0  0.21566939189E+02  0.23028110794E+03  0.33307643021E+03  0.10073860818E+04  0.92216716916E+03 0.  0.
         23    2    4    4    0    0  0.39936919765E+03 -0.12047092827E+03  0.15623415205E+03  0.45481718816E+03  0.91872541043E+02 0.  0.
         23    2    4    4    0    0 -0.37780225846E+03  0.35075203620E+03  0.17684227816E+03  0.55256889362E+03  0.91091456533E+02 0.  0.
          2    1    3    3  502    0 -0.79606833808E+01  0.41726329998E+01 -0.13230419602E+02  0.15994603743E+02  0.00000000000E+00 0. -1.
         -1    1    3    3    0  502 -0.13606255808E+02 -0.23445374094E+03 -0.57393079432E+03  0.62012115228E+03  0.00000000000E+00 0.  1.
         13    1    5    5    0    0  0.21631088664E+03 -0.30000768660E+02  0.47541329887E+02  0.22349636205E+03  0.00000000000E+00 0. -1.
        -13    1    5    5    0    0  0.18305831100E+03 -0.90470159607E+02  0.10869282216E+03  0.23132082612E+03  0.00000000000E+00 0.  1.
          4    1    6    6  503    0 -0.90903051459E+01  0.27028904262E+02  0.27673983943E+02  0.39737195428E+02  0.00000000000E+00 0. -1.
         -4    1    6    6    0  503 -0.36871195331E+03  0.32372313194E+03  0.14916829422E+03  0.51283169819E+03  0.00000000000E+00 0.  1.
<mgrwt>
<rscale>  0 0.16237423E+04</rscale>
<asrwt>0</asrwt>
<pdfrwt beam="1">  1        2 0.10687824E+00 0.16237423E+04</pdfrwt>
<pdfrwt beam="2">  1       -1 0.14596820E+00 0.16237423E+04</pdfrwt>
<totfact> 0.16977309E+01</totfact>
</mgrwt>
</event>
<event>
12    7  0.1730932E-007  0.1939869E+04  0.7818608E-02  0.8635262E-01
          2   -1    0    0  501    0  0.00000000000E+00  0.00000000000E+00  0.66040272100E+03  0.66040272100E+03  0.00000000000E+00 0. -1.
         -1   -1    0    0    0  501 -0.00000000000E+00 -0.00000000000E+00 -0.14245443642E+04  0.14245443642E+04  0.00000000000E+00 0.  1.
         24    2    1    2    0    0  0.41906422719E+03  0.82228563038E+02  0.37691738128E+03  0.57505060049E+03  0.78994415737E+02 0.  0.
        254    2    1    2    0    0 -0.41906422719E+03 -0.82228563038E+02 -0.11410590245E+04  0.15098964847E+04  0.89184938979E+03 0.  0.
         23    2    4    4    0    0  0.17076623713E+03 -0.29701526928E+03 -0.41956524181E+03  0.54932895321E+03  0.91368094958E+02 0.  0.
         23    2    4    4    0    0 -0.58983046432E+03  0.21478670624E+03 -0.72149378264E+03  0.96056753147E+03  0.90018877397E+02 0.  0.
          2    1    3    3  502    0  0.34170214396E+03  0.95665293192E+02  0.29352959466E+03  0.46051256926E+03  0.00000000000E+00 0. -1.
         -1    1    3    3    0  502  0.77362083239E+02 -0.13436730153E+02  0.83387786619E+02  0.11453803123E+03  0.00000000000E+00 0.  1.
         13    1    5    5    0    0  0.33756876533E+02 -0.11004485412E+03 -0.88556729225E+02  0.14522978662E+03  0.00000000000E+00 0.  1.
        -13    1    5    5    0    0  0.13700936060E+03 -0.18697041516E+03 -0.33100851258E+03  0.40409916659E+03  0.00000000000E+00 0. -1.
          1    1    6    6  503    0 -0.53341188081E+03  0.22003980602E+03 -0.66705887161E+03  0.88199392799E+03  0.00000000000E+00 0. -1.
         -1    1    6    6    0  503 -0.56418583518E+02 -0.52530997825E+01 -0.54434911032E+02  0.78573603472E+02  0.00000000000E+00 0.  1.
<mgrwt>
<rscale>  0 0.19398690E+04</rscale>
<asrwt>0</asrwt>
<pdfrwt beam="1">  1        2 0.10160042E+00 0.19398690E+04</pdfrwt>
<pdfrwt beam="2">  1       -1 0.21916067E+00 0.19398690E+04</pdfrwt>
<totfact> 0.52382428E+00</totfact>
</mgrwt>
</event>
<event>
12    7  0.1730932E-007  0.2365944E+04  0.7818608E-02  0.8452365E-01
          2   -1    0    0  501    0  0.00000000000E+00  0.00000000000E+00  0.10070490288E+04  0.10070490288E+04  0.00000000000E+00 0. -1.
         -1   -1    0    0    0  501 -0.00000000000E+00 -0.00000000000E+00 -0.13896277697E+04  0.13896277697E+04  0.00000000000E+00 0.  1.
         24    2    1    2    0    0 -0.44251022699E+03  0.63979032863E+03  0.47056507004E+03  0.91264581191E+03  0.79648774291E+02 0.  0.
        254    2    1    2    0    0  0.44251022699E+03 -0.63979032863E+03 -0.85314381095E+03  0.14840309865E+04  0.93238760241E+03 0.  0.
         23    2    4    4    0    0  0.64971631201E+03 -0.32161898963E+03 -0.80979803094E+03  0.10908387957E+04  0.92662650470E+02 0.  0.
         23    2    4    4    0    0 -0.20720608502E+03 -0.31817133900E+03 -0.43345780008E+02  0.39319219076E+03  0.92487186138E+02 0.  0.
          4    1    3    3  502    0 -0.14219757934E+03  0.19898074378E+03  0.19179851358E+03  0.31080565918E+03  0.00000000000E+00 0. -1.
         -3    1    3    3    0  502 -0.30031264765E+03  0.44080958486E+03  0.27876655647E+03  0.60184015274E+03  0.00000000000E+00 0.  1.
         13    1    5    5    0    0  0.16388669774E+03 -0.45645772217E+02 -0.22429293042E+03  0.28151324099E+03  0.00000000000E+00 0. -1.
        -13    1    5    5    0    0  0.48582961428E+03 -0.27597321742E+03 -0.58550510052E+03  0.80932555476E+03  0.00000000000E+00 0.  1.
          1    1    6    6  503    0 -0.57342165451E+02 -0.17057764359E+03 -0.10105225493E+02  0.18024142702E+03  0.00000000000E+00 0. -1.
         -1    1    6    6    0  503 -0.14986391957E+03 -0.14759369541E+03 -0.33240554515E+02  0.21295076374E+03  0.00000000000E+00 0.  1.
<mgrwt>
<rscale>  0 0.23659445E+04</rscale>
<asrwt>0</asrwt>
<pdfrwt beam="1">  1        2 0.15493062E+00 0.23659445E+04</pdfrwt>
<pdfrwt beam="2">  1       -1 0.21378889E+00 0.23659445E+04</pdfrwt>
<totfact> 0.31056257E+00</totfact>
</mgrwt>
</event>
<event>
12    7  0.2249132E-007  0.1588536E+04  0.7818608E-02  0.8827622E-01
         -1   -1    0    0    0  501 -0.00000000000E+00  0.00000000000E+00  0.89751256427E+03  0.89751256427E+03  0.00000000000E+00 0.  1.
          2   -1    0    0  501    0  0.00000000000E+00 -0.00000000000E+00 -0.70290004384E+03  0.70290004384E+03  0.00000000000E+00 0. -1.
         24    2    1    2    0    0  0.43701480746E+01 -0.17790995609E+03  0.45190504516E+03  0.49261744699E+03  0.82357322512E+02 0.  0.
        254    2    1    2    0    0 -0.43701480746E+01  0.17790995609E+03 -0.25729252472E+03  0.11077951611E+04  0.10627039216E+04 0.  0.
         23    2    4    4    0    0 -0.38990673674E+03 -0.26082112888E+03 -0.18307560092E+03  0.51170033224E+03  0.90915508796E+02 0.  0.
         23    2    4    4    0    0  0.38553658867E+03  0.43873108496E+03 -0.74216923805E+02  0.59609482887E+03  0.93260211853E+02 0.  0.
          4    1    3    3  502    0 -0.31313864850E+02 -0.28792891325E+02  0.88609599986E+02  0.98291657492E+02  0.00000000000E+00 0. -1.
         -3    1    3    3    0  502  0.35684012925E+02 -0.14911706476E+03  0.36329544517E+03  0.39432578950E+03  0.00000000000E+00 0.  1.
         13    1    5    5    0    0 -0.42082474979E+02 -0.28998985293E+01 -0.32493596593E+02  0.53246388905E+02  0.00000000000E+00 0. -1.
        -13    1    5    5    0    0 -0.34782426176E+03 -0.25792123035E+03 -0.15058200433E+03  0.45845394334E+03  0.00000000000E+00 0.  1.
          1    1    6    6  503    0  0.33693679150E+01  0.13714434831E+00  0.79022172518E+01  0.85916521236E+01  0.00000000000E+00 0. -1.
         -1    1    6    6    0  503  0.38216722075E+03  0.43859394062E+03 -0.82119141056E+02  0.58750317675E+03  0.00000000000E+00 0.  1.
<mgrwt>
<rscale>  0 0.15885360E+04</rscale>
<asrwt>0</asrwt>
<pdfrwt beam="1">  1        2 0.10813847E+00 0.15885360E+04</pdfrwt>
<pdfrwt beam="2">  1       -1 0.13807886E+00 0.15885360E+04</pdfrwt>
<totfact> 0.19417852E+01</totfact>
</mgrwt>
</event>
<event>
12    7  0.1730932E-007  0.1357020E+04  0.7818608E-02  0.8985531E-01
          2   -1    0    0  501    0  0.00000000000E+00  0.00000000000E+00  0.14840278952E+04  0.14840278952E+04  0.00000000000E+00 0. -1.
         -1   -1    0    0    0  501 -0.00000000000E+00 -0.00000000000E+00 -0.31022037718E+03  0.31022037718E+03  0.00000000000E+00 0.  1.
         24    2    1    2    0    0  0.36865797077E+03  0.52845179008E+02  0.12896033552E+03  0.40161004910E+03  0.77191651370E+02 0.  0.
        254    2    1    2    0    0 -0.36865797077E+03 -0.52845179008E+02  0.10448471825E+04  0.13926382233E+04  0.84204172926E+03 0.  0.
         23    2    4    4    0    0 -0.30404374927E+03 -0.11432473175E+03 -0.19673605714E+01  0.33805442173E+03  0.93617176762E+02 0.  0.
         23    2    4    4    0    0 -0.64614221502E+02  0.61479552738E+02  0.10468145431E+04  0.10545838016E+04  0.91496305328E+02 0.  0.
          2    1    3    3  502    0 -0.28557876957E+01 -0.12053290748E+01  0.56645299438E+01  0.64571852247E+01  0.00000000000E+00 0. -1.
         -1    1    3    3    0  502  0.37151375847E+03  0.54050508083E+02  0.12329580557E+03  0.39515286387E+03  0.00000000000E+00 0.  1.
         13    1    5    5    0    0 -0.30818703313E+03 -0.11441510616E+03  0.63065853678E+01  0.32880060359E+03  0.00000000000E+00 0.  1.
        -13    1    5    5    0    0  0.41432838572E+01  0.90374418029E-01 -0.82739459392E+01  0.92538181343E+01  0.00000000000E+00 0. -1.
          1    1    6    6  503    0 -0.20144752503E+02 -0.73743098699E+01  0.50033957281E+02  0.54438849920E+02  0.00000000000E+00 0. -1.
         -1    1    6    6    0  503 -0.44469469000E+02  0.68853862608E+02  0.99678058579E+03  0.10001449516E+04  0.00000000000E+00 0.  1.
<mgrwt>
<rscale>  0 0.13570198E+04</rscale>
<asrwt>0</asrwt>
<pdfrwt beam="1">  1        2 0.22831198E+00 0.13570198E+04</pdfrwt>
<pdfrwt beam="2">  1       -1 0.47726213E-01 0.13570198E+04</pdfrwt>
<totfact> 0.63209600E+01</totfact>
</mgrwt>
</event>
<event>
12    7  0.1730932E-007  0.2139005E+04  0.7818608E-02  0.8544253E-01
          2   -1    0    0  501    0  0.00000000000E+00  0.00000000000E+00  0.26769353134E+04  0.26769353134E+04  0.00000000000E+00 0. -1.
         -1   -1    0    0    0  501 -0.00000000000E+00 -0.00000000000E+00 -0.42729309650E+03  0.42729309650E+03  0.00000000000E+00 0.  1.
         24    2    1    2    0    0  0.49631920861E+03 -0.38188802355E+03  0.18258658209E+04  0.19319820348E+04  0.81224179615E+02 0.  0.
        254    2    1    2    0    0 -0.49631920861E+03  0.38188802355E+03  0.42377639599E+03  0.11722463751E+04  0.89577001002E+03 0.  0.
         23    2    4    4    0    0  0.44546849946E+02  0.46248556318E+03 -0.12809543430E+01  0.47377385499E+03  0.92642899586E+02 0.  0.
         23    2    4    4    0    0 -0.54086605855E+03 -0.80597539627E+02  0.42505735033E+03  0.69847252014E+03  0.90321944331E+02 0.  0.
          2    1    3    3  502    0  0.42055865142E+03 -0.29559334558E+03  0.14198340403E+04  0.15100244062E+04  0.00000000000E+00 0. -1.
         -1    1    3    3    0  502  0.75760557189E+02 -0.86294677969E+02  0.40603178058E+03  0.42195762858E+03  0.00000000000E+00 0.  1.
         13    1    5    5    0    0  0.83280367847E+01  0.30133787798E+03 -0.40092559957E+02  0.30410735977E+03  0.00000000000E+00 0. -1.
        -13    1    5    5    0    0  0.36218813161E+02  0.16114768520E+03  0.38811605614E+02  0.16966649523E+03  0.00000000000E+00 0.  1.
          2    1    6    6  503    0 -0.38204030911E+03 -0.88105133123E+02  0.26751261818E+03  0.47463703306E+03  0.00000000000E+00 0. -1.
         -2    1    6    6    0  503 -0.15882574944E+03  0.75075934960E+01  0.15754473215E+03  0.22383548708E+03  0.00000000000E+00 0.  1.
<mgrwt>
<rscale>  0 0.21390054E+04</rscale>
<asrwt>0</asrwt>
<pdfrwt beam="1">  1        2 0.41183619E+00 0.21390054E+04</pdfrwt>
<pdfrwt beam="2">  1       -1 0.65737401E-01 0.21390054E+04</pdfrwt>
<totfact> 0.67244976E+00</totfact>
</mgrwt>
</event>
<event>
12    7  0.1730932E-007  0.1260316E+04  0.7818608E-02  0.9061641E-01
         -1   -1    0    0    0  501 -0.00000000000E+00  0.00000000000E+00  0.11402649781E+03  0.11402649781E+03  0.00000000000E+00 0.  1.
          2   -1    0    0  501    0  0.00000000000E+00 -0.00000000000E+00 -0.34825162994E+04  0.34825162994E+04  0.00000000000E+00 0. -1.
         24    2    1    2    0    0  0.20727256879E+03  0.11359526721E+03 -0.14592589061E+04  0.14803989264E+04  0.79237767782E+02 0.  0.
        254    2    1    2    0    0 -0.20727256879E+03 -0.11359526721E+03 -0.19092308955E+04  0.21161438708E+04  0.88149671979E+03 0.  0.
         23    2    4    4    0    0  0.20088683682E+03 -0.28807832408E+03 -0.40210625579E+03  0.54245454919E+03  0.96035696381E+02 0.  0.
         23    2    4    4    0    0 -0.40815940560E+03  0.17448305687E+03 -0.15071246397E+04  0.15736893216E+04  0.89637959315E+02 0.  0.
          2    1    3    3  502    0  0.17358288082E+03  0.10480711244E+03 -0.10325135406E+04  0.10522356005E+04  0.00000000000E+00 0. -1.
         -1    1    3    3    0  502  0.33689687962E+02  0.87881547717E+01 -0.42674536550E+03  0.42816332598E+03  0.00000000000E+00 0.  1.
         13    1    5    5    0    0  0.13911934326E+03 -0.11596710164E+03 -0.20717386342E+03  0.27517915985E+03  0.00000000000E+00 0. -1.
        -13    1    5    5    0    0  0.61767493553E+02 -0.17211122244E+03 -0.19493239237E+03  0.26727538934E+03  0.00000000000E+00 0.  1.
          1    1    6    6  503    0 -0.25321177617E+03  0.95636757425E+02 -0.76499959239E+03  0.81147210015E+03  0.00000000000E+00 0. -1.
         -1    1    6    6    0  503 -0.15494762943E+03  0.78846299440E+02 -0.74212504733E+03  0.76221722145E+03  0.00000000000E+00 0.  1.
<mgrwt>
<rscale>  0 0.12603161E+04</rscale>
<asrwt>0</asrwt>
<pdfrwt beam="1">  1        2 0.53577180E+00 0.12603161E+04</pdfrwt>
<pdfrwt beam="2">  1       -1 0.17542536E-01 0.12603161E+04</pdfrwt>
<totfact> 0.24350842E+01</totfact>
</mgrwt>
</event>
<event>
12    7  0.1730932E-007  0.2851626E+04  0.7818608E-02  0.8287418E-01
          4   -1    0    0  501    0  0.00000000000E+00  0.00000000000E+00  0.69131551589E+03  0.69131551589E+03  0.00000000000E+00 0. -1.
         -3   -1    0    0    0  501 -0.00000000000E+00 -0.00000000000E+00 -0.29406865013E+04  0.29406865013E+04  0.00000000000E+00 0.  1.
         24    2    1    2    0    0 -0.12440875068E+04 -0.19227052291E+03 -0.13313612647E+04  0.18339702136E+04  0.78754357210E+02 0.  0.
        254    2    1    2    0    0  0.12440875068E+04  0.19227052291E+03 -0.91800972073E+03  0.17980318036E+04  0.89747135939E+03 0.  0.
         23    2    4    4    0    0  0.42757216145E+03 -0.10493672404E+03  0.96134163299E+02  0.45978912532E+03  0.91293992748E+02 0.  0.
         23    2    4    4    0    0  0.81651534532E+03  0.29720724695E+03 -0.10141438840E+04  0.13382426783E+04  0.85884758074E+02 0.  0.
          2    1    3    3  502    0 -0.42826818074E+03 -0.49423154477E+02 -0.40771328760E+03  0.59336869459E+03  0.00000000000E+00 0. -1.
         -1    1    3    3    0  502 -0.81581932604E+03 -0.14284736843E+03 -0.92364797712E+03  0.12406015190E+04  0.00000000000E+00 0.  1.
         13    1    5    5    0    0  0.18814016913E+02  0.98039102593E+01  0.18592009474E+02  0.28208982701E+02  0.00000000000E+00 0. -1.
        -13    1    5    5    0    0  0.40875814454E+03 -0.11474063429E+03  0.77542153826E+02  0.43158014262E+03  0.00000000000E+00 0.  1.
          4    1    6    6  503    0  0.48116690049E+03  0.20956926363E+03 -0.56923083308E+03  0.77425099529E+03  0.00000000000E+00 0.  1.
         -4    1    6    6    0  503  0.33534844484E+03  0.87637983320E+02 -0.44491305095E+03  0.56399168299E+03  0.00000000000E+00 0. -1.
<mgrwt>
<rscale>  0 0.28516256E+04</rscale>
<asrwt>0</asrwt>
<pdfrwt beam="1">  1        4 0.10635623E+00 0.28516256E+04</pdfrwt>
<pdfrwt beam="2">  1       -3 0.45241330E+00 0.28516256E+04</pdfrwt>
<totfact> 0.76855265E-03</totfact>
</mgrwt>
</event>
<event>
12    7  0.1730932E-007  0.1615243E+04  0.7818608E-02  0.8811238E-01
         -1   -1    0    0    0  501 -0.00000000000E+00  0.00000000000E+00  0.50427039442E+03  0.50427039442E+03  0.00000000000E+00 0.  1.
          2   -1    0    0  501    0  0.00000000000E+00 -0.00000000000E+00 -0.12934578212E+04  0.12934578212E+04  0.00000000000E+00 0. -1.
         24    2    1    2    0    0 -0.27071884208E+03  0.45731737234E+03 -0.46082547192E+03  0.70829660171E+03  0.83042699348E+02 0.  0.
        254    2    1    2    0    0  0.27071884208E+03 -0.45731737234E+03 -0.32836195481E+03  0.10894316139E+04  0.89253111846E+03 0.  0.
         23    2    4    4    0    0  0.48989465329E+02  0.12069222617E+02  0.27141703178E+03  0.29091467789E+03  0.91752443167E+02 0.  0.
         23    2    4    4    0    0  0.22172937675E+03 -0.46938659496E+03 -0.59977898658E+03  0.79851693597E+03  0.91688452094E+02 0.  0.
          2    1    3    3  502    0 -0.22259451296E+03  0.37394623695E+03 -0.41628880166E+03  0.60222958389E+03  0.00000000000E+00 0. -1.
         -1    1    3    3    0  502 -0.48124329118E+02  0.83371135396E+02 -0.44536670262E+02  0.10606701782E+03  0.00000000000E+00 0.  1.
         13    1    5    5    0    0 -0.18884404776E+02 -0.21809585017E+02  0.74146037638E+02  0.79560754394E+02  0.00000000000E+00 0.  1.
        -13    1    5    5    0    0  0.67873870105E+02  0.33878807634E+02  0.19727099414E+03  0.21135392350E+03  0.00000000000E+00 0. -1.
          3    1    6    6  503    0  0.21069448643E+03 -0.45970585779E+03 -0.59886113939E+03  0.78380884569E+03  0.00000000000E+00 0. -1.
         -3    1    6    6    0  503  0.11034890316E+02 -0.96807371649E+01 -0.91784718947E+00  0.14708090284E+02  0.00000000000E+00 0.  1.
<mgrwt>
<rscale>  0 0.16152430E+04</rscale>
<asrwt>0</asrwt>
<pdfrwt beam="1">  1        2 0.19899351E+00 0.16152430E+04</pdfrwt>
<pdfrwt beam="2">  1       -1 0.77580061E-01 0.16152430E+04</pdfrwt>
<totfact> 0.30323338E+01</totfact>
</mgrwt>
</event>
<event>
12    7  0.1730932E-007  0.1556334E+04  0.7818608E-02  0.8847832E-01
         -1   -1    0    0    0  501 -0.00000000000E+00  0.00000000000E+00  0.72106830453E+03  0.72106830453E+03  0.00000000000E+00 0.  1.
          2   -1    0    0  501    0  0.00000000000E+00 -0.00000000000E+00 -0.83978682781E+03  0.83978682781E+03  0.00000000000E+00 0. -1.
         24    2    1    2    0    0  0.17708053961E+03 -0.47434397249E+03 -0.11633302578E+03  0.52610478110E+03  0.83024972511E+02 0.  0.
        254    2    1    2    0    0 -0.17708053961E+03  0.47434397249E+03 -0.23854974999E+01  0.10347503512E+04  0.90240948413E+03 0.  0.
         23    2    4    4    0    0 -0.31085712934E+03  0.30200147924E+03 -0.38404546585E+03  0.58553210872E+03  0.86717254232E+02 0.  0.
         23    2    4    4    0    0  0.13377658973E+03  0.17234249326E+03  0.38165996835E+03  0.44921824252E+03  0.92382828647E+02 0.  0.
          4    1    3    3  502    0  0.16947503160E+03 -0.39599409659E+03 -0.75073099739E+02  0.43722886590E+03  0.00000000000E+00 0. -1.
         -3    1    3    3    0  502  0.76055080084E+01 -0.78349875904E+02 -0.41259926040E+02  0.88875915202E+02  0.00000000000E+00 0.  1.
         13    1    5    5    0    0 -0.12752902244E+03  0.15792861232E+03 -0.22639428364E+03  0.30407148801E+03  0.00000000000E+00 0.  1.
        -13    1    5    5    0    0 -0.18332810690E+03  0.14407286691E+03 -0.15765118221E+03  0.28146062071E+03  0.00000000000E+00 0. -1.
          2    1    6    6  503    0 -0.11109189930E+02  0.14674230296E+02  0.11854001550E+02  0.21892110187E+02  0.00000000000E+00 0.  1.
         -2    1    6    6    0  503  0.14488577966E+03  0.15766826296E+03  0.36980596680E+03  0.42732613233E+03  0.00000000000E+00 0. -1.
<mgrwt>
<rscale>  0 0.15563337E+04</rscale>
<asrwt>0</asrwt>
<pdfrwt beam="1">  1        2 0.12919797E+00 0.15563337E+04</pdfrwt>
<pdfrwt beam="2">  1       -1 0.11093359E+00 0.15563337E+04</pdfrwt>
<totfact> 0.26516534E+01</totfact>
</mgrwt>
</event>
<event>
12    7  0.1730932E-007  0.1747506E+04  0.7818608E-02  0.8734725E-01
          2   -1    0    0  501    0  0.00000000000E+00  0.00000000000E+00  0.16412052997E+04  0.16412052997E+04  0.00000000000E+00 0. -1.
         -1   -1    0    0    0  501 -0.00000000000E+00 -0.00000000000E+00 -0.46517269518E+03  0.46517269518E+03  0.00000000000E+00 0.  1.
         24    2    1    2    0    0  0.28487229779E+03 -0.36083325800E+02 -0.25968096072E+03  0.39494340144E+03  0.78050346156E+02 0.  0.
        254    2    1    2    0    0 -0.28487229779E+03  0.36083325800E+02  0.14357135652E+04  0.17114345934E+04  0.88616064780E+03 0.  0.
         23    2    4    4    0    0  0.21207077211E+03 -0.21009592918E+03  0.25109199546E+03  0.40067101736E+03  0.91519189958E+02 0.  0.
         23    2    4    4    0    0 -0.49694306990E+03  0.24617925498E+03  0.11846215698E+04  0.13107635761E+04  0.84948504606E+02 0.  0.
          2    1    3    3  502    0  0.68982613917E+02 -0.42257486468E+02 -0.59042002923E+02  0.10015115723E+03  0.00000000000E+00 0. -1.
         -1    1    3    3    0  502  0.21588968387E+03  0.61741606686E+01 -0.20063895780E+03  0.29479224421E+03  0.00000000000E+00 0.  1.
         13    1    5    5    0    0  0.74667728273E+02 -0.28839885295E+02  0.97833034248E+02  0.12640534490E+03  0.00000000000E+00 0. -1.
        -13    1    5    5    0    0  0.13740304384E+03 -0.18125604388E+03  0.15325896121E+03  0.27426567246E+03  0.00000000000E+00 0.  1.
          3    1    6    6  503    0 -0.27765362765E+03  0.11011069498E+03  0.55426405461E+03  0.62962254116E+03  0.00000000000E+00 0. -1.
         -3    1    6    6    0  503 -0.21928944225E+03  0.13606855999E+03  0.63035751517E+03  0.68114103491E+03  0.00000000000E+00 0.  1.
<mgrwt>
<rscale>  0 0.17475055E+04</rscale>
<asrwt>0</asrwt>
<pdfrwt beam="1">  1        2 0.25249312E+00 0.17475055E+04</pdfrwt>
<pdfrwt beam="2">  1       -1 0.71565031E-01 0.17475055E+04</pdfrwt>
<totfact> 0.22513795E+01</totfact>
</mgrwt>
</event>
<event>
12    7  0.1730932E-007  0.1320333E+04  0.7818608E-02  0.9013595E-01
          2   -1    0    0  501    0  0.00000000000E+00  0.00000000000E+00  0.50165492942E+03  0.50165492942E+03  0.00000000000E+00 0. -1.
         -1   -1    0    0    0  501 -0.00000000000E+00 -0.00000000000E+00 -0.86876362185E+03  0.86876362185E+03  0.00000000000E+00 0.  1.
         24    2    1    2    0    0  0.16337509117E+03 -0.55498408144E+02 -0.40853813023E+03  0.45071461175E+03  0.80428624717E+02 0.  0.
        254    2    1    2    0    0 -0.16337509117E+03  0.55498408144E+02  0.41429437804E+02  0.91970393952E+03  0.90242309608E+03 0.  0.
         23    2    4    4    0    0 -0.19900502283E+03 -0.17118557385E+03 -0.35602786206E+03  0.45163042917E+03  0.91141133346E+02 0.  0.
         23    2    4    4    0    0  0.35629931658E+02  0.22668398199E+03  0.39745729986E+03  0.46807351035E+03  0.92007533150E+02 0.  0.
          2    1    3    3  502    0  0.16834839888E+02 -0.37271338547E+02 -0.65172667398E+02  0.76941803247E+02  0.00000000000E+00 0. -1.
         -1    1    3    3    0  502  0.14654025128E+03 -0.18227069597E+02 -0.34336546283E+03  0.37377280851E+03  0.00000000000E+00 0.  1.
         13    1    5    5    0    0 -0.18896707741E+03 -0.17120156713E+03 -0.29563146333E+03  0.39040555202E+03  0.00000000000E+00 0.  1.
        -13    1    5    5    0    0 -0.10037945415E+02  0.15993275891E-01 -0.60396398722E+02  0.61224877154E+02  0.00000000000E+00 0. -1.
          3    1    6    6  503    0 -0.73817229810E+01  0.60961890710E+02  0.18668224826E+03  0.19652252738E+03  0.00000000000E+00 0. -1.
         -3    1    6    6    0  503  0.43011654639E+02  0.16572209128E+03  0.21077505161E+03  0.27155098297E+03  0.00000000000E+00 0.  1.
<mgrwt>
<rscale>  0 0.13203326E+04</rscale>
<asrwt>0</asrwt>
<pdfrwt beam="1">  1        2 0.77177682E-01 0.13203326E+04</pdfrwt>
<pdfrwt beam="2">  1       -1 0.13365594E+00 0.13203326E+04</pdfrwt>
<totfact> 0.32456457E+01</totfact>
</mgrwt>
</event>
<event>
12    7  0.2394007E-007  0.2248703E+04  0.7818608E-02  0.8498426E-01
          2   -1    0    0  501    0  0.00000000000E+00  0.00000000000E+00  0.19900048165E+04  0.19900048165E+04  0.00000000000E+00 0. -1.
         -1   -1    0    0    0  501 -0.00000000000E+00 -0.00000000000E+00 -0.63525776362E+03  0.63525776362E+03  0.00000000000E+00 0.  1.
         24    2    1    2    0    0 -0.64576081341E+03  0.18165543743E+03  0.13429507703E+04  0.15032658333E+04  0.79282204743E+02 0.  0.
        254    2    1    2    0    0  0.64576081341E+03 -0.18165543743E+03  0.11796282579E+02  0.11219967468E+04  0.89929518042E+03 0.  0.
         23    2    4    4    0    0  0.62506921011E+03 -0.24395095854E+03 -0.33586193660E+03  0.75629819578E+03  0.94657978459E+02 0.  0.
         23    2    4    4    0    0  0.20691603296E+02  0.62295521112E+02  0.34765821918E+03  0.36569855104E+03  0.92521989135E+02 0.  0.
          2    1    3    3  502    0 -0.52364701073E+03  0.13206724576E+03  0.10129247415E+04  0.11478956753E+04  0.00000000000E+00 0. -1.
         -1    1    3    3    0  502 -0.12211380268E+03  0.49588191667E+02  0.33002602875E+03  0.35537015802E+03  0.00000000000E+00 0.  1.
         13    1    5    5    0    0  0.41219905829E+02 -0.28782641203E+02 -0.23759975795E+01  0.50330571581E+02  0.00000000000E+00 0.  1.
        -13    1    5    5    0    0  0.58384930428E+03 -0.21516831733E+03 -0.33348593902E+03  0.70596762420E+03  0.00000000000E+00 0. -1.
          2    1    6    6  503    0 -0.19689905225E+02  0.36298850132E+02  0.53184144932E+02  0.67333885680E+02  0.00000000000E+00 0.  1.
         -2    1    6    6    0  503  0.40381508521E+02  0.25996670981E+02  0.29447407425E+03  0.29836466536E+03  0.00000000000E+00 0. -1.
<mgrwt>
<rscale>  0 0.22487027E+04</rscale>
<asrwt>0</asrwt>
<pdfrwt beam="1">  1        2 0.30615458E+00 0.22487027E+04</pdfrwt>
<pdfrwt beam="2">  1       -1 0.97731965E-01 0.22487027E+04</pdfrwt>
<totfact> 0.70421547E+00</totfact>
</mgrwt>
</event>
<event>
12    7  0.1730932E-007  0.2904371E+04  0.7818608E-02  0.8271578E-01
          2   -1    0    0  501    0  0.00000000000E+00  0.00000000000E+00  0.22926850341E+04  0.22926850341E+04  0.00000000000E+00 0. -1.
         -1   -1    0    0    0  501 -0.00000000000E+00 -0.00000000000E+00 -0.91981351438E+03  0.91981351438E+03  0.00000000000E+00 0.  1.
         24    2    1    2    0    0 -0.57525618267E+03 -0.10189343206E+04  0.12816641847E+04  0.17373557069E+04  0.81209264339E+02 0.  0.
        254    2    1    2    0    0  0.57525618267E+03  0.10189343206E+04  0.91207335032E+02  0.14751428416E+04  0.89363348177E+03 0.  0.
         23    2    4    4    0    0 -0.60407998956E+01  0.16244265760E+03  0.35660663228E+03  0.40294046112E+03  0.93640892494E+02 0.  0.
         23    2    4    4    0    0  0.58129698257E+03  0.85649166298E+03 -0.26539929725E+03  0.10722023805E+04  0.87732588017E+02 0.  0.
          4    1    3    3  502    0 -0.33627514268E+03 -0.58557663221E+03  0.68017440708E+03  0.95844571459E+03  0.00000000000E+00 0. -1.
         -3    1    3    3    0  502 -0.23898103999E+03 -0.43335768837E+03  0.60148977758E+03  0.77890999228E+03  0.00000000000E+00 0.  1.
         13    1    5    5    0    0 -0.34576428857E+02  0.29572244876E+02  0.14022690572E+03  0.14742330951E+03  0.00000000000E+00 0.  1.
        -13    1    5    5    0    0  0.28535628961E+02  0.13287041273E+03  0.21637972656E+03  0.25551715160E+03  0.00000000000E+00 0. -1.
          3    1    6    6  503    0  0.37744861017E+03  0.48005353637E+03 -0.16244863457E+03  0.63190854558E+03  0.00000000000E+00 0. -1.
         -3    1    6    6    0  503  0.20384837240E+03  0.37643812661E+03 -0.10295066268E+03  0.44029383488E+03  0.00000000000E+00 0.  1.
<mgrwt>
<rscale>  0 0.29043710E+04</rscale>
<asrwt>0</asrwt>
<pdfrwt beam="1">  1        2 0.35272077E+00 0.29043710E+04</pdfrwt>
<pdfrwt beam="2">  1       -1 0.14150977E+00 0.29043710E+04</pdfrwt>
<totfact> 0.18295465E+00</totfact>
</mgrwt>
</event>
<event>
12    7  0.1730932E-007  0.1876040E+04  0.7818608E-02  0.8666876E-01
         -1   -1    0    0    0  501 -0.00000000000E+00  0.00000000000E+00  0.40761711102E+03  0.40761711102E+03  0.00000000000E+00 0.  1.
          2   -1    0    0  501    0  0.00000000000E+00 -0.00000000000E+00 -0.21585979748E+04  0.21585979748E+04  0.00000000000E+00 0. -1.
         24    2    1    2    0    0  0.24539560271E+03  0.48065605343E+03 -0.20306971985E+02  0.54564579874E+03  0.77895577830E+02 0.  0.
        254    2    1    2    0    0 -0.24539560271E+03 -0.48065605343E+03 -0.17306738918E+04  0.20205692871E+04  0.89231097755E+03 0.  0.
         23    2    4    4    0    0 -0.33793236230E+02  0.20183789802E+03 -0.86733683693E+03  0.89563019911E+03  0.89441293422E+02 0.  0.
         23    2    4    4    0    0 -0.21160236647E+03 -0.68249395145E+03 -0.86333705489E+03  0.11249390880E+04  0.97793282498E+02 0.  0.
          2    1    3    3  502    0  0.39045195398E+02  0.88707082643E+02 -0.33369029988E+02  0.10250349241E+03  0.00000000000E+00 0. -1.
         -1    1    3    3    0  502  0.20635040731E+03  0.39194897078E+03  0.13062058003E+02  0.44314230632E+03  0.00000000000E+00 0.  1.
         13    1    5    5    0    0 -0.55822426488E+02  0.18583445575E+03 -0.71408932553E+03  0.73998253566E+03  0.00000000000E+00 0.  1.
        -13    1    5    5    0    0  0.22029190257E+02  0.16003442276E+02 -0.15324751140E+03  0.15564766345E+03  0.00000000000E+00 0. -1.
          3    1    6    6  503    0 -0.59930442130E+01 -0.14032785980E+03 -0.19135012048E+03  0.23736615896E+03  0.00000000000E+00 0.  1.
         -3    1    6    6    0  503 -0.20560932226E+03 -0.54216609165E+03 -0.67198693442E+03  0.88757292904E+03  0.00000000000E+00 0. -1.
<mgrwt>
<rscale>  0 0.18760399E+04</rscale>
<asrwt>0</asrwt>
<pdfrwt beam="1">  1        2 0.33209199E+00 0.18760399E+04</pdfrwt>
<pdfrwt beam="2">  1       -1 0.62710326E-01 0.18760399E+04</pdfrwt>
<totfact> 0.15015192E+01</totfact>
</mgrwt>
</event>
<event>
12    7  0.1730932E-007  0.1641604E+04  0.7818608E-02  0.8795389E-01
         -1   -1    0    0    0  501 -0.00000000000E+00  0.00000000000E+00  0.54739031716E+03  0.54739031716E+03  0.00000000000E+00 0.  1.
          2   -1    0    0  501    0  0.00000000000E+00 -0.00000000000E+00 -0.12307774141E+04  0.12307774141E+04  0.00000000000E+00 0. -1.
         24    2    1    2    0    0 -0.23177922668E+03  0.68344359244E+02  0.32389040778E+03  0.41130214941E+03  0.76628326985E+02 0.  0.
        254    2    1    2    0    0  0.23177922668E+03 -0.68344359244E+02 -0.10072775047E+04  0.13668655818E+04  0.89180770684E+03 0.  0.
         23    2    4    4    0    0  0.16779688727E+03  0.39032601572E+03 -0.35064533959E+03  0.55821468031E+03  0.90229048598E+02 0.  0.
         23    2    4    4    0    0  0.63982339413E+02 -0.45867037496E+03 -0.65663216513E+03  0.80865090154E+03  0.90984766102E+02 0.  0.
          4    1    3    3  502    0 -0.96458811883E+02  0.27727501814E+02  0.19836517367E+03  0.22231027613E+03  0.00000000000E+00 0. -1.
         -3    1    3    3    0  502 -0.13532041480E+03  0.40616857430E+02  0.12552523411E+03  0.18899187329E+03  0.00000000000E+00 0.  1.
         13    1    5    5    0    0  0.17559413172E+03  0.38042732676E+03 -0.34938115987E+03  0.54555058877E+03  0.00000000000E+00 0.  1.
        -13    1    5    5    0    0 -0.77972444460E+01  0.98986889610E+01 -0.12641797217E+01  0.12664091537E+02  0.00000000000E+00 0. -1.
          2    1    6    6  503    0  0.30959947891E+02 -0.66166390861E+02 -0.15064844855E+03  0.16742599769E+03  0.00000000000E+00 0. -1.
         -2    1    6    6    0  503  0.33022391522E+02 -0.39250398410E+03 -0.50598371658E+03  0.64122490385E+03  0.00000000000E+00 0.  1.
<mgrwt>
<rscale>  0 0.16416037E+04</rscale>
<asrwt>0</asrwt>
<pdfrwt beam="1">  1        2 0.18935037E+00 0.16416037E+04</pdfrwt>
<pdfrwt beam="2">  1       -1 0.84213896E-01 0.16416037E+04</pdfrwt>
<totfact> 0.27647754E+01</totfact>
</mgrwt>
</event>
<event>
12    7  0.1730932E-007  0.1217162E+04  0.7818608E-02  0.9097966E-01
          2   -1    0    0  501    0  0.00000000000E+00  0.00000000000E+00  0.14410115948E+04  0.14410115948E+04  0.00000000000E+00 0. -1.
         -1   -1    0    0    0  501 -0.00000000000E+00 -0.00000000000E+00 -0.25702159973E+03  0.25702159973E+03  0.00000000000E+00 0.  1.
         24    2    1    2    0    0 -0.17612764411E+02  0.23883780121E+03  0.42091173180E+03  0.49095364195E+03  0.80716093896E+02 0.  0.
        254    2    1    2    0    0  0.17612764411E+02 -0.23883780121E+03  0.76307826323E+03  0.12070795526E+04  0.90410115895E+03 0.  0.
         23    2    4    4    0    0  0.39238676279E+03  0.69049930586E+02  0.50275400293E+03  0.64847103782E+03  0.94962281490E+02 0.  0.
         23    2    4    4    0    0 -0.37477399838E+03 -0.30788773180E+03  0.26032426031E+03  0.55860851473E+03  0.94996562982E+02 0.  0.
          2    1    3    3  502    0  0.40241630539E+01  0.95046868346E+02  0.24439174340E+03  0.26225450484E+03  0.00000000000E+00 0. -1.
         -1    1    3    3    0  502 -0.21636927465E+02  0.14379093287E+03  0.17651998841E+03  0.22869913710E+03  0.00000000000E+00 0.  1.
         13    1    5    5    0    0  0.15484331524E+03 -0.12622128117E+02  0.23125587146E+03  0.27859477468E+03  0.00000000000E+00 0. -1.
        -13    1    5    5    0    0  0.23754344754E+03  0.81672058703E+02  0.27149813147E+03  0.36987626314E+03  0.00000000000E+00 0.  1.
          3    1    6    6  503    0 -0.42397677944E+02 -0.65611744298E+02  0.14534245045E+02  0.79458846984E+02  0.00000000000E+00 0. -1.
         -3    1    6    6    0  503 -0.33237632043E+03 -0.24227598750E+03  0.24579001526E+03  0.47914966775E+03  0.00000000000E+00 0.  1.
<mgrwt>
<rscale>  0 0.12171624E+04</rscale>
<asrwt>0</asrwt>
<pdfrwt beam="1">  1        2 0.22169409E+00 0.12171624E+04</pdfrwt>
<pdfrwt beam="2">  1       -1 0.39541786E-01 0.12171624E+04</pdfrwt>
<totfact> 0.95748950E+01</totfact>
</mgrwt>
</event>
<event>
12    7  0.1730932E-007  0.1822029E+04  0.7818608E-02  0.8694672E-01
         -1   -1    0    0    0  501 -0.00000000000E+00  0.00000000000E+00  0.55631075601E+03  0.55631075601E+03  0.00000000000E+00 0.  1.
          2   -1    0    0  501    0  0.00000000000E+00 -0.00000000000E+00 -0.14918770824E+04  0.14918770824E+04  0.00000000000E+00 0. -1.
         24    2    1    2    0    0 -0.10680155768E+03  0.65007131478E+03 -0.54991320822E+03  0.86188148251E+03  0.80223851152E+02 0.  0.
        254    2    1    2    0    0  0.10680155768E+03 -0.65007131478E+03 -0.38565311813E+03  0.11863063559E+04  0.90807221927E+03 0.  0.
         23    2    4    4    0    0 -0.43158400340E+02 -0.84471694910E+03 -0.23001206115E+03  0.88144162454E+03  0.92867742395E+02 0.  0.
         23    2    4    4    0    0  0.14995995802E+03  0.19464563432E+03 -0.15564105697E+03  0.30486473132E+03  0.91342508275E+02 0.  0.
          4    1    3    3  502    0 -0.10243867561E+03  0.51708317031E+03 -0.47273702303E+03  0.70806001174E+03  0.00000000000E+00 0. -1.
         -3    1    3    3    0  502 -0.43628820668E+01  0.13298814447E+03 -0.77176185190E+02  0.15382147077E+03  0.00000000000E+00 0.  1.
         13    1    5    5    0    0 -0.69721141661E+02 -0.45897015520E+03 -0.12712951954E+03  0.48132790870E+03  0.00000000000E+00 0.  1.
        -13    1    5    5    0    0  0.26562741321E+02 -0.38574679390E+03 -0.10288254162E+03  0.40011371584E+03  0.00000000000E+00 0. -1.
          4    1    6    6  503    0 -0.25265037504E+01  0.32599320033E+02  0.10585845319E+01  0.32714209283E+02  0.00000000000E+00 0. -1.
         -4    1    6    6    0  503  0.15248646177E+03  0.16204631429E+03 -0.15669964150E+03  0.27215052204E+03  0.00000000000E+00 0.  1.
<mgrwt>
<rscale>  0 0.18220288E+04</rscale>
<asrwt>0</asrwt>
<pdfrwt beam="1">  1        2 0.22951955E+00 0.18220288E+04</pdfrwt>
<pdfrwt beam="2">  1       -1 0.85586271E-01 0.18220288E+04</pdfrwt>
<totfact> 0.18581232E+01</totfact>
</mgrwt>
</event>
<event>
12    7  0.1730932E-007  0.1954763E+04  0.7818608E-02  0.8628068E-01
         -1   -1    0    0    0  501 -0.00000000000E+00  0.00000000000E+00  0.40508095239E+03  0.40508095239E+03  0.00000000000E+00 0.  1.
          2   -1    0    0  501    0  0.00000000000E+00 -0.00000000000E+00 -0.23582303535E+04  0.23582303535E+04  0.00000000000E+00 0. -1.
         24    2    1    2    0    0  0.24566624340E+03  0.70972326960E+03 -0.98837075674E+03  0.12439048939E+04  0.79772236328E+02 0.  0.
        254    2    1    2    0    0 -0.24566624340E+03 -0.70972326960E+03 -0.96477864442E+03  0.15194064121E+04  0.90207482489E+03 0.  0.
         23    2    4    4    0    0  0.21079171847E+03 -0.64464812295E+03 -0.69941587033E+03  0.97869982305E+03  0.93093678507E+02 0.  0.
         23    2    4    4    0    0 -0.45645796187E+03 -0.65075146649E+02 -0.26536277410E+03  0.54070658900E+03  0.96734522523E+02 0.  0.
          4    1    3    3  502    0  0.25764247315E+02  0.99957826200E+02 -0.18272665292E+03  0.20986756096E+03  0.00000000000E+00 0. -1.
         -3    1    3    3    0  502  0.21990199608E+03  0.60976544340E+03 -0.80564410382E+03  0.10340373329E+04  0.00000000000E+00 0.  1.
         13    1    5    5    0    0  0.12008709788E+03 -0.22339833330E+03 -0.25281372379E+03  0.35810962754E+03  0.00000000000E+00 0.  1.
        -13    1    5    5    0    0  0.90704620587E+02 -0.42124978965E+03 -0.44660214653E+03  0.62059019551E+03  0.00000000000E+00 0. -1.
          1    1    6    6  503    0 -0.78896822309E+02  0.18665487206E+02 -0.71509656146E+02  0.10810522608E+03  0.00000000000E+00 0. -1.
         -1    1    6    6    0  503 -0.37756113956E+03 -0.83740633855E+02 -0.19385311795E+03  0.43260136292E+03  0.00000000000E+00 0.  1.
<mgrwt>
<rscale>  0 0.19547626E+04</rscale>
<asrwt>0</asrwt>
<pdfrwt beam="1">  1        2 0.36280466E+00 0.19547626E+04</pdfrwt>
<pdfrwt beam="2">  1       -1 0.62320147E-01 0.19547626E+04</pdfrwt>
<totfact> 0.11648867E+01</totfact>
</mgrwt>
</event>
<event>
12    7  0.1730932E-007  0.1700893E+04  0.7818608E-02  0.8760855E-01
         -1   -1    0    0    0  501 -0.00000000000E+00  0.00000000000E+00  0.20456978194E+04  0.20456978194E+04  0.00000000000E+00 0.  1.
          2   -1    0    0  501    0  0.00000000000E+00 -0.00000000000E+00 -0.35355127441E+03  0.35355127441E+03  0.00000000000E+00 0. -1.
         24    2    1    2    0    0  0.54160404839E+03  0.21709778291E+03  0.37289256410E+03  0.69702146409E+03  0.79521471660E+02 0.  0.
        254    2    1    2    0    0 -0.54160404839E+03 -0.21709778291E+03  0.13192539809E+04  0.17022276297E+04  0.90370429053E+03 0.  0.
         23    2    4    4    0    0 -0.27519052484E+03 -0.30404553291E+03  0.13423297065E+04  0.14066371393E+04  0.92765779193E+02 0.  0.
         23    2    4    4    0    0 -0.26641352355E+03  0.86947750000E+02 -0.23075725532E+02  0.29559049045E+03  0.91132717356E+02 0.  0.
          4    1    3    3  502    0  0.34373787425E+03  0.17222157036E+03  0.21991036944E+03  0.44291823859E+03  0.00000000000E+00 0. -1.
         -3    1    3    3    0  502  0.19786617415E+03  0.44876212551E+02  0.15298219466E+03  0.25410322550E+03  0.00000000000E+00 0.  1.
         13    1    5    5    0    0 -0.16211490025E+03 -0.11364980618E+03  0.58480186001E+03  0.61740645835E+03  0.00000000000E+00 0.  1.
        -13    1    5    5    0    0 -0.11307562459E+03 -0.19039572673E+03  0.75752784644E+03  0.78923068095E+03  0.00000000000E+00 0. -1.
          3    1    6    6  503    0 -0.25471631509E+03  0.10286485362E+03 -0.18566715974E+02  0.27532944308E+03  0.00000000000E+00 0. -1.
         -3    1    6    6    0  503 -0.11697208459E+02 -0.15917103617E+02 -0.45090095582E+01  0.20261047369E+02  0.00000000000E+00 0.  1.
<mgrwt>
<rscale>  0 0.17008928E+04</rscale>
<asrwt>0</asrwt>
<pdfrwt beam="1">  1        2 0.54392505E-01 0.17008928E+04</pdfrwt>
<pdfrwt beam="2">  1       -1 0.31472273E+00 0.17008928E+04</pdfrwt>
<totfact> 0.26401843E+00</totfact>
</mgrwt>
</event>
<event>
12    7  0.1730932E-007  0.2206241E+04  0.7818608E-02  0.8515835E-01
         -1   -1    0    0    0  501 -0.00000000000E+00  0.00000000000E+00  0.64781158025E+03  0.64781158025E+03  0.00000000000E+00 0.  1.
          2   -1    0    0  501    0  0.00000000000E+00 -0.00000000000E+00 -0.18784394950E+04  0.18784394950E+04  0.00000000000E+00 0. -1.
         24    2    1    2    0    0 -0.81615903364E+02 -0.84083064320E+03 -0.91843632088E+03  0.12503102223E+04  0.78057992531E+02 0.  0.
        254    2    1    2    0    0  0.81615903364E+02  0.84083064320E+03 -0.31219159391E+03  0.12759408530E+04  0.90382749617E+03 0.  0.
         23    2    4    4    0    0  0.42915754405E+03  0.68216050446E+03 -0.69361419111E+02  0.81417086834E+03  0.92434003126E+02 0.  0.
         23    2    4    4    0    0 -0.34754164068E+03  0.15867013875E+03 -0.24283017480E+03  0.46176998467E+03  0.91124201001E+02 0.  0.
          4    1    3    3  502    0 -0.89948048994E+02 -0.71867530646E+03 -0.81189723804E+03  0.10880082595E+04  0.00000000000E+00 0. -1.
         -3    1    3    3    0  502  0.83321456299E+01 -0.12215533675E+03 -0.10653908284E+03  0.16230196277E+03  0.00000000000E+00 0.  1.
         13    1    5    5    0    0  0.12702633377E+03  0.19506808062E+03  0.21722592877E+02  0.23379289251E+03  0.00000000000E+00 0. -1.
        -13    1    5    5    0    0  0.30213121028E+03  0.48709242384E+03 -0.91084011988E+02  0.58037797583E+03  0.00000000000E+00 0.  1.
          3    1    6    6  503    0 -0.24409266842E+02  0.28610612782E+02 -0.53264057556E+02  0.65203062036E+02  0.00000000000E+00 0. -1.
         -3    1    6    6    0  503 -0.32313237384E+03  0.13005952596E+03 -0.18956611724E+03  0.39656692263E+03  0.00000000000E+00 0.  1.
<mgrwt>
<rscale>  0 0.22062410E+04</rscale>
<asrwt>0</asrwt>
<pdfrwt beam="1">  1        2 0.28899069E+00 0.22062410E+04</pdfrwt>
<pdfrwt beam="2">  1       -1 0.99663321E-01 0.22062410E+04</pdfrwt>
<totfact> 0.77970761E+00</totfact>
</mgrwt>
</event>
<event>
12    7  0.1730932E-007  0.2713544E+04  0.7818608E-02  0.8330624E-01
         -3   -1    0    0    0  501 -0.00000000000E+00  0.00000000000E+00  0.12830782672E+04  0.12830782672E+04  0.00000000000E+00 0.  1.
          2   -1    0    0  501    0  0.00000000000E+00 -0.00000000000E+00 -0.14346984933E+04  0.14346984933E+04  0.00000000000E+00 0. -1.
         24    2    1    2    0    0 -0.60824251531E+03  0.87741935264E+03  0.51465584969E+03  0.11874724671E+04  0.73461137426E+02 0.  0.
        254    2    1    2    0    0  0.60824251531E+03 -0.87741935264E+03 -0.66627607573E+03  0.15303042934E+04  0.87068004654E+03 0.  0.
         23    2    4    4    0    0  0.17275618303E+03 -0.20184118980E+03  0.19991766211E+03  0.34506037459E+03  0.92276897514E+02 0.  0.
         23    2    4    4    0    0  0.43548633228E+03 -0.67557816283E+03 -0.86619373784E+03  0.11852439188E+04  0.91963883399E+02 0.  0.
          4    1    3    3  502    0 -0.97855063628E+02  0.11994691503E+03  0.49844499915E+02  0.16262641260E+03  0.00000000000E+00 0. -1.
         -3    1    3    3    0  502 -0.51038745168E+03  0.75747243761E+03  0.46481134977E+03  0.10248460545E+04  0.00000000000E+00 0.  1.
         13    1    5    5    0    0  0.96593382374E+02 -0.11922238158E+03  0.16952429884E+03  0.22865420548E+03  0.00000000000E+00 0.  1.
        -13    1    5    5    0    0  0.76162800652E+02 -0.82618808224E+02  0.30393363269E+02  0.11640616911E+03  0.00000000000E+00 0. -1.
          4    1    6    6  503    0  0.36418000856E+03 -0.60878980860E+03 -0.73310882731E+03  0.10201473729E+04  0.00000000000E+00 0.  1.
         -4    1    6    6    0  503  0.71306323722E+02 -0.66788354232E+02 -0.13308491053E+03  0.16509654592E+03  0.00000000000E+00 0. -1.
<mgrwt>
<rscale>  0 0.27135441E+04</rscale>
<asrwt>0</asrwt>
<pdfrwt beam="1">  1        2 0.22072284E+00 0.27135441E+04</pdfrwt>
<pdfrwt beam="2">  1       -3 0.19739666E+00 0.27135441E+04</pdfrwt>
<totfact> 0.11634210E+00</totfact>
</mgrwt>
</event>
<event>
12    7  0.1730932E-007  0.1834605E+04  0.7818608E-02  0.8688110E-01
          2   -1    0    0  501    0  0.00000000000E+00  0.00000000000E+00  0.58060814704E+03  0.58060814704E+03  0.00000000000E+00 0. -1.
         -1   -1    0    0    0  501 -0.00000000000E+00 -0.00000000000E+00 -0.14492455068E+04  0.14492455068E+04  0.00000000000E+00 0.  1.
         24    2    1    2    0    0 -0.28609865071E+03 -0.63066267381E+03 -0.26880458478E+03  0.74709772160E+03  0.79443405883E+02 0.  0.
        254    2    1    2    0    0  0.28609865071E+03  0.63066267381E+03 -0.59983277501E+03  0.12827559323E+04  0.89781711822E+03 0.  0.
         23    2    4    4    0    0  0.28247519870E+03  0.12549764617E+02 -0.58862847786E+03  0.65948296242E+03  0.92111662148E+02 0.  0.
         23    2    4    4    0    0  0.36234520176E+01  0.61811290919E+03 -0.11204297150E+02  0.62327296987E+03  0.79164138195E+02 0.  0.
          4    1    3    3  502    0 -0.56434366130E+02 -0.74455183563E+02 -0.17890345357E+02  0.95123480260E+02  0.00000000000E+00 0. -1.
         -3    1    3    3    0  502 -0.22966428458E+03 -0.55620749025E+03 -0.25091423943E+03  0.65197424134E+03  0.00000000000E+00 0.  1.
         13    1    5    5    0    0  0.24287820988E+02  0.19221114471E+02 -0.26125495450E+02  0.40520254224E+02  0.00000000000E+00 0.  1.
        -13    1    5    5    0    0  0.25818737771E+03 -0.66713498541E+01 -0.56250298241E+03  0.61896270820E+03  0.00000000000E+00 0. -1.
          3    1    6    6  503    0  0.21405403979E+02  0.54719500163E+03  0.80285919483E+01  0.54767236503E+03  0.00000000000E+00 0. -1.
         -3    1    6    6    0  503 -0.17781951961E+02  0.70917907564E+02 -0.19232889098E+02  0.75600604838E+02  0.00000000000E+00 0.  1.
<mgrwt>
<rscale>  0 0.18346049E+04</rscale>
<asrwt>0</asrwt>
<pdfrwt beam="1">  1        2 0.89324331E-01 0.18346049E+04</pdfrwt>
<pdfrwt beam="2">  1       -1 0.22296084E+00 0.18346049E+04</pdfrwt>
<totfact> 0.58340509E+00</totfact>
</mgrwt>
</event>
<event>
12    7  0.1730932E-007  0.2220013E+04  0.7818608E-02  0.8510144E-01
         -1   -1    0    0    0  501 -0.00000000000E+00  0.00000000000E+00  0.13919826272E+04  0.13919826272E+04  0.00000000000E+00 0.  1.
          2   -1    0    0  501    0  0.00000000000E+00 -0.00000000000E+00 -0.88515084881E+03  0.88515084881E+03  0.00000000000E+00 0. -1.
         24    2    1    2    0    0  0.34743894056E+03  0.35493804200E+02  0.11023770664E+04  0.11593206453E+04  0.82556250510E+02 0.  0.
        254    2    1    2    0    0 -0.34743894056E+03 -0.35493804200E+02 -0.59554528805E+03  0.11178128307E+04  0.87912326029E+03 0.  0.
         23    2    4    4    0    0 -0.28396582073E+03  0.23015055481E+03 -0.71295755102E+03  0.80664127259E+03  0.93572473898E+02 0.  0.
         23    2    4    4    0    0 -0.63473119829E+02 -0.26564435901E+03  0.11741226297E+03  0.31117155810E+03  0.91903953456E+02 0.  0.
          2    1    3    3  502    0  0.56474321004E+02 -0.12712600731E+02  0.27285726972E+03  0.27893018623E+03  0.00000000000E+00 0. -1.
         -1    1    3    3    0  502  0.29096461955E+03  0.48206404932E+02  0.82951979672E+03  0.88039045909E+03  0.00000000000E+00 0.  1.
         13    1    5    5    0    0 -0.35454497032E+00  0.12060499893E+02 -0.43277869452E+01  0.12818389120E+02  0.00000000000E+00 0. -1.
        -13    1    5    5    0    0 -0.28361127576E+03  0.21809005492E+03 -0.70862976407E+03  0.79382288347E+03  0.00000000000E+00 0.  1.
          4    1    6    6  503    0 -0.26201743552E+02 -0.11455849073E+03  0.21809093099E+01  0.11753695388E+03  0.00000000000E+00 0. -1.
         -4    1    6    6    0  503 -0.37271376277E+02 -0.15108586828E+03  0.11523135366E+03  0.19363460422E+03  0.00000000000E+00 0.  1.
<mgrwt>
<rscale>  0 0.22200132E+04</rscale>
<asrwt>0</asrwt>
<pdfrwt beam="1">  1        2 0.13617705E+00 0.22200132E+04</pdfrwt>
<pdfrwt beam="2">  1       -1 0.21415117E+00 0.22200132E+04</pdfrwt>
<totfact> 0.37640446E+00</totfact>
</mgrwt>
</event>
<event>
12    7  0.1730932E-007  0.1164696E+04  0.7818608E-02  0.9144332E-01
         -1   -1    0    0    0  501 -0.00000000000E+00  0.00000000000E+00  0.24428120787E+03  0.24428120787E+03  0.00000000000E+00 0.  1.
          2   -1    0    0  501    0  0.00000000000E+00 -0.00000000000E+00 -0.13882734659E+04  0.13882734659E+04  0.00000000000E+00 0. -1.
         24    2    1    2    0    0 -0.36626003258E+02 -0.58352105343E+02  0.68977303535E+02  0.12657795130E+03  0.80732131396E+02 0.  0.
        254    2    1    2    0    0  0.36626003258E+02  0.58352105343E+02 -0.12129695616E+04  0.15059767225E+04  0.88990128612E+03 0.  0.
         23    2    4    4    0    0 -0.22756626326E+03  0.20510288976E+02 -0.11992296205E+04  0.12242140480E+04  0.91330589317E+02 0.  0.
         23    2    4    4    0    0  0.26419226651E+03  0.37841816367E+02 -0.13739941053E+02  0.28176267445E+03  0.89285284232E+02 0.  0.
          4    1    3    3  502    0 -0.25143307359E+02 -0.69503036942E-01 -0.10589585787E+02  0.27282413067E+02  0.00000000000E+00 0. -1.
         -3    1    3    3    0  502 -0.11482695899E+02 -0.58282602306E+02  0.79566889322E+02  0.99295538233E+02  0.00000000000E+00 0.  1.
         13    1    5    5    0    0 -0.78658959163E+02  0.51241056677E+02 -0.47826490256E+03  0.48739121326E+03  0.00000000000E+00 0.  1.
        -13    1    5    5    0    0 -0.14890730409E+03 -0.30730767701E+02 -0.72096471797E+03  0.73682283478E+03  0.00000000000E+00 0. -1.
          4    1    6    6  503    0  0.65277612318E+02  0.33442750398E+02  0.27928347138E+02  0.78482971389E+02  0.00000000000E+00 0. -1.
         -4    1    6    6    0  503  0.19891465419E+03  0.43990659695E+01 -0.41668288192E+02  0.20327970306E+03  0.00000000000E+00 0.  1.
<mgrwt>
<rscale>  0 0.11646959E+04</rscale>
<asrwt>0</asrwt>
<pdfrwt beam="1">  1        2 0.21358053E+00 0.11646959E+04</pdfrwt>
<pdfrwt beam="2">  1       -1 0.37581725E-01 0.11646959E+04</pdfrwt>
<totfact> 0.11295752E+02</totfact>
</mgrwt>
</event>
<event>
12    7  0.1730932E-007  0.2043016E+04  0.7818608E-02  0.8586769E-01
          2   -1    0    0  501    0  0.00000000000E+00  0.00000000000E+00  0.39680274566E+04  0.39680274566E+04  0.00000000000E+00 0. -1.
         -1   -1    0    0    0  501 -0.00000000000E+00 -0.00000000000E+00 -0.26297154208E+03  0.26297154208E+03  0.00000000000E+00 0.  1.
         24    2    1    2    0    0 -0.30962670699E+03 -0.29003954954E+03  0.40449035490E+02  0.43338506928E+03  0.78707406399E+02 0.  0.
        254    2    1    2    0    0  0.30962670699E+03  0.29003954954E+03  0.36646068790E+04  0.37976139294E+04  0.90140797694E+03 0.  0.
         23    2    4    4    0    0  0.56430397370E+03  0.27739977187E+03  0.17070051343E+04  0.18214381246E+04  0.91546190379E+02 0.  0.
         23    2    4    4    0    0 -0.25467726671E+03  0.12639777672E+02  0.19576017447E+04  0.19761758048E+04  0.89699199605E+02 0.  0.
          4    1    3    3  502    0 -0.14283912078E+03 -0.18514950759E+03  0.10371932925E+02  0.23407462823E+03  0.00000000000E+00 0. -1.
         -3    1    3    3    0  502 -0.16678758621E+03 -0.10489004195E+03  0.30077102565E+02  0.19931044105E+03  0.00000000000E+00 0.  1.
         13    1    5    5    0    0  0.55340890214E+03  0.27223416723E+03  0.16169255975E+04  0.17305551834E+04  0.00000000000E+00 0. -1.
        -13    1    5    5    0    0  0.10895071559E+02  0.51656046346E+01  0.90079536811E+02  0.90882941235E+02  0.00000000000E+00 0.  1.
          3    1    6    6  503    0 -0.19397651100E+03  0.42639738497E+02  0.15937906738E+04  0.16061176003E+04  0.00000000000E+00 0. -1.
         -3    1    6    6    0  503 -0.60700755717E+02 -0.29999960825E+02  0.36381107084E+03  0.37005820442E+03  0.00000000000E+00 0.  1.
<mgrwt>
<rscale>  0 0.20430157E+04</rscale>
<asrwt>0</asrwt>
<pdfrwt beam="1">  1        2 0.61046572E+00 0.20430157E+04</pdfrwt>
<pdfrwt beam="2">  1       -1 0.40457163E-01 0.20430157E+04</pdfrwt>
<totfact> 0.23035761E+00</totfact>
</mgrwt>
</event>
<event>
12    7  0.1730932E-007  0.1556598E+04  0.7818608E-02  0.8847664E-01
          2   -1    0    0  501    0  0.00000000000E+00  0.00000000000E+00  0.25020307083E+04  0.25020307083E+04  0.00000000000E+00 0. -1.
         -1   -1    0    0    0  501 -0.00000000000E+00 -0.00000000000E+00 -0.24210313829E+03  0.24210313829E+03  0.00000000000E+00 0.  1.
         24    2    1    2    0    0 -0.36792731353E+03  0.26685073188E+02  0.19159930462E+03  0.42368886162E+03  0.81971682649E+02 0.  0.
        254    2    1    2    0    0  0.36792731353E+03 -0.26685073188E+02  0.20683282654E+04  0.23204449850E+04  0.98508908923E+03 0.  0.
         23    2    4    4    0    0  0.63819048423E+03  0.15803802172E+03  0.16668713838E+04  0.17941518857E+04  0.90871712826E+02 0.  0.
         23    2    4    4    0    0 -0.27026317070E+03 -0.18472309491E+03  0.40145688162E+03  0.52629309935E+03  0.93016102896E+02 0.  0.
          4    1    3    3  502    0 -0.13477281082E+02 -0.15952053530E+02  0.10980623139E+02  0.23594050134E+02  0.00000000000E+00 0. -1.
         -3    1    3    3    0  502 -0.35445003245E+03  0.42637126718E+02  0.18061868148E+03  0.40009481149E+03  0.00000000000E+00 0.  1.
         13    1    5    5    0    0  0.15619402186E+03  0.86222549379E+01  0.46628366358E+03  0.49182453240E+03  0.00000000000E+00 0. -1.
        -13    1    5    5    0    0  0.48199646236E+03  0.14941576678E+03  0.12005877202E+04  0.13023273533E+04  0.00000000000E+00 0.  1.
          1    1    6    6  503    0 -0.11330071610E+03 -0.50536576617E+02  0.92803673153E+02  0.15493069288E+03  0.00000000000E+00 0. -1.
         -1    1    6    6    0  503 -0.15696245459E+03 -0.13418651829E+03  0.30865320847E+03  0.37136240647E+03  0.00000000000E+00 0.  1.
<mgrwt>
<rscale>  0 0.15565982E+04</rscale>
<asrwt>0</asrwt>
<pdfrwt beam="1">  1        2 0.38492778E+00 0.15565982E+04</pdfrwt>
<pdfrwt beam="2">  1       -1 0.37246638E-01 0.15565982E+04</pdfrwt>
<totfact> 0.26447552E+01</totfact>
</mgrwt>
</event>
<event>
12    7  0.1730932E-007  0.1309809E+04  0.7818608E-02  0.9021823E-01
          2   -1    0    0  501    0  0.00000000000E+00  0.00000000000E+00  0.17142918406E+04  0.17142918406E+04  0.00000000000E+00 0. -1.
         -1   -1    0    0    0  501 -0.00000000000E+00 -0.00000000000E+00 -0.25019053417E+03  0.25019053417E+03  0.00000000000E+00 0.  1.
         24    2    1    2    0    0  0.29178323846E+03 -0.71925499259E+02  0.82514010858E+02  0.32260244667E+03  0.83384896258E+02 0.  0.
        254    2    1    2    0    0 -0.29178323846E+03  0.71925499259E+02  0.13815872955E+04  0.16418799281E+04  0.83467089761E+03 0.  0.
         23    2    4    4    0    0  0.28325328313E+03  0.62757514794E+02  0.43986600768E+03  0.53468855378E+03  0.90767928041E+02 0.  0.
         23    2    4    4    0    0 -0.57503652159E+03  0.91679844647E+01  0.94172128786E+03  0.11071913743E+04  0.91009352255E+02 0.  0.
          4    1    3    3  502    0  0.11558524562E+03 -0.14477740296E+02  0.72072735137E+02  0.13698187150E+03  0.00000000000E+00 0. -1.
         -3    1    3    3    0  502  0.17619799284E+03 -0.57447758963E+02  0.10441275720E+02  0.18562057517E+03  0.00000000000E+00 0.  1.
         13    1    5    5    0    0  0.21292909666E+03  0.73890284640E+02  0.27822448168E+03  0.35806066046E+03  0.00000000000E+00 0. -1.
        -13    1    5    5    0    0  0.70324186475E+02 -0.11132769846E+02  0.16164152601E+03  0.17662789332E+03  0.00000000000E+00 0.  1.
          1    1    6    6  503    0 -0.37730260053E+03 -0.36282793519E+02  0.63106117686E+03  0.73614665822E+03  0.00000000000E+00 0. -1.
         -1    1    6    6    0  503 -0.19773392106E+03  0.45450777984E+02  0.31066011101E+03  0.37104471607E+03  0.00000000000E+00 0.  1.
<mgrwt>
<rscale>  0 0.13098085E+04</rscale>
<asrwt>0</asrwt>
<pdfrwt beam="1">  1        2 0.26373720E+00 0.13098085E+04</pdfrwt>
<pdfrwt beam="2">  1       -1 0.38490852E-01 0.13098085E+04</pdfrwt>
<totfact> 0.70207714E+01</totfact>
</mgrwt>
</event>
<event>
12    7  0.1730932E-007  0.1890720E+04  0.7818608E-02  0.8659489E-01
         -1   -1    0    0    0  501 -0.00000000000E+00  0.00000000000E+00  0.70051220129E+03  0.70051220129E+03  0.00000000000E+00 0.  1.
          2   -1    0    0  501    0  0.00000000000E+00 -0.00000000000E+00 -0.12757892982E+04  0.12757892982E+04  0.00000000000E+00 0. -1.
         24    2    1    2    0    0  0.12209818191E+03 -0.54897562440E+03  0.24058504508E+03  0.61670654012E+03  0.78508537814E+02 0.  0.
        254    2    1    2    0    0 -0.12209818191E+03  0.54897562440E+03 -0.81586214195E+03  0.13595949593E+04  0.93090558949E+03 0.  0.
         23    2    4    4    0    0 -0.15262427971E+03  0.60884905701E+03 -0.10871076067E+03  0.64348833103E+03  0.90927760938E+02 0.  0.
         23    2    4    4    0    0  0.30526097805E+02 -0.59873432616E+02 -0.70715138128E+03  0.71610662828E+03  0.90713595722E+02 0.  0.
          4    1    3    3  502    0  0.43282294765E+02 -0.79692514629E+02  0.23563433197E+02  0.93698929087E+02  0.00000000000E+00 0. -1.
         -3    1    3    3    0  502  0.78815887144E+02 -0.46928310977E+03  0.21702161188E+03  0.52300761104E+03  0.00000000000E+00 0.  1.
         13    1    5    5    0    0 -0.12553693960E+03  0.58129667578E+03 -0.93684012111E+02  0.60203159602E+03  0.00000000000E+00 0. -1.
        -13    1    5    5    0    0 -0.27087340118E+02  0.27552381234E+02 -0.15026748557E+02  0.41456735020E+02  0.00000000000E+00 0.  1.
          1    1    6    6  503    0  0.60112917719E+02 -0.20496426442E+02 -0.41532488876E+03  0.42015286456E+03  0.00000000000E+00 0.  1.
         -1    1    6    6    0  503 -0.29586819914E+02 -0.39377006173E+02 -0.29182649252E+03  0.29595376372E+03  0.00000000000E+00 0. -1.
<mgrwt>
<rscale>  0 0.18907205E+04</rscale>
<asrwt>0</asrwt>
<pdfrwt beam="1">  1        2 0.19627527E+00 0.18907205E+04</pdfrwt>
<pdfrwt beam="2">  1       -1 0.10777111E+00 0.18907205E+04</pdfrwt>
<totfact> 0.14618313E+01</totfact>
</mgrwt>
</event>
<event>
12    7  0.1730932E-007  0.1676614E+04  0.7818608E-02  0.8774816E-01
         -1   -1    0    0    0  501 -0.00000000000E+00  0.00000000000E+00  0.95129386500E+03  0.95129386500E+03  0.00000000000E+00 0.  1.
          2   -1    0    0  501    0  0.00000000000E+00 -0.00000000000E+00 -0.73873962526E+03  0.73873962526E+03  0.00000000000E+00 0. -1.
         24    2    1    2    0    0  0.64718255035E+02 -0.57756619594E+03 -0.68006819734E+02  0.59059072978E+03  0.80008245463E+02 0.  0.
        254    2    1    2    0    0 -0.64718255035E+02  0.57756619594E+03  0.28056105947E+03  0.10994427605E+04  0.89010601179E+03 0.  0.
         23    2    4    4    0    0  0.37868763923E+02  0.70312524608E+03 -0.60206348622E+02  0.71261336882E+03  0.91508764908E+02 0.  0.
         23    2    4    4    0    0 -0.10258701896E+03 -0.12555905014E+03  0.34076740810E+03  0.38682939165E+03  0.85002236980E+02 0.  0.
          2    1    3    3  502    0  0.38088109454E+02 -0.19184028226E+03 -0.57272047023E+02  0.20379765786E+03  0.00000000000E+00 0. -1.
         -1    1    3    3    0  502  0.26630145581E+02 -0.38572591368E+03 -0.10734772711E+02  0.38679307192E+03  0.00000000000E+00 0.  1.
         13    1    5    5    0    0  0.57721452771E+01  0.43537443927E+03 -0.78062799380E+02  0.44235508438E+03  0.00000000000E+00 0. -1.
        -13    1    5    5    0    0  0.32096618646E+02  0.26775080681E+03  0.17856450758E+02  0.27025828444E+03  0.00000000000E+00 0.  1.
          3    1    6    6  503    0 -0.81350803490E+02 -0.11192478619E+03  0.33271548161E+03  0.36033970458E+03  0.00000000000E+00 0. -1.
         -3    1    6    6    0  503 -0.21236215467E+02 -0.13634263945E+02  0.80519264808E+01  0.26489687064E+02  0.00000000000E+00 0.  1.
<mgrwt>
<rscale>  0 0.16766138E+04</rscale>
<asrwt>0</asrwt>
<pdfrwt beam="1">  1        2 0.11365225E+00 0.16766138E+04</pdfrwt>
<pdfrwt beam="2">  1       -1 0.14635290E+00 0.16766138E+04</pdfrwt>
<totfact> 0.15517555E+01</totfact>
</mgrwt>
</event>
<event>
12    7  0.1730932E-007  0.3298683E+04  0.7818608E-02  0.8163230E-01
          2   -1    0    0  501    0  0.00000000000E+00  0.00000000000E+00  0.23132565384E+04  0.23132565384E+04  0.00000000000E+00 0. -1.
         -1   -1    0    0    0  501 -0.00000000000E+00 -0.00000000000E+00 -0.11759732908E+04  0.11759732908E+04  0.00000000000E+00 0.  1.
         24    2    1    2    0    0  0.10305021317E+04 -0.10667693510E+04  0.15302587128E+03  0.14931958297E+04  0.79280367628E+02 0.  0.
        254    2    1    2    0    0 -0.10305021317E+04  0.10667693510E+04  0.98425737635E+03  0.19960339996E+04  0.90302693915E+03 0.  0.
         23    2    4    4    0    0 -0.32312435745E+02 -0.66894806953E+01  0.40565418808E+03  0.41750059697E+03  0.93073011693E+02 0.  0.
         23    2    4    4    0    0 -0.99818969597E+03  0.10734588317E+04  0.57860318827E+03  0.15785334026E+04  0.91046807408E+02 0.  0.
          4    1    3    3  502    0  0.28828567492E+03 -0.26529198467E+03  0.14023426827E+02  0.39202694294E+03  0.00000000000E+00 0. -1.
         -1    1    3    3    0  502  0.74221645680E+03 -0.80147736637E+03  0.13900244445E+03  0.11011688867E+04  0.00000000000E+00 0.  1.
         13    1    5    5    0    0 -0.38163910585E+02 -0.31972679820E+02  0.37036527426E+03  0.37369663192E+03  0.00000000000E+00 0. -1.
        -13    1    5    5    0    0  0.58514748399E+01  0.25283199125E+02  0.35288913818E+02  0.43803965052E+02  0.00000000000E+00 0.  1.
          4    1    6    6  503    0 -0.55947682701E+03  0.66536149669E+03  0.33070702070E+03  0.93010073368E+03  0.00000000000E+00 0. -1.
         -4    1    6    6    0  503 -0.43871286896E+03  0.40809733505E+03  0.24789616757E+03  0.64843266894E+03  0.00000000000E+00 0.  1.
<mgrwt>
<rscale>  0 0.32986833E+04</rscale>
<asrwt>0</asrwt>
<pdfrwt beam="1">  1        2 0.35588562E+00 0.32986833E+04</pdfrwt>
<pdfrwt beam="2">  1       -1 0.18091897E+00 0.32986833E+04</pdfrwt>
<totfact> 0.86714428E-01</totfact>
</mgrwt>
</event>
<event>
12    7  0.1730932E-007  0.1573197E+04  0.7818608E-02  0.8837185E-01
          2   -1    0    0  501    0  0.00000000000E+00  0.00000000000E+00  0.19972571475E+04  0.19972571475E+04  0.00000000000E+00 0. -1.
         -1   -1    0    0    0  501 -0.00000000000E+00 -0.00000000000E+00 -0.30979362426E+03  0.30979362426E+03  0.00000000000E+00 0.  1.
         24    2    1    2    0    0 -0.32646545645E+03 -0.38773744254E+03  0.38937300186E+03  0.64395921731E+03  0.78435453539E+02 0.  0.
        254    2    1    2    0    0  0.32646545645E+03  0.38773744254E+03  0.12980905213E+04  0.16630915544E+04  0.90769736042E+03 0.  0.
         23    2    4    4    0    0  0.61777153777E+03  0.12891760454E+03  0.75059683253E+03  0.98493887227E+03  0.91910584035E+02 0.  0.
         23    2    4    4    0    0 -0.29130608132E+03  0.25881983800E+03  0.54749368881E+03  0.67815268214E+03  0.91075679742E+02 0.  0.
          4    1    3    3  502    0 -0.45386998690E+02 -0.74623199922E+02  0.10268886210E+03  0.13480951011E+03  0.00000000000E+00 0. -1.
         -3    1    3    3    0  502 -0.28107845776E+03 -0.31311424262E+03  0.28668413976E+03  0.50914970720E+03  0.00000000000E+00 0.  1.
         13    1    5    5    0    0  0.34465477767E+03  0.43444892793E+02  0.35507175976E+03  0.49673969950E+03  0.00000000000E+00 0. -1.
        -13    1    5    5    0    0  0.27311676011E+03  0.85472711746E+02  0.39552507276E+03  0.48819917277E+03  0.00000000000E+00 0.  1.
          3    1    6    6  503    0 -0.29007238621E+01 -0.16822919713E+01  0.34021240036E+02  0.34186094816E+02  0.00000000000E+00 0. -1.
         -3    1    6    6    0  503 -0.28840535746E+03  0.26050212997E+03  0.51347244878E+03  0.64396658732E+03  0.00000000000E+00 0.  1.
<mgrwt>
<rscale>  0 0.15731974E+04</rscale>
<asrwt>0</asrwt>
<pdfrwt beam="1">  1        2 0.30727032E+00 0.15731974E+04</pdfrwt>
<pdfrwt beam="2">  1       -1 0.47660559E-01 0.15731974E+04</pdfrwt>
<totfact> 0.32268511E+01</totfact>
</mgrwt>
</event>
<event>
12    7  0.1730932E-007  0.1420167E+04  0.7818608E-02  0.8939349E-01
         -1   -1    0    0    0  501 -0.00000000000E+00  0.00000000000E+00  0.28643873008E+03  0.28643873008E+03  0.00000000000E+00 0.  1.
          2   -1    0    0  501    0  0.00000000000E+00 -0.00000000000E+00 -0.17603005470E+04  0.17603005470E+04  0.00000000000E+00 0. -1.
         24    2    1    2    0    0  0.12766411519E+03  0.20859463258E+03 -0.91052838825E+03  0.94618462416E+03  0.79959678157E+02 0.  0.
        254    2    1    2    0    0 -0.12766411519E+03 -0.20859463258E+03 -0.56333342868E+03  0.11005546529E+04  0.91327221855E+03 0.  0.
         23    2    4    4    0    0 -0.17614365774E+02 -0.51803853402E+03 -0.54741807940E+03  0.75918896840E+03  0.89594349519E+02 0.  0.
         23    2    4    4    0    0 -0.11004974942E+03  0.30944390144E+03 -0.15915349277E+02  0.34136568454E+03  0.91710178013E+02 0.  0.
          2    1    3    3  502    0  0.12837998316E+03  0.15481122980E+03 -0.76631942040E+03  0.79227103383E+03  0.00000000000E+00 0. -1.
         -1    1    3    3    0  502 -0.71586797222E+00  0.53783402779E+02 -0.14420896785E+03  0.15391359033E+03  0.00000000000E+00 0.  1.
         13    1    5    5    0    0 -0.35125679488E+02 -0.80942959060E+02 -0.81886178496E+02  0.12037824641E+03  0.00000000000E+00 0. -1.
        -13    1    5    5    0    0  0.17511313715E+02 -0.43709557496E+03 -0.46553190091E+03  0.63881072199E+03  0.00000000000E+00 0.  1.
          2    1    6    6  503    0 -0.22253391932E+02  0.18645063529E+03  0.10023571468E+02  0.18804128493E+03  0.00000000000E+00 0.  1.
         -2    1    6    6    0  503 -0.87796357484E+02  0.12299326615E+03 -0.25938920745E+02  0.15332439961E+03  0.00000000000E+00 0. -1.
<mgrwt>
<rscale>  0 0.14201665E+04</rscale>
<asrwt>0</asrwt>
<pdfrwt beam="1">  1        2 0.27081547E+00 0.14201665E+04</pdfrwt>
<pdfrwt beam="2">  1       -1 0.44067497E-01 0.14201665E+04</pdfrwt>
<totfact> 0.51189403E+01</totfact>
</mgrwt>
</event>
<event>
12    7  0.1730932E-007  0.1316121E+04  0.7818608E-02  0.9016878E-01
          2   -1    0    0  501    0  0.00000000000E+00  0.00000000000E+00  0.63945574787E+03  0.63945574787E+03  0.00000000000E+00 0. -1.
         -1   -1    0    0    0  501 -0.00000000000E+00 -0.00000000000E+00 -0.67720606070E+03  0.67720606070E+03  0.00000000000E+00 0.  1.
         24    2    1    2    0    0  0.12897513546E+03  0.13680084196E+03  0.29940607040E+03  0.36274903787E+03  0.81202300199E+02 0.  0.
        254    2    1    2    0    0 -0.12897513546E+03 -0.13680084196E+03 -0.33715638324E+03  0.95391277070E+03  0.87231077686E+03 0.  0.
         23    2    4    4    0    0  0.35478155052E+03 -0.32665559424E+02 -0.39494853176E+02  0.36976038847E+03  0.90696825132E+02 0.  0.
         23    2    4    4    0    0 -0.48375668598E+03 -0.10413528253E+03 -0.29766153006E+03  0.58415238223E+03  0.88130192836E+02 0.  0.
          2    1    3    3  502    0  0.10483147004E+03  0.84232294317E+02  0.26010798892E+03  0.29281544087E+03  0.00000000000E+00 0. -1.
         -1    1    3    3    0  502  0.24143665422E+02  0.52568547638E+02  0.39298081488E+02  0.69933597000E+02  0.00000000000E+00 0.  1.
         13    1    5    5    0    0  0.22098589156E+03 -0.60270888246E+02 -0.43203251269E+02  0.23309625728E+03  0.00000000000E+00 0.  1.
        -13    1    5    5    0    0  0.13379565896E+03  0.27605328822E+02  0.37083980921E+01  0.13666413119E+03  0.00000000000E+00 0. -1.
          2    1    6    6  503    0 -0.86295432633E+02 -0.44266687415E+02 -0.87286953770E+02  0.13048162172E+03  0.00000000000E+00 0. -1.
         -2    1    6    6    0  503 -0.39746125335E+03 -0.59868595116E+02 -0.21037457629E+03  0.45367076051E+03  0.00000000000E+00 0.  1.
<mgrwt>
<rscale>  0 0.13161205E+04</rscale>
<asrwt>0</asrwt>
<pdfrwt beam="1">  1        2 0.98377808E-01 0.13161205E+04</pdfrwt>
<pdfrwt beam="2">  1       -1 0.10418555E+00 0.13161205E+04</pdfrwt>
<totfact> 0.44518946E+01</totfact>
</mgrwt>
</event>
<event>
12    7  0.1730932E-007  0.2138610E+04  0.7818608E-02  0.8544424E-01
          2   -1    0    0  501    0  0.00000000000E+00  0.00000000000E+00  0.19770147086E+04  0.19770147086E+04  0.00000000000E+00 0. -1.
         -1   -1    0    0    0  501 -0.00000000000E+00 -0.00000000000E+00 -0.57835334364E+03  0.57835334364E+03  0.00000000000E+00 0.  1.
         24    2    1    2    0    0  0.83233919439E+03  0.13783290293E+03  0.86587567424E+03  0.12113887414E+04  0.77042558759E+02 0.  0.
        254    2    1    2    0    0 -0.83233919439E+03 -0.13783290293E+03  0.53278569073E+03  0.13439793109E+04  0.90035179355E+03 0.  0.
         23    2    4    4    0    0 -0.23443125072E+03 -0.40913480214E+03 -0.20390607147E+02  0.48062602925E+03  0.90754093562E+02 0.  0.
         23    2    4    4    0    0 -0.59790794367E+03  0.27130189921E+03  0.55317629787E+03  0.86335328161E+03  0.90973857379E+02 0.  0.
          2    1    3    3  502    0  0.77322720687E+03  0.13825814400E+03  0.77869688622E+03  0.11060580764E+04  0.00000000000E+00 0. -1.
         -1    1    3    3    0  502  0.59111987516E+02 -0.42524107490E+00  0.87178788022E+02  0.10533066495E+03  0.00000000000E+00 0.  1.
         13    1    5    5    0    0 -0.61320925709E+02 -0.56505050655E+02  0.19927003971E+02  0.85733086767E+02  0.00000000000E+00 0. -1.
        -13    1    5    5    0    0 -0.17311032501E+03 -0.35262975149E+03 -0.40317611118E+02  0.39489294249E+03  0.00000000000E+00 0.  1.
          3    1    6    6  503    0 -0.45867229890E+03  0.24303334569E+03  0.40811627121E+03  0.66030627418E+03  0.00000000000E+00 0.  1.
         -3    1    6    6    0  503 -0.13923564477E+03  0.28268553523E+02  0.14506002666E+03  0.20304700743E+03  0.00000000000E+00 0. -1.
<mgrwt>
<rscale>  0 0.21386099E+04</rscale>
<asrwt>0</asrwt>
<pdfrwt beam="1">  1        2 0.30415611E+00 0.21386099E+04</pdfrwt>
<pdfrwt beam="2">  1       -1 0.88977438E-01 0.21386099E+04</pdfrwt>
<totfact> 0.89134431E+00</totfact>
</mgrwt>
</event>
<event>
12    7  0.1730932E-007  0.1498484E+04  0.7818608E-02  0.8885461E-01
          2   -1    0    0  501    0  0.00000000000E+00  0.00000000000E+00  0.41619887427E+04  0.41619887427E+04  0.00000000000E+00 0. -1.
         -1   -1    0    0    0  501 -0.00000000000E+00 -0.00000000000E+00 -0.13487873798E+03  0.13487873798E+03  0.00000000000E+00 0.  1.
         24    2    1    2    0    0  0.54782480343E+02  0.34887744572E+02 -0.53871200201E+02  0.11547114429E+03  0.78823880126E+02 0.  0.
        254    2    1    2    0    0 -0.54782480343E+02 -0.34887744572E+02  0.40809812049E+04  0.41813963364E+04  0.90854248787E+03 0.  0.
         23    2    4    4    0    0 -0.14854503383E+03 -0.38389133368E+03  0.11164839396E+04  0.11935118740E+04  0.92173872741E+02 0.  0.
         23    2    4    4    0    0  0.93762553484E+02  0.34900358911E+03  0.29644972653E+04  0.29878844624E+04  0.92814885640E+02 0.  0.
          2    1    3    3  502    0 -0.54587593602E+01  0.82300935884E+01  0.16404061166E+02  0.19147472861E+02  0.00000000000E+00 0. -1.
         -3    1    3    3    0  502  0.60241239703E+02  0.26657650984E+02 -0.70275261367E+02  0.96323671427E+02  0.00000000000E+00 0.  1.
         13    1    5    5    0    0 -0.20393730213E+02 -0.63974081170E+02  0.29727429896E+03  0.30476318038E+03  0.00000000000E+00 0.  1.
        -13    1    5    5    0    0 -0.12815130361E+03 -0.31991725251E+03  0.81920964066E+03  0.88874869363E+03  0.00000000000E+00 0. -1.
          4    1    6    6  503    0  0.70745482065E+02  0.32157352750E+03  0.24324911010E+04  0.24546746044E+04  0.00000000000E+00 0. -1.
         -4    1    6    6    0  503  0.23017071419E+02  0.27430061605E+02  0.53200616425E+03  0.53320985799E+03  0.00000000000E+00 0.  1.
<mgrwt>
<rscale>  0 0.14984843E+04</rscale>
<asrwt>0</asrwt>
<pdfrwt beam="1">  1        2 0.64030586E+00 0.14984843E+04</pdfrwt>
<pdfrwt beam="2">  1       -1 0.20750578E-01 0.14984843E+04</pdfrwt>
<totfact> 0.54528371E+00</totfact>
</mgrwt>
</event>
<event>
12    7  0.1730932E-007  0.1013380E+04  0.7818608E-02  0.9293991E-01
         -1   -1    0    0    0  501 -0.00000000000E+00  0.00000000000E+00  0.86457177036E+02  0.86457177036E+02  0.00000000000E+00 0.  1.
          2   -1    0    0  501    0  0.00000000000E+00 -0.00000000000E+00 -0.29695009680E+04  0.29695009680E+04  0.00000000000E+00 0. -1.
         24    2    1    2    0    0 -0.33134693484E+02 -0.33238960344E+02 -0.11231496479E+03  0.14525214296E+03  0.79251481513E+02 0.  0.
        254    2    1    2    0    0  0.33134693484E+02  0.33238960344E+02 -0.27707288262E+04  0.29107060021E+04  0.89054391578E+03 0.  0.
         23    2    4    4    0    0  0.40295681424E+03  0.89055696727E+02 -0.20614320178E+04  0.21040357848E+04  0.84613878237E+02 0.  0.
         23    2    4    4    0    0 -0.36982212075E+03 -0.55816736383E+02 -0.70929680843E+03  0.80667021734E+03  0.87925923593E+02 0.  0.
          4    1    3    3  502    0 -0.20753105832E+02 -0.19227687704E+02  0.29827933474E+01  0.28448065527E+02  0.00000000000E+00 0. -1.
         -3    1    3    3    0  502 -0.12381587652E+02 -0.14011272640E+02 -0.11529775813E+03  0.11680407743E+03  0.00000000000E+00 0.  1.
         13    1    5    5    0    0  0.24990762129E+03  0.49903559519E+02 -0.10589711377E+04  0.10892034039E+04  0.00000000000E+00 0. -1.
        -13    1    5    5    0    0  0.15304919295E+03  0.39152137208E+02 -0.10024608800E+04  0.10148323809E+04  0.00000000000E+00 0.  1.
          2    1    6    6  503    0 -0.30859034375E+02  0.42048256613E+01 -0.12210335576E+03  0.12601265829E+03  0.00000000000E+00 0.  1.
         -2    1    6    6    0  503 -0.33896308638E+03 -0.60021562044E+02 -0.58719345267E+03  0.68065755905E+03  0.00000000000E+00 0. -1.
<mgrwt>
<rscale>  0 0.10133798E+04</rscale>
<asrwt>0</asrwt>
<pdfrwt beam="1">  1        2 0.45684631E+00 0.10133798E+04</pdfrwt>
<pdfrwt beam="2">  1       -1 0.13301104E-01 0.10133798E+04</pdfrwt>
<totfact> 0.84574603E+01</totfact>
</mgrwt>
</event>
<event>
12    7  0.1730932E-007  0.2405643E+04  0.7818608E-02  0.8437394E-01
         -1   -1    0    0    0  501 -0.00000000000E+00  0.00000000000E+00  0.16398091976E+04  0.16398091976E+04  0.00000000000E+00 0.  1.
          2   -1    0    0  501    0  0.00000000000E+00 -0.00000000000E+00 -0.88228520199E+03  0.88228520199E+03  0.00000000000E+00 0. -1.
         24    2    1    2    0    0 -0.87018243473E+03 -0.51128918591E+03  0.89037965472E+02  0.10162366681E+04  0.78581835826E+02 0.  0.
        254    2    1    2    0    0  0.87018243473E+03  0.51128918591E+03  0.66848603018E+03  0.15058577315E+04  0.89560026449E+03 0.  0.
         23    2    4    4    0    0  0.35734673962E+02  0.49604350620E+03  0.30531024682E+03  0.59087831877E+03  0.92664522923E+02 0.  0.
         23    2    4    4    0    0  0.83444776077E+03  0.15245679709E+02  0.36317578335E+03  0.91497941277E+03  0.93569118701E+02 0.  0.
          4    1    3    3  502    0 -0.79943702080E+03 -0.45548389807E+03  0.62068745564E+02  0.92218092629E+03  0.00000000000E+00 0. -1.
         -3    1    3    3    0  502 -0.70745413930E+02 -0.55805287841E+02  0.26969219908E+02  0.94055741800E+02  0.00000000000E+00 0.  1.
         13    1    5    5    0    0  0.21460777661E+02  0.24416688676E+03  0.96604658987E+02  0.26345871347E+03  0.00000000000E+00 0. -1.
        -13    1    5    5    0    0  0.14273896301E+02  0.25187661944E+03  0.20870558784E+03  0.32741960529E+03  0.00000000000E+00 0.  1.
          3    1    6    6  503    0  0.81375929319E+03  0.23764152392E+02  0.36568537350E+03  0.89246552571E+03  0.00000000000E+00 0. -1.
         -3    1    6    6    0  503  0.20688467580E+02 -0.85184726830E+01 -0.25095901510E+01  0.22513887056E+02  0.00000000000E+00 0.  1.
<mgrwt>
<rscale>  0 0.24056429E+04</rscale>
<asrwt>0</asrwt>
<pdfrwt beam="1">  1        2 0.13573619E+00 0.24056429E+04</pdfrwt>
<pdfrwt beam="2">  1       -1 0.25227834E+00 0.24056429E+04</pdfrwt>
<totfact> 0.20819235E+00</totfact>
</mgrwt>
</event>
<event>
12    7  0.1730932E-007  0.1780475E+04  0.7818608E-02  0.8716752E-01
          2   -1    0    0  501    0  0.00000000000E+00  0.00000000000E+00  0.20894332268E+04  0.20894332268E+04  0.00000000000E+00 0. -1.
         -1   -1    0    0    0  501 -0.00000000000E+00 -0.00000000000E+00 -0.37930019917E+03  0.37930019917E+03  0.00000000000E+00 0.  1.
         24    2    1    2    0    0 -0.23715439288E+03 -0.20446589049E+03  0.14534139028E+04  0.14889101355E+04  0.79955690252E+02 0.  0.
        254    2    1    2    0    0  0.23715439288E+03  0.20446589049E+03  0.25671912482E+03  0.97982329042E+03  0.89224462170E+03 0.  0.
         23    2    4    4    0    0  0.17297083560E+03  0.62214220865E+02  0.57731630136E+03  0.61141490059E+03  0.82125206836E+02 0.  0.
         23    2    4    4    0    0  0.64183557283E+02  0.14225166962E+03 -0.32059717654E+03  0.36840838983E+03  0.92666744605E+02 0.  0.
          2    1    3    3  502    0 -0.21423436313E+03 -0.18717706387E+03  0.13963051333E+04  0.14249911020E+04  0.00000000000E+00 0. -1.
         -1    1    3    3    0  502 -0.22920029759E+02 -0.17288826621E+02  0.57108769476E+02  0.63919033481E+02  0.00000000000E+00 0.  1.
         13    1    5    5    0    0  0.59265291441E+02 -0.68414708309E+01  0.27047275467E+03  0.27697417120E+03  0.00000000000E+00 0. -1.
        -13    1    5    5    0    0  0.11370554416E+03  0.69055691696E+02  0.30684354669E+03  0.33444072939E+03  0.00000000000E+00 0.  1.
          2    1    6    6  503    0  0.37712219571E+02  0.41022618614E+02 -0.39040954618E+02  0.68038686645E+02  0.00000000000E+00 0. -1.
         -2    1    6    6    0  503  0.26471337713E+02  0.10122905101E+03 -0.28155622192E+03  0.30036970318E+03  0.00000000000E+00 0.  1.
<mgrwt>
<rscale>  0 0.17804746E+04</rscale>
<asrwt>0</asrwt>
<pdfrwt beam="1">  1        2 0.32145126E+00 0.17804746E+04</pdfrwt>
<pdfrwt beam="2">  1       -1 0.58353878E-01 0.17804746E+04</pdfrwt>
<totfact> 0.19088004E+01</totfact>
</mgrwt>
</event>
<event>
12    7  0.1730932E-007  0.1253747E+04  0.7818608E-02  0.9067071E-01
          2   -1    0    0  501    0  0.00000000000E+00  0.00000000000E+00  0.10961721036E+04  0.10961721036E+04  0.00000000000E+00 0. -1.
         -1   -1    0    0    0  501 -0.00000000000E+00 -0.00000000000E+00 -0.35849317761E+03  0.35849317761E+03  0.00000000000E+00 0.  1.
         24    2    1    2    0    0 -0.10376767403E+03 -0.32879820953E+03  0.19204449295E+03  0.40434697200E+03  0.87973824121E+02 0.  0.
        254    2    1    2    0    0  0.10376767403E+03  0.32879820953E+03  0.54563443300E+03  0.10503183092E+04  0.82859859000E+03 0.  0.
         23    2    4    4    0    0 -0.33291997973E+03  0.14149441037E+03  0.87768922173E+02  0.38421106359E+03  0.95175504289E+02 0.  0.
         23    2    4    4    0    0  0.43668765376E+03  0.18730379916E+03  0.45786551083E+03  0.66610724559E+03  0.90990199981E+02 0.  0.
          2    1    3    3  502    0 -0.47462183240E+02 -0.78359480626E+02  0.89062769358E+02  0.12776949529E+03  0.00000000000E+00 0. -1.
         -1    1    3    3    0  502 -0.56305490786E+02 -0.25043872890E+03  0.10298172359E+03  0.27657747671E+03  0.00000000000E+00 0.  1.
         13    1    5    5    0    0 -0.72321351196E+02 -0.54754584124E+01  0.34519651367E+02  0.80324123488E+02  0.00000000000E+00 0. -1.
        -13    1    5    5    0    0 -0.26059862853E+03  0.14696986878E+03  0.53249270806E+02  0.30388694010E+03  0.00000000000E+00 0.  1.
          2    1    6    6  503    0  0.57318782625E+01  0.18001747249E+02  0.31237584844E+02  0.36506219187E+02  0.00000000000E+00 0. -1.
         -2    1    6    6    0  503  0.43095577549E+03  0.16930205191E+03  0.42662792598E+03  0.62960102640E+03  0.00000000000E+00 0.  1.
<mgrwt>
<rscale>  0 0.12537467E+04</rscale>
<asrwt>0</asrwt>
<pdfrwt beam="1">  1        2 0.16864186E+00 0.12537467E+04</pdfrwt>
<pdfrwt beam="2">  1       -1 0.55152797E-01 0.12537467E+04</pdfrwt>
<totfact> 0.81612910E+01</totfact>
</mgrwt>
</event>
<event>
12    7  0.1730932E-007  0.1082135E+04  0.7818608E-02  0.9222782E-01
          2   -1    0    0  501    0  0.00000000000E+00  0.00000000000E+00  0.44055675895E+04  0.44055675895E+04  0.00000000000E+00 0. -1.
         -1   -1    0    0    0  501 -0.00000000000E+00 -0.00000000000E+00 -0.66450872992E+02  0.66450872992E+02  0.00000000000E+00 0.  1.
         24    2    1    2    0    0  0.13714824086E+03  0.17082830115E+02  0.46151203104E+03  0.48844891816E+03  0.80545191045E+02 0.  0.
        254    2    1    2    0    0 -0.13714824086E+03 -0.17082830115E+02  0.38776046854E+04  0.39835695443E+04  0.90216780850E+03 0.  0.
         23    2    4    4    0    0 -0.48831310872E+03  0.55611886030E+02  0.15996589135E+04  0.16759111401E+04  0.90703561828E+02 0.  0.
         23    2    4    4    0    0  0.35116486786E+03 -0.72694716145E+02  0.22779457719E+04  0.23076584042E+04  0.87459042827E+02 0.  0.
          4    1    3    3  502    0  0.55333462514E+02 -0.28383676953E+02  0.13225842275E+03  0.14614963421E+03  0.00000000000E+00 0. -1.
         -3    1    3    3    0  502  0.81814778347E+02  0.45466507068E+02  0.32925360829E+03  0.34229928395E+03  0.00000000000E+00 0.  1.
         13    1    5    5    0    0 -0.46093594134E+03  0.58382228959E+02  0.15594180669E+04  0.16271616804E+04  0.00000000000E+00 0. -1.
        -13    1    5    5    0    0 -0.27377167388E+02 -0.27703429297E+01  0.40240846571E+02  0.48749459760E+02  0.00000000000E+00 0.  1.
          3    1    6    6  503    0  0.34742370072E+03 -0.69845625097E+02  0.22742052154E+04  0.23016496260E+04  0.00000000000E+00 0. -1.
         -3    1    6    6    0  503  0.37411671472E+01 -0.28490910474E+01  0.37405565207E+01  0.60087781207E+01  0.00000000000E+00 0.  1.
<mgrwt>
<rscale>  0 0.10821346E+04</rscale>
<asrwt>0</asrwt>
<pdfrwt beam="1">  1        2 0.67777940E+00 0.10821346E+04</pdfrwt>
<pdfrwt beam="2">  1       -1 0.10223215E-01 0.10821346E+04</pdfrwt>
<totfact> 0.11162163E+01</totfact>
</mgrwt>
</event>
<event>
12    7  0.1730932E-007  0.1327947E+04  0.7818608E-02  0.9007692E-01
          4   -1    0    0  501    0  0.00000000000E+00  0.00000000000E+00  0.49764347631E+03  0.49764347631E+03  0.00000000000E+00 0. -1.
         -3   -1    0    0    0  501 -0.00000000000E+00 -0.00000000000E+00 -0.88589682056E+03  0.88589682056E+03  0.00000000000E+00 0.  1.
         24    2    1    2    0    0 -0.29488232419E+03  0.19076188209E+03 -0.51911810647E+02  0.36405068006E+03  0.80575311256E+02 0.  0.
        254    2    1    2    0    0  0.29488232419E+03 -0.19076188209E+03 -0.33634153360E+03  0.10194896168E+04  0.89604004977E+03 0.  0.
         23    2    4    4    0    0 -0.23731939250E+03 -0.26011743293E+03 -0.30237337316E+03  0.47350407323E+03  0.93781008702E+02 0.  0.
         23    2    4    4    0    0  0.53220171669E+03  0.69355550839E+02 -0.33968160435E+02  0.54598554359E+03  0.94326656896E+02 0.  0.
          4    1    3    3  502    0 -0.29814424684E+03  0.17845034767E+03 -0.48281714303E+02  0.35080712998E+03  0.00000000000E+00 0. -1.
         -3    1    3    3    0  502  0.32619226484E+01  0.12311534422E+02 -0.36300963435E+01  0.13243550077E+02  0.00000000000E+00 0.  1.
         13    1    5    5    0    0 -0.17906954269E+03 -0.13919193111E+03 -0.15823603626E+03  0.27654825614E+03  0.00000000000E+00 0. -1.
        -13    1    5    5    0    0 -0.58249849814E+02 -0.12092550182E+03 -0.14413733690E+03  0.19695581709E+03  0.00000000000E+00 0.  1.
          2    1    6    6  503    0  0.19016022819E+03 -0.18638854982E+02  0.10535348741E+01  0.19107440759E+03  0.00000000000E+00 0. -1.
         -2    1    6    6    0  503  0.34204148851E+03  0.87994405821E+02 -0.35021695309E+02  0.35491113600E+03  0.00000000000E+00 0.  1.
<mgrwt>
<rscale>  0 0.13279469E+04</rscale>
<asrwt>0</asrwt>
<pdfrwt beam="1">  1        4 0.76560535E-01 0.13279469E+04</pdfrwt>
<pdfrwt beam="2">  1       -3 0.13629182E+00 0.13279469E+04</pdfrwt>
<totfact> 0.14143219E+00</totfact>
</mgrwt>
</event>
<event>
12    7  0.1730932E-007  0.1271337E+04  0.7818608E-02  0.9052609E-01
         -1   -1    0    0    0  501 -0.00000000000E+00  0.00000000000E+00  0.30490787138E+03  0.30490787138E+03  0.00000000000E+00 0.  1.
          2   -1    0    0  501    0  0.00000000000E+00 -0.00000000000E+00 -0.13252337380E+04  0.13252337380E+04  0.00000000000E+00 0. -1.
         24    2    1    2    0    0 -0.19705196319E+03  0.18121492150E+03 -0.58593671527E+02  0.28586869304E+03  0.81359494512E+02 0.  0.
        254    2    1    2    0    0  0.19705196319E+03 -0.18121492150E+03 -0.96173219507E+03  0.13442729163E+04  0.90026248091E+03 0.  0.
         23    2    4    4    0    0 -0.85059082733E+02  0.93882018771E+02 -0.92192412434E+03  0.93519663503E+03  0.92734967067E+02 0.  0.
         23    2    4    4    0    0  0.28211104592E+03 -0.27509694027E+03 -0.39808070724E+02  0.40907628128E+03  0.10243901911E+03 0.  0.
          4    1    3    3  502    0 -0.50829684226E+02  0.61065453133E+02 -0.54908443527E+02  0.96579415691E+02  0.00000000000E+00 0. -1.
         -3    1    3    3    0  502 -0.14622227896E+03  0.12014946837E+03 -0.36852280005E+01  0.18928927735E+03  0.00000000000E+00 0.  1.
         13    1    5    5    0    0 -0.25238793203E+02  0.79660378385E+02 -0.69799124334E+03  0.70297549627E+03  0.00000000000E+00 0. -1.
        -13    1    5    5    0    0 -0.59820289530E+02  0.14221640386E+02 -0.22393288100E+03  0.23222113876E+03  0.00000000000E+00 0.  1.
          3    1    6    6  503    0  0.23163459684E+03 -0.21400746726E+03  0.99228782455E+01  0.31551901054E+03  0.00000000000E+00 0. -1.
         -3    1    6    6    0  503  0.50476449085E+02 -0.61089473008E+02 -0.49730948970E+02  0.93557270749E+02  0.00000000000E+00 0.  1.
<mgrwt>
<rscale>  0 0.12713366E+04</rscale>
<asrwt>0</asrwt>
<pdfrwt beam="1">  1        2 0.20388211E+00 0.12713366E+04</pdfrwt>
<pdfrwt beam="2">  1       -1 0.46908903E-01 0.12713366E+04</pdfrwt>
<totfact> 0.81009420E+01</totfact>
</mgrwt>
</event>
<event>
12    7  0.1730932E-007  0.1734396E+04  0.7818608E-02  0.8741986E-01
          2   -1    0    0  501    0  0.00000000000E+00  0.00000000000E+00  0.12793063135E+04  0.12793063135E+04  0.00000000000E+00 0. -1.
         -1   -1    0    0    0  501 -0.00000000000E+00 -0.00000000000E+00 -0.58784411717E+03  0.58784411717E+03  0.00000000000E+00 0.  1.
         24    2    1    2    0    0 -0.60007872020E+03  0.16282465146E+03  0.38398621928E+03  0.73484225639E+03  0.77080397147E+02 0.  0.
        254    2    1    2    0    0  0.60007872020E+03 -0.16282465146E+03  0.30747597707E+03  0.11323081743E+04  0.89497150098E+03 0.  0.
         23    2    4    4    0    0  0.72577111065E+03 -0.34824370192E+03  0.10547900062E+03  0.81716787686E+03  0.92844700567E+02 0.  0.
         23    2    4    4    0    0 -0.12569239045E+03  0.18541905046E+03  0.20199697646E+03  0.31514029745E+03  0.91278843608E+02 0.  0.
          2    1    3    3  502    0 -0.46439744385E+03  0.13649487890E+03  0.33300478782E+03  0.58752704323E+03  0.00000000000E+00 0. -1.
         -1    1    3    3    0  502 -0.13568127635E+03  0.26329772563E+02  0.50981431468E+02  0.14731521316E+03  0.00000000000E+00 0.  1.
         13    1    5    5    0    0  0.25156558916E+03 -0.11775091123E+03  0.81066439625E+02  0.28934804367E+03  0.00000000000E+00 0. -1.
        -13    1    5    5    0    0  0.47420552149E+03 -0.23049279069E+03  0.24412560990E+02  0.52781983319E+03  0.00000000000E+00 0.  1.
          1    1    6    6  503    0 -0.38482642563E+02  0.21332310203E+02  0.49223520679E+01  0.44274267776E+02  0.00000000000E+00 0. -1.
         -1    1    6    6    0  503 -0.87209747885E+02  0.16408674025E+03  0.19707462439E+03  0.27086602967E+03  0.00000000000E+00 0.  1.
<mgrwt>
<rscale>  0 0.17343964E+04</rscale>
<asrwt>0</asrwt>
<pdfrwt beam="1">  1        2 0.19681636E+00 0.17343964E+04</pdfrwt>
<pdfrwt beam="2">  1       -1 0.90437557E-01 0.17343964E+04</pdfrwt>
<totfact> 0.21979872E+01</totfact>
</mgrwt>
</event>
<event>
12    7  0.1730932E-007  0.1114516E+04  0.7818608E-02  0.9191158E-01
          2   -1    0    0  501    0  0.00000000000E+00  0.00000000000E+00  0.45598099670E+03  0.45598099670E+03  0.00000000000E+00 0. -1.
         -1   -1    0    0    0  501 -0.00000000000E+00 -0.00000000000E+00 -0.68102901186E+03  0.68102901186E+03  0.00000000000E+00 0.  1.
         24    2    1    2    0    0  0.81010685327E+02 -0.95081732353E+02  0.18630622609E+02  0.14827565034E+03  0.77687202427E+02 0.  0.
        254    2    1    2    0    0 -0.81010685327E+02  0.95081732353E+02 -0.24367863778E+03  0.98873435822E+03  0.95005951690E+03 0.  0.
         23    2    4    4    0    0 -0.26771527325E+03  0.15720542958E+03  0.27519182594E+03  0.42648658191E+03  0.98869858228E+02 0.  0.
         23    2    4    4    0    0  0.18670458792E+03 -0.62123697229E+02 -0.51887046372E+03  0.56224777631E+03  0.90432554597E+02 0.  0.
          2    1    3    3  502    0  0.70778620084E+02 -0.10196379092E+03  0.33881657587E+02  0.12866310443E+03  0.00000000000E+00 0. -1.
         -1    1    3    3    0  502  0.10232065243E+02  0.68820585694E+01 -0.15251034978E+02  0.19612545913E+02  0.00000000000E+00 0.  1.
         13    1    5    5    0    0 -0.26153867557E+03  0.12098892533E+03  0.25363414417E+03  0.38388940850E+03  0.00000000000E+00 0. -1.
        -13    1    5    5    0    0 -0.61765976747E+01  0.36216504250E+02  0.21557681773E+02  0.42597173408E+02  0.00000000000E+00 0.  1.
          3    1    6    6  503    0  0.12683595953E+03 -0.46121525774E+02 -0.44904826936E+03  0.46889114300E+03  0.00000000000E+00 0. -1.
         -3    1    6    6    0  503  0.59868628391E+02 -0.16002171455E+02 -0.69822194361E+02  0.93356633305E+02  0.00000000000E+00 0.  1.
<mgrwt>
<rscale>  0 0.11145157E+04</rscale>
<asrwt>0</asrwt>
<pdfrwt beam="1">  1        2 0.70150922E-01 0.11145157E+04</pdfrwt>
<pdfrwt beam="2">  1       -1 0.10477369E+00 0.11145157E+04</pdfrwt>
<totfact> 0.66558455E+01</totfact>
</mgrwt>
</event>
<event>
12    7  0.1730932E-007  0.1974940E+04  0.7818608E-02  0.8618428E-01
          2   -1    0    0  501    0  0.00000000000E+00  0.00000000000E+00  0.15829401843E+04  0.15829401843E+04  0.00000000000E+00 0. -1.
         -1   -1    0    0    0  501 -0.00000000000E+00 -0.00000000000E+00 -0.61600349016E+03  0.61600349016E+03  0.00000000000E+00 0.  1.
         24    2    1    2    0    0 -0.41372170237E+03 -0.99756016593E+02 -0.34544525281E+03  0.55375161158E+03  0.78686179070E+02 0.  0.
        254    2    1    2    0    0  0.41372170237E+03  0.99756016593E+02  0.13123819470E+04  0.16451920629E+04  0.89621071142E+03 0.  0.
         23    2    4    4    0    0  0.35137537063E+02 -0.33114741762E+03  0.22409792975E+03  0.41166049167E+03  0.91385007423E+02 0.  0.
         23    2    4    4    0    0  0.37858416531E+03  0.43090343421E+03  0.10882840172E+04  0.12335315713E+04  0.90743017696E+02 0.  0.
          2    1    3    3  502    0 -0.60997757507E+02 -0.34805728246E+02 -0.30976104291E+02  0.76757306992E+02  0.00000000000E+00 0. -1.
         -1    1    3    3    0  502 -0.35272394486E+03 -0.64950288347E+02 -0.31446914852E+03  0.47699430459E+03  0.00000000000E+00 0.  1.
         13    1    5    5    0    0  0.10231953787E+02 -0.70077272739E+01 -0.55978451747E+01  0.13606505446E+02  0.00000000000E+00 0. -1.
        -13    1    5    5    0    0  0.24905583277E+02 -0.32413969034E+03  0.22969577492E+03  0.39805398623E+03  0.00000000000E+00 0.  1.
          4    1    6    6  503    0  0.85653986653E+02  0.13382533131E+03  0.37358617971E+03  0.40597100685E+03  0.00000000000E+00 0. -1.
         -4    1    6    6    0  503  0.29293017866E+03  0.29707810290E+03  0.71469783754E+03  0.82756056441E+03  0.00000000000E+00 0.  1.
<mgrwt>
<rscale>  0 0.19749397E+04</rscale>
<asrwt>0</asrwt>
<pdfrwt beam="1">  1        2 0.24352926E+00 0.19749397E+04</pdfrwt>
<pdfrwt beam="2">  1       -1 0.94769768E-01 0.19749397E+04</pdfrwt>
<totfact> 0.13016371E+01</totfact>
</mgrwt>
</event>
<event>
12    7  0.1730932E-007  0.1429025E+04  0.7818608E-02  0.8933073E-01
          2   -1    0    0  501    0  0.00000000000E+00  0.00000000000E+00  0.19790164224E+04  0.19790164224E+04  0.00000000000E+00 0. -1.
         -1   -1    0    0    0  501 -0.00000000000E+00 -0.00000000000E+00 -0.25797045881E+03  0.25797045881E+03  0.00000000000E+00 0.  1.
         24    2    1    2    0    0  0.25714580442E+03  0.35028646879E+03  0.45052625453E+03  0.63110097402E+03  0.80560278303E+02 0.  0.
        254    2    1    2    0    0 -0.25714580442E+03 -0.35028646879E+03  0.12705197091E+04  0.16058859072E+04  0.88080908309E+03 0.  0.
         23    2    4    4    0    0 -0.45241379993E+03  0.10226232116E+03  0.52991502597E+03  0.71162451977E+03  0.10229219767E+03 0.  0.
         23    2    4    4    0    0  0.19526799550E+03 -0.45254878995E+03  0.74060468314E+03  0.89426138745E+03  0.90984257143E+02 0.  0.
          2    1    3    3  502    0  0.49855778971E+02  0.27944573680E+02  0.77458806975E+02  0.96261958597E+02  0.00000000000E+00 0. -1.
         -1    1    3    3    0  502  0.20729002545E+03  0.32234189511E+03  0.37306744755E+03  0.53483901542E+03  0.00000000000E+00 0.  1.
         13    1    5    5    0    0 -0.44101865602E+03  0.11701089276E+03  0.50689838169E+03  0.68200804492E+03  0.00000000000E+00 0.  1.
        -13    1    5    5    0    0 -0.11395143910E+02 -0.14748571596E+02  0.23016644275E+02  0.29616474850E+02  0.00000000000E+00 0. -1.
          1    1    6    6  503    0  0.77309459770E+02 -0.12882786865E+03  0.29434749910E+03  0.33047514663E+03  0.00000000000E+00 0. -1.
         -1    1    6    6    0  503  0.11795853573E+03 -0.32372092130E+03  0.44625718403E+03  0.56378624082E+03  0.00000000000E+00 0.  1.
<mgrwt>
<rscale>  0 0.14290245E+04</rscale>
<asrwt>0</asrwt>
<pdfrwt beam="1">  1        2 0.30446406E+00 0.14290245E+04</pdfrwt>
<pdfrwt beam="2">  1       -1 0.39687764E-01 0.14290245E+04</pdfrwt>
<totfact> 0.46942280E+01</totfact>
</mgrwt>
</event>
<event>
12    7  0.1730932E-007  0.1873975E+04  0.7818608E-02  0.8667920E-01
          2   -1    0    0  501    0  0.00000000000E+00  0.00000000000E+00  0.31537091185E+04  0.31537091185E+04  0.00000000000E+00 0. -1.
         -1   -1    0    0    0  501 -0.00000000000E+00 -0.00000000000E+00 -0.27838507722E+03  0.27838507722E+03  0.00000000000E+00 0.  1.
         24    2    1    2    0    0  0.31261114567E+03 -0.48980539482E+03  0.35214397291E+03  0.68444216685E+03  0.82587220004E+02 0.  0.
        254    2    1    2    0    0 -0.31261114567E+03  0.48980539482E+03  0.25231800684E+04  0.27476520289E+04  0.91952104990E+03 0.  0.
         23    2    4    4    0    0 -0.49734428074E+03  0.65209284608E+03  0.19259817741E+04  0.20953172431E+04  0.91499406697E+02 0.  0.
         23    2    4    4    0    0  0.18473313508E+03 -0.16228745126E+03  0.59719829427E+03  0.65233478581E+03  0.91822230839E+02 0.  0.
          2    1    3    3  502    0  0.24011359891E+02 -0.10925935429E+02  0.67084751615E+01  0.27219939526E+02  0.00000000000E+00 0. -1.
         -1    1    3    3    0  502  0.28859978578E+03 -0.47887945939E+03  0.34543549775E+03  0.65722222732E+03  0.00000000000E+00 0.  1.
         13    1    5    5    0    0 -0.22699616742E+03  0.29680118151E+03  0.76285418403E+03  0.84944964975E+03  0.00000000000E+00 0.  1.
        -13    1    5    5    0    0 -0.27034811332E+03  0.35529166457E+03  0.11631275901E+04  0.12458675933E+04  0.00000000000E+00 0. -1.
          2    1    6    6  503    0  0.12340356950E+03 -0.13565329287E+03  0.33680799774E+03  0.38349691546E+03  0.00000000000E+00 0. -1.
         -2    1    6    6    0  503  0.61329565577E+02 -0.26634158389E+02  0.26039029653E+03  0.26883787035E+03  0.00000000000E+00 0.  1.
<mgrwt>
<rscale>  0 0.18739750E+04</rscale>
<asrwt>0</asrwt>
<pdfrwt beam="1">  1        2 0.48518599E+00 0.18739750E+04</pdfrwt>
<pdfrwt beam="2">  1       -1 0.42828476E-01 0.18739750E+04</pdfrwt>
<totfact> 0.80075688E+00</totfact>
</mgrwt>
</event>
<event>
12    7  0.1730932E-007  0.1742515E+04  0.7818608E-02  0.8737481E-01
          2   -1    0    0  501    0  0.00000000000E+00  0.00000000000E+00  0.10019526449E+04  0.10019526449E+04  0.00000000000E+00 0. -1.
         -1   -1    0    0    0  501 -0.00000000000E+00 -0.00000000000E+00 -0.75761006729E+03  0.75761006729E+03  0.00000000000E+00 0.  1.
         24    2    1    2    0    0 -0.22280208273E+02 -0.16441752851E+03 -0.52999577489E+03  0.56128284806E+03  0.81322707522E+02 0.  0.
        254    2    1    2    0    0  0.22280208273E+02  0.16441752851E+03  0.77433835248E+03  0.11982798641E+04  0.89930262829E+03 0.  0.
         23    2    4    4    0    0 -0.11662068368E+03  0.50925548848E+03  0.46600101243E+03  0.70685041435E+03  0.97667949093E+02 0.  0.
         23    2    4    4    0    0  0.13890089196E+03 -0.34483795997E+03  0.30833734005E+03  0.49142944976E+03  0.90687994789E+02 0.  0.
          4    1    3    3  502    0 -0.26126300355E+02 -0.39935275170E+02 -0.69956264781E+02  0.84683462112E+02  0.00000000000E+00 0. -1.
         -3    1    3    3    0  502  0.38460920819E+01 -0.12448225334E+03 -0.46003951011E+03  0.47659938594E+03  0.00000000000E+00 0.  1.
         13    1    5    5    0    0  0.61730736451E+01  0.11786212493E+03  0.73040095501E+02  0.13879640803E+03  0.00000000000E+00 0. -1.
        -13    1    5    5    0    0 -0.12279375733E+03  0.39139336355E+03  0.39296091693E+03  0.56805400632E+03  0.00000000000E+00 0.  1.
          4    1    6    6  503    0  0.25182257774E+01  0.54231685530E+01  0.13715470742E+01  0.61346034589E+01  0.00000000000E+00 0. -1.
         -4    1    6    6    0  503  0.13638266618E+03 -0.35026112852E+03  0.30696579298E+03  0.48529484630E+03  0.00000000000E+00 0.  1.
<mgrwt>
<rscale>  0 0.17425147E+04</rscale>
<asrwt>0</asrwt>
<pdfrwt beam="1">  1        2 0.15414656E+00 0.17425147E+04</pdfrwt>
<pdfrwt beam="2">  1       -1 0.11655540E+00 0.17425147E+04</pdfrwt>
<totfact> 0.18062026E+01</totfact>
</mgrwt>
</event>
<event>
12    7  0.1730932E-007  0.1980123E+04  0.7818608E-02  0.8615970E-01
         -1   -1    0    0    0  501 -0.00000000000E+00  0.00000000000E+00  0.80196424696E+03  0.80196424696E+03  0.00000000000E+00 0.  1.
          2   -1    0    0  501    0  0.00000000000E+00 -0.00000000000E+00 -0.12222766949E+04  0.12222766949E+04  0.00000000000E+00 0. -1.
         24    2    1    2    0    0 -0.17717100829E+03 -0.63452389406E+03 -0.60102114097E+03  0.89539127225E+03  0.80554206638E+02 0.  0.
        254    2    1    2    0    0  0.17717100829E+03  0.63452389406E+03  0.18070869301E+03  0.11288496696E+04  0.89868559942E+03 0.  0.
         23    2    4    4    0    0  0.10347502215E+03  0.84049998573E+03  0.40211531323E+02  0.85274424470E+03  0.91697728396E+02 0.  0.
         23    2    4    4    0    0  0.73695986147E+02 -0.20597609167E+03  0.14049716169E+03  0.27610542494E+03  0.92938175830E+02 0.  0.
          2    1    3    3  502    0 -0.95726244887E+02 -0.43852215754E+03 -0.44422443490E+03  0.63150656780E+03  0.00000000000E+00 0. -1.
         -1    1    3    3    0  502 -0.81444763405E+02 -0.19600173652E+03 -0.15679670607E+03  0.26388470445E+03  0.00000000000E+00 0.  1.
         13    1    5    5    0    0  0.10525497733E+03  0.60109752867E+03  0.56049440301E+02  0.61281187079E+03  0.00000000000E+00 0.  1.
        -13    1    5    5    0    0 -0.17799551854E+01  0.23940245706E+03 -0.15837908978E+02  0.23993237391E+03  0.00000000000E+00 0. -1.
          2    1    6    6  503    0  0.85645904704E+02 -0.10274061044E+03  0.79930894444E+02  0.15581977382E+03  0.00000000000E+00 0. -1.
         -2    1    6    6    0  503 -0.11949918557E+02 -0.10323548124E+03  0.60566267241E+02  0.12028565113E+03  0.00000000000E+00 0.  1.
<mgrwt>
<rscale>  0 0.19801234E+04</rscale>
<asrwt>0</asrwt>
<pdfrwt beam="1">  1        2 0.18804257E+00 0.19801234E+04</pdfrwt>
<pdfrwt beam="2">  1       -1 0.12337911E+00 0.19801234E+04</pdfrwt>
<totfact> 0.11267426E+01</totfact>
</mgrwt>
</event>
<event>
12    7  0.1838615E-007  0.1928166E+04  0.7818608E-02  0.8640962E-01
          2   -1    0    0  501    0  0.00000000000E+00  0.00000000000E+00  0.20971097255E+04  0.20971097255E+04  0.00000000000E+00 0. -1.
         -1   -1    0    0    0  501 -0.00000000000E+00 -0.00000000000E+00 -0.44320790962E+03  0.44320790962E+03  0.00000000000E+00 0.  1.
         24    2    1    2    0    0  0.18447034526E+03 -0.56321864238E+03  0.12436093929E+04  0.13805660058E+04  0.90297435493E+02 0.  0.
        254    2    1    2    0    0 -0.18447034526E+03  0.56321864238E+03  0.41029242301E+03  0.11597516294E+04  0.90853696789E+03 0.  0.
         23    2    4    4    0    0  0.31004363243E+03  0.45742889981E+03  0.29362558947E+03  0.63279051234E+03  0.94019111451E+02 0.  0.
         23    2    4    4    0    0 -0.49451397770E+03  0.10578974257E+03  0.11666683354E+03  0.52696111702E+03  0.91330854784E+02 0.  0.
          4    1    3    3  502    0  0.18847441245E+03 -0.56139493377E+03  0.12151428855E+04  0.13517614834E+04  0.00000000000E+00 0. -1.
         -3    1    3    3    0  502 -0.40040671837E+01 -0.18237086050E+01  0.28466507443E+02  0.28804522442E+02  0.00000000000E+00 0.  1.
         13    1    5    5    0    0  0.17194403320E+03  0.20559938792E+03  0.98412376802E+02  0.28551857168E+03  0.00000000000E+00 0.  1.
        -13    1    5    5    0    0  0.13809959923E+03  0.25182951189E+03  0.19521321267E+03  0.34727194066E+03  0.00000000000E+00 0. -1.
          4    1    6    6  503    0 -0.16241762924E+03  0.13165693563E+02 -0.10902528898E+00  0.16295040246E+03  0.00000000000E+00 0. -1.
         -4    1    6    6    0  503 -0.33209634846E+03  0.92624049008E+02  0.11677585883E+03  0.36401071457E+03  0.00000000000E+00 0.  1.
<mgrwt>
<rscale>  0 0.19281656E+04</rscale>
<asrwt>0</asrwt>
<pdfrwt beam="1">  1        2 0.32263226E+00 0.19281656E+04</pdfrwt>
<pdfrwt beam="2">  1       -1 0.68185833E-01 0.19281656E+04</pdfrwt>
<totfact> 0.13663341E+01</totfact>
</mgrwt>
</event>
<event>
12    7  0.1730932E-007  0.1656573E+04  0.7818608E-02  0.8786527E-01
         -1   -1    0    0    0  501 -0.00000000000E+00  0.00000000000E+00  0.42123244782E+03  0.42123244782E+03  0.00000000000E+00 0.  1.
          2   -1    0    0  501    0  0.00000000000E+00 -0.00000000000E+00 -0.16286942869E+04  0.16286942869E+04  0.00000000000E+00 0. -1.
         24    2    1    2    0    0  0.13661081536E+03 -0.33193735935E+02  0.27126306992E+03  0.31591438959E+03  0.80336227619E+02 0.  0.
        254    2    1    2    0    0 -0.13661081536E+03  0.33193735935E+02 -0.14787249090E+04  0.17340123452E+04  0.89465474770E+03 0.  0.
         23    2    4    4    0    0  0.18462145854E+03  0.21283408873E+03 -0.11374597994E+03  0.31733753295E+03  0.91550694084E+02 0.  0.
         23    2    4    4    0    0 -0.32123227390E+03 -0.17964035280E+03 -0.13649789291E+04  0.14166748122E+04  0.91319310759E+02 0.  0.
          2    1    3    3  502    0  0.34031904193E+02  0.25273939666E+02  0.54108001899E+02  0.68735859627E+02  0.00000000000E+00 0. -1.
         -1    1    3    3    0  502  0.10257891117E+03 -0.58467675601E+02  0.21715506802E+03  0.24717852996E+03  0.00000000000E+00 0.  1.
         13    1    5    5    0    0  0.66918911542E+01  0.16169009702E+02 -0.37505561293E+02  0.41387019823E+02  0.00000000000E+00 0. -1.
        -13    1    5    5    0    0  0.17792956738E+03  0.19666507903E+03 -0.76240418644E+02  0.27595051313E+03  0.00000000000E+00 0.  1.
          1    1    6    6  503    0 -0.38576199967E+02 -0.21192045678E+02 -0.30835854688E+03  0.31148389917E+03  0.00000000000E+00 0. -1.
         -1    1    6    6    0  503 -0.28265607393E+03 -0.15844830712E+03 -0.10566203822E+04  0.11051909130E+04  0.00000000000E+00 0.  1.
<mgrwt>
<rscale>  0 0.16565734E+04</rscale>
<asrwt>0</asrwt>
<pdfrwt beam="1">  1        2 0.25056835E+00 0.16565734E+04</pdfrwt>
<pdfrwt beam="2">  1       -1 0.64804992E-01 0.16565734E+04</pdfrwt>
<totfact> 0.28222894E+01</totfact>
</mgrwt>
</event>
<event>
12    7  0.1730932E-007  0.2059234E+04  0.7818608E-02  0.8579417E-01
          4   -1    0    0  501    0  0.00000000000E+00  0.00000000000E+00  0.14153710233E+04  0.14153710233E+04  0.00000000000E+00 0. -1.
         -3   -1    0    0    0  501 -0.00000000000E+00 -0.00000000000E+00 -0.74899903527E+03  0.74899903527E+03  0.00000000000E+00 0.  1.
         24    2    1    2    0    0  0.68660215235E+03 -0.45961169573E+03  0.18600219632E+03  0.85113808717E+03  0.84698287649E+02 0.  0.
        254    2    1    2    0    0 -0.68660215235E+03  0.45961169573E+03  0.48036979167E+03  0.13132319714E+04  0.90064290782E+03 0.  0.
         23    2    4    4    0    0 -0.52769354794E+03  0.71588753569E+03  0.26756871752E+03  0.93323993361E+03  0.91587721826E+02 0.  0.
         23    2    4    4    0    0 -0.15890860441E+03 -0.25627583996E+03  0.21280107415E+03  0.37999203776E+03  0.90445568705E+02 0.  0.
          2    1    3    3  502    0  0.49239625651E+03 -0.31451643082E+03  0.93700683636E+02  0.59173852063E+03  0.00000000000E+00 0. -1.
         -1    1    3    3    0  502  0.19420589584E+03 -0.14509526490E+03  0.92301512685E+02  0.25939956654E+03  0.00000000000E+00 0.  1.
         13    1    5    5    0    0 -0.18307955500E+02  0.34835799162E+02  0.32062598605E+02  0.50761445677E+02  0.00000000000E+00 0. -1.
        -13    1    5    5    0    0 -0.50938559244E+03  0.68105173652E+03  0.23550611891E+03  0.88247848793E+03  0.00000000000E+00 0.  1.
          4    1    6    6  503    0 -0.33874988431E+01 -0.31828360150E+01  0.31794542764E+02  0.32132515355E+02  0.00000000000E+00 0. -1.
         -4    1    6    6    0  503 -0.15552110556E+03 -0.25309300395E+03  0.18100653138E+03  0.34785952240E+03  0.00000000000E+00 0.  1.
<mgrwt>
<rscale>  0 0.20592344E+04</rscale>
<asrwt>0</asrwt>
<pdfrwt beam="1">  1        4 0.21774939E+00 0.20592344E+04</pdfrwt>
<pdfrwt beam="2">  1       -3 0.11523062E+00 0.20592344E+04</pdfrwt>
<totfact> 0.13271585E-01</totfact>
</mgrwt>
</event>
<event>
12    7  0.1730932E-007  0.1597953E+04  0.7818608E-02  0.8821807E-01
          2   -1    0    0  501    0  0.00000000000E+00  0.00000000000E+00  0.24779381737E+04  0.24779381737E+04  0.00000000000E+00 0. -1.
         -1   -1    0    0    0  501 -0.00000000000E+00 -0.00000000000E+00 -0.25761872615E+03  0.25761872615E+03  0.00000000000E+00 0.  1.
         24    2    1    2    0    0 -0.10147308488E+03  0.32862123326E+03  0.44960623546E+02  0.35748370322E+03  0.86512649306E+02 0.  0.
        254    2    1    2    0    0  0.10147308488E+03 -0.32862123326E+03  0.21753588240E+04  0.23780731967E+04  0.89708272386E+03 0.  0.
         23    2    4    4    0    0 -0.29038786656E+03  0.75360811795E+02  0.37192723670E+03  0.48658590780E+03  0.91823805577E+02 0.  0.
         23    2    4    4    0    0  0.39186095143E+03 -0.40398204506E+03  0.18034315873E+04  0.18914872889E+04  0.92747914917E+02 0.  0.
          2    1    3    3  502    0 -0.60773214323E+02  0.13253033102E+03  0.57715076549E+02  0.15680785146E+03  0.00000000000E+00 0. -1.
         -1    1    3    3    0  502 -0.40699870552E+02  0.19609090224E+03 -0.12754453002E+02  0.20067585175E+03  0.00000000000E+00 0.  1.
         13    1    5    5    0    0 -0.19603683079E+03  0.51308146189E+01  0.23523862500E+03  0.30625802027E+03  0.00000000000E+00 0.  1.
        -13    1    5    5    0    0 -0.94351035768E+02  0.70229997176E+02  0.13668861170E+03  0.18032788753E+03  0.00000000000E+00 0. -1.
          2    1    6    6  503    0  0.32101132348E+03 -0.33719211813E+03  0.15926868380E+04  0.16593366621E+04  0.00000000000E+00 0. -1.
         -2    1    6    6    0  503  0.70849627957E+02 -0.66789926933E+02  0.21074474936E+03  0.23215062676E+03  0.00000000000E+00 0.  1.
<mgrwt>
<rscale>  0 0.15979528E+04</rscale>
<asrwt>0</asrwt>
<pdfrwt beam="1">  1        2 0.38122124E+00 0.15979528E+04</pdfrwt>
<pdfrwt beam="2">  1       -1 0.39633652E-01 0.15979528E+04</pdfrwt>
<totfact> 0.24304940E+01</totfact>
</mgrwt>
</event>
<event>
12    7  0.1730932E-007  0.2509085E+04  0.7818608E-02  0.8399756E-01
         -1   -1    0    0    0  501 -0.00000000000E+00  0.00000000000E+00  0.15621800625E+04  0.15621800625E+04  0.00000000000E+00 0.  1.
          2   -1    0    0  501    0  0.00000000000E+00 -0.00000000000E+00 -0.10074871531E+04  0.10074871531E+04  0.00000000000E+00 0. -1.
         24    2    1    2    0    0  0.78370974119E+03  0.12952429587E+03  0.10098916635E+04  0.12878036547E+04  0.87060780155E+02 0.  0.
        254    2    1    2    0    0 -0.78370974119E+03 -0.12952429587E+03 -0.45519875400E+03  0.12818635609E+04  0.89721278493E+03 0.  0.
         23    2    4    4    0    0  0.15555176441E+02  0.28138672254E+03 -0.85267905660E+02  0.30553335833E+03  0.81606165078E+02 0.  0.
         23    2    4    4    0    0 -0.79926491763E+03 -0.41091101841E+03 -0.36993084834E+03  0.97633020257E+03  0.93271422647E+02 0.  0.
          4    1    3    3  502    0  0.87416441027E+02  0.98079927184E+01  0.16013797569E+03  0.18270742224E+03  0.00000000000E+00 0. -1.
         -3    1    3    3    0  502  0.69629330016E+03  0.11971630315E+03  0.84975368780E+03  0.11050962325E+04  0.00000000000E+00 0.  1.
         13    1    5    5    0    0  0.21837834823E+02  0.16792293778E+03 -0.90057076707E+02  0.19179489338E+03  0.00000000000E+00 0. -1.
        -13    1    5    5    0    0 -0.62826583820E+01  0.11346378476E+03  0.47891710476E+01  0.11373846495E+03  0.00000000000E+00 0.  1.
          3    1    6    6  503    0 -0.38525064234E+03 -0.24408282934E+03 -0.16279992968E+03  0.48425024740E+03  0.00000000000E+00 0. -1.
         -3    1    6    6    0  503 -0.41401427529E+03 -0.16682818907E+03 -0.20713091866E+03  0.49207995517E+03  0.00000000000E+00 0.  1.
<mgrwt>
<rscale>  0 0.25090846E+04</rscale>
<asrwt>0</asrwt>
<pdfrwt beam="1">  1        2 0.15499802E+00 0.25090846E+04</pdfrwt>
<pdfrwt beam="2">  1       -1 0.24033540E+00 0.25090846E+04</pdfrwt>
<totfact> 0.20415704E+00</totfact>
</mgrwt>
</event>
<event>
12    7  0.1730932E-007  0.2003676E+04  0.7818608E-02  0.8604904E-01
         -1   -1    0    0    0  501 -0.00000000000E+00  0.00000000000E+00  0.72787606454E+03  0.72787606454E+03  0.00000000000E+00 0.  1.
          2   -1    0    0  501    0  0.00000000000E+00 -0.00000000000E+00 -0.13789149357E+04  0.13789149357E+04  0.00000000000E+00 0. -1.
         24    2    1    2    0    0 -0.32834760685E+02  0.69750124649E+03 -0.64992280020E+03  0.95728682923E+03  0.80076943243E+02 0.  0.
        254    2    1    2    0    0  0.32834760685E+02 -0.69750124649E+03 -0.11160709325E+01  0.11495041710E+04  0.91311142976E+03 0.  0.
         23    2    4    4    0    0  0.51764602503E+02 -0.89347495873E+03 -0.11168903252E+03  0.90576500236E+03  0.83418964069E+02 0.  0.
         23    2    4    4    0    0 -0.18929841818E+02  0.19597371224E+03  0.11057296159E+03  0.24373916863E+03  0.91751663143E+02 0.  0.
          2    1    3    3  502    0  0.16309236492E+02  0.12570511032E+03 -0.89755758480E+02  0.15531858271E+03  0.00000000000E+00 0. -1.
         -1    1    3    3    0  502 -0.49143997177E+02  0.57179613616E+03 -0.56016704172E+03  0.80196824652E+03  0.00000000000E+00 0.  1.
         13    1    5    5    0    0  0.23320537854E+01 -0.53004552484E+03 -0.95849983244E+02  0.53864730220E+03  0.00000000000E+00 0.  1.
        -13    1    5    5    0    0  0.49432548718E+02 -0.36342943389E+03 -0.15839049274E+02  0.36711770016E+03  0.00000000000E+00 0. -1.
          2    1    6    6  503    0 -0.59664240683E+01  0.20103893573E+03  0.93745866192E+02  0.22190209401E+03  0.00000000000E+00 0. -1.
         -2    1    6    6    0  503 -0.12963417749E+02 -0.50652234896E+01  0.16827095393E+02  0.21837074624E+02  0.00000000000E+00 0.  1.
<mgrwt>
<rscale>  0 0.20036758E+04</rscale>
<asrwt>0</asrwt>
<pdfrwt beam="1">  1        2 0.21214076E+00 0.20036758E+04</pdfrwt>
<pdfrwt beam="2">  1       -1 0.11198093E+00 0.20036758E+04</pdfrwt>
<totfact> 0.11522020E+01</totfact>
</mgrwt>
</event>
<event>
12    7  0.1730932E-007  0.1639129E+04  0.7818608E-02  0.8796864E-01
          2   -1    0    0  501    0  0.00000000000E+00  0.00000000000E+00  0.22109294143E+04  0.22109294143E+04  0.00000000000E+00 0. -1.
         -1   -1    0    0    0  501 -0.00000000000E+00 -0.00000000000E+00 -0.30380237443E+03  0.30380237443E+03  0.00000000000E+00 0.  1.
         24    2    1    2    0    0 -0.25013700784E+03  0.30754505851E+03  0.29431632609E+02  0.40535094577E+03  0.79313823114E+02 0.  0.
        254    2    1    2    0    0  0.25013700784E+03 -0.30754505851E+03  0.18776954073E+04  0.21093808430E+04  0.87555411739E+03 0.  0.
         23    2    4    4    0    0  0.15168710218E+03  0.29457207247E+03  0.66682912229E+03  0.75038983302E+03  0.92963112721E+02 0.  0.
         23    2    4    4    0    0  0.98449905657E+02 -0.60211713097E+03  0.12108662850E+04  0.13589910100E+04  0.91771355341E+02 0.  0.
          4    1    3    3  502    0 -0.11544546039E+02  0.10119762945E+02  0.18305088371E+02  0.23890634265E+02  0.00000000000E+00 0. -1.
         -3    1    3    3    0  502 -0.23859246180E+03  0.29742529556E+03  0.11126544238E+02  0.38146031150E+03  0.00000000000E+00 0.  1.
         13    1    5    5    0    0  0.11436597884E+03  0.19004620543E+03  0.34682997006E+03  0.41168940410E+03  0.00000000000E+00 0.  1.
        -13    1    5    5    0    0  0.37321123335E+02  0.10452586704E+03  0.31999915222E+03  0.33870042892E+03  0.00000000000E+00 0. -1.
          2    1    6    6  503    0 -0.32778992778E+01 -0.77298138441E+02  0.21850697524E+03  0.23179957950E+03  0.00000000000E+00 0. -1.
         -2    1    6    6    0  503  0.10172780493E+03 -0.52481899253E+03  0.99235930976E+03  0.11271914305E+04  0.00000000000E+00 0.  1.
<mgrwt>
<rscale>  0 0.16391286E+04</rscale>
<asrwt>0</asrwt>
<pdfrwt beam="1">  1        2 0.34014298E+00 0.16391286E+04</pdfrwt>
<pdfrwt beam="2">  1       -1 0.46738828E-01 0.16391286E+04</pdfrwt>
<totfact> 0.25301782E+01</totfact>
</mgrwt>
</event>
<event>
12    7  0.1730932E-007  0.3320271E+04  0.7818608E-02  0.8157757E-01
         -1   -1    0    0    0  501 -0.00000000000E+00  0.00000000000E+00  0.10012768100E+04  0.10012768100E+04  0.00000000000E+00 0.  1.
          2   -1    0    0  501    0  0.00000000000E+00 -0.00000000000E+00 -0.27525353814E+04  0.27525353814E+04  0.00000000000E+00 0. -1.
         24    2    1    2    0    0  0.27788895156E+03  0.11299033366E+04 -0.19353006167E+04  0.22595882932E+04  0.80292953618E+02 0.  0.
        254    2    1    2    0    0 -0.27788895156E+03 -0.11299033366E+04  0.18404204522E+03  0.14942238982E+04  0.91920061156E+03 0.  0.
         23    2    4    4    0    0 -0.42988980348E+03 -0.74888898086E+03 -0.23605237656E+03  0.89970836476E+03  0.90080343799E+02 0.  0.
         23    2    4    4    0    0  0.15200085192E+03 -0.38101435569E+03  0.42009442178E+03  0.59451553348E+03  0.93237321407E+02 0.  0.
          2    1    3    3  502    0  0.21954646844E+03  0.89632602171E+03 -0.15952534295E+04  0.18429418041E+04  0.00000000000E+00 0. -1.
         -1    1    3    3    0  502  0.58342483112E+02  0.23357731485E+03 -0.34004718717E+03  0.41664648907E+03  0.00000000000E+00 0.  1.
         13    1    5    5    0    0 -0.25236917771E+02 -0.18655109895E+02  0.23740193217E+01  0.31473021964E+02  0.00000000000E+00 0.  1.
        -13    1    5    5    0    0 -0.40465288571E+03 -0.73023387097E+03 -0.23842639589E+03  0.86823534279E+03  0.00000000000E+00 0. -1.
          1    1    6    6  503    0  0.13996621957E+03 -0.28594085657E+03  0.36356974547E+03  0.48325529061E+03  0.00000000000E+00 0. -1.
         -1    1    6    6    0  503  0.12034632350E+02 -0.95073499123E+02  0.56524676309E+02  0.11126024287E+03  0.00000000000E+00 0.  1.
<mgrwt>
<rscale>  0 0.33202710E+04</rscale>
<asrwt>0</asrwt>
<pdfrwt beam="1">  1        2 0.42346698E+00 0.33202710E+04</pdfrwt>
<pdfrwt beam="2">  1       -1 0.15404259E+00 0.33202710E+04</pdfrwt>
<totfact> 0.75913594E-01</totfact>
</mgrwt>
</event>
<event>
12    7  0.1730932E-007  0.1954099E+04  0.7818608E-02  0.8628387E-01
          2   -1    0    0  501    0  0.00000000000E+00  0.00000000000E+00  0.14142220820E+04  0.14142220820E+04  0.00000000000E+00 0. -1.
         -1   -1    0    0    0  501 -0.00000000000E+00 -0.00000000000E+00 -0.67501815505E+03  0.67501815505E+03  0.00000000000E+00 0.  1.
         24    2    1    2    0    0 -0.66774340384E+03 -0.30521107327E+03  0.33652097966E+02  0.73910444845E+03  0.78152859176E+02 0.  0.
        254    2    1    2    0    0  0.66774340384E+03  0.30521107327E+03  0.70555182898E+03  0.13501357886E+04  0.88658232086E+03 0.  0.
         23    2    4    4    0    0 -0.10539608853E+03  0.23918186339E+03  0.44920736512E+03  0.52789735846E+03  0.92585446674E+02 0.  0.
         23    2    4    4    0    0  0.77313949237E+03  0.66029209878E+02  0.25634446386E+03  0.82223843014E+03  0.90879154009E+02 0.  0.
          4    1    3    3  502    0 -0.97403742076E+02 -0.69701237213E+02 -0.11961778961E+02  0.12036957919E+03  0.00000000000E+00 0. -1.
         -1    1    3    3    0  502 -0.57033966176E+03 -0.23550983606E+03  0.45613876927E+02  0.61873486925E+03  0.00000000000E+00 0.  1.
         13    1    5    5    0    0  0.14061434057E+02  0.47001206935E+02  0.58051855510E+02  0.76005626827E+02  0.00000000000E+00 0.  1.
        -13    1    5    5    0    0 -0.11945752259E+03  0.19218065646E+03  0.39115550961E+03  0.45189173163E+03  0.00000000000E+00 0. -1.
          2    1    6    6  503    0  0.56518340209E+03  0.57617817529E+02  0.22814351126E+03  0.61221038265E+03  0.00000000000E+00 0. -1.
         -2    1    6    6    0  503  0.20795609028E+03  0.84113923497E+01  0.28200952596E+02  0.21002804749E+03  0.00000000000E+00 0.  1.
<mgrwt>
<rscale>  0 0.19540989E+04</rscale>
<asrwt>0</asrwt>
<pdfrwt beam="1">  1        2 0.21757263E+00 0.19540989E+04</pdfrwt>
<pdfrwt beam="2">  1       -1 0.10384895E+00 0.19540989E+04</pdfrwt>
<totfact> 0.13183581E+01</totfact>
</mgrwt>
</event>
<event>
12    7  0.1730932E-007  0.1685754E+04  0.7818608E-02  0.8769531E-01
          2   -1    0    0  501    0  0.00000000000E+00  0.00000000000E+00  0.11108613439E+04  0.11108613439E+04  0.00000000000E+00 0. -1.
         -1   -1    0    0    0  501 -0.00000000000E+00 -0.00000000000E+00 -0.63954153975E+03  0.63954153975E+03  0.00000000000E+00 0.  1.
         24    2    1    2    0    0  0.26061948990E+03 -0.54087151342E+03  0.24803575950E+03  0.65444531434E+03  0.79450732712E+02 0.  0.
        254    2    1    2    0    0 -0.26061948990E+03  0.54087151342E+03  0.22328404468E+03  0.10959575693E+04  0.88927089048E+03 0.  0.
         23    2    4    4    0    0  0.28943778953E+03  0.32399193836E+02 -0.12675962757E+02  0.30553080321E+03  0.91457366617E+02 0.  0.
         23    2    4    4    0    0 -0.55005727943E+03  0.50847231958E+03  0.23596000744E+03  0.79042676613E+03  0.89388126008E+02 0.  0.
          4    1    3    3  502    0  0.23138955976E+03 -0.51453547332E+03  0.24472494498E+03  0.61496193408E+03  0.00000000000E+00 0. -1.
         -3    1    3    3    0  502  0.29229930140E+02 -0.26336040104E+02  0.33108145145E+01  0.39483380265E+02  0.00000000000E+00 0.  1.
         13    1    5    5    0    0  0.54981376944E+02  0.29556493284E+02  0.26486589901E+02  0.67809125864E+02  0.00000000000E+00 0. -1.
        -13    1    5    5    0    0  0.23445641259E+03  0.28427005527E+01 -0.39162552657E+02  0.23772167735E+03  0.00000000000E+00 0.  1.
          3    1    6    6  503    0 -0.41044215706E+03  0.32715378528E+03  0.14892493834E+03  0.54559233936E+03  0.00000000000E+00 0. -1.
         -3    1    6    6    0  503 -0.13961512237E+03  0.18131853431E+03  0.87035069105E+02  0.24483442677E+03  0.00000000000E+00 0.  1.
<mgrwt>
<rscale>  0 0.16857544E+04</rscale>
<asrwt>0</asrwt>
<pdfrwt beam="1">  1        2 0.17090175E+00 0.16857544E+04</pdfrwt>
<pdfrwt beam="2">  1       -1 0.98391006E-01 0.16857544E+04</pdfrwt>
<totfact> 0.23057332E+01</totfact>
</mgrwt>
</event>
<event>
12    7  0.1730932E-007  0.1377776E+04  0.7818608E-02  0.8970064E-01
         -1   -1    0    0    0  501 -0.00000000000E+00  0.00000000000E+00  0.30949845357E+03  0.30949845357E+03  0.00000000000E+00 0.  1.
          2   -1    0    0  501    0  0.00000000000E+00 -0.00000000000E+00 -0.15333410049E+04  0.15333410049E+04  0.00000000000E+00 0. -1.
         24    2    1    2    0    0  0.89579467490E+02  0.27370838120E+03  0.50153874343E+01  0.29819536816E+03  0.77165824973E+02 0.  0.
        254    2    1    2    0    0 -0.89579467490E+02 -0.27370838120E+03 -0.12288579387E+04  0.15446440903E+04  0.89044526677E+03 0.  0.
         23    2    4    4    0    0  0.61971256108E+02 -0.50016229416E+03 -0.35366633748E+03  0.62344978122E+03  0.98015276142E+02 0.  0.
         23    2    4    4    0    0 -0.15155072360E+03  0.22645391295E+03 -0.87519160126E+03  0.92119430907E+03  0.91594866787E+02 0.  0.
          2    1    3    3  502    0 -0.38908096531E+01  0.96398676178E+02 -0.11083924421E+02  0.97111773484E+02  0.00000000000E+00 0. -1.
         -1    1    3    3    0  502  0.93470277143E+02  0.17730970503E+03  0.16099311855E+02  0.20108359468E+03  0.00000000000E+00 0.  1.
         13    1    5    5    0    0  0.24056227332E+02 -0.41412391247E+03 -0.25388003254E+03  0.48634595493E+03  0.00000000000E+00 0.  1.
        -13    1    5    5    0    0  0.37915028776E+02 -0.86038381689E+02 -0.99786304938E+02  0.13710382629E+03  0.00000000000E+00 0. -1.
          1    1    6    6  503    0 -0.93364226960E+02  0.14692133692E+03 -0.40565623288E+03  0.44142919861E+03  0.00000000000E+00 0. -1.
         -1    1    6    6    0  503 -0.58186496637E+02  0.79532576034E+02 -0.46953536839E+03  0.47976511045E+03  0.00000000000E+00 0.  1.
<mgrwt>
<rscale>  0 0.13777760E+04</rscale>
<asrwt>0</asrwt>
<pdfrwt beam="1">  1        2 0.23589862E+00 0.13777760E+04</pdfrwt>
<pdfrwt beam="2">  1       -1 0.47615146E-01 0.13777760E+04</pdfrwt>
<totfact> 0.59455935E+01</totfact>
</mgrwt>
</event>
<event>
12    7  0.1730932E-007  0.1948795E+04  0.7818608E-02  0.8630942E-01
         -1   -1    0    0    0  501 -0.00000000000E+00  0.00000000000E+00  0.39438288490E+03  0.39438288490E+03  0.00000000000E+00 0.  1.
          2   -1    0    0  501    0  0.00000000000E+00 -0.00000000000E+00 -0.24074332034E+04  0.24074332034E+04  0.00000000000E+00 0. -1.
         24    2    1    2    0    0 -0.44190285747E+03  0.18776861967E+03 -0.16533835170E+04  0.17241297249E+04  0.91711853221E+02 0.  0.
        254    2    1    2    0    0  0.44190285747E+03 -0.18776861967E+03 -0.35966680148E+03  0.10776863634E+04  0.89527230481E+03 0.  0.
         23    2    4    4    0    0 -0.23418975219E+03 -0.21858280585E+03 -0.99701880149E+02  0.34676111425E+03  0.87632884280E+02 0.  0.
         23    2    4    4    0    0  0.67609260966E+03  0.30814186185E+02 -0.25996492134E+03  0.73092524913E+03  0.92839800610E+02 0.  0.
          4    1    3    3  502    0 -0.34365814341E+03  0.12348656480E+03 -0.13587561531E+04  0.14069712630E+04  0.00000000000E+00 0. -1.
         -3    1    3    3    0  502 -0.98244714062E+02  0.64282054865E+02 -0.29462736391E+03  0.31715846194E+03  0.00000000000E+00 0.  1.
         13    1    5    5    0    0 -0.67448614390E+02 -0.25674190742E+02 -0.47758632846E+02  0.86541127013E+02  0.00000000000E+00 0. -1.
        -13    1    5    5    0    0 -0.16674113780E+03 -0.19290861511E+03 -0.51943247303E+02  0.26021998724E+03  0.00000000000E+00 0.  1.
          3    1    6    6  503    0  0.18409900162E+02  0.17307707559E+02 -0.80849728879E+01  0.26530132897E+02  0.00000000000E+00 0. -1.
         -3    1    6    6    0  503  0.65768270950E+03  0.13506478626E+02 -0.25187994845E+03  0.70439511623E+03  0.00000000000E+00 0.  1.
<mgrwt>
<rscale>  0 0.19487950E+04</rscale>
<asrwt>0</asrwt>
<pdfrwt beam="1">  1        2 0.37037434E+00 0.19487950E+04</pdfrwt>
<pdfrwt beam="2">  1       -1 0.60674289E-01 0.19487950E+04</pdfrwt>
<totfact> 0.11522572E+01</totfact>
</mgrwt>
</event>
<event>
12    7  0.1730932E-007  0.2035934E+04  0.7818608E-02  0.8590002E-01
         -1   -1    0    0    0  501 -0.00000000000E+00  0.00000000000E+00  0.67580159530E+03  0.67580159530E+03  0.00000000000E+00 0.  1.
          2   -1    0    0  501    0  0.00000000000E+00 -0.00000000000E+00 -0.15333750169E+04  0.15333750169E+04  0.00000000000E+00 0. -1.
         24    2    1    2    0    0 -0.25892702612E+03 -0.66697869529E+03 -0.77967951342E+03  0.10612649245E+04  0.80494170827E+02 0.  0.
        254    2    1    2    0    0  0.25892702612E+03  0.66697869529E+03 -0.77893908218E+02  0.11479116877E+04  0.89427624203E+03 0.  0.
         23    2    4    4    0    0  0.65997391629E+02 -0.18466838023E+03 -0.15427070753E+03  0.26668405870E+03  0.94142814939E+02 0.  0.
         23    2    4    4    0    0  0.19292963449E+03  0.85164707552E+03  0.76376799309E+02  0.88122762902E+03  0.90576672342E+02 0.  0.
          2    1    3    3  502    0 -0.23766910774E+03 -0.58778897096E+03 -0.72282944924E+03  0.96149097336E+03  0.00000000000E+00 0. -1.
         -1    1    3    3    0  502 -0.21257918384E+02 -0.79189724326E+02 -0.56850064183E+02  0.99773951162E+02  0.00000000000E+00 0.  1.
         13    1    5    5    0    0  0.42483762788E+02 -0.36807679546E+02 -0.84543720341E+02  0.10152495271E+03  0.00000000000E+00 0. -1.
        -13    1    5    5    0    0  0.23513628841E+02 -0.14786070069E+03 -0.69726987186E+02  0.16515910599E+03  0.00000000000E+00 0.  1.
          2    1    6    6  503    0  0.42124097850E+02  0.13459817228E+03 -0.19003187713E+02  0.14231032550E+03  0.00000000000E+00 0.  1.
         -2    1    6    6    0  503  0.15080553664E+03  0.71704890324E+03  0.95379987023E+02  0.73891730352E+03  0.00000000000E+00 0. -1.
<mgrwt>
<rscale>  0 0.20359345E+04</rscale>
<asrwt>0</asrwt>
<pdfrwt beam="1">  1        2 0.23590385E+00 0.20359345E+04</pdfrwt>
<pdfrwt beam="2">  1       -1 0.10396948E+00 0.20359345E+04</pdfrwt>
<totfact> 0.11175411E+01</totfact>
</mgrwt>
</event>
<event>
12    7  0.1730932E-007  0.1387653E+04  0.7818608E-02  0.8962805E-01
         -1   -1    0    0    0  501 -0.00000000000E+00  0.00000000000E+00  0.17680753291E+03  0.17680753291E+03  0.00000000000E+00 0.  1.
          2   -1    0    0  501    0  0.00000000000E+00 -0.00000000000E+00 -0.27227064102E+04  0.27227064102E+04  0.00000000000E+00 0. -1.
         24    2    1    2    0    0  0.21845126562E+03  0.90571812484E+02 -0.80983762079E+02  0.26253005799E+03  0.80246202173E+02 0.  0.
        254    2    1    2    0    0 -0.21845126562E+03 -0.90571812484E+02 -0.24649151152E+04  0.26369838851E+04  0.90661638881E+03 0.  0.
         23    2    4    4    0    0  0.62201013750E+01 -0.44548910440E+03 -0.16951198482E+04  0.17552118866E+04  0.94011888162E+02 0.  0.
         23    2    4    4    0    0 -0.22467136699E+03  0.35491729191E+03 -0.76979526697E+03  0.88177199852E+03  0.92160713352E+02 0.  0.
          2    1    3    3  502    0  0.10277667351E+03  0.38964479828E+02 -0.79854695300E+02  0.13586039771E+03  0.00000000000E+00 0. -1.
         -1    1    3    3    0  502  0.11567459211E+03  0.51607332656E+02 -0.11290667794E+01  0.12666966028E+03  0.00000000000E+00 0.  1.
         13    1    5    5    0    0 -0.21187109198E+02 -0.26279461603E+03 -0.11427060523E+04  0.11727263218E+04  0.00000000000E+00 0.  1.
        -13    1    5    5    0    0  0.27407210573E+02 -0.18269448837E+03 -0.55241379590E+03  0.58248556477E+03  0.00000000000E+00 0. -1.
          1    1    6    6  503    0 -0.23373422256E+03  0.34292533938E+03 -0.74199562073E+03  0.85016879287E+03  0.00000000000E+00 0. -1.
         -1    1    6    6    0  503  0.90628555683E+01  0.11991952533E+02 -0.27799646238E+02  0.31603205653E+02  0.00000000000E+00 0.  1.
<mgrwt>
<rscale>  0 0.13876527E+04</rscale>
<asrwt>0</asrwt>
<pdfrwt beam="1">  1        2 0.41887791E+00 0.13876527E+04</pdfrwt>
<pdfrwt beam="2">  1       -1 0.27201159E-01 0.13876527E+04</pdfrwt>
<totfact> 0.34783395E+01</totfact>
</mgrwt>
</event>
<event>
12    7  0.1730932E-007  0.1386751E+04  0.7818608E-02  0.8963465E-01
          2   -1    0    0  501    0  0.00000000000E+00  0.00000000000E+00  0.12757776093E+04  0.12757776093E+04  0.00000000000E+00 0. -1.
         -1   -1    0    0    0  501 -0.00000000000E+00 -0.00000000000E+00 -0.37684420652E+03  0.37684420652E+03  0.00000000000E+00 0.  1.
         24    2    1    2    0    0  0.32722143689E+02 -0.27892979213E+03  0.58360782871E+03  0.65292107883E+03  0.82675690637E+02 0.  0.
        254    2    1    2    0    0 -0.32722143689E+02  0.27892979213E+03  0.31532557410E+03  0.99970073702E+03  0.90614500953E+03 0.  0.
         23    2    4    4    0    0 -0.28165211814E+03 -0.22269352655E+03  0.19915188479E+03  0.42051991035E+03  0.90858127665E+02 0.  0.
         23    2    4    4    0    0  0.24892997446E+03  0.50162331868E+03  0.11617368931E+03  0.57918082667E+03  0.91444069629E+02 0.  0.
          4    1    3    3  502    0  0.34316786045E+02 -0.10457208059E+03  0.30498859912E+03  0.32423912077E+03  0.00000000000E+00 0. -1.
         -3    1    3    3    0  502 -0.15946423564E+01 -0.17435771153E+03  0.27861922959E+03  0.32868195806E+03  0.00000000000E+00 0.  1.
         13    1    5    5    0    0 -0.54643854947E+01 -0.21638525990E+02  0.34999505598E+02  0.41509645962E+02  0.00000000000E+00 0. -1.
        -13    1    5    5    0    0 -0.27618773265E+03 -0.20105500056E+03  0.16415237919E+03  0.37901026439E+03  0.00000000000E+00 0.  1.
          3    1    6    6  503    0  0.21666473708E+03  0.47270903836E+03  0.87712205391E+02  0.52734322241E+03  0.00000000000E+00 0. -1.
         -3    1    6    6    0  503  0.32265237373E+02  0.28914280317E+02  0.28461483918E+02  0.51837604264E+02  0.00000000000E+00 0.  1.
<mgrwt>
<rscale>  0 0.13867507E+04</rscale>
<asrwt>0</asrwt>
<pdfrwt beam="1">  1        2 0.19627348E+00 0.13867507E+04</pdfrwt>
<pdfrwt beam="2">  1       -1 0.57976032E-01 0.13867507E+04</pdfrwt>
<totfact> 0.57170042E+01</totfact>
</mgrwt>
</event>
<event>
12    7  0.1730932E-007  0.1382564E+04  0.7818608E-02  0.8966537E-01
          2   -1    0    0  501    0  0.00000000000E+00  0.00000000000E+00  0.13429610853E+04  0.13429610853E+04  0.00000000000E+00 0. -1.
         -1   -1    0    0    0  501 -0.00000000000E+00 -0.00000000000E+00 -0.35583348546E+03  0.35583348546E+03  0.00000000000E+00 0.  1.
         24    2    1    2    0    0 -0.36982047181E+03 -0.25372128412E+03  0.42945885713E+03  0.62599679158E+03  0.79343567581E+02 0.  0.
        254    2    1    2    0    0  0.36982047181E+03  0.25372128412E+03  0.55766874276E+03  0.10727977792E+04  0.79922398429E+03 0.  0.
         23    2    4    4    0    0  0.25122804550E+03  0.42048635735E+03  0.65837070271E+03  0.82560586774E+03  0.90822679373E+02 0.  0.
         23    2    4    4    0    0  0.11859242632E+03 -0.16676507323E+03 -0.10070195995E+03  0.24719191149E+03  0.95332067738E+02 0.  0.
          4    1    3    3  502    0 -0.11360874201E+03 -0.44127686187E+02  0.14609163659E+03  0.19025500054E+03  0.00000000000E+00 0. -1.
         -3    1    3    3    0  502 -0.25621172980E+03 -0.20959359794E+03  0.28336722054E+03  0.43574179104E+03  0.00000000000E+00 0.  1.
         13    1    5    5    0    0  0.60060312205E+02  0.46000868769E+02  0.12934874299E+03  0.14984798412E+03  0.00000000000E+00 0.  1.
        -13    1    5    5    0    0  0.19116773329E+03  0.37448548858E+03  0.52902195972E+03  0.67575788362E+03  0.00000000000E+00 0. -1.
          4    1    6    6  503    0  0.11068107401E+03 -0.15672676717E+03 -0.54796035651E+02  0.19953993388E+03  0.00000000000E+00 0. -1.
         -4    1    6    6    0  503  0.79113523097E+01 -0.10038306056E+02 -0.45905924300E+02  0.47651977605E+02  0.00000000000E+00 0.  1.
<mgrwt>
<rscale>  0 0.13825636E+04</rscale>
<asrwt>0</asrwt>
<pdfrwt beam="1">  1        2 0.20660939E+00 0.13825636E+04</pdfrwt>
<pdfrwt beam="2">  1       -1 0.54743614E-01 0.13825636E+04</pdfrwt>
<totfact> 0.58443553E+01</totfact>
</mgrwt>
</event>
<event>
12    7  0.1730932E-007  0.1429710E+04  0.7818608E-02  0.8932589E-01
          2   -1    0    0  501    0  0.00000000000E+00  0.00000000000E+00  0.28395637231E+04  0.28395637231E+04  0.00000000000E+00 0. -1.
         -1   -1    0    0    0  501 -0.00000000000E+00 -0.00000000000E+00 -0.17996344531E+03  0.17996344531E+03  0.00000000000E+00 0.  1.
         24    2    1    2    0    0  0.33460665089E+03 -0.66680098450E+01  0.24786382347E+03  0.42584803694E+03  0.88904456578E+02 0.  0.
        254    2    1    2    0    0 -0.33460665089E+03  0.66680098450E+01  0.24117364543E+04  0.25936791315E+04  0.89369605506E+03 0.  0.
         23    2    4    4    0    0 -0.20609595478E+03  0.42562768536E+03  0.15397229965E+04  0.16132659817E+04  0.90806127004E+02 0.  0.
         23    2    4    4    0    0 -0.12851069611E+03 -0.41895967551E+03  0.87201345784E+03  0.98041314978E+03  0.93596286747E+02 0.  0.
          4    1    3    3  502    0  0.25204245031E+03 -0.89232825238E+01  0.23003239102E+03  0.34135014669E+03  0.00000000000E+00 0. -1.
         -3    1    3    3    0  502  0.82564200581E+02  0.22552726788E+01  0.17831432459E+02  0.84497890246E+02  0.00000000000E+00 0.  1.
         13    1    5    5    0    0 -0.81477522784E+02  0.26623506569E+03  0.84571873160E+03  0.89037063626E+03  0.00000000000E+00 0. -1.
        -13    1    5    5    0    0 -0.12461843200E+03  0.15939261967E+03  0.69400426488E+03  0.72289534545E+03  0.00000000000E+00 0.  1.
          1    1    6    6  503    0 -0.29408726099E+02 -0.57935451908E+02  0.21060652930E+03  0.22040077119E+03  0.00000000000E+00 0. -1.
         -1    1    6    6    0  503 -0.99101970010E+02 -0.36102422361E+03  0.66140692854E+03  0.76001237859E+03  0.00000000000E+00 0.  1.
<mgrwt>
<rscale>  0 0.14297100E+04</rscale>
<asrwt>0</asrwt>
<pdfrwt beam="1">  1        2 0.43685593E+00 0.14297100E+04</pdfrwt>
<pdfrwt beam="2">  1       -1 0.27686686E-01 0.14297100E+04</pdfrwt>
<totfact> 0.28602854E+01</totfact>
</mgrwt>
</event>
<event>
12    7  0.1730932E-007  0.1187595E+04  0.7818608E-02  0.9123785E-01
          4   -1    0    0  501    0  0.00000000000E+00  0.00000000000E+00  0.83883556522E+03  0.83883556522E+03  0.00000000000E+00 0. -1.
         -1   -1    0    0    0  501 -0.00000000000E+00 -0.00000000000E+00 -0.42033911634E+03  0.42033911634E+03  0.00000000000E+00 0.  1.
         24    2    1    2    0    0 -0.21605953425E+03 -0.72637217805E+01 -0.65317130042E+01  0.23017179869E+03  0.78752204051E+02 0.  0.
        254    2    1    2    0    0  0.21605953425E+03  0.72637217805E+01  0.42502816188E+03  0.10290028829E+04  0.91184620993E+03 0.  0.
         23    2    4    4    0    0  0.62603191489E+02 -0.24379405796E+03  0.61123684877E+03  0.66889492515E+03  0.10225083533E+03 0.  0.
         23    2    4    4    0    0  0.15345634276E+03  0.25105777974E+03 -0.18620868689E+03  0.36010795771E+03  0.91788933056E+02 0.  0.
          4    1    3    3  502    0 -0.27145260757E+01 -0.14697601982E+02  0.65032839236E+01  0.16299719557E+02  0.00000000000E+00 0. -1.
         -3    1    3    3    0  502 -0.21334500818E+03  0.74338802013E+01 -0.13034996928E+02  0.21387207914E+03  0.00000000000E+00 0.  1.
         13    1    5    5    0    0  0.46307262346E+02 -0.41568713543E+02  0.88670813003E+02  0.10832743683E+03  0.00000000000E+00 0.  1.
        -13    1    5    5    0    0  0.16295929143E+02 -0.20222534442E+03  0.52256603577E+03  0.56056748832E+03  0.00000000000E+00 0. -1.
          3    1    6    6  503    0  0.14641721420E+03  0.21323046626E+03 -0.12372644987E+03  0.28672890812E+03  0.00000000000E+00 0. -1.
         -3    1    6    6    0  503  0.70391285682E+01  0.37827313484E+02 -0.62482237020E+02  0.73379049595E+02  0.00000000000E+00 0.  1.
<mgrwt>
<rscale>  0 0.11875949E+04</rscale>
<asrwt>0</asrwt>
<pdfrwt beam="1">  1        4 0.12905162E+00 0.11875949E+04</pdfrwt>
<pdfrwt beam="2">  1       -1 0.64667557E-01 0.11875949E+04</pdfrwt>
<totfact> 0.43328885E+00</totfact>
</mgrwt>
</event>
<event>
12    7  0.1730932E-007  0.1133701E+04  0.7818608E-02  0.9172953E-01
         -1   -1    0    0    0  501 -0.00000000000E+00  0.00000000000E+00  0.11501310992E+03  0.11501310992E+03  0.00000000000E+00 0.  1.
          2   -1    0    0  501    0  0.00000000000E+00 -0.00000000000E+00 -0.27937655780E+04  0.27937655780E+04  0.00000000000E+00 0. -1.
         24    2    1    2    0    0  0.85882062941E+02 -0.14971069150E+03 -0.74171485267E+03  0.76621026261E+03  0.84547170135E+02 0.  0.
        254    2    1    2    0    0 -0.85882062941E+02  0.14971069150E+03 -0.19370376154E+04  0.21425684253E+04  0.89927510460E+03 0.  0.
         23    2    4    4    0    0  0.14828604026E+03  0.47364575458E+03 -0.10984916962E+04  0.12089080313E+04  0.91899788320E+02 0.  0.
         23    2    4    4    0    0 -0.23416810321E+03 -0.32393506307E+03 -0.83854591923E+03  0.93366039397E+03  0.93775513709E+02 0.  0.
          4    1    3    3  502    0  0.51585562407E+02 -0.14702975604E+03 -0.56029712004E+03  0.58155969783E+03  0.00000000000E+00 0. -1.
         -3    1    3    3    0  502  0.34296500534E+02 -0.26809354623E+01 -0.18141773262E+03  0.18465056478E+03  0.00000000000E+00 0.  1.
         13    1    5    5    0    0  0.14293601120E+03  0.39502652374E+03 -0.98397066066E+03  0.10698948167E+04  0.00000000000E+00 0. -1.
        -13    1    5    5    0    0  0.53500290640E+01  0.78619230832E+02 -0.11452103551E+03  0.13901321463E+03  0.00000000000E+00 0.  1.
          4    1    6    6  503    0 -0.16740184911E+03 -0.16384154966E+03 -0.42643648994E+03  0.48653418424E+03  0.00000000000E+00 0. -1.
         -4    1    6    6    0  503 -0.66766254098E+02 -0.16009351342E+03 -0.41210942929E+03  0.44712620974E+03  0.00000000000E+00 0.  1.
<mgrwt>
<rscale>  0 0.11337013E+04</rscale>
<asrwt>0</asrwt>
<pdfrwt beam="1">  1        2 0.42981011E+00 0.11337013E+04</pdfrwt>
<pdfrwt beam="2">  1       -1 0.17694324E-01 0.11337013E+04</pdfrwt>
<totfact> 0.66900998E+01</totfact>
</mgrwt>
</event>
<event>
12    7  0.1730932E-007  0.3020407E+04  0.7818608E-02  0.8237927E-01
          2   -1    0    0  501    0  0.00000000000E+00  0.00000000000E+00  0.10864140441E+04  0.10864140441E+04  0.00000000000E+00 0. -1.
         -1   -1    0    0    0  501 -0.00000000000E+00 -0.00000000000E+00 -0.20993054989E+04  0.20993054989E+04  0.00000000000E+00 0.  1.
         24    2    1    2    0    0 -0.62902872089E+03  0.68749606005E+03 -0.15186167305E+04  0.17834411573E+04  0.78342983077E+02 0.  0.
        254    2    1    2    0    0  0.62902872089E+03 -0.68749606005E+03  0.50572527566E+03  0.14022783858E+04  0.91776829998E+03 0.  0.
         23    2    4    4    0    0  0.57440446132E+03 -0.65215688484E+03 -0.10792607273E+02  0.87376982873E+03  0.90045241973E+02 0.  0.
         23    2    4    4    0    0  0.54624259570E+02 -0.35339175202E+02  0.51651788294E+03  0.52850855703E+03  0.91092834090E+02 0.  0.
          2    1    3    3  502    0 -0.11851616144E+03  0.96539855951E+02 -0.28539410874E+03  0.32375271676E+03  0.00000000000E+00 0. -1.
         -1    1    3    3    0  502 -0.51051255945E+03  0.59095620410E+03 -0.12332226218E+04  0.14596884405E+04  0.00000000000E+00 0.  1.
         13    1    5    5    0    0  0.56816216441E+03 -0.63414225641E+03 -0.21874171446E+02  0.85171775008E+03  0.00000000000E+00 0.  1.
        -13    1    5    5    0    0  0.62422969105E+01 -0.18014628432E+02  0.11081564173E+02  0.22052078650E+02  0.00000000000E+00 0. -1.
          1    1    6    6  503    0  0.59050708115E+02  0.12594985687E+02  0.35009605584E+03  0.35526450443E+03  0.00000000000E+00 0. -1.
         -1    1    6    6    0  503 -0.44264485445E+01 -0.47934160889E+02  0.16642182709E+03  0.17324405260E+03  0.00000000000E+00 0.  1.
<mgrwt>
<rscale>  0 0.30204072E+04</rscale>
<asrwt>0</asrwt>
<pdfrwt beam="1">  1        2 0.16714062E+00 0.30204072E+04</pdfrwt>
<pdfrwt beam="2">  1       -1 0.32297007E+00 0.30204072E+04</pdfrwt>
<totfact> 0.50617424E-01</totfact>
</mgrwt>
</event>
<event>
12    7  0.1730932E-007  0.2475048E+04  0.7818608E-02  0.8411929E-01
          2   -1    0    0  501    0  0.00000000000E+00  0.00000000000E+00  0.14647940984E+04  0.14647940984E+04  0.00000000000E+00 0. -1.
         -1   -1    0    0    0  501 -0.00000000000E+00 -0.00000000000E+00 -0.10455157423E+04  0.10455157423E+04  0.00000000000E+00 0.  1.
         24    2    1    2    0    0 -0.37950774107E+03 -0.10019394747E+04  0.26324790213E+03  0.11061657959E+04  0.79965452068E+02 0.  0.
        254    2    1    2    0    0  0.37950774107E+03  0.10019394747E+04  0.15603045394E+03  0.14041440448E+04  0.89407279311E+03 0.  0.
         23    2    4    4    0    0 -0.42536239414E+02  0.66717925084E+02 -0.26502418773E+03  0.29150352208E+03  0.92064488879E+02 0.  0.
         23    2    4    4    0    0  0.42204398049E+03  0.93522154965E+03  0.42105464167E+03  0.11126405227E+04  0.89002545345E+02 0.  0.
          4    1    3    3  502    0 -0.30832894429E+03 -0.72511547029E+03  0.17662429452E+03  0.80749942697E+03  0.00000000000E+00 0. -1.
         -3    1    3    3    0  502 -0.71178796786E+02 -0.27682400444E+03  0.86623607606E+02  0.29866636895E+03  0.00000000000E+00 0.  1.
         13    1    5    5    0    0  0.41355724835E+01 -0.21149166933E+02 -0.56168010811E+02  0.60160083612E+02  0.00000000000E+00 0. -1.
        -13    1    5    5    0    0 -0.46671811897E+02  0.87867092017E+02 -0.20885617692E+03  0.23134343847E+03  0.00000000000E+00 0.  1.
          1    1    6    6  503    0  0.20059471655E+03  0.54668828342E+03  0.22366776238E+03  0.62380572894E+03  0.00000000000E+00 0. -1.
         -1    1    6    6    0  503  0.22144926394E+03  0.38853326623E+03  0.19738687930E+03  0.48883479375E+03  0.00000000000E+00 0.  1.
<mgrwt>
<rscale>  0 0.24750477E+04</rscale>
<asrwt>0</asrwt>
<pdfrwt beam="1">  1        2 0.22535294E+00 0.24750477E+04</pdfrwt>
<pdfrwt beam="2">  1       -1 0.16084858E+00 0.24750477E+04</pdfrwt>
<totfact> 0.38960655E+00</totfact>
</mgrwt>
</event>
<event>
12    7  0.1730932E-007  0.3769072E+04  0.7818608E-02  0.8052825E-01
         -1   -1    0    0    0  501 -0.00000000000E+00  0.00000000000E+00  0.11416183016E+04  0.11416183016E+04  0.00000000000E+00 0.  1.
          2   -1    0    0  501    0  0.00000000000E+00 -0.00000000000E+00 -0.31109139868E+04  0.31109139868E+04  0.00000000000E+00 0. -1.
         24    2    1    2    0    0  0.11859412596E+03  0.17553957170E+04 -0.66048227675E+03  0.18810038785E+04  0.80374517360E+02 0.  0.
        254    2    1    2    0    0 -0.11859412596E+03 -0.17553957170E+04 -0.13088134085E+04  0.23715284100E+04  0.90314770165E+03 0.  0.
         23    2    4    4    0    0  0.37597911278E+03 -0.96664719945E+03 -0.66109608603E+03  0.12333434499E+04  0.91219126362E+02 0.  0.
         23    2    4    4    0    0 -0.49457323874E+03 -0.78874851758E+03 -0.64771732242E+03  0.11381849600E+04  0.95918512514E+02 0.  0.
          4    1    3    3  502    0  0.47152658273E+01  0.15521561888E+03 -0.82430405522E+02  0.17580925411E+03  0.00000000000E+00 0. -1.
         -3    1    3    3    0  502  0.11387886013E+03  0.16001800982E+04 -0.57805187123E+03  0.17051946244E+04  0.00000000000E+00 0.  1.
         13    1    5    5    0    0  0.32306965567E+03 -0.74603210638E+03 -0.49049469028E+03  0.94948562251E+03  0.00000000000E+00 0. -1.
        -13    1    5    5    0    0  0.52909457113E+02 -0.22061509307E+03 -0.17060139575E+03  0.28385782740E+03  0.00000000000E+00 0.  1.
          3    1    6    6  503    0 -0.31150273164E+03 -0.50633717147E+03 -0.35692121665E+03  0.69340034463E+03  0.00000000000E+00 0. -1.
         -3    1    6    6    0  503 -0.18307050710E+03 -0.28241134611E+03 -0.29079610577E+03  0.44478461542E+03  0.00000000000E+00 0.  1.
<mgrwt>
<rscale>  0 0.37690722E+04</rscale>
<asrwt>0</asrwt>
<pdfrwt beam="1">  1        2 0.47860215E+00 0.37690722E+04</pdfrwt>
<pdfrwt beam="2">  1       -1 0.17563359E+00 0.37690722E+04</pdfrwt>
<totfact> 0.30221669E-01</totfact>
</mgrwt>
</event>
<event>
12    7  0.1730932E-007  0.2091187E+04  0.7818608E-02  0.8565136E-01
          2   -1    0    0  501    0  0.00000000000E+00  0.00000000000E+00  0.21599842461E+04  0.21599842461E+04  0.00000000000E+00 0. -1.
         -1   -1    0    0    0  501 -0.00000000000E+00 -0.00000000000E+00 -0.50614513392E+03  0.50614513392E+03  0.00000000000E+00 0.  1.
         24    2    1    2    0    0  0.58685060144E+03 -0.58755809617E+03  0.90902918684E+03  0.12339040615E+04  0.81037186622E+02 0.  0.
        254    2    1    2    0    0 -0.58685060144E+03  0.58755809617E+03  0.74480992537E+03  0.14322253186E+04  0.89828135540E+03 0.  0.
         23    2    4    4    0    0 -0.69712994090E+03  0.95271031224E+02  0.45472810323E+03  0.84329155519E+03  0.96417194041E+02 0.  0.
         23    2    4    4    0    0  0.11027933946E+03  0.49228706494E+03  0.29008182214E+03  0.58893376339E+03  0.90484402512E+02 0.  0.
          2    1    3    3  502    0  0.19853027076E+03 -0.24897358581E+03  0.37265428642E+03  0.49017683751E+03  0.00000000000E+00 0. -1.
         -1    1    3    3    0  502  0.38832033068E+03 -0.33858451035E+03  0.53637490041E+03  0.74372722396E+03  0.00000000000E+00 0.  1.
         13    1    5    5    0    0 -0.39210678441E+03  0.66938956249E+02  0.31093909960E+03  0.50488778744E+03  0.00000000000E+00 0. -1.
        -13    1    5    5    0    0 -0.30502315649E+03  0.28332074975E+02  0.14378900363E+03  0.33840376775E+03  0.00000000000E+00 0.  1.
          4    1    6    6  503    0  0.84520153795E+02  0.22964073592E+03  0.10327319137E+03  0.26560097147E+03  0.00000000000E+00 0. -1.
         -4    1    6    6    0  503  0.25759185663E+02  0.26264632902E+03  0.18680863078E+03  0.32333279192E+03  0.00000000000E+00 0.  1.
<mgrwt>
<rscale>  0 0.20911868E+04</rscale>
<asrwt>0</asrwt>
<pdfrwt beam="1">  1        2 0.33230526E+00 0.20911868E+04</pdfrwt>
<pdfrwt beam="2">  1       -1 0.77868483E-01 0.20911868E+04</pdfrwt>
<totfact> 0.94309029E+00</totfact>
</mgrwt>
</event>
<event>
12    7  0.1730932E-007  0.1435251E+04  0.7818608E-02  0.8928690E-01
         -1   -1    0    0    0  501 -0.00000000000E+00  0.00000000000E+00  0.70112841440E+03  0.70112841440E+03  0.00000000000E+00 0.  1.
          2   -1    0    0  501    0  0.00000000000E+00 -0.00000000000E+00 -0.73451106124E+03  0.73451106124E+03  0.00000000000E+00 0. -1.
         24    2    1    2    0    0 -0.38971741217E+03 -0.90835348402E+02 -0.17686238737E+03  0.44488935968E+03  0.80718748865E+02 0.  0.
        254    2    1    2    0    0  0.38971741217E+03  0.90835348402E+02  0.14347974053E+03  0.99075011596E+03  0.89491264069E+03 0.  0.
         23    2    4    4    0    0 -0.59434437894E+02 -0.30885067955E+03  0.19452458010E+03  0.38057328558E+03  0.89861108219E+02 0.  0.
         23    2    4    4    0    0  0.44915185007E+03  0.39968602795E+03 -0.51044839566E+02  0.61017683038E+03  0.90685629137E+02 0.  0.
          2    1    3    3  502    0 -0.67732173953E+02 -0.22238885709E+02 -0.66994874254E+02  0.97829078511E+02  0.00000000000E+00 0. -1.
         -1    1    3    3    0  502 -0.32198523822E+03 -0.68596462693E+02 -0.10986751312E+03  0.34706028117E+03  0.00000000000E+00 0.  1.
         13    1    5    5    0    0 -0.39099405321E+02 -0.30084471918E+03  0.19084737449E+03  0.35841181469E+03  0.00000000000E+00 0. -1.
        -13    1    5    5    0    0 -0.20335032573E+02 -0.80059603646E+01  0.36772056070E+01  0.22161470894E+02  0.00000000000E+00 0.  1.
          4    1    6    6  503    0  0.21070746143E+03  0.22426606513E+03 -0.62205056591E+02  0.31394644660E+03  0.00000000000E+00 0. -1.
         -4    1    6    6    0  503  0.23844438864E+03  0.17541996282E+03  0.11160217025E+02  0.29623038378E+03  0.00000000000E+00 0.  1.
<mgrwt>
<rscale>  0 0.14352513E+04</rscale>
<asrwt>0</asrwt>
<pdfrwt beam="1">  1        2 0.11300170E+00 0.14352513E+04</pdfrwt>
<pdfrwt beam="2">  1       -1 0.10786591E+00 0.14352513E+04</pdfrwt>
<totfact> 0.34156114E+01</totfact>
</mgrwt>
</event>
<event>
12    7  0.1730932E-007  0.1348096E+04  0.7818608E-02  0.8992271E-01
         -1   -1    0    0    0  501 -0.00000000000E+00  0.00000000000E+00  0.58145390930E+03  0.58145390930E+03  0.00000000000E+00 0.  1.
          2   -1    0    0  501    0  0.00000000000E+00 -0.00000000000E+00 -0.78138682257E+03  0.78138682257E+03  0.00000000000E+00 0. -1.
         24    2    1    2    0    0  0.26965301923E+03 -0.12921040496E+03 -0.26694464073E+03  0.41256308897E+03  0.97676924808E+02 0.  0.
        254    2    1    2    0    0 -0.26965301923E+03  0.12921040496E+03  0.67011727465E+02  0.95027764290E+03  0.89951595175E+03 0.  0.
         23    2    4    4    0    0 -0.42541134150E+03 -0.26467677395E+03  0.89158815517E+02  0.51657944029E+03  0.88749194956E+02 0.  0.
         23    2    4    4    0    0  0.15575832227E+03  0.39388717890E+03 -0.22147088052E+02  0.43369820261E+03  0.90531059730E+02 0.  0.
          2    1    3    3  502    0  0.27368615913E+03 -0.11006233901E+03 -0.25091408323E+03  0.38726697424E+03  0.00000000000E+00 0. -1.
         -1    1    3    3    0  502 -0.40331399091E+01 -0.19148065943E+02 -0.16030557498E+02  0.25296114733E+02  0.00000000000E+00 0.  1.
         13    1    5    5    0    0 -0.14220555716E+03 -0.13599770472E+03  0.18892883235E+02  0.19767330931E+03  0.00000000000E+00 0. -1.
        -13    1    5    5    0    0 -0.28320578433E+03 -0.12867906923E+03  0.70265932281E+02  0.31890613098E+03  0.00000000000E+00 0.  1.
          2    1    6    6  503    0  0.11604321497E+03  0.20924020207E+03 -0.44971913756E+02  0.24345423169E+03  0.00000000000E+00 0. -1.
         -2    1    6    6    0  503  0.39715107306E+02  0.18464697683E+03  0.22824825704E+02  0.19024397091E+03  0.00000000000E+00 0.  1.
<mgrwt>
<rscale>  0 0.13480956E+04</rscale>
<asrwt>0</asrwt>
<pdfrwt beam="1">  1        2 0.12021336E+00 0.13480956E+04</pdfrwt>
<pdfrwt beam="2">  1       -1 0.89454448E-01 0.13480956E+04</pdfrwt>
<totfact> 0.48553542E+01</totfact>
</mgrwt>
</event>
<event>
12    7  0.1730932E-007  0.2535401E+04  0.7818608E-02  0.8390481E-01
          2   -1    0    0  501    0  0.00000000000E+00  0.00000000000E+00  0.11298036966E+04  0.11298036966E+04  0.00000000000E+00 0. -1.
         -1   -1    0    0    0  501 -0.00000000000E+00 -0.00000000000E+00 -0.14224283116E+04  0.14224283116E+04  0.00000000000E+00 0.  1.
         24    2    1    2    0    0  0.96566855841E+03  0.32572721832E+03  0.31403376469E+03  0.10694858286E+04  0.81047804931E+02 0.  0.
        254    2    1    2    0    0 -0.96566855841E+03 -0.32572721832E+03 -0.60665837972E+03  0.14827461796E+04  0.88988081120E+03 0.  0.
         23    2    4    4    0    0  0.54189681379E+02 -0.30437355707E+03 -0.21667245584E+03  0.38689788896E+03  0.84635923494E+02 0.  0.
         23    2    4    4    0    0 -0.10198582398E+04 -0.21353661244E+02 -0.38998592387E+03  0.10958482907E+04  0.90706379556E+02 0.  0.
          2    1    3    3  502    0  0.83448590671E+03  0.30724247836E+03  0.28563205428E+03  0.93399696972E+03  0.00000000000E+00 0. -1.
         -1    1    3    3    0  502  0.13118265169E+03  0.18484739957E+02  0.28401710407E+02  0.13548885884E+03  0.00000000000E+00 0.  1.
         13    1    5    5    0    0  0.49317910988E+02 -0.20876804654E+03 -0.10203030095E+03  0.23754270335E+03  0.00000000000E+00 0. -1.
        -13    1    5    5    0    0  0.48717703906E+01 -0.95605510527E+02 -0.11464215489E+03  0.14935518561E+03  0.00000000000E+00 0.  1.
          4    1    6    6  503    0 -0.49523491141E+03 -0.12715921449E+02 -0.23788216327E+03  0.54955184990E+03  0.00000000000E+00 0. -1.
         -4    1    6    6    0  503 -0.52462332838E+03 -0.86377397955E+01 -0.15210376061E+03  0.54629644079E+03  0.00000000000E+00 0.  1.
<mgrwt>
<rscale>  0 0.25354012E+04</rscale>
<asrwt>0</asrwt>
<pdfrwt beam="1">  1        2 0.17381595E+00 0.25354012E+04</pdfrwt>
<pdfrwt beam="2">  1       -1 0.21883512E+00 0.25354012E+04</pdfrwt>
<totfact> 0.23720680E+00</totfact>
</mgrwt>
</event>
<event>
12    7  0.1730932E-007  0.3642455E+04  0.7818608E-02  0.8080835E-01
         -1   -1    0    0    0  501 -0.00000000000E+00  0.00000000000E+00  0.19123850133E+04  0.19123850133E+04  0.00000000000E+00 0.  1.
          2   -1    0    0  501    0  0.00000000000E+00 -0.00000000000E+00 -0.17344154140E+04  0.17344154140E+04  0.00000000000E+00 0. -1.
         24    2    1    2    0    0  0.62468320425E+03  0.18395144051E+03  0.16827561395E+04  0.18060959665E+04  0.79039085667E+02 0.  0.
        254    2    1    2    0    0 -0.62468320425E+03 -0.18395144051E+03 -0.15047865402E+04  0.18407044609E+04  0.83650651073E+03 0.  0.
         23    2    4    4    0    0 -0.30289950312E+03  0.10308537662E+03 -0.13227601125E+04  0.13638758743E+04  0.89935429987E+02 0.  0.
         23    2    4    4    0    0 -0.32178370113E+03 -0.28703681713E+03 -0.18202642772E+03  0.47682858651E+03  0.91087846727E+02 0.  0.
          2    1    3    3  502    0  0.13346421132E+03  0.16253734236E+02  0.28641557033E+03  0.31640284213E+03  0.00000000000E+00 0. -1.
         -1    1    3    3    0  502  0.49121899293E+03  0.16769770627E+03  0.13963405691E+04  0.14896931244E+04  0.00000000000E+00 0.  1.
         13    1    5    5    0    0 -0.11153343512E+03  0.41049075443E+02 -0.32527107236E+03  0.34630334139E+03  0.00000000000E+00 0. -1.
        -13    1    5    5    0    0 -0.19136606799E+03  0.62036301181E+02 -0.99748904013E+03  0.10175725330E+04  0.00000000000E+00 0.  1.
          1    1    6    6  503    0 -0.36117158796E+02 -0.41873476026E+02  0.67404748756E+01  0.55707011727E+02  0.00000000000E+00 0. -1.
         -1    1    6    6    0  503 -0.28566654234E+03 -0.24516334110E+03 -0.18876690259E+03  0.42112157478E+03  0.00000000000E+00 0.  1.
<mgrwt>
<rscale>  0 0.36424552E+04</rscale>
<asrwt>0</asrwt>
<pdfrwt beam="1">  1        2 0.26683314E+00 0.36424552E+04</pdfrwt>
<pdfrwt beam="2">  1       -1 0.29421308E+00 0.36424552E+04</pdfrwt>
<totfact> 0.31228915E-01</totfact>
</mgrwt>
</event>
<event>
12    7  0.1730932E-007  0.1366389E+04  0.7818608E-02  0.8978514E-01
         -1   -1    0    0    0  501 -0.00000000000E+00  0.00000000000E+00  0.36379751120E+03  0.36379751120E+03  0.00000000000E+00 0.  1.
          2   -1    0    0  501    0  0.00000000000E+00 -0.00000000000E+00 -0.12830060092E+04  0.12830060092E+04  0.00000000000E+00 0. -1.
         24    2    1    2    0    0  0.96696384754E+02 -0.27185252512E+03  0.27902418382E+02  0.30052549455E+03  0.79265639991E+02 0.  0.
        254    2    1    2    0    0 -0.96696384754E+02  0.27185252512E+03 -0.94711091641E+03  0.13462780259E+04  0.91224527883E+03 0.  0.
         23    2    4    4    0    0 -0.23131618205E+03 -0.87144300185E+02  0.54476595308E+02  0.26984914558E+03  0.93539065637E+02 0.  0.
         23    2    4    4    0    0  0.13461979730E+03  0.35899682530E+03 -0.10015875117E+04  0.10764288803E+04  0.92305906156E+02 0.  0.
          2    1    3    3  502    0  0.38924595538E+02 -0.30606454831E+02  0.16512449718E+02  0.52197128377E+02  0.00000000000E+00 0. -1.
         -1    1    3    3    0  502  0.57771789217E+02 -0.24124607029E+03  0.11389968663E+02  0.24832836617E+03  0.00000000000E+00 0.  1.
         13    1    5    5    0    0 -0.15518979662E+03 -0.71876043443E+02 -0.64617395894E+01  0.17114845215E+03  0.00000000000E+00 0.  1.
        -13    1    5    5    0    0 -0.76126385433E+02 -0.15268256742E+02  0.60938334898E+02  0.98700693428E+02  0.00000000000E+00 0. -1.
          3    1    6    6  503    0  0.43564652144E+02  0.23309548866E+03 -0.65510686923E+03  0.69670395138E+03  0.00000000000E+00 0. -1.
         -3    1    6    6    0  503  0.91055145152E+02  0.12590133664E+03 -0.34648064249E+03  0.37972492892E+03  0.00000000000E+00 0.  1.
<mgrwt>
<rscale>  0 0.13663885E+04</rscale>
<asrwt>0</asrwt>
<pdfrwt beam="1">  1        2 0.19738554E+00 0.13663885E+04</pdfrwt>
<pdfrwt beam="2">  1       -1 0.55968847E-01 0.13663885E+04</pdfrwt>
<totfact> 0.60744164E+01</totfact>
</mgrwt>
</event>
<event>
12    7  0.1730932E-007  0.1125803E+04  0.7818608E-02  0.9180401E-01
          4   -1    0    0  501    0  0.00000000000E+00  0.00000000000E+00  0.14723063145E+04  0.14723063145E+04  0.00000000000E+00 0. -1.
         -3   -1    0    0    0  501 -0.00000000000E+00 -0.00000000000E+00 -0.21521201480E+03  0.21521201480E+03  0.00000000000E+00 0.  1.
         24    2    1    2    0    0  0.73626323085E+01 -0.26278850572E+02 -0.55350312910E+02  0.10155204802E+03  0.80649705363E+02 0.  0.
        254    2    1    2    0    0 -0.73626323085E+01  0.26278850572E+02  0.13124446127E+04  0.15859662813E+04  0.88996258228E+03 0.  0.
         23    2    4    4    0    0  0.19472996821E+03 -0.31591211621E+03  0.10041299611E+04  0.10746123537E+04  0.93779029237E+02 0.  0.
         23    2    4    4    0    0 -0.20209260052E+03  0.34219096678E+03  0.30831465161E+03  0.51135392764E+03  0.92134890170E+02 0.  0.
          2    1    3    3  502    0  0.16608212939E+02  0.25680737655E+02 -0.30592341169E+02  0.43257650904E+02  0.00000000000E+00 0. -1.
         -1    1    3    3    0  502 -0.92455806305E+01 -0.51959588228E+02 -0.24757971741E+02  0.58294397112E+02  0.00000000000E+00 0.  1.
         13    1    5    5    0    0  0.91419940736E+02 -0.67586011334E+02  0.31094207405E+03  0.33107468630E+03  0.00000000000E+00 0.  1.
        -13    1    5    5    0    0  0.10331002747E+03 -0.24832610487E+03  0.69318788700E+03  0.74353766739E+03  0.00000000000E+00 0. -1.
          4    1    6    6  503    0 -0.86562597431E+02  0.21357885129E+03  0.13769706189E+03  0.26845761276E+03  0.00000000000E+00 0. -1.
         -4    1    6    6    0  503 -0.11553000309E+03  0.12861211549E+03  0.17061758971E+03  0.24289631488E+03  0.00000000000E+00 0.  1.
<mgrwt>
<rscale>  0 0.11258028E+04</rscale>
<asrwt>0</asrwt>
<pdfrwt beam="1">  1        4 0.22650866E+00 0.11258028E+04</pdfrwt>
<pdfrwt beam="2">  1       -3 0.33109542E-01 0.11258028E+04</pdfrwt>
<totfact> 0.18115398E+00</totfact>
</mgrwt>
</event>
<event>
12    7  0.1730932E-007  0.1620018E+04  0.7818608E-02  0.8808344E-01
          2   -1    0    0  501    0  0.00000000000E+00  0.00000000000E+00  0.12262175134E+04  0.12262175134E+04  0.00000000000E+00 0. -1.
         -1   -1    0    0    0  501 -0.00000000000E+00 -0.00000000000E+00 -0.53507167524E+03  0.53507167524E+03  0.00000000000E+00 0.  1.
         24    2    1    2    0    0 -0.50971672908E+02 -0.50547954464E+03  0.47758130677E+03  0.70186721497E+03  0.80162343941E+02 0.  0.
        254    2    1    2    0    0  0.50971672908E+02  0.50547954464E+03  0.21356453134E+03  0.10594219736E+04  0.90479689857E+03 0.  0.
         23    2    4    4    0    0 -0.61993106929E+02  0.33169614606E+03 -0.32282298321E+03  0.47566333498E+03  0.90418201357E+02 0.  0.
         23    2    4    4    0    0  0.11296477984E+03  0.17378339858E+03  0.53638751455E+03  0.58375863865E+03  0.10050309115E+03 0.  0.
          2    1    3    3  502    0 -0.68896867638E+02 -0.42015976414E+03  0.41487148678E+03  0.59447401651E+03  0.00000000000E+00 0. -1.
         -1    1    3    3    0  502  0.17925194730E+02 -0.85319780502E+02  0.62709819994E+02  0.10739319846E+03  0.00000000000E+00 0.  1.
         13    1    5    5    0    0 -0.81884319712E+02  0.30189639041E+03 -0.29836678192E+03  0.43228371345E+03  0.00000000000E+00 0. -1.
        -13    1    5    5    0    0  0.19891212783E+02  0.29799755647E+02 -0.24456201288E+02  0.43379621530E+02  0.00000000000E+00 0.  1.
          1    1    6    6  503    0  0.27954737868E+02  0.13327442665E+03  0.31978838524E+03  0.34757467040E+03  0.00000000000E+00 0. -1.
         -1    1    6    6    0  503  0.85010041969E+02  0.40508971930E+02  0.21659912931E+03  0.23618396825E+03  0.00000000000E+00 0.  1.
<mgrwt>
<rscale>  0 0.16200176E+04</rscale>
<asrwt>0</asrwt>
<pdfrwt beam="1">  1        2 0.18864885E+00 0.16200176E+04</pdfrwt>
<pdfrwt beam="2">  1       -1 0.82318719E-01 0.16200176E+04</pdfrwt>
<totfact> 0.29270448E+01</totfact>
</mgrwt>
</event>
<event>
12    7  0.1730932E-007  0.1639969E+04  0.7818608E-02  0.8796363E-01
          2   -1    0    0  501    0  0.00000000000E+00  0.00000000000E+00  0.23504084187E+04  0.23504084187E+04  0.00000000000E+00 0. -1.
         -1   -1    0    0    0  501 -0.00000000000E+00 -0.00000000000E+00 -0.28606712783E+03  0.28606712783E+03  0.00000000000E+00 0.  1.
         24    2    1    2    0    0  0.46609684794E+03 -0.27164614830E+03  0.42825855835E+03  0.69319401642E+03  0.77940041341E+02 0.  0.
        254    2    1    2    0    0 -0.46609684794E+03  0.27164614830E+03  0.16360827325E+04  0.19432815301E+04  0.89918768679E+03 0.  0.
         23    2    4    4    0    0 -0.57342261589E+03  0.47735951186E+03  0.14463207004E+04  0.16299425148E+04  0.90462329535E+02 0.  0.
         23    2    4    4    0    0  0.10732576796E+03 -0.20571336355E+03  0.18976203211E+03  0.31333901533E+03  0.91295680560E+02 0.  0.
          4    1    3    3  502    0  0.28265054565E+03 -0.12743982345E+03  0.27115049697E+03  0.41189177166E+03  0.00000000000E+00 0. -1.
         -3    1    3    3    0  502  0.18344630229E+03 -0.14420632485E+03  0.15710806139E+03  0.28130224475E+03  0.00000000000E+00 0.  1.
         13    1    5    5    0    0 -0.22454701798E+03  0.14083599656E+03  0.56605604219E+03  0.62504046598E+03  0.00000000000E+00 0. -1.
        -13    1    5    5    0    0 -0.34887559791E+03  0.33652351530E+03  0.88026465819E+03  0.10049020488E+04  0.00000000000E+00 0.  1.
          4    1    6    6  503    0  0.10363719572E+03 -0.10195154659E+03  0.10556101895E+03  0.17966055469E+03  0.00000000000E+00 0. -1.
         -4    1    6    6    0  503  0.36885722405E+01 -0.10376181696E+03  0.84201013157E+02  0.13367846065E+03  0.00000000000E+00 0.  1.
<mgrwt>
<rscale>  0 0.16399690E+04</rscale>
<asrwt>0</asrwt>
<pdfrwt beam="1">  1        2 0.36160128E+00 0.16399690E+04</pdfrwt>
<pdfrwt beam="2">  1       -1 0.44010329E-01 0.16399690E+04</pdfrwt>
<totfact> 0.23615272E+01</totfact>
</mgrwt>
</event>
<event>
12    7  0.1730932E-007  0.1751456E+04  0.7818608E-02  0.8732549E-01
          2   -1    0    0  501    0  0.00000000000E+00  0.00000000000E+00  0.75431381316E+03  0.75431381316E+03  0.00000000000E+00 0. -1.
         -1   -1    0    0    0  501 -0.00000000000E+00 -0.00000000000E+00 -0.10166852964E+04  0.10166852964E+04  0.00000000000E+00 0.  1.
         24    2    1    2    0    0  0.15954285085E+03 -0.67384019417E+02  0.50195421965E+03  0.53893684443E+03  0.92197377073E+02 0.  0.
        254    2    1    2    0    0 -0.15954285085E+03  0.67384019417E+02 -0.76432570284E+03  0.12320622651E+04  0.95067824088E+03 0.  0.
         23    2    4    4    0    0  0.37614442833E+03 -0.95996639182E+02 -0.31138179063E+03  0.50597894734E+03  0.91411650889E+02 0.  0.
         23    2    4    4    0    0 -0.53568727917E+03  0.16338065860E+03 -0.45294391221E+03  0.72608331774E+03  0.91567985811E+02 0.  0.
          4    1    3    3  502    0  0.35824745623E+02 -0.49742330002E+02  0.25372066070E+03  0.26102085254E+03  0.00000000000E+00 0. -1.
         -3    1    3    3    0  502  0.12371810522E+03 -0.17641689414E+02  0.24823355895E+03  0.27791599190E+03  0.00000000000E+00 0.  1.
         13    1    5    5    0    0  0.36586391178E+03 -0.73971556853E+02 -0.28182167577E+03  0.46770893737E+03  0.00000000000E+00 0. -1.
        -13    1    5    5    0    0  0.10280516547E+02 -0.22025082329E+02 -0.29560114863E+02  0.38270009966E+02  0.00000000000E+00 0.  1.
          1    1    6    6  503    0 -0.51309953487E+03  0.15795893585E+03 -0.40394969308E+03  0.67186123019E+03  0.00000000000E+00 0. -1.
         -1    1    6    6    0  503 -0.22587744305E+02  0.54217227464E+01 -0.48994219125E+02  0.54222087547E+02  0.00000000000E+00 0.  1.
<mgrwt>
<rscale>  0 0.17514563E+04</rscale>
<asrwt>0</asrwt>
<pdfrwt beam="1">  1        2 0.11604828E+00 0.17514563E+04</pdfrwt>
<pdfrwt beam="2">  1       -1 0.15641312E+00 0.17514563E+04</pdfrwt>
<totfact> 0.12535248E+01</totfact>
</mgrwt>
</event>
<event>
12    7  0.1730932E-007  0.4433417E+04  0.7818608E-02  0.7922398E-01
         -1   -1    0    0    0  501 -0.00000000000E+00  0.00000000000E+00  0.19820542765E+04  0.19820542765E+04  0.00000000000E+00 0.  1.
          2   -1    0    0  501    0  0.00000000000E+00 -0.00000000000E+00 -0.24791437902E+04  0.24791437902E+04  0.00000000000E+00 0. -1.
         24    2    1    2    0    0  0.13325891949E+04  0.10029482405E+01  0.14252154891E+04  0.19527745981E+04  0.79337710752E+02 0.  0.
        254    2    1    2    0    0 -0.13325891949E+04 -0.10029482405E+01 -0.19223050028E+04  0.25084234685E+04  0.90616599224E+03 0.  0.
         23    2    4    4    0    0 -0.89745558869E+03 -0.26114907602E+03 -0.17106036840E+04  0.19515447723E+04  0.93470108330E+02 0.  0.
         23    2    4    4    0    0 -0.43513360621E+03  0.26014612778E+03 -0.21170131882E+03  0.55687869622E+03  0.90989949238E+02 0.  0.
          2    1    3    3  502    0  0.45517487092E+03 -0.98846200097E+00  0.54262417728E+03  0.70825570096E+03  0.00000000000E+00 0. -1.
         -1    1    3    3    0  502  0.87741432398E+03  0.19914102414E+01  0.88259131186E+03  0.12445188972E+04  0.00000000000E+00 0.  1.
         13    1    5    5    0    0 -0.10162060871E+03 -0.26295949565E+02 -0.25999933250E+03  0.28038879788E+03  0.00000000000E+00 0. -1.
        -13    1    5    5    0    0 -0.79583497998E+03 -0.23485312646E+03 -0.14506043515E+04  0.16711559744E+04  0.00000000000E+00 0.  1.
          3    1    6    6  503    0  0.41727636130E+01  0.32394895405E+01  0.87337486014E+00  0.53543470469E+01  0.00000000000E+00 0. -1.
         -3    1    6    6    0  503 -0.43930636982E+03  0.25690663824E+03 -0.21257469368E+03  0.55152434917E+03  0.00000000000E+00 0.  1.
<mgrwt>
<rscale>  0 0.44334174E+04</rscale>
<asrwt>0</asrwt>
<pdfrwt beam="1">  1        2 0.38140673E+00 0.44334174E+04</pdfrwt>
<pdfrwt beam="2">  1       -1 0.30493143E+00 0.44334174E+04</pdfrwt>
<totfact> 0.95116923E-02</totfact>
</mgrwt>
</event>
<event>
12    7  0.1730932E-007  0.3411755E+04  0.7818608E-02  0.8135027E-01
         -1   -1    0    0    0  501 -0.00000000000E+00  0.00000000000E+00  0.26098095877E+04  0.26098095877E+04  0.00000000000E+00 0.  1.
          2   -1    0    0  501    0  0.00000000000E+00 -0.00000000000E+00 -0.11150305312E+04  0.11150305312E+04  0.00000000000E+00 0. -1.
         24    2    1    2    0    0 -0.15544435278E+04 -0.10705092394E+03  0.10010155144E+04  0.18536806988E+04  0.79658594940E+02 0.  0.
        254    2    1    2    0    0  0.15544435278E+04  0.10705092394E+03  0.49376354208E+03  0.18711594201E+04  0.91086802475E+03 0.  0.
         23    2    4    4    0    0  0.16079717130E+04  0.10672199927E+03  0.59930809847E+03  0.17216611705E+04  0.89355325254E+02 0.  0.
         23    2    4    4    0    0 -0.53528185252E+02  0.32892467256E+00 -0.10554455638E+03  0.14949824957E+03  0.91349320923E+02 0.  0.
          4    1    3    3  502    0 -0.57052771534E+03 -0.18911837532E+01  0.35550699534E+03  0.67222814154E+03  0.00000000000E+00 0. -1.
         -3    1    3    3    0  502 -0.98391581245E+03 -0.10515974018E+03  0.64550851904E+03  0.11814525573E+04  0.00000000000E+00 0.  1.
         13    1    5    5    0    0  0.15516439970E+04  0.11779187304E+03  0.58554198136E+03  0.16626284705E+04  0.00000000000E+00 0.  1.
        -13    1    5    5    0    0  0.56327715991E+02 -0.11069873775E+02  0.13766117109E+02  0.59032700044E+02  0.00000000000E+00 0. -1.
          4    1    6    6  503    0 -0.68944344842E+02 -0.29903028411E+01 -0.35315752088E+02  0.77520751688E+02  0.00000000000E+00 0. -1.
         -4    1    6    6    0  503  0.15416159590E+02  0.33192275137E+01 -0.70228804296E+02  0.71977497878E+02  0.00000000000E+00 0.  1.
<mgrwt>
<rscale>  0 0.34117546E+04</rscale>
<asrwt>0</asrwt>
<pdfrwt beam="1">  1        2 0.17154316E+00 0.34117546E+04</pdfrwt>
<pdfrwt beam="2">  1       -1 0.40150917E+00 0.34117546E+04</pdfrwt>
<totfact> 0.14035636E-01</totfact>
</mgrwt>
</event>
<event>
12    7  0.1730932E-007  0.1584385E+04  0.7818608E-02  0.8830199E-01
          2   -1    0    0  501    0  0.00000000000E+00  0.00000000000E+00  0.41021568265E+04  0.41021568265E+04  0.00000000000E+00 0. -1.
         -1   -1    0    0    0  501 -0.00000000000E+00 -0.00000000000E+00 -0.15298503763E+03  0.15298503763E+03  0.00000000000E+00 0.  1.
         24    2    1    2    0    0 -0.14301886838E+03  0.33884651793E+01  0.30337709015E+04  0.30381938054E+04  0.79936461135E+02 0.  0.
        254    2    1    2    0    0  0.14301886838E+03 -0.33884651793E+01  0.91540088740E+03  0.12169480588E+04  0.78901071902E+03 0.  0.
         23    2    4    4    0    0  0.28662082224E+03 -0.30808532356E+03  0.64173071720E+03  0.77268505816E+03  0.90309597335E+02 0.  0.
         23    2    4    4    0    0 -0.14360195386E+03  0.30469685838E+03  0.27367017021E+03  0.44426300064E+03  0.94934477466E+02 0.  0.
          2    1    3    3  502    0 -0.14043106694E+03  0.18115670200E+02  0.29217957332E+04  0.29252246697E+04  0.00000000000E+00 0. -1.
         -1    1    3    3    0  502 -0.25878014346E+01 -0.14727205021E+02  0.11197516830E+03  0.11296913560E+03  0.00000000000E+00 0.  1.
         13    1    5    5    0    0  0.26849948929E+03 -0.30880295497E+03  0.59125789724E+03  0.71905294785E+03  0.00000000000E+00 0.  1.
        -13    1    5    5    0    0  0.18121332944E+02  0.71763141221E+00  0.50472819951E+02  0.53632110310E+02  0.00000000000E+00 0. -1.
          3    1    6    6  503    0 -0.81442005076E+02  0.13915046249E+03  0.73567158791E+02  0.17722239773E+03  0.00000000000E+00 0. -1.
         -3    1    6    6    0  503 -0.62159948787E+02  0.16554639589E+03  0.20010301142E+03  0.26704060291E+03  0.00000000000E+00 0.  1.
<mgrwt>
<rscale>  0 0.15843846E+04</rscale>
<asrwt>0</asrwt>
<pdfrwt beam="1">  1        2 0.63110097E+00 0.15843846E+04</pdfrwt>
<pdfrwt beam="2">  1       -1 0.23536163E-01 0.15843846E+04</pdfrwt>
<totfact> 0.48950695E+00</totfact>
</mgrwt>
</event>
<event>
12    7  0.1730932E-007  0.1700808E+04  0.7818608E-02  0.8760904E-01
         -1   -1    0    0    0  501 -0.00000000000E+00  0.00000000000E+00  0.68298190031E+03  0.68298190031E+03  0.00000000000E+00 0.  1.
          2   -1    0    0  501    0  0.00000000000E+00 -0.00000000000E+00 -0.10588672553E+04  0.10588672553E+04  0.00000000000E+00 0. -1.
         24    2    1    2    0    0  0.11378718708E+03 -0.58879841643E+03 -0.25112011640E+03  0.65506804410E+03  0.80135699908E+02 0.  0.
        254    2    1    2    0    0 -0.11378718708E+03  0.58879841643E+03 -0.12476523863E+03  0.10867811116E+04  0.89771694901E+03 0.  0.
         23    2    4    4    0    0 -0.32781197430E+03  0.47920903131E+03 -0.39982168704E+03  0.71014423663E+03  0.85705712808E+02 0.  0.
         23    2    4    4    0    0  0.21402478722E+03  0.10958938512E+03  0.27505644841E+03  0.37663687493E+03  0.91557866225E+02 0.  0.
          2    1    3    3  502    0 -0.80207648684E+01 -0.13242050277E+03 -0.53842818733E+02  0.14317322149E+03  0.00000000000E+00 0. -1.
         -1    1    3    3    0  502  0.12180795194E+03 -0.45637791366E+03 -0.19727729766E+03  0.51189482260E+03  0.00000000000E+00 0.  1.
         13    1    5    5    0    0 -0.70723331806E+02  0.53211496229E+02 -0.74295442864E+02  0.11555546644E+03  0.00000000000E+00 0.  1.
        -13    1    5    5    0    0 -0.25708864249E+03  0.42599753508E+03 -0.32552624418E+03  0.59458877020E+03  0.00000000000E+00 0. -1.
          3    1    6    6  503    0  0.10084571550E+03  0.40002289827E+02  0.19027331419E+03  0.21902962270E+03  0.00000000000E+00 0. -1.
         -3    1    6    6    0  503  0.11317907173E+03  0.69587095296E+02  0.84783134219E+02  0.15760725223E+03  0.00000000000E+00 0.  1.
<mgrwt>
<rscale>  0 0.17008082E+04</rscale>
<asrwt>0</asrwt>
<pdfrwt beam="1">  1        2 0.16290265E+00 0.17008082E+04</pdfrwt>
<pdfrwt beam="2">  1       -1 0.10507414E+00 0.17008082E+04</pdfrwt>
<totfact> 0.21323066E+01</totfact>
</mgrwt>
</event>
<event>
12    7  0.1730932E-007  0.1920410E+04  0.7818608E-02  0.8644763E-01
         -1   -1    0    0    0  501 -0.00000000000E+00  0.00000000000E+00  0.10063773976E+04  0.10063773976E+04  0.00000000000E+00 0.  1.
          2   -1    0    0  501    0  0.00000000000E+00 -0.00000000000E+00 -0.91615080957E+03  0.91615080957E+03  0.00000000000E+00 0. -1.
         24    2    1    2    0    0  0.36122416528E+03 -0.31494024139E+03 -0.55283564324E+03  0.73589839066E+03  0.79050235375E+02 0.  0.
        254    2    1    2    0    0 -0.36122416528E+03  0.31494024139E+03  0.64306223130E+03  0.11866298165E+04  0.87458049083E+03 0.  0.
         23    2    4    4    0    0  0.11405680336E+03  0.46162827674E+03  0.24234937889E+03  0.54175024500E+03  0.93007990139E+02 0.  0.
         23    2    4    4    0    0 -0.47528096864E+03 -0.14668803535E+03  0.40071285241E+03  0.64487957154E+03  0.88822817093E+02 0.  0.
          4    1    3    3  502    0  0.32391916780E+03 -0.30111067677E+03 -0.47844893788E+03  0.65154021602E+03  0.00000000000E+00 0. -1.
         -3    1    3    3    0  502  0.37304997478E+02 -0.13829564624E+02 -0.74386705366E+02  0.84358174647E+02  0.00000000000E+00 0.  1.
         13    1    5    5    0    0  0.67575483094E+02  0.10950411209E+03  0.52060710032E+02  0.13880891185E+03  0.00000000000E+00 0. -1.
        -13    1    5    5    0    0  0.46481320267E+02  0.35212416465E+03  0.19028866886E+03  0.40294133315E+03  0.00000000000E+00 0.  1.
          1    1    6    6  503    0 -0.35990539531E+03 -0.70484436330E+02  0.28169905215E+03  0.46244384018E+03  0.00000000000E+00 0. -1.
         -1    1    6    6    0  503 -0.11537557333E+03 -0.76203599018E+02  0.11901380026E+03  0.18243573136E+03  0.00000000000E+00 0.  1.
<mgrwt>
<rscale>  0 0.19204098E+04</rscale>
<asrwt>0</asrwt>
<pdfrwt beam="1">  1        2 0.14094628E+00 0.19204098E+04</pdfrwt>
<pdfrwt beam="2">  1       -1 0.15482729E+00 0.19204098E+04</pdfrwt>
<totfact> 0.97660051E+00</totfact>
</mgrwt>
</event>
<event>
12    7  0.1730932E-007  0.1259228E+04  0.7818608E-02  0.9062538E-01
          2   -1    0    0  501    0  0.00000000000E+00  0.00000000000E+00  0.74534589027E+03  0.74534589027E+03  0.00000000000E+00 0. -1.
         -1   -1    0    0    0  501 -0.00000000000E+00 -0.00000000000E+00 -0.53185198606E+03  0.53185198606E+03  0.00000000000E+00 0.  1.
         24    2    1    2    0    0 -0.18209821116E+03  0.23102581053E+03  0.11159582970E+03  0.32484617754E+03  0.80862390611E+02 0.  0.
        254    2    1    2    0    0  0.18209821116E+03 -0.23102581053E+03  0.10189807451E+03  0.95235169880E+03  0.90003214219E+03 0.  0.
         23    2    4    4    0    0 -0.44356207171E+01 -0.26495957308E+03 -0.35320711101E+03  0.45100326240E+03  0.91790137452E+02 0.  0.
         23    2    4    4    0    0  0.18653383188E+03  0.33933762543E+02  0.45510518552E+03  0.50134843639E+03  0.91011835013E+02 0.  0.
          4    1    3    3  502    0 -0.18849338221E+03  0.22463259934E+03  0.99327661787E+02  0.30960546542E+03  0.00000000000E+00 0. -1.
         -3    1    3    3    0  502  0.63951710446E+01  0.63932111946E+01  0.12268167910E+02  0.15240712120E+02  0.00000000000E+00 0.  1.
         13    1    5    5    0    0 -0.35826913096E+02 -0.75010371457E+02 -0.14710497311E+03  0.16896744255E+03  0.00000000000E+00 0. -1.
        -13    1    5    5    0    0  0.31391292379E+02 -0.18994920162E+03 -0.20610213790E+03  0.28203581985E+03  0.00000000000E+00 0.  1.
          1    1    6    6  503    0  0.38502677908E+02  0.23392106890E+02  0.39059043337E+02  0.59625965294E+02  0.00000000000E+00 0.  1.
         -1    1    6    6    0  503  0.14803115397E+03  0.10541655653E+02  0.41604614218E+03  0.44172247110E+03  0.00000000000E+00 0. -1.
<mgrwt>
<rscale>  0 0.12592278E+04</rscale>
<asrwt>0</asrwt>
<pdfrwt beam="1">  1        2 0.11466860E+00 0.12592278E+04</pdfrwt>
<pdfrwt beam="2">  1       -1 0.81823383E-01 0.12592278E+04</pdfrwt>
<totfact> 0.63102721E+01</totfact>
</mgrwt>
</event>
<event>
12    7  0.1730932E-007  0.2380531E+04  0.7818608E-02  0.8446829E-01
          2   -1    0    0  501    0  0.00000000000E+00  0.00000000000E+00  0.14390997401E+04  0.14390997401E+04  0.00000000000E+00 0. -1.
         -1   -1    0    0    0  501 -0.00000000000E+00 -0.00000000000E+00 -0.98445724761E+03  0.98445724761E+03  0.00000000000E+00 0.  1.
         24    2    1    2    0    0  0.16921182160E+03  0.38281889998E+03 -0.74944457880E+03  0.86198380553E+03  0.78523585989E+02 0.  0.
        254    2    1    2    0    0 -0.16921182160E+03 -0.38281889998E+03  0.12040870713E+04  0.15615731822E+04  0.90194355549E+03 0.  0.
         23    2    4    4    0    0 -0.43797048601E+03 -0.44635262663E+03  0.10739772528E+04  0.12461362167E+04  0.91539702322E+02 0.  0.
         23    2    4    4    0    0  0.26875866441E+03  0.63533726652E+02  0.13010981849E+03  0.31543696549E+03  0.79398741863E+02 0.  0.
          4    1    3    3  502    0  0.30550661414E+02  0.16101929388E+03 -0.27105741948E+03  0.31675334342E+03  0.00000000000E+00 0. -1.
         -3    1    3    3    0  502  0.13866116018E+03  0.22179960610E+03 -0.47838715932E+03  0.54523046211E+03  0.00000000000E+00 0.  1.
         13    1    5    5    0    0 -0.35734319253E+03 -0.30766574513E+03  0.80743321023E+03  0.93504051086E+03  0.00000000000E+00 0. -1.
        -13    1    5    5    0    0 -0.80627293478E+02 -0.13868688150E+03  0.26654404256E+03  0.31109570582E+03  0.00000000000E+00 0.  1.
          1    1    6    6  503    0  0.90463330273E+02 -0.23354466788E+01  0.75005677901E+02  0.11753688848E+03  0.00000000000E+00 0. -1.
         -1    1    6    6    0  503  0.17829533414E+03  0.65869173331E+02  0.55104140592E+02  0.19790007701E+03  0.00000000000E+00 0.  1.
<mgrwt>
<rscale>  0 0.23805312E+04</rscale>
<asrwt>0</asrwt>
<pdfrwt beam="1">  1        2 0.22139996E+00 0.23805312E+04</pdfrwt>
<pdfrwt beam="2">  1       -1 0.15145496E+00 0.23805312E+04</pdfrwt>
<totfact> 0.47940756E+00</totfact>
</mgrwt>
</event>
<event>
12    7  0.1730932E-007  0.1356389E+04  0.7818608E-02  0.8986006E-01
         -1   -1    0    0    0  501 -0.00000000000E+00  0.00000000000E+00  0.18832445798E+03  0.18832445798E+03  0.00000000000E+00 0.  1.
          2   -1    0    0  501    0  0.00000000000E+00 -0.00000000000E+00 -0.24423162179E+04  0.24423162179E+04  0.00000000000E+00 0. -1.
         24    2    1    2    0    0 -0.31504275119E+03  0.16675408352E+03 -0.41043193848E+03  0.54927842941E+03  0.78699157862E+02 0.  0.
        254    2    1    2    0    0  0.31504275119E+03 -0.16675408352E+03 -0.18435598215E+04  0.20813622465E+04  0.89794049156E+03 0.  0.
         23    2    4    4    0    0 -0.71640092535E+02 -0.30829311525E+03 -0.20144278118E+03  0.38602299922E+03  0.90871415011E+02 0.  0.
         23    2    4    4    0    0  0.38668284373E+03  0.14153903174E+03 -0.16421170403E+04  0.16953392473E+04  0.89832456419E+02 0.  0.
          4    1    3    3  502    0 -0.11691329960E+03  0.78593755265E+02 -0.21682346558E+03  0.25856935862E+03  0.00000000000E+00 0. -1.
         -3    1    3    3    0  502 -0.19812945159E+03  0.88160328252E+02 -0.19360847290E+03  0.29070907079E+03  0.00000000000E+00 0.  1.
         13    1    5    5    0    0 -0.80290825511E+02 -0.20455429310E+03 -0.16824478050E+03  0.27675870655E+03  0.00000000000E+00 0.  1.
        -13    1    5    5    0    0  0.86507329757E+01 -0.10373882215E+03 -0.33198000674E+02  0.10926429266E+03  0.00000000000E+00 0. -1.
          1    1    6    6  503    0  0.29970230128E+03  0.10891590648E+03 -0.14036709870E+04  0.14394361340E+04  0.00000000000E+00 0. -1.
         -1    1    6    6    0  503  0.86980542443E+02  0.32623125257E+02 -0.23844605330E+03  0.25590311331E+03  0.00000000000E+00 0.  1.
<mgrwt>
<rscale>  0 0.13563891E+04</rscale>
<asrwt>0</asrwt>
<pdfrwt beam="1">  1        2 0.37574093E+00 0.13563891E+04</pdfrwt>
<pdfrwt beam="2">  1       -1 0.28972995E-01 0.13563891E+04</pdfrwt>
<totfact> 0.45502267E+01</totfact>
</mgrwt>
</event>
<event>
12    7  0.1730932E-007  0.1764938E+04  0.7818608E-02  0.8725171E-01
         -1   -1    0    0    0  501 -0.00000000000E+00  0.00000000000E+00  0.10324888772E+04  0.10324888772E+04  0.00000000000E+00 0.  1.
          2   -1    0    0  501    0  0.00000000000E+00 -0.00000000000E+00 -0.75424654422E+03  0.75424654422E+03  0.00000000000E+00 0. -1.
         24    2    1    2    0    0  0.62223036739E+03  0.45449543750E+02  0.27041594122E+03  0.68852872495E+03  0.10821613874E+03 0.  0.
        254    2    1    2    0    0 -0.62223036739E+03 -0.45449543750E+02  0.78263917811E+01  0.10982066965E+04  0.90374797629E+03 0.  0.
         23    2    4    4    0    0 -0.75208475168E+03  0.21945294355E+03  0.28592627202E+02  0.78917097645E+03  0.90455644318E+02 0.  0.
         23    2    4    4    0    0  0.12985438429E+03 -0.26490248730E+03 -0.20766235421E+02  0.30903572004E+03  0.89645696096E+02 0.  0.
          4    1    3    3  502    0  0.22255448991E+03  0.61336382901E+02  0.70608450243E+02  0.24140879456E+03  0.00000000000E+00 0. -1.
         -3    1    3    3    0  502  0.39967587748E+03 -0.15886839151E+02  0.19980749098E+03  0.44711993039E+03  0.00000000000E+00 0.  1.
         13    1    5    5    0    0 -0.37168703502E+03  0.13206874507E+03 -0.24791116182E+02  0.39523158384E+03  0.00000000000E+00 0. -1.
        -13    1    5    5    0    0 -0.38039771666E+03  0.87384198478E+02  0.53383743385E+02  0.39393939260E+03  0.00000000000E+00 0.  1.
          3    1    6    6  503    0  0.91142448385E+02 -0.16397410827E+03  0.29352767537E+02  0.18988427803E+03  0.00000000000E+00 0. -1.
         -3    1    6    6    0  503  0.38711935905E+02 -0.10092837903E+03 -0.50119002959E+02  0.11915144201E+03  0.00000000000E+00 0.  1.
<mgrwt>
<rscale>  0 0.17649376E+04</rscale>
<asrwt>0</asrwt>
<pdfrwt beam="1">  1        2 0.11603793E+00 0.17649376E+04</pdfrwt>
<pdfrwt beam="2">  1       -1 0.15884444E+00 0.17649376E+04</pdfrwt>
<totfact> 0.11998578E+01</totfact>
</mgrwt>
</event>
<event>
12    7  0.1730932E-007  0.1151564E+04  0.7818608E-02  0.9156342E-01
         -1   -1    0    0    0  501 -0.00000000000E+00  0.00000000000E+00  0.42864697660E+03  0.42864697660E+03  0.00000000000E+00 0.  1.
          2   -1    0    0  501    0  0.00000000000E+00 -0.00000000000E+00 -0.77342187041E+03  0.77342187041E+03  0.00000000000E+00 0. -1.
         24    2    1    2    0    0 -0.53228321923E+02 -0.53984473727E+02  0.14274371785E+03  0.17959316970E+03  0.78296615238E+02 0.  0.
        254    2    1    2    0    0  0.53228321923E+02  0.53984473727E+02 -0.48751861167E+03  0.10224756773E+04  0.89556380918E+03 0.  0.
         23    2    4    4    0    0  0.20471450231E+03  0.39357240382E+03 -0.44980264538E+03  0.63772356434E+03  0.86957807143E+02 0.  0.
         23    2    4    4    0    0 -0.15148618038E+03 -0.33958793009E+03 -0.37715966290E+02  0.38475211297E+03  0.91343687320E+02 0.  0.
          4    1    3    3  502    0  0.19346396018E+02 -0.17371324428E+02  0.49336641828E+02  0.55768720428E+02  0.00000000000E+00 0. -1.
         -3    1    3    3    0  502 -0.72574717941E+02 -0.36613149298E+02  0.93407076024E+02  0.12382444927E+03  0.00000000000E+00 0.  1.
         13    1    5    5    0    0  0.98721628824E+02  0.24578135339E+03 -0.21769197705E+03  0.34284724083E+03  0.00000000000E+00 0. -1.
        -13    1    5    5    0    0  0.10599287348E+03  0.14779105043E+03 -0.23211066832E+03  0.29487632351E+03  0.00000000000E+00 0.  1.
          2    1    6    6  503    0 -0.65220084843E+02 -0.57524015615E+02  0.28767135964E+01  0.87011190778E+02  0.00000000000E+00 0. -1.
         -2    1    6    6    0  503 -0.86266095540E+02 -0.28206391448E+03 -0.40592679887E+02  0.29774092220E+03  0.00000000000E+00 0.  1.
<mgrwt>
<rscale>  0 0.11515641E+04</rscale>
<asrwt>0</asrwt>
<pdfrwt beam="1">  1        2 0.11898798E+00 0.11515641E+04</pdfrwt>
<pdfrwt beam="2">  1       -1 0.65945689E-01 0.11515641E+04</pdfrwt>
<totfact> 0.94893298E+01</totfact>
</mgrwt>
</event>
<event>
12    7  0.1730932E-007  0.2048363E+04  0.7818608E-02  0.8584337E-01
          2   -1    0    0  501    0  0.00000000000E+00  0.00000000000E+00  0.23490947789E+04  0.23490947789E+04  0.00000000000E+00 0. -1.
         -1   -1    0    0    0  501 -0.00000000000E+00 -0.00000000000E+00 -0.44653284798E+03  0.44653284798E+03  0.00000000000E+00 0.  1.
         24    2    1    2    0    0  0.34659699226E+03  0.75552734618E+03  0.10564102385E+04  0.13467944710E+04  0.83076525552E+02 0.  0.
        254    2    1    2    0    0 -0.34659699226E+03 -0.75552734618E+03  0.84615169242E+03  0.14488331559E+04  0.83198183954E+03 0.  0.
         23    2    4    4    0    0 -0.19456556246E+03 -0.85214084774E+03  0.41234206820E+03  0.97033801295E+03  0.86776124000E+02 0.  0.
         23    2    4    4    0    0 -0.15203142979E+03  0.96613501556E+02  0.43380962422E+03  0.47849514300E+03  0.91209031786E+02 0.  0.
          2    1    3    3  502    0  0.20466018258E+03  0.44517236298E+03  0.68765203547E+03  0.84435155296E+03  0.00000000000E+00 0. -1.
         -1    1    3    3    0  502  0.14193680967E+03  0.31035498320E+03  0.36875820307E+03  0.50244291802E+03  0.00000000000E+00 0.  1.
         13    1    5    5    0    0 -0.11215980505E+02 -0.21690199436E+03  0.10039165520E+03  0.23927130586E+03  0.00000000000E+00 0. -1.
        -13    1    5    5    0    0 -0.18334958196E+03 -0.63523885338E+03  0.31195041300E+03  0.73106670709E+03  0.00000000000E+00 0.  1.
          3    1    6    6  503    0 -0.88017970852E+02  0.20224926315E+02  0.28839170759E+03  0.30220189914E+03  0.00000000000E+00 0. -1.
         -3    1    6    6    0  503 -0.64013458941E+02  0.76388575241E+02  0.14541791663E+03  0.17629324386E+03  0.00000000000E+00 0.  1.
<mgrwt>
<rscale>  0 0.20483632E+04</rscale>
<asrwt>0</asrwt>
<pdfrwt beam="1">  1        2 0.36139919E+00 0.20483632E+04</pdfrwt>
<pdfrwt beam="2">  1       -1 0.68697362E-01 0.20483632E+04</pdfrwt>
<totfact> 0.96043147E+00</totfact>
</mgrwt>
</event>
<event>
12    7  0.1730932E-007  0.1608141E+04  0.7818608E-02  0.8815562E-01
          2   -1    0    0  501    0  0.00000000000E+00  0.00000000000E+00  0.23062377715E+03  0.23062377715E+03  0.00000000000E+00 0. -1.
         -1   -1    0    0    0  501 -0.00000000000E+00 -0.00000000000E+00 -0.28033936876E+04  0.28033936876E+04  0.00000000000E+00 0.  1.
         24    2    1    2    0    0 -0.43156166991E+02 -0.50618577690E+03 -0.12821615324E+04  0.13812540119E+04  0.76406510269E+02 0.  0.
        254    2    1    2    0    0  0.43156166991E+02  0.50618577690E+03 -0.12906083780E+04  0.16527634528E+04  0.89881619365E+03 0.  0.
         23    2    4    4    0    0 -0.92946124907E+02 -0.47578570951E+02 -0.99351425723E+03  0.10030954507E+04  0.90703921280E+02 0.  0.
         23    2    4    4    0    0  0.13610229190E+03  0.55376434786E+03 -0.29709412076E+03  0.64966800207E+03  0.92869852541E+02 0.  0.
          4    1    3    3  502    0 -0.59102681511E+01 -0.76753142847E+01 -0.80924022180E+01  0.12622546995E+02  0.00000000000E+00 0. -1.
         -3    1    3    3    0  502 -0.37245898839E+02 -0.49851046262E+03 -0.12740691302E+04  0.13686314649E+04  0.00000000000E+00 0.  1.
         13    1    5    5    0    0 -0.95573957056E+02 -0.55519988888E+01 -0.72667696413E+03  0.73295608065E+03  0.00000000000E+00 0. -1.
        -13    1    5    5    0    0  0.26278321493E+01 -0.42026572062E+02 -0.26683729310E+03  0.27013937005E+03  0.00000000000E+00 0.  1.
          3    1    6    6  503    0  0.11998707633E+03  0.44374559629E+03 -0.19720536424E+03  0.50019696960E+03  0.00000000000E+00 0. -1.
         -3    1    6    6    0  503  0.16115215568E+02  0.11001875156E+03 -0.99888756520E+02  0.14947103247E+03  0.00000000000E+00 0.  1.
<mgrwt>
<rscale>  0 0.16081408E+04</rscale>
<asrwt>0</asrwt>
<pdfrwt beam="1">  1        2 0.35480582E-01 0.16081408E+04</pdfrwt>
<pdfrwt beam="2">  1       -1 0.43129133E+00 0.16081408E+04</pdfrwt>
<totfact> 0.70841540E-01</totfact>
</mgrwt>
</event>
<event>
12    7  0.1730932E-007  0.1711569E+04  0.7818608E-02  0.8754793E-01
          2   -1    0    0  501    0  0.00000000000E+00  0.00000000000E+00  0.11865419068E+04  0.11865419068E+04  0.00000000000E+00 0. -1.
         -1   -1    0    0    0  501 -0.00000000000E+00 -0.00000000000E+00 -0.61722839367E+03  0.61722839367E+03  0.00000000000E+00 0.  1.
         24    2    1    2    0    0 -0.38660711870E+03  0.33529352358E+03  0.54960591656E+03  0.75565656090E+03  0.84043817894E+02 0.  0.
        254    2    1    2    0    0  0.38660711870E+03 -0.33529352358E+03  0.19707596537E+02  0.10481137395E+04  0.91447646797E+03 0.  0.
         23    2    4    4    0    0  0.31538890332E+03 -0.43031320589E+03  0.37802821159E+03  0.65994434006E+03  0.89339732032E+02 0.  0.
         23    2    4    4    0    0  0.71218215389E+02  0.95019682303E+02 -0.35832061506E+03  0.38816939949E+03  0.90449130990E+02 0.  0.
          2    1    3    3  502    0 -0.19789273566E+03  0.14765928028E+03  0.31994116556E+03  0.40413753513E+03  0.00000000000E+00 0. -1.
         -1    1    3    3    0  502 -0.18871438305E+03  0.18763424331E+03  0.22966475100E+03  0.35151902577E+03  0.00000000000E+00 0.  1.
         13    1    5    5    0    0  0.23241305419E+02 -0.84478379099E+02  0.73160698703E+02  0.11414570797E+03  0.00000000000E+00 0. -1.
        -13    1    5    5    0    0  0.29214759790E+03 -0.34583482679E+03  0.30486751289E+03  0.54579863209E+03  0.00000000000E+00 0.  1.
          1    1    6    6  503    0  0.15396707266E+02 -0.17399755498E+02 -0.68633305291E+02  0.72459234616E+02  0.00000000000E+00 0. -1.
         -1    1    6    6    0  503  0.55821508123E+02  0.11241943780E+03 -0.28968730977E+03  0.31571016487E+03  0.00000000000E+00 0.  1.
<mgrwt>
<rscale>  0 0.17115693E+04</rscale>
<asrwt>0</asrwt>
<pdfrwt beam="1">  1        2 0.18254491E+00 0.17115693E+04</pdfrwt>
<pdfrwt beam="2">  1       -1 0.94958215E-01 0.17115693E+04</pdfrwt>
<totfact> 0.22423793E+01</totfact>
</mgrwt>
</event>
<event>
12    7  0.1730932E-007  0.1464935E+04  0.7818608E-02  0.8908111E-01
          2   -1    0    0  501    0  0.00000000000E+00  0.00000000000E+00  0.11113227387E+04  0.11113227387E+04  0.00000000000E+00 0. -1.
         -1   -1    0    0    0  501 -0.00000000000E+00 -0.00000000000E+00 -0.48276608914E+03  0.48276608914E+03  0.00000000000E+00 0.  1.
         24    2    1    2    0    0 -0.14477936405E+03  0.96204364221E+02 -0.25418255245E+03  0.31826384964E+03  0.80416192840E+02 0.  0.
        254    2    1    2    0    0  0.14477936405E+03 -0.96204364221E+02  0.88273920204E+03  0.12758249782E+04  0.90459080931E+03 0.  0.
         23    2    4    4    0    0  0.46728612309E+03 -0.47262533297E+02  0.20991964413E+03  0.52245468805E+03  0.91118473385E+02 0.  0.
         23    2    4    4    0    0 -0.32250675904E+03 -0.48941830924E+02  0.67281955791E+03  0.75337029017E+03  0.92058265069E+02 0.  0.
          4    1    3    3  502    0 -0.92558765778E+02  0.35074516101E+02 -0.83130723194E+02  0.12925967639E+03  0.00000000000E+00 0. -1.
         -3    1    3    3    0  502 -0.52220598267E+02  0.61129848120E+02 -0.17105182926E+03  0.18900417325E+03  0.00000000000E+00 0.  1.
         13    1    5    5    0    0  0.26224914900E+03 -0.14978302005E+01  0.74954445831E+02  0.27275452077E+03  0.00000000000E+00 0.  1.
        -13    1    5    5    0    0  0.20503697408E+03 -0.45764703097E+02  0.13496519829E+03  0.24970016728E+03  0.00000000000E+00 0. -1.
          3    1    6    6  503    0 -0.17051768356E+03 -0.32002122344E+02  0.25483693036E+03  0.30828927538E+03  0.00000000000E+00 0. -1.
         -3    1    6    6    0  503 -0.15198907548E+03 -0.16939708580E+02  0.41798262755E+03  0.44508101479E+03  0.00000000000E+00 0.  1.
<mgrwt>
<rscale>  0 0.14649354E+04</rscale>
<asrwt>0</asrwt>
<pdfrwt beam="1">  1        2 0.17097273E+00 0.14649354E+04</pdfrwt>
<pdfrwt beam="2">  1       -1 0.74271706E-01 0.14649354E+04</pdfrwt>
<totfact> 0.43228376E+01</totfact>
</mgrwt>
</event>
<event>
12    7  0.1730932E-007  0.1941064E+04  0.7818608E-02  0.8634682E-01
         -1   -1    0    0    0  501 -0.00000000000E+00  0.00000000000E+00  0.13028375918E+04  0.13028375918E+04  0.00000000000E+00 0.  1.
          2   -1    0    0  501    0  0.00000000000E+00 -0.00000000000E+00 -0.72298540624E+03  0.72298540624E+03  0.00000000000E+00 0. -1.
         24    2    1    2    0    0 -0.25415879956E+03  0.53367035955E+03  0.78022966189E+03  0.98256478983E+03  0.85290637669E+02 0.  0.
        254    2    1    2    0    0  0.25415879956E+03 -0.53367035955E+03 -0.20037747631E+03  0.10432582082E+04  0.83596399920E+03 0.  0.
         23    2    4    4    0    0  0.26712373263E+03  0.53811322445E+02  0.17872768931E+03  0.33814064559E+03  0.90248336902E+02 0.  0.
         23    2    4    4    0    0 -0.12964933070E+02 -0.58748168199E+03 -0.37910516562E+03  0.70511756263E+03  0.90372752364E+02 0.  0.
          4    1    3    3  502    0 -0.93918853580E+01  0.43127083536E+02  0.29959639254E+02  0.53345410573E+02  0.00000000000E+00 0. -1.
         -1    1    3    3    0  502 -0.24476691420E+03  0.49054327601E+03  0.75027002264E+03  0.92921937926E+03  0.00000000000E+00 0.  1.
         13    1    5    5    0    0  0.22258926685E+02 -0.19473113977E+02  0.75640908850E+01  0.30526667948E+02  0.00000000000E+00 0.  1.
        -13    1    5    5    0    0  0.24486480595E+03  0.73284436422E+02  0.17116359842E+03  0.30761397764E+03  0.00000000000E+00 0. -1.
          2    1    6    6  503    0 -0.25975835134E+02 -0.82350668242E+02 -0.81241352667E+02  0.11856025453E+03  0.00000000000E+00 0.  1.
         -2    1    6    6    0  503  0.13010902064E+02 -0.50513101375E+03 -0.29786381295E+03  0.58655730811E+03  0.00000000000E+00 0. -1.
<mgrwt>
<rscale>  0 0.19410642E+04</rscale>
<asrwt>0</asrwt>
<pdfrwt beam="1">  1        2 0.11122852E+00 0.19410642E+04</pdfrwt>
<pdfrwt beam="2">  1       -1 0.20043655E+00 0.19410642E+04</pdfrwt>
<totfact> 0.62616972E+00</totfact>
</mgrwt>
</event>
<event>
12    7  0.1730932E-007  0.2310427E+04  0.7818608E-02  0.8473821E-01
         -1   -1    0    0    0  501 -0.00000000000E+00  0.00000000000E+00  0.49772239079E+03  0.49772239079E+03  0.00000000000E+00 0.  1.
          2   -1    0    0  501    0  0.00000000000E+00 -0.00000000000E+00 -0.26812499230E+04  0.26812499230E+04  0.00000000000E+00 0. -1.
         24    2    1    2    0    0  0.53377335622E+03  0.70635778990E+03 -0.16049439219E+04  0.18345422647E+04  0.76452635880E+02 0.  0.
        254    2    1    2    0    0 -0.53377335622E+03 -0.70635778990E+03 -0.57858361034E+03  0.13444300491E+04  0.82998665020E+03 0.  0.
         23    2    4    4    0    0 -0.12716802601E+03 -0.74313504846E+03 -0.52167604152E+03  0.92118650284E+03  0.89539229627E+02 0.  0.
         23    2    4    4    0    0 -0.40660533022E+03  0.36777258551E+02 -0.56907568821E+02  0.42324354622E+03  0.96000868354E+02 0.  0.
          4    1    3    3  502    0  0.47904450862E+03  0.66208710203E+03 -0.14520193229E+04  0.16661941921E+04  0.00000000000E+00 0. -1.
         -3    1    3    3    0  502  0.54728847604E+02  0.44270687874E+02 -0.15292459900E+03  0.16834807259E+03  0.00000000000E+00 0.  1.
         13    1    5    5    0    0 -0.10554928439E+03 -0.62972176522E+03 -0.47856844269E+03  0.79794605542E+03  0.00000000000E+00 0. -1.
        -13    1    5    5    0    0 -0.21618741622E+02 -0.11341328324E+03 -0.43107598834E+02  0.12324044742E+03  0.00000000000E+00 0.  1.
          3    1    6    6  503    0  0.37676053367E+01 -0.60251676545E+00  0.52709543598E+01  0.65069836552E+01  0.00000000000E+00 0. -1.
         -3    1    6    6    0  503 -0.41037293555E+03  0.37379775316E+02 -0.62178523180E+02  0.41673656257E+03  0.00000000000E+00 0.  1.
<mgrwt>
<rscale>  0 0.23104269E+04</rscale>
<asrwt>0</asrwt>
<pdfrwt beam="1">  1        2 0.41249998E+00 0.23104269E+04</pdfrwt>
<pdfrwt beam="2">  1       -1 0.76572677E-01 0.23104269E+04</pdfrwt>
<totfact> 0.48069106E+00</totfact>
</mgrwt>
</event>
<event>
12    7  0.1730932E-007  0.1922969E+04  0.7818608E-02  0.8643507E-01
         -1   -1    0    0    0  501 -0.00000000000E+00  0.00000000000E+00  0.26773547150E+03  0.26773547150E+03  0.00000000000E+00 0.  1.
          2   -1    0    0  501    0  0.00000000000E+00 -0.00000000000E+00 -0.34528569222E+04  0.34528569222E+04  0.00000000000E+00 0. -1.
         24    2    1    2    0    0 -0.15789942007E+03  0.23748332417E+03  0.81495318286E+02  0.30704812910E+03  0.79413541440E+02 0.  0.
        254    2    1    2    0    0  0.15789942007E+03 -0.23748332417E+03 -0.32666167690E+04  0.34135442646E+04  0.94877224608E+03 0.  0.
         23    2    4    4    0    0 -0.21945887126E+03  0.70635968565E+02 -0.24160265274E+04  0.24291156184E+04  0.10132556483E+03 0.  0.
         23    2    4    4    0    0  0.37735829133E+03 -0.30811929273E+03 -0.85059024162E+03  0.98442864628E+03  0.90880261204E+02 0.  0.
          4    1    3    3  502    0 -0.12659217101E+03  0.21879809223E+03  0.47512708931E+02  0.25720738799E+03  0.00000000000E+00 0. -1.
         -3    1    3    3    0  502 -0.31307249054E+02  0.18685231940E+02  0.33982609355E+02  0.49840741111E+02  0.00000000000E+00 0.  1.
         13    1    5    5    0    0 -0.16611921145E+03  0.72095774391E+02 -0.13963046808E+04  0.14079986345E+04  0.00000000000E+00 0. -1.
        -13    1    5    5    0    0 -0.53339659811E+02 -0.14598058260E+01 -0.10197218466E+04  0.10211169839E+04  0.00000000000E+00 0.  1.
          3    1    6    6  503    0  0.10785715979E+03 -0.10517863515E+03 -0.18817054810E+03  0.24104743803E+03  0.00000000000E+00 0. -1.
         -3    1    6    6    0  503  0.26950113153E+03 -0.20294065758E+03 -0.66241969353E+03  0.74338120824E+03  0.00000000000E+00 0.  1.
<mgrwt>
<rscale>  0 0.19229688E+04</rscale>
<asrwt>0</asrwt>
<pdfrwt beam="1">  1        2 0.53120879E+00 0.19229688E+04</pdfrwt>
<pdfrwt beam="2">  1       -1 0.41190070E-01 0.19229688E+04</pdfrwt>
<totfact> 0.54182085E+00</totfact>
</mgrwt>
</event>
<event>
12    7  0.1730932E-007  0.2543378E+04  0.7818608E-02  0.8387693E-01
          2   -1    0    0  501    0  0.00000000000E+00  0.00000000000E+00  0.13721373656E+04  0.13721373656E+04  0.00000000000E+00 0. -1.
         -1   -1    0    0    0  501 -0.00000000000E+00 -0.00000000000E+00 -0.11785940410E+04  0.11785940410E+04  0.00000000000E+00 0.  1.
         24    2    1    2    0    0  0.10759424734E+04  0.25709372997E+03  0.30797633328E+02  0.11095950702E+04  0.80643249471E+02 0.  0.
        254    2    1    2    0    0 -0.10759424734E+04 -0.25709372997E+03  0.16274569131E+03  0.14411363364E+04  0.90919656186E+03 0.  0.
         23    2    4    4    0    0 -0.69134349837E+03 -0.47574910542E+03 -0.19331629032E+03  0.86587358326E+03  0.89848928949E+02 0.  0.
         23    2    4    4    0    0 -0.38459897499E+03  0.21865537544E+03  0.35606198164E+03  0.57526275315E+03  0.91763585492E+02 0.  0.
          2    1    3    3  502    0  0.41781635189E+03  0.82384965097E+02  0.47258098787E+02  0.42847533684E+03  0.00000000000E+00 0. -1.
         -1    1    3    3    0  502  0.65812612147E+03  0.17470876488E+03 -0.16460465459E+02  0.68111973339E+03  0.00000000000E+00 0.  1.
         13    1    5    5    0    0 -0.41252089240E+02 -0.72849245422E+01 -0.13988894880E+01  0.41913743379E+02  0.00000000000E+00 0. -1.
        -13    1    5    5    0    0 -0.65009140913E+03 -0.46846418088E+03 -0.19191740083E+03  0.82395983988E+03  0.00000000000E+00 0.  1.
          2    1    6    6  503    0 -0.12549490354E+03  0.28713034430E+02  0.12581238146E+03  0.18000601237E+03  0.00000000000E+00 0. -1.
         -2    1    6    6    0  503 -0.25910407144E+03  0.18994234101E+03  0.23024960018E+03  0.39525674078E+03  0.00000000000E+00 0.  1.
<mgrwt>
<rscale>  0 0.25433780E+04</rscale>
<asrwt>0</asrwt>
<pdfrwt beam="1">  1        2 0.21109806E+00 0.25433780E+04</pdfrwt>
<pdfrwt beam="2">  1       -1 0.18132216E+00 0.25433780E+04</pdfrwt>
<totfact> 0.30952071E+00</totfact>
</mgrwt>
</event>
<event>
12    7  0.1730932E-007  0.1233029E+04  0.7818608E-02  0.9084428E-01
          2   -1    0    0  501    0  0.00000000000E+00  0.00000000000E+00  0.68975227866E+03  0.68975227866E+03  0.00000000000E+00 0. -1.
         -1   -1    0    0    0  501 -0.00000000000E+00 -0.00000000000E+00 -0.55105282459E+03  0.55105282459E+03  0.00000000000E+00 0.  1.
         24    2    1    2    0    0 -0.21795663400E+02  0.27477754104E+03  0.22166202132E+02  0.28828956863E+03  0.81497158607E+02 0.  0.
        254    2    1    2    0    0  0.21795663400E+02 -0.27477754104E+03  0.11653325194E+03  0.95251553462E+03  0.90428319506E+03 0.  0.
         23    2    4    4    0    0 -0.42522135522E+03 -0.57093088381E+02  0.35825439192E+02  0.44067026012E+03  0.93989331266E+02 0.  0.
         23    2    4    4    0    0  0.44701701862E+03 -0.21768445266E+03  0.80707812746E+02  0.51184527449E+03  0.90890583222E+02 0.  0.
          2    1    3    3  502    0 -0.47123908244E+02  0.11722229736E+03  0.24505040341E+02  0.12869431506E+03  0.00000000000E+00 0. -1.
         -1    1    3    3    0  502  0.25328244844E+02  0.15755524369E+03 -0.23388382095E+01  0.15959525358E+03  0.00000000000E+00 0.  1.
         13    1    5    5    0    0 -0.29560093357E+03 -0.36629997981E+02 -0.18966251655E+02  0.29846505220E+03  0.00000000000E+00 0.  1.
        -13    1    5    5    0    0 -0.12962042164E+03 -0.20463090400E+02  0.54791690847E+02  0.14220520793E+03  0.00000000000E+00 0. -1.
          1    1    6    6  503    0  0.14206926309E+02  0.77776121722E+01  0.91799406590E+01  0.18617178002E+02  0.00000000000E+00 0. -1.
         -1    1    6    6    0  503  0.43281009231E+03 -0.22546206483E+03  0.71527872086E+02  0.49322809649E+03  0.00000000000E+00 0.  1.
<mgrwt>
<rscale>  0 0.12330287E+04</rscale>
<asrwt>0</asrwt>
<pdfrwt beam="1">  1        2 0.10611574E+00 0.12330287E+04</pdfrwt>
<pdfrwt beam="2">  1       -1 0.84777357E-01 0.12330287E+04</pdfrwt>
<totfact> 0.64679083E+01</totfact>
</mgrwt>
</event>
<event>
12    7  0.1730932E-007  0.1481046E+04  0.7818608E-02  0.8897156E-01
          2   -1    0    0  501    0  0.00000000000E+00  0.00000000000E+00  0.69538021163E+03  0.69538021163E+03  0.00000000000E+00 0. -1.
         -1   -1    0    0    0  501 -0.00000000000E+00 -0.00000000000E+00 -0.78859660356E+03  0.78859660356E+03  0.00000000000E+00 0.  1.
         24    2    1    2    0    0 -0.19297147626E+03  0.38259335759E+03  0.15062536926E+03  0.46099240418E+03  0.78805627486E+02 0.  0.
        254    2    1    2    0    0  0.19297147626E+03 -0.38259335759E+03 -0.24384176119E+03  0.10229844110E+04  0.89633845881E+03 0.  0.
         23    2    4    4    0    0  0.24749865250E+03 -0.58705457966E+03 -0.38745966094E+03  0.75119950034E+03  0.91033169534E+02 0.  0.
         23    2    4    4    0    0 -0.54527176238E+02  0.20446122208E+03  0.14361789975E+03  0.27178491067E+03  0.91996370911E+02 0.  0.
          4    1    3    3  502    0 -0.18353050377E+03  0.35562488262E+03  0.15989791129E+03  0.43095225373E+03  0.00000000000E+00 0. -1.
         -3    1    3    3    0  502 -0.94409724904E+01  0.26968474964E+02 -0.92725420310E+01  0.30040150452E+02  0.00000000000E+00 0.  1.
         13    1    5    5    0    0  0.23743411504E+02 -0.12986203831E+02 -0.11389094347E+02  0.29361582890E+02  0.00000000000E+00 0.  1.
        -13    1    5    5    0    0  0.22375524100E+03 -0.57406837583E+03 -0.37607056660E+03  0.72183791745E+03  0.00000000000E+00 0. -1.
          4    1    6    6  503    0 -0.20864698484E+02  0.51986090407E+01  0.38248189699E+02  0.43878071904E+02  0.00000000000E+00 0.  1.
         -4    1    6    6    0  503 -0.33662477754E+02  0.19926261303E+03  0.10536971005E+03  0.22790683877E+03  0.00000000000E+00 0. -1.
<mgrwt>
<rscale>  0 0.14810462E+04</rscale>
<asrwt>0</asrwt>
<pdfrwt beam="1">  1        2 0.10698157E+00 0.14810462E+04</pdfrwt>
<pdfrwt beam="2">  1       -1 0.12132256E+00 0.14810462E+04</pdfrwt>
<totfact> 0.27525476E+01</totfact>
</mgrwt>
</event>
<event>
12    7  0.1730932E-007  0.1227649E+04  0.7818608E-02  0.9088994E-01
         -1   -1    0    0    0  501 -0.00000000000E+00  0.00000000000E+00  0.31392005776E+03  0.31392005776E+03  0.00000000000E+00 0.  1.
          2   -1    0    0  501    0  0.00000000000E+00 -0.00000000000E+00 -0.12002427211E+04  0.12002427211E+04  0.00000000000E+00 0. -1.
         24    2    1    2    0    0  0.24755374472E+03 -0.89108051006E+02 -0.28761239317E+03  0.39885885748E+03  0.84524542016E+02 0.  0.
        254    2    1    2    0    0 -0.24755374472E+03  0.89108051006E+02 -0.59871027021E+03  0.11153039214E+04  0.90345212835E+03 0.  0.
         23    2    4    4    0    0  0.16020650791E+03  0.25625885714E+03  0.56570093232E+02  0.32068343704E+03  0.91120603044E+02 0.  0.
         23    2    4    4    0    0 -0.40776025264E+03 -0.16715080614E+03 -0.65528036344E+03  0.79462048439E+03  0.88439492748E+02 0.  0.
          2    1    3    3  502    0  0.56518705327E+02 -0.58782329112E+01 -0.11500124124E+03  0.12827393797E+03  0.00000000000E+00 0. -1.
         -3    1    3    3    0  502  0.19103503940E+03 -0.83229818095E+02 -0.17261115192E+03  0.27058491951E+03  0.00000000000E+00 0.  1.
         13    1    5    5    0    0  0.85852314669E+02  0.20834265744E+03  0.56139982805E+02  0.23222614089E+03  0.00000000000E+00 0.  1.
        -13    1    5    5    0    0  0.74354193243E+02  0.47916199709E+02  0.43011042726E+00  0.88457296151E+02  0.00000000000E+00 0. -1.
          1    1    6    6  503    0 -0.51774775961E+02 -0.60486635657E+00 -0.44266993905E+02  0.68121656164E+02  0.00000000000E+00 0. -1.
         -1    1    6    6    0  503 -0.35598547668E+03 -0.16654593978E+03 -0.61101336954E+03  0.72649882823E+03  0.00000000000E+00 0.  1.
<mgrwt>
<rscale>  0 0.12276486E+04</rscale>
<asrwt>0</asrwt>
<pdfrwt beam="1">  1        2 0.18465272E+00 0.12276486E+04</pdfrwt>
<pdfrwt beam="2">  1       -1 0.48295395E-01 0.12276486E+04</pdfrwt>
<totfact> 0.91125899E+01</totfact>
</mgrwt>
</event>
<event>
12    7  0.1730932E-007  0.1439334E+04  0.7818608E-02  0.8925829E-01
          2   -1    0    0  501    0  0.00000000000E+00  0.00000000000E+00  0.57558882762E+03  0.57558882762E+03  0.00000000000E+00 0. -1.
         -1   -1    0    0    0  501 -0.00000000000E+00 -0.00000000000E+00 -0.89980970193E+03  0.89980970193E+03  0.00000000000E+00 0.  1.
         24    2    1    2    0    0 -0.78513325735E+02 -0.29469329658E+03 -0.41826546390E+03  0.52409069647E+03  0.81954734276E+02 0.  0.
        254    2    1    2    0    0  0.78513325735E+02  0.29469329658E+03  0.94044589597E+02  0.95130783308E+03  0.89617728552E+03 0.  0.
         23    2    4    4    0    0 -0.82328078878E+01  0.44695139200E+03 -0.27561167330E+03  0.53278961014E+03  0.89831221029E+02 0.  0.
         23    2    4    4    0    0  0.86746133623E+02 -0.15225809543E+03  0.36965626290E+03  0.41851822294E+03  0.88342124225E+02 0.  0.
          2    1    3    3  502    0 -0.60683502490E+01 -0.87608004597E+01 -0.55622174614E+02  0.56633936895E+02  0.00000000000E+00 0. -1.
         -1    1    3    3    0  502 -0.72444975486E+02 -0.28593249612E+03 -0.36264328929E+03  0.46745675958E+03  0.00000000000E+00 0.  1.
         13    1    5    5    0    0  0.29810755471E+02  0.29030304028E+03 -0.20593091260E+03  0.35717233530E+03  0.00000000000E+00 0. -1.
        -13    1    5    5    0    0 -0.38043563359E+02  0.15664835172E+03 -0.69680760704E+02  0.17561727484E+03  0.00000000000E+00 0.  1.
          3    1    6    6  503    0  0.75529248983E+02 -0.14866924035E+03  0.37091341981E+03  0.40667428672E+03  0.00000000000E+00 0. -1.
         -3    1    6    6    0  503  0.11216884640E+02 -0.35888550736E+01 -0.12571569155E+01  0.11843936224E+02  0.00000000000E+00 0.  1.
<mgrwt>
<rscale>  0 0.14393338E+04</rscale>
<asrwt>0</asrwt>
<pdfrwt beam="1">  1        2 0.88552127E-01 0.14393338E+04</pdfrwt>
<pdfrwt beam="2">  1       -1 0.13843226E+00 0.14393338E+04</pdfrwt>
<totfact> 0.24971948E+01</totfact>
</mgrwt>
</event>
<event>
12    7  0.1730932E-007  0.1885179E+04  0.7818608E-02  0.8662269E-01
         -1   -1    0    0    0  501 -0.00000000000E+00  0.00000000000E+00  0.75583265429E+03  0.75583265429E+03  0.00000000000E+00 0.  1.
          2   -1    0    0  501    0  0.00000000000E+00 -0.00000000000E+00 -0.11754919498E+04  0.11754919498E+04  0.00000000000E+00 0. -1.
         24    2    1    2    0    0  0.69125592776E+03  0.54931147549E+02  0.12246906185E+03  0.70897255735E+03  0.82408903206E+02 0.  0.
        254    2    1    2    0    0 -0.69125592776E+03 -0.54931147549E+02 -0.54212835732E+03  0.12223520467E+04  0.84816813289E+03 0.  0.
         23    2    4    4    0    0 -0.54922612688E+03  0.29939805065E+03 -0.11525426581E+03  0.64256689910E+03  0.91214817016E+02 0.  0.
         23    2    4    4    0    0 -0.14202980088E+03 -0.35432919820E+03 -0.42687409152E+03  0.57978514761E+03  0.90596260100E+02 0.  0.
          2    1    3    3  502    0  0.11170696300E+03  0.39569022918E+02  0.24105619154E+02  0.12093483382E+03  0.00000000000E+00 0. -1.
         -1    1    3    3    0  502  0.57954896476E+03  0.15362124632E+02  0.98363442700E+02  0.58803772352E+03  0.00000000000E+00 0.  1.
         13    1    5    5    0    0 -0.16040133426E+01  0.10433601036E+02  0.52103671657E+01  0.11772035312E+02  0.00000000000E+00 0. -1.
        -13    1    5    5    0    0 -0.54762211354E+03  0.28896444962E+03 -0.12046463297E+03  0.63079486379E+03  0.00000000000E+00 0.  1.
          3    1    6    6  503    0 -0.68874412090E+02 -0.23775817424E+03 -0.21913629441E+03  0.33059544701E+03  0.00000000000E+00 0. -1.
         -3    1    6    6    0  503 -0.73155388786E+02 -0.11657102397E+03 -0.20773779711E+03  0.24918970060E+03  0.00000000000E+00 0.  1.
<mgrwt>
<rscale>  0 0.18851792E+04</rscale>
<asrwt>0</asrwt>
<pdfrwt beam="1">  1        2 0.18084492E+00 0.18851792E+04</pdfrwt>
<pdfrwt beam="2">  1       -1 0.11628195E+00 0.18851792E+04</pdfrwt>
<totfact> 0.14003053E+01</totfact>
</mgrwt>
</event>
<event>
12    7  0.1730932E-007  0.1961870E+04  0.7818608E-02  0.8624658E-01
         -1   -1    0    0    0  501 -0.00000000000E+00  0.00000000000E+00  0.18210373758E+04  0.18210373758E+04  0.00000000000E+00 0.  1.
          2   -1    0    0  501    0  0.00000000000E+00 -0.00000000000E+00 -0.52839873243E+03  0.52839873243E+03  0.00000000000E+00 0. -1.
         24    2    1    2    0    0 -0.17085863205E+03 -0.35572978173E+03 -0.29099181090E+03  0.49501572034E+03  0.68029255607E+02 0.  0.
        254    2    1    2    0    0  0.17085863205E+03  0.35572978173E+03  0.15836304543E+04  0.18544203879E+04  0.88048464470E+03 0.  0.
         23    2    4    4    0    0  0.25819923706E+03 -0.42748727458E+02  0.72353214186E+02  0.28632215893E+03  0.90835518234E+02 0.  0.
         23    2    4    4    0    0 -0.87340605018E+02  0.39847850919E+03  0.15112772401E+04  0.15680982289E+04  0.92518407250E+02 0.  0.
          2    1    3    3  502    0 -0.10511006286E+03 -0.15825940304E+03 -0.16564474303E+03  0.25205623353E+03  0.00000000000E+00 0. -1.
         -1    1    3    3    0  502 -0.65748569184E+02 -0.19747037869E+03 -0.12534706787E+03  0.24295948681E+03  0.00000000000E+00 0.  1.
         13    1    5    5    0    0  0.62130689772E+02 -0.43481130551E+02 -0.39288246632E+01  0.75935940033E+02  0.00000000000E+00 0. -1.
        -13    1    5    5    0    0  0.19606854729E+03  0.73240309311E+00  0.76282038849E+02  0.21038621890E+03  0.00000000000E+00 0.  1.
          4    1    6    6  503    0 -0.40413678880E+02  0.14562304835E+03  0.40381985063E+03  0.43117259817E+03  0.00000000000E+00 0. -1.
         -4    1    6    6    0  503 -0.46926926138E+02  0.25285546084E+03  0.11074573894E+04  0.11369256308E+04  0.00000000000E+00 0.  1.
<mgrwt>
<rscale>  0 0.19618704E+04</rscale>
<asrwt>0</asrwt>
<pdfrwt beam="1">  1        2 0.81292114E-01 0.19618704E+04</pdfrwt>
<pdfrwt beam="2">  1       -1 0.28015959E+00 0.19618704E+04</pdfrwt>
<totfact> 0.27294978E+00</totfact>
</mgrwt>
</event>
<event>
12    7  0.1730932E-007  0.1700840E+04  0.7818608E-02  0.8760886E-01
         -1   -1    0    0    0  501 -0.00000000000E+00  0.00000000000E+00  0.39497072387E+03  0.39497072387E+03  0.00000000000E+00 0.  1.
          2   -1    0    0  501    0  0.00000000000E+00 -0.00000000000E+00 -0.18310573092E+04  0.18310573092E+04  0.00000000000E+00 0. -1.
         24    2    1    2    0    0 -0.19881132009E+03 -0.53011518423E+03 -0.78874918531E+03  0.97437364516E+03  0.82040682001E+02 0.  0.
        254    2    1    2    0    0  0.19881132009E+03  0.53011518423E+03 -0.64733740002E+03  0.12516543879E+04  0.90942011620E+03 0.  0.
         23    2    4    4    0    0 -0.18589317794E+03  0.41433454690E+03  0.23618678138E+02  0.46409272140E+03  0.92708261426E+02 0.  0.
         23    2    4    4    0    0  0.38470449802E+03  0.11578063733E+03 -0.67095607816E+03  0.78756166651E+03  0.93105386316E+02 0.  0.
          2    1    3    3  502    0 -0.13980140070E+03 -0.31976126632E+03 -0.42344440201E+03  0.54872293616E+03  0.00000000000E+00 0. -1.
         -1    1    3    3    0  502 -0.59009919384E+02 -0.21035391791E+03 -0.36530478330E+03  0.42565070900E+03  0.00000000000E+00 0.  1.
         13    1    5    5    0    0 -0.43302964363E+01  0.97508762009E+02 -0.55833511967E+01  0.97764430885E+02  0.00000000000E+00 0. -1.
        -13    1    5    5    0    0 -0.18156288150E+03  0.31682578489E+03  0.29202029334E+02  0.36632829051E+03  0.00000000000E+00 0.  1.
          4    1    6    6  503    0  0.46020810441E+02  0.12910997845E+02 -0.33309136784E+02  0.58258968858E+02  0.00000000000E+00 0. -1.
         -4    1    6    6    0  503  0.33868368758E+03  0.10286963948E+03 -0.63764694137E+03  0.72930269765E+03  0.00000000000E+00 0.  1.
<mgrwt>
<rscale>  0 0.17008398E+04</rscale>
<asrwt>0</asrwt>
<pdfrwt beam="1">  1        2 0.28170112E+00 0.17008398E+04</pdfrwt>
<pdfrwt beam="2">  1       -1 0.60764729E-01 0.17008398E+04</pdfrwt>
<totfact> 0.24685262E+01</totfact>
</mgrwt>
</event>
<event>
12    7  0.1730932E-007  0.4462324E+04  0.7818608E-02  0.7917266E-01
         -1   -1    0    0    0  501 -0.00000000000E+00  0.00000000000E+00  0.21023285812E+04  0.21023285812E+04  0.00000000000E+00 0.  1.
          2   -1    0    0  501    0  0.00000000000E+00 -0.00000000000E+00 -0.23678906583E+04  0.23678906583E+04  0.00000000000E+00 0. -1.
         24    2    1    2    0    0 -0.20416196638E+04  0.19006235136E+03  0.46394861156E+03  0.21037574701E+04  0.78820237444E+02 0.  0.
        254    2    1    2    0    0  0.20416196638E+04 -0.19006235136E+03 -0.72951068870E+03  0.23664617694E+04  0.92931206398E+03 0.  0.
         23    2    4    4    0    0 -0.71742802783E+02  0.42652584605E+02 -0.55839042213E+02  0.13391886873E+03  0.88600180827E+02 0.  0.
         23    2    4    4    0    0  0.21133624665E+04 -0.23271493596E+03 -0.67367164648E+03  0.22325429007E+04  0.99785568313E+02 0.  0.
          2    1    3    3  502    0 -0.10937240208E+04  0.13048488458E+03  0.22141927316E+03  0.11235145897E+04  0.00000000000E+00 0. -1.
         -1    1    3    3    0  502 -0.94789564299E+03  0.59577466777E+02  0.24252933839E+03  0.98024288038E+03  0.00000000000E+00 0.  1.
         13    1    5    5    0    0 -0.87737285110E+01  0.58673154028E+01  0.23738840379E+02  0.25979535110E+02  0.00000000000E+00 0. -1.
        -13    1    5    5    0    0 -0.62969074272E+02  0.36785269202E+02 -0.79577882592E+02  0.10793933362E+03  0.00000000000E+00 0.  1.
          1    1    6    6  503    0  0.10860289601E+04 -0.16898026674E+03 -0.33871456054E+03  0.11501046849E+04  0.00000000000E+00 0. -1.
         -1    1    6    6    0  503  0.10273335064E+04 -0.63734669229E+02 -0.33495708594E+03  0.10824382158E+04  0.00000000000E+00 0.  1.
<mgrwt>
<rscale>  0 0.44623242E+04</rscale>
<asrwt>0</asrwt>
<pdfrwt beam="1">  1        2 0.36429087E+00 0.44623242E+04</pdfrwt>
<pdfrwt beam="2">  1       -1 0.32343517E+00 0.44623242E+04</pdfrwt>
<totfact> 0.83323358E-02</totfact>
</mgrwt>
</event>
<event>
12    7  0.2649379E-007  0.2166424E+04  0.7818608E-02  0.8532535E-01
         -1   -1    0    0    0  501 -0.00000000000E+00  0.00000000000E+00  0.41020908503E+03  0.41020908503E+03  0.00000000000E+00 0.  1.
          2   -1    0    0  501    0  0.00000000000E+00 -0.00000000000E+00 -0.28603658212E+04  0.28603658212E+04  0.00000000000E+00 0. -1.
         24    2    1    2    0    0 -0.53223754586E+03  0.28032617682E+03 -0.17803191283E+04  0.18809504675E+04  0.81110368374E+02 0.  0.
        254    2    1    2    0    0  0.53223754586E+03 -0.28032617682E+03 -0.66983760789E+03  0.13896244388E+04  0.10585433809E+04 0.  0.
         23    2    4    4    0    0  0.43643902303E+03 -0.11967244407E+03  0.19418382350E+03  0.50099531733E+03  0.92132708582E+02 0.  0.
         23    2    4    4    0    0  0.95798522837E+02 -0.16065373275E+03 -0.86402143140E+03  0.88862912145E+03  0.90231384510E+02 0.  0.
          4    1    3    3  502    0 -0.47060184692E+03  0.25388581364E+03 -0.16484443648E+04  0.17330011335E+04  0.00000000000E+00 0. -1.
         -3    1    3    3    0  502 -0.61635698947E+02  0.26440363173E+02 -0.13187476346E+03  0.14794933399E+03  0.00000000000E+00 0.  1.
         13    1    5    5    0    0  0.61395938239E+02 -0.12124782791E+02 -0.52841172316E+01  0.62804406573E+02  0.00000000000E+00 0. -1.
        -13    1    5    5    0    0  0.37504308479E+03 -0.10754766128E+03  0.19946794073E+03  0.43819091076E+03  0.00000000000E+00 0.  1.
          1    1    6    6  503    0 -0.19152817847E+01 -0.14422468375E+02 -0.12643039708E+02  0.19274915082E+02  0.00000000000E+00 0. -1.
         -1    1    6    6    0  503  0.97713804622E+02 -0.14623126437E+03 -0.85137839169E+03  0.86935420637E+03  0.00000000000E+00 0.  1.
<mgrwt>
<rscale>  0 0.21664238E+04</rscale>
<asrwt>0</asrwt>
<pdfrwt beam="1">  1        2 0.44005626E+00 0.21664238E+04</pdfrwt>
<pdfrwt beam="2">  1       -1 0.63109093E-01 0.21664238E+04</pdfrwt>
<totfact> 0.56491694E+00</totfact>
</mgrwt>
</event>
<event>
12    7  0.1730932E-007  0.2408001E+04  0.7818608E-02  0.8436514E-01
          2   -1    0    0  501    0  0.00000000000E+00  0.00000000000E+00  0.33528919752E+04  0.33528919752E+04  0.00000000000E+00 0. -1.
         -1   -1    0    0    0  501 -0.00000000000E+00 -0.00000000000E+00 -0.43234822702E+03  0.43234822702E+03  0.00000000000E+00 0.  1.
         24    2    1    2    0    0  0.58676462168E+03  0.31840260582E+03  0.25202459038E+04  0.26083369246E+04  0.78161090605E+02 0.  0.
        254    2    1    2    0    0 -0.58676462168E+03 -0.31840260582E+03  0.40029784444E+03  0.11769032776E+04  0.88271740667E+03 0.  0.
         23    2    4    4    0    0 -0.13304429829E+03 -0.34994701103E+02 -0.26882275758E+03  0.31540027529E+03  0.91028810006E+02 0.  0.
         23    2    4    4    0    0 -0.45372032339E+03 -0.28340790472E+03  0.66912060202E+03  0.86150300235E+03  0.91010278025E+02 0.  0.
          4    1    3    3  502    0  0.18459962325E+03  0.10044640583E+03  0.65867334053E+03  0.69138778617E+03  0.00000000000E+00 0. -1.
         -3    1    3    3    0  502  0.40216499843E+03  0.21795620000E+03  0.18615725633E+04  0.19169491384E+04  0.00000000000E+00 0.  1.
         13    1    5    5    0    0 -0.65735566455E+02  0.28539446286E+02 -0.10268527729E+03  0.12521953068E+03  0.00000000000E+00 0. -1.
        -13    1    5    5    0    0 -0.67308731832E+02 -0.63534147389E+02 -0.16613748029E+03  0.19018074462E+03  0.00000000000E+00 0.  1.
          3    1    6    6  503    0 -0.48669957606E+02 -0.34642395126E+02  0.12798290339E+03  0.14123910178E+03  0.00000000000E+00 0. -1.
         -3    1    6    6    0  503 -0.40505036578E+03 -0.24876550959E+03  0.54113769863E+03  0.72026390057E+03  0.00000000000E+00 0.  1.
<mgrwt>
<rscale>  0 0.24080007E+04</rscale>
<asrwt>0</asrwt>
<pdfrwt beam="1">  1        2 0.51582952E+00 0.24080007E+04</pdfrwt>
<pdfrwt beam="2">  1       -1 0.66515114E-01 0.24080007E+04</pdfrwt>
<totfact> 0.24059456E+00</totfact>
</mgrwt>
</event>
<event>
12    7  0.1730932E-007  0.1775798E+04  0.7818608E-02  0.8719277E-01
         -1   -1    0    0    0  501 -0.00000000000E+00  0.00000000000E+00  0.17966272780E+03  0.17966272780E+03  0.00000000000E+00 0.  1.
          2   -1    0    0  501    0  0.00000000000E+00 -0.00000000000E+00 -0.43880274403E+04  0.43880274403E+04  0.00000000000E+00 0. -1.
         24    2    1    2    0    0  0.10109979374E+02 -0.61351096286E+03 -0.23425102798E+04  0.24228034093E+04  0.78256219138E+02 0.  0.
        254    2    1    2    0    0 -0.10109979374E+02  0.61351096286E+03 -0.18658544327E+04  0.21448867588E+04  0.86175897494E+03 0.  0.
         23    2    4    4    0    0 -0.37446946318E+03  0.13020373091E+03 -0.10382309301E+04  0.11153999994E+04  0.94938422047E+02 0.  0.
         23    2    4    4    0    0  0.36435948381E+03  0.48330723195E+03 -0.82762350257E+03  0.10294867594E+04  0.92404609870E+02 0.  0.
          4    1    3    3  502    0 -0.12685103821E+02 -0.59170231162E+02 -0.31465930657E+03  0.32042550979E+03  0.00000000000E+00 0. -1.
         -3    1    3    3    0  502  0.22795083195E+02 -0.55434073170E+03 -0.20278509732E+04  0.21023778995E+04  0.00000000000E+00 0.  1.
         13    1    5    5    0    0 -0.13716033744E+00  0.11736540519E+02 -0.63263069395E+02  0.64342685253E+02  0.00000000000E+00 0.  1.
        -13    1    5    5    0    0 -0.37433230284E+03  0.11846719039E+03 -0.97496786070E+03  0.10510573141E+04  0.00000000000E+00 0. -1.
          1    1    6    6  503    0  0.27064041015E+03  0.28587710698E+03 -0.52488160361E+03  0.65610414547E+03  0.00000000000E+00 0. -1.
         -1    1    6    6    0  503  0.93719073661E+02  0.19743012497E+03 -0.30274189896E+03  0.37338261395E+03  0.00000000000E+00 0.  1.
<mgrwt>
<rscale>  0 0.17757984E+04</rscale>
<asrwt>0</asrwt>
<pdfrwt beam="1">  1        2 0.67508111E+00 0.17757984E+04</pdfrwt>
<pdfrwt beam="2">  1       -1 0.27640421E-01 0.17757984E+04</pdfrwt>
<totfact> 0.20404161E+00</totfact>
</mgrwt>
</event>
<event>
12    7  0.1730932E-007  0.2737079E+04  0.7818608E-02  0.8323074E-01
         -1   -1    0    0    0  501 -0.00000000000E+00  0.00000000000E+00  0.11880419175E+04  0.11880419175E+04  0.00000000000E+00 0.  1.
          2   -1    0    0  501    0  0.00000000000E+00 -0.00000000000E+00 -0.15764594790E+04  0.15764594790E+04  0.00000000000E+00 0. -1.
         24    2    1    2    0    0  0.76664696358E+03 -0.87619680407E+03  0.18438752455E+03  0.11816395694E+04  0.82491857696E+02 0.  0.
        254    2    1    2    0    0 -0.76664696358E+03  0.87619680407E+03 -0.57280508598E+03  0.15828618271E+04  0.90657459206E+03 0.  0.
         23    2    4    4    0    0  0.80194890137E+01 -0.11670045726E+03 -0.23201102628E+03  0.27546961258E+03  0.91493618400E+02 0.  0.
         23    2    4    4    0    0 -0.77466645259E+03  0.99289726133E+03 -0.34079405970E+03  0.13073922145E+04  0.84739171423E+02 0.  0.
          4    1    3    3  502    0  0.55526030041E+03 -0.63060042455E+03  0.17022171602E+03  0.85729010799E+03  0.00000000000E+00 0. -1.
         -3    1    3    3    0  502  0.21138666317E+03 -0.24559637952E+03  0.14165808528E+02  0.32434946143E+03  0.00000000000E+00 0.  1.
         13    1    5    5    0    0 -0.30620422608E+02 -0.54709808887E+02 -0.52885091269E+02  0.82021986977E+02  0.00000000000E+00 0. -1.
        -13    1    5    5    0    0  0.38639911621E+02 -0.61990648373E+02 -0.17912593501E+03  0.19344762560E+03  0.00000000000E+00 0.  1.
          1    1    6    6  503    0 -0.39850385698E+02  0.53549562457E+02 -0.38520877754E+02  0.77067936929E+02  0.00000000000E+00 0. -1.
         -1    1    6    6    0  503 -0.73481606689E+03  0.93934769887E+03 -0.30227318194E+03  0.12303242776E+04  0.00000000000E+00 0.  1.
<mgrwt>
<rscale>  0 0.27370787E+04</rscale>
<asrwt>0</asrwt>
<pdfrwt beam="1">  1        2 0.24253223E+00 0.27370787E+04</pdfrwt>
<pdfrwt beam="2">  1       -1 0.18277568E+00 0.27370787E+04</pdfrwt>
<totfact> 0.22760518E+00</totfact>
</mgrwt>
</event>
<event>
12    7  0.1730932E-007  0.1971245E+04  0.7818608E-02  0.8620184E-01
          2   -1    0    0  501    0  0.00000000000E+00  0.00000000000E+00  0.25959538665E+04  0.25959538665E+04  0.00000000000E+00 0. -1.
         -1   -1    0    0    0  501 -0.00000000000E+00 -0.00000000000E+00 -0.37421768057E+03  0.37421768057E+03  0.00000000000E+00 0.  1.
         24    2    1    2    0    0  0.33375145147E+03  0.21464881139E+03  0.18895751629E+04  0.19325527870E+04  0.82473236968E+02 0.  0.
        254    2    1    2    0    0 -0.33375145147E+03 -0.21464881139E+03  0.33216102312E+03  0.10376187601E+04  0.89936511078E+03 0.  0.
         23    2    4    4    0    0 -0.32470042684E+02 -0.38224408147E+03 -0.16235680908E+03  0.42621711499E+03  0.90202295790E+02 0.  0.
         23    2    4    4    0    0 -0.30128140878E+03  0.16759527008E+03  0.49451783220E+03  0.61140164513E+03  0.10200697758E+03 0.  0.
          2    1    3    3  502    0  0.25358657206E+03  0.13909131570E+03  0.12086365827E+04  0.12427610119E+04  0.00000000000E+00 0. -1.
         -1    1    3    3    0  502  0.80164879409E+02  0.75557495688E+02  0.68093858016E+03  0.68979177510E+03  0.00000000000E+00 0.  1.
         13    1    5    5    0    0  0.14877139297E+02 -0.24337580236E+03 -0.12860451060E+03  0.27566688339E+03  0.00000000000E+00 0. -1.
        -13    1    5    5    0    0 -0.47347181980E+02 -0.13886827911E+03 -0.33752298483E+02  0.15055023161E+03  0.00000000000E+00 0.  1.
          1    1    6    6  503    0 -0.30149777165E+03  0.14314586283E+03  0.44580032660E+03  0.55689278640E+03  0.00000000000E+00 0. -1.
         -1    1    6    6    0  503  0.21636286359E+00  0.24449407255E+02  0.48717505601E+02  0.54508858729E+02  0.00000000000E+00 0.  1.
<mgrwt>
<rscale>  0 0.19712451E+04</rscale>
<asrwt>0</asrwt>
<pdfrwt beam="1">  1        2 0.39937751E+00 0.19712451E+04</pdfrwt>
<pdfrwt beam="2">  1       -1 0.57571953E-01 0.19712451E+04</pdfrwt>
<totfact> 0.99208260E+00</totfact>
</mgrwt>
</event>
<event>
12    7  0.2005190E-007  0.1571049E+04  0.7818608E-02  0.8838534E-01
         -1   -1    0    0    0  501 -0.00000000000E+00  0.00000000000E+00  0.36031909519E+03  0.36031909519E+03  0.00000000000E+00 0.  1.
          2   -1    0    0  501    0  0.00000000000E+00 -0.00000000000E+00 -0.17125072178E+04  0.17125072178E+04  0.00000000000E+00 0. -1.
         24    2    1    2    0    0  0.43354858278E+03 -0.11788243251E+03 -0.81033413312E+03  0.92995027419E+03  0.79406949504E+02 0.  0.
        254    2    1    2    0    0 -0.43354858278E+03  0.11788243251E+03 -0.54185398949E+03  0.11428760388E+04  0.90038838988E+03 0.  0.
         23    2    4    4    0    0  0.27224626643E+03  0.42057052122E+02 -0.14046937169E+03  0.32223955665E+03  0.90663456060E+02 0.  0.
         23    2    4    4    0    0 -0.70579484921E+03  0.75825380389E+02 -0.40138461780E+03  0.82063648216E+03  0.91862761626E+02 0.  0.
          2    1    3    3  502    0  0.32784461072E+03 -0.99115966723E+02 -0.54457061613E+03  0.64332201858E+03  0.00000000000E+00 0. -1.
         -1    1    3    3    0  502  0.10570397206E+03 -0.18766465789E+02 -0.26576351700E+03  0.28662825561E+03  0.00000000000E+00 0.  1.
         13    1    5    5    0    0  0.27766248892E+03  0.41367347559E+02 -0.12780966626E+03  0.30845263168E+03  0.00000000000E+00 0.  1.
        -13    1    5    5    0    0 -0.54162224920E+01  0.68970456378E+00 -0.12659705432E+02  0.13786924969E+02  0.00000000000E+00 0. -1.
          2    1    6    6  503    0 -0.63085102607E+03  0.70673263634E+02 -0.32367652433E+03  0.71255471346E+03  0.00000000000E+00 0.  1.
         -2    1    6    6    0  503 -0.74943823143E+02  0.51521167553E+01 -0.77708093470E+02  0.10808176870E+03  0.00000000000E+00 0. -1.
<mgrwt>
<rscale>  0 0.15710494E+04</rscale>
<asrwt>0</asrwt>
<pdfrwt beam="1">  1        2 0.26346265E+00 0.15710494E+04</pdfrwt>
<pdfrwt beam="2">  1       -1 0.55433708E-01 0.15710494E+04</pdfrwt>
<totfact> 0.34766090E+01</totfact>
</mgrwt>
</event>
<event>
12    7  0.1730932E-007  0.1301077E+04  0.7818608E-02  0.9028712E-01
          2   -1    0    0  501    0  0.00000000000E+00  0.00000000000E+00  0.10363591217E+04  0.10363591217E+04  0.00000000000E+00 0. -1.
         -1   -1    0    0    0  501 -0.00000000000E+00 -0.00000000000E+00 -0.40835280367E+03  0.40835280367E+03  0.00000000000E+00 0.  1.
         24    2    1    2    0    0 -0.18448922456E+03  0.20210832281E+03  0.38830707821E+03  0.48193096483E+03  0.81185095578E+02 0.  0.
        254    2    1    2    0    0  0.18448922456E+03 -0.20210832281E+03  0.23969923982E+03  0.96278096053E+03  0.89140754107E+03 0.  0.
         23    2    4    4    0    0  0.18185757257E+03 -0.58046395434E+02  0.56099999715E+03  0.59972069274E+03  0.92208197999E+02 0.  0.
         23    2    4    4    0    0  0.26316519912E+01 -0.14406192738E+03 -0.32130075733E+03  0.36306026779E+03  0.88418419322E+02 0.  0.
          2    1    3    3  502    0 -0.19068169569E+03  0.20098417211E+03  0.36772620346E+03  0.46040928229E+03  0.00000000000E+00 0. -1.
         -1    1    3    3    0  502  0.61924711331E+01  0.11241506955E+01  0.20580874752E+02  0.21521682533E+02  0.00000000000E+00 0.  1.
         13    1    5    5    0    0  0.16341642892E+03 -0.30994540077E+02  0.52654582977E+03  0.55219208759E+03  0.00000000000E+00 0. -1.
        -13    1    5    5    0    0  0.18441143653E+02 -0.27051855357E+02  0.34454167380E+02  0.47528605148E+02  0.00000000000E+00 0.  1.
          2    1    6    6  503    0  0.22015799536E+02 -0.14731712558E+03 -0.27473606878E+03  0.31251710098E+03  0.00000000000E+00 0. -1.
         -2    1    6    6    0  503 -0.19384147544E+02  0.32551981983E+01 -0.46564688552E+02  0.50543166811E+02  0.00000000000E+00 0.  1.
<mgrwt>
<rscale>  0 0.13010767E+04</rscale>
<asrwt>0</asrwt>
<pdfrwt beam="1">  1        2 0.15943986E+00 0.13010767E+04</pdfrwt>
<pdfrwt beam="2">  1       -1 0.62823509E-01 0.13010767E+04</pdfrwt>
<totfact> 0.68605191E+01</totfact>
</mgrwt>
</event>
<event>
12    7  0.1730932E-007  0.1428180E+04  0.7818608E-02  0.8933670E-01
          2   -1    0    0  501    0  0.00000000000E+00  0.00000000000E+00  0.48972985833E+03  0.48972985833E+03  0.00000000000E+00 0. -1.
         -1   -1    0    0    0  501 -0.00000000000E+00 -0.00000000000E+00 -0.10412357699E+04  0.10412357699E+04  0.00000000000E+00 0.  1.
         24    2    1    2    0    0  0.13004474371E+03 -0.34309479615E+03  0.85498344048E+02  0.38570785099E+03  0.82673484066E+02 0.  0.
        254    2    1    2    0    0 -0.13004474371E+03  0.34309479615E+03 -0.63700425566E+03  0.11452577773E+04  0.87818863588E+03 0.  0.
         23    2    4    4    0    0  0.30663807504E+02 -0.27060465400E+03 -0.32271636032E+03  0.43153755709E+03  0.88947546919E+02 0.  0.
         23    2    4    4    0    0 -0.16070855121E+03  0.61369945015E+03 -0.31428789534E+03  0.71372022020E+03  0.90362702584E+02 0.  0.
          2    1    3    3  502    0  0.11133652968E+03 -0.33406379863E+03  0.68194151120E+02  0.35867100056E+03  0.00000000000E+00 0. -1.
         -1    1    3    3    0  502  0.18708214027E+02 -0.90309975251E+01  0.17304192928E+02  0.27036850432E+02  0.00000000000E+00 0.  1.
         13    1    5    5    0    0  0.13258164705E+02 -0.11433341502E+01 -0.32564329588E+02  0.35178426710E+02  0.00000000000E+00 0.  1.
        -13    1    5    5    0    0  0.17405642799E+02 -0.26946131985E+03 -0.29015203074E+03  0.39635913038E+03  0.00000000000E+00 0. -1.
          1    1    6    6  503    0 -0.14620648754E+03  0.60532718253E+03 -0.31288092635E+03  0.69691592677E+03  0.00000000000E+00 0. -1.
         -1    1    6    6    0  503 -0.14502063675E+02  0.83722676174E+01 -0.14069689823E+01  0.16804293428E+02  0.00000000000E+00 0.  1.
<mgrwt>
<rscale>  0 0.14281796E+04</rscale>
<asrwt>0</asrwt>
<pdfrwt beam="1">  1        2 0.75343057E-01 0.14281796E+04</pdfrwt>
<pdfrwt beam="2">  1       -1 0.16019012E+00 0.14281796E+04</pdfrwt>
<totfact> 0.20407946E+01</totfact>
</mgrwt>
</event>
<event>
12    7  0.1730932E-007  0.1829438E+04  0.7818608E-02  0.8690800E-01
          2   -1    0    0  501    0  0.00000000000E+00  0.00000000000E+00  0.19500812790E+04  0.19500812790E+04  0.00000000000E+00 0. -1.
         -1   -1    0    0    0  501 -0.00000000000E+00 -0.00000000000E+00 -0.42906455595E+03  0.42906455595E+03  0.00000000000E+00 0.  1.
         24    2    1    2    0    0  0.12446193869E+03 -0.61278104362E+03  0.19402590488E+03  0.65957404067E+03  0.80003010965E+02 0.  0.
        254    2    1    2    0    0 -0.12446193869E+03  0.61278104362E+03  0.13269908182E+04  0.17195717943E+04  0.89723527715E+03 0.  0.
         23    2    4    4    0    0  0.31054254114E+03  0.36797046303E+01  0.52709874072E+03  0.62024730900E+03  0.10209520934E+03 0.  0.
         23    2    4    4    0    0 -0.43500447983E+03  0.60910133899E+03  0.79989207744E+03  0.10993244853E+04  0.91943731350E+02 0.  0.
          2    1    3    3  502    0  0.33925757837E+02 -0.19075033436E+03  0.22252635356E+02  0.19501750405E+03  0.00000000000E+00 0. -1.
         -1    1    3    3    0  502  0.90536180855E+02 -0.42203070925E+03  0.17177326953E+03  0.46455653663E+03  0.00000000000E+00 0.  1.
         13    1    5    5    0    0  0.97184697698E+02 -0.14894801988E+02  0.89069660535E+02  0.13266546280E+03  0.00000000000E+00 0.  1.
        -13    1    5    5    0    0  0.21335784344E+03  0.18574506618E+02  0.43802908018E+03  0.48758184619E+03  0.00000000000E+00 0. -1.
          4    1    6    6  503    0 -0.25689468229E+03  0.41968870341E+03  0.48422785818E+03  0.69036954176E+03  0.00000000000E+00 0. -1.
         -4    1    6    6    0  503 -0.17810979754E+03  0.18941263557E+03  0.31566421926E+03  0.40895494350E+03  0.00000000000E+00 0.  1.
<mgrwt>
<rscale>  0 0.18294379E+04</rscale>
<asrwt>0</asrwt>
<pdfrwt beam="1">  1        2 0.30001250E+00 0.18294379E+04</pdfrwt>
<pdfrwt beam="2">  1       -1 0.66009933E-01 0.18294379E+04</pdfrwt>
<totfact> 0.17768433E+01</totfact>
</mgrwt>
</event>
<event>
12    7  0.1730932E-007  0.2247073E+04  0.7818608E-02  0.8499087E-01
         -1   -1    0    0    0  501 -0.00000000000E+00  0.00000000000E+00  0.18428881849E+04  0.18428881849E+04  0.00000000000E+00 0.  1.
          2   -1    0    0  501    0  0.00000000000E+00 -0.00000000000E+00 -0.68497601000E+03  0.68497601000E+03  0.00000000000E+00 0. -1.
         24    2    1    2    0    0 -0.20691094017E+03  0.24041419119E+03  0.14888701203E+04  0.15243821508E+04  0.79972407622E+02 0.  0.
        254    2    1    2    0    0  0.20691094017E+03 -0.24041419119E+03 -0.33095794546E+03  0.10034820441E+04  0.89265442956E+03 0.  0.
         23    2    4    4    0    0  0.36423766238E+02 -0.19144223271E+03 -0.61815759850E+03  0.65396724354E+03  0.87048950785E+02 0.  0.
         23    2    4    4    0    0  0.17048717394E+03 -0.48971958477E+02  0.28719965304E+03  0.34951480052E+03  0.90624642799E+02 0.  0.
          2    1    3    3  502    0 -0.48894613441E+01  0.18830227704E+02  0.20682626197E+03  0.20773922823E+03  0.00000000000E+00 0. -1.
         -1    1    3    3    0  502 -0.20202147883E+03  0.22158396349E+03  0.12820438584E+04  0.13166429226E+04  0.00000000000E+00 0.  1.
         13    1    5    5    0    0  0.32674485605E+01 -0.11322700354E+03 -0.22702410190E+03  0.25371435394E+03  0.00000000000E+00 0.  1.
        -13    1    5    5    0    0  0.33156317678E+02 -0.78215229177E+02 -0.39113349660E+03  0.40025288961E+03  0.00000000000E+00 0. -1.
          2    1    6    6  503    0  0.82327381343E+02 -0.70288797626E+02  0.16476627904E+03  0.19714522439E+03  0.00000000000E+00 0.  1.
         -2    1    6    6    0  503  0.88159792593E+02  0.21316839150E+02  0.12243337400E+03  0.15236957613E+03  0.00000000000E+00 0. -1.
<mgrwt>
<rscale>  0 0.22470729E+04</rscale>
<asrwt>0</asrwt>
<pdfrwt beam="1">  1        2 0.10538093E+00 0.22470729E+04</pdfrwt>
<pdfrwt beam="2">  1       -1 0.28352126E+00 0.22470729E+04</pdfrwt>
<totfact> 0.18483128E+00</totfact>
</mgrwt>
</event>
<event>
12    7  0.1730932E-007  0.1917249E+04  0.7818608E-02  0.8646318E-01
          2   -1    0    0  501    0  0.00000000000E+00  0.00000000000E+00  0.35821486620E+04  0.35821486620E+04  0.00000000000E+00 0. -1.
         -1   -1    0    0    0  501 -0.00000000000E+00 -0.00000000000E+00 -0.25653904619E+03  0.25653904619E+03  0.00000000000E+00 0.  1.
         24    2    1    2    0    0  0.67556072294E+03  0.23828444817E+03  0.16913531651E+04  0.18389271690E+04  0.88407211607E+02 0.  0.
        254    2    1    2    0    0 -0.67556072294E+03 -0.23828444817E+03  0.16342564507E+04  0.19997605392E+04  0.90282129955E+03 0.  0.
         23    2    4    4    0    0 -0.14858523022E+03 -0.15515387808E+03 -0.42519505619E+02  0.23780155825E+03  0.92689677013E+02 0.  0.
         23    2    4    4    0    0 -0.52697549272E+03 -0.83130570082E+02  0.16767759563E+04  0.17619589810E+04  0.91148128277E+02 0.  0.
          4    1    3    3  502    0  0.51978846749E+03  0.22004083201E+03  0.12945047157E+04  0.14122112015E+04  0.00000000000E+00 0. -1.
         -3    1    3    3    0  502  0.15577225546E+03  0.18243616156E+02  0.39684844935E+03  0.42671596742E+03  0.00000000000E+00 0.  1.
         13    1    5    5    0    0 -0.60950586271E+02 -0.61990778891E+02  0.28519940149E+02  0.91494358407E+02  0.00000000000E+00 0.  1.
        -13    1    5    5    0    0 -0.87634643949E+02 -0.93163099194E+02 -0.71039445767E+02  0.14630719984E+03  0.00000000000E+00 0. -1.
          4    1    6    6  503    0 -0.28437093178E+03 -0.71966736744E+02  0.79659945749E+03  0.84889147345E+03  0.00000000000E+00 0. -1.
         -4    1    6    6    0  503 -0.24260456095E+03 -0.11163833338E+02  0.88017649883E+03  0.91306750750E+03  0.00000000000E+00 0.  1.
<mgrwt>
<rscale>  0 0.19172491E+04</rscale>
<asrwt>0</asrwt>
<pdfrwt beam="1">  1        2 0.55109976E+00 0.19172491E+04</pdfrwt>
<pdfrwt beam="2">  1       -1 0.39467548E-01 0.19172491E+04</pdfrwt>
<totfact> 0.47605351E+00</totfact>
</mgrwt>
</event>
<event>
12    7  0.1730932E-007  0.2815419E+04  0.7818608E-02  0.8298497E-01
         -1   -1    0    0    0  501 -0.00000000000E+00  0.00000000000E+00  0.14990487801E+04  0.14990487801E+04  0.00000000000E+00 0.  1.
          2   -1    0    0  501    0  0.00000000000E+00 -0.00000000000E+00 -0.13219356716E+04  0.13219356716E+04  0.00000000000E+00 0. -1.
         24    2    1    2    0    0  0.10961767049E+04  0.63967593906E+03  0.81234070769E+02  0.12743299691E+04  0.80803590961E+02 0.  0.
        254    2    1    2    0    0 -0.10961767049E+04 -0.63967593906E+03  0.95879037674E+02  0.15466544827E+04  0.87872556777E+03 0.  0.
         23    2    4    4    0    0 -0.92467295367E+03 -0.64537648402E+02  0.12172479554E+03  0.93934956823E+03  0.91517791590E+02 0.  0.
         23    2    4    4    0    0 -0.17150375127E+03 -0.57513829066E+03 -0.25845757867E+02  0.60730491445E+03  0.89183327074E+02 0.  0.
          2    1    3    3  502    0  0.92232688516E+03  0.50885220797E+03  0.50478450203E+02  0.10545925880E+04  0.00000000000E+00 0. -1.
         -1    1    3    3    0  502  0.17384981978E+03  0.13082373109E+03  0.30755620565E+02  0.21973738109E+03  0.00000000000E+00 0.  1.
         13    1    5    5    0    0 -0.90175994641E+03 -0.65276406976E+02  0.13291866264E+03  0.91383772144E+03  0.00000000000E+00 0.  1.
        -13    1    5    5    0    0 -0.22913007256E+02  0.73875857384E+00 -0.11193867096E+02  0.25511846784E+02  0.00000000000E+00 0. -1.
          1    1    6    6  503    0 -0.12443913042E+03 -0.26663314366E+03 -0.24076899102E+02  0.29522538433E+03  0.00000000000E+00 0. -1.
         -1    1    6    6    0  503 -0.47064620851E+02 -0.30850514700E+03 -0.17688587647E+01  0.31207953012E+03  0.00000000000E+00 0.  1.
<mgrwt>
<rscale>  0 0.28154190E+04</rscale>
<asrwt>0</asrwt>
<pdfrwt beam="1">  1        2 0.20337472E+00 0.28154190E+04</pdfrwt>
<pdfrwt beam="2">  1       -1 0.23062289E+00 0.28154190E+04</pdfrwt>
<totfact> 0.14858064E+00</totfact>
</mgrwt>
</event>
<event>
12    7  0.1730932E-007  0.1204889E+04  0.7818608E-02  0.9108588E-01
          2   -1    0    0  501    0  0.00000000000E+00  0.00000000000E+00  0.11321022585E+04  0.11321022585E+04  0.00000000000E+00 0. -1.
         -1   -1    0    0    0  501 -0.00000000000E+00 -0.00000000000E+00 -0.32058899941E+03  0.32058899941E+03  0.00000000000E+00 0.  1.
         24    2    1    2    0    0 -0.60002113736E+02 -0.23323190037E+03  0.19118066699E+03  0.31800107537E+03  0.81100329865E+02 0.  0.
        254    2    1    2    0    0  0.60002113736E+02  0.23323190037E+03  0.62033259210E+03  0.11346901826E+04  0.91908210327E+03 0.  0.
         23    2    4    4    0    0 -0.26658933096E+03  0.14188313140E+03 -0.10178747721E+03  0.33177633484E+03  0.92272159835E+02 0.  0.
         23    2    4    4    0    0  0.32659144470E+03  0.91348768971E+02  0.72212006931E+03  0.80291384772E+03  0.90590744578E+02 0.  0.
          4    1    3    3  502    0 -0.36686524184E+02 -0.11981754650E+03  0.14919752173E+03  0.19483851261E+03  0.00000000000E+00 0. -1.
         -3    1    3    3    0  502 -0.23315589552E+02 -0.11341435387E+03  0.41983145257E+02  0.12316256276E+03  0.00000000000E+00 0.  1.
         13    1    5    5    0    0 -0.46377132473E+02  0.26587941678E+00  0.94100511494E+01  0.47322913804E+02  0.00000000000E+00 0.  1.
        -13    1    5    5    0    0 -0.22021219849E+03  0.14161725198E+03 -0.11119752836E+03  0.28445342103E+03  0.00000000000E+00 0. -1.
          1    1    6    6  503    0  0.21703351375E+03  0.83132964640E+02  0.40053919316E+03  0.46308344945E+03  0.00000000000E+00 0. -1.
         -1    1    6    6    0  503  0.10955793095E+03  0.82158043306E+01  0.32158087616E+03  0.33983039826E+03  0.00000000000E+00 0.  1.
<mgrwt>
<rscale>  0 0.12048893E+04</rscale>
<asrwt>0</asrwt>
<pdfrwt beam="1">  1        2 0.17416958E+00 0.12048893E+04</pdfrwt>
<pdfrwt beam="2">  1       -1 0.49321385E-01 0.12048893E+04</pdfrwt>
<totfact> 0.96434433E+01</totfact>
</mgrwt>
</event>
<event>
12    7  0.1730932E-007  0.2094214E+04  0.7818608E-02  0.8563796E-01
         -1   -1    0    0    0  501 -0.00000000000E+00  0.00000000000E+00  0.36719191492E+03  0.36719191492E+03  0.00000000000E+00 0.  1.
          2   -1    0    0  501    0  0.00000000000E+00 -0.00000000000E+00 -0.29859952599E+04  0.29859952599E+04  0.00000000000E+00 0. -1.
         24    2    1    2    0    0  0.80180491410E+03 -0.25066334222E+03 -0.12672730206E+04  0.15225059541E+04  0.79499937665E+02 0.  0.
        254    2    1    2    0    0 -0.80180491410E+03  0.25066334222E+03 -0.13515303244E+04  0.18306812207E+04  0.90500623359E+03 0.  0.
         23    2    4    4    0    0 -0.81060794692E+03  0.90914957784E+02 -0.50257231028E+03  0.96190116622E+03  0.85581267551E+02 0.  0.
         23    2    4    4    0    0  0.88030328284E+01  0.15974838444E+03 -0.84895801409E+03  0.86878005450E+03  0.91934942769E+02 0.  0.
          4    1    3    3  502    0  0.78961172418E+03 -0.24989987276E+03 -0.12612881111E+04  0.15089016934E+04  0.00000000000E+00 0. -1.
         -3    1    3    3    0  502  0.12193189918E+02 -0.76346946130E+00 -0.59849095811E+01  0.13604260682E+02  0.00000000000E+00 0.  1.
         13    1    5    5    0    0 -0.67856183348E+03  0.69358176560E+02 -0.38192470135E+03  0.78174368946E+03  0.00000000000E+00 0.  1.
        -13    1    5    5    0    0 -0.13204611345E+03  0.21556781224E+02 -0.12064760894E+03  0.18015747677E+03  0.00000000000E+00 0. -1.
          4    1    6    6  503    0 -0.15493490744E+02  0.14673699565E+03 -0.58239191797E+03  0.60079292628E+03  0.00000000000E+00 0.  1.
         -4    1    6    6    0  503  0.24296523573E+02  0.13011388791E+02 -0.26656609611E+03  0.26798712822E+03  0.00000000000E+00 0. -1.
<mgrwt>
<rscale>  0 0.20942142E+04</rscale>
<asrwt>0</asrwt>
<pdfrwt beam="1">  1        2 0.45938389E+00 0.20942142E+04</pdfrwt>
<pdfrwt beam="2">  1       -1 0.56491063E-01 0.20942142E+04</pdfrwt>
<totfact> 0.59225821E+00</totfact>
</mgrwt>
</event>
<event>
12    7  0.1730932E-007  0.1939384E+04  0.7818608E-02  0.8635497E-01
          2   -1    0    0  501    0  0.00000000000E+00  0.00000000000E+00  0.10250958172E+04  0.10250958172E+04  0.00000000000E+00 0. -1.
         -1   -1    0    0    0  501 -0.00000000000E+00 -0.00000000000E+00 -0.91728246353E+03  0.91728246353E+03  0.00000000000E+00 0.  1.
         24    2    1    2    0    0  0.36081906865E+03 -0.41758299138E+03 -0.47421844608E+03  0.73191445343E+03  0.79054902032E+02 0.  0.
        254    2    1    2    0    0 -0.36081906865E+03  0.41758299138E+03  0.58203179979E+03  0.12104638273E+04  0.90658463826E+03 0.  0.
         23    2    4    4    0    0 -0.54489589794E+03  0.38534990540E+03  0.70039259314E+03  0.97163564155E+03  0.90110744239E+02 0.  0.
         23    2    4    4    0    0  0.18407682929E+03  0.32233085986E+02 -0.11836079335E+03  0.23882818578E+03  0.90035404189E+02 0.  0.
          2    1    3    3  502    0  0.19535890119E+03 -0.16733759835E+03 -0.20737988064E+03  0.33041396307E+03  0.00000000000E+00 0. -1.
         -1    1    3    3    0  502  0.16546016746E+03 -0.25024539303E+03 -0.26683856544E+03  0.40150049035E+03  0.00000000000E+00 0.  1.
         13    1    5    5    0    0 -0.32551601189E+03  0.20868173843E+03  0.34538809118E+03  0.51846087170E+03  0.00000000000E+00 0. -1.
        -13    1    5    5    0    0 -0.21937988605E+03  0.17666816697E+03  0.35500450196E+03  0.45317476985E+03  0.00000000000E+00 0.  1.
          2    1    6    6  503    0  0.14960258028E+03 -0.68622980726E+01 -0.62077356917E+02  0.16211607386E+03  0.00000000000E+00 0. -1.
         -2    1    6    6    0  503  0.34474249016E+02  0.39095384058E+02 -0.56283436431E+02  0.76712111927E+02  0.00000000000E+00 0.  1.
<mgrwt>
<rscale>  0 0.19393838E+04</rscale>
<asrwt>0</asrwt>
<pdfrwt beam="1">  1        2 0.15770705E+00 0.19393838E+04</pdfrwt>
<pdfrwt beam="2">  1       -1 0.14112038E+00 0.19393838E+04</pdfrwt>
<totfact> 0.10612166E+01</totfact>
</mgrwt>
</event>
<event>
12    7  0.1730932E-007  0.1664705E+04  0.7818608E-02  0.8781754E-01
         -1   -1    0    0    0  501 -0.00000000000E+00  0.00000000000E+00  0.75690946738E+03  0.75690946738E+03  0.00000000000E+00 0.  1.
          2   -1    0    0  501    0  0.00000000000E+00 -0.00000000000E+00 -0.91531564407E+03  0.91531564407E+03  0.00000000000E+00 0. -1.
         24    2    1    2    0    0  0.37597584854E+03 -0.38789706841E+03 -0.29861267902E+03  0.62243235573E+03  0.80190591828E+02 0.  0.
        254    2    1    2    0    0 -0.37597584854E+03  0.38789706841E+03  0.14020650233E+03  0.10497927557E+04  0.88914846472E+03 0.  0.
         23    2    4    4    0    0 -0.14262646320E+03 -0.26344615874E+02 -0.33121667714E+03  0.37384419250E+03  0.94966553367E+02 0.  0.
         23    2    4    4    0    0 -0.23334938534E+03  0.41424168429E+03  0.47142317946E+03  0.67594856323E+03  0.92836077881E+02 0.  0.
          4    1    3    3  502    0  0.32102790345E+03 -0.33938681653E+03 -0.28683686609E+03  0.54819495964E+03  0.00000000000E+00 0. -1.
         -3    1    3    3    0  502  0.54947945093E+02 -0.48510251886E+02 -0.11775812926E+02  0.74237396089E+02  0.00000000000E+00 0.  1.
         13    1    5    5    0    0 -0.88331677184E+02  0.83537436146E+01 -0.27281636688E+03  0.28688157882E+03  0.00000000000E+00 0. -1.
        -13    1    5    5    0    0 -0.54294786018E+02 -0.34698359488E+02 -0.58400310257E+02  0.86962613680E+02  0.00000000000E+00 0.  1.
          4    1    6    6  503    0 -0.22559462666E+03  0.38367450544E+03  0.46516269001E+03  0.64379763116E+03  0.00000000000E+00 0. -1.
         -4    1    6    6    0  503 -0.77547586734E+01  0.30567178849E+02  0.62604894494E+01  0.32150932071E+02  0.00000000000E+00 0.  1.
<mgrwt>
<rscale>  0 0.16647055E+04</rscale>
<asrwt>0</asrwt>
<pdfrwt beam="1">  1        2 0.14081779E+00 0.16647055E+04</pdfrwt>
<pdfrwt beam="2">  1       -1 0.11644761E+00 0.16647055E+04</pdfrwt>
<totfact> 0.20769670E+01</totfact>
</mgrwt>
</event>
<event>
12    7  0.1730932E-007  0.1920785E+04  0.7818608E-02  0.8644579E-01
         -1   -1    0    0    0  501 -0.00000000000E+00  0.00000000000E+00  0.58168591055E+03  0.58168591055E+03  0.00000000000E+00 0.  1.
          2   -1    0    0  501    0  0.00000000000E+00 -0.00000000000E+00 -0.15856552079E+04  0.15856552079E+04  0.00000000000E+00 0. -1.
         24    2    1    2    0    0 -0.33729509117E+03 -0.22342067855E+03 -0.10970961558E+04  0.11719354543E+04  0.78281260722E+02 0.  0.
        254    2    1    2    0    0  0.33729509117E+03  0.22342067855E+03  0.93126858452E+02  0.99540566417E+03  0.90469610719E+03 0.  0.
         23    2    4    4    0    0  0.26615890142E+03 -0.25406087433E+03 -0.19387935199E+03  0.42573889951E+03  0.90977572828E+02 0.  0.
         23    2    4    4    0    0  0.71136189756E+02  0.47748155288E+03  0.28700621044E+03  0.56966676466E+03  0.95386933521E+02 0.  0.
          4    1    3    3  502    0 -0.33391555404E+03 -0.20249962201E+03 -0.10287062150E+04  0.11003372987E+04  0.00000000000E+00 0. -1.
         -3    1    3    3    0  502 -0.33795371364E+01 -0.20921056539E+02 -0.68389940898E+02  0.71598155660E+02  0.00000000000E+00 0.  1.
         13    1    5    5    0    0  0.35758752318E+02 -0.39100287193E+02  0.48370368960E+01  0.53206369468E+02  0.00000000000E+00 0.  1.
        -13    1    5    5    0    0  0.23040014910E+03 -0.21496058714E+03 -0.19871638889E+03  0.37253253004E+03  0.00000000000E+00 0. -1.
          4    1    6    6  503    0  0.45545373327E+02  0.41427051169E+03  0.27776877717E+03  0.50084921031E+03  0.00000000000E+00 0. -1.
         -4    1    6    6    0  503  0.25590816428E+02  0.63211041190E+02  0.92374332688E+01  0.68817554354E+02  0.00000000000E+00 0.  1.
<mgrwt>
<rscale>  0 0.19207845E+04</rscale>
<asrwt>0</asrwt>
<pdfrwt beam="1">  1        2 0.24394695E+00 0.19207845E+04</pdfrwt>
<pdfrwt beam="2">  1       -1 0.89490141E-01 0.19207845E+04</pdfrwt>
<totfact> 0.14801324E+01</totfact>
</mgrwt>
</event>
<event>
12    7  0.1730932E-007  0.1440600E+04  0.7818608E-02  0.8924943E-01
          2   -1    0    0  501    0  0.00000000000E+00  0.00000000000E+00  0.42611935055E+03  0.42611935055E+03  0.00000000000E+00 0. -1.
         -1   -1    0    0    0  501 -0.00000000000E+00 -0.00000000000E+00 -0.12175747542E+04  0.12175747542E+04  0.00000000000E+00 0.  1.
         24    2    1    2    0    0  0.12940806778E+03  0.16786440500E+03  0.19518062374E+03  0.29922138364E+03  0.80703494803E+02 0.  0.
        254    2    1    2    0    0 -0.12940806778E+03 -0.16786440500E+03 -0.98663602741E+03  0.13444727211E+04  0.88838693190E+03 0.  0.
         23    2    4    4    0    0 -0.26563783573E+03  0.47210064256E+02  0.35888076398E+02  0.28696778235E+03  0.90941212534E+02 0.  0.
         23    2    4    4    0    0  0.13622976795E+03 -0.21507446925E+03 -0.10225241038E+04  0.10575049388E+04  0.89137958572E+02 0.  0.
          2    1    3    3  502    0  0.62762734046E+02  0.11237099267E+03  0.16070813677E+03  0.20589683340E+03  0.00000000000E+00 0. -1.
         -1    1    3    3    0  502  0.66645333737E+02  0.55493412324E+02  0.34472486967E+02  0.93324550242E+02  0.00000000000E+00 0.  1.
         13    1    5    5    0    0 -0.11466493274E+03  0.41608097553E+02  0.56609671025E+02  0.13447652374E+03  0.00000000000E+00 0.  1.
        -13    1    5    5    0    0 -0.15097290299E+03  0.56019667032E+01 -0.20721594627E+02  0.15249125861E+03  0.00000000000E+00 0. -1.
          3    1    6    6  503    0  0.93960734028E+02 -0.15576106372E+03 -0.54746943427E+03  0.57689939329E+03  0.00000000000E+00 0. -1.
         -3    1    6    6    0  503  0.42269033921E+02 -0.59313405530E+02 -0.47505466954E+03  0.48060554549E+03  0.00000000000E+00 0.  1.
<mgrwt>
<rscale>  0 0.14406001E+04</rscale>
<asrwt>0</asrwt>
<pdfrwt beam="1">  1        2 0.65556824E-01 0.14406001E+04</pdfrwt>
<pdfrwt beam="2">  1       -1 0.18731919E+00 0.14406001E+04</pdfrwt>
<totfact> 0.15162120E+01</totfact>
</mgrwt>
</event>
<event>
12    7  0.1730932E-007  0.1797361E+04  0.7818608E-02  0.8707704E-01
          2   -1    0    0  501    0  0.00000000000E+00  0.00000000000E+00  0.63268817741E+03  0.63268817741E+03  0.00000000000E+00 0. -1.
         -1   -1    0    0    0  501 -0.00000000000E+00 -0.00000000000E+00 -0.12765009309E+04  0.12765009309E+04  0.00000000000E+00 0.  1.
         24    2    1    2    0    0  0.21914801658E+03  0.61404389453E+03 -0.58607603059E+02  0.65958222486E+03  0.80858534770E+02 0.  0.
        254    2    1    2    0    0 -0.21914801658E+03 -0.61404389453E+03 -0.58520515047E+03  0.12496068835E+04  0.89105361093E+03 0.  0.
         23    2    4    4    0    0  0.99725994441E+02 -0.61340008330E+03 -0.65862617868E+03  0.91022459398E+03  0.92279098843E+02 0.  0.
         23    2    4    4    0    0 -0.31887401102E+03 -0.64381122591E+00  0.73421028207E+02  0.33938228951E+03  0.90047996392E+02 0.  0.
          4    1    3    3  502    0  0.17262534957E+03  0.38487208242E+03 -0.17693345069E+02  0.42218371072E+03  0.00000000000E+00 0. -1.
         -3    1    3    3    0  502  0.46522667013E+02  0.22917181211E+03 -0.40914257990E+02  0.23739851415E+03  0.00000000000E+00 0.  1.
         13    1    5    5    0    0  0.35303478393E+02 -0.37786370628E+03 -0.45323875570E+03  0.59114523239E+03  0.00000000000E+00 0.  1.
        -13    1    5    5    0    0  0.64422516048E+02 -0.23553637702E+03 -0.20538742298E+03  0.31907936159E+03  0.00000000000E+00 0. -1.
          1    1    6    6  503    0 -0.98090893462E+02 -0.23198680353E+02  0.59423247047E+02  0.11700907845E+03  0.00000000000E+00 0.  1.
         -1    1    6    6    0  503 -0.22078311756E+03  0.22554869127E+02  0.13997781160E+02  0.22237321106E+03  0.00000000000E+00 0. -1.
<mgrwt>
<rscale>  0 0.17973615E+04</rscale>
<asrwt>0</asrwt>
<pdfrwt beam="1">  1        2 0.97336644E-01 0.17973615E+04</pdfrwt>
<pdfrwt beam="2">  1       -1 0.19638476E+00 0.17973615E+04</pdfrwt>
<totfact> 0.79920118E+00</totfact>
</mgrwt>
</event>
<event>
12    7  0.1730932E-007  0.2482839E+04  0.7818608E-02  0.8409125E-01
          2   -1    0    0  501    0  0.00000000000E+00  0.00000000000E+00  0.46131346406E+04  0.46131346406E+04  0.00000000000E+00 0. -1.
         -1   -1    0    0    0  501 -0.00000000000E+00 -0.00000000000E+00 -0.33407266153E+03  0.33407266153E+03  0.00000000000E+00 0.  1.
         24    2    1    2    0    0 -0.86850016104E+03 -0.20793703717E+03  0.30585606900E+04  0.31873066182E+04  0.81238184666E+02 0.  0.
        254    2    1    2    0    0  0.86850016104E+03  0.20793703717E+03  0.12205012891E+04  0.17599006839E+04  0.90005370929E+03 0.  0.
         23    2    4    4    0    0  0.62461087902E+03  0.52964229622E+03  0.62301582440E+03  0.10329931881E+04  0.90920278286E+02 0.  0.
         23    2    4    4    0    0  0.24388928201E+03 -0.32170525906E+03  0.59748546465E+03  0.72690749587E+03  0.91811608702E+02 0.  0.
          2    1    3    3  502    0 -0.71559550790E+03 -0.14062355621E+03  0.24512658344E+04  0.25574510956E+04  0.00000000000E+00 0. -1.
         -1    1    3    3    0  502 -0.15290465314E+03 -0.67313480960E+02  0.60729485560E+03  0.62985552257E+03  0.00000000000E+00 0.  1.
         13    1    5    5    0    0  0.22003401528E+03  0.20551267193E+03  0.17789004194E+03  0.34970743948E+03  0.00000000000E+00 0. -1.
        -13    1    5    5    0    0  0.40457686374E+03  0.32412962429E+03  0.44512578245E+03  0.68328574859E+03  0.00000000000E+00 0.  1.
          1    1    6    6  503    0  0.11831066542E+03 -0.14854458349E+03  0.36191952980E+03  0.40871585838E+03  0.00000000000E+00 0. -1.
         -1    1    6    6    0  503  0.12557861659E+03 -0.17316067556E+03  0.23556593485E+03  0.31819163749E+03  0.00000000000E+00 0.  1.
<mgrwt>
<rscale>  0 0.24828388E+04</rscale>
<asrwt>0</asrwt>
<pdfrwt beam="1">  1        2 0.70971297E+00 0.24828388E+04</pdfrwt>
<pdfrwt beam="2">  1       -1 0.51395798E-01 0.24828388E+04</pdfrwt>
<totfact> 0.36902432E-01</totfact>
</mgrwt>
</event>
<event>
12    7  0.1730932E-007  0.1073649E+04  0.7818608E-02  0.9231263E-01
         -1   -1    0    0    0  501 -0.00000000000E+00  0.00000000000E+00  0.17842745097E+03  0.17842745097E+03  0.00000000000E+00 0.  1.
          2   -1    0    0  501    0  0.00000000000E+00 -0.00000000000E+00 -0.16151124797E+04  0.16151124797E+04  0.00000000000E+00 0. -1.
         24    2    1    2    0    0 -0.14978438300E+03  0.84555419767E+02 -0.33202003259E+03  0.38243209370E+03  0.80199899276E+02 0.  0.
        254    2    1    2    0    0  0.14978438300E+03 -0.84555419767E+02 -0.11046649962E+04  0.14111078370E+04  0.86102008890E+03 0.  0.
         23    2    4    4    0    0  0.49773613908E+03 -0.92794844370E+02 -0.71129660600E+03  0.87788985187E+03  0.91627414129E+02 0.  0.
         23    2    4    4    0    0 -0.34795175607E+03  0.82394246028E+01 -0.39336839016E+03  0.53321798513E+03  0.91893506946E+02 0.  0.
          4    1    3    3  502    0 -0.91140672130E+02  0.73178383196E+02 -0.27925159389E+03  0.30272619737E+03  0.00000000000E+00 0. -1.
         -3    1    3    3    0  502 -0.58643710875E+02  0.11377036570E+02 -0.52768438695E+02  0.79705896323E+02  0.00000000000E+00 0.  1.
         13    1    5    5    0    0  0.35512243777E+03 -0.10232250590E+03 -0.47666799118E+03  0.60315355825E+03  0.00000000000E+00 0.  1.
        -13    1    5    5    0    0  0.14261370131E+03  0.95276615322E+01 -0.23462861483E+03  0.27473629362E+03  0.00000000000E+00 0. -1.
          1    1    6    6  503    0  0.53629920920E+00  0.61228975595E+01  0.17315553186E+01  0.63855912167E+01  0.00000000000E+00 0. -1.
         -1    1    6    6    0  503 -0.34848805528E+03  0.21165270433E+01 -0.39509994548E+03  0.52683239392E+03  0.00000000000E+00 0.  1.
<mgrwt>
<rscale>  0 0.10736487E+04</rscale>
<asrwt>0</asrwt>
<pdfrwt beam="1">  1        2 0.24847884E+00 0.10736487E+04</pdfrwt>
<pdfrwt beam="2">  1       -1 0.27450377E-01 0.10736487E+04</pdfrwt>
<totfact> 0.14761147E+02</totfact>
</mgrwt>
</event>
<event>
12    7  0.1730932E-007  0.1708339E+04  0.7818608E-02  0.8756623E-01
         -1   -1    0    0    0  501 -0.00000000000E+00  0.00000000000E+00  0.20639689904E+03  0.20639689904E+03  0.00000000000E+00 0.  1.
          2   -1    0    0  501    0  0.00000000000E+00 -0.00000000000E+00 -0.35349619568E+04  0.35349619568E+04  0.00000000000E+00 0. -1.
         24    2    1    2    0    0  0.44862193820E+03 -0.37270069364E+03 -0.16944099470E+04  0.17936604247E+04  0.77622163069E+02 0.  0.
        254    2    1    2    0    0 -0.44862193820E+03  0.37270069364E+03 -0.16341551108E+04  0.19476984312E+04  0.88481568823E+03 0.  0.
         23    2    4    4    0    0 -0.14631723523E+03  0.49649893220E+03 -0.14885668369E+04  0.15786660708E+04  0.91844500587E+02 0.  0.
         23    2    4    4    0    0 -0.30230470297E+03 -0.12379823856E+03 -0.14558827393E+03  0.36903236036E+03  0.90965928667E+02 0.  0.
          4    1    3    3  502    0  0.43353629530E+03 -0.33829619852E+03 -0.16082646926E+04  0.16996803695E+04  0.00000000000E+00 0. -1.
         -3    1    3    3    0  502  0.15085642899E+02 -0.34404495120E+02 -0.86145254404E+02  0.93980055131E+02  0.00000000000E+00 0.  1.
         13    1    5    5    0    0 -0.11074915477E+03  0.45796187201E+03 -0.12922407157E+04  0.13754564766E+04  0.00000000000E+00 0. -1.
        -13    1    5    5    0    0 -0.35568080457E+02  0.38537060185E+02 -0.19632612113E+03  0.20320959425E+03  0.00000000000E+00 0.  1.
          2    1    6    6  503    0 -0.19957394812E+03 -0.42474735103E+02 -0.60575401054E+02  0.21284558512E+03  0.00000000000E+00 0. -1.
         -2    1    6    6    0  503 -0.10273075485E+03 -0.81323503453E+02 -0.85012872872E+02  0.15618677524E+03  0.00000000000E+00 0.  1.
<mgrwt>
<rscale>  0 0.17083386E+04</rscale>
<asrwt>0</asrwt>
<pdfrwt beam="1">  1        2 0.54384022E+00 0.17083386E+04</pdfrwt>
<pdfrwt beam="2">  1       -1 0.31753374E-01 0.17083386E+04</pdfrwt>
<totfact> 0.77561623E+00</totfact>
</mgrwt>
</event>
<event>
12    7  0.1730932E-007  0.2296038E+04  0.7818608E-02  0.8479485E-01
         -3   -1    0    0    0  501 -0.00000000000E+00  0.00000000000E+00  0.15434391603E+04  0.15434391603E+04  0.00000000000E+00 0.  1.
          4   -1    0    0  501    0  0.00000000000E+00 -0.00000000000E+00 -0.85390292231E+03  0.85390292231E+03  0.00000000000E+00 0. -1.
         24    2    1    2    0    0 -0.22769540692E+03 -0.56753052560E+03 -0.49270786179E+03  0.78884640154E+03  0.74709519710E+02 0.  0.
        254    2    1    2    0    0  0.22769540692E+03  0.56753052560E+03  0.11822440998E+04  0.16084956811E+04  0.90311746120E+03 0.  0.
         23    2    4    4    0    0 -0.65292218085E+02  0.66170398815E+03  0.44784579682E+03  0.80689989270E+03  0.91686080849E+02 0.  0.
         23    2    4    4    0    0  0.29298762500E+03 -0.94173462552E+02  0.73439830296E+03  0.80159578837E+03  0.92220123054E+02 0.  0.
          4    1    3    3  502    0 -0.18039317313E+03 -0.38227847655E+03 -0.30809578396E+03  0.52306934783E+03  0.00000000000E+00 0. -1.
         -3    1    3    3    0  502 -0.47302233787E+02 -0.18525204905E+03 -0.18461207783E+03  0.26577705371E+03  0.00000000000E+00 0.  1.
         13    1    5    5    0    0  0.12019284948E+02  0.28281026431E+03  0.21554410603E+03  0.35578837875E+03  0.00000000000E+00 0. -1.
        -13    1    5    5    0    0 -0.77311503032E+02  0.37889372385E+03  0.23230169079E+03  0.45111151395E+03  0.00000000000E+00 0.  1.
          3    1    6    6  503    0  0.14616020492E+03 -0.95109391498E+02  0.40638598714E+03  0.44221959748E+03  0.00000000000E+00 0. -1.
         -3    1    6    6    0  503  0.14682742008E+03  0.93592894589E+00  0.32801231582E+03  0.35937619089E+03  0.00000000000E+00 0.  1.
<mgrwt>
<rscale>  0 0.22960376E+04</rscale>
<asrwt>0</asrwt>
<pdfrwt beam="1">  1        4 0.13136968E+00 0.22960376E+04</pdfrwt>
<pdfrwt beam="2">  1       -3 0.23745218E+00 0.22960376E+04</pdfrwt>
<totfact> 0.75546708E-02</totfact>
</mgrwt>
</event>
<event>
12    7  0.1730932E-007  0.1880696E+04  0.7818608E-02  0.8664525E-01
          2   -1    0    0  501    0  0.00000000000E+00  0.00000000000E+00  0.41038263239E+03  0.41038263239E+03  0.00000000000E+00 0. -1.
         -1   -1    0    0    0  501 -0.00000000000E+00 -0.00000000000E+00 -0.21547070095E+04  0.21547070095E+04  0.00000000000E+00 0.  1.
         24    2    1    2    0    0 -0.36217959224E+03  0.38225405521E+03 -0.13522207884E+04  0.14538026718E+04  0.88027997927E+02 0.  0.
        254    2    1    2    0    0  0.36217959224E+03 -0.38225405521E+03 -0.39210358874E+03  0.11112869700E+04  0.89661657676E+03 0.  0.
         23    2    4    4    0    0 -0.36202847514E+02  0.19970701454E+03 -0.32886547498E+03  0.39739806753E+03  0.92623893325E+02 0.  0.
         23    2    4    4    0    0  0.39838243976E+03 -0.58196106975E+03 -0.63238113756E+02  0.71388890252E+03  0.90835296536E+02 0.  0.
          4    1    3    3  502    0 -0.52051984810E+02  0.54482985669E+02 -0.29172184954E+03  0.30129627006E+03  0.00000000000E+00 0. -1.
         -3    1    3    3    0  502 -0.31012760743E+03  0.32777106954E+03 -0.10604989388E+04  0.11525064018E+04  0.00000000000E+00 0.  1.
         13    1    5    5    0    0 -0.32650777236E+02  0.11502228508E+02 -0.58042319281E+02  0.67581693840E+02  0.00000000000E+00 0.  1.
        -13    1    5    5    0    0 -0.35520702781E+01  0.18820478603E+03 -0.27082315570E+03  0.32981637369E+03  0.00000000000E+00 0. -1.
          2    1    6    6  503    0  0.37531456125E+03 -0.56347777872E+03 -0.43662946296E+02  0.67843546478E+03  0.00000000000E+00 0. -1.
         -2    1    6    6    0  503  0.23067878509E+02 -0.18483291030E+02 -0.19575167460E+02  0.35453437737E+02  0.00000000000E+00 0.  1.
<mgrwt>
<rscale>  0 0.18806960E+04</rscale>
<asrwt>0</asrwt>
<pdfrwt beam="1">  1        2 0.63135790E-01 0.18806960E+04</pdfrwt>
<pdfrwt beam="2">  1       -1 0.33149338E+00 0.18806960E+04</pdfrwt>
<totfact> 0.17075902E+00</totfact>
</mgrwt>
</event>
<event>
12    7  0.1730932E-007  0.2312801E+04  0.7818608E-02  0.8472891E-01
          2   -1    0    0  501    0  0.00000000000E+00  0.00000000000E+00  0.10513530589E+04  0.10513530589E+04  0.00000000000E+00 0. -1.
         -3   -1    0    0    0  501 -0.00000000000E+00 -0.00000000000E+00 -0.12719435747E+04  0.12719435747E+04  0.00000000000E+00 0.  1.
         24    2    1    2    0    0  0.94331885696E+02  0.96147631444E+03 -0.48663165394E+03  0.10846433993E+04  0.79408621059E+02 0.  0.
        254    2    1    2    0    0 -0.94331885696E+02 -0.96147631444E+03  0.26604113816E+03  0.12386532344E+04  0.72811313679E+03 0.  0.
         23    2    4    4    0    0  0.21725197980E+03 -0.60596391312E+03 -0.66177964557E+02  0.65380676927E+03  0.93236697774E+02 0.  0.
         23    2    4    4    0    0 -0.31158386550E+03 -0.35551240132E+03  0.33221910271E+03  0.58484646511E+03  0.90566455260E+02 0.  0.
          4    1    3    3  502    0  0.38524160286E+02  0.45438495294E+03 -0.18592971668E+03  0.49246284726E+03  0.00000000000E+00 0. -1.
         -3    1    3    3    0  502  0.55807725409E+02  0.50709136150E+03 -0.30070193726E+03  0.59218055203E+03  0.00000000000E+00 0.  1.
         13    1    5    5    0    0  0.19381367248E+03 -0.53437471227E+03 -0.88399499712E+02  0.57526910599E+03  0.00000000000E+00 0.  1.
        -13    1    5    5    0    0  0.23438307317E+02 -0.71589200850E+02  0.22221535154E+02  0.78537663276E+02  0.00000000000E+00 0. -1.
          1    1    6    6  503    0 -0.15993156734E+03 -0.11647761784E+03  0.14834363852E+03  0.24728723538E+03  0.00000000000E+00 0. -1.
         -1    1    6    6    0  503 -0.15165229815E+03 -0.23903478348E+03  0.18387546419E+03  0.33755922974E+03  0.00000000000E+00 0.  1.
<mgrwt>
<rscale>  0 0.23128007E+04</rscale>
<asrwt>0</asrwt>
<pdfrwt beam="1">  1        2 0.16174663E+00 0.23128007E+04</pdfrwt>
<pdfrwt beam="2">  1       -3 0.19568363E+00 0.23128007E+04</pdfrwt>
<totfact> 0.20790161E+00</totfact>
</mgrwt>
</event>
<event>
12    7  0.1730932E-007  0.1908926E+04  0.7818608E-02  0.8650426E-01
          2   -1    0    0  501    0  0.00000000000E+00  0.00000000000E+00  0.18950372572E+04  0.18950372572E+04  0.00000000000E+00 0. -1.
         -1   -1    0    0    0  501 -0.00000000000E+00 -0.00000000000E+00 -0.48072913739E+03  0.48072913739E+03  0.00000000000E+00 0.  1.
         24    2    1    2    0    0 -0.43623833735E+03  0.52467544980E+03  0.86846278507E+03  0.11076685685E+04  0.84343548026E+02 0.  0.
        254    2    1    2    0    0  0.43623833735E+03 -0.52467544980E+03  0.54584533475E+03  0.12680978261E+04  0.91898680752E+03 0.  0.
         23    2    4    4    0    0 -0.20290273766E+03 -0.44017836774E+03  0.21675781569E+03  0.53881670462E+03  0.91722266300E+02 0.  0.
         23    2    4    4    0    0  0.63914107501E+03 -0.84497082054E+02  0.32908751906E+03  0.72928112144E+03  0.88945422906E+02 0.  0.
          2    1    3    3  502    0 -0.27647548676E+03  0.34034996381E+03  0.62086566311E+03  0.76009931212E+03  0.00000000000E+00 0. -1.
         -1    1    3    3    0  502 -0.15976285059E+03  0.18432548598E+03  0.24759712196E+03  0.34756925643E+03  0.00000000000E+00 0.  1.
         13    1    5    5    0    0 -0.10629200828E+01 -0.78416446769E+02  0.24864824646E+02  0.82271066771E+02  0.00000000000E+00 0. -1.
        -13    1    5    5    0    0 -0.20183981758E+03 -0.36176192097E+03  0.19189299104E+03  0.45654563785E+03  0.00000000000E+00 0.  1.
          3    1    6    6  503    0  0.21427000878E+03  0.11669864659E+02  0.93953078390E+02  0.23425414263E+03  0.00000000000E+00 0. -1.
         -3    1    6    6    0  503  0.42487106623E+03 -0.96166946713E+02  0.23513444067E+03  0.49502697881E+03  0.00000000000E+00 0.  1.
<mgrwt>
<rscale>  0 0.19089260E+04</rscale>
<asrwt>0</asrwt>
<pdfrwt beam="1">  1        2 0.29154419E+00 0.19089260E+04</pdfrwt>
<pdfrwt beam="2">  1       -1 0.73958330E-01 0.19089260E+04</pdfrwt>
<totfact> 0.14992747E+01</totfact>
</mgrwt>
</event>
<event>
12    7  0.1730932E-007  0.1219180E+04  0.7818608E-02  0.9096232E-01
          2   -1    0    0  501    0  0.00000000000E+00  0.00000000000E+00  0.56102185793E+03  0.56102185793E+03  0.00000000000E+00 0. -1.
         -1   -1    0    0    0  501 -0.00000000000E+00 -0.00000000000E+00 -0.66236224226E+03  0.66236224226E+03  0.00000000000E+00 0.  1.
         24    2    1    2    0    0  0.26111729944E+03 -0.27349589341E+02  0.16555286991E+02  0.27794932323E+03  0.89730176935E+02 0.  0.
        254    2    1    2    0    0 -0.26111729944E+03  0.27349589341E+02 -0.11789567132E+03  0.94543477696E+03  0.90056498048E+03 0.  0.
         23    2    4    4    0    0 -0.79250445334E+02  0.12590147344E+03  0.36873736165E+03  0.40938432374E+03  0.97449825827E+02 0.  0.
         23    2    4    4    0    0 -0.18186685411E+03 -0.98551884098E+02 -0.48663303297E+03  0.53605045322E+03  0.88036089951E+02 0.  0.
          4    1    3    3  502    0  0.17998772118E+03  0.17564188061E+02  0.32833852050E+02  0.18379919020E+03  0.00000000000E+00 0. -1.
         -3    1    3    3    0  502  0.81129578262E+02 -0.44913777403E+02 -0.16278565059E+02  0.94150133032E+02  0.00000000000E+00 0.  1.
         13    1    5    5    0    0 -0.74559250762E+02  0.12522031075E+03  0.37453809353E+03  0.40189301014E+03  0.00000000000E+00 0. -1.
        -13    1    5    5    0    0 -0.46911945717E+01  0.68116268687E+00 -0.58007318807E+01  0.74913136009E+01  0.00000000000E+00 0.  1.
          3    1    6    6  503    0 -0.18889075419E+03 -0.10003717025E+03 -0.48259953785E+03  0.52781575041E+03  0.00000000000E+00 0. -1.
         -3    1    6    6    0  503  0.70239000866E+01  0.14852861537E+01 -0.40334951226E+01  0.82347028051E+01  0.00000000000E+00 0.  1.
<mgrwt>
<rscale>  0 0.12191796E+04</rscale>
<asrwt>0</asrwt>
<pdfrwt beam="1">  1        2 0.86311055E-01 0.12191796E+04</pdfrwt>
<pdfrwt beam="2">  1       -1 0.10190188E+00 0.12191796E+04</pdfrwt>
<totfact> 0.55311347E+01</totfact>
</mgrwt>
</event>
<event>
12    7  0.1730932E-007  0.2125713E+04  0.7818608E-02  0.8550001E-01
          2   -1    0    0  501    0  0.00000000000E+00  0.00000000000E+00  0.34535624814E+04  0.34535624814E+04  0.00000000000E+00 0. -1.
         -1   -1    0    0    0  501 -0.00000000000E+00 -0.00000000000E+00 -0.32710099247E+03  0.32710099247E+03  0.00000000000E+00 0.  1.
         24    2    1    2    0    0 -0.51190483688E+03 -0.54748549689E+03  0.48792400247E+03  0.89797171487E+03  0.80600478776E+02 0.  0.
        254    2    1    2    0    0  0.51190483688E+03  0.54748549689E+03  0.26385374864E+04  0.28826917590E+04  0.88670444830E+03 0.  0.
         23    2    4    4    0    0  0.50743687690E+03 -0.38432791812E+02  0.16571596613E+04  0.17360223322E+04  0.92876968714E+02 0.  0.
         23    2    4    4    0    0  0.44679599834E+01  0.58591828871E+03  0.98137782515E+03  0.11466694268E+04  0.91804874360E+02 0.  0.
          2    1    3    3  502    0 -0.31968684356E+00 -0.69472113197E+00 -0.26666460852E+01  0.27741374286E+01  0.00000000000E+00 0. -1.
         -1    1    3    3    0  502 -0.51158515004E+03 -0.54679077576E+03  0.49059064856E+03  0.89519757744E+03  0.00000000000E+00 0.  1.
         13    1    5    5    0    0  0.26443644464E+02 -0.11177131041E+02  0.44650912701E+02  0.53083882637E+02  0.00000000000E+00 0.  1.
        -13    1    5    5    0    0  0.48099323243E+03 -0.27255660771E+02  0.16125087486E+04  0.16829384495E+04  0.00000000000E+00 0. -1.
          2    1    6    6  503    0  0.19304079957E+02  0.56622860063E+03  0.95611911323E+03  0.11113735800E+04  0.00000000000E+00 0. -1.
         -2    1    6    6    0  503 -0.14836119974E+02  0.19689688075E+02  0.25258711925E+02  0.35295846788E+02  0.00000000000E+00 0.  1.
<mgrwt>
<rscale>  0 0.21257128E+04</rscale>
<asrwt>0</asrwt>
<pdfrwt beam="1">  1        2 0.53131728E+00 0.21257128E+04</pdfrwt>
<pdfrwt beam="2">  1       -1 0.50323232E-01 0.21257128E+04</pdfrwt>
<totfact> 0.36485135E+00</totfact>
</mgrwt>
</event>
<event>
12    7  0.1831892E-007  0.3202976E+04  0.7818608E-02  0.8188032E-01
         -1   -1    0    0    0  501 -0.00000000000E+00  0.00000000000E+00  0.10871748626E+04  0.10871748626E+04  0.00000000000E+00 0.  1.
          2   -1    0    0  501    0  0.00000000000E+00 -0.00000000000E+00 -0.23591087167E+04  0.23591087167E+04  0.00000000000E+00 0. -1.
         24    2    1    2    0    0  0.98723602187E+03 -0.10368690088E+04 -0.98232722389E+03  0.17380915422E+04  0.79139939439E+02 0.  0.
        254    2    1    2    0    0 -0.98723602187E+03  0.10368690088E+04 -0.28960663022E+03  0.17081920371E+04  0.88561601784E+03 0.  0.
         23    2    4    4    0    0 -0.31279499101E+03  0.54496081112E+03  0.27971699423E+03  0.69394893098E+03  0.92198318270E+02 0.  0.
         23    2    4    4    0    0 -0.67444103086E+03  0.49190819763E+03 -0.56932362445E+03  0.10142431061E+04  0.87836836717E+02 0.  0.
          2    1    3    3  502    0  0.48915755257E+03 -0.53973035573E+03 -0.45684990036E+03  0.85982312111E+03  0.00000000000E+00 0. -1.
         -1    1    3    3    0  502  0.49807846930E+03 -0.49713865302E+03 -0.52547732353E+03  0.87826842107E+03  0.00000000000E+00 0.  1.
         13    1    5    5    0    0 -0.24251882717E+03  0.47817528624E+03  0.25600447847E+03  0.59414247358E+03  0.00000000000E+00 0. -1.
        -13    1    5    5    0    0 -0.70276163836E+02  0.66785524880E+02  0.23712515757E+02  0.99806457409E+02  0.00000000000E+00 0.  1.
          3    1    6    6  503    0 -0.57830172279E+03  0.44220852170E+03 -0.46442442102E+03  0.86352261238E+03  0.00000000000E+00 0. -1.
         -3    1    6    6    0  503 -0.96139308074E+02  0.49699675926E+02 -0.10489920343E+03  0.15072049371E+03  0.00000000000E+00 0.  1.
<mgrwt>
<rscale>  0 0.32029759E+04</rscale>
<asrwt>0</asrwt>
<pdfrwt beam="1">  1        2 0.36293980E+00 0.32029759E+04</pdfrwt>
<pdfrwt beam="2">  1       -1 0.16725767E+00 0.32029759E+04</pdfrwt>
<totfact> 0.10349897E+00</totfact>
</mgrwt>
</event>
<event>
12    7  0.1730932E-007  0.1486124E+04  0.7818608E-02  0.8893733E-01
         -1   -1    0    0    0  501 -0.00000000000E+00  0.00000000000E+00  0.64789297969E+03  0.64789297969E+03  0.00000000000E+00 0.  1.
          2   -1    0    0  501    0  0.00000000000E+00 -0.00000000000E+00 -0.85221032683E+03  0.85221032683E+03  0.00000000000E+00 0. -1.
         24    2    1    2    0    0 -0.84761423591E+02  0.15779138467E+02 -0.52329066627E+03  0.53628753476E+03  0.79609788352E+02 0.  0.
        254    2    1    2    0    0  0.84761423590E+02 -0.15779138467E+02  0.31897331913E+03  0.96381577176E+03  0.90540785475E+03 0.  0.
         23    2    4    4    0    0  0.48093037181E+03  0.61631157823E+02  0.15896815980E+03  0.51841752841E+03  0.91615696163E+02 0.  0.
         23    2    4    4    0    0 -0.39616894822E+03 -0.77410296290E+02  0.16000515933E+03  0.44539824335E+03  0.99175373268E+02 0.  0.
          4    1    3    3  502    0 -0.50443622130E+02 -0.65296911092E+01 -0.44541809070E+03  0.44831291683E+03  0.00000000000E+00 0. -1.
         -3    1    3    3    0  502 -0.34317801460E+02  0.22308829576E+02 -0.77872575568E+02  0.87974617928E+02  0.00000000000E+00 0.  1.
         13    1    5    5    0    0  0.27966472616E+03  0.64809490779E-01  0.12021664809E+03  0.30440828789E+03  0.00000000000E+00 0. -1.
        -13    1    5    5    0    0  0.20126564565E+03  0.61566348332E+02  0.38751511711E+02  0.21400924052E+03  0.00000000000E+00 0.  1.
          1    1    6    6  503    0 -0.38377562903E+03 -0.76107444324E+02  0.17264580832E+03  0.42764781263E+03  0.00000000000E+00 0. -1.
         -1    1    6    6    0  503 -0.12393319196E+02 -0.13028519657E+01 -0.12640648992E+02  0.17750430724E+02  0.00000000000E+00 0.  1.
<mgrwt>
<rscale>  0 0.14861239E+04</rscale>
<asrwt>0</asrwt>
<pdfrwt beam="1">  1        2 0.13110928E+00 0.14861239E+04</pdfrwt>
<pdfrwt beam="2">  1       -1 0.99675843E-01 0.14861239E+04</pdfrwt>
<totfact> 0.33539583E+01</totfact>
</mgrwt>
</event>
<event>
12    7  0.1730932E-007  0.1970413E+04  0.7818608E-02  0.8620580E-01
          4   -1    0    0  501    0  0.00000000000E+00  0.00000000000E+00  0.12233293383E+04  0.12233293383E+04  0.00000000000E+00 0. -1.
         -3   -1    0    0    0  501 -0.00000000000E+00 -0.00000000000E+00 -0.79343475170E+03  0.79343475170E+03  0.00000000000E+00 0.  1.
         24    2    1    2    0    0 -0.14547530579E+03 -0.24906269992E+03 -0.56874699154E+03  0.64281221847E+03  0.80864792999E+02 0.  0.
        254    2    1    2    0    0  0.14547530579E+03  0.24906269992E+03  0.99864157812E+03  0.13739518715E+04  0.89847840851E+03 0.  0.
         23    2    4    4    0    0  0.25112094832E+03 -0.55414787547E+02 -0.46554410885E+02  0.27632021014E+03  0.89738598148E+02 0.  0.
         23    2    4    4    0    0 -0.10564564253E+03  0.30447748746E+03  0.10451959890E+04  0.10976316613E+04  0.92157834257E+02 0.  0.
          2    1    3    3  502    0 -0.61449268236E+01 -0.78973816213E+02 -0.13510414215E+03  0.15661338703E+03  0.00000000000E+00 0. -1.
         -1    1    3    3    0  502 -0.13933037896E+03 -0.17008888370E+03 -0.43364284940E+03  0.48619883144E+03  0.00000000000E+00 0.  1.
         13    1    5    5    0    0  0.24016893991E+03 -0.64706319619E+02 -0.24412339564E+02  0.24992796926E+03  0.00000000000E+00 0. -1.
        -13    1    5    5    0    0  0.10952008409E+02  0.92915320720E+01 -0.22142071321E+02  0.26392240883E+02  0.00000000000E+00 0.  1.
          1    1    6    6  503    0 -0.56140085591E+02  0.26294260703E+03  0.88332697354E+03  0.92334016808E+03  0.00000000000E+00 0. -1.
         -1    1    6    6    0  503 -0.49505556942E+02  0.41534880436E+02  0.16186901546E+03  0.17429149327E+03  0.00000000000E+00 0.  1.
<mgrwt>
<rscale>  0 0.19704132E+04</rscale>
<asrwt>0</asrwt>
<pdfrwt beam="1">  1        4 0.18820451E+00 0.19704132E+04</pdfrwt>
<pdfrwt beam="2">  1       -3 0.12206689E+00 0.19704132E+04</pdfrwt>
<totfact> 0.18204250E-01</totfact>
</mgrwt>
</event>
<event>
12    7  0.1730932E-007  0.1590031E+04  0.7818608E-02  0.8826696E-01
          2   -1    0    0  501    0  0.00000000000E+00  0.00000000000E+00  0.10352860197E+04  0.10352860197E+04  0.00000000000E+00 0. -1.
         -1   -1    0    0    0  501 -0.00000000000E+00 -0.00000000000E+00 -0.61050718419E+03  0.61050718419E+03  0.00000000000E+00 0.  1.
         24    2    1    2    0    0 -0.12559366218E+03 -0.44850817382E+03  0.34981696995E+03  0.58803258017E+03  0.80480139821E+02 0.  0.
        254    2    1    2    0    0  0.12559366218E+03  0.44850817382E+03  0.74961865596E+02  0.10577606238E+04  0.94673380943E+03 0.  0.
         23    2    4    4    0    0  0.16467654655E+03  0.71186398030E+03  0.17904279084E+03  0.75776757218E+03  0.91031209287E+02 0.  0.
         23    2    4    4    0    0 -0.39082884370E+02 -0.26335580648E+03 -0.10408092524E+03  0.29999305157E+03  0.90990325511E+02 0.  0.
          4    1    3    3  502    0 -0.77134315222E+02 -0.19919276773E+03  0.11731155819E+03  0.24369953423E+03  0.00000000000E+00 0. -1.
         -3    1    3    3    0  502 -0.48459346957E+02 -0.24931540609E+03  0.23250541176E+03  0.34433304593E+03  0.00000000000E+00 0.  1.
         13    1    5    5    0    0  0.58714955112E+02  0.32125882355E+03  0.12395659495E+03  0.34931349115E+03  0.00000000000E+00 0.  1.
        -13    1    5    5    0    0  0.10596159144E+03  0.39060515675E+03  0.55086195894E+02  0.40845408104E+03  0.00000000000E+00 0. -1.
          4    1    6    6  503    0 -0.41317452365E+02 -0.55511735174E+02 -0.40482511490E+01  0.69318633493E+02  0.00000000000E+00 0. -1.
         -4    1    6    6    0  503  0.22345679946E+01 -0.20784407130E+03 -0.10003267410E+03  0.23067441808E+03  0.00000000000E+00 0.  1.
<mgrwt>
<rscale>  0 0.15900309E+04</rscale>
<asrwt>0</asrwt>
<pdfrwt beam="1">  1        2 0.15927477E+00 0.15900309E+04</pdfrwt>
<pdfrwt beam="2">  1       -1 0.93924183E-01 0.15900309E+04</pdfrwt>
<totfact> 0.28766366E+01</totfact>
</mgrwt>
</event>
<event>
12    7  0.1730932E-007  0.1954405E+04  0.7818608E-02  0.8628240E-01
          2   -1    0    0  501    0  0.00000000000E+00  0.00000000000E+00  0.11250240967E+04  0.11250240967E+04  0.00000000000E+00 0. -1.
         -1   -1    0    0    0  501 -0.00000000000E+00 -0.00000000000E+00 -0.84880380446E+03  0.84880380446E+03  0.00000000000E+00 0.  1.
         24    2    1    2    0    0  0.65593492778E+02  0.43066734992E+03  0.74765189407E+03  0.86908608191E+03  0.80934482691E+02 0.  0.
        254    2    1    2    0    0 -0.65593492778E+02 -0.43066734992E+03 -0.47143160184E+03  0.11047418192E+04  0.89912727650E+03 0.  0.
         23    2    4    4    0    0 -0.21999401291E+03 -0.18523776570E+03 -0.67472632483E+03  0.73902795597E+03  0.90533478468E+02 0.  0.
         23    2    4    4    0    0  0.15440052013E+03 -0.24542958422E+03  0.20329472299E+03  0.36571386326E+03  0.91338294063E+02 0.  0.
          2    1    3    3  502    0  0.23118421420E+02  0.27452502849E+03  0.53607543826E+03  0.60272326003E+03  0.00000000000E+00 0. -1.
         -1    1    3    3    0  502  0.42475071359E+02  0.15614232143E+03  0.21157645581E+03  0.26636282188E+03  0.00000000000E+00 0.  1.
         13    1    5    5    0    0 -0.10352267983E+03 -0.12819708215E+03 -0.29685373871E+03  0.33951963021E+03  0.00000000000E+00 0.  1.
        -13    1    5    5    0    0 -0.11647133308E+03 -0.57040683555E+02 -0.37787258612E+03  0.39950832576E+03  0.00000000000E+00 0. -1.
          4    1    6    6  503    0  0.28427871660E+02 -0.11935606266E+03  0.10881500840E+03  0.16399609640E+03  0.00000000000E+00 0. -1.
         -4    1    6    6    0  503  0.12597264847E+03 -0.12607352156E+03  0.94479714586E+02  0.20171776687E+03  0.00000000000E+00 0.  1.
<mgrwt>
<rscale>  0 0.19544050E+04</rscale>
<asrwt>0</asrwt>
<pdfrwt beam="1">  1        2 0.17308063E+00 0.19544050E+04</pdfrwt>
<pdfrwt beam="2">  1       -1 0.13058520E+00 0.19544050E+04</pdfrwt>
<totfact> 0.11212813E+01</totfact>
</mgrwt>
</event>
<event>
12    7  0.1730932E-007  0.3061732E+04  0.7818608E-02  0.8226319E-01
          2   -1    0    0  501    0  0.00000000000E+00  0.00000000000E+00  0.29844843977E+04  0.29844843977E+04  0.00000000000E+00 0. -1.
         -1   -1    0    0    0  501 -0.00000000000E+00 -0.00000000000E+00 -0.78524456599E+03  0.78524456599E+03  0.00000000000E+00 0.  1.
         24    2    1    2    0    0  0.50523489389E+03 -0.12180049367E+04  0.15886944264E+04  0.20659482986E+04  0.73444320606E+02 0.  0.
        254    2    1    2    0    0 -0.50523489389E+03  0.12180049367E+04  0.61054540524E+03  0.17037806650E+04  0.88955299952E+03 0.  0.
         23    2    4    4    0    0 -0.72665493390E+02  0.27095406581E+03  0.58845960639E+03  0.65838151475E+03  0.92114770304E+02 0.  0.
         23    2    4    4    0    0 -0.43256940050E+03  0.94705087086E+03  0.22085798855E+02  0.10453991503E+04  0.91378130137E+02 0.  0.
          2    1    3    3  502    0  0.42940365003E+03 -0.10891928048E+04  0.13918780990E+04  0.18188054055E+04  0.00000000000E+00 0. -1.
         -1    1    3    3    0  502  0.75831243853E+02 -0.12881213186E+03  0.19681632746E+03  0.24714289311E+03  0.00000000000E+00 0.  1.
         13    1    5    5    0    0 -0.24794280083E+02  0.53920322525E+01  0.54024802213E+02  0.59686762275E+02  0.00000000000E+00 0.  1.
        -13    1    5    5    0    0 -0.47871213307E+02  0.26556203355E+03  0.53443480418E+03  0.59869475248E+03  0.00000000000E+00 0. -1.
          1    1    6    6  503    0 -0.76117378363E+02  0.10085035054E+03  0.14263075699E+02  0.12715378021E+03  0.00000000000E+00 0. -1.
         -1    1    6    6    0  503 -0.35645202213E+03  0.84620052032E+03  0.78227231558E+01  0.91824537008E+03  0.00000000000E+00 0.  1.
<mgrwt>
<rscale>  0 0.30617316E+04</rscale>
<asrwt>0</asrwt>
<pdfrwt beam="1">  1        2 0.45915144E+00 0.30617316E+04</pdfrwt>
<pdfrwt beam="2">  1       -1 0.12080686E+00 0.30617316E+04</pdfrwt>
<totfact> 0.10485137E+00</totfact>
</mgrwt>
</event>
<event>
12    7  0.1730932E-007  0.2139256E+04  0.7818608E-02  0.8544145E-01
         -1   -1    0    0    0  501 -0.00000000000E+00  0.00000000000E+00  0.10620621275E+04  0.10620621275E+04  0.00000000000E+00 0.  1.
          2   -1    0    0  501    0  0.00000000000E+00 -0.00000000000E+00 -0.10772475519E+04  0.10772475519E+04  0.00000000000E+00 0. -1.
         24    2    1    2    0    0 -0.21363054026E+03 -0.15430690361E+03 -0.87022103851E+03  0.91272940851E+03  0.79634722661E+02 0.  0.
        254    2    1    2    0    0  0.21363054026E+03  0.15430690361E+03  0.85503561412E+03  0.12265802709E+04  0.83902600158E+03 0.  0.
         23    2    4    4    0    0  0.24113996749E+03 -0.34347238342E+01 -0.82116429061E+02  0.27141726451E+03  0.93615929758E+02 0.  0.
         23    2    4    4    0    0 -0.27509427232E+02  0.15774162745E+03  0.93715204318E+03  0.95516300639E+03  0.91887034576E+02 0.  0.
          4    1    3    3  502    0 -0.15599868102E+03 -0.11051720663E+03 -0.73380615401E+03  0.75830146585E+03  0.00000000000E+00 0. -1.
         -3    1    3    3    0  502 -0.57631859236E+02 -0.43789696986E+02 -0.13641488450E+03  0.15442794266E+03  0.00000000000E+00 0.  1.
         13    1    5    5    0    0  0.43754309823E+02  0.35525893817E+02 -0.76168495858E+01  0.56873061789E+02  0.00000000000E+00 0.  1.
        -13    1    5    5    0    0  0.19738565767E+03 -0.38960617651E+02 -0.74499579475E+02  0.21454420273E+03  0.00000000000E+00 0. -1.
          3    1    6    6  503    0  0.23242853599E+02  0.10096329323E+03  0.64401144566E+03  0.65229177441E+03  0.00000000000E+00 0. -1.
         -3    1    6    6    0  503 -0.50752280832E+02  0.56778334212E+02  0.29314059752E+03  0.30287123198E+03  0.00000000000E+00 0.  1.
<mgrwt>
<rscale>  0 0.21392558E+04</rscale>
<asrwt>0</asrwt>
<pdfrwt beam="1">  1        2 0.16573039E+00 0.21392558E+04</pdfrwt>
<pdfrwt beam="2">  1       -1 0.16339417E+00 0.21392558E+04</pdfrwt>
<totfact> 0.64955555E+00</totfact>
</mgrwt>
</event>
<event>
12    7  0.1730932E-007  0.3396626E+04  0.7818608E-02  0.8138735E-01
         -1   -1    0    0    0  501 -0.00000000000E+00  0.00000000000E+00  0.14735280216E+04  0.14735280216E+04  0.00000000000E+00 0.  1.
          2   -1    0    0  501    0  0.00000000000E+00 -0.00000000000E+00 -0.19573891659E+04  0.19573891659E+04  0.00000000000E+00 0. -1.
         24    2    1    2    0    0 -0.90260916662E+03 -0.56375449572E+03 -0.14013795651E+04  0.17614697561E+04  0.79928574799E+02 0.  0.
        254    2    1    2    0    0  0.90260916662E+03  0.56375449572E+03  0.91751842086E+03  0.16694474314E+04  0.90149444514E+03 0.  0.
         23    2    4    4    0    0 -0.25334746688E+02  0.44062415530E+03  0.36246529300E+03  0.57784366281E+03  0.87924481152E+02 0.  0.
         23    2    4    4    0    0  0.92794391330E+03  0.12313034042E+03  0.55505312786E+03  0.10916037686E+04  0.85286728084E+02 0.  0.
          4    1    3    3  502    0 -0.82377219068E+03 -0.51430667112E+03 -0.12381015411E+04  0.15735334124E+04  0.00000000000E+00 0. -1.
         -3    1    3    3    0  502 -0.78836975935E+02 -0.49447824608E+02 -0.16327802406E+03  0.18793634368E+03  0.00000000000E+00 0.  1.
         13    1    5    5    0    0 -0.20462363634E+02  0.20813006565E+03  0.22728943791E+03  0.30886456763E+03  0.00000000000E+00 0.  1.
        -13    1    5    5    0    0 -0.48723830537E+01  0.23249408966E+03  0.13517585510E+03  0.26897909518E+03  0.00000000000E+00 0. -1.
          3    1    6    6  503    0  0.92484065188E+03  0.11915694818E+03  0.55702697523E+03  0.10861895142E+04  0.00000000000E+00 0. -1.
         -3    1    6    6    0  503  0.31032614184E+01  0.39733922441E+01 -0.19738473752E+01  0.54142544101E+01  0.00000000000E+00 0.  1.
<mgrwt>
<rscale>  0 0.33966264E+04</rscale>
<asrwt>0</asrwt>
<pdfrwt beam="1">  1        2 0.30113679E+00 0.33966264E+04</pdfrwt>
<pdfrwt beam="2">  1       -1 0.22669662E+00 0.33966264E+04</pdfrwt>
<totfact> 0.66038697E-01</totfact>
</mgrwt>
</event>
<event>
12    7  0.1730932E-007  0.1850603E+04  0.7818608E-02  0.8679843E-01
         -1   -1    0    0    0  501 -0.00000000000E+00  0.00000000000E+00  0.45735250132E+03  0.45735250132E+03  0.00000000000E+00 0.  1.
          2   -1    0    0  501    0  0.00000000000E+00 -0.00000000000E+00 -0.18720422831E+04  0.18720422831E+04  0.00000000000E+00 0. -1.
         24    2    1    2    0    0 -0.20549075344E+03 -0.12253452523E+03 -0.13699369115E+04  0.13929466047E+04  0.79573503249E+02 0.  0.
        254    2    1    2    0    0  0.20549075344E+03  0.12253452523E+03 -0.44752870327E+02  0.93644817977E+03  0.90426280160E+03 0.  0.
         23    2    4    4    0    0 -0.13593428639E+03 -0.24238972860E+03  0.21780960881E+03  0.36458606714E+03  0.90835367109E+02 0.  0.
         23    2    4    4    0    0  0.34142503982E+03  0.36492425384E+03 -0.26256247913E+03  0.57186211263E+03  0.91358916114E+02 0.  0.
          2    1    3    3  502    0 -0.16869726388E+03 -0.68180562213E+02 -0.11120846552E+04  0.11268716148E+04  0.00000000000E+00 0. -1.
         -3    1    3    3    0  502 -0.36793489553E+02 -0.54353963022E+02 -0.25785225627E+03  0.26607498987E+03  0.00000000000E+00 0.  1.
         13    1    5    5    0    0 -0.80827172397E+02 -0.21065361076E+03  0.19083335927E+03  0.29550862345E+03  0.00000000000E+00 0.  1.
        -13    1    5    5    0    0 -0.55107113988E+02 -0.31736117844E+02  0.26976249540E+02  0.69077443693E+02  0.00000000000E+00 0. -1.
          1    1    6    6  503    0  0.25400636896E+02  0.61238566437E+01  0.51650327264E+00  0.26133517761E+02  0.00000000000E+00 0. -1.
         -1    1    6    6    0  503  0.31602440293E+03  0.35880039719E+03 -0.26307898241E+03  0.54572859487E+03  0.00000000000E+00 0.  1.
<mgrwt>
<rscale>  0 0.18506034E+04</rscale>
<asrwt>0</asrwt>
<pdfrwt beam="1">  1        2 0.28800651E+00 0.18506034E+04</pdfrwt>
<pdfrwt beam="2">  1       -1 0.70361922E-01 0.18506034E+04</pdfrwt>
<totfact> 0.17202459E+01</totfact>
</mgrwt>
</event>
<event>
12    7  0.1730932E-007  0.1767523E+04  0.7818608E-02  0.8723764E-01
         -1   -1    0    0    0  501 -0.00000000000E+00  0.00000000000E+00  0.74421525513E+03  0.74421525513E+03  0.00000000000E+00 0.  1.
          2   -1    0    0  501    0  0.00000000000E+00 -0.00000000000E+00 -0.10494738090E+04  0.10494738090E+04  0.00000000000E+00 0. -1.
         24    2    1    2    0    0  0.20282680858E+02  0.27975604912E+03  0.46306334241E+03  0.54749019709E+03  0.81504740128E+02 0.  0.
        254    2    1    2    0    0 -0.20282680858E+02 -0.27975604912E+03 -0.76832189629E+03  0.12461988671E+04  0.94022244484E+03 0.  0.
         23    2    4    4    0    0  0.24222684485E+03 -0.38590058377E+03 -0.82197910298E+03  0.94389408450E+03  0.87711413692E+02 0.  0.
         23    2    4    4    0    0 -0.26250952571E+03  0.10614453466E+03  0.53657206698E+02  0.30230478255E+03  0.91275256219E+02 0.  0.
          4    1    3    3  502    0  0.28629982921E+02  0.78361116360E+02  0.19501290261E+03  0.21210886984E+03  0.00000000000E+00 0. -1.
         -3    1    3    3    0  502 -0.83473020627E+01  0.20139493275E+03  0.26805043980E+03  0.33538132725E+03  0.00000000000E+00 0.  1.
         13    1    5    5    0    0  0.20504383317E+03 -0.32011879975E+03 -0.60906498253E+03  0.71796878234E+03  0.00000000000E+00 0.  1.
        -13    1    5    5    0    0  0.37183011683E+02 -0.65781784022E+02 -0.21291412045E+03  0.22592530216E+03  0.00000000000E+00 0. -1.
          1    1    6    6  503    0 -0.67022510411E+02  0.65891356912E+02  0.40320591390E+02  0.10227139340E+03  0.00000000000E+00 0.  1.
         -1    1    6    6    0  503 -0.19548701530E+03  0.40253177745E+02  0.13336615308E+02  0.20003338916E+03  0.00000000000E+00 0. -1.
<mgrwt>
<rscale>  0 0.17675230E+04</rscale>
<asrwt>0</asrwt>
<pdfrwt beam="1">  1        2 0.16145751E+00 0.17675230E+04</pdfrwt>
<pdfrwt beam="2">  1       -1 0.11449466E+00 0.17675230E+04</pdfrwt>
<totfact> 0.17548610E+01</totfact>
</mgrwt>
</event>
<event>
12    7  0.1730932E-007  0.1408769E+04  0.7818608E-02  0.8947496E-01
         -1   -1    0    0    0  501 -0.00000000000E+00  0.00000000000E+00  0.27798368072E+03  0.27798368072E+03  0.00000000000E+00 0.  1.
          2   -1    0    0  501    0  0.00000000000E+00 -0.00000000000E+00 -0.17848431860E+04  0.17848431860E+04  0.00000000000E+00 0. -1.
         24    2    1    2    0    0 -0.16327878524E+03  0.37848426609E+03 -0.49263461062E+03  0.64801407342E+03  0.85574986882E+02 0.  0.
        254    2    1    2    0    0  0.16327878524E+03 -0.37848426609E+03 -0.10142248947E+04  0.14148127933E+04  0.89617676926E+03 0.  0.
         23    2    4    4    0    0  0.52562649083E+03 -0.26247681123E+03 -0.62790385169E+03  0.86524944377E+03  0.96000357767E+02 0.  0.
         23    2    4    4    0    0 -0.36234770558E+03 -0.11600745486E+03 -0.38632104300E+03  0.54956334955E+03  0.89567502920E+02 0.  0.
          4    1    3    3  502    0 -0.22572111057E+02  0.99314841194E+02 -0.75736694922E+02  0.12692117568E+03  0.00000000000E+00 0. -1.
         -3    1    3    3    0  502 -0.14070667419E+03  0.27916942489E+03 -0.41689791570E+03  0.52109289774E+03  0.00000000000E+00 0.  1.
         13    1    5    5    0    0  0.30363009461E+03 -0.12106834899E+03 -0.40409190474E+03  0.51974902304E+03  0.00000000000E+00 0. -1.
        -13    1    5    5    0    0  0.22199639622E+03 -0.14140846224E+03 -0.22381194695E+03  0.34550042073E+03  0.00000000000E+00 0.  1.
          1    1    6    6  503    0 -0.11127908335E+03 -0.32089054452E+02 -0.17954004520E+03  0.21365245058E+03  0.00000000000E+00 0. -1.
         -1    1    6    6    0  503 -0.25106862224E+03 -0.83918400410E+02 -0.20678099779E+03  0.33591089897E+03  0.00000000000E+00 0.  1.
<mgrwt>
<rscale>  0 0.14087687E+04</rscale>
<asrwt>0</asrwt>
<pdfrwt beam="1">  1        2 0.27459125E+00 0.14087687E+04</pdfrwt>
<pdfrwt beam="2">  1       -1 0.42766722E-01 0.14087687E+04</pdfrwt>
<totfact> 0.52493336E+01</totfact>
</mgrwt>
</event>
<event>
12    7  0.1730932E-007  0.1681066E+04  0.7818608E-02  0.8772237E-01
          2   -1    0    0  501    0  0.00000000000E+00  0.00000000000E+00  0.67386290235E+03  0.67386290235E+03  0.00000000000E+00 0. -1.
         -1   -1    0    0    0  501 -0.00000000000E+00 -0.00000000000E+00 -0.10484264893E+04  0.10484264893E+04  0.00000000000E+00 0.  1.
         24    2    1    2    0    0 -0.33887289886E+03  0.27662167801E+03  0.27836989519E+03  0.52461350524E+03  0.79844455035E+02 0.  0.
        254    2    1    2    0    0  0.33887289886E+03 -0.27662167801E+03 -0.65293348217E+03  0.11976758864E+04  0.90374277451E+03 0.  0.
         23    2    4    4    0    0 -0.18540276774E+02 -0.48236178143E+03 -0.98947612403E+02  0.50127048009E+03  0.92004533341E+02 0.  0.
         23    2    4    4    0    0  0.35741317563E+03  0.20574010342E+03 -0.55398586976E+03  0.69640540634E+03  0.89481717790E+02 0.  0.
          2    1    3    3  502    0 -0.31402870997E+03  0.24354961602E+03  0.27466196216E+03  0.48308347065E+03  0.00000000000E+00 0. -1.
         -1    1    3    3    0  502 -0.24844188881E+02  0.33072061994E+02  0.37079330297E+01  0.41530034590E+02  0.00000000000E+00 0.  1.
         13    1    5    5    0    0  0.37600945191E+02 -0.18559762907E+03 -0.39810534147E+02  0.19350759578E+03  0.00000000000E+00 0.  1.
        -13    1    5    5    0    0 -0.56141221965E+02 -0.29676415236E+03 -0.59137078256E+02  0.30776288430E+03  0.00000000000E+00 0. -1.
          1    1    6    6  503    0  0.29079435946E+03  0.19155606682E+03 -0.50091727564E+03  0.61005999973E+03  0.00000000000E+00 0. -1.
         -1    1    6    6    0  503  0.66618816168E+02  0.14184036599E+02 -0.53068594124E+02  0.86345406619E+02  0.00000000000E+00 0.  1.
<mgrwt>
<rscale>  0 0.16810660E+04</rscale>
<asrwt>0</asrwt>
<pdfrwt beam="1">  1        2 0.10367122E+00 0.16810660E+04</pdfrwt>
<pdfrwt beam="2">  1       -1 0.16129638E+00 0.16810660E+04</pdfrwt>
<totfact> 0.13367187E+01</totfact>
</mgrwt>
</event>
<event>
12    7  0.1730932E-007  0.1432752E+04  0.7818608E-02  0.8930447E-01
         -1   -1    0    0    0  501 -0.00000000000E+00  0.00000000000E+00  0.20136521706E+03  0.20136521706E+03  0.00000000000E+00 0.  1.
          2   -1    0    0  501    0  0.00000000000E+00 -0.00000000000E+00 -0.25485749221E+04  0.25485749221E+04  0.00000000000E+00 0. -1.
         24    2    1    2    0    0 -0.42996467974E+02  0.32345388541E+03 -0.12673353796E+04  0.13108217167E+04  0.75123206440E+02 0.  0.
        254    2    1    2    0    0  0.42996467974E+02 -0.32345388541E+03 -0.10798743254E+04  0.14391184225E+04  0.89356710049E+03 0.  0.
         23    2    4    4    0    0 -0.26036273282E+03  0.14555304802E+03 -0.14031316732E+03  0.34231870825E+03  0.92303145477E+02 0.  0.
         23    2    4    4    0    0  0.30335920080E+03 -0.46900693343E+03 -0.93956115810E+03  0.10967997143E+04  0.90554597274E+02 0.  0.
          2    1    3    3  502    0 -0.53363532974E+02  0.26503618747E+03 -0.93798174276E+03  0.97616678753E+03  0.00000000000E+00 0. -1.
         -1    1    3    3    0  502  0.10367065000E+02  0.58417697934E+02 -0.32935363687E+03  0.33465492912E+03  0.00000000000E+00 0.  1.
         13    1    5    5    0    0 -0.31751534830E+02  0.54856022651E+02 -0.48442892839E+02  0.79775040281E+02  0.00000000000E+00 0.  1.
        -13    1    5    5    0    0 -0.22861119799E+03  0.90697025367E+02 -0.91870274483E+02  0.26254366797E+03  0.00000000000E+00 0. -1.
          4    1    6    6  503    0  0.24837545273E+03 -0.31949120995E+03 -0.71299252399E+03  0.81983128632E+03  0.00000000000E+00 0. -1.
         -4    1    6    6    0  503  0.54983748067E+02 -0.14951572348E+03 -0.22656863411E+03  0.27696842795E+03  0.00000000000E+00 0.  1.
<mgrwt>
<rscale>  0 0.14327517E+04</rscale>
<asrwt>0</asrwt>
<pdfrwt beam="1">  1        2 0.39208843E+00 0.14327517E+04</pdfrwt>
<pdfrwt beam="2">  1       -1 0.30979266E-01 0.14327517E+04</pdfrwt>
<totfact> 0.34912221E+01</totfact>
</mgrwt>
</event>
<event>
12    7  0.1730932E-007  0.2431562E+04  0.7818608E-02  0.8427781E-01
          2   -1    0    0  501    0  0.00000000000E+00  0.00000000000E+00  0.12829690104E+04  0.12829690104E+04  0.00000000000E+00 0. -1.
         -1   -1    0    0    0  501 -0.00000000000E+00 -0.00000000000E+00 -0.11521114805E+04  0.11521114805E+04  0.00000000000E+00 0.  1.
         24    2    1    2    0    0  0.36395382612E+03 -0.31904884372E+03 -0.87641273392E+03  0.10043495767E+04  0.79776186075E+02 0.  0.
        254    2    1    2    0    0 -0.36395382612E+03  0.31904884372E+03  0.10072702638E+04  0.14307309141E+04  0.89338850001E+03 0.  0.
         23    2    4    4    0    0  0.16595568096E+03  0.33209644183E+03  0.73363603660E+03  0.82719331219E+03  0.90540636274E+02 0.  0.
         23    2    4    4    0    0 -0.52990950708E+03 -0.13047598106E+02  0.27363422725E+03  0.60353760193E+03  0.91693081024E+02 0.  0.
          2    1    3    3  502    0  0.57369294034E+02 -0.19954784676E+02 -0.13660962100E+03  0.14950457478E+03  0.00000000000E+00 0. -1.
         -1    1    3    3    0  502  0.30658453208E+03 -0.29909405905E+03 -0.73980311292E+03  0.85484500195E+03  0.00000000000E+00 0.  1.
         13    1    5    5    0    0  0.90993165459E+02  0.26737908227E+03  0.52120715006E+03  0.59281381822E+03  0.00000000000E+00 0. -1.
        -13    1    5    5    0    0  0.74962515502E+02  0.64717359558E+02  0.21242888654E+03  0.23437949397E+03  0.00000000000E+00 0.  1.
          4    1    6    6  503    0 -0.49009033937E+03 -0.36872285341E+02  0.24737623046E+03  0.55022096067E+03  0.00000000000E+00 0. -1.
         -4    1    6    6    0  503 -0.39819167712E+02  0.23824687236E+02  0.26257996795E+02  0.53316641256E+02  0.00000000000E+00 0.  1.
<mgrwt>
<rscale>  0 0.24315619E+04</rscale>
<asrwt>0</asrwt>
<pdfrwt beam="1">  1        2 0.19737985E+00 0.24315619E+04</pdfrwt>
<pdfrwt beam="2">  1       -1 0.17724792E+00 0.24315619E+04</pdfrwt>
<totfact> 0.37664074E+00</totfact>
</mgrwt>
</event>
<event>
12    7  0.1730932E-007  0.1369212E+04  0.7818608E-02  0.8976411E-01
          2   -1    0    0  501    0  0.00000000000E+00  0.00000000000E+00  0.70558045787E+03  0.70558045787E+03  0.00000000000E+00 0. -1.
         -1   -1    0    0    0  501 -0.00000000000E+00 -0.00000000000E+00 -0.66425544967E+03  0.66425544967E+03  0.00000000000E+00 0.  1.
         24    2    1    2    0    0 -0.11802157669E+03 -0.12608925726E+03  0.34782573795E+03  0.39649398845E+03  0.79982157593E+02 0.  0.
        254    2    1    2    0    0  0.11802157669E+03  0.12608925726E+03 -0.30650072975E+03  0.97334191910E+03  0.90753743767E+03 0.  0.
         23    2    4    4    0    0  0.39919660912E+03 -0.20964062227E+03 -0.64999481864E+02  0.46473063137E+03  0.91883098836E+02 0.  0.
         23    2    4    4    0    0 -0.28117503243E+03  0.33572987953E+03 -0.24150124789E+03  0.50861128773E+03  0.92674907057E+02 0.  0.
          2    1    3    3  502    0 -0.12602079104E+03 -0.93905314606E+02  0.28821985028E+03  0.32828361211E+03  0.00000000000E+00 0. -1.
         -1    1    3    3    0  502  0.79992143485E+01 -0.32183942655E+02  0.59605887670E+02  0.68210376337E+02  0.00000000000E+00 0.  1.
         13    1    5    5    0    0  0.83558011310E+02 -0.45480846578E+01 -0.14786983861E+02  0.84978122007E+02  0.00000000000E+00 0.  1.
        -13    1    5    5    0    0  0.31563859781E+03 -0.20509253761E+03 -0.50212498003E+02  0.37975250936E+03  0.00000000000E+00 0. -1.
          4    1    6    6  503    0 -0.28369655630E+03  0.33624902533E+03 -0.24553953741E+03  0.50382219833E+03  0.00000000000E+00 0. -1.
         -4    1    6    6    0  503  0.25215238666E+01 -0.51914580489E+00  0.40382895250E+01  0.47890893982E+01  0.00000000000E+00 0.  1.
<mgrwt>
<rscale>  0 0.13692124E+04</rscale>
<asrwt>0</asrwt>
<pdfrwt beam="1">  1        2 0.10855084E+00 0.13692124E+04</pdfrwt>
<pdfrwt beam="2">  1       -1 0.10219315E+00 0.13692124E+04</pdfrwt>
<totfact> 0.40992532E+01</totfact>
</mgrwt>
</event>
<event>
12    7  0.1730932E-007  0.1768657E+04  0.7818608E-02  0.8723147E-01
          2   -1    0    0  501    0  0.00000000000E+00  0.00000000000E+00  0.26885158310E+04  0.26885158310E+04  0.00000000000E+00 0. -1.
         -1   -1    0    0    0  501 -0.00000000000E+00 -0.00000000000E+00 -0.29088038956E+03  0.29088038956E+03  0.00000000000E+00 0.  1.
         24    2    1    2    0    0 -0.43016262489E+03  0.32220970006E+03  0.15108503176E+04  0.16054821652E+04  0.77751694454E+02 0.  0.
        254    2    1    2    0    0  0.43016262489E+03 -0.32220970006E+03  0.88678512384E+03  0.13739140553E+04  0.90132846451E+03 0.  0.
         23    2    4    4    0    0  0.30931190440E+03 -0.61280708362E+03  0.44088636979E+03  0.82094531713E+03  0.91455162291E+02 0.  0.
         23    2    4    4    0    0  0.12085072049E+03  0.29059738356E+03  0.44589875405E+03  0.55296873821E+03  0.88865013413E+02 0.  0.
          2    1    3    3  502    0 -0.15538500573E+03  0.76710660062E+02  0.53613254987E+03  0.56344222100E+03  0.00000000000E+00 0. -1.
         -1    1    3    3    0  502 -0.27477761915E+03  0.24549904000E+03  0.97471776774E+03  0.10420399442E+04  0.00000000000E+00 0.  1.
         13    1    5    5    0    0  0.11682115324E+03 -0.24141696500E+03  0.12042208571E+03  0.29399117599E+03  0.00000000000E+00 0. -1.
        -13    1    5    5    0    0  0.19249075116E+03 -0.37139011862E+03  0.32046428408E+03  0.52695414114E+03  0.00000000000E+00 0.  1.
          2    1    6    6  503    0  0.82614891094E+02  0.93640115066E+02  0.19745247436E+03  0.23362613512E+03  0.00000000000E+00 0. -1.
         -2    1    6    6    0  503  0.38235829393E+02  0.19695726849E+03  0.24844627969E+03  0.31934260310E+03  0.00000000000E+00 0.  1.
<mgrwt>
<rscale>  0 0.17686566E+04</rscale>
<asrwt>0</asrwt>
<pdfrwt beam="1">  1        2 0.41361780E+00 0.17686566E+04</pdfrwt>
<pdfrwt beam="2">  1       -1 0.44750831E-01 0.17686566E+04</pdfrwt>
<totfact> 0.14416812E+01</totfact>
</mgrwt>
</event>
<event>
12    7  0.1730932E-007  0.1169044E+04  0.7818608E-02  0.9140392E-01
         -1   -1    0    0    0  501 -0.00000000000E+00  0.00000000000E+00  0.22220372663E+03  0.22220372663E+03  0.00000000000E+00 0.  1.
          2   -1    0    0  501    0  0.00000000000E+00 -0.00000000000E+00 -0.15376249388E+04  0.15376249388E+04  0.00000000000E+00 0. -1.
         24    2    1    2    0    0  0.18411437098E+03 -0.96728572440E+02 -0.15493692325E+03  0.27142218277E+03  0.80062680355E+02 0.  0.
        254    2    1    2    0    0 -0.18411437098E+03  0.96728572440E+02 -0.11604842889E+04  0.14884064827E+04  0.90850181863E+03 0.  0.
         23    2    4    4    0    0 -0.32934484733E+03  0.43061131144E+03 -0.60523279441E+03  0.81798246096E+03  0.94310344109E+02 0.  0.
         23    2    4    4    0    0  0.14523047635E+03 -0.33388273900E+03 -0.55525149452E+03  0.67042402171E+03  0.92706914811E+02 0.  0.
          4    1    3    3  502    0  0.16968753047E+03 -0.99895664444E+02 -0.16206139958E+03  0.25502333031E+03  0.00000000000E+00 0. -1.
         -3    1    3    3    0  502  0.14426840515E+02  0.31670920034E+01  0.71244763280E+01  0.16398852458E+02  0.00000000000E+00 0.  1.
         13    1    5    5    0    0 -0.27042048853E+03  0.30613290702E+03 -0.40715459350E+03  0.57673170572E+03  0.00000000000E+00 0.  1.
        -13    1    5    5    0    0 -0.58924358802E+02  0.12447840441E+03 -0.19807820091E+03  0.24125075524E+03  0.00000000000E+00 0. -1.
          1    1    6    6  503    0  0.50127479102E+02 -0.22756097656E+03 -0.33897966618E+03  0.41134410935E+03  0.00000000000E+00 0. -1.
         -1    1    6    6    0  503  0.95102997247E+02 -0.10632176244E+03 -0.21627182834E+03  0.25907991236E+03  0.00000000000E+00 0.  1.
<mgrwt>
<rscale>  0 0.11690440E+04</rscale>
<asrwt>0</asrwt>
<pdfrwt beam="1">  1        2 0.23655768E+00 0.11690440E+04</pdfrwt>
<pdfrwt beam="2">  1       -1 0.34185190E-01 0.11690440E+04</pdfrwt>
<totfact> 0.11016990E+02</totfact>
</mgrwt>
</event>
<event>
12    7  0.1730932E-007  0.1407434E+04  0.7818608E-02  0.8948455E-01
          2   -1    0    0  501    0  0.00000000000E+00  0.00000000000E+00  0.12964789149E+04  0.12964789149E+04  0.00000000000E+00 0. -1.
         -1   -1    0    0    0  501 -0.00000000000E+00 -0.00000000000E+00 -0.38197097850E+03  0.38197097850E+03  0.00000000000E+00 0.  1.
         24    2    1    2    0    0  0.33871875102E+03 -0.96186638808E+02  0.21134989086E+02  0.36028892030E+03  0.73342733474E+02 0.  0.
        254    2    1    2    0    0 -0.33871875102E+03  0.96186638808E+02  0.89337294729E+03  0.13181609731E+04  0.90302318143E+03 0.  0.
         23    2    4    4    0    0 -0.53219582169E+03 -0.11607230896E+03  0.24696409345E+03  0.60475013871E+03  0.89589582505E+02 0.  0.
         23    2    4    4    0    0  0.19347707067E+03  0.21225894776E+03  0.64640885383E+03  0.71341083436E+03  0.92862126210E+02 0.  0.
          4    1    3    3  502    0  0.63337313572E+02 -0.16623082184E+02  0.33144047302E+02  0.73392574715E+02  0.00000000000E+00 0. -1.
         -3    1    3    3    0  502  0.27538143744E+03 -0.79563556624E+02 -0.12009058216E+02  0.28689634559E+03  0.00000000000E+00 0.  1.
         13    1    5    5    0    0 -0.57700584270E+01  0.83436006729E+01  0.98332537374E+01  0.14128061633E+02  0.00000000000E+00 0.  1.
        -13    1    5    5    0    0 -0.52642576326E+03 -0.12441590963E+03  0.23713083972E+03  0.59062207708E+03  0.00000000000E+00 0. -1.
          3    1    6    6  503    0  0.93916526722E+02  0.15685064984E+03  0.33222169899E+03  0.37920139455E+03  0.00000000000E+00 0. -1.
         -3    1    6    6    0  503  0.99560543947E+02  0.55408297923E+02  0.31418715484E+03  0.33420943980E+03  0.00000000000E+00 0.  1.
<mgrwt>
<rscale>  0 0.14074336E+04</rscale>
<asrwt>0</asrwt>
<pdfrwt beam="1">  1        2 0.19945829E+00 0.14074336E+04</pdfrwt>
<pdfrwt beam="2">  1       -1 0.58764766E-01 0.14074336E+04</pdfrwt>
<totfact> 0.54053411E+01</totfact>
</mgrwt>
</event>
<event>
12    7  0.1730932E-007  0.1876328E+04  0.7818608E-02  0.8666730E-01
         -1   -1    0    0    0  501 -0.00000000000E+00  0.00000000000E+00  0.41660263185E+03  0.41660263185E+03  0.00000000000E+00 0.  1.
          2   -1    0    0  501    0  0.00000000000E+00 -0.00000000000E+00 -0.21126896792E+04  0.21126896792E+04  0.00000000000E+00 0. -1.
         24    2    1    2    0    0 -0.42739827263E+03 -0.50239287227E+03 -0.10210597297E+04  0.12183228901E+04  0.81730113350E+02 0.  0.
        254    2    1    2    0    0  0.42739827263E+03  0.50239287227E+03 -0.67502731767E+03  0.13109694209E+04  0.90989618171E+03 0.  0.
         23    2    4    4    0    0 -0.87935519220E+02  0.57929882598E+03 -0.31859614838E+03  0.67304699063E+03  0.90382302002E+02 0.  0.
         23    2    4    4    0    0  0.51533379185E+03 -0.76905953706E+02 -0.35643116929E+03  0.63792243031E+03  0.91751871460E+02 0.  0.
          4    1    3    3  502    0 -0.38238602376E+03 -0.47197008691E+03 -0.96494978086E+03  0.11402205548E+04  0.00000000000E+00 0. -1.
         -3    1    3    3    0  502 -0.45012248879E+02 -0.30422785363E+02 -0.56109948857E+02  0.78102335298E+02  0.00000000000E+00 0.  1.
         13    1    5    5    0    0  0.10020173653E+01  0.29451158516E+03 -0.15822045348E+03  0.33432288245E+03  0.00000000000E+00 0.  1.
        -13    1    5    5    0    0 -0.88937536585E+02  0.28478724082E+03 -0.16037569490E+03  0.33872410818E+03  0.00000000000E+00 0. -1.
          1    1    6    6  503    0  0.50096532060E+03 -0.81179317906E+02 -0.32376298316E+03  0.60197907220E+03  0.00000000000E+00 0. -1.
         -1    1    6    6    0  503  0.14368471250E+02  0.42733642003E+01 -0.32668186125E+02  0.35943358112E+02  0.00000000000E+00 0.  1.
<mgrwt>
<rscale>  0 0.18763284E+04</rscale>
<asrwt>0</asrwt>
<pdfrwt beam="1">  1        2 0.32502918E+00 0.18763284E+04</pdfrwt>
<pdfrwt beam="2">  1       -1 0.64092713E-01 0.18763284E+04</pdfrwt>
<totfact> 0.15248276E+01</totfact>
</mgrwt>
</event>
<event>
12    7  0.1730932E-007  0.1938360E+04  0.7818608E-02  0.8635994E-01
         -1   -1    0    0    0  501 -0.00000000000E+00  0.00000000000E+00  0.34891688567E+03  0.34891688567E+03  0.00000000000E+00 0.  1.
          2   -1    0    0  501    0  0.00000000000E+00 -0.00000000000E+00 -0.26920747433E+04  0.26920747433E+04  0.00000000000E+00 0. -1.
         24    2    1    2    0    0  0.30367245619E+03  0.35761419748E+03 -0.18558424373E+04  0.19156551602E+04  0.74018009492E+02 0.  0.
        254    2    1    2    0    0 -0.30367245619E+03 -0.35761419748E+03 -0.48731542033E+03  0.11253364688E+04  0.89933362786E+03 0.  0.
         23    2    4    4    0    0  0.58668322848E+02 -0.48421451010E+03  0.13616383222E+01  0.49638184495E+03  0.92127184040E+02 0.  0.
         23    2    4    4    0    0 -0.36234077904E+03  0.12660031262E+03 -0.48867705865E+03  0.62895462383E+03  0.97263414900E+02 0.  0.
          2    1    3    3  502    0  0.29091288761E+03  0.30777192869E+03 -0.16520940696E+04  0.17055112673E+04  0.00000000000E+00 0. -1.
         -1    1    3    3    0  502  0.12759568578E+02  0.49842268794E+02 -0.20374836770E+03  0.21014389282E+03  0.00000000000E+00 0.  1.
         13    1    5    5    0    0 -0.15083532915E+02 -0.25501241224E+03 -0.53191522376E+01  0.25551347663E+03  0.00000000000E+00 0. -1.
        -13    1    5    5    0    0  0.73751855763E+02 -0.22920209787E+03  0.66807905598E+01  0.24086836832E+03  0.00000000000E+00 0.  1.
          2    1    6    6  503    0 -0.38798598728E+02  0.21355482845E+02 -0.11683972924E+03  0.12495163160E+03  0.00000000000E+00 0. -1.
         -2    1    6    6    0  503 -0.32354218031E+03  0.10524482978E+03 -0.37183732941E+03  0.50400299223E+03  0.00000000000E+00 0.  1.
<mgrwt>
<rscale>  0 0.19383605E+04</rscale>
<asrwt>0</asrwt>
<pdfrwt beam="1">  1        2 0.41416533E+00 0.19383605E+04</pdfrwt>
<pdfrwt beam="2">  1       -1 0.53679522E-01 0.19383605E+04</pdfrwt>
<totfact> 0.10006712E+01</totfact>
</mgrwt>
</event>
<event>
12    7  0.1730932E-007  0.2447490E+04  0.7818608E-02  0.8421935E-01
          2   -1    0    0  501    0  0.00000000000E+00  0.00000000000E+00  0.25420512146E+04  0.25420512146E+04  0.00000000000E+00 0. -1.
         -1   -1    0    0    0  501 -0.00000000000E+00 -0.00000000000E+00 -0.58911178989E+03  0.58911178989E+03  0.00000000000E+00 0.  1.
         24    2    1    2    0    0 -0.10429952510E+04 -0.40668657890E+02  0.10828454294E+04  0.15070197714E+04  0.95191040468E+02 0.  0.
        254    2    1    2    0    0  0.10429952510E+04  0.40668657890E+02  0.87009399528E+03  0.16241432330E+04  0.88954181883E+03 0.  0.
         23    2    4    4    0    0  0.13501552366E+02 -0.26444292533E+03  0.27720355616E+03  0.39347527642E+03  0.88705292616E+02 0.  0.
         23    2    4    4    0    0  0.10294936986E+04  0.30511158322E+03  0.59289043913E+03  0.12306679566E+04  0.10037027893E+03 0.  0.
          2    1    3    3  502    0 -0.96350785902E+03 -0.24135751608E+02  0.96466061384E+03  0.13636348590E+04  0.00000000000E+00 0. -1.
         -1    1    3    3    0  502 -0.79487391971E+02 -0.16532906282E+02  0.11818481554E+03  0.14338491237E+03  0.00000000000E+00 0.  1.
         13    1    5    5    0    0 -0.17053458545E+02 -0.16384463084E+03  0.11777587618E+03  0.20250195188E+03  0.00000000000E+00 0. -1.
        -13    1    5    5    0    0  0.30555010911E+02 -0.10059829448E+03  0.15942767998E+03  0.19097332454E+03  0.00000000000E+00 0.  1.
          1    1    6    6  503    0  0.86654286461E+03  0.29134778725E+03  0.51852022463E+03  0.10510201200E+04  0.00000000000E+00 0. -1.
         -1    1    6    6    0  503  0.16295083401E+03  0.13763795966E+02  0.74370214500E+02  0.17964783658E+03  0.00000000000E+00 0.  1.
<mgrwt>
<rscale>  0 0.24474904E+04</rscale>
<asrwt>0</asrwt>
<pdfrwt beam="1">  1        2 0.39108480E+00 0.24474904E+04</pdfrwt>
<pdfrwt beam="2">  1       -1 0.90632585E-01 0.24474904E+04</pdfrwt>
<totfact> 0.39868710E+00</totfact>
</mgrwt>
</event>
<event>
12    7  0.1730932E-007  0.2276067E+04  0.7818608E-02  0.8487418E-01
         -1   -1    0    0    0  501 -0.00000000000E+00  0.00000000000E+00  0.81199622310E+03  0.81199622310E+03  0.00000000000E+00 0.  1.
          2   -1    0    0  501    0  0.00000000000E+00 -0.00000000000E+00 -0.15949832956E+04  0.15949832956E+04  0.00000000000E+00 0. -1.
         24    2    1    2    0    0 -0.73108389833E+03  0.18477525846E+03  0.29460081215E+03  0.81360697849E+03  0.80877156240E+02 0.  0.
        254    2    1    2    0    0  0.73108389833E+03 -0.18477525846E+03 -0.10775878846E+04  0.15933725402E+04  0.89945252247E+03 0.  0.
         23    2    4    4    0    0  0.44920815103E+03 -0.24899308073E+02  0.55652445960E+01  0.45929633410E+03  0.92272488163E+02 0.  0.
         23    2    4    4    0    0  0.28187574729E+03 -0.15987595038E+03 -0.10831531292E+04  0.11340762061E+04  0.88847529185E+02 0.  0.
          2    1    3    3  502    0 -0.91802350788E+01 -0.13447076497E+01 -0.45278016061E+01  0.10324046791E+02  0.00000000000E+00 0. -1.
         -1    1    3    3    0  502 -0.72190366325E+03  0.18611996611E+03  0.29912861376E+03  0.80328293170E+03  0.00000000000E+00 0.  1.
         13    1    5    5    0    0  0.50108264933E+02  0.21815246319E+02 -0.15845179041E+02  0.56901782796E+02  0.00000000000E+00 0. -1.
        -13    1    5    5    0    0  0.39909988610E+03 -0.46714554392E+02  0.21410423637E+02  0.40239455130E+03  0.00000000000E+00 0.  1.
          1    1    6    6  503    0  0.14010870863E+03 -0.11588837479E+03 -0.69847773482E+03  0.72175599179E+03  0.00000000000E+00 0. -1.
         -1    1    6    6    0  503  0.14176703866E+03 -0.43987575590E+02 -0.38467539438E+03  0.41232021427E+03  0.00000000000E+00 0.  1.
<mgrwt>
<rscale>  0 0.22760671E+04</rscale>
<asrwt>0</asrwt>
<pdfrwt beam="1">  1        2 0.24538204E+00 0.22760671E+04</pdfrwt>
<pdfrwt beam="2">  1       -1 0.12492250E+00 0.22760671E+04</pdfrwt>
<totfact> 0.65088799E+00</totfact>
</mgrwt>
</event>
<event>
12    7  0.1730932E-007  0.1367716E+04  0.7818608E-02  0.8977524E-01
          2   -1    0    0  501    0  0.00000000000E+00  0.00000000000E+00  0.11856692993E+04  0.11856692993E+04  0.00000000000E+00 0. -1.
         -1   -1    0    0    0  501 -0.00000000000E+00 -0.00000000000E+00 -0.39442874037E+03  0.39442874037E+03  0.00000000000E+00 0.  1.
         24    2    1    2    0    0 -0.20784288239E+02 -0.38227524568E+03  0.21110671771E+03  0.44424749645E+03  0.78888793482E+02 0.  0.
        254    2    1    2    0    0  0.20784288239E+02  0.38227524568E+03  0.58013384118E+03  0.11358505432E+04  0.89835117447E+03 0.  0.
         23    2    4    4    0    0  0.83476444844E+02  0.60690263071E+03  0.14934225671E+03  0.63748328027E+03  0.93716076458E+02 0.  0.
         23    2    4    4    0    0 -0.62692156605E+02 -0.22462738503E+03  0.43079158447E+03  0.49836726291E+03  0.91655719335E+02 0.  0.
          2    1    3    3  502    0  0.15303652790E+02 -0.60326827814E+02  0.61179386928E+02  0.87272248325E+02  0.00000000000E+00 0. -1.
         -1    1    3    3    0  502 -0.36087941029E+02 -0.32194841787E+03  0.14992733078E+03  0.35697524812E+03  0.00000000000E+00 0.  1.
         13    1    5    5    0    0 -0.47939759430E+01  0.58645933079E+01 -0.68794724852E+01  0.10232438697E+02  0.00000000000E+00 0. -1.
        -13    1    5    5    0    0  0.88270420787E+02  0.60103803740E+03  0.15622172920E+03  0.62725084158E+03  0.00000000000E+00 0.  1.
          1    1    6    6  503    0 -0.24812332078E+02 -0.40460543566E+02  0.31338473463E+02  0.56875366617E+02  0.00000000000E+00 0. -1.
         -1    1    6    6    0  503 -0.37879824527E+02 -0.18416684146E+03  0.39945311100E+03  0.44149189629E+03  0.00000000000E+00 0.  1.
<mgrwt>
<rscale>  0 0.13677164E+04</rscale>
<asrwt>0</asrwt>
<pdfrwt beam="1">  1        2 0.18241066E+00 0.13677164E+04</pdfrwt>
<pdfrwt beam="2">  1       -1 0.60681345E-01 0.13677164E+04</pdfrwt>
<totfact> 0.59184592E+01</totfact>
</mgrwt>
</event>
<event>
12    7  0.1730932E-007  0.1492525E+04  0.7818608E-02  0.8889439E-01
         -1   -1    0    0    0  501 -0.00000000000E+00  0.00000000000E+00  0.21494317640E+03  0.21494317640E+03  0.00000000000E+00 0.  1.
          2   -1    0    0  501    0  0.00000000000E+00 -0.00000000000E+00 -0.25909519571E+04  0.25909519571E+04  0.00000000000E+00 0. -1.
         24    2    1    2    0    0  0.61579711554E+02 -0.14572629957E+02  0.11533872694E+03  0.15388756210E+03  0.79836942694E+02 0.  0.
        254    2    1    2    0    0 -0.61579711554E+02  0.14572629957E+02 -0.24913475076E+04  0.26520075714E+04  0.90682265768E+03 0.  0.
         23    2    4    4    0    0 -0.31672653948E+03 -0.89810293123E+02 -0.22454926172E+04  0.22713906024E+04  0.92717771917E+02 0.  0.
         23    2    4    4    0    0  0.25514682792E+03  0.10438292308E+03 -0.24585489041E+03  0.38061696896E+03  0.91809321390E+02 0.  0.
          4    1    3    3  502    0  0.72010774149E+01  0.22873917319E+02  0.38110225782E+01  0.24281587727E+02  0.00000000000E+00 0. -1.
         -3    1    3    3    0  502  0.54378634139E+02 -0.37446547275E+02  0.11152770436E+03  0.12960597437E+03  0.00000000000E+00 0.  1.
         13    1    5    5    0    0 -0.10854690460E+03  0.10377584453E+02 -0.61155620140E+03  0.62120134596E+03  0.00000000000E+00 0.  1.
        -13    1    5    5    0    0 -0.20817963488E+03 -0.10018787758E+03 -0.16339364158E+04  0.16501892564E+04  0.00000000000E+00 0. -1.
          1    1    6    6  503    0  0.10063483093E+03  0.80456485740E+02 -0.14773294554E+03  0.19602458645E+03  0.00000000000E+00 0. -1.
         -1    1    6    6    0  503  0.15451199699E+03  0.23926437340E+02 -0.98121944874E+02  0.18459238252E+03  0.00000000000E+00 0.  1.
<mgrwt>
<rscale>  0 0.14925246E+04</rscale>
<asrwt>0</asrwt>
<pdfrwt beam="1">  1        2 0.39860803E+00 0.14925246E+04</pdfrwt>
<pdfrwt beam="2">  1       -1 0.33068178E-01 0.14925246E+04</pdfrwt>
<totfact> 0.29234255E+01</totfact>
</mgrwt>
</event>
<event>
12    7  0.1730932E-007  0.1450260E+04  0.7818608E-02  0.8918220E-01
          2   -1    0    0  501    0  0.00000000000E+00  0.00000000000E+00  0.57658431851E+03  0.57658431851E+03  0.00000000000E+00 0. -1.
         -1   -1    0    0    0  501 -0.00000000000E+00 -0.00000000000E+00 -0.91194561950E+03  0.91194561950E+03  0.00000000000E+00 0.  1.
         24    2    1    2    0    0  0.24214622797E+02 -0.15346169092E+03 -0.52336873037E+03  0.55171683115E+03  0.79622831603E+02 0.  0.
        254    2    1    2    0    0 -0.24214622797E+02  0.15346169092E+03  0.18800742938E+03  0.93681310686E+03  0.90450824493E+03 0.  0.
         23    2    4    4    0    0 -0.37225967938E+02 -0.10448476197E+02 -0.35161258944E+03  0.36549988246E+03  0.91998954766E+02 0.  0.
         23    2    4    4    0    0  0.13011345141E+02  0.16391016711E+03  0.53962001882E+03  0.57131322440E+03  0.90405739173E+02 0.  0.
          4    1    3    3  502    0 -0.18332542872E+02 -0.65227594869E+01 -0.36245215652E+02  0.41138111006E+02  0.00000000000E+00 0. -1.
         -3    1    3    3    0  502  0.42547165669E+02 -0.14693893143E+03 -0.48712351472E+03  0.51057872015E+03  0.00000000000E+00 0.  1.
         13    1    5    5    0    0 -0.55719101706E+02 -0.14028448250E+02 -0.11920363253E+03  0.13232883912E+03  0.00000000000E+00 0. -1.
        -13    1    5    5    0    0  0.18493133768E+02  0.35799720533E+01 -0.23240895692E+03  0.23317104334E+03  0.00000000000E+00 0.  1.
          2    1    6    6  503    0 -0.18681136890E+02  0.35072272653E+02  0.49095943337E+02  0.63162178847E+02  0.00000000000E+00 0. -1.
         -2    1    6    6    0  503  0.31692482031E+02  0.12883789446E+03  0.49052407548E+03  0.50815104555E+03  0.00000000000E+00 0.  1.
<mgrwt>
<rscale>  0 0.14502600E+04</rscale>
<asrwt>0</asrwt>
<pdfrwt beam="1">  1        2 0.88705280E-01 0.14502600E+04</pdfrwt>
<pdfrwt beam="2">  1       -1 0.14029933E+00 0.14502600E+04</pdfrwt>
<totfact> 0.24042535E+01</totfact>
</mgrwt>
</event>
<event>
12    7  0.1730932E-007  0.1378967E+04  0.7818608E-02  0.8969186E-01
          2   -1    0    0  501    0  0.00000000000E+00  0.00000000000E+00  0.11796395032E+04  0.11796395032E+04  0.00000000000E+00 0. -1.
         -1   -1    0    0    0  501 -0.00000000000E+00 -0.00000000000E+00 -0.40299380923E+03  0.40299380923E+03  0.00000000000E+00 0.  1.
         24    2    1    2    0    0 -0.11090436758E+03  0.13595315576E+03 -0.14016407077E+03  0.23852067905E+03  0.80393459244E+02 0.  0.
        254    2    1    2    0    0  0.11090436758E+03 -0.13595315576E+03  0.91680976476E+03  0.13441126334E+04  0.96711715278E+03 0.  0.
         23    2    4    4    0    0 -0.14362820833E+03  0.20869233097E+03 -0.57709541048E+02  0.27528415280E+03  0.90936364700E+02 0.  0.
         23    2    4    4    0    0  0.25453257591E+03 -0.34464548673E+03  0.97451930581E+03  0.10688284806E+04  0.95598639243E+02 0.  0.
          4    1    3    3  502    0 -0.79905505325E+02  0.14047688048E+03 -0.11532263218E+03  0.19853955078E+03  0.00000000000E+00 0. -1.
         -3    1    3    3    0  502 -0.30998862256E+02 -0.45237247200E+01 -0.24841438593E+02  0.39981128272E+02  0.00000000000E+00 0.  1.
         13    1    5    5    0    0 -0.48606383969E+01  0.44002497709E+02  0.16873354027E+02  0.47376742041E+02  0.00000000000E+00 0.  1.
        -13    1    5    5    0    0 -0.13876756993E+03  0.16468983326E+03 -0.74582895075E+02  0.22790741076E+03  0.00000000000E+00 0. -1.
          4    1    6    6  503    0  0.11660955196E+03 -0.18300715504E+03  0.60272397772E+03  0.64059784555E+03  0.00000000000E+00 0. -1.
         -4    1    6    6    0  503  0.13792302395E+03 -0.16163833169E+03  0.37179532809E+03  0.42823063505E+03  0.00000000000E+00 0.  1.
<mgrwt>
<rscale>  0 0.13789669E+04</rscale>
<asrwt>0</asrwt>
<pdfrwt beam="1">  1        2 0.18148300E+00 0.13789669E+04</pdfrwt>
<pdfrwt beam="2">  1       -1 0.61999048E-01 0.13789669E+04</pdfrwt>
<totfact> 0.57136993E+01</totfact>
</mgrwt>
</event>
<event>
12    7  0.1730932E-007  0.2543567E+04  0.7818608E-02  0.8387627E-01
          2   -1    0    0  501    0  0.00000000000E+00  0.00000000000E+00  0.22444832842E+04  0.22444832842E+04  0.00000000000E+00 0. -1.
         -1   -1    0    0    0  501 -0.00000000000E+00 -0.00000000000E+00 -0.72062630894E+03  0.72062630894E+03  0.00000000000E+00 0.  1.
         24    2    1    2    0    0  0.22525526206E+03  0.16281019967E+03 -0.58276257495E+03  0.65065884765E+03  0.80607835054E+02 0.  0.
        254    2    1    2    0    0 -0.22525526206E+03 -0.16281019967E+03  0.21066195502E+04  0.23144507455E+04  0.91738172522E+03 0.  0.
         23    2    4    4    0    0  0.23725316754E+03 -0.36474456596E+03  0.93171017659E+03  0.10323079014E+04  0.90818974750E+02 0.  0.
         23    2    4    4    0    0 -0.46250842959E+03  0.20193436629E+03  0.11749093736E+04  0.12821428441E+04  0.93737403186E+02 0.  0.
          2    1    3    3  502    0  0.83539207184E+02  0.10176096959E+03 -0.31857329525E+03  0.34470717793E+03  0.00000000000E+00 0. -1.
         -1    1    3    3    0  502  0.14171605487E+03  0.61049230087E+02 -0.26418927969E+03  0.30595166972E+03  0.00000000000E+00 0.  1.
         13    1    5    5    0    0  0.18144872940E+03 -0.31249254360E+03  0.69145224530E+03  0.78018038858E+03  0.00000000000E+00 0.  1.
        -13    1    5    5    0    0  0.55804438133E+02 -0.52252022367E+02  0.24025793130E+03  0.25212751279E+03  0.00000000000E+00 0. -1.
          1    1    6    6  503    0 -0.18124677273E+03  0.53634117017E+02  0.34461193449E+03  0.39304503117E+03  0.00000000000E+00 0. -1.
         -1    1    6    6    0  503 -0.28126165686E+03  0.14830024927E+03  0.83029743912E+03  0.88909781294E+03  0.00000000000E+00 0.  1.
<mgrwt>
<rscale>  0 0.25435673E+04</rscale>
<asrwt>0</asrwt>
<pdfrwt beam="1">  1        2 0.34530512E+00 0.25435673E+04</pdfrwt>
<pdfrwt beam="2">  1       -1 0.11086559E+00 0.25435673E+04</pdfrwt>
<totfact> 0.36903745E+00</totfact>
</mgrwt>
</event>
<event>
12    7  0.1730932E-007  0.1968703E+04  0.7818608E-02  0.8621394E-01
         -1   -1    0    0    0  501 -0.00000000000E+00  0.00000000000E+00  0.13337550890E+04  0.13337550890E+04  0.00000000000E+00 0.  1.
          2   -1    0    0  501    0  0.00000000000E+00 -0.00000000000E+00 -0.72648097788E+03  0.72648097788E+03  0.00000000000E+00 0. -1.
         24    2    1    2    0    0 -0.12411556750E+03  0.35253981825E+03 -0.46641956044E+03  0.60244200238E+03  0.75499419369E+02 0.  0.
        254    2    1    2    0    0  0.12411556750E+03 -0.35253981825E+03  0.10736936715E+04  0.14577940645E+04  0.91250010224E+03 0.  0.
         23    2    4    4    0    0 -0.81269374032E+02  0.23475758100E+03  0.64417237176E+03  0.69635604838E+03  0.90762704832E+02 0.  0.
         23    2    4    4    0    0  0.20538494154E+03 -0.58729739925E+03  0.42952129977E+03  0.76143801609E+03  0.90543337816E+02 0.  0.
          4    1    3    3  502    0 -0.12752854439E+03  0.28822447671E+03 -0.36439333002E+03  0.48178768931E+03  0.00000000000E+00 0. -1.
         -3    1    3    3    0  502  0.34129768883E+01  0.64315341533E+02 -0.10202623042E+03  0.12065431307E+03  0.00000000000E+00 0.  1.
         13    1    5    5    0    0 -0.78021586617E+02  0.24245703247E+03  0.63361688899E+03  0.68289321463E+03  0.00000000000E+00 0. -1.
        -13    1    5    5    0    0 -0.32477874146E+01 -0.76994514766E+01  0.10555482770E+02  0.13462833752E+02  0.00000000000E+00 0.  1.
          3    1    6    6  503    0  0.18888056675E+03 -0.57242802396E+03  0.39600416597E+03  0.72122743332E+03  0.00000000000E+00 0. -1.
         -3    1    6    6    0  503  0.16504374781E+02 -0.14869375285E+02  0.33517133803E+02  0.40210582769E+02  0.00000000000E+00 0.  1.
<mgrwt>
<rscale>  0 0.19687028E+04</rscale>
<asrwt>0</asrwt>
<pdfrwt beam="1">  1        2 0.11176630E+00 0.19687028E+04</pdfrwt>
<pdfrwt beam="2">  1       -1 0.20519309E+00 0.19687028E+04</pdfrwt>
<totfact> 0.57589297E+00</totfact>
</mgrwt>
</event>
<event>
12    7  0.1730932E-007  0.2195322E+04  0.7818608E-02  0.8520378E-01
          2   -1    0    0  501    0  0.00000000000E+00  0.00000000000E+00  0.96963277660E+03  0.96963277660E+03  0.00000000000E+00 0. -1.
         -1   -1    0    0    0  501 -0.00000000000E+00 -0.00000000000E+00 -0.12425941070E+04  0.12425941070E+04  0.00000000000E+00 0.  1.
         24    2    1    2    0    0 -0.75552853326E+03 -0.50089207755E+03 -0.87209848897E+02  0.91610963499E+03  0.99674809505E+02 0.  0.
        254    2    1    2    0    0  0.75552853326E+03  0.50089207755E+03 -0.18575148148E+03  0.12961172486E+04  0.90757923694E+03 0.  0.
         23    2    4    4    0    0  0.77342982886E+03  0.61758402647E+01 -0.11308942630E+03  0.78659171271E+03  0.87780766673E+02 0.  0.
         23    2    4    4    0    0 -0.17901295601E+02  0.49471623729E+03 -0.72662055179E+02  0.50952553588E+03  0.96290631082E+02 0.  0.
          2    1    3    3  502    0 -0.59031948297E+03 -0.37367024340E+03 -0.10643876142E+03  0.70670768548E+03  0.00000000000E+00 0. -1.
         -1    1    3    3    0  502 -0.16520905029E+03 -0.12722183415E+03  0.19228912527E+02  0.20940194951E+03  0.00000000000E+00 0.  1.
         13    1    5    5    0    0  0.54356909807E+03 -0.14363864144E+01 -0.39011111272E+02  0.54496907654E+03  0.00000000000E+00 0. -1.
        -13    1    5    5    0    0  0.22986073079E+03  0.76122266791E+01 -0.74078315032E+02  0.24162263618E+03  0.00000000000E+00 0.  1.
          1    1    6    6  503    0 -0.34683060014E+02  0.40837348634E+03 -0.90644086918E+02  0.41974774507E+03  0.00000000000E+00 0. -1.
         -1    1    6    6    0  503  0.16781764413E+02  0.86342750942E+02  0.17982031739E+02  0.89777790809E+02  0.00000000000E+00 0.  1.
<mgrwt>
<rscale>  0 0.21953223E+04</rscale>
<asrwt>0</asrwt>
<pdfrwt beam="1">  1        2 0.14917427E+00 0.21953223E+04</pdfrwt>
<pdfrwt beam="2">  1       -1 0.19116833E+00 0.21953223E+04</pdfrwt>
<totfact> 0.47659737E+00</totfact>
</mgrwt>
</event>
<event>
12    7  0.1730932E-007  0.1207526E+04  0.7818608E-02  0.9106295E-01
         -1   -1    0    0    0  501 -0.00000000000E+00  0.00000000000E+00  0.32222838209E+03  0.32222838209E+03  0.00000000000E+00 0.  1.
          2   -1    0    0  501    0  0.00000000000E+00 -0.00000000000E+00 -0.11312768155E+04  0.11312768155E+04  0.00000000000E+00 0. -1.
         24    2    1    2    0    0  0.37871133794E+02  0.23361081410E+03 -0.31464232465E+03  0.40171698256E+03  0.79802922099E+02 0.  0.
        254    2    1    2    0    0 -0.37871133794E+02 -0.23361081410E+03 -0.49440610876E+03  0.10517882150E+04  0.89767077132E+03 0.  0.
         23    2    4    4    0    0 -0.36732925872E+03 -0.35023470079E+03 -0.45465534414E+03  0.68813760116E+03  0.96055953658E+02 0.  0.
         23    2    4    4    0    0  0.32945812492E+03  0.11662388669E+03 -0.39750764618E+02  0.36365061388E+03  0.92292245940E+02 0.  0.
          2    1    3    3  502    0  0.31568352023E+02  0.23717321878E+03 -0.31352293157E+03  0.39439108151E+03  0.00000000000E+00 0. -1.
         -1    1    3    3    0  502  0.63027817703E+01 -0.35624046869E+01 -0.11193930779E+01  0.73259010409E+01  0.00000000000E+00 0.  1.
         13    1    5    5    0    0 -0.27822833670E+02 -0.53483453375E+02 -0.89492534935E+02  0.10790506785E+03  0.00000000000E+00 0. -1.
        -13    1    5    5    0    0 -0.33950642505E+03 -0.29675124741E+03 -0.36516280921E+03  0.58023253331E+03  0.00000000000E+00 0.  1.
          1    1    6    6  503    0  0.51521303838E+01 -0.10940056953E+02  0.32333606023E+01  0.12517344543E+02  0.00000000000E+00 0. -1.
         -1    1    6    6    0  503  0.32430599454E+03  0.12756394364E+03 -0.42984125220E+02  0.35113326933E+03  0.00000000000E+00 0.  1.
<mgrwt>
<rscale>  0 0.12075256E+04</rscale>
<asrwt>0</asrwt>
<pdfrwt beam="1">  1        2 0.17404259E+00 0.12075256E+04</pdfrwt>
<pdfrwt beam="2">  1       -1 0.49573597E-01 0.12075256E+04</pdfrwt>
<totfact> 0.95599125E+01</totfact>
</mgrwt>
</event>
<event>
12    7  0.1730932E-007  0.1417696E+04  0.7818608E-02  0.8941108E-01
         -1   -1    0    0    0  501 -0.00000000000E+00  0.00000000000E+00  0.23550883961E+03  0.23550883961E+03  0.00000000000E+00 0.  1.
          2   -1    0    0  501    0  0.00000000000E+00 -0.00000000000E+00 -0.21335324005E+04  0.21335324005E+04  0.00000000000E+00 0. -1.
         24    2    1    2    0    0 -0.37471117017E+03 -0.47960865026E+02 -0.10335354492E+04  0.11031943640E+04  0.78317139906E+02 0.  0.
        254    2    1    2    0    0  0.37471117017E+03  0.47960865026E+02 -0.86448811170E+03  0.12658468761E+04  0.84399046965E+03 0.  0.
         23    2    4    4    0    0  0.51331094379E+03  0.23729202275E+03 -0.83436378418E+03  0.10119745503E+04  0.90188342254E+02 0.  0.
         23    2    4    4    0    0 -0.13859977362E+03 -0.18933115773E+03 -0.30124327515E+02  0.25387232578E+03  0.92127618860E+02 0.  0.
          2    1    3    3  502    0 -0.25324817991E+03 -0.29918548657E+01 -0.61603873448E+03  0.66606855068E+03  0.00000000000E+00 0. -1.
         -3    1    3    3    0  502 -0.12146299027E+03 -0.44969010160E+02 -0.41749671475E+03  0.43712581336E+03  0.00000000000E+00 0.  1.
         13    1    5    5    0    0  0.40587357894E+03  0.15850038114E+03 -0.68485212000E+03  0.81171310152E+03  0.00000000000E+00 0. -1.
        -13    1    5    5    0    0  0.10743736485E+03  0.78791641609E+02 -0.14951166418E+03  0.20026144881E+03  0.00000000000E+00 0.  1.
          2    1    6    6  503    0 -0.11304033920E+03 -0.13611342495E+03  0.17809032917E+02  0.17782616341E+03  0.00000000000E+00 0. -1.
         -2    1    6    6    0  503 -0.25559434412E+02 -0.53217732777E+02 -0.47933360432E+02  0.76046162373E+02  0.00000000000E+00 0.  1.
<mgrwt>
<rscale>  0 0.14176964E+04</rscale>
<asrwt>0</asrwt>
<pdfrwt beam="1">  1        2 0.32823575E+00 0.14176964E+04</pdfrwt>
<pdfrwt beam="2">  1       -1 0.36232130E-01 0.14176964E+04</pdfrwt>
<totfact> 0.45480822E+01</totfact>
</mgrwt>
</event>
<event>
12    7  0.1730932E-007  0.1770612E+04  0.7818608E-02  0.8722086E-01
          2   -1    0    0  501    0  0.00000000000E+00  0.00000000000E+00  0.47703647203E+03  0.47703647203E+03  0.00000000000E+00 0. -1.
         -1   -1    0    0    0  501 -0.00000000000E+00 -0.00000000000E+00 -0.16429913426E+04  0.16429913426E+04  0.00000000000E+00 0.  1.
         24    2    1    2    0    0 -0.44775242335E+03  0.31992092772E+03 -0.85696800403E+03  0.10214134310E+04  0.77843461441E+02 0.  0.
        254    2    1    2    0    0  0.44775242335E+03 -0.31992092772E+03 -0.30898686653E+03  0.10986143836E+04  0.89924915768E+03 0.  0.
         23    2    4    4    0    0  0.10115263548E+03 -0.23449490963E+03 -0.58044263791E+03  0.64078875901E+03  0.92069861797E+02 0.  0.
         23    2    4    4    0    0  0.34659978787E+03 -0.85426018083E+02  0.27145577138E+03  0.45782562461E+03  0.92125182323E+02 0.  0.
          4    1    3    3  502    0 -0.43172766090E+02  0.90744025758E+01 -0.90224164464E+02  0.10043222773E+03  0.00000000000E+00 0. -1.
         -3    1    3    3    0  502 -0.40457965726E+03  0.31084652514E+03 -0.76674383956E+03  0.92098120327E+03  0.00000000000E+00 0.  1.
         13    1    5    5    0    0  0.46582097595E+02 -0.23398250701E+02 -0.13855981642E+03  0.14804118575E+03  0.00000000000E+00 0.  1.
        -13    1    5    5    0    0  0.54570537890E+02 -0.21109665893E+03 -0.44188282149E+03  0.49274757325E+03  0.00000000000E+00 0. -1.
          2    1    6    6  503    0  0.30636056210E+03 -0.10333249736E+03  0.22561036426E+03  0.39425174126E+03  0.00000000000E+00 0. -1.
         -2    1    6    6    0  503  0.40239225764E+02  0.17906479280E+02  0.45845407123E+02  0.63573883353E+02  0.00000000000E+00 0.  1.
<mgrwt>
<rscale>  0 0.17706121E+04</rscale>
<asrwt>0</asrwt>
<pdfrwt beam="1">  1        2 0.73390226E-01 0.17706121E+04</pdfrwt>
<pdfrwt beam="2">  1       -1 0.25276790E+00 0.17706121E+04</pdfrwt>
<totfact> 0.47046751E+00</totfact>
</mgrwt>
</event>
<event>
12    7  0.1730932E-007  0.1638049E+04  0.7818608E-02  0.8797508E-01
         -1   -1    0    0    0  501 -0.00000000000E+00  0.00000000000E+00  0.29784575887E+03  0.29784575887E+03  0.00000000000E+00 0.  1.
          2   -1    0    0  501    0  0.00000000000E+00 -0.00000000000E+00 -0.22521775209E+04  0.22521775209E+04  0.00000000000E+00 0. -1.
         24    2    1    2    0    0 -0.38805377687E+03 -0.40470937401E+03 -0.53479235570E+03  0.77950853662E+03  0.85177953697E+02 0.  0.
        254    2    1    2    0    0  0.38805377687E+03  0.40470937401E+03 -0.14195394064E+04  0.17705147432E+04  0.89735997151E+03 0.  0.
         23    2    4    4    0    0  0.60699891259E+02  0.34444868995E+03 -0.58017461593E+02  0.36606231387E+03  0.91138438532E+02 0.  0.
         23    2    4    4    0    0  0.32735388561E+03  0.60260684061E+02 -0.13615219448E+04  0.14044524293E+04  0.89177932523E+02 0.  0.
          4    1    3    3  502    0 -0.10813358681E+03 -0.95094933073E+02 -0.18822682277E+03  0.23699210051E+03  0.00000000000E+00 0. -1.
         -3    1    3    3    0  502 -0.27992019005E+03 -0.30961444094E+03 -0.34656553293E+03  0.54251643611E+03  0.00000000000E+00 0.  1.
         13    1    5    5    0    0  0.42633945388E+02  0.53414403483E+02 -0.24256790523E+02  0.72519953704E+02  0.00000000000E+00 0. -1.
        -13    1    5    5    0    0  0.18065945871E+02  0.29103428647E+03 -0.33760671069E+02  0.29354236017E+03  0.00000000000E+00 0.  1.
          3    1    6    6  503    0  0.21547015652E+03  0.71657935231E+02 -0.10169008661E+04  0.10419451135E+04  0.00000000000E+00 0. -1.
         -3    1    6    6    0  503  0.11188372909E+03 -0.11397251170E+02 -0.34462107868E+03  0.36250731584E+03  0.00000000000E+00 0.  1.
<mgrwt>
<rscale>  0 0.16380495E+04</rscale>
<asrwt>0</asrwt>
<pdfrwt beam="1">  1        2 0.34648886E+00 0.16380495E+04</pdfrwt>
<pdfrwt beam="2">  1       -1 0.45822423E-01 0.16380495E+04</pdfrwt>
<totfact> 0.24895903E+01</totfact>
</mgrwt>
</event>
<event>
12    7  0.1730932E-007  0.2179214E+04  0.7818608E-02  0.8527130E-01
         -1   -1    0    0    0  501 -0.00000000000E+00  0.00000000000E+00  0.94108001930E+03  0.94108001930E+03  0.00000000000E+00 0.  1.
          2   -1    0    0  501    0  0.00000000000E+00 -0.00000000000E+00 -0.12615755051E+04  0.12615755051E+04  0.00000000000E+00 0. -1.
         24    2    1    2    0    0  0.19278829343E+03  0.74123056953E+03  0.34389987008E+03  0.84320021258E+03  0.78290450075E+02 0.  0.
        254    2    1    2    0    0 -0.19278829343E+03 -0.74123056953E+03 -0.66439535584E+03  0.13594553118E+04  0.90559785366E+03 0.  0.
         23    2    4    4    0    0  0.42797483160E+02 -0.45251220214E+03 -0.82247435150E+03  0.94427178951E+03  0.92661944427E+02 0.  0.
         23    2    4    4    0    0 -0.23558577659E+03 -0.28871836739E+03  0.15807899566E+03  0.41518352226E+03  0.92354937528E+02 0.  0.
          2    1    3    3  502    0  0.26317197035E+02  0.16224473483E+03  0.10545216925E+03  0.19528468665E+03  0.00000000000E+00 0. -1.
         -1    1    3    3    0  502  0.16647109640E+03  0.57898583469E+03  0.23844770083E+03  0.64791552593E+03  0.00000000000E+00 0.  1.
         13    1    5    5    0    0 -0.27374452780E+02 -0.18173421486E+03 -0.34478620716E+03  0.39070988491E+03  0.00000000000E+00 0. -1.
        -13    1    5    5    0    0  0.70171935941E+02 -0.27077798727E+03 -0.47768814433E+03  0.55356190460E+03  0.00000000000E+00 0.  1.
          3    1    6    6  503    0 -0.12221506137E+03 -0.20758389228E+03  0.12712902607E+03  0.27237728031E+03  0.00000000000E+00 0. -1.
         -3    1    6    6    0  503 -0.11337071522E+03 -0.81134475111E+02  0.30949969581E+02  0.14280624195E+03  0.00000000000E+00 0.  1.
<mgrwt>
<rscale>  0 0.21792141E+04</rscale>
<asrwt>0</asrwt>
<pdfrwt beam="1">  1        2 0.19408854E+00 0.21792141E+04</pdfrwt>
<pdfrwt beam="2">  1       -1 0.14478154E+00 0.21792141E+04</pdfrwt>
<totfact> 0.69714171E+00</totfact>
</mgrwt>
</event>
<event>
12    7  0.1730932E-007  0.1440159E+04  0.7818608E-02  0.8925252E-01
          2   -1    0    0  501    0  0.00000000000E+00  0.00000000000E+00  0.12813113249E+04  0.12813113249E+04  0.00000000000E+00 0. -1.
         -1   -1    0    0    0  501 -0.00000000000E+00 -0.00000000000E+00 -0.40467474191E+03  0.40467474191E+03  0.00000000000E+00 0.  1.
         24    2    1    2    0    0  0.29748875855E+03  0.31851536103E+03  0.22607184625E+03  0.49744976085E+03  0.79976172902E+02 0.  0.
        254    2    1    2    0    0 -0.29748875855E+03 -0.31851536103E+03  0.65056473671E+03  0.11885363059E+04  0.89410987981E+03 0.  0.
         23    2    4    4    0    0 -0.41762134265E+03  0.17636807942E+03  0.40932418595E+03  0.61778697387E+03  0.92742496236E+02 0.  0.
         23    2    4    4    0    0  0.12013258410E+03 -0.49488344044E+03  0.24124055076E+03  0.57074933206E+03  0.90644025293E+02 0.  0.
          4    1    3    3  502    0  0.59366683042E+02  0.69582766009E+02  0.12975928997E+02  0.92382569321E+02  0.00000000000E+00 0. -1.
         -3    1    3    3    0  502  0.23812207551E+03  0.24893259502E+03  0.21309591725E+03  0.40506719153E+03  0.00000000000E+00 0.  1.
         13    1    5    5    0    0 -0.25977283679E+03  0.61216040546E+02  0.22280557651E+03  0.34766601111E+03  0.00000000000E+00 0. -1.
        -13    1    5    5    0    0 -0.15784850586E+03  0.11515203887E+03  0.18651860944E+03  0.27012096277E+03  0.00000000000E+00 0.  1.
          1    1    6    6  503    0  0.79370373842E+02 -0.17277732781E+03  0.62613863987E+02  0.20018031175E+03  0.00000000000E+00 0. -1.
         -1    1    6    6    0  503  0.40762210254E+02 -0.32210611264E+03  0.17862668678E+03  0.37056902031E+03  0.00000000000E+00 0.  1.
<mgrwt>
<rscale>  0 0.14401588E+04</rscale>
<asrwt>0</asrwt>
<pdfrwt beam="1">  1        2 0.19712482E+00 0.14401588E+04</pdfrwt>
<pdfrwt beam="2">  1       -1 0.62257653E-01 0.14401588E+04</pdfrwt>
<totfact> 0.49079703E+01</totfact>
</mgrwt>
</event>
<event>
12    7  0.1730932E-007  0.1068853E+04  0.7818608E-02  0.9236093E-01
         -1   -1    0    0    0  501 -0.00000000000E+00  0.00000000000E+00  0.14507266354E+03  0.14507266354E+03  0.00000000000E+00 0.  1.
          2   -1    0    0  501    0  0.00000000000E+00 -0.00000000000E+00 -0.19687494386E+04  0.19687494386E+04  0.00000000000E+00 0. -1.
         24    2    1    2    0    0  0.21469396989E+01 -0.82352459141E+02 -0.48728814839E+02  0.12462029777E+03  0.79807169752E+02 0.  0.
        254    2    1    2    0    0 -0.21469396989E+01  0.82352459141E+02 -0.17749479602E+04  0.19892018043E+04  0.89425780407E+03 0.  0.
         23    2    4    4    0    0  0.38963817183E+03  0.20068789318E+03 -0.11612598047E+04  0.12446105079E+04  0.91855577306E+02 0.  0.
         23    2    4    4    0    0 -0.39178511153E+03 -0.11833543404E+03 -0.61368815548E+03  0.74459129638E+03  0.10150959517E+03 0.  0.
          4    1    3    3  502    0 -0.19479617427E+02 -0.89686828006E+02 -0.37091702996E+02  0.98989782523E+02  0.00000000000E+00 0. -1.
         -3    1    3    3    0  502  0.21626557126E+02  0.73343688647E+01 -0.11637111843E+02  0.25630515246E+02  0.00000000000E+00 0.  1.
         13    1    5    5    0    0  0.24164858290E+03  0.95122439604E+02 -0.78287960113E+03  0.82482894348E+03  0.00000000000E+00 0.  1.
        -13    1    5    5    0    0  0.14798958893E+03  0.10556545357E+03 -0.37838020356E+03  0.41978156447E+03  0.00000000000E+00 0. -1.
          2    1    6    6  503    0 -0.25871736954E+02 -0.17059315959E+02 -0.10725720109E+03  0.11164440972E+03  0.00000000000E+00 0. -1.
         -2    1    6    6    0  503 -0.36591337457E+03 -0.10127611808E+03 -0.50643095439E+03  0.63294688667E+03  0.00000000000E+00 0.  1.
<mgrwt>
<rscale>  0 0.10688531E+04</rscale>
<asrwt>0</asrwt>
<pdfrwt beam="1">  1        2 0.30288452E+00 0.10688531E+04</pdfrwt>
<pdfrwt beam="2">  1       -1 0.22318872E-01 0.10688531E+04</pdfrwt>
<totfact> 0.13425387E+02</totfact>
</mgrwt>
</event>
<event>
12    7  0.1730932E-007  0.3692288E+04  0.7818608E-02  0.8069673E-01
         -3   -1    0    0    0  501 -0.00000000000E+00  0.00000000000E+00  0.10674438078E+04  0.10674438078E+04  0.00000000000E+00 0.  1.
          2   -1    0    0  501    0  0.00000000000E+00 -0.00000000000E+00 -0.31929051837E+04  0.31929051837E+04  0.00000000000E+00 0. -1.
         24    2    1    2    0    0 -0.10318307133E+04  0.90997428883E+03  0.21389776124E+03  0.13945494372E+04  0.79297245481E+02 0.  0.
        254    2    1    2    0    0  0.10318307133E+04 -0.90997428883E+03 -0.23393591372E+04  0.28657995543E+04  0.92058572954E+03 0.  0.
         23    2    4    4    0    0  0.49266089634E+03 -0.92747683454E+03 -0.18620299722E+04  0.21397280366E+04  0.91391551690E+02 0.  0.
         23    2    4    4    0    0  0.53916981698E+03  0.17502545716E+02 -0.47732916498E+03  0.72607151772E+03  0.91248487450E+02 0.  0.
          4    1    3    3  502    0 -0.61530914469E+02  0.34823712329E+02  0.20776980664E+02  0.73691433025E+02  0.00000000000E+00 0. -1.
         -3    1    3    3    0  502 -0.97029979885E+03  0.87515057650E+03  0.19312078058E+03  0.13208580041E+04  0.00000000000E+00 0.  1.
         13    1    5    5    0    0  0.28534650467E+03 -0.57313488406E+03 -0.10494297369E+04  0.12293124077E+04  0.00000000000E+00 0.  1.
        -13    1    5    5    0    0  0.20731439167E+03 -0.35434195048E+03 -0.81260023536E+03  0.91041562892E+03  0.00000000000E+00 0. -1.
          3    1    6    6  503    0  0.22892926244E+03 -0.22426970474E+02 -0.15797839359E+03  0.27904972504E+03  0.00000000000E+00 0. -1.
         -3    1    6    6    0  503  0.31024055455E+03  0.39929516190E+02 -0.31935077139E+03  0.44702179268E+03  0.00000000000E+00 0.  1.
<mgrwt>
<rscale>  0 0.36922876E+04</rscale>
<asrwt>0</asrwt>
<pdfrwt beam="1">  1        2 0.49121617E+00 0.36922876E+04</pdfrwt>
<pdfrwt beam="2">  1       -3 0.16422213E+00 0.36922876E+04</pdfrwt>
<totfact> 0.17110978E-01</totfact>
</mgrwt>
</event>
<event>
12    7  0.1730932E-007  0.1369060E+04  0.7818608E-02  0.8976524E-01
         -1   -1    0    0    0  501 -0.00000000000E+00  0.00000000000E+00  0.18738538054E+03  0.18738538054E+03  0.00000000000E+00 0.  1.
          2   -1    0    0  501    0  0.00000000000E+00 -0.00000000000E+00 -0.25006289824E+04  0.25006289824E+04  0.00000000000E+00 0. -1.
         24    2    1    2    0    0 -0.52083520562E+02  0.14306849177E+03 -0.13683634429E+04  0.13790736753E+04  0.79021539181E+02 0.  0.
        254    2    1    2    0    0  0.52083520562E+02 -0.14306849177E+03 -0.94488015891E+03  0.13089406876E+04  0.89294228393E+03 0.  0.
         23    2    4    4    0    0  0.18776836817E+03  0.29671260723E+03 -0.16422578986E+03  0.39817294070E+03  0.90973893386E+02 0.  0.
         23    2    4    4    0    0 -0.13568484760E+03 -0.43978109901E+03 -0.78065436905E+03  0.91076774687E+03  0.90878225679E+02 0.  0.
          2    1    3    3  502    0 -0.47075066327E+02  0.82617883489E+02 -0.10919792477E+04  0.10961115153E+04  0.00000000000E+00 0. -1.
         -1    1    3    3    0  502 -0.50084542347E+01  0.60450608281E+02 -0.27638419522E+03  0.28296216006E+03  0.00000000000E+00 0.  1.
         13    1    5    5    0    0  0.16145660257E+03  0.17656646121E+03 -0.11806945253E+03  0.26680394554E+03  0.00000000000E+00 0.  1.
        -13    1    5    5    0    0  0.26311765596E+02  0.12014614602E+03 -0.46156337331E+02  0.13136899516E+03  0.00000000000E+00 0. -1.
          3    1    6    6  503    0 -0.45267368938E+02 -0.27247726358E+03 -0.41320081801E+03  0.49701902364E+03  0.00000000000E+00 0. -1.
         -3    1    6    6    0  503 -0.90417478665E+02 -0.16730383542E+03 -0.36745355104E+03  0.41374872322E+03  0.00000000000E+00 0.  1.
<mgrwt>
<rscale>  0 0.13690600E+04</rscale>
<asrwt>0</asrwt>
<pdfrwt beam="1">  1        2 0.38471216E+00 0.13690600E+04</pdfrwt>
<pdfrwt beam="2">  1       -1 0.28828520E-01 0.13690600E+04</pdfrwt>
<totfact> 0.42451443E+01</totfact>
</mgrwt>
</event>
<event>
12    7  0.1730932E-007  0.1484420E+04  0.7818608E-02  0.8894880E-01
         -1   -1    0    0    0  501 -0.00000000000E+00  0.00000000000E+00  0.42612820300E+03  0.42612820300E+03  0.00000000000E+00 0.  1.
          2   -1    0    0  501    0  0.00000000000E+00 -0.00000000000E+00 -0.12927468635E+04  0.12927468635E+04  0.00000000000E+00 0. -1.
         24    2    1    2    0    0 -0.18888988168E+03  0.41853835494E+03 -0.27969407941E+03  0.54362782484E+03  0.80303747846E+02 0.  0.
        254    2    1    2    0    0  0.18888988168E+03 -0.41853835494E+03 -0.58692458114E+03  0.11752472417E+04  0.90877492992E+03 0.  0.
         23    2    4    4    0    0  0.16328571582E+03 -0.65505002086E+03 -0.19625356522E+03  0.70898750506E+03  0.91624590906E+02 0.  0.
         23    2    4    4    0    0  0.25604165865E+02  0.23651166592E+03 -0.39067101592E+03  0.46625973665E+03  0.90448647952E+02 0.  0.
          4    1    3    3  502    0 -0.72042124874E+02  0.25621723572E+03 -0.16003583749E+03  0.31056208545E+03  0.00000000000E+00 0. -1.
         -3    1    3    3    0  502 -0.11684775681E+03  0.16232111922E+03 -0.11965824192E+03  0.23306573938E+03  0.00000000000E+00 0.  1.
         13    1    5    5    0    0  0.13329964248E+03 -0.38738611646E+03 -0.14654678736E+03  0.43510086049E+03  0.00000000000E+00 0.  1.
        -13    1    5    5    0    0  0.29986073333E+02 -0.26766390440E+03 -0.49706777861E+02  0.27388664457E+03  0.00000000000E+00 0. -1.
          1    1    6    6  503    0  0.41423616064E+02  0.98036345293E+02 -0.23084951365E+03  0.25420176812E+03  0.00000000000E+00 0. -1.
         -1    1    6    6    0  503 -0.15819450198E+02  0.13847532063E+03 -0.15982150227E+03  0.21205796853E+03  0.00000000000E+00 0.  1.
<mgrwt>
<rscale>  0 0.14844203E+04</rscale>
<asrwt>0</asrwt>
<pdfrwt beam="1">  1        2 0.19888413E+00 0.14844203E+04</pdfrwt>
<pdfrwt beam="2">  1       -1 0.65558187E-01 0.14844203E+04</pdfrwt>
<totfact> 0.43417368E+01</totfact>
</mgrwt>
</event>
<event>
12    7  0.1730932E-007  0.1457468E+04  0.7818608E-02  0.8913240E-01
         -3   -1    0    0    0  501 -0.00000000000E+00  0.00000000000E+00  0.34143437531E+03  0.34143437531E+03  0.00000000000E+00 0.  1.
          4   -1    0    0  501    0  0.00000000000E+00 -0.00000000000E+00 -0.15553593999E+04  0.15553593999E+04  0.00000000000E+00 0. -1.
         24    2    1    2    0    0 -0.18513801604E+03  0.81694868235E+02  0.14120239438E+03  0.25950027369E+03  0.80325210180E+02 0.  0.
        254    2    1    2    0    0  0.18513801604E+03 -0.81694868235E+02 -0.13551274189E+04  0.16372935015E+04  0.89633116200E+03 0.  0.
         23    2    4    4    0    0  0.10742121895E+03  0.13024747357E+03 -0.13805042686E+04  0.13937715811E+04  0.91123335174E+02 0.  0.
         23    2    4    4    0    0  0.77716797085E+02 -0.21194234181E+03  0.25376849615E+02  0.24352192036E+03  0.87746705913E+02 0.  0.
          2    1    3    3  502    0 -0.63036035061E+02  0.16037415346E+02  0.51333881837E+01  0.65246395160E+02  0.00000000000E+00 0. -1.
         -1    1    3    3    0  502 -0.12210198097E+03  0.65657452890E+02  0.13606900619E+03  0.19425387853E+03  0.00000000000E+00 0.  1.
         13    1    5    5    0    0 -0.52324277133E+01  0.44701379192E+02 -0.49483016843E+03  0.49687270723E+03  0.00000000000E+00 0. -1.
        -13    1    5    5    0    0  0.11265364666E+03  0.85546094380E+02 -0.88567410012E+03  0.89689887389E+03  0.00000000000E+00 0.  1.
          2    1    6    6  503    0  0.53447032714E+02 -0.40063570052E+02 -0.62239760543E+01  0.67085116302E+02  0.00000000000E+00 0. -1.
         -2    1    6    6    0  503  0.24269764371E+02 -0.17187877175E+03  0.31600825669E+02  0.17643680406E+03  0.00000000000E+00 0.  1.
<mgrwt>
<rscale>  0 0.14574679E+04</rscale>
<asrwt>0</asrwt>
<pdfrwt beam="1">  1        4 0.23928606E+00 0.14574679E+04</pdfrwt>
<pdfrwt beam="2">  1       -3 0.52528365E-01 0.14574679E+04</pdfrwt>
<totfact> 0.58611534E-01</totfact>
</mgrwt>
</event>
<event>
12    7  0.1730932E-007  0.1913872E+04  0.7818608E-02  0.8647982E-01
         -1   -1    0    0    0  501 -0.00000000000E+00  0.00000000000E+00  0.91094293551E+03  0.91094293551E+03  0.00000000000E+00 0.  1.
          2   -1    0    0  501    0  0.00000000000E+00 -0.00000000000E+00 -0.10052516147E+04  0.10052516147E+04  0.00000000000E+00 0. -1.
         24    2    1    2    0    0 -0.17501387577E+02 -0.49360030330E+03  0.59545297012E+03  0.77774261706E+03  0.79823434995E+02 0.  0.
        254    2    1    2    0    0  0.17501387577E+02  0.49360030330E+03 -0.68976164928E+03  0.11384519331E+04  0.75917989516E+03 0.  0.
         23    2    4    4    0    0 -0.48108866190E+02  0.39158148785E+02 -0.66049961087E+03  0.66968820028E+03  0.91513529161E+02 0.  0.
         23    2    4    4    0    0  0.65610253767E+02  0.45444215451E+03 -0.29262038409E+02  0.46876373283E+03  0.89781919817E+02 0.  0.
          4    1    3    3  502    0  0.19610348705E+01 -0.74268783415E+02  0.50410585080E+02  0.89782653870E+02  0.00000000000E+00 0. -1.
         -3    1    3    3    0  502 -0.19462422448E+02 -0.41933151988E+03  0.54504238504E+03  0.68795996319E+03  0.00000000000E+00 0.  1.
         13    1    5    5    0    0 -0.19103770508E+02  0.51292526359E+02 -0.17943975618E+03  0.18760198135E+03  0.00000000000E+00 0. -1.
        -13    1    5    5    0    0 -0.29005095682E+02 -0.12134377574E+02 -0.48105985468E+03  0.48208621893E+03  0.00000000000E+00 0.  1.
          2    1    6    6  503    0  0.61462258026E+01  0.98617944966E+02 -0.42961742392E+02  0.10774500671E+03  0.00000000000E+00 0. -1.
         -2    1    6    6    0  503  0.59464027964E+02  0.35582420955E+03  0.13699703983E+02  0.36101872612E+03  0.00000000000E+00 0.  1.
<mgrwt>
<rscale>  0 0.19138724E+04</rscale>
<asrwt>0</asrwt>
<pdfrwt beam="1">  1        2 0.15465410E+00 0.19138724E+04</pdfrwt>
<pdfrwt beam="2">  1       -1 0.14014507E+00 0.19138724E+04</pdfrwt>
<totfact> 0.11151015E+01</totfact>
</mgrwt>
</event>
<event>
12    7  0.1730932E-007  0.1835210E+04  0.7818608E-02  0.8687796E-01
          2   -1    0    0  501    0  0.00000000000E+00  0.00000000000E+00  0.18096073728E+04  0.18096073728E+04  0.00000000000E+00 0. -1.
         -1   -1    0    0    0  501 -0.00000000000E+00 -0.00000000000E+00 -0.46529387464E+03  0.46529387464E+03  0.00000000000E+00 0.  1.
         24    2    1    2    0    0 -0.63739467909E+03  0.14777774764E+03  0.26204586038E+03  0.70939235814E+03  0.80369429603E+02 0.  0.
        254    2    1    2    0    0  0.63739467909E+03 -0.14777774764E+03  0.10822676378E+04  0.15655088893E+04  0.92271588425E+03 0.  0.
         23    2    4    4    0    0  0.69538025220E+03 -0.27224527945E+03  0.37644755011E+03  0.84086728685E+03  0.87600506797E+02 0.  0.
         23    2    4    4    0    0 -0.57985573108E+02  0.12446753181E+03  0.70582008765E+03  0.72464160242E+03  0.89827404899E+02 0.  0.
          2    1    3    3  502    0 -0.45484693922E+02 -0.45671368303E+01  0.34252813740E+02  0.57122424398E+02  0.00000000000E+00 0. -1.
         -1    1    3    3    0  502 -0.59190998517E+03  0.15234488447E+03  0.22779304664E+03  0.65226993374E+03  0.00000000000E+00 0.  1.
         13    1    5    5    0    0  0.41800011858E+03 -0.20028789454E+03  0.20395883976E+03  0.50639761862E+03  0.00000000000E+00 0. -1.
        -13    1    5    5    0    0  0.27738013362E+03 -0.71957384911E+02  0.17248871035E+03  0.33446966823E+03  0.00000000000E+00 0.  1.
          4    1    6    6  503    0 -0.30804568842E+02  0.11181735846E+03  0.37650276884E+03  0.39396240691E+03  0.00000000000E+00 0. -1.
         -4    1    6    6    0  503 -0.27181004266E+02  0.12650173356E+02  0.32931731881E+03  0.33067919551E+03  0.00000000000E+00 0.  1.
<mgrwt>
<rscale>  0 0.18352103E+04</rscale>
<asrwt>0</asrwt>
<pdfrwt beam="1">  1        2 0.27840113E+00 0.18352103E+04</pdfrwt>
<pdfrwt beam="2">  1       -1 0.71583674E-01 0.18352103E+04</pdfrwt>
<totfact> 0.18004121E+01</totfact>
</mgrwt>
</event>
<event>
12    7  0.1730932E-007  0.2664389E+04  0.7818608E-02  0.8346653E-01
          2   -1    0    0  501    0  0.00000000000E+00  0.00000000000E+00  0.73330646395E+03  0.73330646395E+03  0.00000000000E+00 0. -1.
         -1   -1    0    0    0  501 -0.00000000000E+00 -0.00000000000E+00 -0.24201924700E+04  0.24201924700E+04  0.00000000000E+00 0.  1.
         24    2    1    2    0    0  0.11054861867E+04 -0.25522420762E+03 -0.34455681940E+03  0.11882667682E+04  0.77584826518E+02 0.  0.
        254    2    1    2    0    0 -0.11054861867E+04  0.25522420762E+03 -0.13423291867E+04  0.19652321658E+04  0.87923302652E+03 0.  0.
         23    2    4    4    0    0 -0.12390784332E+04  0.17378558146E+03 -0.11926166510E+04  0.17309230402E+04  0.90792636896E+02 0.  0.
         23    2    4    4    0    0  0.13359224650E+03  0.81438626164E+02 -0.14971253566E+03  0.23430912558E+03  0.89486227090E+02 0.  0.
          4    1    3    3  502    0  0.10318611626E+04 -0.25160753424E+03 -0.33643926439E+03  0.11141073507E+04  0.00000000000E+00 0. -1.
         -3    1    3    3    0  502  0.73625024092E+02 -0.36166733778E+01 -0.81175550020E+01  0.74159417461E+02  0.00000000000E+00 0.  1.
         13    1    5    5    0    0 -0.48822343844E+03  0.77222935980E+02 -0.53180013677E+03  0.72604193622E+03  0.00000000000E+00 0. -1.
        -13    1    5    5    0    0 -0.75085499479E+03  0.96562645477E+02 -0.66081651426E+03  0.10048811040E+04  0.00000000000E+00 0.  1.
          3    1    6    6  503    0  0.58327609815E+02  0.60288435084E+02 -0.25743232504E+02  0.87746905879E+02  0.00000000000E+00 0. -1.
         -3    1    6    6    0  503  0.75264636684E+02  0.21150191080E+02 -0.12396930316E+03  0.14656221970E+03  0.00000000000E+00 0.  1.
<mgrwt>
<rscale>  0 0.26643894E+04</rscale>
<asrwt>0</asrwt>
<pdfrwt beam="1">  1        2 0.11281638E+00 0.26643894E+04</pdfrwt>
<pdfrwt beam="2">  1       -1 0.37233731E+00 0.26643894E+04</pdfrwt>
<totfact> 0.42692493E-01</totfact>
</mgrwt>
</event>
<event>
12    7  0.1730932E-007  0.1608886E+04  0.7818608E-02  0.8815108E-01
          2   -1    0    0  501    0  0.00000000000E+00  0.00000000000E+00  0.85833815786E+03  0.85833815786E+03  0.00000000000E+00 0. -1.
         -1   -1    0    0    0  501 -0.00000000000E+00 -0.00000000000E+00 -0.75393185704E+03  0.75393185704E+03  0.00000000000E+00 0.  1.
         24    2    1    2    0    0  0.18716892198E+03  0.41360459766E+03  0.35230922420E+03  0.58001379174E+03  0.78697144735E+02 0.  0.
        254    2    1    2    0    0 -0.18716892198E+03 -0.41360459766E+03 -0.24790292337E+03  0.10322562232E+04  0.89330626455E+03 0.  0.
         23    2    4    4    0    0 -0.84483828955E+02 -0.60130155110E+03 -0.41819093378E+03  0.74293865678E+03  0.91504742668E+02 0.  0.
         23    2    4    4    0    0 -0.10268509302E+03  0.18769695344E+03  0.17028801042E+03  0.28931756638E+03  0.94510703459E+02 0.  0.
          4    1    3    3  502    0  0.99129310593E+02  0.19344962389E+03  0.21638192683E+03  0.30670917081E+03  0.00000000000E+00 0. -1.
         -3    1    3    3    0  502  0.88039611382E+02  0.22015497377E+03  0.13592729737E+03  0.27330462093E+03  0.00000000000E+00 0.  1.
         13    1    5    5    0    0 -0.40789544171E+02 -0.31869527306E+03 -0.27604859854E+03  0.42359567129E+03  0.00000000000E+00 0. -1.
        -13    1    5    5    0    0 -0.43694284783E+02 -0.28260627804E+03 -0.14214233525E+03  0.31934298549E+03  0.00000000000E+00 0.  1.
          4    1    6    6  503    0 -0.24689984796E+02  0.19663272913E-01  0.83513278498E+00  0.24704112667E+02  0.00000000000E+00 0.  1.
         -4    1    6    6    0  503 -0.77995108224E+02  0.18767729017E+03  0.16945287763E+03  0.26461345372E+03  0.00000000000E+00 0. -1.
<mgrwt>
<rscale>  0 0.16088859E+04</rscale>
<asrwt>0</asrwt>
<pdfrwt beam="1">  1        2 0.13205202E+00 0.16088859E+04</pdfrwt>
<pdfrwt beam="2">  1       -1 0.11598952E+00 0.16088859E+04</pdfrwt>
<totfact> 0.23038539E+01</totfact>
</mgrwt>
</event>
<event>
12    7  0.1730932E-007  0.2394367E+04  0.7818608E-02  0.8441615E-01
         -1   -1    0    0    0  501 -0.00000000000E+00  0.00000000000E+00  0.93284674794E+03  0.93284674794E+03  0.00000000000E+00 0.  1.
          2   -1    0    0  501    0  0.00000000000E+00 -0.00000000000E+00 -0.15364242637E+04  0.15364242637E+04  0.00000000000E+00 0. -1.
         24    2    1    2    0    0 -0.43304692240E+03 -0.71262778109E+03 -0.86955042489E+03  0.12074253041E+04  0.79937050614E+02 0.  0.
        254    2    1    2    0    0  0.43304692240E+03  0.71262778109E+03  0.26597290916E+03  0.12618457076E+04  0.90892519489E+03 0.  0.
         23    2    4    4    0    0 -0.56117714649E+02  0.30397044924E+03  0.48396227960E+03  0.58191192070E+03  0.94099752800E+02 0.  0.
         23    2    4    4    0    0  0.48916463704E+03  0.40865733186E+03 -0.21798937044E+03  0.67993378686E+03  0.92237367004E+02 0.  0.
          4    1    3    3  502    0 -0.29702470591E+03 -0.55508888449E+03 -0.65060824029E+03  0.90533884702E+03  0.00000000000E+00 0. -1.
         -3    1    3    3    0  502 -0.13602221649E+03 -0.15753889661E+03 -0.21894218461E+03  0.30208645703E+03  0.00000000000E+00 0.  1.
         13    1    5    5    0    0 -0.21747534882E+01 -0.27966332298E+01 -0.24587420283E+01  0.43123221723E+01  0.00000000000E+00 0.  1.
        -13    1    5    5    0    0 -0.53942961161E+02  0.30676708247E+03  0.48642102163E+03  0.57759959853E+03  0.00000000000E+00 0. -1.
          1    1    6    6  503    0  0.28096316739E+03  0.18691531360E+03 -0.14400035243E+03  0.36689744805E+03  0.00000000000E+00 0.  1.
         -1    1    6    6    0  503  0.20820146965E+03  0.22174201825E+03 -0.73989018013E+02  0.31303633881E+03  0.00000000000E+00 0. -1.
<mgrwt>
<rscale>  0 0.23943670E+04</rscale>
<asrwt>0</asrwt>
<pdfrwt beam="1">  1        2 0.23637296E+00 0.23943670E+04</pdfrwt>
<pdfrwt beam="2">  1       -1 0.14351489E+00 0.23943670E+04</pdfrwt>
<totfact> 0.48715887E+00</totfact>
</mgrwt>
</event>
<event>
12    7  0.1730932E-007  0.1466038E+04  0.7818608E-02  0.8907357E-01
         -1   -1    0    0    0  501 -0.00000000000E+00  0.00000000000E+00  0.51328615230E+03  0.51328615230E+03  0.00000000000E+00 0.  1.
          2   -1    0    0  501    0  0.00000000000E+00 -0.00000000000E+00 -0.10468175018E+04  0.10468175018E+04  0.00000000000E+00 0. -1.
         24    2    1    2    0    0  0.18829951676E+03 -0.27074929555E+03  0.17915746135E+03  0.38376897662E+03  0.80120798796E+02 0.  0.
        254    2    1    2    0    0 -0.18829951676E+03  0.27074929555E+03 -0.71268881087E+03  0.11763346775E+04  0.87582877511E+03 0.  0.
         23    2    4    4    0    0 -0.53090040193E+03  0.14830902140E+03 -0.39180928101E+03  0.68237293277E+03  0.90925816445E+02 0.  0.
         23    2    4    4    0    0  0.34260088517E+03  0.12244027415E+03 -0.32087952986E+03  0.49396174473E+03  0.93099652657E+02 0.  0.
          2    1    3    3  502    0  0.61379395419E+02 -0.36086718995E+02  0.23963341265E+02  0.75126048708E+02  0.00000000000E+00 0. -1.
         -1    1    3    3    0  502  0.12692012134E+03 -0.23466257656E+03  0.15519412009E+03  0.30864292791E+03  0.00000000000E+00 0.  1.
         13    1    5    5    0    0 -0.76329284804E+02  0.17362030482E+01 -0.87139428902E+02  0.11585531576E+03  0.00000000000E+00 0. -1.
        -13    1    5    5    0    0 -0.45457111712E+03  0.14657281836E+03 -0.30466985210E+03  0.56651761701E+03  0.00000000000E+00 0.  1.
          4    1    6    6  503    0  0.92123303278E+02  0.64113123976E+02 -0.14052550334E+03  0.17984608075E+03  0.00000000000E+00 0. -1.
         -4    1    6    6    0  503  0.25047758189E+03  0.58327150171E+02 -0.18035402653E+03  0.31411566399E+03  0.00000000000E+00 0.  1.
<mgrwt>
<rscale>  0 0.14660381E+04</rscale>
<asrwt>0</asrwt>
<pdfrwt beam="1">  1        2 0.16104885E+00 0.14660381E+04</pdfrwt>
<pdfrwt beam="2">  1       -1 0.78967101E-01 0.14660381E+04</pdfrwt>
<totfact> 0.41679729E+01</totfact>
</mgrwt>
</event>
<event>
12    7  0.1730932E-007  0.1826077E+04  0.7818608E-02  0.8692554E-01
          2   -1    0    0  501    0  0.00000000000E+00  0.00000000000E+00  0.13963470868E+04  0.13963470868E+04  0.00000000000E+00 0. -1.
         -3   -1    0    0    0  501 -0.00000000000E+00 -0.00000000000E+00 -0.59701415091E+03  0.59701415091E+03  0.00000000000E+00 0.  1.
         24    2    1    2    0    0  0.10403697655E+03 -0.44377085807E+03 -0.25444390573E+03  0.52798963326E+03  0.79215432195E+02 0.  0.
        254    2    1    2    0    0 -0.10403697655E+03  0.44377085807E+03  0.10537768416E+04  0.14653716044E+04  0.91055589626E+03 0.  0.
         23    2    4    4    0    0  0.15369047433E+03 -0.69287712462E+02  0.81464675969E+03  0.83687141066E+03  0.91010251716E+02 0.  0.
         23    2    4    4    0    0 -0.25772745088E+03  0.51305857054E+03  0.23913008190E+03  0.62850019376E+03  0.90425448560E+02 0.  0.
          2    1    3    3  502    0 -0.34461070427E+01 -0.12545960545E+02 -0.24186623723E+02  0.27463968156E+02  0.00000000000E+00 0. -1.
         -1    1    3    3    0  502  0.10748308359E+03 -0.43122489753E+03 -0.23025728201E+03  0.50052566510E+03  0.00000000000E+00 0.  1.
         13    1    5    5    0    0  0.97087172271E+02 -0.60022238883E+02  0.69352795444E+03  0.70285817330E+03  0.00000000000E+00 0. -1.
        -13    1    5    5    0    0  0.56603302061E+02 -0.92654735797E+01  0.12111880525E+03  0.13401323736E+03  0.00000000000E+00 0.  1.
          1    1    6    6  503    0 -0.23996080554E+03  0.47656152391E+03  0.19384746686E+03  0.56768733884E+03  0.00000000000E+00 0. -1.
         -1    1    6    6    0  503 -0.17766645348E+02  0.36497046624E+02  0.45282615039E+02  0.60812854924E+02  0.00000000000E+00 0.  1.
<mgrwt>
<rscale>  0 0.18260766E+04</rscale>
<asrwt>0</asrwt>
<pdfrwt beam="1">  1        2 0.21482263E+00 0.18260766E+04</pdfrwt>
<pdfrwt beam="2">  1       -3 0.91848331E-01 0.18260766E+04</pdfrwt>
<totfact> 0.92757137E+00</totfact>
</mgrwt>
</event>
<event>
12    7  0.1730932E-007  0.3010493E+04  0.7818608E-02  0.8240741E-01
         -1   -1    0    0    0  501 -0.00000000000E+00  0.00000000000E+00  0.68886599461E+03  0.68886599461E+03  0.00000000000E+00 0.  1.
          2   -1    0    0  501    0  0.00000000000E+00 -0.00000000000E+00 -0.32891266942E+04  0.32891266942E+04  0.00000000000E+00 0. -1.
         24    2    1    2    0    0  0.10936816922E+04  0.11052110949E+03 -0.10405377978E+03  0.11072595439E+04  0.82716075337E+02 0.  0.
        254    2    1    2    0    0 -0.10936816922E+04 -0.11052110949E+03 -0.24962069198E+04  0.28707331449E+04  0.89537994351E+03 0.  0.
         23    2    4    4    0    0  0.10902061919E+03 -0.64974476493E+02 -0.97212481388E+02  0.18517780483E+03  0.93452527303E+02 0.  0.
         23    2    4    4    0    0 -0.12027023113E+04 -0.45546632999E+02 -0.23989944384E+04  0.26855553401E+04  0.92009909462E+02 0.  0.
          2    1    3    3  502    0  0.54765353906E+03  0.65156842792E+02 -0.11829396654E+02  0.55164277176E+03  0.00000000000E+00 0. -1.
         -1    1    3    3    0  502  0.54602815309E+03  0.45364266701E+02 -0.92224383130E+02  0.55561677216E+03  0.00000000000E+00 0.  1.
         13    1    5    5    0    0  0.45873937416E+00 -0.30548419383E+02  0.63932047463E+01  0.31213609781E+02  0.00000000000E+00 0. -1.
        -13    1    5    5    0    0  0.10856187982E+03 -0.34426057110E+02 -0.10360568613E+03  0.15396419505E+03  0.00000000000E+00 0.  1.
          3    1    6    6  503    0 -0.90044925342E+03  0.59393603597E+01 -0.17884014252E+04  0.20023046201E+04  0.00000000000E+00 0. -1.
         -3    1    6    6    0  503 -0.30225305793E+03 -0.51485993359E+02 -0.61059301325E+03  0.68325071999E+03  0.00000000000E+00 0.  1.
<mgrwt>
<rscale>  0 0.30104933E+04</rscale>
<asrwt>0</asrwt>
<pdfrwt beam="1">  1        2 0.50601948E+00 0.30104933E+04</pdfrwt>
<pdfrwt beam="2">  1       -1 0.10597939E+00 0.30104933E+04</pdfrwt>
<totfact> 0.91609313E-01</totfact>
</mgrwt>
</event>
<event>
12    7  0.1730932E-007  0.2009351E+04  0.7818608E-02  0.8602261E-01
          2   -1    0    0  501    0  0.00000000000E+00  0.00000000000E+00  0.17793058460E+04  0.17793058460E+04  0.00000000000E+00 0. -1.
         -1   -1    0    0    0  501 -0.00000000000E+00 -0.00000000000E+00 -0.56728477992E+03  0.56728477992E+03  0.00000000000E+00 0.  1.
         24    2    1    2    0    0 -0.16923068781E+03  0.77309056441E+03  0.33832162240E+03  0.86398106055E+03  0.75456651995E+02 0.  0.
        254    2    1    2    0    0  0.16923068781E+03 -0.77309056441E+03  0.87369944364E+03  0.14826095653E+04  0.89915090998E+03 0.  0.
         23    2    4    4    0    0 -0.87713391307E+02  0.14534706752E+03  0.96354943718E+01  0.19250307933E+03  0.90250671730E+02 0.  0.
         23    2    4    4    0    0  0.25694407911E+03 -0.91843763193E+03  0.86406394927E+03  0.12901064860E+04  0.90665832998E+02 0.  0.
          2    1    3    3  502    0 -0.14331093105E+03  0.72590024791E+03  0.30276631748E+03  0.79946021531E+03  0.00000000000E+00 0. -1.
         -1    1    3    3    0  502 -0.25919756759E+02  0.47190316505E+02  0.35555304919E+02  0.64520845238E+02  0.00000000000E+00 0.  1.
         13    1    5    5    0    0 -0.82038925715E+02  0.12739543261E+03 -0.24525513902E+02  0.15349749970E+03  0.00000000000E+00 0.  1.
        -13    1    5    5    0    0 -0.56744655920E+01  0.17951634907E+02  0.34161008273E+02  0.39005579625E+02  0.00000000000E+00 0. -1.
          4    1    6    6  503    0  0.93349559072E+02 -0.19364623443E+03  0.19209129604E+03  0.28829164105E+03  0.00000000000E+00 0. -1.
         -4    1    6    6    0  503  0.16359452004E+03 -0.72479139750E+03  0.67197265323E+03  0.10018148450E+04  0.00000000000E+00 0.  1.
<mgrwt>
<rscale>  0 0.20093513E+04</rscale>
<asrwt>0</asrwt>
<pdfrwt beam="1">  1        2 0.27373936E+00 0.20093513E+04</pdfrwt>
<pdfrwt beam="2">  1       -1 0.87274582E-01 0.20093513E+04</pdfrwt>
<totfact> 0.12106310E+01</totfact>
</mgrwt>
</event>
<event>
12    7  0.1730932E-007  0.2333997E+04  0.7818608E-02  0.8464636E-01
         -1   -1    0    0    0  501 -0.00000000000E+00  0.00000000000E+00  0.13009386547E+04  0.13009386547E+04  0.00000000000E+00 0.  1.
          2   -1    0    0  501    0  0.00000000000E+00 -0.00000000000E+00 -0.10468481730E+04  0.10468481730E+04  0.00000000000E+00 0. -1.
         24    2    1    2    0    0  0.42797504985E+03  0.88462819517E+03  0.25159565970E+03  0.10175366186E+04  0.79691324746E+02 0.  0.
        254    2    1    2    0    0 -0.42797504985E+03 -0.88462819517E+03  0.24948219635E+01  0.13302502091E+04  0.89656550657E+03 0.  0.
         23    2    4    4    0    0  0.15996308348E+03 -0.50448584879E+02 -0.21186004810E+03  0.28380132185E+03  0.86748270943E+02 0.  0.
         23    2    4    4    0    0 -0.58793813333E+03 -0.83417961030E+03  0.21435487006E+03  0.10464488872E+04  0.87065448689E+02 0.  0.
          4    1    3    3  502    0  0.40834162201E+03  0.80882819847E+03  0.24688164417E+03  0.93909343578E+03  0.00000000000E+00 0. -1.
         -1    1    3    3    0  502  0.19633427841E+02  0.75799996708E+02  0.47140155262E+01  0.78443182827E+02  0.00000000000E+00 0.  1.
         13    1    5    5    0    0  0.79013608643E+01  0.15076039242E+02 -0.30215485689E+01  0.17287227033E+02  0.00000000000E+00 0.  1.
        -13    1    5    5    0    0  0.15206172262E+03 -0.65524624122E+02 -0.20883849953E+03  0.26651409482E+03  0.00000000000E+00 0. -1.
          1    1    6    6  503    0 -0.40089271149E+03 -0.50159188934E+03  0.15129937651E+03  0.65969757534E+03  0.00000000000E+00 0. -1.
         -1    1    6    6    0  503 -0.18704542185E+03 -0.33258772095E+03  0.63055493547E+02  0.38675131187E+03  0.00000000000E+00 0.  1.
<mgrwt>
<rscale>  0 0.23339968E+04</rscale>
<asrwt>0</asrwt>
<pdfrwt beam="1">  1        2 0.16105357E+00 0.23339968E+04</pdfrwt>
<pdfrwt beam="2">  1       -1 0.20014441E+00 0.23339968E+04</pdfrwt>
<totfact> 0.36399563E+00</totfact>
</mgrwt>
</event>
<event>
12    7  0.1730932E-007  0.2221467E+04  0.7818608E-02  0.8509546E-01
         -1   -1    0    0    0  501 -0.00000000000E+00  0.00000000000E+00  0.51636532656E+03  0.51636532656E+03  0.00000000000E+00 0.  1.
          2   -1    0    0  501    0  0.00000000000E+00 -0.00000000000E+00 -0.23892569364E+04  0.23892569364E+04  0.00000000000E+00 0. -1.
         24    2    1    2    0    0 -0.70469707995E+03  0.20434766265E+03 -0.15238376200E+04  0.16931282481E+04  0.79033100188E+02 0.  0.
        254    2    1    2    0    0  0.70469707995E+03 -0.20434766265E+03 -0.34905398988E+03  0.12124940148E+04  0.89997061419E+03 0.  0.
         23    2    4    4    0    0  0.30433437758E+03  0.20540228925E+03 -0.48718943863E+03  0.61650662213E+03  0.88979504443E+02 0.  0.
         23    2    4    4    0    0  0.40036270237E+03 -0.40974995189E+03  0.13813544875E+03  0.59598739269E+03  0.89074426840E+02 0.  0.
          2    1    3    3  502    0 -0.47495461138E+03  0.14665748536E+03 -0.11116301496E+04  0.12177076374E+04  0.00000000000E+00 0. -1.
         -1    1    3    3    0  502 -0.22974246857E+03  0.57690177289E+02 -0.41220747041E+03  0.47542061070E+03  0.00000000000E+00 0.  1.
         13    1    5    5    0    0  0.16228504577E+03  0.56098430286E+02 -0.22263584342E+03  0.28115865403E+03  0.00000000000E+00 0.  1.
        -13    1    5    5    0    0  0.14204933180E+03  0.14930385896E+03 -0.26455359521E+03  0.33534796810E+03  0.00000000000E+00 0. -1.
          4    1    6    6  503    0  0.35044198253E+03 -0.38823872915E+03  0.14058324599E+03  0.54157413433E+03  0.00000000000E+00 0. -1.
         -4    1    6    6    0  503  0.49920719842E+02 -0.21511222749E+02 -0.24477972349E+01  0.54413258357E+02  0.00000000000E+00 0.  1.
<mgrwt>
<rscale>  0 0.22214675E+04</rscale>
<asrwt>0</asrwt>
<pdfrwt beam="1">  1        2 0.36757798E+00 0.22214675E+04</pdfrwt>
<pdfrwt beam="2">  1       -1 0.79440821E-01 0.22214675E+04</pdfrwt>
<totfact> 0.66289817E+00</totfact>
</mgrwt>
</event>
<event>
12    7  0.1730932E-007  0.1598984E+04  0.7818608E-02  0.8821173E-01
          2   -1    0    0  501    0  0.00000000000E+00  0.00000000000E+00  0.10282537954E+04  0.10282537954E+04  0.00000000000E+00 0. -1.
         -1   -1    0    0    0  501 -0.00000000000E+00 -0.00000000000E+00 -0.62162384203E+03  0.62162384203E+03  0.00000000000E+00 0.  1.
         24    2    1    2    0    0 -0.28192950822E+03 -0.43501805499E+03  0.29461280743E+03  0.60168746599E+03  0.80660675979E+02 0.  0.
        254    2    1    2    0    0  0.28192950822E+03  0.43501805499E+03  0.11201714589E+03  0.10481901714E+04  0.90411826586E+03 0.  0.
         23    2    4    4    0    0  0.57078693992E+03  0.31329209413E+03  0.23503595058E+03  0.69925750623E+03  0.98840755351E+02 0.  0.
         23    2    4    4    0    0 -0.28885743170E+03  0.12172596086E+03 -0.12301880469E+03  0.34893266517E+03  0.91457930890E+02 0.  0.
          4    1    3    3  502    0 -0.10435888280E+03 -0.17693820338E+03  0.16153144668E+03  0.26132415216E+03  0.00000000000E+00 0. -1.
         -3    1    3    3    0  502 -0.17757062543E+03 -0.25807985161E+03  0.13308136075E+03  0.34036331383E+03  0.00000000000E+00 0.  1.
         13    1    5    5    0    0  0.42177038871E+03  0.19159401737E+03  0.19566015549E+03  0.50287316962E+03  0.00000000000E+00 0.  1.
        -13    1    5    5    0    0  0.14901655121E+03  0.12169807676E+03  0.39375795092E+02  0.19638433660E+03  0.00000000000E+00 0. -1.
          4    1    6    6  503    0 -0.44404862285E+02  0.72218676930E+01  0.12765643294E+02  0.46764396888E+02  0.00000000000E+00 0. -1.
         -4    1    6    6    0  503 -0.24445256941E+03  0.11450409317E+03 -0.13578444798E+03  0.30216826828E+03  0.00000000000E+00 0.  1.
<mgrwt>
<rscale>  0 0.15989835E+04</rscale>
<asrwt>0</asrwt>
<pdfrwt beam="1">  1        2 0.15819289E+00 0.15989835E+04</pdfrwt>
<pdfrwt beam="2">  1       -1 0.95634437E-01 0.15989835E+04</pdfrwt>
<totfact> 0.27889950E+01</totfact>
</mgrwt>
</event>
<event>
12    7  0.1730932E-007  0.1467811E+04  0.7818608E-02  0.8906145E-01
          2   -1    0    0  501    0  0.00000000000E+00  0.00000000000E+00  0.56659717092E+03  0.56659717092E+03  0.00000000000E+00 0. -1.
         -1   -1    0    0    0  501 -0.00000000000E+00 -0.00000000000E+00 -0.95061805931E+03  0.95061805931E+03  0.00000000000E+00 0.  1.
         24    2    1    2    0    0  0.21333337914E+03  0.36879979410E+03 -0.28536003605E+03  0.51886608889E+03  0.79165960125E+02 0.  0.
        254    2    1    2    0    0 -0.21333337914E+03 -0.36879979410E+03 -0.98660852343E+02  0.99834914134E+03  0.89746455387E+03 0.  0.
         23    2    4    4    0    0  0.95444167845E+02 -0.86238634999E+02  0.34666574880E+03  0.38061891056E+03  0.90260303244E+02 0.  0.
         23    2    4    4    0    0 -0.30877754699E+03 -0.28256115910E+03 -0.44532660114E+03  0.61773023078E+03  0.89947063243E+02 0.  0.
          2    1    3    3  502    0  0.18142593651E+02  0.62091753593E+02 -0.74206408811E+02  0.98443540556E+02  0.00000000000E+00 0. -1.
         -1    1    3    3    0  502  0.19519078549E+03  0.30670804050E+03 -0.21115362724E+03  0.42042254833E+03  0.00000000000E+00 0.  1.
         13    1    5    5    0    0  0.77877172320E+02 -0.78940504351E+02  0.34397444449E+03  0.36140680079E+03  0.00000000000E+00 0. -1.
        -13    1    5    5    0    0  0.17566995525E+02 -0.72981306476E+01  0.26913043063E+01  0.19212109764E+02  0.00000000000E+00 0.  1.
          2    1    6    6  503    0 -0.19055491061E+03 -0.11546357358E+03 -0.24852025420E+03  0.33377436620E+03  0.00000000000E+00 0. -1.
         -2    1    6    6    0  503 -0.11822263638E+03 -0.16709758552E+03 -0.19680634694E+03  0.28395586459E+03  0.00000000000E+00 0.  1.
<mgrwt>
<rscale>  0 0.14678113E+04</rscale>
<asrwt>0</asrwt>
<pdfrwt beam="1">  1        2 0.87168797E-01 0.14678113E+04</pdfrwt>
<pdfrwt beam="2">  1       -1 0.14624893E+00 0.14678113E+04</pdfrwt>
<totfact> 0.21967456E+01</totfact>
</mgrwt>
</event>
<event>
12    7  0.1730932E-007  0.2499687E+04  0.7818608E-02  0.8403097E-01
          2   -1    0    0  501    0  0.00000000000E+00  0.00000000000E+00  0.12349735562E+04  0.12349735562E+04  0.00000000000E+00 0. -1.
         -1   -1    0    0    0  501 -0.00000000000E+00 -0.00000000000E+00 -0.12648920477E+04  0.12648920477E+04  0.00000000000E+00 0.  1.
         24    2    1    2    0    0  0.46426311595E+02 -0.62460861369E+03  0.87512482933E+03  0.10792194158E+04  0.81115706653E+02 0.  0.
        254    2    1    2    0    0 -0.46426311595E+02  0.62460861369E+03 -0.90504332079E+03  0.14206461881E+04  0.89824320573E+03 0.  0.
         23    2    4    4    0    0  0.29502828739E+02 -0.10030709166E+03 -0.61240654716E+03  0.62861957447E+03  0.95858546133E+02 0.  0.
         23    2    4    4    0    0 -0.75929140334E+02  0.72491570535E+03 -0.29263677363E+03  0.79202661366E+03  0.10198951537E+03 0.  0.
          4    1    3    3  502    0  0.36486439699E+01 -0.17682723730E+03  0.31027213064E+03  0.35714139988E+03  0.00000000000E+00 0. -1.
         -3    1    3    3    0  502  0.42777667626E+02 -0.44778137639E+03  0.56485269868E+03  0.72207801594E+03  0.00000000000E+00 0.  1.
         13    1    5    5    0    0 -0.63622126899E+01  0.14783119248E+02 -0.14606763706E+03  0.14695160075E+03  0.00000000000E+00 0.  1.
        -13    1    5    5    0    0  0.35865041429E+02 -0.11509021091E+03 -0.46633891009E+03  0.48166797372E+03  0.00000000000E+00 0. -1.
          1    1    6    6  503    0 -0.83702621614E+02  0.63547020967E+03 -0.22385422709E+03  0.67892505568E+03  0.00000000000E+00 0. -1.
         -1    1    6    6    0  503  0.77734812803E+01  0.89445495685E+02 -0.68782546536E+02  0.11310155798E+03  0.00000000000E+00 0.  1.
<mgrwt>
<rscale>  0 0.24996866E+04</rscale>
<asrwt>0</asrwt>
<pdfrwt beam="1">  1        2 0.18999593E+00 0.24996866E+04</pdfrwt>
<pdfrwt beam="2">  1       -1 0.19459878E+00 0.24996866E+04</pdfrwt>
<totfact> 0.30107798E+00</totfact>
</mgrwt>
</event>
<event>
12    7  0.1730932E-007  0.2081126E+04  0.7818608E-02  0.8569603E-01
         -1   -1    0    0    0  501 -0.00000000000E+00  0.00000000000E+00  0.13212278748E+04  0.13212278748E+04  0.00000000000E+00 0.  1.
          2   -1    0    0  501    0  0.00000000000E+00 -0.00000000000E+00 -0.81951884480E+03  0.81951884480E+03  0.00000000000E+00 0. -1.
         24    2    1    2    0    0  0.34530499472E+03  0.66327193587E+03 -0.19621053425E+03  0.77720374524E+03  0.79886717132E+02 0.  0.
        254    2    1    2    0    0 -0.34530499472E+03 -0.66327193587E+03  0.69791956425E+03  0.13635429744E+04  0.90166098090E+03 0.  0.
         23    2    4    4    0    0 -0.50938581033E+02 -0.34456512980E+03  0.82593866236E+03  0.90083208750E+03  0.89464563825E+02 0.  0.
         23    2    4    4    0    0 -0.29436641368E+03 -0.31870680608E+03 -0.12801909811E+03  0.46271088686E+03  0.97400521528E+02 0.  0.
          2    1    3    3  502    0  0.24792699163E+03  0.42651169479E+03 -0.97798388144E+02  0.50293592404E+03  0.00000000000E+00 0. -1.
         -1    1    3    3    0  502  0.97378003083E+02  0.23676024109E+03 -0.98412146101E+02  0.27426782120E+03  0.00000000000E+00 0.  1.
         13    1    5    5    0    0 -0.37181524320E+02 -0.32508541165E+03  0.80551086553E+03  0.86943127681E+03  0.00000000000E+00 0. -1.
        -13    1    5    5    0    0 -0.13757056713E+02 -0.19479718147E+02  0.20427796838E+02  0.31400810692E+02  0.00000000000E+00 0.  1.
          3    1    6    6  503    0 -0.20895086127E+03 -0.28038085870E+03 -0.86020021496E+02  0.36010183622E+03  0.00000000000E+00 0. -1.
         -3    1    6    6    0  503 -0.85415552415E+02 -0.38325947372E+02 -0.41999076617E+02  0.10260905064E+03  0.00000000000E+00 0.  1.
<mgrwt>
<rscale>  0 0.20811258E+04</rscale>
<asrwt>0</asrwt>
<pdfrwt beam="1">  1        2 0.12607982E+00 0.20811258E+04</pdfrwt>
<pdfrwt beam="2">  1       -1 0.20326583E+00 0.20811258E+04</pdfrwt>
<totfact> 0.50193171E+00</totfact>
</mgrwt>
</event>
<event>
12    7  0.1730932E-007  0.3234228E+04  0.7818608E-02  0.8179836E-01
          2   -1    0    0  501    0  0.00000000000E+00  0.00000000000E+00  0.33625047898E+04  0.33625047898E+04  0.00000000000E+00 0. -1.
         -1   -1    0    0    0  501 -0.00000000000E+00 -0.00000000000E+00 -0.77771135822E+03  0.77771135822E+03  0.00000000000E+00 0.  1.
         24    2    1    2    0    0  0.49761389403E+03  0.44839952572E+03 -0.50081871910E+03  0.84007523213E+03  0.78900469247E+02 0.  0.
        254    2    1    2    0    0 -0.49761389403E+03 -0.44839952572E+03  0.30856121507E+04  0.33001409159E+04  0.95981560629E+03 0.  0.
         23    2    4    4    0    0  0.27863886353E+02 -0.40242944137E+03  0.45059302940E+03  0.61131325037E+03  0.89128898174E+02 0.  0.
         23    2    4    4    0    0 -0.52547778038E+03 -0.45970084357E+02  0.26350191213E+04  0.26888276655E+04  0.90709971911E+02 0.  0.
          2    1    3    3  502    0  0.79675237806E+01  0.63089862485E+01  0.23013679619E+01  0.10420222511E+02  0.00000000000E+00 0. -1.
         -3    1    3    3    0  502  0.48964637024E+03  0.44209053948E+03 -0.50312008706E+03  0.82965500962E+03  0.00000000000E+00 0.  1.
         13    1    5    5    0    0  0.29315041485E+02 -0.91768781831E+02  0.15495830544E+03  0.18246357828E+03  0.00000000000E+00 0.  1.
        -13    1    5    5    0    0 -0.14511551321E+01 -0.31066065954E+03  0.29563472396E+03  0.42884967209E+03  0.00000000000E+00 0. -1.
          2    1    6    6  503    0 -0.38445973022E+03 -0.72107594308E+02  0.18681651136E+04  0.19086774691E+04  0.00000000000E+00 0. -1.
         -2    1    6    6    0  503 -0.14101805016E+03  0.26137509952E+02  0.76685400770E+03  0.78015019645E+03  0.00000000000E+00 0.  1.
<mgrwt>
<rscale>  0 0.32342283E+04</rscale>
<asrwt>0</asrwt>
<pdfrwt beam="1">  1        2 0.51730842E+00 0.32342283E+04</pdfrwt>
<pdfrwt beam="2">  1       -1 0.11964790E+00 0.32342283E+04</pdfrwt>
<totfact> 0.60048984E-01</totfact>
</mgrwt>
</event>
<event>
12    7  0.1730932E-007  0.2378482E+04  0.7818608E-02  0.8447604E-01
         -1   -1    0    0    0  501 -0.00000000000E+00  0.00000000000E+00  0.62686874636E+03  0.62686874636E+03  0.00000000000E+00 0.  1.
          2   -1    0    0  501    0  0.00000000000E+00 -0.00000000000E+00 -0.22561245817E+04  0.22561245817E+04  0.00000000000E+00 0. -1.
         24    2    1    2    0    0  0.29496858880E+03 -0.76702521327E+03  0.26679605348E+02  0.82560983096E+03  0.74737175956E+02 0.  0.
        254    2    1    2    0    0 -0.29496858880E+03  0.76702521327E+03 -0.16559354407E+04  0.20573834971E+04  0.90297869533E+03 0.  0.
         23    2    4    4    0    0  0.75156623236E+02  0.38364850811E+02 -0.99207166285E+03  0.10001260790E+04  0.94475446176E+02 0.  0.
         23    2    4    4    0    0 -0.37012521204E+03  0.72866036246E+03 -0.66386377783E+03  0.10572574181E+04  0.95600921163E+02 0.  0.
          4    1    3    3  502    0  0.14341965329E+03 -0.39601081210E+03 -0.22778623777E+02  0.42179690130E+03  0.00000000000E+00 0. -1.
         -3    1    3    3    0  502  0.15154893552E+03 -0.37101440117E+03  0.49458229125E+02  0.40381292966E+03  0.00000000000E+00 0.  1.
         13    1    5    5    0    0  0.19196944150E+02 -0.12607107856E+02 -0.50045899159E+02  0.55064088622E+02  0.00000000000E+00 0. -1.
        -13    1    5    5    0    0  0.55959679087E+02  0.50971958667E+02 -0.94202576369E+03  0.94506199040E+03  0.00000000000E+00 0.  1.
          1    1    6    6  503    0 -0.11100649813E+02  0.95703766829E+01  0.23225540323E+00  0.14658460993E+02  0.00000000000E+00 0. -1.
         -1    1    6    6    0  503 -0.35902456223E+03  0.71908998577E+03 -0.66409603323E+03  0.10425989571E+04  0.00000000000E+00 0.  1.
<mgrwt>
<rscale>  0 0.23784819E+04</rscale>
<asrwt>0</asrwt>
<pdfrwt beam="1">  1        2 0.34709609E+00 0.23784819E+04</pdfrwt>
<pdfrwt beam="2">  1       -1 0.96441345E-01 0.23784819E+04</pdfrwt>
<totfact> 0.50918018E+00</totfact>
</mgrwt>
</event>
<event>
12    7  0.1730932E-007  0.1964318E+04  0.7818608E-02  0.8623487E-01
          2   -1    0    0  501    0  0.00000000000E+00  0.00000000000E+00  0.67129759472E+03  0.67129759472E+03  0.00000000000E+00 0. -1.
         -1   -1    0    0    0  501 -0.00000000000E+00 -0.00000000000E+00 -0.14369730834E+04  0.14369730834E+04  0.00000000000E+00 0.  1.
         24    2    1    2    0    0  0.34464840873E+03 -0.71269800091E+03 -0.65545035622E+02  0.79832423198E+03  0.79400639281E+02 0.  0.
        254    2    1    2    0    0 -0.34464840873E+03  0.71269800091E+03 -0.70013045302E+03  0.13099464461E+04  0.77398712798E+03 0.  0.
         23    2    4    4    0    0 -0.34979685476E+03  0.86035659483E+03 -0.59066251840E+03  0.11046652428E+04  0.93977540052E+02 0.  0.
         23    2    4    4    0    0  0.51484460271E+01 -0.14765859392E+03 -0.10946793462E+03  0.20528120335E+03  0.91255558105E+02 0.  0.
          2    1    3    3  502    0  0.26916281674E+03 -0.47679945524E+03 -0.33107467051E+02  0.54852752603E+03  0.00000000000E+00 0. -1.
         -1    1    3    3    0  502  0.75485591990E+02 -0.23589854567E+03 -0.32437568572E+02  0.24979670595E+03  0.00000000000E+00 0.  1.
         13    1    5    5    0    0 -0.32044631465E+03  0.83485475334E+03 -0.55964335136E+03  0.10549260545E+04  0.00000000000E+00 0. -1.
        -13    1    5    5    0    0 -0.29350540108E+02  0.25501841497E+02 -0.31019167035E+02  0.49739188251E+02  0.00000000000E+00 0.  1.
          1    1    6    6  503    0 -0.45909525273E+01 -0.14830437241E+03 -0.68966897782E+02  0.16362058767E+03  0.00000000000E+00 0. -1.
         -1    1    6    6    0  503  0.97393985544E+01  0.64577848581E+00 -0.40501036840E+02  0.41660615684E+02  0.00000000000E+00 0.  1.
<mgrwt>
<rscale>  0 0.19643183E+04</rscale>
<asrwt>0</asrwt>
<pdfrwt beam="1">  1        2 0.10327655E+00 0.19643183E+04</pdfrwt>
<pdfrwt beam="2">  1       -1 0.22107278E+00 0.19643183E+04</pdfrwt>
<totfact> 0.49729472E+00</totfact>
</mgrwt>
</event>
<event>
12    7  0.1730932E-007  0.2111132E+04  0.7818608E-02  0.8556355E-01
         -1   -1    0    0    0  501 -0.00000000000E+00  0.00000000000E+00  0.72041756324E+03  0.72041756324E+03  0.00000000000E+00 0.  1.
          2   -1    0    0  501    0  0.00000000000E+00 -0.00000000000E+00 -0.15466303903E+04  0.15466303903E+04  0.00000000000E+00 0. -1.
         24    2    1    2    0    0  0.54177928161E+03 -0.46711612876E+03  0.17282773560E+03  0.74273364852E+03  0.10030742105E+03 0.  0.
        254    2    1    2    0    0 -0.54177928161E+03  0.46711612876E+03 -0.99904056263E+03  0.15243143050E+04  0.90206972396E+03 0.  0.
         23    2    4    4    0    0 -0.69816694916E+02  0.26944742808E+02  0.15817323832E+03  0.19605575324E+03  0.88423384932E+02 0.  0.
         23    2    4    4    0    0 -0.47196258670E+03  0.44017138595E+03 -0.11572138009E+04  0.13282585517E+04  0.92884158685E+02 0.  0.
          2    1    3    3  502    0  0.21439107039E+03 -0.18482389896E+03  0.18278157414E+02  0.28365030535E+03  0.00000000000E+00 0. -1.
         -1    1    3    3    0  502  0.32738821122E+03 -0.28229222980E+03  0.15454957818E+03  0.45908334316E+03  0.00000000000E+00 0.  1.
         13    1    5    5    0    0 -0.62156803794E+02  0.25333393821E+02  0.16948938582E+03  0.18229619032E+03  0.00000000000E+00 0. -1.
        -13    1    5    5    0    0 -0.76598911213E+01  0.16113489876E+01 -0.11316147496E+02  0.13759562918E+02  0.00000000000E+00 0.  1.
          4    1    6    6  503    0 -0.34591761716E+03  0.26894243828E+03 -0.81669153442E+03  0.92680855378E+03  0.00000000000E+00 0. -1.
         -4    1    6    6    0  503 -0.12604496954E+03  0.17122894767E+03 -0.34052226653E+03  0.40144999797E+03  0.00000000000E+00 0.  1.
<mgrwt>
<rscale>  0 0.21111321E+04</rscale>
<asrwt>0</asrwt>
<pdfrwt beam="1">  1        2 0.23794314E+00 0.21111321E+04</pdfrwt>
<pdfrwt beam="2">  1       -1 0.11083347E+00 0.21111321E+04</pdfrwt>
<totfact> 0.93945924E+00</totfact>
</mgrwt>
</event>
<event>
12    7  0.1730932E-007  0.2230507E+04  0.7818608E-02  0.8505837E-01
         -1   -1    0    0    0  501 -0.00000000000E+00  0.00000000000E+00  0.10616504561E+04  0.10616504561E+04  0.00000000000E+00 0.  1.
          2   -1    0    0  501    0  0.00000000000E+00 -0.00000000000E+00 -0.11715631663E+04  0.11715631663E+04  0.00000000000E+00 0. -1.
         24    2    1    2    0    0  0.74287842610E+03  0.38006107660E+03 -0.45664194680E+03  0.95460414895E+03  0.80202466915E+02 0.  0.
        254    2    1    2    0    0 -0.74287842610E+03 -0.38006107660E+03  0.34672923667E+03  0.12786094735E+04  0.90460281016E+03 0.  0.
         23    2    4    4    0    0  0.64007383773E+02 -0.35411676334E+03 -0.50408505771E+02  0.37446885358E+03  0.90500152436E+02 0.  0.
         23    2    4    4    0    0 -0.80688580988E+03 -0.25944313263E+02  0.39713774244E+03  0.90414061988E+03  0.89521262743E+02 0.  0.
          4    1    3    3  502    0  0.22663084303E+02  0.27682263008E+02 -0.11801132077E+02  0.37672135507E+02  0.00000000000E+00 0. -1.
         -3    1    3    3    0  502  0.72021534180E+03  0.35237881360E+03 -0.44484081472E+03  0.91693201344E+03  0.00000000000E+00 0.  1.
         13    1    5    5    0    0  0.62472148973E+02 -0.34937771867E+03 -0.63416011562E+02  0.36054008130E+03  0.00000000000E+00 0.  1.
        -13    1    5    5    0    0  0.15352348000E+01 -0.47390446665E+01  0.13007505791E+02  0.13928772277E+02  0.00000000000E+00 0. -1.
          2    1    6    6  503    0 -0.14576452313E+03  0.21340048448E+02  0.98118358123E+02  0.17700255950E+03  0.00000000000E+00 0. -1.
         -2    1    6    6    0  503 -0.66112128675E+03 -0.47284361711E+02  0.29901938431E+03  0.72713806038E+03  0.00000000000E+00 0.  1.
<mgrwt>
<rscale>  0 0.22305072E+04</rscale>
<asrwt>0</asrwt>
<pdfrwt beam="1">  1        2 0.18024049E+00 0.22305072E+04</pdfrwt>
<pdfrwt beam="2">  1       -1 0.16333084E+00 0.22305072E+04</pdfrwt>
<totfact> 0.56482408E+00</totfact>
</mgrwt>
</event>
<event>
12    7  0.1730932E-007  0.2059628E+04  0.7818608E-02  0.8579239E-01
         -1   -1    0    0    0  501 -0.00000000000E+00  0.00000000000E+00  0.47837749075E+03  0.47837749075E+03  0.00000000000E+00 0.  1.
          2   -1    0    0  501    0  0.00000000000E+00 -0.00000000000E+00 -0.22169040415E+04  0.22169040415E+04  0.00000000000E+00 0. -1.
         24    2    1    2    0    0  0.71913315741E+03  0.25082765137E+03 -0.27082415515E+03  0.81299095122E+03  0.86842126737E+02 0.  0.
        254    2    1    2    0    0 -0.71913315741E+03 -0.25082765137E+03 -0.14677023956E+04  0.18822905810E+04  0.89933336456E+03 0.  0.
         23    2    4    4    0    0 -0.59073676446E+03 -0.32588773602E+03 -0.15471212249E+04  0.16903642286E+04  0.92598052443E+02 0.  0.
         23    2    4    4    0    0 -0.12839639295E+03  0.75060084657E+02  0.79418829354E+02  0.19192635242E+03  0.91699096313E+02 0.  0.
          2    1    3    3  502    0  0.51460315501E+03  0.21461144722E+03 -0.21803075941E+03  0.59867511429E+03  0.00000000000E+00 0. -1.
         -1    1    3    3    0  502  0.20453000239E+03  0.36216204147E+02 -0.52793395741E+02  0.21431583692E+03  0.00000000000E+00 0.  1.
         13    1    5    5    0    0 -0.45941386929E+03 -0.27772166169E+03 -0.11447819120E+04  0.12644034366E+04  0.00000000000E+00 0.  1.
        -13    1    5    5    0    0 -0.13132289517E+03 -0.48166074332E+02 -0.40233931297E+03  0.42596079194E+03  0.00000000000E+00 0. -1.
          3    1    6    6  503    0 -0.21270675103E+02 -0.20807501555E+02  0.54370615298E+01  0.30248229342E+02  0.00000000000E+00 0. -1.
         -3    1    6    6    0  503 -0.10712571785E+03  0.95867586212E+02  0.73981767824E+02  0.16167812307E+03  0.00000000000E+00 0.  1.
<mgrwt>
<rscale>  0 0.20596281E+04</rscale>
<asrwt>0</asrwt>
<pdfrwt beam="1">  1        2 0.34106215E+00 0.20596281E+04</pdfrwt>
<pdfrwt beam="2">  1       -1 0.73596538E-01 0.20596281E+04</pdfrwt>
<totfact> 0.98890423E+00</totfact>
</mgrwt>
</event>
<event>
12    7  0.1730932E-007  0.2598232E+04  0.7818608E-02  0.8368802E-01
          2   -1    0    0  501    0  0.00000000000E+00  0.00000000000E+00  0.29857874161E+04  0.29857874161E+04  0.00000000000E+00 0. -1.
         -1   -1    0    0    0  501 -0.00000000000E+00 -0.00000000000E+00 -0.56524522229E+03  0.56524522229E+03  0.00000000000E+00 0.  1.
         24    2    1    2    0    0 -0.15153496446E+03  0.11177878201E+04  0.12892468120E+04  0.17145595758E+04  0.71726847528E+02 0.  0.
        254    2    1    2    0    0  0.15153496446E+03 -0.11177878201E+04  0.11312953818E+04  0.18364730626E+04  0.90575471987E+03 0.  0.
         23    2    4    4    0    0 -0.33714097171E+02 -0.15533493714E+03  0.76420079461E+03  0.78584141270E+03  0.90985099784E+02 0.  0.
         23    2    4    4    0    0  0.18524906163E+03 -0.96245288292E+03  0.36709458722E+03  0.10506316499E+04  0.91845855223E+02 0.  0.
          2    1    3    3  502    0 -0.14706311410E+03  0.90495921566E+03  0.10674577435E+04  0.14071406382E+04  0.00000000000E+00 0. -1.
         -1    1    3    3    0  502 -0.44718503585E+01  0.21282860440E+03  0.22178906849E+03  0.30741893761E+03  0.00000000000E+00 0.  1.
         13    1    5    5    0    0 -0.53168732927E+02 -0.85588244971E+02  0.56442662142E+03  0.57334952063E+03  0.00000000000E+00 0. -1.
        -13    1    5    5    0    0  0.19454635755E+02 -0.69746692167E+02  0.19977417319E+03  0.21249189207E+03  0.00000000000E+00 0.  1.
          1    1    6    6  503    0  0.16681534852E+03 -0.76682488835E+03  0.25916566979E+03  0.82644698215E+03  0.00000000000E+00 0. -1.
         -1    1    6    6    0  503  0.18433713105E+02 -0.19562799457E+03  0.10792891742E+03  0.22418466775E+03  0.00000000000E+00 0.  1.
<mgrwt>
<rscale>  0 0.25982318E+04</rscale>
<asrwt>0</asrwt>
<pdfrwt beam="1">  1        2 0.45935190E+00 0.25982318E+04</pdfrwt>
<pdfrwt beam="2">  1       -1 0.86960805E-01 0.25982318E+04</pdfrwt>
<totfact> 0.23286398E+00</totfact>
</mgrwt>
</event>
<event>
12    7  0.1730932E-007  0.2305536E+04  0.7818608E-02  0.8475742E-01
          4   -1    0    0  501    0  0.00000000000E+00  0.00000000000E+00  0.64020346772E+03  0.64020346772E+03  0.00000000000E+00 0. -1.
         -3   -1    0    0    0  501 -0.00000000000E+00 -0.00000000000E+00 -0.20757054599E+04  0.20757054599E+04  0.00000000000E+00 0.  1.
         24    2    1    2    0    0 -0.94998712552E+03 -0.73339723798E+02 -0.80370215323E+03  0.12490586437E+04  0.79725093428E+02 0.  0.
        254    2    1    2    0    0  0.94998712552E+03  0.73339723798E+02 -0.63179983896E+03  0.14668502839E+04  0.91903452886E+03 0.  0.
         23    2    4    4    0    0 -0.21555229243E+01  0.28563576953E+03 -0.32101953719E+03  0.43875937789E+03  0.88678121957E+02 0.  0.
         23    2    4    4    0    0  0.95214264845E+03 -0.21229604573E+03 -0.31078030177E+03  0.10280909061E+04  0.93494818638E+02 0.  0.
          4    1    3    3  502    0 -0.23482110133E+03 -0.52701437616E+02 -0.20556660856E+03  0.31650595841E+03  0.00000000000E+00 0. -1.
         -3    1    3    3    0  502 -0.71516602420E+03 -0.20638286182E+02 -0.59813554467E+03  0.93255268528E+03  0.00000000000E+00 0.  1.
         13    1    5    5    0    0 -0.16514315602E+02  0.50492346857E+01 -0.11522961767E+02  0.20760444085E+02  0.00000000000E+00 0. -1.
        -13    1    5    5    0    0  0.14358792677E+02  0.28058653484E+03 -0.30949657543E+03  0.41799893381E+03  0.00000000000E+00 0.  1.
          1    1    6    6  503    0  0.27971786495E+03 -0.52419559002E+02 -0.13464144293E+03  0.31483045007E+03  0.00000000000E+00 0. -1.
         -1    1    6    6    0  503  0.67242478350E+03 -0.15987648673E+03 -0.17613885884E+03  0.71326045598E+03  0.00000000000E+00 0.  1.
<mgrwt>
<rscale>  0 0.23055358E+04</rscale>
<asrwt>0</asrwt>
<pdfrwt beam="1">  1        4 0.98492843E-01 0.23055358E+04</pdfrwt>
<pdfrwt beam="2">  1       -3 0.31933930E+00 0.23055358E+04</pdfrwt>
<totfact> 0.52602612E-02</totfact>
</mgrwt>
</event>
<event>
12    7  0.1730932E-007  0.1835356E+04  0.7818608E-02  0.8687720E-01
         -1   -1    0    0    0  501 -0.00000000000E+00  0.00000000000E+00  0.74100749506E+03  0.74100749506E+03  0.00000000000E+00 0.  1.
          2   -1    0    0  501    0  0.00000000000E+00 -0.00000000000E+00 -0.11364703411E+04  0.11364703411E+04  0.00000000000E+00 0. -1.
         24    2    1    2    0    0  0.65715295834E+03  0.10106173487E+03 -0.35144980100E+03  0.75605161098E+03  0.77676192726E+02 0.  0.
        254    2    1    2    0    0 -0.65715295834E+03 -0.10106173487E+03 -0.44013045034E+02  0.11214262252E+04  0.90199564603E+03 0.  0.
         23    2    4    4    0    0 -0.12708100346E+03 -0.16436846583E+03  0.37277785968E+03  0.43632602658E+03  0.90832234380E+02 0.  0.
         23    2    4    4    0    0 -0.53007195488E+03  0.63306730959E+02 -0.41679090471E+03  0.68510019860E+03  0.10326472939E+03 0.  0.
          2    1    3    3  502    0  0.61936397228E+03  0.10215030389E+03 -0.34886282815E+03  0.71815853933E+03  0.00000000000E+00 0. -1.
         -1    1    3    3    0  502  0.37788986065E+02 -0.10885690192E+01 -0.25869728507E+01  0.37893071647E+02  0.00000000000E+00 0.  1.
         13    1    5    5    0    0 -0.76042330594E+02 -0.34878556224E+02  0.18063603030E+03  0.19906864436E+03  0.00000000000E+00 0. -1.
        -13    1    5    5    0    0 -0.51038672870E+02 -0.12948990961E+03  0.19214182938E+03  0.23725738221E+03  0.00000000000E+00 0.  1.
          3    1    6    6  503    0 -0.38839032398E+03  0.42903960260E+02 -0.35933227362E+03  0.53085541952E+03  0.00000000000E+00 0. -1.
         -3    1    6    6    0  503 -0.14168163090E+03  0.20402770700E+02 -0.57458631088E+02  0.15424477908E+03  0.00000000000E+00 0.  1.
<mgrwt>
<rscale>  0 0.18353561E+04</rscale>
<asrwt>0</asrwt>
<pdfrwt beam="1">  1        2 0.17484159E+00 0.18353561E+04</pdfrwt>
<pdfrwt beam="2">  1       -1 0.11400115E+00 0.18353561E+04</pdfrwt>
<totfact> 0.15572223E+01</totfact>
</mgrwt>
</event>
<event>
12    7  0.1730932E-007  0.2107586E+04  0.7818608E-02  0.8557909E-01
          2   -1    0    0  501    0  0.00000000000E+00  0.00000000000E+00  0.15949324425E+04  0.15949324425E+04  0.00000000000E+00 0. -1.
         -1   -1    0    0    0  501 -0.00000000000E+00 -0.00000000000E+00 -0.69625501698E+03  0.69625501698E+03  0.00000000000E+00 0.  1.
         24    2    1    2    0    0 -0.57557868210E+03  0.63231383917E+03  0.35986038279E+03  0.93106957097E+03  0.79242920179E+02 0.  0.
        254    2    1    2    0    0  0.57557868210E+03 -0.63231383917E+03  0.53881704268E+03  0.13601178885E+04  0.91021165371E+03 0.  0.
         23    2    4    4    0    0  0.17990027014E+03 -0.36371731631E+03 -0.21112035551E+03  0.46615070178E+03  0.89834730905E+02 0.  0.
         23    2    4    4    0    0  0.39567841196E+03 -0.26859652286E+03  0.74993739820E+03  0.89396718669E+03  0.89809419755E+02 0.  0.
          4    1    3    3  502    0 -0.36573979761E+03  0.35868123203E+03  0.18692966368E+03  0.54530773416E+03  0.00000000000E+00 0. -1.
         -3    1    3    3    0  502 -0.20983888449E+03  0.27363260713E+03  0.17293071911E+03  0.38576183681E+03  0.00000000000E+00 0.  1.
         13    1    5    5    0    0  0.15892714853E+03 -0.26624856968E+03 -0.12470161433E+03  0.33421046066E+03  0.00000000000E+00 0.  1.
        -13    1    5    5    0    0  0.20973121607E+02 -0.97468746630E+02 -0.86418741178E+02  0.13194024112E+03  0.00000000000E+00 0. -1.
          1    1    6    6  503    0  0.89373554742E+02 -0.85372596136E+02  0.13563644053E+03  0.18350301485E+03  0.00000000000E+00 0. -1.
         -1    1    6    6    0  503  0.30630485722E+03 -0.18322392672E+03  0.61430095766E+03  0.71046417184E+03  0.00000000000E+00 0.  1.
<mgrwt>
<rscale>  0 0.21075860E+04</rscale>
<asrwt>0</asrwt>
<pdfrwt beam="1">  1        2 0.24537422E+00 0.21075860E+04</pdfrwt>
<pdfrwt beam="2">  1       -1 0.10711616E+00 0.21075860E+04</pdfrwt>
<totfact> 0.95680085E+00</totfact>
</mgrwt>
</event>
<event>
12    7  0.1730932E-007  0.2953492E+04  0.7818608E-02  0.8257138E-01
          2   -1    0    0  501    0  0.00000000000E+00  0.00000000000E+00  0.16696347542E+04  0.16696347542E+04  0.00000000000E+00 0. -1.
         -1   -1    0    0    0  501 -0.00000000000E+00 -0.00000000000E+00 -0.13061409015E+04  0.13061409015E+04  0.00000000000E+00 0.  1.
         24    2    1    2    0    0  0.95416468179E+03  0.75067525056E+03  0.73604920214E+03  0.14220134733E+04  0.80064464526E+02 0.  0.
        254    2    1    2    0    0 -0.95416468179E+03 -0.75067525056E+03 -0.37255534942E+03  0.15537621823E+04  0.89522950079E+03 0.  0.
         23    2    4    4    0    0 -0.35719009044E+03  0.15978675191E+03 -0.19611535953E+03  0.44710853057E+03  0.91259175242E+02 0.  0.
         23    2    4    4    0    0 -0.59697459135E+03 -0.91046200247E+03 -0.17643998989E+03  0.11066536518E+04  0.90727693001E+02 0.  0.
          4    1    3    3  502    0  0.76101189014E+03  0.58426019022E+03  0.54494974582E+03  0.11033899094E+04  0.00000000000E+00 0. -1.
         -3    1    3    3    0  502  0.19315279166E+03  0.16641506035E+03  0.19109945632E+03  0.31862356385E+03  0.00000000000E+00 0.  1.
         13    1    5    5    0    0 -0.13672790838E+03  0.29111281255E+02 -0.10603529337E+03  0.17545788973E+03  0.00000000000E+00 0. -1.
        -13    1    5    5    0    0 -0.22046218206E+03  0.13067547065E+03 -0.90080066157E+02  0.27165064084E+03  0.00000000000E+00 0.  1.
          2    1    6    6  503    0 -0.39531033818E+02 -0.94107359599E+02  0.23099766815E+01  0.10209913691E+03  0.00000000000E+00 0. -1.
         -2    1    6    6    0  503 -0.55744355753E+03 -0.81635464287E+03 -0.17874996657E+03  0.10045545149E+04  0.00000000000E+00 0.  1.
<mgrwt>
<rscale>  0 0.29534917E+04</rscale>
<asrwt>0</asrwt>
<pdfrwt beam="1">  1        2 0.25686689E+00 0.29534917E+04</pdfrwt>
<pdfrwt beam="2">  1       -1 0.20094475E+00 0.29534917E+04</pdfrwt>
<totfact> 0.14787329E+00</totfact>
</mgrwt>
</event>
<event>
12    7  0.1730932E-007  0.2622887E+04  0.7818608E-02  0.8360468E-01
          2   -1    0    0  501    0  0.00000000000E+00  0.00000000000E+00  0.28601656669E+04  0.28601656669E+04  0.00000000000E+00 0. -1.
         -1   -1    0    0    0  501 -0.00000000000E+00 -0.00000000000E+00 -0.60132312706E+03  0.60132312706E+03  0.00000000000E+00 0.  1.
         24    2    1    2    0    0  0.39821022156E+02 -0.24752634666E+03 -0.49202866068E+03  0.55814719907E+03  0.81123897870E+02 0.  0.
        254    2    1    2    0    0 -0.39821022156E+02  0.24752634666E+03  0.27508712006E+04  0.29033415949E+04  0.89400506077E+03 0.  0.
         23    2    4    4    0    0 -0.17257299283E+02  0.50338949102E+03  0.24255712199E+04  0.24789906680E+04  0.91105405385E+02 0.  0.
         23    2    4    4    0    0 -0.22563722874E+02 -0.25586314436E+03  0.32529998064E+03  0.42435092697E+03  0.90986601115E+02 0.  0.
          2    1    3    3  502    0  0.24209106755E+02 -0.41296938682E+02 -0.15968235801E+03  0.16670324968E+03  0.00000000000E+00 0. -1.
         -1    1    3    3    0  502  0.15611915401E+02 -0.20622940798E+03 -0.33234630267E+03  0.39144394939E+03  0.00000000000E+00 0.  1.
         13    1    5    5    0    0  0.24288350761E+02  0.16793802750E+03  0.96610119119E+03  0.98088970669E+03  0.00000000000E+00 0. -1.
        -13    1    5    5    0    0 -0.41545650043E+02  0.33545146352E+03  0.14594700287E+04  0.14981009613E+04  0.00000000000E+00 0.  1.
          2    1    6    6  503    0  0.15466490332E+01 -0.29871284049E+02  0.31181220421E+01  0.30073383897E+02  0.00000000000E+00 0. -1.
         -2    1    6    6    0  503 -0.24110371907E+02 -0.22599186031E+03  0.32218185860E+03  0.39427754307E+03  0.00000000000E+00 0.  1.
<mgrwt>
<rscale>  0 0.26228868E+04</rscale>
<asrwt>0</asrwt>
<pdfrwt beam="1">  1        2 0.44002548E+00 0.26228868E+04</pdfrwt>
<pdfrwt beam="2">  1       -1 0.92511252E-01 0.26228868E+04</pdfrwt>
<totfact> 0.24239536E+00</totfact>
</mgrwt>
</event>
<event>
12    7  0.1730932E-007  0.3334357E+04  0.7818608E-02  0.8154208E-01
         -1   -1    0    0    0  501 -0.00000000000E+00  0.00000000000E+00  0.14068427559E+04  0.14068427559E+04  0.00000000000E+00 0.  1.
          2   -1    0    0  501    0  0.00000000000E+00 -0.00000000000E+00 -0.19756894822E+04  0.19756894822E+04  0.00000000000E+00 0. -1.
         24    2    1    2    0    0 -0.12024740908E+04  0.90657560824E+03 -0.63144769865E+03  0.16346751127E+04  0.74921661359E+02 0.  0.
        254    2    1    2    0    0  0.12024740908E+04 -0.90657560824E+03  0.62600972339E+02  0.17478571254E+04  0.88502111648E+03 0.  0.
         23    2    4    4    0    0  0.68248052200E+03  0.76970206051E+01  0.58893368789E+02  0.69170345114E+03  0.95636438679E+02 0.  0.
         23    2    4    4    0    0  0.51999356883E+03 -0.91427262885E+03  0.37076035491E+01  0.10561536743E+04  0.95703113378E+02 0.  0.
          4    1    3    3  502    0 -0.91177604868E+03  0.71409092125E+03 -0.51040979890E+03  0.12656143052E+04  0.00000000000E+00 0. -1.
         -1    1    3    3    0  502 -0.29069804215E+03  0.19248468699E+03 -0.12103789975E+03  0.36906080747E+03  0.00000000000E+00 0.  1.
         13    1    5    5    0    0  0.62000979119E+02 -0.91622130008E+01  0.32101065271E+02  0.70416943631E+02  0.00000000000E+00 0.  1.
        -13    1    5    5    0    0  0.62047954288E+03  0.16859233606E+02  0.26792303519E+02  0.62128650751E+03  0.00000000000E+00 0. -1.
          2    1    6    6  503    0  0.41827106528E+03 -0.77997360617E+03  0.30441713929E+02  0.88557111986E+03  0.00000000000E+00 0. -1.
         -2    1    6    6    0  503  0.10172250355E+03 -0.13429902268E+03 -0.26734110380E+02  0.17058255443E+03  0.00000000000E+00 0.  1.
<mgrwt>
<rscale>  0 0.33343572E+04</rscale>
<asrwt>0</asrwt>
<pdfrwt beam="1">  1        2 0.30395223E+00 0.33343572E+04</pdfrwt>
<pdfrwt beam="2">  1       -1 0.21643735E+00 0.33343572E+04</pdfrwt>
<totfact> 0.75938804E-01</totfact>
</mgrwt>
</event>
<event>
12    7  0.1730932E-007  0.2596822E+04  0.7818608E-02  0.8369281E-01
         -1   -1    0    0    0  501 -0.00000000000E+00  0.00000000000E+00  0.92753461064E+03  0.92753461064E+03  0.00000000000E+00 0.  1.
          2   -1    0    0  501    0  0.00000000000E+00 -0.00000000000E+00 -0.18175833923E+04  0.18175833923E+04  0.00000000000E+00 0. -1.
         24    2    1    2    0    0  0.48917801966E+03 -0.10099542615E+03  0.69171356791E+03  0.85708903087E+03  0.81478437505E+02 0.  0.
        254    2    1    2    0    0 -0.48917801966E+03  0.10099542615E+03 -0.15817623496E+04  0.18880289721E+04  0.90176829498E+03 0.  0.
         23    2    4    4    0    0 -0.12758658182E+03 -0.38489932033E+03 -0.57165886959E+03  0.70670574702E+03  0.90627407720E+02 0.  0.
         23    2    4    4    0    0 -0.36159143784E+03  0.48589474648E+03 -0.10101034800E+04  0.11813232251E+04  0.91506552844E+02 0.  0.
          4    1    3    3  502    0  0.83844830048E+02  0.13286790870E+02  0.11078469346E+03  0.13956984861E+03  0.00000000000E+00 0. -1.
         -3    1    3    3    0  502  0.40533318961E+03 -0.11428221702E+03  0.58092887445E+03  0.71751918225E+03  0.00000000000E+00 0.  1.
         13    1    5    5    0    0 -0.93399249877E+02 -0.29460880730E+03 -0.49440494686E+03  0.58305576122E+03  0.00000000000E+00 0. -1.
        -13    1    5    5    0    0 -0.34187331946E+02 -0.90290513030E+02 -0.77253922731E+02  0.12364998579E+03  0.00000000000E+00 0.  1.
          1    1    6    6  503    0 -0.33754713164E+03  0.47314284364E+03 -0.98794315991E+03  0.11462259392E+04  0.00000000000E+00 0. -1.
         -1    1    6    6    0  503 -0.24044306196E+02  0.12751902844E+02 -0.22160320087E+02  0.35097285835E+02  0.00000000000E+00 0.  1.
<mgrwt>
<rscale>  0 0.25968223E+04</rscale>
<asrwt>0</asrwt>
<pdfrwt beam="1">  1        2 0.27962821E+00 0.25968223E+04</pdfrwt>
<pdfrwt beam="2">  1       -1 0.14269763E+00 0.25968223E+04</pdfrwt>
<totfact> 0.33870316E+00</totfact>
</mgrwt>
</event>
<event>
12    7  0.1730932E-007  0.1129512E+04  0.7818608E-02  0.9176895E-01
         -1   -1    0    0    0  501 -0.00000000000E+00  0.00000000000E+00  0.68484024461E+03  0.68484024461E+03  0.00000000000E+00 0.  1.
          2   -1    0    0  501    0  0.00000000000E+00 -0.00000000000E+00 -0.46572815519E+03  0.46572815519E+03  0.00000000000E+00 0. -1.
         24    2    1    2    0    0  0.18478643107E+02  0.26044198329E+02  0.17426805080E+03  0.19693056836E+03  0.85979850587E+02 0.  0.
        254    2    1    2    0    0 -0.18478643107E+02 -0.26044198329E+02  0.44844038629E+02  0.95363783144E+03  0.95204745955E+03 0.  0.
         23    2    4    4    0    0  0.13408431602E+03 -0.20707189448E+03 -0.37792012711E+03  0.46070428057E+03  0.92560457944E+02 0.  0.
         23    2    4    4    0    0 -0.15256295913E+03  0.18102769615E+03  0.42276416574E+03  0.49293355088E+03  0.90595046653E+02 0.  0.
          2    1    3    3  502    0  0.31754557453E+02  0.20643463156E+02  0.21619927288E+02  0.43611073663E+02  0.00000000000E+00 0. -1.
         -1    1    3    3    0  502 -0.13275914346E+02  0.54007351727E+01  0.15264812351E+03  0.15331949469E+03  0.00000000000E+00 0.  1.
         13    1    5    5    0    0  0.79457437567E+01 -0.90118056909E+02 -0.11160395794E+03  0.14366573166E+03  0.00000000000E+00 0. -1.
        -13    1    5    5    0    0  0.12613857226E+03 -0.11695383757E+03 -0.26631616917E+03  0.31703854891E+03  0.00000000000E+00 0.  1.
          4    1    6    6  503    0 -0.23612932305E+02  0.94354755764E+02  0.14348621962E+03  0.17334556738E+03  0.00000000000E+00 0. -1.
         -4    1    6    6    0  503 -0.12895002682E+03  0.86672940388E+02  0.27927794611E+03  0.31958798350E+03  0.00000000000E+00 0.  1.
<mgrwt>
<rscale>  0 0.11295121E+04</rscale>
<asrwt>0</asrwt>
<pdfrwt beam="1">  1        2 0.71650485E-01 0.11295121E+04</pdfrwt>
<pdfrwt beam="2">  1       -1 0.10536004E+00 0.11295121E+04</pdfrwt>
<totfact> 0.64055395E+01</totfact>
</mgrwt>
</event>
<event>
12    7  0.1730932E-007  0.1562415E+04  0.7818608E-02  0.8843976E-01
          2   -1    0    0  501    0  0.00000000000E+00  0.00000000000E+00  0.15038875369E+04  0.15038875369E+04  0.00000000000E+00 0. -1.
         -1   -1    0    0    0  501 -0.00000000000E+00 -0.00000000000E+00 -0.40580523516E+03  0.40580523516E+03  0.00000000000E+00 0.  1.
         24    2    1    2    0    0 -0.12504213134E+03  0.20850603893E+03 -0.19182785973E+03  0.32005847374E+03  0.80803440292E+02 0.  0.
        254    2    1    2    0    0  0.12504213134E+03 -0.20850603893E+03  0.12899101615E+04  0.15896342983E+04  0.89663742665E+03 0.  0.
         23    2    4    4    0    0 -0.35304984375E+03 -0.21556688578E+03  0.44374175719E+03  0.61330434056E+03  0.90123208183E+02 0.  0.
         23    2    4    4    0    0  0.47809197509E+03  0.70608468504E+01  0.84616840429E+03  0.97632995777E+03  0.92722304910E+02 0.  0.
          4    1    3    3  502    0  0.11403867474E+02  0.15322875669E+02 -0.89641111099E+01  0.21099620852E+02  0.00000000000E+00 0. -1.
         -3    1    3    3    0  502 -0.13644599881E+03  0.19318316326E+03 -0.18286374862E+03  0.29895885289E+03  0.00000000000E+00 0.  1.
         13    1    5    5    0    0 -0.34892479613E+01  0.75642645255E+01  0.56878892186E+01  0.10086874288E+02  0.00000000000E+00 0. -1.
        -13    1    5    5    0    0 -0.34956059579E+03 -0.22313115031E+03  0.43805386797E+03  0.60321746627E+03  0.00000000000E+00 0.  1.
          3    1    6    6  503    0  0.14670731850E+03 -0.13299306058E+02  0.18501610175E+03  0.23649707556E+03  0.00000000000E+00 0. -1.
         -3    1    6    6    0  503  0.33138465659E+03  0.20360152908E+02  0.66115230254E+03  0.73983288221E+03  0.00000000000E+00 0.  1.
<mgrwt>
<rscale>  0 0.15624154E+04</rscale>
<asrwt>0</asrwt>
<pdfrwt beam="1">  1        2 0.23136731E+00 0.15624154E+04</pdfrwt>
<pdfrwt beam="2">  1       -1 0.62431575E-01 0.15624154E+04</pdfrwt>
<totfact> 0.36014167E+01</totfact>
</mgrwt>
</event>
<event>
12    7  0.1730932E-007  0.6726826E+04  0.7818608E-02  0.7606283E-01
          2   -1    0    0  501    0  0.00000000000E+00  0.00000000000E+00  0.38068140731E+04  0.38068140731E+04  0.00000000000E+00 0. -1.
         -1   -1    0    0    0  501 -0.00000000000E+00 -0.00000000000E+00 -0.29716569160E+04  0.29716569160E+04  0.00000000000E+00 0.  1.
         24    2    1    2    0    0  0.40810314309E+03  0.27641945527E+04 -0.13634453806E+04  0.31108906147E+04  0.10647727599E+03 0.  0.
        254    2    1    2    0    0 -0.40810314309E+03 -0.27641945527E+04  0.21986025378E+04  0.36675803743E+04  0.89998499013E+03 0.  0.
         23    2    4    4    0    0  0.21923825764E+03 -0.10668005246E+04  0.57703287629E+03  0.12359840085E+04  0.92524354643E+02 0.  0.
         23    2    4    4    0    0 -0.62734140073E+03 -0.16973940282E+04  0.16215696615E+04  0.24315963658E+04  0.92027166113E+02 0.  0.
          4    1    3    3  502    0  0.21539894432E+02  0.40150328562E+03 -0.19614880133E+03  0.44737367790E+03  0.00000000000E+00 0. -1.
         -3    1    3    3    0  502  0.38656324866E+03  0.23626912671E+04 -0.11672965793E+04  0.26635169369E+04  0.00000000000E+00 0.  1.
         13    1    5    5    0    0  0.50098086904E+02 -0.46946717602E+03  0.25607285118E+03  0.53710571844E+03  0.00000000000E+00 0. -1.
        -13    1    5    5    0    0  0.16914017073E+03 -0.59733334854E+03  0.32096002511E+03  0.69887829009E+03  0.00000000000E+00 0.  1.
          1    1    6    6  503    0 -0.43717814191E+03 -0.10702300817E+04  0.10069341776E+04  0.15331123878E+04  0.00000000000E+00 0. -1.
         -1    1    6    6    0  503 -0.19016325882E+03 -0.62716394651E+03  0.61463548384E+03  0.89848397804E+03  0.00000000000E+00 0.  1.
<mgrwt>
<rscale>  0 0.67268255E+04</rscale>
<asrwt>0</asrwt>
<pdfrwt beam="1">  1        2 0.58566370E+00 0.67268255E+04</pdfrwt>
<pdfrwt beam="2">  1       -1 0.45717799E+00 0.67268255E+04</pdfrwt>
<totfact> 0.10170903E-03</totfact>
</mgrwt>
</event>
<event>
12    7  0.1730932E-007  0.1210158E+04  0.7818608E-02  0.9104011E-01
          2   -1    0    0  501    0  0.00000000000E+00  0.00000000000E+00  0.34599449296E+03  0.34599449296E+03  0.00000000000E+00 0. -1.
         -1   -1    0    0    0  501 -0.00000000000E+00 -0.00000000000E+00 -0.10581689953E+04  0.10581689953E+04  0.00000000000E+00 0.  1.
         24    2    1    2    0    0  0.15898770350E+03 -0.16170038935E+03 -0.33164179031E+03  0.40923721313E+03  0.77876272104E+02 0.  0.
        254    2    1    2    0    0 -0.15898770350E+03  0.16170038935E+03 -0.38053271199E+03  0.99492627509E+03  0.89086982337E+03 0.  0.
         23    2    4    4    0    0 -0.16454200608E+03 -0.30298055350E+03 -0.38011228043E+03  0.52125817933E+03  0.91397244077E+02 0.  0.
         23    2    4    4    0    0  0.55543025852E+01  0.46468094285E+03 -0.42043156457E+00  0.47366809576E+03  0.91662747330E+02 0.  0.
          2    1    3    3  502    0  0.16560504508E+03 -0.16367775700E+03 -0.32294073527E+03  0.39812831800E+03  0.00000000000E+00 0. -1.
         -1    1    3    3    0  502 -0.66173415867E+01  0.19773676451E+01 -0.87010550321E+01  0.11108895136E+02  0.00000000000E+00 0.  1.
         13    1    5    5    0    0 -0.13730024892E+03 -0.25845000886E+03 -0.26477049069E+03  0.39465323789E+03  0.00000000000E+00 0.  1.
        -13    1    5    5    0    0 -0.27241757164E+02 -0.44530544640E+02 -0.11534178974E+03  0.12660494145E+03  0.00000000000E+00 0. -1.
          4    1    6    6  503    0 -0.14504008463E+02  0.36427424415E+03  0.32769122631E+02  0.36603265784E+03  0.00000000000E+00 0.  1.
         -4    1    6    6    0  503  0.20058311048E+02  0.10040669871E+03 -0.33189554196E+02  0.10763543791E+03  0.00000000000E+00 0. -1.
<mgrwt>
<rscale>  0 0.12101581E+04</rscale>
<asrwt>0</asrwt>
<pdfrwt beam="1">  1        2 0.53229923E-01 0.12101581E+04</pdfrwt>
<pdfrwt beam="2">  1       -1 0.16279523E+00 0.12101581E+04</pdfrwt>
<totfact> 0.29426422E+01</totfact>
</mgrwt>
</event>
<event>
12    7  0.1730932E-007  0.2155242E+04  0.7818608E-02  0.8537292E-01
          2   -1    0    0  501    0  0.00000000000E+00  0.00000000000E+00  0.72617556324E+03  0.72617556324E+03  0.00000000000E+00 0. -1.
         -1   -1    0    0    0  501 -0.00000000000E+00 -0.00000000000E+00 -0.15991552738E+04  0.15991552738E+04  0.00000000000E+00 0.  1.
         24    2    1    2    0    0 -0.66266650546E+03 -0.58494928334E+02 -0.99251381271E+03  0.11975411083E+04  0.80451746805E+02 0.  0.
        254    2    1    2    0    0  0.66266650546E+03  0.58494928334E+02  0.11953410212E+03  0.11277897288E+04  0.90281377737E+03 0.  0.
         23    2    4    4    0    0  0.44706309330E+02 -0.97907319692E+02 -0.31902478498E+03  0.34857667729E+03  0.90246269607E+02 0.  0.
         23    2    4    4    0    0  0.61796019613E+03  0.15640224803E+03  0.43855888710E+03  0.77921305146E+03  0.92209624901E+02 0.  0.
          4    1    3    3  502    0 -0.15890248094E+03 -0.34741394322E+02 -0.29397198474E+03  0.33597096711E+03  0.00000000000E+00 0. -1.
         -3    1    3    3    0  502 -0.50376402452E+03 -0.23753534012E+02 -0.69854182797E+03  0.86157014119E+03  0.00000000000E+00 0.  1.
         13    1    5    5    0    0  0.48560011585E+02 -0.10730050410E+03 -0.31706914590E+03  0.33823707099E+03  0.00000000000E+00 0. -1.
        -13    1    5    5    0    0 -0.38537022555E+01  0.93931844076E+01 -0.19556390765E+01  0.10339606307E+02  0.00000000000E+00 0.  1.
          1    1    6    6  503    0  0.49212067343E+03  0.10657496610E+03  0.38417890004E+03  0.63335172523E+03  0.00000000000E+00 0. -1.
         -1    1    6    6    0  503  0.12583952270E+03  0.49827281928E+02  0.54379987067E+02  0.14586132624E+03  0.00000000000E+00 0.  1.
<mgrwt>
<rscale>  0 0.21552424E+04</rscale>
<asrwt>0</asrwt>
<pdfrwt beam="1">  1        2 0.11171932E+00 0.21552424E+04</pdfrwt>
<pdfrwt beam="2">  1       -1 0.24602389E+00 0.21552424E+04</pdfrwt>
<totfact> 0.30299125E+00</totfact>
</mgrwt>
</event>
<event>
12    7  0.1730932E-007  0.1472508E+04  0.7818608E-02  0.8902943E-01
          2   -1    0    0  501    0  0.00000000000E+00  0.00000000000E+00  0.93949131151E+03  0.93949131151E+03  0.00000000000E+00 0. -1.
         -3   -1    0    0    0  501 -0.00000000000E+00 -0.00000000000E+00 -0.57698247749E+03  0.57698247749E+03  0.00000000000E+00 0.  1.
         24    2    1    2    0    0 -0.39653740974E+03 -0.77670312271E+02  0.46503332939E+03  0.62148101674E+03  0.81902759354E+02 0.  0.
        254    2    1    2    0    0  0.39653740974E+03  0.77670312271E+02 -0.10252449537E+03  0.89499277225E+03  0.79197613316E+03 0.  0.
         23    2    4    4    0    0 -0.15823431023E+03  0.26062632893E+02  0.18472300611E+03  0.26123392761E+03  0.91669068839E+02 0.  0.
         23    2    4    4    0    0  0.55477171997E+03  0.51607679379E+02 -0.28724750148E+03  0.63375884464E+03  0.93295938848E+02 0.  0.
          4    1    3    3  502    0 -0.26800122336E+03 -0.30111687668E+02  0.35442298818E+03  0.44536167775E+03  0.00000000000E+00 0. -1.
         -1    1    3    3    0  502 -0.12853618638E+03 -0.47558624604E+02  0.11061034121E+03  0.17611933899E+03  0.00000000000E+00 0.  1.
         13    1    5    5    0    0 -0.13818322018E+03 -0.44800929576E+01  0.17574809137E+03  0.22361141561E+03  0.00000000000E+00 0.  1.
        -13    1    5    5    0    0 -0.20051090043E+02  0.30542725850E+02  0.89749147422E+01  0.37622511996E+02  0.00000000000E+00 0. -1.
          4    1    6    6  503    0  0.32964200752E+03 -0.35060444165E+01 -0.20297065187E+03  0.38713464194E+03  0.00000000000E+00 0. -1.
         -4    1    6    6    0  503  0.22512971245E+03  0.55113723795E+02 -0.84276849614E+02  0.24662420271E+03  0.00000000000E+00 0.  1.
<mgrwt>
<rscale>  0 0.14725081E+04</rscale>
<asrwt>0</asrwt>
<pdfrwt beam="1">  1        2 0.14453713E+00 0.14725081E+04</pdfrwt>
<pdfrwt beam="2">  1       -3 0.88766535E-01 0.14725081E+04</pdfrwt>
<totfact> 0.19486427E+01</totfact>
</mgrwt>
</event>
<event>
12    7  0.1730932E-007  0.1263539E+04  0.7818608E-02  0.9058989E-01
          2   -1    0    0  501    0  0.00000000000E+00  0.00000000000E+00  0.11462017495E+04  0.11462017495E+04  0.00000000000E+00 0. -1.
         -1   -1    0    0    0  501 -0.00000000000E+00 -0.00000000000E+00 -0.34822217283E+03  0.34822217283E+03  0.00000000000E+00 0.  1.
         24    2    1    2    0    0 -0.26377804320E+03 -0.13141627240E+03  0.17937765143E+03  0.35433655304E+03  0.80801969429E+02 0.  0.
        254    2    1    2    0    0  0.26377804320E+03  0.13141627240E+03  0.61860192525E+03  0.11400873693E+04  0.91119798891E+03 0.  0.
         23    2    4    4    0    0  0.53890986855E+03  0.27899189666E+03  0.50522326239E+03  0.79492477500E+03  0.91621658103E+02 0.  0.
         23    2    4    4    0    0 -0.27513182535E+03 -0.14757562427E+03  0.11337866286E+03  0.34516259430E+03  0.93842469691E+02 0.  0.
          4    1    3    3  502    0 -0.53137548191E+02 -0.41337552644E+02  0.71021254691E+01  0.67696620836E+02  0.00000000000E+00 0. -1.
         -3    1    3    3    0  502 -0.21064049501E+03 -0.90078719753E+02  0.17227552596E+03  0.28663993221E+03  0.00000000000E+00 0.  1.
         13    1    5    5    0    0  0.12263777227E+03  0.99463397494E+02  0.10018332260E+03  0.18700184158E+03  0.00000000000E+00 0.  1.
        -13    1    5    5    0    0  0.41627209628E+03  0.17952849917E+03  0.40503993979E+03  0.60792293342E+03  0.00000000000E+00 0. -1.
          1    1    6    6  503    0 -0.27389053817E+03 -0.14047337975E+03  0.90004526239E+02  0.32070174939E+03  0.00000000000E+00 0. -1.
         -1    1    6    6    0  503 -0.12412871725E+01 -0.71022445207E+01  0.23374136620E+02  0.24460844912E+02  0.00000000000E+00 0.  1.
<mgrwt>
<rscale>  0 0.12635393E+04</rscale>
<asrwt>0</asrwt>
<pdfrwt beam="1">  1        2 0.17633873E+00 0.12635393E+04</pdfrwt>
<pdfrwt beam="2">  1       -1 0.53572642E-01 0.12635393E+04</pdfrwt>
<totfact> 0.80385826E+01</totfact>
</mgrwt>
</event>
<event>
12    7  0.1730932E-007  0.2317272E+04  0.7818608E-02  0.8471142E-01
         -1   -1    0    0    0  501 -0.00000000000E+00  0.00000000000E+00  0.87328868745E+03  0.87328868745E+03  0.00000000000E+00 0.  1.
          2   -1    0    0  501    0  0.00000000000E+00 -0.00000000000E+00 -0.15372208931E+04  0.15372208931E+04  0.00000000000E+00 0. -1.
         24    2    1    2    0    0  0.35176973156E+03  0.53136628274E+03  0.49054713927E+03  0.80806708663E+03  0.79018037006E+02 0.  0.
        254    2    1    2    0    0 -0.35176973156E+03 -0.53136628274E+03 -0.11544793449E+04  0.16024424939E+04  0.91044347327E+03 0.  0.
         23    2    4    4    0    0 -0.26867288229E+03 -0.67422649882E+03 -0.41900910664E+03  0.84316607538E+03  0.92703343164E+02 0.  0.
         23    2    4    4    0    0 -0.83096849271E+02  0.14286021608E+03 -0.73547023831E+03  0.75927641856E+03  0.90939983825E+02 0.  0.
          2    1    3    3  502    0  0.84847806775E+01  0.49811188142E+02  0.44416467410E+02  0.67275318984E+02  0.00000000000E+00 0. -1.
         -1    1    3    3    0  502  0.34328495089E+03  0.48155509460E+03  0.44613067186E+03  0.74079176765E+03  0.00000000000E+00 0.  1.
         13    1    5    5    0    0 -0.79701587517E+02 -0.12031488221E+03 -0.58111128644E+02  0.15557929556E+03  0.00000000000E+00 0. -1.
        -13    1    5    5    0    0 -0.18897129478E+03 -0.55391161661E+03 -0.36089797800E+03  0.68758677983E+03  0.00000000000E+00 0.  1.
          3    1    6    6  503    0 -0.36293110997E+02  0.84994103949E+02 -0.57509349624E+03  0.58247207403E+03  0.00000000000E+00 0. -1.
         -3    1    6    6    0  503 -0.46803738273E+02  0.57866112129E+02 -0.16037674207E+03  0.17680434453E+03  0.00000000000E+00 0.  1.
<mgrwt>
<rscale>  0 0.23172722E+04</rscale>
<asrwt>0</asrwt>
<pdfrwt beam="1">  1        2 0.23649552E+00 0.23172722E+04</pdfrwt>
<pdfrwt beam="2">  1       -1 0.13435211E+00 0.23172722E+04</pdfrwt>
<totfact> 0.58167775E+00</totfact>
</mgrwt>
</event>
<event>
12    7  0.1730932E-007  0.1402456E+04  0.7818608E-02  0.8952043E-01
          2   -1    0    0  501    0  0.00000000000E+00  0.00000000000E+00  0.99135370396E+03  0.99135370396E+03  0.00000000000E+00 0. -1.
         -1   -1    0    0    0  501 -0.00000000000E+00 -0.00000000000E+00 -0.49600940643E+03  0.49600940643E+03  0.00000000000E+00 0.  1.
         24    2    1    2    0    0  0.24146212721E+03 -0.26169209627E+03 -0.50556606619E+02  0.36772359689E+03  0.76667862296E+02 0.  0.
        254    2    1    2    0    0 -0.24146212721E+03  0.26169209627E+03  0.54590090415E+03  0.11196395135E+04  0.91038350760E+03 0.  0.
         23    2    4    4    0    0 -0.51144126108E+03  0.22682423238E+02  0.53937828266E+03  0.74935581010E+03  0.92295950398E+02 0.  0.
         23    2    4    4    0    0  0.26997913387E+03  0.23900967303E+03  0.65226214866E+01  0.37028370340E+03  0.83982854731E+02 0.  0.
          2    1    3    3  502    0 -0.16668735831E+01 -0.11442586335E+02  0.78293145169E+01  0.13964577165E+02  0.00000000000E+00 0. -1.
         -1    1    3    3    0  502  0.24312900079E+03 -0.25024950993E+03 -0.58385921136E+02  0.35375901972E+03  0.00000000000E+00 0.  1.
         13    1    5    5    0    0 -0.34679924909E+03  0.44538784565E+01  0.30193614784E+03  0.45984235730E+03  0.00000000000E+00 0. -1.
        -13    1    5    5    0    0 -0.16464201199E+03  0.18228544781E+02  0.23744213482E+03  0.28951345279E+03  0.00000000000E+00 0.  1.
          2    1    6    6  503    0  0.26682935412E+03  0.21906636179E+03  0.20312883408E+02  0.34583317990E+03  0.00000000000E+00 0. -1.
         -2    1    6    6    0  503  0.31497797484E+01  0.19943311240E+02 -0.13790261921E+02  0.24450523502E+02  0.00000000000E+00 0.  1.
<mgrwt>
<rscale>  0 0.14024561E+04</rscale>
<asrwt>0</asrwt>
<pdfrwt beam="1">  1        2 0.15251595E+00 0.14024561E+04</pdfrwt>
<pdfrwt beam="2">  1       -1 0.76309139E-01 0.14024561E+04</pdfrwt>
<totfact> 0.48850518E+01</totfact>
</mgrwt>
</event>
<event>
12    7  0.1730932E-007  0.1649299E+04  0.7818608E-02  0.8790821E-01
          2   -1    0    0  501    0  0.00000000000E+00  0.00000000000E+00  0.20125502008E+04  0.20125502008E+04  0.00000000000E+00 0. -1.
         -1   -1    0    0    0  501 -0.00000000000E+00 -0.00000000000E+00 -0.33790299377E+03  0.33790299377E+03  0.00000000000E+00 0.  1.
         24    2    1    2    0    0  0.43213476451E+03  0.97211127871E+02  0.11046159376E+04  0.11928529596E+04  0.80816803188E+02 0.  0.
        254    2    1    2    0    0 -0.43213476451E+03 -0.97211127871E+02  0.57003126945E+03  0.11576002349E+04  0.90493767614E+03 0.  0.
         23    2    4    4    0    0 -0.34564958974E+03 -0.26036491992E+03  0.75979382745E+03  0.87830266011E+03  0.82857541103E+02 0.  0.
         23    2    4    4    0    0 -0.86485174774E+02  0.16315379205E+03 -0.18976255800E+03  0.27929757483E+03  0.88873289407E+02 0.  0.
          2    1    3    3  502    0  0.21421436835E+03  0.87021525100E+02  0.53119578884E+03  0.57933540158E+03  0.00000000000E+00 0. -1.
         -1    1    3    3    0  502  0.21792039616E+03  0.10189602772E+02  0.57342014872E+03  0.61351755804E+03  0.00000000000E+00 0.  1.
         13    1    5    5    0    0 -0.34196254353E+03 -0.23846755401E+03  0.70298907430E+03  0.81731193193E+03  0.00000000000E+00 0.  1.
        -13    1    5    5    0    0 -0.36870462082E+01 -0.21897365913E+02  0.56804753144E+02  0.60990728176E+02  0.00000000000E+00 0. -1.
          4    1    6    6  503    0 -0.99827209855E+02  0.15244294270E+03 -0.15002611912E+03  0.23603423274E+03  0.00000000000E+00 0.  1.
         -4    1    6    6    0  503  0.13342035080E+02  0.10710849350E+02 -0.39736438879E+02  0.43263342089E+02  0.00000000000E+00 0. -1.
<mgrwt>
<rscale>  0 0.16492989E+04</rscale>
<asrwt>0</asrwt>
<pdfrwt beam="1">  1        2 0.30962310E+00 0.16492989E+04</pdfrwt>
<pdfrwt beam="2">  1       -1 0.51985077E-01 0.16492989E+04</pdfrwt>
<totfact> 0.26657085E+01</totfact>
</mgrwt>
</event>
<event>
12    7  0.1730932E-007  0.2226177E+04  0.7818608E-02  0.8507611E-01
          2   -1    0    0  501    0  0.00000000000E+00  0.00000000000E+00  0.23367060592E+04  0.23367060592E+04  0.00000000000E+00 0. -1.
         -1   -1    0    0    0  501 -0.00000000000E+00 -0.00000000000E+00 -0.53021916576E+03  0.53021916576E+03  0.00000000000E+00 0.  1.
         24    2    1    2    0    0 -0.32981750589E+03 -0.83886846580E+03  0.10362569919E+04  0.13757573354E+04  0.79998765868E+02 0.  0.
        254    2    1    2    0    0  0.32981750589E+03  0.83886846580E+03  0.77022990152E+03  0.14911678895E+04  0.90434931495E+03 0.  0.
         23    2    4    4    0    0 -0.12905424588E+03  0.34127907383E+03 -0.95754343448E+02  0.38821047850E+03  0.91717374130E+02 0.  0.
         23    2    4    4    0    0  0.45887175178E+03  0.49758939197E+03  0.86598424496E+03  0.11029574110E+04  0.91803324643E+02 0.  0.
          4    1    3    3  502    0 -0.17187011902E+03 -0.37579796691E+03  0.42463761738E+03  0.59252051090E+03  0.00000000000E+00 0. -1.
         -1    1    3    3    0  502 -0.15794738687E+03 -0.46307049890E+03  0.61161937451E+03  0.78323682449E+03  0.00000000000E+00 0.  1.
         13    1    5    5    0    0 -0.60739147090E+02  0.16067906979E+03  0.19980118553E+01  0.17178765820E+03  0.00000000000E+00 0. -1.
        -13    1    5    5    0    0 -0.68315098794E+02  0.18060000404E+03 -0.97752355303E+02  0.21642282031E+03  0.00000000000E+00 0.  1.
          3    1    6    6  503    0  0.22248035687E+03  0.21192873270E+03  0.32657329092E+03  0.44839871909E+03  0.00000000000E+00 0. -1.
         -3    1    6    6    0  503  0.23639139491E+03  0.28566065928E+03  0.53941095404E+03  0.65455869193E+03  0.00000000000E+00 0.  1.
<mgrwt>
<rscale>  0 0.22261773E+04</rscale>
<asrwt>0</asrwt>
<pdfrwt beam="1">  1        2 0.35949323E+00 0.22261773E+04</pdfrwt>
<pdfrwt beam="2">  1       -1 0.81572181E-01 0.22261773E+04</pdfrwt>
<totfact> 0.67099248E+00</totfact>
</mgrwt>
</event>
<event>
12    7  0.1730932E-007  0.2031068E+04  0.7818608E-02  0.8592232E-01
          2   -1    0    0  501    0  0.00000000000E+00  0.00000000000E+00  0.30911786875E+04  0.30911786875E+04  0.00000000000E+00 0. -1.
         -1   -1    0    0    0  501 -0.00000000000E+00 -0.00000000000E+00 -0.33362978609E+03  0.33362978609E+03  0.00000000000E+00 0.  1.
         24    2    1    2    0    0  0.44211177503E+03 -0.21229092835E+03 -0.88280214085E+01  0.49426283809E+03  0.60725277100E+02 0.  0.
        254    2    1    2    0    0 -0.44211177503E+03  0.21229092835E+03  0.27663769228E+04  0.29305456355E+04  0.83350235922E+03 0.  0.
         23    2    4    4    0    0  0.19861695106E+03 -0.23580352197E+02  0.11899207219E+04  0.12100538719E+04  0.91182906478E+02 0.  0.
         23    2    4    4    0    0 -0.64072872608E+03  0.23587128054E+03  0.15764562010E+04  0.17204917636E+04  0.93323060154E+02 0.  0.
          4    1    3    3  502    0  0.18223088711E+03 -0.10961356554E+03  0.18714701575E+02  0.21347943701E+03  0.00000000000E+00 0. -1.
         -3    1    3    3    0  502  0.25988088791E+03 -0.10267736280E+03 -0.27542722983E+02  0.28078340108E+03  0.00000000000E+00 0.  1.
         13    1    5    5    0    0  0.91781949887E+02 -0.10168124673E+02  0.30687331279E+03  0.32046614046E+03  0.00000000000E+00 0.  1.
        -13    1    5    5    0    0  0.10683500117E+03 -0.13412227524E+02  0.88304740907E+03  0.88958773147E+03  0.00000000000E+00 0. -1.
          3    1    6    6  503    0 -0.44184018896E+03  0.14072625878E+03  0.96836091577E+03  0.10736617231E+04  0.00000000000E+00 0. -1.
         -3    1    6    6    0  503 -0.19888853712E+03  0.95145021761E+02  0.60809528522E+03  0.64683004048E+03  0.00000000000E+00 0.  1.
<mgrwt>
<rscale>  0 0.20310680E+04</rscale>
<asrwt>0</asrwt>
<pdfrwt beam="1">  1        2 0.47556593E+00 0.20310680E+04</pdfrwt>
<pdfrwt beam="2">  1       -1 0.51327661E-01 0.20310680E+04</pdfrwt>
<totfact> 0.61552632E+00</totfact>
</mgrwt>
</event>
<event>
12    7  0.1730932E-007  0.1401942E+04  0.7818608E-02  0.8952414E-01
         -1   -1    0    0    0  501 -0.00000000000E+00  0.00000000000E+00  0.88110423566E+03  0.88110423566E+03  0.00000000000E+00 0.  1.
          2   -1    0    0  501    0  0.00000000000E+00 -0.00000000000E+00 -0.55766431584E+03  0.55766431584E+03  0.00000000000E+00 0. -1.
         24    2    1    2    0    0 -0.17044362426E+02 -0.32412580175E+03 -0.15641689163E+03  0.36910048569E+03  0.80130386846E+02 0.  0.
        254    2    1    2    0    0  0.17044362426E+02  0.32412580175E+03  0.47985681145E+03  0.10696680658E+04  0.89921030125E+03 0.  0.
         23    2    4    4    0    0 -0.57900125260E+02  0.46080450218E+03  0.66123986261E+03  0.81282361920E+03  0.88039004385E+02 0.  0.
         23    2    4    4    0    0  0.74944487685E+02 -0.13667870043E+03 -0.18138305115E+03  0.25684444661E+03  0.93656367244E+02 0.  0.
          2    1    3    3  502    0 -0.14908579410E+02 -0.23440792628E+03 -0.15092116481E+03  0.27918907506E+03  0.00000000000E+00 0. -1.
         -1    1    3    3    0  502 -0.21357830160E+01 -0.89717875470E+02 -0.54957268154E+01  0.89911410629E+02  0.00000000000E+00 0.  1.
         13    1    5    5    0    0 -0.25550720958E+02  0.41906998094E+03  0.58371974589E+03  0.71902797582E+03  0.00000000000E+00 0.  1.
        -13    1    5    5    0    0 -0.32349404301E+02  0.41734521249E+02  0.77520116713E+02  0.93795643383E+02  0.00000000000E+00 0. -1.
          3    1    6    6  503    0 -0.11685683641E+02 -0.61233133270E+01  0.43115504890E+01  0.13879468141E+02  0.00000000000E+00 0. -1.
         -3    1    6    6    0  503  0.86630171326E+02 -0.13055538710E+03 -0.18569460164E+03  0.24296497847E+03  0.00000000000E+00 0.  1.
<mgrwt>
<rscale>  0 0.14019421E+04</rscale>
<asrwt>0</asrwt>
<pdfrwt beam="1">  1        2 0.85794510E-01 0.14019421E+04</pdfrwt>
<pdfrwt beam="2">  1       -1 0.13555450E+00 0.14019421E+04</pdfrwt>
<totfact> 0.27463349E+01</totfact>
</mgrwt>
</event>
<event>
12    7  0.1730932E-007  0.1667423E+04  0.7818608E-02  0.8780166E-01
         -1   -1    0    0    0  501 -0.00000000000E+00  0.00000000000E+00  0.55746346783E+03  0.55746346783E+03  0.00000000000E+00 0.  1.
          2   -1    0    0  501    0  0.00000000000E+00 -0.00000000000E+00 -0.12468525312E+04  0.12468525312E+04  0.00000000000E+00 0. -1.
         24    2    1    2    0    0  0.47480725512E+03 -0.25295020359E+03 -0.49796904199E+03  0.73753102169E+03  0.80951258030E+02 0.  0.
        254    2    1    2    0    0 -0.47480725512E+03  0.25295020359E+03 -0.19142002138E+03  0.10667849773E+04  0.90108980033E+03 0.  0.
         23    2    4    4    0    0 -0.25945572971E+03 -0.27917673701E+03 -0.27564870247E+03  0.47921245328E+03  0.91681197876E+02 0.  0.
         23    2    4    4    0    0 -0.21535152541E+03  0.53212694060E+03  0.84228681089E+02  0.58757252404E+03  0.92798921810E+02 0.  0.
          2    1    3    3  502    0  0.37118389567E+03 -0.20677948916E+03 -0.43368625430E+03  0.60714002397E+03  0.00000000000E+00 0. -1.
         -1    1    3    3    0  502  0.10362335945E+03 -0.46170714430E+02 -0.64282787690E+02  0.13039099772E+03  0.00000000000E+00 0.  1.
         13    1    5    5    0    0 -0.23367895637E+03 -0.20136663015E+03 -0.23456447444E+03  0.38752402126E+03  0.00000000000E+00 0. -1.
        -13    1    5    5    0    0 -0.25776773336E+02 -0.77810106860E+02 -0.41084228031E+02  0.91688432019E+02  0.00000000000E+00 0.  1.
          2    1    6    6  503    0 -0.11646636352E+03  0.28976985761E+03  0.92428255996E+02  0.32568998560E+03  0.00000000000E+00 0. -1.
         -2    1    6    6    0  503 -0.98885161893E+02  0.24235708299E+03 -0.81995749073E+01  0.26188253845E+03  0.00000000000E+00 0.  1.
<mgrwt>
<rscale>  0 0.16674228E+04</rscale>
<asrwt>0</asrwt>
<pdfrwt beam="1">  1        2 0.19182347E+00 0.16674228E+04</pdfrwt>
<pdfrwt beam="2">  1       -1 0.85763610E-01 0.16674228E+04</pdfrwt>
<totfact> 0.25944803E+01</totfact>
</mgrwt>
</event>
<event>
12    7  0.1730932E-007  0.2304168E+04  0.7818608E-02  0.8476279E-01
         -1   -1    0    0    0  501 -0.00000000000E+00  0.00000000000E+00  0.69647984963E+03  0.69647984963E+03  0.00000000000E+00 0.  1.
          2   -1    0    0  501    0  0.00000000000E+00 -0.00000000000E+00 -0.19057234542E+04  0.19057234542E+04  0.00000000000E+00 0. -1.
         24    2    1    2    0    0  0.38093682223E+03  0.85606594569E+03 -0.22736528142E+03  0.96753912762E+03  0.80468791405E+02 0.  0.
        254    2    1    2    0    0 -0.38093682223E+03 -0.85606594569E+03 -0.98187832313E+03  0.16346641762E+04  0.91108735123E+03 0.  0.
         23    2    4    4    0    0 -0.23626332151E+03 -0.96454185963E+03 -0.10225124613E+04  0.14279748797E+04  0.86134589870E+02 0.  0.
         23    2    4    4    0    0 -0.14467350072E+03  0.10847591394E+03  0.40634138170E+02  0.20668929645E+03  0.91498012921E+02 0.  0.
          2    1    3    3  502    0 -0.18163429186E+01  0.17349360771E+01  0.25368937954E+01  0.35700048906E+01  0.00000000000E+00 0. -1.
         -1    1    3    3    0  502  0.38275316515E+03  0.85433100961E+03 -0.22990217522E+03  0.96396912273E+03  0.00000000000E+00 0.  1.
         13    1    5    5    0    0 -0.19179823577E+03 -0.64302375380E+03 -0.72141340063E+03  0.98524281565E+03  0.00000000000E+00 0.  1.
        -13    1    5    5    0    0 -0.44465085736E+02 -0.32151810583E+03 -0.30109906067E+03  0.44273206408E+03  0.00000000000E+00 0. -1.
          1    1    6    6  503    0 -0.89909911284E+00  0.23591185664E+02 -0.18045617133E+02  0.29715260691E+02  0.00000000000E+00 0. -1.
         -1    1    6    6    0  503 -0.14377440161E+03  0.84884728273E+02  0.58679755303E+02  0.17697403576E+03  0.00000000000E+00 0.  1.
<mgrwt>
<rscale>  0 0.23041684E+04</rscale>
<asrwt>0</asrwt>
<pdfrwt beam="1">  1        2 0.29318822E+00 0.23041684E+04</pdfrwt>
<pdfrwt beam="2">  1       -1 0.10715075E+00 0.23041684E+04</pdfrwt>
<totfact> 0.63132979E+00</totfact>
</mgrwt>
</event>
<event>
12    7  0.1730932E-007  0.1674260E+04  0.7818608E-02  0.8776182E-01
         -1   -1    0    0    0  501 -0.00000000000E+00  0.00000000000E+00  0.14453376952E+04  0.14453376952E+04  0.00000000000E+00 0.  1.
          2   -1    0    0  501    0  0.00000000000E+00 -0.00000000000E+00 -0.48486029378E+03  0.48486029378E+03  0.00000000000E+00 0. -1.
         24    2    1    2    0    0 -0.71812954874E+02  0.15571402048E+03  0.10011659986E+04  0.10186614939E+04  0.77031978849E+02 0.  0.
        254    2    1    2    0    0  0.71812954874E+02 -0.15571402048E+03 -0.40688597217E+02  0.91153649504E+03  0.89433733187E+03 0.  0.
         23    2    4    4    0    0 -0.16402495791E+03 -0.45864744323E+03  0.72296841736E+02  0.50101752263E+03  0.92358327504E+02 0.  0.
         23    2    4    4    0    0  0.23583791278E+03  0.30293342275E+03 -0.11298543895E+03  0.41051897241E+03  0.91498292717E+02 0.  0.
          4    1    3    3  502    0 -0.39149331121E+02  0.12609349347E+02  0.23073133797E+03  0.23436854767E+03  0.00000000000E+00 0. -1.
         -3    1    3    3    0  502 -0.32663623752E+02  0.14310467113E+03  0.77043466066E+03  0.78429294626E+03  0.00000000000E+00 0.  1.
         13    1    5    5    0    0 -0.29577636697E+02 -0.21898514590E+03  0.32927605215E+02  0.22341342373E+03  0.00000000000E+00 0. -1.
        -13    1    5    5    0    0 -0.13444732121E+03 -0.23966229733E+03  0.39369236521E+02  0.27760409890E+03  0.00000000000E+00 0.  1.
          1    1    6    6  503    0  0.16563439352E+02  0.78603896311E+02 -0.13728750116E+02  0.81494776631E+02  0.00000000000E+00 0. -1.
         -1    1    6    6    0  503  0.21927447343E+03  0.22432952644E+03 -0.99256688837E+02  0.32902419578E+03  0.00000000000E+00 0.  1.
<mgrwt>
<rscale>  0 0.16742603E+04</rscale>
<asrwt>0</asrwt>
<pdfrwt beam="1">  1        2 0.74593892E-01 0.16742603E+04</pdfrwt>
<pdfrwt beam="2">  1       -1 0.22235964E+00 0.16742603E+04</pdfrwt>
<totfact> 0.73805771E+00</totfact>
</mgrwt>
</event>
<event>
12    7  0.1762250E-007  0.2081124E+04  0.7818608E-02  0.8569604E-01
          2   -1    0    0  501    0  0.00000000000E+00  0.00000000000E+00  0.19008855011E+04  0.19008855011E+04  0.00000000000E+00 0. -1.
         -1   -1    0    0    0  501 -0.00000000000E+00 -0.00000000000E+00 -0.56961293472E+03  0.56961293472E+03  0.00000000000E+00 0.  1.
         24    2    1    2    0    0 -0.50837477025E+03  0.43494567905E+03 -0.65344927604E+02  0.67703325613E+03  0.80507264200E+02 0.  0.
        254    2    1    2    0    0  0.50837477025E+03 -0.43494567905E+03  0.13966174940E+04  0.17934651797E+04  0.90462935807E+03 0.  0.
         23    2    4    4    0    0 -0.44941372940E+02 -0.30494102359E+03  0.10993248547E+04  0.11453981322E+04  0.91722354825E+02 0.  0.
         23    2    4    4    0    0  0.55331614319E+03 -0.13000465546E+03  0.29729263932E+03  0.64806704744E+03  0.92455501950E+02 0.  0.
          4    1    3    3  502    0 -0.41968107320E+02  0.18977213251E+02 -0.20675419393E+02  0.50486925257E+02  0.00000000000E+00 0. -1.
         -3    1    3    3    0  502 -0.46640666293E+03  0.41596846580E+03 -0.44669508211E+02  0.62654633087E+03  0.00000000000E+00 0.  1.
         13    1    5    5    0    0 -0.70258394311E+02 -0.25170501064E+03  0.93437856177E+03  0.97023448251E+03  0.00000000000E+00 0.  1.
        -13    1    5    5    0    0  0.25317021371E+02 -0.53236012956E+02  0.16494629289E+03  0.17516364972E+03  0.00000000000E+00 0. -1.
          4    1    6    6  503    0  0.14373064419E+03 -0.19935615791E+02  0.34563647876E+02  0.14916625828E+03  0.00000000000E+00 0. -1.
         -4    1    6    6    0  503  0.40958549900E+03 -0.11006903967E+03  0.26272899144E+03  0.49890078916E+03  0.00000000000E+00 0.  1.
<mgrwt>
<rscale>  0 0.20811237E+04</rscale>
<asrwt>0</asrwt>
<pdfrwt beam="1">  1        2 0.29244392E+00 0.20811237E+04</pdfrwt>
<pdfrwt beam="2">  1       -1 0.87632760E-01 0.20811237E+04</pdfrwt>
<totfact> 0.10209100E+01</totfact>
</mgrwt>
</event>
<event>
12    7  0.1730932E-007  0.1298380E+04  0.7818608E-02  0.9030850E-01
         -1   -1    0    0    0  501 -0.00000000000E+00  0.00000000000E+00  0.29003352217E+03  0.29003352217E+03  0.00000000000E+00 0.  1.
          2   -1    0    0  501    0  0.00000000000E+00 -0.00000000000E+00 -0.14531007973E+04  0.14531007973E+04  0.00000000000E+00 0. -1.
         24    2    1    2    0    0  0.24656950371E+03  0.13820863158E+02 -0.31611194426E+01  0.25966944669E+03  0.80191598399E+02 0.  0.
        254    2    1    2    0    0 -0.24656950371E+03 -0.13820863158E+02 -0.11599061557E+04  0.14834648727E+04  0.89123408953E+03 0.  0.
         23    2    4    4    0    0 -0.38706771062E+03  0.25962833542E+03 -0.28856253372E+03  0.55511403882E+03  0.87492714415E+02 0.  0.
         23    2    4    4    0    0  0.14049820692E+03 -0.27344919858E+03 -0.87134362194E+03  0.92835083392E+03  0.89896345911E+02 0.  0.
          2    1    3    3  502    0  0.11343005778E+03  0.33546597070E+02 -0.30882038223E+02  0.12225159495E+03  0.00000000000E+00 0. -1.
         -1    1    3    3    0  502  0.13313944593E+03 -0.19725733912E+02  0.27720918780E+02  0.13741785175E+03  0.00000000000E+00 0.  1.
         13    1    5    5    0    0 -0.26255793649E+03  0.12767927902E+03 -0.19392862264E+03  0.35049533376E+03  0.00000000000E+00 0. -1.
        -13    1    5    5    0    0 -0.12450977413E+03  0.13194905639E+03 -0.94633911077E+02  0.20461870507E+03  0.00000000000E+00 0.  1.
          3    1    6    6  503    0  0.46802912003E+02 -0.54559382706E+02 -0.31679167118E+03  0.32484488874E+03  0.00000000000E+00 0. -1.
         -3    1    6    6    0  503  0.93695294914E+02 -0.21888981587E+03 -0.55455195076E+03  0.60350594518E+03  0.00000000000E+00 0.  1.
<mgrwt>
<rscale>  0 0.12983804E+04</rscale>
<asrwt>0</asrwt>
<pdfrwt beam="1">  1        2 0.22355397E+00 0.12983804E+04</pdfrwt>
<pdfrwt beam="2">  1       -1 0.44620542E-01 0.12983804E+04</pdfrwt>
<totfact> 0.74984416E+01</totfact>
</mgrwt>
</event>
<event>
12    7  0.1730932E-007  0.1529642E+04  0.7818608E-02  0.8864977E-01
         -1   -1    0    0    0  501 -0.00000000000E+00  0.00000000000E+00  0.52252286325E+03  0.52252286325E+03  0.00000000000E+00 0.  1.
          2   -1    0    0  501    0  0.00000000000E+00 -0.00000000000E+00 -0.11194744151E+04  0.11194744151E+04  0.00000000000E+00 0. -1.
         24    2    1    2    0    0  0.48474096730E+03  0.27738341297E+02 -0.21437579165E+03  0.53696265661E+03  0.81416789389E+02 0.  0.
        254    2    1    2    0    0 -0.48474096730E+03 -0.27738341297E+02 -0.38257576025E+03  0.11050346218E+04  0.91596620137E+03 0.  0.
         23    2    4    4    0    0 -0.27200914006E+02  0.16679075236E+03  0.23770509673E+03  0.30502833387E+03  0.89328196324E+02 0.  0.
         23    2    4    4    0    0 -0.45754005330E+03 -0.19452909366E+03 -0.62028085698E+03  0.80000628791E+03  0.89873525085E+02 0.  0.
          4    1    3    3  502    0  0.47422278922E+02 -0.16711205172E+02 -0.39264515088E+02  0.63795290277E+02  0.00000000000E+00 0. -1.
         -3    1    3    3    0  502  0.43731868838E+03  0.44449546469E+02 -0.17511127656E+03  0.47316736634E+03  0.00000000000E+00 0.  1.
         13    1    5    5    0    0  0.66105654800E+01  0.67544523493E+02  0.33962829640E+02  0.75890948255E+02  0.00000000000E+00 0.  1.
        -13    1    5    5    0    0 -0.33811479486E+02  0.99246228870E+02  0.20374226709E+03  0.22913738562E+03  0.00000000000E+00 0. -1.
          1    1    6    6  503    0 -0.36879625024E+03 -0.14571416799E+03 -0.43333166567E+03  0.58738371225E+03  0.00000000000E+00 0. -1.
         -1    1    6    6    0  503 -0.88743803056E+02 -0.48814925666E+02 -0.18694919132E+03  0.21262257566E+03  0.00000000000E+00 0.  1.
<mgrwt>
<rscale>  0 0.15296418E+04</rscale>
<asrwt>0</asrwt>
<pdfrwt beam="1">  1        2 0.17222683E+00 0.15296418E+04</pdfrwt>
<pdfrwt beam="2">  1       -1 0.80388135E-01 0.15296418E+04</pdfrwt>
<totfact> 0.35980154E+01</totfact>
</mgrwt>
</event>
<event>
12    7  0.1730932E-007  0.1480614E+04  0.7818608E-02  0.8897447E-01
          2   -1    0    0  501    0  0.00000000000E+00  0.00000000000E+00  0.11968826015E+04  0.11968826015E+04  0.00000000000E+00 0. -1.
         -1   -1    0    0    0  501 -0.00000000000E+00 -0.00000000000E+00 -0.45790177785E+03  0.45790177785E+03  0.00000000000E+00 0.  1.
         24    2    1    2    0    0  0.10889122552E+03  0.45229753706E+03  0.26096408184E+03  0.53920679281E+03  0.78812133428E+02 0.  0.
        254    2    1    2    0    0 -0.10889122552E+03 -0.45229753706E+03  0.47801674177E+03  0.11155775865E+04  0.89419404219E+03 0.  0.
         23    2    4    4    0    0  0.35150458646E+03 -0.52685919018E+02  0.66380686043E+02  0.37271980523E+03  0.90456494349E+02 0.  0.
         23    2    4    4    0    0 -0.46039581198E+03 -0.39961161804E+03  0.41163605573E+03  0.74285778128E+03  0.10363248462E+03 0.  0.
          4    1    3    3  502    0  0.11233001483E+03  0.45018172811E+03  0.26428941455E+03  0.53397613730E+03  0.00000000000E+00 0. -1.
         -3    1    3    3    0  502 -0.34387893152E+01  0.21158089440E+01 -0.33253327089E+01  0.52306555103E+01  0.00000000000E+00 0.  1.
         13    1    5    5    0    0  0.23216557001E+02 -0.16059007117E+02 -0.15766149074E+02  0.32333754579E+02  0.00000000000E+00 0. -1.
        -13    1    5    5    0    0  0.32828802946E+03 -0.36626911901E+02  0.82146835117E+02  0.34038605065E+03  0.00000000000E+00 0.  1.
          3    1    6    6  503    0 -0.22413865604E+03 -0.25037245280E+03  0.26029566876E+03  0.42506274528E+03  0.00000000000E+00 0. -1.
         -3    1    6    6    0  503 -0.23625715594E+03 -0.14923916524E+03  0.15134038696E+03  0.31779503599E+03  0.00000000000E+00 0.  1.
<mgrwt>
<rscale>  0 0.14806143E+04</rscale>
<asrwt>0</asrwt>
<pdfrwt beam="1">  1        2 0.18413578E+00 0.14806143E+04</pdfrwt>
<pdfrwt beam="2">  1       -1 0.70446428E-01 0.14806143E+04</pdfrwt>
<totfact> 0.42742056E+01</totfact>
</mgrwt>
</event>
<event>
12    7  0.1730932E-007  0.1741199E+04  0.7818608E-02  0.8738209E-01
          2   -1    0    0  501    0  0.00000000000E+00  0.00000000000E+00  0.14826036460E+04  0.14826036460E+04  0.00000000000E+00 0. -1.
         -1   -1    0    0    0  501 -0.00000000000E+00 -0.00000000000E+00 -0.51122490922E+03  0.51122490922E+03  0.00000000000E+00 0.  1.
         24    2    1    2    0    0 -0.28955182777E+03  0.25685574832E+03 -0.21807164356E+03  0.45152840401E+03  0.80669210257E+02 0.  0.
        254    2    1    2    0    0  0.28955182777E+03 -0.25685574832E+03  0.11894503803E+04  0.15423001512E+04  0.90226515657E+03 0.  0.
         23    2    4    4    0    0 -0.49965696211E+02  0.46359036135E+02  0.10518733191E+04  0.10580629233E+04  0.91727527056E+02 0.  0.
         23    2    4    4    0    0  0.33951752399E+03 -0.30321478446E+03  0.13757706121E+03  0.48423722788E+03  0.91361318322E+02 0.  0.
          4    1    3    3  502    0 -0.61252886091E+02  0.40310609359E+02 -0.78132261790E+02  0.10715181573E+03  0.00000000000E+00 0. -1.
         -3    1    3    3    0  502 -0.22829894168E+03  0.21654513897E+03 -0.13993938177E+03  0.34437658828E+03  0.00000000000E+00 0.  1.
         13    1    5    5    0    0  0.94938534367E+01 -0.13848627794E+02  0.52637304397E+02  0.55250371574E+02  0.00000000000E+00 0. -1.
        -13    1    5    5    0    0 -0.59459549648E+02  0.60207663929E+02  0.99923601474E+03  0.10028125518E+04  0.00000000000E+00 0.  1.
          3    1    6    6  503    0  0.54582706481E+02 -0.16693791286E+02  0.36345558010E+02  0.67667969538E+02  0.00000000000E+00 0. -1.
         -3    1    6    6    0  503  0.28493481750E+03 -0.28652099317E+03  0.10123150320E+03  0.41656925834E+03  0.00000000000E+00 0.  1.
<mgrwt>
<rscale>  0 0.17411995E+04</rscale>
<asrwt>0</asrwt>
<pdfrwt beam="1">  1        2 0.22809287E+00 0.17411995E+04</pdfrwt>
<pdfrwt beam="2">  1       -1 0.78649986E-01 0.17411995E+04</pdfrwt>
<totfact> 0.22699289E+01</totfact>
</mgrwt>
</event>
<event>
12    7  0.1730932E-007  0.1237164E+04  0.7818608E-02  0.9080934E-01
         -1   -1    0    0    0  501 -0.00000000000E+00  0.00000000000E+00  0.19747089266E+03  0.19747089266E+03  0.00000000000E+00 0.  1.
          2   -1    0    0  501    0  0.00000000000E+00 -0.00000000000E+00 -0.19377230945E+04  0.19377230945E+04  0.00000000000E+00 0. -1.
         24    2    1    2    0    0  0.25151238007E+03 -0.95892682970E+02 -0.26395689008E+03  0.38525322021E+03  0.79327926243E+02 0.  0.
        254    2    1    2    0    0 -0.25151238007E+03  0.95892682970E+02 -0.14762953117E+04  0.17499407669E+04  0.90021717175E+03 0.  0.
         23    2    4    4    0    0 -0.11967018494E+02 -0.36509011169E+03 -0.85759631942E+03  0.93680425736E+03  0.93256476097E+02 0.  0.
         23    2    4    4    0    0 -0.23954536158E+03  0.46098279466E+03 -0.61869899229E+03  0.81313650955E+03  0.92279048916E+02 0.  0.
          4    1    3    3  502    0  0.15379105080E+03 -0.22650388306E+02 -0.17558730662E+03  0.23451147017E+03  0.00000000000E+00 0. -1.
         -3    1    3    3    0  502  0.97721329276E+02 -0.73242294664E+02 -0.88369583461E+02  0.15074175004E+03  0.00000000000E+00 0.  1.
         13    1    5    5    0    0  0.35465591590E+01 -0.15983744342E+03 -0.49099752149E+03  0.51637113834E+03  0.00000000000E+00 0. -1.
        -13    1    5    5    0    0 -0.15513577653E+02 -0.20525266827E+03 -0.36659879793E+03  0.42043311902E+03  0.00000000000E+00 0.  1.
          3    1    6    6  503    0 -0.24581478772E+03  0.45345454490E+03 -0.61499906481E+03  0.80266417877E+03  0.00000000000E+00 0. -1.
         -3    1    6    6    0  503  0.62694261449E+01  0.75282497612E+01 -0.36999274804E+01  0.10472330782E+02  0.00000000000E+00 0.  1.
<mgrwt>
<rscale>  0 0.12371644E+04</rscale>
<asrwt>0</asrwt>
<pdfrwt beam="1">  1        2 0.29811124E+00 0.12371644E+04</pdfrwt>
<pdfrwt beam="2">  1       -1 0.30380138E-01 0.12371644E+04</pdfrwt>
<totfact> 0.81041865E+01</totfact>
</mgrwt>
</event>
<event>
12    7  0.1730932E-007  0.1240510E+04  0.7818608E-02  0.9078119E-01
         -1   -1    0    0    0  501 -0.00000000000E+00  0.00000000000E+00  0.10113285390E+04  0.10113285390E+04  0.00000000000E+00 0.  1.
          2   -1    0    0  501    0  0.00000000000E+00 -0.00000000000E+00 -0.38040688067E+03  0.38040688067E+03  0.00000000000E+00 0. -1.
         24    2    1    2    0    0 -0.88376571419E+02  0.77995426800E+02  0.42011929939E+03  0.44347682814E+03  0.79232357038E+02 0.  0.
        254    2    1    2    0    0  0.88376571419E+02 -0.77995426800E+02  0.21080235894E+03  0.94825859154E+03  0.91698583245E+03 0.  0.
         23    2    4    4    0    0  0.29218254800E+02  0.39531406503E+03 -0.27068589805E+02  0.40750178676E+03  0.90543256178E+02 0.  0.
         23    2    4    4    0    0  0.59158316620E+02 -0.47330949183E+03  0.23787094875E+03  0.54075680477E+03  0.91179779405E+02 0.  0.
          4    1    3    3  502    0  0.12761126930E+02  0.23087858514E+02  0.63955123173E+02  0.69182030552E+02  0.00000000000E+00 0. -1.
         -3    1    3    3    0  502 -0.10113769835E+03  0.54907568286E+02  0.35616417622E+03  0.37429479759E+03  0.00000000000E+00 0.  1.
         13    1    5    5    0    0  0.34741385493E+02  0.68308287756E+02  0.13925023962E+02  0.77890258277E+02  0.00000000000E+00 0. -1.
        -13    1    5    5    0    0 -0.55231306929E+01  0.32700577727E+03 -0.40993613767E+02  0.32961152849E+03  0.00000000000E+00 0.  1.
          2    1    6    6  503    0 -0.24508529780E+02 -0.88996726675E+02  0.46119163119E+02  0.10318945003E+03  0.00000000000E+00 0. -1.
         -2    1    6    6    0  503  0.83666846400E+02 -0.38431276515E+03  0.19175178563E+03  0.43756735474E+03  0.00000000000E+00 0.  1.
<mgrwt>
<rscale>  0 0.12405101E+04</rscale>
<asrwt>0</asrwt>
<pdfrwt beam="1">  1        2 0.58524136E-01 0.12405101E+04</pdfrwt>
<pdfrwt beam="2">  1       -1 0.15558900E+00 0.12405101E+04</pdfrwt>
<totfact> 0.29940162E+01</totfact>
</mgrwt>
</event>
<event>
12    7  0.1730932E-007  0.2221357E+04  0.7818608E-02  0.8509591E-01
         -1   -1    0    0    0  501 -0.00000000000E+00  0.00000000000E+00  0.32958375698E+03  0.32958375698E+03  0.00000000000E+00 0.  1.
          2   -1    0    0  501    0  0.00000000000E+00 -0.00000000000E+00 -0.37429236606E+04  0.37429236606E+04  0.00000000000E+00 0. -1.
         24    2    1    2    0    0 -0.46566950541E+03 -0.52676905190E+03 -0.25440421982E+04  0.26406301880E+04  0.80270549653E+02 0.  0.
        254    2    1    2    0    0  0.46566950541E+03  0.52676905190E+03 -0.86929770541E+03  0.14318772296E+04  0.89457262291E+03 0.  0.
         23    2    4    4    0    0 -0.16328541393E+03  0.45336197387E+03 -0.29525226513E+03  0.57229102685E+03  0.90243634605E+02 0.  0.
         23    2    4    4    0    0  0.62895491934E+03  0.73407078028E+02 -0.57404544027E+03  0.85958620273E+03  0.91582655388E+02 0.  0.
          2    1    3    3  502    0 -0.16724255656E+03 -0.15811964805E+03 -0.95285737657E+03  0.98025969820E+03  0.00000000000E+00 0. -1.
         -1    1    3    3    0  502 -0.29842694885E+03 -0.36864940385E+03 -0.15911848216E+04  0.16603704898E+04  0.00000000000E+00 0.  1.
         13    1    5    5    0    0 -0.12477099689E+03  0.30006083803E+03 -0.24313368006E+03  0.40585501668E+03  0.00000000000E+00 0.  1.
        -13    1    5    5    0    0 -0.38514417037E+02  0.15330113584E+03 -0.52118585076E+02  0.16643601017E+03  0.00000000000E+00 0. -1.
          2    1    6    6  503    0  0.27778823176E+03  0.72789149650E+02 -0.28743834437E+03  0.40630698225E+03  0.00000000000E+00 0. -1.
         -2    1    6    6    0  503  0.35116668757E+03  0.61792837720E+00 -0.28660709590E+03  0.45327922048E+03  0.00000000000E+00 0.  1.
<mgrwt>
<rscale>  0 0.22213571E+04</rscale>
<asrwt>0</asrwt>
<pdfrwt beam="1">  1        2 0.57583444E+00 0.22213571E+04</pdfrwt>
<pdfrwt beam="2">  1       -1 0.50705191E-01 0.22213571E+04</pdfrwt>
<totfact> 0.22110444E+00</totfact>
</mgrwt>
</event>
<event>
12    7  0.1730932E-007  0.1918709E+04  0.7818608E-02  0.8645599E-01
         -1   -1    0    0    0  501 -0.00000000000E+00  0.00000000000E+00  0.26243976497E+03  0.26243976497E+03  0.00000000000E+00 0.  1.
          2   -1    0    0  501    0  0.00000000000E+00 -0.00000000000E+00 -0.35069414378E+04  0.35069414378E+04  0.00000000000E+00 0. -1.
         24    2    1    2    0    0  0.11879652060E+03  0.26858010526E+03  0.78318902109E+02  0.31439169530E+03  0.80376622231E+02 0.  0.
        254    2    1    2    0    0 -0.11879652060E+03 -0.26858010526E+03 -0.33228205749E+04  0.34549895074E+04  0.89975998866E+03 0.  0.
         23    2    4    4    0    0 -0.47420408793E+03 -0.11226918871E+03 -0.23819399550E+04  0.24330630921E+04  0.93188913100E+02 0.  0.
         23    2    4    4    0    0  0.35540756733E+03 -0.15631091655E+03 -0.94088061994E+03  0.10219264153E+04  0.91266728560E+02 0.  0.
          4    1    3    3  502    0 -0.80231966860E+01  0.50773473285E+02  0.36827806791E+01  0.51535232104E+02  0.00000000000E+00 0. -1.
         -3    1    3    3    0  502  0.12681971728E+03  0.21780663197E+03  0.74636121430E+02  0.26285646320E+03  0.00000000000E+00 0.  1.
         13    1    5    5    0    0 -0.38282009297E+03 -0.10859670690E+03 -0.20739997097E+04  0.21118284173E+04  0.00000000000E+00 0. -1.
        -13    1    5    5    0    0 -0.91383994962E+02 -0.36724818025E+01 -0.30794024532E+03  0.32123467488E+03  0.00000000000E+00 0.  1.
          3    1    6    6  503    0  0.20834996524E+03 -0.81968570839E+02 -0.42500240161E+03  0.48037026969E+03  0.00000000000E+00 0. -1.
         -3    1    6    6    0  503  0.14705760209E+03 -0.74342345712E+02 -0.51587821833E+03  0.54155614561E+03  0.00000000000E+00 0.  1.
<mgrwt>
<rscale>  0 0.19187088E+04</rscale>
<asrwt>0</asrwt>
<pdfrwt beam="1">  1        2 0.53952941E+00 0.19187088E+04</pdfrwt>
<pdfrwt beam="2">  1       -1 0.40375352E-01 0.19187088E+04</pdfrwt>
<totfact> 0.51581236E+00</totfact>
</mgrwt>
</event>
<event>
12    7  0.1730932E-007  0.1583972E+04  0.7818608E-02  0.8830455E-01
          2   -1    0    0  501    0  0.00000000000E+00  0.00000000000E+00  0.10767511199E+04  0.10767511199E+04  0.00000000000E+00 0. -1.
         -1   -1    0    0    0  501 -0.00000000000E+00 -0.00000000000E+00 -0.58253192451E+03  0.58253192451E+03  0.00000000000E+00 0.  1.
         24    2    1    2    0    0 -0.49778525456E+03 -0.17827087730E+03  0.12640931420E+03  0.55022018934E+03  0.84807291460E+02 0.  0.
        254    2    1    2    0    0  0.49778525456E+03  0.17827087730E+03  0.36780988118E+03  0.11090628551E+04  0.90286524047E+03 0.  0.
         23    2    4    4    0    0  0.49066367558E+03 -0.28091017049E+03  0.14788549675E+03  0.59161274817E+03  0.92055185833E+02 0.  0.
         23    2    4    4    0    0  0.71215789816E+01  0.45918104779E+03  0.21992438443E+03  0.51745010689E+03  0.92140798347E+02 0.  0.
          2    1    3    3  502    0 -0.30189262699E+03 -0.10798139423E+03  0.33718974558E+02  0.32239123589E+03  0.00000000000E+00 0. -1.
         -1    1    3    3    0  502 -0.19589262757E+03 -0.70289483071E+02  0.92690339644E+02  0.22782895345E+03  0.00000000000E+00 0.  1.
         13    1    5    5    0    0  0.36160852260E+03 -0.16448009728E+03  0.12402491544E+03  0.41616896289E+03  0.00000000000E+00 0. -1.
        -13    1    5    5    0    0  0.12905515298E+03 -0.11643007320E+03  0.23860581317E+02  0.17544378529E+03  0.00000000000E+00 0.  1.
          2    1    6    6  503    0 -0.22018479850E+02  0.32460264835E+02  0.30405425462E+02  0.49628340146E+02  0.00000000000E+00 0. -1.
         -2    1    6    6    0  503  0.29140058832E+02  0.42672078296E+03  0.18951895897E+03  0.46782176675E+03  0.00000000000E+00 0.  1.
<mgrwt>
<rscale>  0 0.15839721E+04</rscale>
<asrwt>0</asrwt>
<pdfrwt beam="1">  1        2 0.16565402E+00 0.15839721E+04</pdfrwt>
<pdfrwt beam="2">  1       -1 0.89620297E-01 0.15839721E+04</pdfrwt>
<totfact> 0.30079455E+01</totfact>
</mgrwt>
</event>
<event>
12    7  0.1730932E-007  0.1770347E+04  0.7818608E-02  0.8722229E-01
          2   -1    0    0  501    0  0.00000000000E+00  0.00000000000E+00  0.16693347000E+04  0.16693347000E+04  0.00000000000E+00 0. -1.
         -1   -1    0    0    0  501 -0.00000000000E+00 -0.00000000000E+00 -0.46936797368E+03  0.46936797368E+03  0.00000000000E+00 0.  1.
         24    2    1    2    0    0  0.20227007749E+03  0.31623027457E+03 -0.19880636158E+03  0.43162604879E+03  0.76565695872E+02 0.  0.
        254    2    1    2    0    0 -0.20227007749E+03 -0.31623027457E+03  0.13987730879E+04  0.17070766249E+04  0.90367565035E+03 0.  0.
         23    2    4    4    0    0  0.17843539018E+03 -0.38906650557E+02 -0.21917908179E+02  0.20759152754E+03  0.96233734642E+02 0.  0.
         23    2    4    4    0    0 -0.38070546767E+03 -0.27732362401E+03  0.14206909961E+04  0.14994850974E+04  0.90816327264E+02 0.  0.
          2    1    3    3  502    0  0.37377849500E+02  0.43786385059E+02 -0.27070941176E+01  0.57634013467E+02  0.00000000000E+00 0. -1.
         -3    1    3    3    0  502  0.16489222799E+03  0.27244388951E+03 -0.19609926746E+03  0.37399203532E+03  0.00000000000E+00 0.  1.
         13    1    5    5    0    0  0.77354205316E+02 -0.49118722838E+02 -0.46947236113E+02  0.10295807395E+03  0.00000000000E+00 0.  1.
        -13    1    5    5    0    0  0.10108118486E+03  0.10212072281E+02  0.25029327934E+02  0.10463345359E+03  0.00000000000E+00 0. -1.
          3    1    6    6  503    0 -0.50535460818E+02 -0.53729600726E+02  0.14131769390E+03  0.15940951479E+03  0.00000000000E+00 0. -1.
         -3    1    6    6    0  503 -0.33017000685E+03 -0.22359402329E+03  0.12793733022E+04  0.13400755826E+04  0.00000000000E+00 0.  1.
<mgrwt>
<rscale>  0 0.17703471E+04</rscale>
<asrwt>0</asrwt>
<pdfrwt beam="1">  1        2 0.25682072E+00 0.17703471E+04</pdfrwt>
<pdfrwt beam="2">  1       -1 0.72210458E-01 0.17703471E+04</pdfrwt>
<totfact> 0.21274969E+01</totfact>
</mgrwt>
</event>
<event>
12    7  0.1730932E-007  0.1278777E+04  0.7818608E-02  0.9046566E-01
         -1   -1    0    0    0  501 -0.00000000000E+00  0.00000000000E+00  0.68648550348E+03  0.68648550348E+03  0.00000000000E+00 0.  1.
          2   -1    0    0  501    0  0.00000000000E+00 -0.00000000000E+00 -0.59552287072E+03  0.59552287072E+03  0.00000000000E+00 0. -1.
         24    2    1    2    0    0  0.28664434505E+03  0.14540749503E+03  0.29752526299E+02  0.33256200585E+03  0.80024713421E+02 0.  0.
        254    2    1    2    0    0 -0.28664434505E+03 -0.14540749503E+03  0.61210106460E+02  0.94944636835E+03  0.89128750080E+03 0.  0.
         23    2    4    4    0    0  0.12031100295E+03 -0.40724602793E+03  0.12790973437E+03  0.45255090486E+03  0.90096374260E+02 0.  0.
         23    2    4    4    0    0 -0.40695534800E+03  0.26183853290E+03 -0.66699627908E+02  0.49689546348E+03  0.91017518580E+02 0.  0.
          4    1    3    3  502    0  0.17776541781E+03  0.12079282423E+03 -0.70138962022E+01  0.21503638040E+03  0.00000000000E+00 0. -1.
         -3    1    3    3    0  502  0.10887892723E+03  0.24614670792E+02  0.36766422501E+02  0.11752562545E+03  0.00000000000E+00 0.  1.
         13    1    5    5    0    0  0.98519765416E+02 -0.18138951747E+03  0.74444428536E+02  0.21943170730E+03  0.00000000000E+00 0. -1.
        -13    1    5    5    0    0  0.21791237538E+02 -0.22585651045E+03  0.53465305831E+02  0.23311919757E+03  0.00000000000E+00 0.  1.
          3    1    6    6  503    0 -0.68904266645E+02  0.84636494136E+02  0.16183046836E+01  0.10915013977E+03  0.00000000000E+00 0. -1.
         -3    1    6    6    0  503 -0.33805108136E+03  0.17720203876E+03 -0.68317932591E+02  0.38774532371E+03  0.00000000000E+00 0.  1.
<mgrwt>
<rscale>  0 0.12787773E+04</rscale>
<asrwt>0</asrwt>
<pdfrwt beam="1">  1        2 0.91618903E-01 0.12787773E+04</pdfrwt>
<pdfrwt beam="2">  1       -1 0.10561315E+00 0.12787773E+04</pdfrwt>
<totfact> 0.47178326E+01</totfact>
</mgrwt>
</event>
<event>
12    7  0.1730932E-007  0.2033340E+04  0.7818608E-02  0.8591190E-01
         -1   -1    0    0    0  501 -0.00000000000E+00  0.00000000000E+00  0.12283377543E+04  0.12283377543E+04  0.00000000000E+00 0.  1.
          2   -1    0    0  501    0  0.00000000000E+00 -0.00000000000E+00 -0.84147678454E+03  0.84147678454E+03  0.00000000000E+00 0. -1.
         24    2    1    2    0    0  0.16074601217E+03  0.76062607675E+03 -0.74003676301E+02  0.78485914800E+03  0.78332809413E+02 0.  0.
        254    2    1    2    0    0 -0.16074601217E+03 -0.76062607675E+03  0.46086464606E+03  0.12849553908E+04  0.91341273552E+03 0.  0.
         23    2    4    4    0    0 -0.31105939066E+03 -0.53883345599E+03 -0.11870072883E+03  0.63995870380E+03  0.91421232383E+02 0.  0.
         23    2    4    4    0    0  0.15031337849E+03 -0.22179262076E+03  0.57956537489E+03  0.64499668704E+03  0.91316067277E+02 0.  0.
          2    1    3    3  502    0  0.10802818303E+03  0.48023832455E+03 -0.93651396363E+01  0.49232777957E+03  0.00000000000E+00 0. -1.
         -1    1    3    3    0  502  0.52717829143E+02  0.28038775220E+03 -0.64638536664E+02  0.29253136843E+03  0.00000000000E+00 0.  1.
         13    1    5    5    0    0 -0.28182908276E+03 -0.47715246878E+03 -0.13371183951E+03  0.57007101872E+03  0.00000000000E+00 0. -1.
        -13    1    5    5    0    0 -0.29230307896E+02 -0.61680987205E+02  0.15011110671E+02  0.69887685080E+02  0.00000000000E+00 0.  1.
          1    1    6    6  503    0  0.14008893715E+03 -0.17681154903E+03  0.39620351808E+03  0.45592155238E+03  0.00000000000E+00 0. -1.
         -1    1    6    6    0  503  0.10224441338E+02 -0.44981071732E+02  0.18336185681E+03  0.18907513467E+03  0.00000000000E+00 0.  1.
<mgrwt>
<rscale>  0 0.20333398E+04</rscale>
<asrwt>0</asrwt>
<pdfrwt beam="1">  1        2 0.12945797E+00 0.20333398E+04</pdfrwt>
<pdfrwt beam="2">  1       -1 0.18897504E+00 0.20333398E+04</pdfrwt>
<totfact> 0.61118251E+00</totfact>
</mgrwt>
</event>
<event>
12    7  0.1730932E-007  0.1733107E+04  0.7818608E-02  0.8742704E-01
          2   -1    0    0  501    0  0.00000000000E+00  0.00000000000E+00  0.43329488414E+03  0.43329488414E+03  0.00000000000E+00 0. -1.
         -1   -1    0    0    0  501 -0.00000000000E+00 -0.00000000000E+00 -0.17330347865E+04  0.17330347865E+04  0.00000000000E+00 0.  1.
         24    2    1    2    0    0  0.36647312205E+03 -0.31528444796E+03 -0.98527471545E+03  0.11003541203E+04  0.79410911476E+02 0.  0.
        254    2    1    2    0    0 -0.36647312205E+03  0.31528444796E+03 -0.31446518687E+03  0.10659755503E+04  0.89649801325E+03 0.  0.
         23    2    4    4    0    0 -0.31369109918E+03  0.47357810433E+03 -0.52845868410E+03  0.78116548224E+03  0.90953852222E+02 0.  0.
         23    2    4    4    0    0 -0.52782022868E+02 -0.15829365636E+03  0.21399349722E+03  0.28481006806E+03  0.86491239052E+02 0.  0.
          4    1    3    3  502    0  0.10462496657E+03 -0.85738899105E+02 -0.20132919475E+03  0.24255099899E+03  0.00000000000E+00 0. -1.
         -1    1    3    3    0  502  0.26184815548E+03 -0.22954554886E+03 -0.78394552070E+03  0.85780312132E+03  0.00000000000E+00 0.  1.
         13    1    5    5    0    0 -0.10613536621E+03  0.12077738173E+03 -0.19822864950E+03  0.25523810331E+03  0.00000000000E+00 0. -1.
        -13    1    5    5    0    0 -0.20755573297E+03  0.35280072260E+03 -0.33023003460E+03  0.52592737893E+03  0.00000000000E+00 0.  1.
          1    1    6    6  503    0  0.13295225511E+02 -0.56061515846E+02  0.11220237878E+03  0.12613100485E+03  0.00000000000E+00 0. -1.
         -1    1    6    6    0  503 -0.66077248379E+02 -0.10223214052E+03  0.10179111844E+03  0.15867906321E+03  0.00000000000E+00 0.  1.
<mgrwt>
<rscale>  0 0.17331072E+04</rscale>
<asrwt>0</asrwt>
<pdfrwt beam="1">  1        2 0.66660751E-01 0.17331072E+04</pdfrwt>
<pdfrwt beam="2">  1       -1 0.26662074E+00 0.17331072E+04</pdfrwt>
<totfact> 0.42846159E+00</totfact>
</mgrwt>
</event>
<event>
12    7  0.1730932E-007  0.2137146E+04  0.7818608E-02  0.8545054E-01
         -1   -1    0    0    0  501 -0.00000000000E+00  0.00000000000E+00  0.10990547798E+04  0.10990547798E+04  0.00000000000E+00 0.  1.
          2   -1    0    0  501    0  0.00000000000E+00 -0.00000000000E+00 -0.10389370029E+04  0.10389370029E+04  0.00000000000E+00 0. -1.
         24    2    1    2    0    0  0.38680566300E+03  0.38482125359E+03  0.70423120598E+03  0.89433228765E+03  0.78629708837E+02 0.  0.
        254    2    1    2    0    0 -0.38680566300E+03 -0.38482125359E+03 -0.64411342903E+03  0.12436594950E+04  0.91329119778E+03 0.  0.
         23    2    4    4    0    0 -0.33590120581E+03 -0.55837136761E+03 -0.76470448848E+03  0.10087867794E+04  0.90937381139E+02 0.  0.
         23    2    4    4    0    0 -0.50904457192E+02  0.17355011402E+03  0.12059105945E+03  0.23487271566E+03  0.88949890956E+02 0.  0.
          2    1    3    3  502    0  0.44230257301E+02  0.23111149562E+02  0.39561705570E+02  0.63683352947E+02  0.00000000000E+00 0. -1.
         -1    1    3    3    0  502  0.34257540570E+03  0.36171010402E+03  0.66466950041E+03  0.83064893470E+03  0.00000000000E+00 0.  1.
         13    1    5    5    0    0 -0.31396523816E+03 -0.47217564938E+03 -0.63262974730E+03  0.84955542009E+03  0.00000000000E+00 0. -1.
        -13    1    5    5    0    0 -0.21935967650E+02 -0.86195718232E+02 -0.13207474118E+03  0.15923135927E+03  0.00000000000E+00 0.  1.
          4    1    6    6  503    0 -0.43580557334E+02  0.65991621791E+02  0.95848693207E+02  0.12426234793E+03  0.00000000000E+00 0. -1.
         -4    1    6    6    0  503 -0.73238998581E+01  0.10755849223E+03  0.24742366238E+02  0.11061036772E+03  0.00000000000E+00 0.  1.
<mgrwt>
<rscale>  0 0.21371464E+04</rscale>
<asrwt>0</asrwt>
<pdfrwt beam="1">  1        2 0.15983646E+00 0.21371464E+04</pdfrwt>
<pdfrwt beam="2">  1       -1 0.16908535E+00 0.21371464E+04</pdfrwt>
<totfact> 0.62291693E+00</totfact>
</mgrwt>
</event>
<event>
12    7  0.1730932E-007  0.3293911E+04  0.7818608E-02  0.8164446E-01
         -1   -1    0    0    0  501 -0.00000000000E+00  0.00000000000E+00  0.94310329664E+03  0.94310329664E+03  0.00000000000E+00 0.  1.
          2   -1    0    0  501    0  0.00000000000E+00 -0.00000000000E+00 -0.28761035857E+04  0.28761035857E+04  0.00000000000E+00 0. -1.
         24    2    1    2    0    0 -0.33490395020E+03  0.68005054479E+03 -0.24261133588E+04  0.25432685010E+04  0.86943884967E+02 0.  0.
        254    2    1    2    0    0  0.33490395020E+03 -0.68005054479E+03  0.49311306977E+03  0.12759383813E+04  0.90012713213E+03 0.  0.
         23    2    4    4    0    0  0.43847458781E+03 -0.49729615325E+03 -0.64890964841E+02  0.67276760087E+03  0.94031799255E+02 0.  0.
         23    2    4    4    0    0 -0.10357063761E+03 -0.18275439154E+03  0.55800403461E+03  0.60317078044E+03  0.91216463056E+02 0.  0.
          2    1    3    3  502    0 -0.19435374468E+03  0.37381950929E+03 -0.12056661097E+04  0.12771629385E+04  0.00000000000E+00 0. -1.
         -1    1    3    3    0  502 -0.14055020552E+03  0.30623103550E+03 -0.12204472491E+04  0.12661055624E+04  0.00000000000E+00 0.  1.
         13    1    5    5    0    0  0.38393448010E+03 -0.38386073699E+03 -0.65896583934E+02  0.54689771455E+03  0.00000000000E+00 0. -1.
        -13    1    5    5    0    0  0.54540107710E+02 -0.11343541626E+03  0.10056190930E+01  0.12586988632E+03  0.00000000000E+00 0.  1.
          1    1    6    6  503    0 -0.23089531116E+02 -0.13152070268E+03  0.31782865728E+03  0.34474030381E+03  0.00000000000E+00 0. -1.
         -1    1    6    6    0  503 -0.80481106494E+02 -0.51233688861E+02  0.24017537732E+03  0.25843047663E+03  0.00000000000E+00 0.  1.
<mgrwt>
<rscale>  0 0.32939112E+04</rscale>
<asrwt>0</asrwt>
<pdfrwt beam="1">  1        2 0.44247746E+00 0.32939112E+04</pdfrwt>
<pdfrwt beam="2">  1       -1 0.14509282E+00 0.32939112E+04</pdfrwt>
<totfact> 0.75197023E-01</totfact>
</mgrwt>
</event>
<event>
12    7  0.1730932E-007  0.1646795E+04  0.7818608E-02  0.8792305E-01
          2   -1    0    0  501    0  0.00000000000E+00  0.00000000000E+00  0.31828154926E+04  0.31828154926E+04  0.00000000000E+00 0. -1.
         -1   -1    0    0    0  501 -0.00000000000E+00 -0.00000000000E+00 -0.21301374080E+03  0.21301374080E+03  0.00000000000E+00 0.  1.
         24    2    1    2    0    0 -0.11899905218E+03  0.40590751586E+03  0.25012719493E+03  0.49837841028E+03  0.83040594533E+02 0.  0.
        254    2    1    2    0    0  0.11899905218E+03 -0.40590751586E+03  0.27196745569E+04  0.28974508232E+04  0.90535622342E+03 0.  0.
         23    2    4    4    0    0  0.27899730267E+03 -0.63454223373E+03  0.20624491632E+04  0.21777425504E+04  0.91557214929E+02 0.  0.
         23    2    4    4    0    0 -0.15999825049E+03  0.22863471787E+03  0.65722539371E+03  0.71970827280E+03  0.90341050588E+02 0.  0.
          2    1    3    3  502    0 -0.68345355627E+02  0.14321884218E+03  0.57785872373E+02  0.16888437298E+03  0.00000000000E+00 0. -1.
         -1    1    3    3    0  502 -0.50653696553E+02  0.26268867368E+03  0.19234132256E+03  0.32949403730E+03  0.00000000000E+00 0.  1.
         13    1    5    5    0    0  0.81356733410E+02 -0.14729197257E+03  0.62071553444E+03  0.64311866553E+03  0.00000000000E+00 0. -1.
        -13    1    5    5    0    0  0.19764056926E+03 -0.48725026117E+03  0.14417336288E+04  0.15346238848E+04  0.00000000000E+00 0.  1.
          3    1    6    6  503    0  0.65957020459E+01  0.10270040581E+01  0.30980696537E+01  0.73590799963E+01  0.00000000000E+00 0. -1.
         -3    1    6    6    0  503 -0.16659395253E+03  0.22760771381E+03  0.65412732406E+03  0.71234919280E+03  0.00000000000E+00 0.  1.
<mgrwt>
<rscale>  0 0.16467950E+04</rscale>
<asrwt>0</asrwt>
<pdfrwt beam="1">  1        2 0.48966389E+00 0.16467950E+04</pdfrwt>
<pdfrwt beam="2">  1       -1 0.32771347E-01 0.16467950E+04</pdfrwt>
<totfact> 0.12726445E+01</totfact>
</mgrwt>
</event>
<event>
12    7  0.1730932E-007  0.1398242E+04  0.7818608E-02  0.8955092E-01
          2   -1    0    0  501    0  0.00000000000E+00  0.00000000000E+00  0.11958771627E+04  0.11958771627E+04  0.00000000000E+00 0. -1.
         -1   -1    0    0    0  501 -0.00000000000E+00 -0.00000000000E+00 -0.40871263553E+03  0.40871263553E+03  0.00000000000E+00 0.  1.
         24    2    1    2    0    0 -0.10264611452E+02 -0.16896374418E+03  0.65419994301E+03  0.68035855937E+03  0.79095478898E+02 0.  0.
        254    2    1    2    0    0  0.10264611452E+02  0.16896374418E+03  0.13296458417E+03  0.92423123886E+03  0.89881571701E+03 0.  0.
         23    2    4    4    0    0  0.23934993811E+03 -0.66321120296E+02 -0.28225073932E+03  0.38695915095E+03  0.91569759140E+02 0.  0.
         23    2    4    4    0    0 -0.22908532666E+03  0.23528486447E+03  0.41521532349E+03  0.53727208791E+03  0.91752260158E+02 0.  0.
          4    1    3    3  502    0 -0.79088558096E+01 -0.33740749172E+01  0.13749105274E+03  0.13775966016E+03  0.00000000000E+00 0. -1.
         -3    1    3    3    0  502 -0.23557556428E+01 -0.16558966926E+03  0.51670889027E+03  0.54259889922E+03  0.00000000000E+00 0.  1.
         13    1    5    5    0    0  0.82823134395E+02 -0.10812524035E+02 -0.38411955141E+02  0.91935088866E+02  0.00000000000E+00 0.  1.
        -13    1    5    5    0    0  0.15652680371E+03 -0.55508596262E+02 -0.24383878418E+03  0.29502406209E+03  0.00000000000E+00 0. -1.
          4    1    6    6  503    0 -0.95523971482E+02  0.16329930819E+03  0.23516201896E+03  0.30181561978E+03  0.00000000000E+00 0. -1.
         -4    1    6    6    0  503 -0.13356135517E+03  0.71985556278E+02  0.18005330453E+03  0.23545646812E+03  0.00000000000E+00 0.  1.
<mgrwt>
<rscale>  0 0.13982419E+04</rscale>
<asrwt>0</asrwt>
<pdfrwt beam="1">  1        2 0.18398110E+00 0.13982419E+04</pdfrwt>
<pdfrwt beam="2">  1       -1 0.62878868E-01 0.13982419E+04</pdfrwt>
<totfact> 0.54238784E+01</totfact>
</mgrwt>
</event>
<event>
12    7  0.1730932E-007  0.1700208E+04  0.7818608E-02  0.8761246E-01
          2   -1    0    0  501    0  0.00000000000E+00  0.00000000000E+00  0.14133741105E+04  0.14133741105E+04  0.00000000000E+00 0. -1.
         -1   -1    0    0    0  501 -0.00000000000E+00 -0.00000000000E+00 -0.51131311239E+03  0.51131311239E+03  0.00000000000E+00 0.  1.
         24    2    1    2    0    0 -0.59767651903E+03 -0.45166618676E+02  0.19360561012E+03  0.63512593604E+03  0.81514278038E+02 0.  0.
        254    2    1    2    0    0  0.59767651903E+03  0.45166618676E+02  0.70845538799E+03  0.12895612868E+04  0.89543399026E+03 0.  0.
         23    2    4    4    0    0  0.64953329594E+03  0.28300838982E+03  0.23993349970E+03  0.75369629043E+03  0.92210426128E+02 0.  0.
         23    2    4    4    0    0 -0.51856776913E+02 -0.23784177114E+03  0.46852188829E+03  0.53586499641E+03  0.91546169551E+02 0.  0.
          4    1    3    3  502    0 -0.26984063382E+02  0.76328804595E+01 -0.51487756581E+01  0.28511584163E+02  0.00000000000E+00 0. -1.
         -3    1    3    3    0  502 -0.57069245564E+03 -0.52799499135E+02  0.19875438578E+03  0.60661435188E+03  0.00000000000E+00 0.  1.
         13    1    5    5    0    0  0.31854733603E+03  0.12118864946E+03  0.16088484944E+03  0.37688596264E+03  0.00000000000E+00 0. -1.
        -13    1    5    5    0    0  0.33098595990E+03  0.16181974036E+03  0.79048650259E+02  0.37681032779E+03  0.00000000000E+00 0.  1.
          4    1    6    6  503    0 -0.76386248798E+02 -0.15699731946E+03  0.29313677117E+03  0.34119229759E+03  0.00000000000E+00 0. -1.
         -4    1    6    6    0  503  0.24529471885E+02 -0.80844451687E+02  0.17538511712E+03  0.19467269883E+03  0.00000000000E+00 0.  1.
<mgrwt>
<rscale>  0 0.17002079E+04</rscale>
<asrwt>0</asrwt>
<pdfrwt beam="1">  1        2 0.21744217E+00 0.17002079E+04</pdfrwt>
<pdfrwt beam="2">  1       -1 0.78663557E-01 0.17002079E+04</pdfrwt>
<totfact> 0.24929852E+01</totfact>
</mgrwt>
</event>
<event>
12    7  0.1730932E-007  0.2022273E+04  0.7818608E-02  0.8596277E-01
          2   -1    0    0  501    0  0.00000000000E+00  0.00000000000E+00  0.10374058161E+04  0.10374058161E+04  0.00000000000E+00 0. -1.
         -1   -1    0    0    0  501 -0.00000000000E+00 -0.00000000000E+00 -0.98553268214E+03  0.98553268214E+03  0.00000000000E+00 0.  1.
         24    2    1    2    0    0  0.53403987110E+03  0.42823567260E+03 -0.40084547095E+03  0.79725753391E+03  0.79737748791E+02 0.  0.
        254    2    1    2    0    0 -0.53403987110E+03 -0.42823567260E+03  0.45271860489E+03  0.12256809643E+04  0.91035999245E+03 0.  0.
         23    2    4    4    0    0 -0.26456584520E+03 -0.68076627671E+03  0.41084206566E+03  0.84295154793E+03  0.91314288542E+02 0.  0.
         23    2    4    4    0    0 -0.26947402590E+03  0.25253060410E+03  0.41876539224E+02  0.38272941638E+03  0.91324722739E+02 0.  0.
          4    1    3    3  502    0  0.78214111805E+02  0.58281344135E+02 -0.26787016436E+02  0.10115189869E+03  0.00000000000E+00 0. -1.
         -3    1    3    3    0  502  0.45582575930E+03  0.36995432847E+03 -0.37405845451E+03  0.69610563522E+03  0.00000000000E+00 0.  1.
         13    1    5    5    0    0 -0.21586981337E+02 -0.11891362198E+03  0.40311402473E+02  0.12740273319E+03  0.00000000000E+00 0. -1.
        -13    1    5    5    0    0 -0.24297886387E+03 -0.56185265473E+03  0.37053066319E+03  0.71554881474E+03  0.00000000000E+00 0.  1.
          4    1    6    6  503    0 -0.24571135395E+03  0.25561696102E+03  0.29572851329E+02  0.35579299284E+03  0.00000000000E+00 0.  1.
         -4    1    6    6    0  503 -0.23762671951E+02 -0.30863569167E+01  0.12303687895E+02  0.26936423539E+02  0.00000000000E+00 0. -1.
<mgrwt>
<rscale>  0 0.20222733E+04</rscale>
<asrwt>0</asrwt>
<pdfrwt beam="1">  1        2 0.15960089E+00 0.20222733E+04</pdfrwt>
<pdfrwt beam="2">  1       -1 0.15162041E+00 0.20222733E+04</pdfrwt>
<totfact> 0.85468896E+00</totfact>
</mgrwt>
</event>
<event>
12    7  0.1730932E-007  0.1870443E+04  0.7818608E-02  0.8669710E-01
          2   -1    0    0  501    0  0.00000000000E+00  0.00000000000E+00  0.10533479449E+04  0.10533479449E+04  0.00000000000E+00 0. -1.
         -1   -1    0    0    0  501 -0.00000000000E+00 -0.00000000000E+00 -0.83034205880E+03  0.83034205880E+03  0.00000000000E+00 0.  1.
         24    2    1    2    0    0 -0.24020836702E+03  0.44772483499E+03 -0.42382382632E+03  0.66651877172E+03  0.80393095774E+02 0.  0.
        254    2    1    2    0    0  0.24020836702E+03 -0.44772483499E+03  0.64682971243E+03  0.12171712320E+04  0.89719537652E+03 0.  0.
         23    2    4    4    0    0  0.45864344770E+03  0.51953262225E+02  0.37340071767E+03  0.60056433136E+03  0.90534339159E+02 0.  0.
         23    2    4    4    0    0 -0.21843508068E+03 -0.49967809722E+03  0.27342899476E+03  0.61660690063E+03  0.89713819552E+02 0.  0.
          4    1    3    3  502    0 -0.46767674190E+02  0.50980718222E+02 -0.31670653172E+02  0.76087313344E+02  0.00000000000E+00 0. -1.
         -3    1    3    3    0  502 -0.19344069283E+03  0.39674411677E+03 -0.39215317314E+03  0.59043145838E+03  0.00000000000E+00 0.  1.
         13    1    5    5    0    0  0.27497656478E+03  0.34629298798E+02  0.16630688637E+03  0.32321707871E+03  0.00000000000E+00 0. -1.
        -13    1    5    5    0    0  0.18366688293E+03  0.17323963427E+02  0.20709383130E+03  0.27734725265E+03  0.00000000000E+00 0.  1.
          2    1    6    6  503    0 -0.12814722282E+03 -0.33106598319E+03  0.22143541718E+03  0.41840176855E+03  0.00000000000E+00 0. -1.
         -2    1    6    6    0  503 -0.90287857860E+02 -0.16861211403E+03  0.51993577576E+02  0.19820513208E+03  0.00000000000E+00 0.  1.
<mgrwt>
<rscale>  0 0.18704428E+04</rscale>
<asrwt>0</asrwt>
<pdfrwt beam="1">  1        2 0.16205353E+00 0.18704428E+04</pdfrwt>
<pdfrwt beam="2">  1       -1 0.12774493E+00 0.18704428E+04</pdfrwt>
<totfact> 0.13222705E+01</totfact>
</mgrwt>
</event>
<event>
12    7  0.1730932E-007  0.1254488E+04  0.7818608E-02  0.9066456E-01
         -1   -1    0    0    0  501 -0.00000000000E+00  0.00000000000E+00  0.20702999603E+03  0.20702999603E+03  0.00000000000E+00 0.  1.
          2   -1    0    0  501    0  0.00000000000E+00 -0.00000000000E+00 -0.19003776429E+04  0.19003776429E+04  0.00000000000E+00 0. -1.
         24    2    1    2    0    0 -0.15884674152E+03  0.13882500344E+03 -0.56718586618E+02  0.23205912153E+03  0.78292840945E+02 0.  0.
        254    2    1    2    0    0  0.15884674152E+03 -0.13882500344E+03 -0.16366290602E+04  0.18753485174E+04  0.89099534901E+03 0.  0.
         23    2    4    4    0    0  0.28781454934E+03  0.31376585483E+03 -0.79334715154E+03  0.90499998795E+03  0.91318392749E+02 0.  0.
         23    2    4    4    0    0 -0.12896780782E+03 -0.45259085827E+03 -0.84328190868E+03  0.97034852942E+03  0.94766611197E+02 0.  0.
          2    1    3    3  502    0 -0.82695826159E+02  0.34279212274E+02 -0.50020137448E+02  0.10254598095E+03  0.00000000000E+00 0. -1.
         -1    1    3    3    0  502 -0.76150915363E+02  0.10454579117E+03 -0.66984491702E+01  0.12951314058E+03  0.00000000000E+00 0.  1.
         13    1    5    5    0    0  0.11418748829E+03  0.96797367782E+02 -0.36389295150E+03  0.39348010501E+03  0.00000000000E+00 0.  1.
        -13    1    5    5    0    0  0.17362706105E+03  0.21696848704E+03 -0.42945420005E+03  0.51151988293E+03  0.00000000000E+00 0. -1.
          3    1    6    6  503    0 -0.28449700964E+02 -0.27092635150E+03 -0.47433099331E+03  0.54699210656E+03  0.00000000000E+00 0. -1.
         -3    1    6    6    0  503 -0.10051810686E+03 -0.18166450676E+03 -0.36895091537E+03  0.42335642286E+03  0.00000000000E+00 0.  1.
<mgrwt>
<rscale>  0 0.12544882E+04</rscale>
<asrwt>0</asrwt>
<pdfrwt beam="1">  1        2 0.29236579E+00 0.12544882E+04</pdfrwt>
<pdfrwt beam="2">  1       -1 0.31850769E-01 0.12544882E+04</pdfrwt>
<totfact> 0.78088172E+01</totfact>
</mgrwt>
</event>
<event>
12    7  0.1730932E-007  0.1141476E+04  0.7818608E-02  0.9165684E-01
         -3   -1    0    0    0  501 -0.00000000000E+00  0.00000000000E+00  0.44305752812E+03  0.44305752812E+03  0.00000000000E+00 0.  1.
          4   -1    0    0  501    0  0.00000000000E+00 -0.00000000000E+00 -0.73521338004E+03  0.73521338004E+03  0.00000000000E+00 0. -1.
         24    2    1    2    0    0 -0.11203280154E+02 -0.15346870081E+03  0.62103393879E+02  0.18261993926E+03  0.76256508363E+02 0.  0.
        254    2    1    2    0    0  0.11203280154E+02  0.15346870081E+03 -0.35425924580E+03  0.99565096891E+03  0.91768354188E+03 0.  0.
         23    2    4    4    0    0 -0.99430001168E+02  0.47597209133E+03  0.81771213308E+00  0.49483285194E+03  0.91777589041E+02 0.  0.
         23    2    4    4    0    0  0.11063328132E+03 -0.32250339052E+03 -0.35507695793E+03  0.50081811697E+03  0.92146515953E+02 0.  0.
          4    1    3    3  502    0 -0.36851769855E+02 -0.42297627963E+02  0.91575925783E+01  0.56841919167E+02  0.00000000000E+00 0. -1.
         -3    1    3    3    0  502  0.25648489701E+02 -0.11117107285E+03  0.52945801301E+02  0.12577802009E+03  0.00000000000E+00 0.  1.
         13    1    5    5    0    0 -0.10239166407E+03  0.26883783874E+03  0.65483688155E+00  0.28767736307E+03  0.00000000000E+00 0.  1.
        -13    1    5    5    0    0  0.29616629006E+01  0.20713425259E+03  0.16287525153E+00  0.20715548887E+03  0.00000000000E+00 0. -1.
          1    1    6    6  503    0  0.11527728009E+02 -0.14063451187E+03 -0.18590053679E+03  0.23338801173E+03  0.00000000000E+00 0. -1.
         -1    1    6    6    0  503  0.99105553312E+02 -0.18186887865E+03 -0.16917642114E+03  0.26743010524E+03  0.00000000000E+00 0.  1.
<mgrwt>
<rscale>  0 0.11414759E+04</rscale>
<asrwt>0</asrwt>
<pdfrwt beam="1">  1        4 0.11310975E+00 0.11414759E+04</pdfrwt>
<pdfrwt beam="2">  1       -3 0.68162698E-01 0.11414759E+04</pdfrwt>
<totfact> 0.28641181E+00</totfact>
</mgrwt>
</event>
<event>
12    7  0.1730932E-007  0.1358409E+04  0.7818608E-02  0.8984487E-01
         -1   -1    0    0    0  501 -0.00000000000E+00  0.00000000000E+00  0.30586592241E+03  0.30586592241E+03  0.00000000000E+00 0.  1.
          2   -1    0    0  501    0  0.00000000000E+00 -0.00000000000E+00 -0.15082394033E+04  0.15082394033E+04  0.00000000000E+00 0. -1.
         24    2    1    2    0    0 -0.27410681357E+03 -0.24773030485E+03 -0.31834772486E+03  0.49416624863E+03  0.79687879720E+02 0.  0.
        254    2    1    2    0    0  0.27410681357E+03  0.24773030485E+03 -0.88402575600E+03  0.13199390771E+04  0.90787266766E+03 0.  0.
         23    2    4    4    0    0 -0.25568366263E+03  0.11879591008E+03 -0.23825922152E+02  0.29754282830E+03  0.92073104191E+02 0.  0.
         23    2    4    4    0    0  0.52979047620E+03  0.12893439477E+03 -0.86019983385E+03  0.10223962488E+04  0.89712365374E+02 0.  0.
          4    1    3    3  502    0 -0.20321372907E+03 -0.15820071125E+03 -0.25988092150E+03  0.36587071225E+03  0.00000000000E+00 0. -1.
         -3    1    3    3    0  502 -0.70893084497E+02 -0.89529593601E+02 -0.58466803367E+02  0.12829553638E+03  0.00000000000E+00 0.  1.
         13    1    5    5    0    0 -0.38672442917E+02  0.54275145275E+02  0.13747186168E+02  0.68046560261E+02  0.00000000000E+00 0. -1.
        -13    1    5    5    0    0 -0.21701121971E+03  0.64520764804E+02 -0.37573108320E+02  0.22949626803E+03  0.00000000000E+00 0.  1.
          2    1    6    6  503    0  0.47092820294E+02  0.33715589558E+02 -0.12491252203E+03  0.13768664736E+03  0.00000000000E+00 0. -1.
         -2    1    6    6    0  503  0.48269765590E+03  0.95218805215E+02 -0.73528731182E+03  0.88470960140E+03  0.00000000000E+00 0.  1.
<mgrwt>
<rscale>  0 0.13584094E+04</rscale>
<asrwt>0</asrwt>
<pdfrwt beam="1">  1        2 0.23203683E+00 0.13584094E+04</pdfrwt>
<pdfrwt beam="2">  1       -1 0.47056296E-01 0.13584094E+04</pdfrwt>
<totfact> 0.62896381E+01</totfact>
</mgrwt>
</event>
<event>
12    7  0.1730932E-007  0.1431528E+04  0.7818608E-02  0.8931308E-01
         -1   -1    0    0    0  501 -0.00000000000E+00  0.00000000000E+00  0.67485168195E+03  0.67485168195E+03  0.00000000000E+00 0.  1.
          2   -1    0    0  501    0  0.00000000000E+00 -0.00000000000E+00 -0.75915688995E+03  0.75915688995E+03  0.00000000000E+00 0. -1.
         24    2    1    2    0    0  0.49706712001E+02  0.17583664696E+02 -0.45005391541E+03  0.45977439763E+03  0.77871865586E+02 0.  0.
        254    2    1    2    0    0 -0.49706712001E+02 -0.17583664696E+02  0.36574870742E+03  0.97423417427E+03  0.90143228634E+03 0.  0.
         23    2    4    4    0    0  0.32683932497E+03 -0.25147157262E+03  0.29797182155E+03  0.51663426174E+03  0.89787848707E+02 0.  0.
         23    2    4    4    0    0 -0.37654603697E+03  0.23388790793E+03  0.67776885871E+02  0.45759991254E+03  0.91178408951E+02 0.  0.
          4    1    3    3  502    0  0.28460062396E+02  0.37873664357E+01 -0.41768597362E+03  0.41867157995E+03  0.00000000000E+00 0. -1.
         -3    1    3    3    0  502  0.21246649605E+02  0.13796298260E+02 -0.32367941794E+02  0.41102817678E+02  0.00000000000E+00 0.  1.
         13    1    5    5    0    0  0.85591345135E+02 -0.11963490321E+03  0.10111945999E+03  0.17850359553E+03  0.00000000000E+00 0.  1.
        -13    1    5    5    0    0  0.24124797984E+03 -0.13183666941E+03  0.19685236156E+03  0.33813066621E+03  0.00000000000E+00 0. -1.
          1    1    6    6  503    0  0.34041578630E+00  0.49383127021E+01 -0.87290186126E+01  0.10034868270E+02  0.00000000000E+00 0. -1.
         -1    1    6    6    0  503 -0.37688645276E+03  0.22894959523E+03  0.76505904484E+02  0.44756504427E+03  0.00000000000E+00 0.  1.
<mgrwt>
<rscale>  0 0.14315283E+04</rscale>
<asrwt>0</asrwt>
<pdfrwt beam="1">  1        2 0.11679337E+00 0.14315283E+04</pdfrwt>
<pdfrwt beam="2">  1       -1 0.10382334E+00 0.14315283E+04</pdfrwt>
<totfact> 0.35788482E+01</totfact>
</mgrwt>
</event>
<event>
12    7  0.1730932E-007  0.2207853E+04  0.7818608E-02  0.8515167E-01
          2   -1    0    0  501    0  0.00000000000E+00  0.00000000000E+00  0.50353645418E+03  0.50353645418E+03  0.00000000000E+00 0. -1.
         -1   -1    0    0    0  501 -0.00000000000E+00 -0.00000000000E+00 -0.24201902724E+04  0.24201902724E+04  0.00000000000E+00 0.  1.
         24    2    1    2    0    0 -0.88848052683E+03 -0.13064199256E+03 -0.10390537961E+04  0.13757238654E+04  0.80736520081E+02 0.  0.
        254    2    1    2    0    0  0.88848052683E+03  0.13064199256E+03 -0.87760002205E+03  0.15480028612E+04  0.90535412011E+03 0.  0.
         23    2    4    4    0    0  0.57227665763E+03  0.18892735807E+03 -0.15814913939E+01  0.60972097922E+03  0.92536759704E+02 0.  0.
         23    2    4    4    0    0  0.31620386920E+03 -0.58285365511E+02 -0.87601853065E+03  0.93828188197E+03  0.97889495131E+02 0.  0.
          4    1    3    3  502    0 -0.44164108388E+03 -0.67282503958E+02 -0.45541253809E+03  0.63794542255E+03  0.00000000000E+00 0. -1.
         -3    1    3    3    0  502 -0.44683944295E+03 -0.63359488600E+02 -0.58364125804E+03  0.73777844280E+03  0.00000000000E+00 0.  1.
         13    1    5    5    0    0  0.27663720708E+01 -0.60268714091E+01 -0.40331146113E+01  0.77615724492E+01  0.00000000000E+00 0. -1.
        -13    1    5    5    0    0  0.56951028556E+03  0.19495422948E+03  0.24516232173E+01  0.60195940677E+03  0.00000000000E+00 0.  1.
          4    1    6    6  503    0 -0.41589271437E+01 -0.10422665119E+02 -0.18665795678E+02  0.21779360676E+02  0.00000000000E+00 0. -1.
         -4    1    6    6    0  503  0.32036279634E+03 -0.47862700392E+02 -0.85735273497E+03  0.91650252129E+03  0.00000000000E+00 0.  1.
<mgrwt>
<rscale>  0 0.22078533E+04</rscale>
<asrwt>0</asrwt>
<pdfrwt beam="1">  1        2 0.77467145E-01 0.22078533E+04</pdfrwt>
<pdfrwt beam="2">  1       -1 0.37233697E+00 0.22078533E+04</pdfrwt>
<totfact> 0.70275884E-01</totfact>
</mgrwt>
</event>
<event>
12    7  0.1730932E-007  0.1357952E+04  0.7818608E-02  0.8984830E-01
         -1   -1    0    0    0  501 -0.00000000000E+00  0.00000000000E+00  0.43415203349E+03  0.43415203349E+03  0.00000000000E+00 0.  1.
          2   -1    0    0  501    0  0.00000000000E+00 -0.00000000000E+00 -0.10618594434E+04  0.10618594434E+04  0.00000000000E+00 0. -1.
         24    2    1    2    0    0 -0.33699334822E+03 -0.58755764568E+02 -0.52254661885E+01  0.35124201990E+03  0.79541777888E+02 0.  0.
        254    2    1    2    0    0  0.33699334822E+03  0.58755764568E+02 -0.62248194373E+03  0.11447694570E+04  0.89777312434E+03 0.  0.
         23    2    4    4    0    0  0.48723878782E+03 -0.72315756996E+02 -0.74156923015E+03  0.89511360175E+03  0.93124818727E+02 0.  0.
         23    2    4    4    0    0 -0.15024543960E+03  0.13107152156E+03  0.11908728642E+03  0.24965585525E+03  0.91612381190E+02 0.  0.
          4    1    3    3  502    0 -0.12701722889E+03  0.76021906600E+01 -0.26599802214E+02  0.12999507381E+03  0.00000000000E+00 0. -1.
         -3    1    3    3    0  502 -0.20997611933E+03 -0.66357955228E+02  0.21374336026E+02  0.22124694609E+03  0.00000000000E+00 0.  1.
         13    1    5    5    0    0  0.25453140146E+03  0.91589080411E+01 -0.38297047381E+03  0.45993097714E+03  0.00000000000E+00 0. -1.
        -13    1    5    5    0    0  0.23270738636E+03 -0.81474665037E+02 -0.35859875635E+03  0.43518262461E+03  0.00000000000E+00 0.  1.
          2    1    6    6  503    0 -0.89639049548E+02  0.25311315792E+02  0.27284687065E+02  0.97058106613E+02  0.00000000000E+00 0. -1.
         -2    1    6    6    0  503 -0.60606390048E+02  0.10576020577E+03  0.91802599357E+02  0.15259774863E+03  0.00000000000E+00 0.  1.
<mgrwt>
<rscale>  0 0.13579520E+04</rscale>
<asrwt>0</asrwt>
<pdfrwt beam="1">  1        2 0.16336299E+00 0.13579520E+04</pdfrwt>
<pdfrwt beam="2">  1       -1 0.66792621E-01 0.13579520E+04</pdfrwt>
<totfact> 0.58193193E+01</totfact>
</mgrwt>
</event>
<event>
12    7  0.1730932E-007  0.2555164E+04  0.7818608E-02  0.8383592E-01
          2   -1    0    0  501    0  0.00000000000E+00  0.00000000000E+00  0.13298584811E+04  0.13298584811E+04  0.00000000000E+00 0. -1.
         -1   -1    0    0    0  501 -0.00000000000E+00 -0.00000000000E+00 -0.12273603539E+04  0.12273603539E+04  0.00000000000E+00 0.  1.
         24    2    1    2    0    0  0.87623606776E+03 -0.55299497369E+03  0.46482024855E+03  0.11385021353E+04  0.80846529596E+02 0.  0.
        254    2    1    2    0    0 -0.87623606776E+03  0.55299497369E+03 -0.36232212133E+03  0.14187166997E+04  0.89882515931E+03 0.  0.
         23    2    4    4    0    0  0.12069349049E+03  0.20940489049E+03 -0.24203799415E+03  0.35347916898E+03  0.89150465427E+02 0.  0.
         23    2    4    4    0    0 -0.99692955825E+03  0.34359008320E+03 -0.12028412718E+03  0.10652375307E+04  0.91323798570E+02 0.  0.
          2    1    3    3  502    0  0.82632920401E+03 -0.49949178488E+03  0.42225633346E+03  0.10538559710E+04  0.00000000000E+00 0. -1.
         -1    1    3    3    0  502  0.49906863749E+02 -0.53503188807E+02  0.42563915099E+02  0.84646164298E+02  0.00000000000E+00 0.  1.
         13    1    5    5    0    0  0.95626564544E+02  0.11942186290E+03 -0.19797114273E+03  0.25019711137E+03  0.00000000000E+00 0.  1.
        -13    1    5    5    0    0  0.25066925949E+02  0.89983027585E+02 -0.44066851414E+02  0.10328205761E+03  0.00000000000E+00 0. -1.
          4    1    6    6  503    0 -0.30247603105E+03  0.64370665279E+02 -0.17699665488E+02  0.30975572645E+03  0.00000000000E+00 0. -1.
         -4    1    6    6    0  503 -0.69445352720E+03  0.27921941792E+03 -0.10258446169E+03  0.75548180426E+03  0.00000000000E+00 0.  1.
<mgrwt>
<rscale>  0 0.25551639E+04</rscale>
<asrwt>0</asrwt>
<pdfrwt beam="1">  1        2 0.20459361E+00 0.25551639E+04</pdfrwt>
<pdfrwt beam="2">  1       -1 0.18882467E+00 0.25551639E+04</pdfrwt>
<totfact> 0.28935803E+00</totfact>
</mgrwt>
</event>
<event>
12    7  0.1730932E-007  0.1563049E+04  0.7818608E-02  0.8843576E-01
         -1   -1    0    0    0  501 -0.00000000000E+00  0.00000000000E+00  0.47827760888E+03  0.47827760888E+03  0.00000000000E+00 0.  1.
          2   -1    0    0  501    0  0.00000000000E+00 -0.00000000000E+00 -0.12770417495E+04  0.12770417495E+04  0.00000000000E+00 0. -1.
         24    2    1    2    0    0 -0.35875446704E+02 -0.16197181557E+03 -0.81994611820E+03  0.84041698898E+03  0.80418666330E+02 0.  0.
        254    2    1    2    0    0  0.35875446704E+02  0.16197181557E+03  0.21181977552E+02  0.91490236944E+03  0.89948638273E+03 0.  0.
         23    2    4    4    0    0  0.87761579654E+02 -0.34006070602E+03 -0.12071290909E+03  0.38268277125E+03  0.92364053321E+02 0.  0.
         23    2    4    4    0    0 -0.51886132950E+02  0.50203252159E+03  0.14189488664E+03  0.53221959819E+03  0.91622695422E+02 0.  0.
          2    1    3    3  502    0 -0.55606704638E+02 -0.68010465152E+02 -0.42280383596E+03  0.43183401056E+03  0.00000000000E+00 0. -1.
         -1    1    3    3    0  502  0.19731257933E+02 -0.93961350417E+02 -0.39714228224E+03  0.40858297842E+03  0.00000000000E+00 0.  1.
         13    1    5    5    0    0  0.13758191465E+02 -0.12545345721E+03 -0.13647931049E+01  0.12621299624E+03  0.00000000000E+00 0. -1.
        -13    1    5    5    0    0  0.74003388189E+02 -0.21460724881E+03 -0.11934811598E+03  0.25646977501E+03  0.00000000000E+00 0.  1.
          2    1    6    6  503    0 -0.61333051571E+02  0.35420061650E+03  0.13480387645E+03  0.38391653396E+03  0.00000000000E+00 0.  1.
         -2    1    6    6    0  503  0.94469186208E+01  0.14783190509E+03  0.70910101944E+01  0.14830306423E+03  0.00000000000E+00 0. -1.
<mgrwt>
<rscale>  0 0.15630489E+04</rscale>
<asrwt>0</asrwt>
<pdfrwt beam="1">  1        2 0.19646796E+00 0.15630489E+04</pdfrwt>
<pdfrwt beam="2">  1       -1 0.73581169E-01 0.15630489E+04</pdfrwt>
<totfact> 0.34784093E+01</totfact>
</mgrwt>
</event>
<event>
12    7  0.1730932E-007  0.3766729E+04  0.7818608E-02  0.8053333E-01
         -3   -1    0    0    0  501 -0.00000000000E+00  0.00000000000E+00  0.34097041239E+04  0.34097041239E+04  0.00000000000E+00 0.  1.
          4   -1    0    0  501    0  0.00000000000E+00 -0.00000000000E+00 -0.10402844371E+04  0.10402844371E+04  0.00000000000E+00 0. -1.
         24    2    1    2    0    0  0.79553525150E+03  0.11546146992E+04  0.24080912770E+04  0.27876672342E+04  0.78572068306E+02 0.  0.
        254    2    1    2    0    0 -0.79553525150E+03 -0.11546146992E+04 -0.38671590179E+02  0.16623213269E+04  0.89207917914E+03 0.  0.
         23    2    4    4    0    0 -0.86668872350E+03 -0.63478718131E+03  0.16595169546E+03  0.10914645572E+04  0.98238512635E+02 0.  0.
         23    2    4    4    0    0  0.71153471994E+02 -0.51982751790E+03 -0.20462328564E+03  0.57085676968E+03  0.93398594878E+02 0.  0.
          2    1    3    3  502    0  0.62037192436E+02  0.10975168163E+03  0.25753364896E+03  0.28673615958E+03  0.00000000000E+00 0. -1.
         -1    1    3    3    0  502  0.73349805907E+03  0.10448630176E+04  0.21505576281E+04  0.25009310746E+04  0.00000000000E+00 0.  1.
         13    1    5    5    0    0 -0.49437315356E+03 -0.34334094571E+03  0.45961612103E+02  0.60365577090E+03  0.00000000000E+00 0. -1.
        -13    1    5    5    0    0 -0.37231556994E+03 -0.29144623560E+03  0.11999008336E+03  0.48780878628E+03  0.00000000000E+00 0.  1.
          1    1    6    6  503    0  0.12608179483E+02 -0.40929780410E+02  0.80865775140E+01  0.43584467992E+02  0.00000000000E+00 0. -1.
         -1    1    6    6    0  503  0.58545292510E+02 -0.47889773749E+03 -0.21270986316E+03  0.52727230169E+03  0.00000000000E+00 0.  1.
<mgrwt>
<rscale>  0 0.37667292E+04</rscale>
<asrwt>0</asrwt>
<pdfrwt beam="1">  1        4 0.16004376E+00 0.37667292E+04</pdfrwt>
<pdfrwt beam="2">  1       -3 0.52456986E+00 0.37667292E+04</pdfrwt>
<totfact> 0.10265195E-03</totfact>
</mgrwt>
</event>
<event>
12    7  0.1730932E-007  0.4278459E+04  0.7818608E-02  0.7950613E-01
          2   -1    0    0  501    0  0.00000000000E+00  0.00000000000E+00  0.33259902938E+04  0.33259902938E+04  0.00000000000E+00 0. -1.
         -1   -1    0    0    0  501 -0.00000000000E+00 -0.00000000000E+00 -0.13759217446E+04  0.13759217446E+04  0.00000000000E+00 0.  1.
         24    2    1    2    0    0  0.39859442234E+03  0.18131589509E+04  0.18714928673E+04  0.26372704199E+04  0.79289472337E+02 0.  0.
        254    2    1    2    0    0 -0.39859442234E+03 -0.18131589509E+04  0.78575681851E+02  0.20646416185E+04  0.90008220739E+03 0.  0.
         23    2    4    4    0    0 -0.39488238300E+03 -0.20744130613E+03  0.17140559747E+02  0.45525797764E+03  0.89454097321E+02 0.  0.
         23    2    4    4    0    0 -0.37120393367E+01 -0.16057176448E+04  0.61435122104E+02  0.16093836408E+04  0.89434305775E+02 0.  0.
          2    1    3    3  502    0  0.16688932811E+03  0.81847658465E+03  0.78917051202E+03  0.11491501488E+04  0.00000000000E+00 0. -1.
         -1    1    3    3    0  502  0.23170509423E+03  0.99468236630E+03  0.10823223553E+04  0.14881202711E+04  0.00000000000E+00 0.  1.
         13    1    5    5    0    0 -0.16929144967E+03 -0.99753721738E+02 -0.35820258529E+02  0.19973354964E+03  0.00000000000E+00 0. -1.
        -13    1    5    5    0    0 -0.22559093333E+03 -0.10768758439E+03  0.52960818276E+02  0.25552442800E+03  0.00000000000E+00 0.  1.
          3    1    6    6  503    0 -0.28542683620E+02 -0.19713925856E+03 -0.11262812413E+01  0.19919799337E+03  0.00000000000E+00 0. -1.
         -3    1    6    6    0  503  0.24830644283E+02 -0.14085783863E+04  0.62561403345E+02  0.14101856475E+04  0.00000000000E+00 0.  1.
<mgrwt>
<rscale>  0 0.42784588E+04</rscale>
<asrwt>0</asrwt>
<pdfrwt beam="1">  1        2 0.51169081E+00 0.42784588E+04</pdfrwt>
<pdfrwt beam="2">  1       -1 0.21168027E+00 0.42784588E+04</pdfrwt>
<totfact> 0.11719410E-01</totfact>
</mgrwt>
</event>
<event>
12    7  0.1730932E-007  0.1658231E+04  0.7818608E-02  0.8785552E-01
         -3   -1    0    0    0  501 -0.00000000000E+00  0.00000000000E+00  0.77311492630E+03  0.77311492630E+03  0.00000000000E+00 0.  1.
          2   -1    0    0  501    0  0.00000000000E+00 -0.00000000000E+00 -0.88917296656E+03  0.88917296656E+03  0.00000000000E+00 0. -1.
         24    2    1    2    0    0  0.13614212462E+03  0.77274540335E+02 -0.60898652356E+03  0.63407455427E+03  0.81730788664E+02 0.  0.
        254    2    1    2    0    0 -0.13614212462E+03 -0.77274540335E+02  0.49292848330E+03  0.10282133386E+04  0.88867212588E+03 0.  0.
         23    2    4    4    0    0  0.15209669436E+03  0.29874555309E+03  0.41014507157E+03  0.53822931092E+03  0.95338877071E+02 0.  0.
         23    2    4    4    0    0 -0.28823881898E+03 -0.37602009342E+03  0.82783411732E+02  0.48998402767E+03  0.93587000654E+02 0.  0.
          4    1    3    3  502    0  0.13400942209E+03  0.54068277429E+02 -0.57490053480E+03  0.59278371160E+03  0.00000000000E+00 0. -1.
         -3    1    3    3    0  502  0.21327025290E+01  0.23206262907E+02 -0.34085988765E+02  0.41290842668E+02  0.00000000000E+00 0.  1.
         13    1    5    5    0    0  0.30109050115E+02  0.10199384895E+02  0.63419034458E+02  0.70940512281E+02  0.00000000000E+00 0.  1.
        -13    1    5    5    0    0  0.12198764424E+03  0.28854616819E+03  0.34672603711E+03  0.46728879864E+03  0.00000000000E+00 0. -1.
          4    1    6    6  503    0 -0.21112265607E+03 -0.22831972431E+03  0.88327994632E+02  0.32327156858E+03  0.00000000000E+00 0.  1.
         -4    1    6    6    0  503 -0.77116162906E+02 -0.14770036911E+03 -0.55445828996E+01  0.16671245909E+03  0.00000000000E+00 0. -1.
<mgrwt>
<rscale>  0 0.16582315E+04</rscale>
<asrwt>0</asrwt>
<pdfrwt beam="1">  1        2 0.13679584E+00 0.16582315E+04</pdfrwt>
<pdfrwt beam="2">  1       -3 0.11894076E+00 0.16582315E+04</pdfrwt>
<totfact> 0.10400459E+01</totfact>
</mgrwt>
</event>
<event>
12    7  0.1730932E-007  0.1064483E+04  0.7818608E-02  0.9240518E-01
         -1   -1    0    0    0  501 -0.00000000000E+00  0.00000000000E+00  0.29689275265E+03  0.29689275265E+03  0.00000000000E+00 0.  1.
          2   -1    0    0  501    0  0.00000000000E+00 -0.00000000000E+00 -0.95415213321E+03  0.95415213321E+03  0.00000000000E+00 0. -1.
         24    2    1    2    0    0 -0.36989192215E+02  0.12046137333E+03 -0.38538544402E+02  0.15271755457E+03  0.77189955709E+02 0.  0.
        254    2    1    2    0    0  0.36989192215E+02 -0.12046137333E+03 -0.61872083616E+03  0.10983273313E+04  0.89868142897E+03 0.  0.
         23    2    4    4    0    0  0.11204066520E+03  0.15925296421E+03 -0.73836221869E+03  0.76930605065E+03  0.93479496710E+02 0.  0.
         23    2    4    4    0    0 -0.75051472980E+02 -0.27971433754E+03  0.11964138254E+03  0.32902128064E+03  0.10033996451E+03 0.  0.
          4    1    3    3  502    0  0.96487367940E+01  0.93030378387E+02 -0.27592005703E+02  0.97514451254E+02  0.00000000000E+00 0. -1.
         -3    1    3    3    0  502 -0.46637929009E+02  0.27430994946E+02 -0.10946538699E+02  0.55203103314E+02  0.00000000000E+00 0.  1.
         13    1    5    5    0    0  0.14635658883E+02  0.67534256873E+02 -0.39118440620E+03  0.39724088161E+03  0.00000000000E+00 0. -1.
        -13    1    5    5    0    0  0.97405006312E+02  0.91718707334E+02 -0.34717781249E+03  0.37206516904E+03  0.00000000000E+00 0.  1.
          4    1    6    6  503    0 -0.83791580241E+02 -0.28052213386E+03  0.12543054442E+03  0.31850670005E+03  0.00000000000E+00 0. -1.
         -4    1    6    6    0  503  0.87401072605E+01  0.80779631774E+00 -0.57891618785E+01  0.10514580594E+02  0.00000000000E+00 0.  1.
<mgrwt>
<rscale>  0 0.10644827E+04</rscale>
<asrwt>0</asrwt>
<pdfrwt beam="1">  1        2 0.14679264E+00 0.10644827E+04</pdfrwt>
<pdfrwt beam="2">  1       -1 0.45675808E-01 0.10644827E+04</pdfrwt>
<totfact> 0.14572850E+02</totfact>
</mgrwt>
</event>
<event>
12    7  0.1730932E-007  0.1407410E+04  0.7818608E-02  0.8948472E-01
          2   -1    0    0  501    0  0.00000000000E+00  0.00000000000E+00  0.13115604503E+04  0.13115604503E+04  0.00000000000E+00 0. -1.
         -1   -1    0    0    0  501 -0.00000000000E+00 -0.00000000000E+00 -0.37756630801E+03  0.37756630801E+03  0.00000000000E+00 0.  1.
         24    2    1    2    0    0 -0.20193893043E+03  0.50053044920E+02  0.69822559299E+03  0.73309465718E+03  0.81388935069E+02 0.  0.
        254    2    1    2    0    0  0.20193893043E+03 -0.50053044920E+02  0.23576854926E+03  0.95603210110E+03  0.90284324807E+03 0.  0.
         23    2    4    4    0    0  0.20889623787E+03 -0.41858779699E+03 -0.52046411058E+02  0.47906522222E+03  0.89113838717E+02 0.  0.
         23    2    4    4    0    0 -0.69573074328E+01  0.36853475207E+03  0.28781496032E+03  0.47696687888E+03  0.93774647712E+02 0.  0.
          4    1    3    3  502    0 -0.17644666584E+03  0.60750883047E+02  0.66029272905E+03  0.68615638430E+03  0.00000000000E+00 0. -1.
         -3    1    3    3    0  502 -0.25492264590E+02 -0.10697838127E+02  0.37932863942E+02  0.46938272884E+02  0.00000000000E+00 0.  1.
         13    1    5    5    0    0  0.31192184457E+02 -0.11723872588E+03  0.16913609782E+02  0.12249057683E+03  0.00000000000E+00 0. -1.
        -13    1    5    5    0    0  0.17770405341E+03 -0.30134907111E+03 -0.68960020840E+02  0.35657464539E+03  0.00000000000E+00 0.  1.
          3    1    6    6  503    0 -0.13541390664E+02  0.99712741404E+02  0.31417776814E+02  0.10541857882E+03  0.00000000000E+00 0. -1.
         -3    1    6    6    0  503  0.65840832314E+01  0.26882201067E+03  0.25639718351E+03  0.37154830006E+03  0.00000000000E+00 0.  1.
<mgrwt>
<rscale>  0 0.14074104E+04</rscale>
<asrwt>0</asrwt>
<pdfrwt beam="1">  1        2 0.20177853E+00 0.14074104E+04</pdfrwt>
<pdfrwt beam="2">  1       -1 0.58087125E-01 0.14074104E+04</pdfrwt>
<totfact> 0.54191730E+01</totfact>
</mgrwt>
</event>
<event>
12    7  0.1730932E-007  0.1330030E+04  0.7818608E-02  0.9006085E-01
         -1   -1    0    0    0  501 -0.00000000000E+00  0.00000000000E+00  0.14422413475E+04  0.14422413475E+04  0.00000000000E+00 0.  1.
          2   -1    0    0  501    0  0.00000000000E+00 -0.00000000000E+00 -0.30663712817E+03  0.30663712817E+03  0.00000000000E+00 0. -1.
         24    2    1    2    0    0  0.19797211702E+03  0.24656791447E+03  0.95617275533E+02  0.33896730909E+03  0.75943911484E+02 0.  0.
        254    2    1    2    0    0 -0.19797211702E+03 -0.24656791447E+03  0.10399869438E+04  0.14099111666E+04  0.89793538677E+03 0.  0.
         23    2    4    4    0    0  0.34307383728E+03 -0.16180595005E+03  0.51360320404E+03  0.64527277999E+03  0.93316054879E+02 0.  0.
         23    2    4    4    0    0 -0.54104595430E+03 -0.84761964414E+02  0.52638373978E+03  0.76463838661E+03  0.87616810573E+02 0.  0.
          2    1    3    3  502    0  0.60788100302E+02  0.47449969187E+02 -0.45310585886E+01  0.77247803892E+02  0.00000000000E+00 0. -1.
         -1    1    3    3    0  502  0.13718401672E+03  0.19911794528E+03  0.10014833412E+03  0.26171950520E+03  0.00000000000E+00 0.  1.
         13    1    5    5    0    0  0.29826413564E+03 -0.10102298690E+03  0.42232073608E+03  0.52680351424E+03  0.00000000000E+00 0.  1.
        -13    1    5    5    0    0  0.44809701635E+02 -0.60782963153E+02  0.91282467962E+02  0.11846926575E+03  0.00000000000E+00 0. -1.
          4    1    6    6  503    0 -0.40430437426E+03 -0.34137199767E+02  0.35046493855E+03  0.53614648055E+03  0.00000000000E+00 0.  1.
         -4    1    6    6    0  503 -0.13674158004E+03 -0.50624764647E+02  0.17591880124E+03  0.22849190606E+03  0.00000000000E+00 0. -1.
<mgrwt>
<rscale>  0 0.13300297E+04</rscale>
<asrwt>0</asrwt>
<pdfrwt beam="1">  1        2 0.47174944E-01 0.13300297E+04</pdfrwt>
<pdfrwt beam="2">  1       -1 0.22188328E+00 0.13300297E+04</pdfrwt>
<totfact> 0.12837540E+01</totfact>
</mgrwt>
</event>
<event>
12    7  0.1730932E-007  0.1293733E+04  0.7818608E-02  0.9034550E-01
          2   -1    0    0  501    0  0.00000000000E+00  0.00000000000E+00  0.13302161230E+04  0.13302161230E+04  0.00000000000E+00 0. -1.
         -1   -1    0    0    0  501 -0.00000000000E+00 -0.00000000000E+00 -0.31456273752E+03  0.31456273752E+03  0.00000000000E+00 0.  1.
         24    2    1    2    0    0  0.42789438199E+02  0.28494865996E+03  0.44545164457E+03  0.53984288120E+03  0.99882400334E+02 0.  0.
        254    2    1    2    0    0 -0.42789438199E+02 -0.28494865996E+03  0.57020174092E+03  0.11049359793E+04  0.90151362620E+03 0.  0.
         23    2    4    4    0    0  0.15574980709E+03 -0.56369209967E+03  0.34440950656E+03  0.68474657623E+03  0.90847013203E+02 0.  0.
         23    2    4    4    0    0 -0.19853924529E+03  0.27874343970E+03  0.22579223436E+03  0.42018940310E+03  0.91985130770E+02 0.  0.
          2    1    3    3  502    0  0.53282529669E+02  0.28776953377E+03  0.43756934126E+03  0.52641928246E+03  0.00000000000E+00 0. -1.
         -1    1    3    3    0  502 -0.10493091470E+02 -0.28208738093E+01  0.78823033069E+01  0.13423598737E+02  0.00000000000E+00 0.  1.
         13    1    5    5    0    0  0.35596461932E+02 -0.29770736731E+03  0.18184765177E+03  0.35066415999E+03  0.00000000000E+00 0. -1.
        -13    1    5    5    0    0  0.12015334516E+03 -0.26598473236E+03  0.16256185479E+03  0.33408241624E+03  0.00000000000E+00 0.  1.
          1    1    6    6  503    0  0.47231754486E+01  0.39565386872E+02  0.17745930823E+02  0.43619333849E+02  0.00000000000E+00 0. -1.
         -1    1    6    6    0  503 -0.20326242074E+03  0.23917805283E+03  0.20804630354E+03  0.37657006925E+03  0.00000000000E+00 0.  1.
<mgrwt>
<rscale>  0 0.12937332E+04</rscale>
<asrwt>0</asrwt>
<pdfrwt beam="1">  1        2 0.20464863E+00 0.12937332E+04</pdfrwt>
<pdfrwt beam="2">  1       -1 0.48394268E-01 0.12937332E+04</pdfrwt>
<totfact> 0.75757303E+01</totfact>
</mgrwt>
</event>
<event>
12    7  0.1730932E-007  0.1782985E+04  0.7818608E-02  0.8715401E-01
          2   -1    0    0  501    0  0.00000000000E+00  0.00000000000E+00  0.30714046827E+04  0.30714046827E+04  0.00000000000E+00 0. -1.
         -1   -1    0    0    0  501 -0.00000000000E+00 -0.00000000000E+00 -0.25876059096E+03  0.25876059096E+03  0.00000000000E+00 0.  1.
         24    2    1    2    0    0 -0.38749060854E+03 -0.41580195212E+02  0.20415275037E+04  0.20799926664E+04  0.81590806083E+02 0.  0.
        254    2    1    2    0    0  0.38749060854E+03  0.41580195212E+02  0.77111658806E+03  0.12501726073E+04  0.90356674975E+03 0.  0.
         23    2    4    4    0    0  0.62993343786E+03 -0.15903462382E+03  0.52780206190E+03  0.84173165565E+03  0.88481726155E+02 0.  0.
         23    2    4    4    0    0 -0.24244282933E+03  0.20061481903E+03  0.24331452616E+03  0.40844095163E+03  0.92721201545E+02 0.  0.
          2    1    3    3  502    0 -0.35844295360E+03 -0.53199211643E+02  0.19466451422E+04  0.19800855580E+04  0.00000000000E+00 0. -1.
         -1    1    3    3    0  502 -0.29047654940E+02  0.11619016431E+02  0.94882361488E+02  0.99907108465E+02  0.00000000000E+00 0.  1.
         13    1    5    5    0    0  0.15558662529E+03 -0.46411680203E+02  0.85678549336E+02  0.18358119687E+03  0.00000000000E+00 0. -1.
        -13    1    5    5    0    0  0.47434681258E+03 -0.11262294362E+03  0.44212351256E+03  0.65815045878E+03  0.00000000000E+00 0.  1.
          3    1    6    6  503    0 -0.25325418444E+02  0.70039732317E+02  0.61679144782E+02  0.96701901861E+02  0.00000000000E+00 0. -1.
         -3    1    6    6    0  503 -0.21711741088E+03  0.13057508671E+03  0.18163538138E+03  0.31173904977E+03  0.00000000000E+00 0.  1.
<mgrwt>
<rscale>  0 0.17829846E+04</rscale>
<asrwt>0</asrwt>
<pdfrwt beam="1">  1        2 0.47252377E+00 0.17829846E+04</pdfrwt>
<pdfrwt beam="2">  1       -1 0.39809324E-01 0.17829846E+04</pdfrwt>
<totfact> 0.10426087E+01</totfact>
</mgrwt>
</event>
<event>
12    7  0.1730932E-007  0.1114879E+04  0.7818608E-02  0.9190810E-01
         -1   -1    0    0    0  501 -0.00000000000E+00  0.00000000000E+00  0.30781239351E+03  0.30781239351E+03  0.00000000000E+00 0.  1.
          2   -1    0    0  501    0  0.00000000000E+00 -0.00000000000E+00 -0.10095076065E+04  0.10095076065E+04  0.00000000000E+00 0. -1.
         24    2    1    2    0    0 -0.11934838467E+03  0.70735995808E+02 -0.30972693125E+03  0.34823809586E+03  0.78047302615E+02 0.  0.
        254    2    1    2    0    0  0.11934838467E+03 -0.70735995808E+02 -0.39196828176E+03  0.96908190416E+03  0.87534735108E+03 0.  0.
         23    2    4    4    0    0 -0.28604822986E+03 -0.27931379443E+03 -0.10704212300E+03  0.42366932422E+03  0.90542225674E+02 0.  0.
         23    2    4    4    0    0  0.40539661452E+03  0.20857779862E+03 -0.28492615875E+03  0.54541257994E+03  0.91874116436E+02 0.  0.
          2    1    3    3  502    0 -0.11118815773E+03  0.36828889622E+02 -0.27553776522E+03  0.29939978890E+03  0.00000000000E+00 0. -1.
         -1    1    3    3    0  502 -0.81602269386E+01  0.33907106185E+02 -0.34189166024E+02  0.48838306963E+02  0.00000000000E+00 0.  1.
         13    1    5    5    0    0 -0.99768751765E+02 -0.12027643146E+03 -0.84622195675E+02  0.17771083196E+03  0.00000000000E+00 0.  1.
        -13    1    5    5    0    0 -0.18627947809E+03 -0.15903736296E+03 -0.22419927329E+02  0.24595849226E+03  0.00000000000E+00 0. -1.
          3    1    6    6  503    0  0.29025934465E+03  0.13118254962E+03 -0.24252002368E+03  0.40034399004E+03  0.00000000000E+00 0. -1.
         -3    1    6    6    0  503  0.11513726988E+03  0.77395248999E+02 -0.42406135074E+02  0.14506858989E+03  0.00000000000E+00 0.  1.
<mgrwt>
<rscale>  0 0.11148793E+04</rscale>
<asrwt>0</asrwt>
<pdfrwt beam="1">  1        2 0.15530886E+00 0.11148793E+04</pdfrwt>
<pdfrwt beam="2">  1       -1 0.47355753E-01 0.11148793E+04</pdfrwt>
<totfact> 0.12497640E+02</totfact>
</mgrwt>
</event>
<event>
12    7  0.1730932E-007  0.1846435E+04  0.7818608E-02  0.8681989E-01
          2   -1    0    0  501    0  0.00000000000E+00  0.00000000000E+00  0.21301118543E+04  0.21301118543E+04  0.00000000000E+00 0. -1.
         -1   -1    0    0    0  501 -0.00000000000E+00 -0.00000000000E+00 -0.40013399756E+03  0.40013399756E+03  0.00000000000E+00 0.  1.
         24    2    1    2    0    0  0.61874264482E+03 -0.97471480285E+02  0.22421205259E+03  0.66989776886E+03  0.78414451535E+02 0.  0.
        254    2    1    2    0    0 -0.61874264482E+03  0.97471480285E+02  0.15057658041E+04  0.18603480830E+04  0.89510959271E+03 0.  0.
         23    2    4    4    0    0 -0.72296682763E+03 -0.17418209030E+03  0.12703943402E+04  0.14749054942E+04  0.91782365334E+02 0.  0.
         23    2    4    4    0    0  0.10422418281E+03  0.27165357059E+03  0.23537146390E+03  0.38544258882E+03  0.92238389823E+02 0.  0.
          2    1    3    3  502    0  0.12135605510E+03 -0.93934226033E+01  0.13066292683E+02  0.12241836668E+03  0.00000000000E+00 0. -1.
         -1    1    3    3    0  502  0.49738658972E+03 -0.88078057682E+02  0.21114575991E+03  0.54747940218E+03  0.00000000000E+00 0.  1.
         13    1    5    5    0    0 -0.61636571486E+03 -0.17978658905E+03  0.10699085208E+04  0.12477716758E+04  0.00000000000E+00 0. -1.
        -13    1    5    5    0    0 -0.10660111277E+03  0.56044987437E+01  0.20048581943E+03  0.22713381836E+03  0.00000000000E+00 0.  1.
          3    1    6    6  503    0  0.46617464797E+02  0.22858662150E+03  0.18147367597E+03  0.29556340542E+03  0.00000000000E+00 0. -1.
         -3    1    6    6    0  503  0.57606718015E+02  0.43066949094E+02  0.53897787932E+02  0.89879183400E+02  0.00000000000E+00 0.  1.
<mgrwt>
<rscale>  0 0.18464346E+04</rscale>
<asrwt>0</asrwt>
<pdfrwt beam="1">  1        2 0.32770951E+00 0.18464346E+04</pdfrwt>
<pdfrwt beam="2">  1       -1 0.61559078E-01 0.18464346E+04</pdfrwt>
<totfact> 0.16204164E+01</totfact>
</mgrwt>
</event>
<event>
12    7  0.1730932E-007  0.1447679E+04  0.7818608E-02  0.8920011E-01
         -1   -1    0    0    0  501 -0.00000000000E+00  0.00000000000E+00  0.40389523507E+03  0.40389523507E+03  0.00000000000E+00 0.  1.
          2   -1    0    0  501    0  0.00000000000E+00 -0.00000000000E+00 -0.12972257798E+04  0.12972257798E+04  0.00000000000E+00 0. -1.
         24    2    1    2    0    0 -0.48849480464E+01  0.10935503366E+03 -0.77928188916E+03  0.79241757507E+03  0.93075047133E+02 0.  0.
        254    2    1    2    0    0  0.48849480464E+01 -0.10935503366E+03 -0.11404865553E+03  0.90870343976E+03  0.89484772979E+03 0.  0.
         23    2    4    4    0    0 -0.83730507115E+02 -0.48451574478E+03 -0.10763715665E+03  0.51175934570E+03  0.92442228757E+02 0.  0.
         23    2    4    4    0    0  0.88615455161E+02  0.37516071112E+03 -0.64114988790E+01  0.39694409407E+03  0.94473532991E+02 0.  0.
          4    1    3    3  502    0 -0.24824939441E+02  0.82904584714E+02 -0.71387205844E+03  0.71909857711E+03  0.00000000000E+00 0. -1.
         -3    1    3    3    0  502  0.19939991394E+02  0.26450448946E+02 -0.65409830723E+02  0.73318997957E+02  0.00000000000E+00 0.  1.
         13    1    5    5    0    0 -0.96716774412E+02 -0.41500575810E+03 -0.70603867902E+02  0.43193612939E+03  0.00000000000E+00 0. -1.
        -13    1    5    5    0    0  0.12986267297E+02 -0.69509986682E+02 -0.37033288750E+02  0.79823216312E+02  0.00000000000E+00 0.  1.
          1    1    6    6  503    0  0.47825974303E+02  0.13858971200E+03 -0.45963547827E+02  0.15364595608E+03  0.00000000000E+00 0. -1.
         -1    1    6    6    0  503  0.40789480858E+02  0.23657099912E+03  0.39552048948E+02  0.24329813799E+03  0.00000000000E+00 0.  1.
<mgrwt>
<rscale>  0 0.14476786E+04</rscale>
<asrwt>0</asrwt>
<pdfrwt beam="1">  1        2 0.19957320E+00 0.14476786E+04</pdfrwt>
<pdfrwt beam="2">  1       -1 0.62137729E-01 0.14476786E+04</pdfrwt>
<totfact> 0.48195348E+01</totfact>
</mgrwt>
</event>
<event>
12    7  0.1730932E-007  0.1712262E+04  0.7818608E-02  0.8754402E-01
         -1   -1    0    0    0  501 -0.00000000000E+00  0.00000000000E+00  0.87565294208E+03  0.87565294208E+03  0.00000000000E+00 0.  1.
          2   -1    0    0  501    0  0.00000000000E+00 -0.00000000000E+00 -0.83704397066E+03  0.83704397066E+03  0.00000000000E+00 0. -1.
         24    2    1    2    0    0  0.58441182299E+03 -0.20374471707E+03  0.12342370672E+03  0.63607980824E+03  0.79467115733E+02 0.  0.
        254    2    1    2    0    0 -0.58441182299E+03  0.20374471707E+03 -0.84814735301E+02  0.10766171045E+04  0.87684762746E+03 0.  0.
         23    2    4    4    0    0 -0.36585560825E+03  0.21901354781E+03 -0.45939704920E+03  0.63335164931E+03  0.90947252051E+02 0.  0.
         23    2    4    4    0    0 -0.21855621474E+03 -0.15268830733E+02  0.37458231390E+03  0.44326545519E+03  0.90401314645E+02 0.  0.
          4    1    3    3  502    0  0.23785452381E+03 -0.10568851630E+03  0.18451238034E+02  0.26093157179E+03  0.00000000000E+00 0. -1.
         -3    1    3    3    0  502  0.34655729918E+03 -0.98056200778E+02  0.10497246869E+03  0.37514823645E+03  0.00000000000E+00 0.  1.
         13    1    5    5    0    0 -0.16571469284E+03  0.11473356567E+03 -0.28029738440E+03  0.34524161715E+03  0.00000000000E+00 0. -1.
        -13    1    5    5    0    0 -0.20014091541E+03  0.10427998214E+03 -0.17909966480E+03  0.28811003215E+03  0.00000000000E+00 0.  1.
          2    1    6    6  503    0 -0.18968939893E+03 -0.76156715279E+01  0.36581409866E+03  0.41214077850E+03  0.00000000000E+00 0. -1.
         -2    1    6    6    0  503 -0.28866815815E+02 -0.76531592050E+01  0.87682152312E+01  0.31124676696E+02  0.00000000000E+00 0.  1.
<mgrwt>
<rscale>  0 0.17122617E+04</rscale>
<asrwt>0</asrwt>
<pdfrwt beam="1">  1        2 0.12877600E+00 0.17122617E+04</pdfrwt>
<pdfrwt beam="2">  1       -1 0.13471584E+00 0.17122617E+04</pdfrwt>
<totfact> 0.16290343E+01</totfact>
</mgrwt>
</event>
<event>
12    7  0.1730932E-007  0.1910589E+04  0.7818608E-02  0.8649603E-01
          2   -1    0    0  501    0  0.00000000000E+00  0.00000000000E+00  0.35595497586E+04  0.35595497586E+04  0.00000000000E+00 0. -1.
         -1   -1    0    0    0  501 -0.00000000000E+00 -0.00000000000E+00 -0.25637729053E+03  0.25637729053E+03  0.00000000000E+00 0.  1.
         24    2    1    2    0    0 -0.38600707552E+03  0.64074914155E+03  0.15348823794E+04  0.17093157359E+04  0.79595487787E+02 0.  0.
        254    2    1    2    0    0  0.38600707552E+03 -0.64074914155E+03  0.17682900886E+04  0.21066113132E+04  0.86683358410E+03 0.  0.
         23    2    4    4    0    0 -0.27855634191E+02 -0.63084248011E+03  0.65093964960E+03  0.91146890186E+03  0.91186405625E+02 0.  0.
         23    2    4    4    0    0  0.41386270971E+03 -0.99066614433E+01  0.11173504390E+04  0.11951424113E+04  0.92265352677E+02 0.  0.
          2    1    3    3  502    0 -0.20642738076E+03  0.40346844175E+03  0.97825797241E+03  0.10781408570E+04  0.00000000000E+00 0. -1.
         -1    1    3    3    0  502 -0.17957969475E+03  0.23728069980E+03  0.55662440700E+03  0.63117487889E+03  0.00000000000E+00 0.  1.
         13    1    5    5    0    0 -0.17254540611E+02 -0.17558385267E+03  0.24152866509E+03  0.29910450439E+03  0.00000000000E+00 0.  1.
        -13    1    5    5    0    0 -0.10601093580E+02 -0.45525862744E+03  0.40941098451E+03  0.61236439747E+03  0.00000000000E+00 0. -1.
          2    1    6    6  503    0  0.34033874130E+03  0.13816770652E+02  0.98065221983E+03  0.10381233733E+04  0.00000000000E+00 0. -1.
         -2    1    6    6    0  503  0.73523968409E+02 -0.23723432096E+02  0.13669821920E+03  0.15701903800E+03  0.00000000000E+00 0.  1.
<mgrwt>
<rscale>  0 0.19105891E+04</rscale>
<asrwt>0</asrwt>
<pdfrwt beam="1">  1        2 0.54762301E+00 0.19105891E+04</pdfrwt>
<pdfrwt beam="2">  1       -1 0.39442663E-01 0.19105891E+04</pdfrwt>
<totfact> 0.49483850E+00</totfact>
</mgrwt>
</event>
<event>
12    7  0.1730932E-007  0.2484687E+04  0.7818608E-02  0.8408461E-01
         -1   -1    0    0    0  501 -0.00000000000E+00  0.00000000000E+00  0.52847065682E+03  0.52847065682E+03  0.00000000000E+00 0.  1.
          2   -1    0    0  501    0  0.00000000000E+00 -0.00000000000E+00 -0.29205351406E+04  0.29205351406E+04  0.00000000000E+00 0. -1.
         24    2    1    2    0    0  0.50532133003E+03  0.95261789343E+03 -0.11377511698E+04  0.15696279735E+04  0.80148320560E+02 0.  0.
        254    2    1    2    0    0 -0.50532133003E+03 -0.95261789343E+03 -0.12543133140E+04  0.18793778240E+04  0.89214831618E+03 0.  0.
         23    2    4    4    0    0 -0.16883040566E+03 -0.31044618953E+03 -0.10630721698E+04  0.11240002833E+04  0.91507684032E+02 0.  0.
         23    2    4    4    0    0 -0.33649092438E+03 -0.64217170389E+03 -0.19124114423E+03  0.75537754067E+03  0.91713762481E+02 0.  0.
          4    1    3    3  502    0  0.34319412980E+03  0.57779387779E+03 -0.73856108605E+03  0.99854917443E+03  0.00000000000E+00 0. -1.
         -3    1    3    3    0  502  0.16212720024E+03  0.37482401564E+03 -0.39919008375E+03  0.57107879904E+03  0.00000000000E+00 0.  1.
         13    1    5    5    0    0 -0.14207137019E+03 -0.21071905331E+03 -0.64244768017E+03  0.69088770101E+03  0.00000000000E+00 0. -1.
        -13    1    5    5    0    0 -0.26759035464E+02 -0.99727136218E+02 -0.42062448960E+03  0.43311258228E+03  0.00000000000E+00 0.  1.
          4    1    6    6  503    0 -0.33064225394E+03 -0.64116887031E+03 -0.18135804658E+03  0.74384982450E+03  0.00000000000E+00 0. -1.
         -4    1    6    6    0  503 -0.58486704370E+01 -0.10028335871E+01 -0.98830976446E+01  0.11527716172E+02  0.00000000000E+00 0.  1.
<mgrwt>
<rscale>  0 0.24846868E+04</rscale>
<asrwt>0</asrwt>
<pdfrwt beam="1">  1        2 0.44931310E+00 0.24846868E+04</pdfrwt>
<pdfrwt beam="2">  1       -1 0.81303178E-01 0.24846868E+04</pdfrwt>
<totfact> 0.29866050E+00</totfact>
</mgrwt>
</event>
<event>
12    7  0.1730932E-007  0.1378881E+04  0.7818608E-02  0.8969249E-01
          2   -1    0    0  501    0  0.00000000000E+00  0.00000000000E+00  0.10181149601E+04  0.10181149601E+04  0.00000000000E+00 0. -1.
         -1   -1    0    0    0  501 -0.00000000000E+00 -0.00000000000E+00 -0.46687089514E+03  0.46687089514E+03  0.00000000000E+00 0.  1.
         24    2    1    2    0    0  0.17413100213E+03  0.33568579054E+03  0.19384261165E+03  0.43265140558E+03  0.81275610005E+02 0.  0.
        254    2    1    2    0    0 -0.17413100213E+03 -0.33568579054E+03  0.35740145327E+03  0.10523344496E+04  0.91469417795E+03 0.  0.
         23    2    4    4    0    0  0.20853471319E+03  0.13711523706E+02  0.46263149332E+03  0.51588550488E+03  0.91843470333E+02 0.  0.
         23    2    4    4    0    0 -0.38266571532E+03 -0.34939731425E+03 -0.10523004005E+03  0.53644894474E+03  0.90512850485E+02 0.  0.
          4    1    3    3  502    0  0.16103532573E+03  0.25966777967E+03  0.17893348167E+03  0.35408603869E+03  0.00000000000E+00 0. -1.
         -3    1    3    3    0  502  0.13095676395E+02  0.76018010867E+02  0.14909129978E+02  0.78565366881E+02  0.00000000000E+00 0.  1.
         13    1    5    5    0    0  0.20099513173E+03 -0.11493565453E+02  0.39573022458E+03  0.44399724737E+03  0.00000000000E+00 0.  1.
        -13    1    5    5    0    0  0.75395814553E+01  0.25205089159E+02  0.66901268737E+02  0.71888257501E+02  0.00000000000E+00 0. -1.
          2    1    6    6  503    0 -0.17416685381E+02 -0.22404562914E+02 -0.28546718189E+02  0.40251962540E+02  0.00000000000E+00 0. -1.
         -2    1    6    6    0  503 -0.36524902993E+03 -0.32699275133E+03 -0.76683321863E+02  0.49619698220E+03  0.00000000000E+00 0.  1.
<mgrwt>
<rscale>  0 0.13788811E+04</rscale>
<asrwt>0</asrwt>
<pdfrwt beam="1">  1        2 0.15663307E+00 0.13788811E+04</pdfrwt>
<pdfrwt beam="2">  1       -1 0.71826292E-01 0.13788811E+04</pdfrwt>
<totfact> 0.53363830E+01</totfact>
</mgrwt>
</event>
<event>
12    7  0.1730932E-007  0.1315495E+04  0.7818608E-02  0.9017367E-01
         -1   -1    0    0    0  501 -0.00000000000E+00  0.00000000000E+00  0.31635883388E+03  0.31635883388E+03  0.00000000000E+00 0.  1.
          2   -1    0    0  501    0  0.00000000000E+00 -0.00000000000E+00 -0.13675359560E+04  0.13675359560E+04  0.00000000000E+00 0. -1.
         24    2    1    2    0    0  0.15001540835E+03  0.21141308008E+02 -0.69481453115E+03  0.71550351901E+03  0.78908018462E+02 0.  0.
        254    2    1    2    0    0 -0.15001540835E+03 -0.21141308008E+02 -0.35636259097E+03  0.96839127086E+03  0.88760113767E+03 0.  0.
         23    2    4    4    0    0 -0.48560360231E+02  0.33992783367E+03  0.10206894052E+03  0.36912027182E+03  0.89009357675E+02 0.  0.
         23    2    4    4    0    0 -0.10145504812E+03 -0.36106914168E+03 -0.45843153150E+03  0.59927099904E+03  0.91116460421E+02 0.  0.
          4    1    3    3  502    0  0.62715600887E+02 -0.25585043517E+02 -0.20903292854E+03  0.21973303407E+03  0.00000000000E+00 0. -1.
         -3    1    3    3    0  502  0.87299807461E+02  0.46726351525E+02 -0.48578160261E+03  0.49577048495E+03  0.00000000000E+00 0.  1.
         13    1    5    5    0    0  0.21311746203E+02  0.29054160334E+02  0.82321848691E+01  0.36960839096E+02  0.00000000000E+00 0. -1.
        -13    1    5    5    0    0 -0.69872106434E+02  0.31087367334E+03  0.93836755655E+02  0.33215943272E+03  0.00000000000E+00 0.  1.
          1    1    6    6  503    0 -0.35577426620E+02 -0.49896310685E+02 -0.38101904475E+02  0.72160586399E+02  0.00000000000E+00 0. -1.
         -1    1    6    6    0  503 -0.65877621497E+02 -0.31117283100E+03 -0.42032962702E+03  0.52711041264E+03  0.00000000000E+00 0.  1.
<mgrwt>
<rscale>  0 0.13154955E+04</rscale>
<asrwt>0</asrwt>
<pdfrwt beam="1">  1        2 0.21039015E+00 0.13154955E+04</pdfrwt>
<pdfrwt beam="2">  1       -1 0.48670589E-01 0.13154955E+04</pdfrwt>
<totfact> 0.71202296E+01</totfact>
</mgrwt>
</event>
<event>
12    7  0.1730932E-007  0.1416130E+04  0.7818608E-02  0.8942225E-01
         -1   -1    0    0    0  501 -0.00000000000E+00  0.00000000000E+00  0.40799135793E+03  0.40799135793E+03  0.00000000000E+00 0.  1.
          2   -1    0    0  501    0  0.00000000000E+00 -0.00000000000E+00 -0.12288403829E+04  0.12288403829E+04  0.00000000000E+00 0. -1.
         24    2    1    2    0    0  0.57962716141E+02 -0.22321934495E+03 -0.64788973164E+03  0.69240966762E+03  0.80520128054E+02 0.  0.
        254    2    1    2    0    0 -0.57962716141E+02  0.22321934495E+03 -0.17295929336E+03  0.94442207324E+03  0.89935064510E+03 0.  0.
         23    2    4    4    0    0  0.33362922985E+03  0.35501866134E+03 -0.16327377731E+03  0.52130200654E+03  0.88038302758E+02 0.  0.
         23    2    4    4    0    0 -0.39159194599E+03 -0.13179931639E+03 -0.96855160498E+01  0.42312006670E+03  0.90672320252E+02 0.  0.
          2    1    3    3  502    0  0.78585313018E+02 -0.17697111927E+03 -0.51468976502E+03  0.54990906766E+03  0.00000000000E+00 0. -1.
         -1    1    3    3    0  502 -0.20622596877E+02 -0.46248225679E+02 -0.13319996662E+03  0.14250059996E+03  0.00000000000E+00 0.  1.
         13    1    5    5    0    0  0.90793038087E+02  0.71508240810E+02 -0.74806808334E+02  0.13766939690E+03  0.00000000000E+00 0. -1.
        -13    1    5    5    0    0  0.24283619176E+03  0.28351042053E+03 -0.88466968972E+02  0.38363260964E+03  0.00000000000E+00 0.  1.
          2    1    6    6  503    0 -0.16874136128E+03 -0.81063972008E+02  0.34444773170E+02  0.19034562501E+03  0.00000000000E+00 0. -1.
         -2    1    6    6    0  503 -0.22285058472E+03 -0.50735344384E+02 -0.44130289220E+02  0.23277444169E+03  0.00000000000E+00 0.  1.
<mgrwt>
<rscale>  0 0.14161303E+04</rscale>
<asrwt>0</asrwt>
<pdfrwt beam="1">  1        2 0.18905237E+00 0.14161303E+04</pdfrwt>
<pdfrwt beam="2">  1       -1 0.62767901E-01 0.14161303E+04</pdfrwt>
<totfact> 0.51949919E+01</totfact>
</mgrwt>
</event>
<event>
12    7  0.1730932E-007  0.2051916E+04  0.7818608E-02  0.8582726E-01
          2   -1    0    0  501    0  0.00000000000E+00  0.00000000000E+00  0.53446837808E+03  0.53446837808E+03  0.00000000000E+00 0. -1.
         -1   -1    0    0    0  501 -0.00000000000E+00 -0.00000000000E+00 -0.19694136535E+04  0.19694136535E+04  0.00000000000E+00 0.  1.
         24    2    1    2    0    0  0.57961083308E+02 -0.78082487308E+03 -0.87383040972E+03  0.11761483702E+04  0.81843961783E+02 0.  0.
        254    2    1    2    0    0 -0.57961083308E+02  0.78082487308E+03 -0.56111486572E+03  0.13277336614E+04  0.91377229854E+03 0.  0.
         23    2    4    4    0    0 -0.11917332180E+03 -0.11049280997E+03  0.10050644159E+03  0.21227030139E+03  0.92445629256E+02 0.  0.
         23    2    4    4    0    0  0.61212238495E+02  0.89131768305E+03 -0.66162130730E+03  0.11154633600E+04  0.91222821004E+02 0.  0.
          2    1    3    3  502    0 -0.20589456045E+02 -0.12767003491E+03 -0.13829718144E+03  0.18934010117E+03  0.00000000000E+00 0. -1.
         -1    1    3    3    0  502  0.78550539352E+02 -0.65315483817E+03 -0.73553322828E+03  0.98680826900E+03  0.00000000000E+00 0.  1.
         13    1    5    5    0    0  0.98414786029E+01 -0.32405095780E+02  0.62711750756E+01  0.34442307855E+02  0.00000000000E+00 0. -1.
        -13    1    5    5    0    0 -0.12901480041E+03 -0.78087714189E+02  0.94235266510E+02  0.17782799354E+03  0.00000000000E+00 0.  1.
          1    1    6    6  503    0  0.68612933824E+01  0.64681844140E+03 -0.45639120326E+03  0.79165276725E+03  0.00000000000E+00 0. -1.
         -1    1    6    6    0  503  0.54350945113E+02  0.24449924164E+03 -0.20523010404E+03  0.32381059279E+03  0.00000000000E+00 0.  1.
<mgrwt>
<rscale>  0 0.20519155E+04</rscale>
<asrwt>0</asrwt>
<pdfrwt beam="1">  1        2 0.82225905E-01 0.20519155E+04</pdfrwt>
<pdfrwt beam="2">  1       -1 0.30298671E+00 0.20519155E+04</pdfrwt>
<totfact> 0.19018219E+00</totfact>
</mgrwt>
</event>
<event>
12    7  0.1730932E-007  0.2210318E+04  0.7818608E-02  0.8514146E-01
         -1   -1    0    0    0  501 -0.00000000000E+00  0.00000000000E+00  0.12668519817E+04  0.12668519817E+04  0.00000000000E+00 0.  1.
          2   -1    0    0  501    0  0.00000000000E+00 -0.00000000000E+00 -0.96410346052E+03  0.96410346052E+03  0.00000000000E+00 0. -1.
         24    2    1    2    0    0  0.17680807990E+03 -0.59045778078E+02 -0.78603156899E+03  0.81152815859E+03  0.77361642339E+02 0.  0.
        254    2    1    2    0    0 -0.17680807990E+03  0.59045778078E+02  0.10887800902E+04  0.14194272837E+04  0.89139454103E+03 0.  0.
         23    2    4    4    0    0  0.17282515041E+03 -0.12254335024E+03  0.97297575735E+03  0.99999158214E+03  0.91738403425E+02 0.  0.
         23    2    4    4    0    0 -0.34963323030E+03  0.18158912831E+03  0.11580433284E+03  0.41943570152E+03  0.85426324690E+02 0.  0.
          4    1    3    3  502    0  0.60916188113E+02 -0.12273165408E+02 -0.42407726463E+03  0.42860580834E+03  0.00000000000E+00 0. -1.
         -3    1    3    3    0  502  0.11589189178E+03 -0.46772612671E+02 -0.36195430436E+03  0.38292235025E+03  0.00000000000E+00 0.  1.
         13    1    5    5    0    0  0.15551860921E+03 -0.91421774198E+02  0.63447774414E+03  0.65962564111E+03  0.00000000000E+00 0.  1.
        -13    1    5    5    0    0  0.17306541196E+02 -0.31121576038E+02  0.33849801321E+03  0.34036594103E+03  0.00000000000E+00 0. -1.
          3    1    6    6  503    0 -0.68713673715E+02  0.77019147493E+02  0.34930092216E+02  0.10896618456E+03  0.00000000000E+00 0. -1.
         -3    1    6    6    0  503 -0.28091955659E+03  0.10456998082E+03  0.80874240622E+02  0.31046951695E+03  0.00000000000E+00 0.  1.
<mgrwt>
<rscale>  0 0.22103180E+04</rscale>
<asrwt>0</asrwt>
<pdfrwt beam="1">  1        2 0.14832361E+00 0.22103180E+04</pdfrwt>
<pdfrwt beam="2">  1       -1 0.19490030E+00 0.22103180E+04</pdfrwt>
<totfact> 0.45198224E+00</totfact>
</mgrwt>
</event>
<event>
12    7  0.1730932E-007  0.2658572E+04  0.7818608E-02  0.8348573E-01
         -1   -1    0    0    0  501 -0.00000000000E+00  0.00000000000E+00  0.41859433222E+04  0.41859433222E+04  0.00000000000E+00 0.  1.
          2   -1    0    0  501    0  0.00000000000E+00 -0.00000000000E+00 -0.42212731265E+03  0.42212731265E+03  0.00000000000E+00 0. -1.
         24    2    1    2    0    0 -0.99684585246E+03 -0.45894447481E+03  0.24032493814E+04  0.26431470541E+04  0.79291081821E+02 0.  0.
        254    2    1    2    0    0  0.99684585246E+03  0.45894447481E+03  0.13605666282E+04  0.19649235808E+04  0.89746946701E+03 0.  0.
         23    2    4    4    0    0  0.57993749649E+03  0.44122322197E+03  0.13510076565E+04  0.15376569073E+04  0.90341824900E+02 0.  0.
         23    2    4    4    0    0  0.41690835597E+03  0.17721252833E+02  0.95589717119E+01  0.42726667350E+03  0.91317119245E+02 0.  0.
          4    1    3    3  502    0 -0.30540282248E+03 -0.14271801195E+03  0.82841209014E+03  0.89437458931E+03  0.00000000000E+00 0. -1.
         -3    1    3    3    0  502 -0.69144302998E+03 -0.31622646286E+03  0.15748372913E+04  0.17487724647E+04  0.00000000000E+00 0.  1.
         13    1    5    5    0    0  0.27909725197E+03  0.24410841376E+03  0.60730886239E+03  0.71155340492E+03  0.00000000000E+00 0. -1.
        -13    1    5    5    0    0  0.30084024452E+03  0.19711480821E+03  0.74369879408E+03  0.82610350239E+03  0.00000000000E+00 0.  1.
          3    1    6    6  503    0  0.30035148168E+03  0.48361876506E+02 -0.13688535557E+02  0.30452792919E+03  0.00000000000E+00 0. -1.
         -3    1    6    6    0  503  0.11655687429E+03 -0.30640623673E+02  0.23247507269E+02  0.12273874432E+03  0.00000000000E+00 0.  1.
<mgrwt>
<rscale>  0 0.26585718E+04</rscale>
<asrwt>0</asrwt>
<pdfrwt beam="1">  1        2 0.64942667E-01 0.26585718E+04</pdfrwt>
<pdfrwt beam="2">  1       -1 0.64399125E+00 0.26585718E+04</pdfrwt>
<totfact> 0.22673121E-02</totfact>
</mgrwt>
</event>
<event>
12    7  0.1730932E-007  0.1652813E+04  0.7818608E-02  0.8788744E-01
          2   -1    0    0  501    0  0.00000000000E+00  0.00000000000E+00  0.96062779970E+03  0.96062779970E+03  0.00000000000E+00 0. -1.
         -1   -1    0    0    0  501 -0.00000000000E+00 -0.00000000000E+00 -0.71093916630E+03  0.71093916630E+03  0.00000000000E+00 0.  1.
         24    2    1    2    0    0 -0.56676984876E+03  0.33381965725E+01 -0.56579122746E+02  0.57501584221E+03  0.78757962413E+02 0.  0.
        254    2    1    2    0    0  0.56676984876E+03 -0.33381965725E+01  0.30626775615E+03  0.10965511238E+04  0.88734729593E+03 0.  0.
         23    2    4    4    0    0  0.56795013893E+02 -0.33110187151E+03 -0.96849857209E+02  0.36225312193E+03  0.94833045825E+02 0.  0.
         23    2    4    4    0    0  0.50997483487E+03  0.32776367494E+03  0.40311761336E+03  0.73429800186E+03  0.95845639063E+02 0.  0.
          4    1    3    3  502    0 -0.12904885560E+03  0.32397980417E+02 -0.23223083565E+02  0.13506497650E+03  0.00000000000E+00 0. -1.
         -3    1    3    3    0  502 -0.43772099316E+03 -0.29059783844E+02 -0.33356039181E+02  0.43995086571E+03  0.00000000000E+00 0.  1.
         13    1    5    5    0    0 -0.10266226407E+02 -0.98226584856E+01  0.96811173881E+01  0.17193139860E+02  0.00000000000E+00 0. -1.
        -13    1    5    5    0    0  0.67061240300E+02 -0.32127921303E+03 -0.10653097460E+03  0.34505998207E+03  0.00000000000E+00 0.  1.
          4    1    6    6  503    0  0.43088968943E+02  0.54378608361E+02  0.23058521902E+02  0.73112158525E+02  0.00000000000E+00 0. -1.
         -4    1    6    6    0  503  0.46688586592E+03  0.27338506658E+03  0.38005909146E+03  0.66118584334E+03  0.00000000000E+00 0.  1.
<mgrwt>
<rscale>  0 0.16528133E+04</rscale>
<asrwt>0</asrwt>
<pdfrwt beam="1">  1        2 0.14778889E+00 0.16528133E+04</pdfrwt>
<pdfrwt beam="2">  1       -1 0.10937526E+00 0.16528133E+04</pdfrwt>
<totfact> 0.22525947E+01</totfact>
</mgrwt>
</event>
<event>
12    7  0.1730932E-007  0.1576041E+04  0.7818608E-02  0.8835404E-01
         -1   -1    0    0    0  501 -0.00000000000E+00  0.00000000000E+00  0.79013329071E+03  0.79013329071E+03  0.00000000000E+00 0.  1.
          2   -1    0    0  501    0  0.00000000000E+00 -0.00000000000E+00 -0.78591325106E+03  0.78591325106E+03  0.00000000000E+00 0. -1.
         24    2    1    2    0    0  0.34339982759E+03 -0.23676346001E+03 -0.31532698948E+03  0.52931199608E+03  0.82217402760E+02 0.  0.
        254    2    1    2    0    0 -0.34339982759E+03  0.23676346001E+03  0.31954702912E+03  0.10467345457E+04  0.90529692795E+03 0.  0.
         23    2    4    4    0    0  0.12165428231E+03  0.15612921683E+03 -0.22870888169E+03  0.31726849338E+03  0.95788556602E+02 0.  0.
         23    2    4    4    0    0 -0.46505410990E+03  0.80634243183E+02  0.54825591081E+03  0.72946605232E+03  0.93589376742E+02 0.  0.
          2    1    3    3  502    0  0.34114648336E+03 -0.22713383770E+03 -0.31836381047E+03  0.51896649136E+03  0.00000000000E+00 0. -1.
         -1    1    3    3    0  502  0.22533442239E+01 -0.96296223093E+01  0.30368209967E+01  0.10345504713E+02  0.00000000000E+00 0.  1.
         13    1    5    5    0    0  0.79238170637E+02  0.49376746115E+02 -0.15448052088E+03  0.18050202790E+03  0.00000000000E+00 0. -1.
        -13    1    5    5    0    0  0.42416111677E+02  0.10675247071E+03 -0.74228360806E+02  0.13676646548E+03  0.00000000000E+00 0.  1.
          4    1    6    6  503    0 -0.63610709821E+02  0.34691221200E+02  0.50338792711E+02  0.88225831160E+02  0.00000000000E+00 0. -1.
         -4    1    6    6    0  503 -0.40144340008E+03  0.45943021983E+02  0.49791711810E+03  0.64124022116E+03  0.00000000000E+00 0.  1.
<mgrwt>
<rscale>  0 0.15760409E+04</rscale>
<asrwt>0</asrwt>
<pdfrwt beam="1">  1        2 0.12090973E+00 0.15760409E+04</pdfrwt>
<pdfrwt beam="2">  1       -1 0.12155897E+00 0.15760409E+04</pdfrwt>
<totfact> 0.23206120E+01</totfact>
</mgrwt>
</event>
<event>
12    7  0.1730932E-007  0.1977006E+04  0.7818608E-02  0.8617447E-01
         -1   -1    0    0    0  501 -0.00000000000E+00  0.00000000000E+00  0.66754878886E+03  0.66754878886E+03  0.00000000000E+00 0.  1.
          2   -1    0    0  501    0  0.00000000000E+00 -0.00000000000E+00 -0.14637697211E+04  0.14637697211E+04  0.00000000000E+00 0. -1.
         24    2    1    2    0    0 -0.65366382326E+03 -0.21605989207E+03 -0.75718679796E+03  0.10274128004E+04  0.91032656775E+02 0.  0.
        254    2    1    2    0    0  0.65366382326E+03  0.21605989207E+03 -0.39034134243E+02  0.11039057095E+04  0.86204749353E+03 0.  0.
         23    2    4    4    0    0  0.83302123051E+03  0.47934823182E+02 -0.48188448150E+02  0.84138979359E+03  0.96915119886E+02 0.  0.
         23    2    4    4    0    0 -0.17935740725E+03  0.16812506889E+03  0.91543139063E+01  0.26251591595E+03  0.91627977920E+02 0.  0.
          4    1    3    3  502    0 -0.31288364432E+03 -0.10266049854E+03 -0.29518617640E+03  0.44223323211E+03  0.00000000000E+00 0. -1.
         -3    1    3    3    0  502 -0.34078017893E+03 -0.11339939353E+03 -0.46200062156E+03  0.58517956827E+03  0.00000000000E+00 0.  1.
         13    1    5    5    0    0  0.23360664832E+03  0.29448441516E+02  0.26986030942E+02  0.23699688334E+03  0.00000000000E+00 0. -1.
        -13    1    5    5    0    0  0.59941458219E+03  0.18486381666E+02 -0.75174479092E+02  0.60439291025E+03  0.00000000000E+00 0.  1.
          2    1    6    6  503    0 -0.32024640801E+02  0.82281960746E+02  0.23583428983E+02  0.91389697479E+02  0.00000000000E+00 0. -1.
         -2    1    6    6    0  503 -0.14733276645E+03  0.85843108145E+02 -0.14429115076E+02  0.17112621847E+03  0.00000000000E+00 0.  1.
<mgrwt>
<rscale>  0 0.19770055E+04</rscale>
<asrwt>0</asrwt>
<pdfrwt beam="1">  1        2 0.22519534E+00 0.19770055E+04</pdfrwt>
<pdfrwt beam="2">  1       -1 0.10269981E+00 0.19770055E+04</pdfrwt>
<totfact> 0.12651952E+01</totfact>
</mgrwt>
</event>
<event>
12    7  0.1730932E-007  0.1702018E+04  0.7818608E-02  0.8760214E-01
         -1   -1    0    0    0  501 -0.00000000000E+00  0.00000000000E+00  0.63309159732E+03  0.63309159732E+03  0.00000000000E+00 0.  1.
          2   -1    0    0  501    0  0.00000000000E+00 -0.00000000000E+00 -0.11439366353E+04  0.11439366353E+04  0.00000000000E+00 0. -1.
         24    2    1    2    0    0  0.46595908520E+03 -0.36496392194E+03 -0.31216517689E+02  0.59821909590E+03  0.81086881283E+02 0.  0.
        254    2    1    2    0    0 -0.46595908520E+03  0.36496392194E+03 -0.47962852032E+03  0.11788091368E+04  0.89957263741E+03 0.  0.
         23    2    4    4    0    0 -0.50440037081E+03  0.51051231018E+03 -0.62057598706E+03  0.95313980736E+03  0.91205173959E+02 0.  0.
         23    2    4    4    0    0  0.38441285607E+02 -0.14554838823E+03  0.14094746674E+03  0.22566932939E+03  0.91642741609E+02 0.  0.
          4    1    3    3  502    0  0.16832277433E+03 -0.91010325291E+02 -0.30041927778E+02  0.19369551645E+03  0.00000000000E+00 0. -1.
         -3    1    3    3    0  502  0.29763631087E+03 -0.27395359665E+03 -0.11745899109E+01  0.40452357945E+03  0.00000000000E+00 0.  1.
         13    1    5    5    0    0 -0.13576622177E+03  0.89250195665E+02 -0.16292393800E+03  0.23009188159E+03  0.00000000000E+00 0.  1.
        -13    1    5    5    0    0 -0.36863414903E+03  0.42126211451E+03 -0.45765204905E+03  0.72304792577E+03  0.00000000000E+00 0. -1.
          3    1    6    6  503    0  0.31207480247E+02 -0.10377783418E+03  0.14723157480E+03  0.18281379136E+03  0.00000000000E+00 0. -1.
         -3    1    6    6    0  503  0.72338053598E+01 -0.41770554050E+02 -0.62841080658E+01  0.42855538030E+02  0.00000000000E+00 0.  1.
<mgrwt>
<rscale>  0 0.17020184E+04</rscale>
<asrwt>0</asrwt>
<pdfrwt beam="1">  1        2 0.17599025E+00 0.17020184E+04</pdfrwt>
<pdfrwt beam="2">  1       -1 0.97398708E-01 0.17020184E+04</pdfrwt>
<totfact> 0.22488797E+01</totfact>
</mgrwt>
</event>
<event>
12    7  0.1730932E-007  0.1359910E+04  0.7818608E-02  0.8983360E-01
          2   -1    0    0  501    0  0.00000000000E+00  0.00000000000E+00  0.18843609023E+04  0.18843609023E+04  0.00000000000E+00 0. -1.
         -1   -1    0    0    0  501 -0.00000000000E+00 -0.00000000000E+00 -0.24535591290E+03  0.24535591290E+03  0.00000000000E+00 0.  1.
         24    2    1    2    0    0 -0.23698406904E+03 -0.11947787219E+03  0.91823869191E+03  0.95860739724E+03  0.73002984952E+02 0.  0.
        254    2    1    2    0    0  0.23698406904E+03  0.11947787219E+03  0.72076629749E+03  0.11711094180E+04  0.88405701305E+03 0.  0.
         23    2    4    4    0    0 -0.62671700382E+02  0.32017851350E+03  0.72357086879E+03  0.79903722560E+03  0.91998169528E+02 0.  0.
         23    2    4    4    0    0  0.29965576942E+03 -0.20070064131E+03 -0.28045713032E+01  0.37207219236E+03  0.91408550667E+02 0.  0.
          4    1    3    3  502    0 -0.15465789122E+03 -0.11186356618E+03  0.58948505991E+03  0.61961694345E+03  0.00000000000E+00 0. -1.
         -3    1    3    3    0  502 -0.82326177818E+02 -0.76143060110E+01  0.32875363200E+03  0.33899045379E+03  0.00000000000E+00 0.  1.
         13    1    5    5    0    0 -0.82127528484E+02  0.22789022617E+03  0.47562302585E+03  0.53375663821E+03  0.00000000000E+00 0. -1.
        -13    1    5    5    0    0  0.19455828103E+02  0.92288287339E+02  0.24794784294E+03  0.26528058739E+03  0.00000000000E+00 0.  1.
          2    1    6    6  503    0  0.46575974647E+02 -0.31687854330E+02 -0.34565828116E+02  0.66092647092E+02  0.00000000000E+00 0.  1.
         -2    1    6    6    0  503  0.25307979478E+03 -0.16901278698E+03  0.31761256812E+02  0.30597954527E+03  0.00000000000E+00 0. -1.
<mgrwt>
<rscale>  0 0.13599104E+04</rscale>
<asrwt>0</asrwt>
<pdfrwt beam="1">  1        2 0.28990167E+00 0.13599104E+04</pdfrwt>
<pdfrwt beam="2">  1       -1 0.37747065E-01 0.13599104E+04</pdfrwt>
<totfact> 0.58337556E+01</totfact>
</mgrwt>
</event>
<event>
12    7  0.1730932E-007  0.2368201E+04  0.7818608E-02  0.8451505E-01
         -1   -1    0    0    0  501 -0.00000000000E+00  0.00000000000E+00  0.30627573251E+03  0.30627573251E+03  0.00000000000E+00 0.  1.
          2   -1    0    0  501    0  0.00000000000E+00 -0.00000000000E+00 -0.45778817444E+04  0.45778817444E+04  0.00000000000E+00 0. -1.
         24    2    1    2    0    0  0.59561591491E+03 -0.56369218895E+03 -0.30511068260E+04  0.31603348552E+04  0.77177273592E+02 0.  0.
        254    2    1    2    0    0 -0.59561591491E+03  0.56369218895E+03 -0.12204991859E+04  0.17238226217E+04  0.89968826061E+03 0.  0.
         23    2    4    4    0    0  0.19299725790E+03  0.27759751319E+03 -0.51770028343E+03  0.62468523098E+03  0.88936682301E+02 0.  0.
         23    2    4    4    0    0 -0.78861317281E+03  0.28609467577E+03 -0.70279890245E+03  0.10991373907E+04  0.10205785859E+03 0.  0.
          4    1    3    3  502    0  0.40817587094E+03 -0.38397309199E+03 -0.19423818949E+04  0.20216058723E+04  0.00000000000E+00 0. -1.
         -3    1    3    3    0  502  0.18744004398E+03 -0.17971909696E+03 -0.11087249310E+04  0.11387289829E+04  0.00000000000E+00 0.  1.
         13    1    5    5    0    0  0.12394149764E+03  0.20104968326E+03 -0.28482410265E+03  0.37000978288E+03  0.00000000000E+00 0.  1.
        -13    1    5    5    0    0  0.69055760259E+02  0.76547829929E+02 -0.23287618078E+03  0.25467544811E+03  0.00000000000E+00 0. -1.
          4    1    6    6  503    0 -0.18551826718E+03  0.11467721786E+03 -0.18324420438E+03  0.28486194936E+03  0.00000000000E+00 0. -1.
         -4    1    6    6    0  503 -0.60309490563E+03  0.17141745791E+03 -0.51955469807E+03  0.81427544133E+03  0.00000000000E+00 0.  1.
<mgrwt>
<rscale>  0 0.23682011E+04</rscale>
<asrwt>0</asrwt>
<pdfrwt beam="1">  1        2 0.70428948E+00 0.23682011E+04</pdfrwt>
<pdfrwt beam="2">  1       -1 0.47119345E-01 0.23682011E+04</pdfrwt>
<totfact> 0.47846999E-01</totfact>
</mgrwt>
</event>
<event>
12    7  0.1730932E-007  0.2572546E+04  0.7818608E-02  0.8377587E-01
          2   -1    0    0  501    0  0.00000000000E+00  0.00000000000E+00  0.24622050300E+04  0.24622050300E+04  0.00000000000E+00 0. -1.
         -1   -1    0    0    0  501 -0.00000000000E+00 -0.00000000000E+00 -0.67195784899E+03  0.67195784899E+03  0.00000000000E+00 0.  1.
         24    2    1    2    0    0  0.11259318986E+04 -0.59115141256E+02  0.75683945763E+03  0.13603036487E+04  0.80017571353E+02 0.  0.
        254    2    1    2    0    0 -0.11259318986E+04  0.59115141256E+02  0.10334077234E+04  0.17738592303E+04  0.89856986708E+03 0.  0.
         23    2    4    4    0    0 -0.12095795739E+04 -0.11766541111E+03  0.81337058056E+03  0.14651071875E+04  0.89663119768E+02 0.  0.
         23    2    4    4    0    0  0.83647675300E+02  0.17678055236E+03  0.22003714282E+03  0.30875204279E+03  0.93076218382E+02 0.  0.
          2    1    3    3  502    0  0.60373013935E+03 -0.54858871871E+02  0.44561930631E+03  0.75238031815E+03  0.00000000000E+00 0. -1.
         -1    1    3    3    0  502  0.52220175926E+03 -0.42562693846E+01  0.31122015132E+03  0.60792333052E+03  0.00000000000E+00 0.  1.
         13    1    5    5    0    0 -0.16336832086E+03  0.99951568509E+01  0.12951431755E+03  0.20871767983E+03  0.00000000000E+00 0. -1.
        -13    1    5    5    0    0 -0.10462112530E+04 -0.12766056796E+03  0.68385626301E+03  0.12563895077E+04  0.00000000000E+00 0.  1.
          3    1    6    6  503    0 -0.20356357600E+02  0.23977686142E+02  0.26496843271E+02  0.41126553840E+02  0.00000000000E+00 0. -1.
         -3    1    6    6    0  503  0.10400403290E+03  0.15280286622E+03  0.19354029955E+03  0.26762548895E+03  0.00000000000E+00 0.  1.
<mgrwt>
<rscale>  0 0.25725458E+04</rscale>
<asrwt>0</asrwt>
<pdfrwt beam="1">  1        2 0.37880077E+00 0.25725458E+04</pdfrwt>
<pdfrwt beam="2">  1       -1 0.10337813E+00 0.25725458E+04</pdfrwt>
<totfact> 0.32577505E+00</totfact>
</mgrwt>
</event>
<event>
12    7  0.1730932E-007  0.1185922E+04  0.7818608E-02  0.9125269E-01
         -1   -1    0    0    0  501 -0.00000000000E+00  0.00000000000E+00  0.82002134636E+03  0.82002134636E+03  0.00000000000E+00 0.  1.
          2   -1    0    0  501    0  0.00000000000E+00 -0.00000000000E+00 -0.42877265245E+03  0.42877265245E+03  0.00000000000E+00 0. -1.
         24    2    1    2    0    0  0.23428409137E+02  0.12614912410E+03  0.28517056878E+03  0.32547761946E+03  0.90282532135E+02 0.  0.
        254    2    1    2    0    0 -0.23428409137E+02 -0.12614912410E+03  0.10607812513E+03  0.92331637935E+03  0.90818394386E+03 0.  0.
         23    2    4    4    0    0  0.16038850880E+03 -0.47174762104E+03 -0.44874700909E+01  0.50677076127E+03  0.92337291361E+02 0.  0.
         23    2    4    4    0    0 -0.18381691794E+03  0.34559849694E+03  0.11056559522E+03  0.41654561808E+03  0.89769263628E+02 0.  0.
          4    1    3    3  502    0  0.19282579304E+02  0.10455154155E+03  0.12628814313E+03  0.16508039799E+03  0.00000000000E+00 0. -1.
         -3    1    3    3    0  502  0.41458298332E+01  0.21597582551E+02  0.15888242565E+03  0.16039722147E+03  0.00000000000E+00 0.  1.
         13    1    5    5    0    0  0.15520197254E+03 -0.39470364094E+03  0.23158078549E+02  0.42475276697E+03  0.00000000000E+00 0. -1.
        -13    1    5    5    0    0  0.51865362598E+01 -0.77043980102E+02 -0.27645548640E+02  0.82017994293E+02  0.00000000000E+00 0.  1.
          3    1    6    6  503    0 -0.60133747313E+02  0.12000638657E+03 -0.54143834318E+01  0.13433881022E+03  0.00000000000E+00 0. -1.
         -3    1    6    6    0  503 -0.12368317063E+03  0.22559211037E+03  0.11597997865E+03  0.28220680787E+03  0.00000000000E+00 0.  1.
<mgrwt>
<rscale>  0 0.11859220E+04</rscale>
<asrwt>0</asrwt>
<pdfrwt beam="1">  1        2 0.65965024E-01 0.11859220E+04</pdfrwt>
<pdfrwt beam="2">  1       -1 0.12615713E+00 0.11859220E+04</pdfrwt>
<totfact> 0.45438895E+01</totfact>
</mgrwt>
</event>
<event>
12    7  0.1730932E-007  0.2453658E+04  0.7818608E-02  0.8419684E-01
         -1   -1    0    0    0  501 -0.00000000000E+00  0.00000000000E+00  0.97560524263E+03  0.97560524263E+03  0.00000000000E+00 0.  1.
          2   -1    0    0  501    0  0.00000000000E+00 -0.00000000000E+00 -0.15427441743E+04  0.15427441743E+04  0.00000000000E+00 0. -1.
         24    2    1    2    0    0 -0.54846579114E+03 -0.81663172403E+03 -0.66914912600E+03  0.11925516066E+04  0.81955383984E+02 0.  0.
        254    2    1    2    0    0  0.54846579114E+03  0.81663172403E+03  0.10201019428E+03  0.13257978103E+04  0.88296752906E+03 0.  0.
         23    2    4    4    0    0  0.57741773551E+03  0.12737276897E+03 -0.87433434660E+02  0.60468634713E+03  0.91465345030E+02 0.  0.
         23    2    4    4    0    0 -0.28951944378E+02  0.68925895506E+03  0.18944362894E+03  0.72111146320E+03  0.90535802816E+02 0.  0.
          2    1    3    3  502    0 -0.28546866670E+01 -0.20761506945E+01 -0.11433850163E+02  0.11966309674E+02  0.00000000000E+00 0. -1.
         -1    1    3    3    0  502 -0.54561110447E+03 -0.81455557333E+03 -0.65771527583E+03  0.11805852970E+04  0.00000000000E+00 0.  1.
         13    1    5    5    0    0  0.54146323569E+03  0.13796982194E+03 -0.69296605976E+02  0.56304540401E+03  0.00000000000E+00 0. -1.
        -13    1    5    5    0    0  0.35954499821E+02 -0.10597052971E+02 -0.18136828684E+02  0.41640943118E+02  0.00000000000E+00 0.  1.
          3    1    6    6  503    0 -0.43421270468E+02  0.61714729442E+03  0.19119123734E+03  0.64754171987E+03  0.00000000000E+00 0. -1.
         -3    1    6    6    0  503  0.14469326091E+02  0.72111660636E+02 -0.17476083941E+01  0.73569743321E+02  0.00000000000E+00 0.  1.
<mgrwt>
<rscale>  0 0.24536579E+04</rscale>
<asrwt>0</asrwt>
<pdfrwt beam="1">  1        2 0.23734526E+00 0.24536579E+04</pdfrwt>
<pdfrwt beam="2">  1       -1 0.15009311E+00 0.24536579E+04</pdfrwt>
<totfact> 0.42651390E+00</totfact>
</mgrwt>
</event>
<event>
12    7  0.1730932E-007  0.1913185E+04  0.7818608E-02  0.8648321E-01
         -1   -1    0    0    0  501 -0.00000000000E+00  0.00000000000E+00  0.46874339387E+03  0.46874339387E+03  0.00000000000E+00 0.  1.
          2   -1    0    0  501    0  0.00000000000E+00 -0.00000000000E+00 -0.19521749904E+04  0.19521749904E+04  0.00000000000E+00 0. -1.
         24    2    1    2    0    0 -0.31304714516E+03 -0.32709222311E+03  0.16495879674E+03  0.48845502162E+03  0.79931633359E+02 0.  0.
        254    2    1    2    0    0  0.31304714516E+03  0.32709222311E+03 -0.16483903933E+04  0.19324633627E+04  0.90124132278E+03 0.  0.
         23    2    4    4    0    0  0.19534507845E+03  0.54347676407E+02 -0.16037623974E+04  0.16190953939E+04  0.91119140110E+02 0.  0.
         23    2    4    4    0    0  0.11770206671E+03  0.27274454670E+03 -0.44627995900E+02  0.31336796876E+03  0.89243832096E+02 0.  0.
          2    1    3    3  502    0 -0.12119072196E+03 -0.10856252761E+03  0.21258771068E+02  0.16408823492E+03  0.00000000000E+00 0. -1.
         -1    1    3    3    0  502 -0.19185642320E+03 -0.21852969549E+03  0.14370002568E+03  0.32436678670E+03  0.00000000000E+00 0.  1.
         13    1    5    5    0    0  0.28007811788E+00 -0.10927360540E+02 -0.20480085027E+03  0.20509235462E+03  0.00000000000E+00 0.  1.
        -13    1    5    5    0    0  0.19506500034E+03  0.65275036948E+02 -0.13989615471E+04  0.14140030393E+04  0.00000000000E+00 0. -1.
          3    1    6    6  503    0  0.12083676257E+03  0.27603882649E+03 -0.35813287908E+02  0.30344941673E+03  0.00000000000E+00 0. -1.
         -3    1    6    6    0  503 -0.31346958681E+01 -0.32942797923E+01 -0.88147079912E+01  0.99185520367E+01  0.00000000000E+00 0.  1.
<mgrwt>
<rscale>  0 0.19131849E+04</rscale>
<asrwt>0</asrwt>
<pdfrwt beam="1">  1        2 0.30033461E+00 0.19131849E+04</pdfrwt>
<pdfrwt beam="2">  1       -1 0.72114369E-01 0.19131849E+04</pdfrwt>
<totfact> 0.14682066E+01</totfact>
</mgrwt>
</event>
<event>
12    7  0.1730932E-007  0.1831208E+04  0.7818608E-02  0.8689877E-01
         -1   -1    0    0    0  501 -0.00000000000E+00  0.00000000000E+00  0.20366359222E+04  0.20366359222E+04  0.00000000000E+00 0.  1.
          2   -1    0    0  501    0  0.00000000000E+00 -0.00000000000E+00 -0.41162526430E+03  0.41162526430E+03  0.00000000000E+00 0. -1.
         24    2    1    2    0    0 -0.42230136588E+03  0.45984254188E+02 -0.10957517274E+03  0.44592857935E+03  0.79953637461E+02 0.  0.
        254    2    1    2    0    0  0.42230136588E+03 -0.45984254188E+02  0.17345858306E+04  0.20023326071E+04  0.90559089579E+03 0.  0.
         23    2    4    4    0    0  0.16140317078E+03 -0.24102872628E+03  0.16155448426E+04  0.16436339659E+04  0.86032812355E+02 0.  0.
         23    2    4    4    0    0  0.26089819509E+03  0.19504447210E+03  0.11904098801E+03  0.35869864128E+03  0.91562787905E+02 0.  0.
          2    1    3    3  502    0 -0.24457628142E+03  0.49384709060E+02 -0.30476937750E+02  0.25136676522E+03  0.00000000000E+00 0. -1.
         -1    1    3    3    0  502 -0.17772508446E+03 -0.34004548724E+01 -0.79098234988E+02  0.19456181413E+03  0.00000000000E+00 0.  1.
         13    1    5    5    0    0  0.50190179474E+02 -0.18028081911E+02  0.29567902922E+03  0.30044991957E+03  0.00000000000E+00 0. -1.
        -13    1    5    5    0    0  0.11121299131E+03 -0.22300064437E+03  0.13198658134E+04  0.13431840463E+04  0.00000000000E+00 0.  1.
          2    1    6    6  503    0  0.44408254933E+02  0.63830549075E+02 -0.26810035216E+01  0.77805011929E+02  0.00000000000E+00 0. -1.
         -2    1    6    6    0  503  0.21648994016E+03  0.13121392302E+03  0.12172199154E+03  0.28089362935E+03  0.00000000000E+00 0.  1.
<mgrwt>
<rscale>  0 0.18312081E+04</rscale>
<asrwt>0</asrwt>
<pdfrwt beam="1">  1        2 0.63326965E-01 0.18312081E+04</pdfrwt>
<pdfrwt beam="2">  1       -1 0.31332860E+00 0.18312081E+04</pdfrwt>
<totfact> 0.22452430E+00</totfact>
</mgrwt>
</event>
<event>
12    7  0.1730932E-007  0.1438230E+04  0.7818608E-02  0.8926601E-01
          2   -1    0    0  501    0  0.00000000000E+00  0.00000000000E+00  0.59529510806E+03  0.59529510806E+03  0.00000000000E+00 0. -1.
         -1   -1    0    0    0  501 -0.00000000000E+00 -0.00000000000E+00 -0.86868919610E+03  0.86868919610E+03  0.00000000000E+00 0.  1.
         24    2    1    2    0    0  0.24671790502E+03 -0.26893782656E+03  0.14106524430E+03  0.40144658315E+03  0.89792409245E+02 0.  0.
        254    2    1    2    0    0 -0.24671790502E+03  0.26893782656E+03 -0.41445933235E+03  0.10625377210E+04  0.90775139284E+03 0.  0.
         23    2    4    4    0    0  0.16017787768E+03  0.43651202106E+03 -0.38716920747E+03  0.61226379160E+03  0.93633638508E+02 0.  0.
         23    2    4    4    0    0 -0.40689578270E+03 -0.16757419450E+03 -0.27290124872E+02  0.45027392941E+03  0.91414287465E+02 0.  0.
          4    1    3    3  502    0  0.58571284728E+02 -0.10531400428E+03  0.13190531457E+02  0.12122551305E+03  0.00000000000E+00 0. -1.
         -3    1    3    3    0  502  0.18814662029E+03 -0.16362382228E+03  0.12787471285E+03  0.28022107010E+03  0.00000000000E+00 0.  1.
         13    1    5    5    0    0  0.56692002103E+02  0.12108427552E+03 -0.16696932732E+03  0.21390217658E+03  0.00000000000E+00 0. -1.
        -13    1    5    5    0    0  0.10348587558E+03  0.31542774554E+03 -0.22019988015E+03  0.39836161502E+03  0.00000000000E+00 0.  1.
          2    1    6    6  503    0 -0.24477356023E+01 -0.12395169963E+02  0.90725089397E+01  0.15554487020E+02  0.00000000000E+00 0. -1.
         -2    1    6    6    0  503 -0.40444804710E+03 -0.15517902454E+03 -0.36362633812E+02  0.43471944239E+03  0.00000000000E+00 0.  1.
<mgrwt>
<rscale>  0 0.14382301E+04</rscale>
<asrwt>0</asrwt>
<pdfrwt beam="1">  1        2 0.91583863E-01 0.14382301E+04</pdfrwt>
<pdfrwt beam="2">  1       -1 0.13364449E+00 0.14382301E+04</pdfrwt>
<totfact> 0.26259422E+01</totfact>
</mgrwt>
</event>
<event>
12    7  0.1730932E-007  0.3541745E+04  0.7818608E-02  0.8103968E-01
         -1   -1    0    0    0  501 -0.00000000000E+00  0.00000000000E+00  0.17457426673E+04  0.17457426673E+04  0.00000000000E+00 0.  1.
          2   -1    0    0  501    0  0.00000000000E+00 -0.00000000000E+00 -0.17963640228E+04  0.17963640228E+04  0.00000000000E+00 0. -1.
         24    2    1    2    0    0 -0.11781367819E+04 -0.40387041252E+03  0.10612128529E+04  0.16381853805E+04  0.79756096590E+02 0.  0.
        254    2    1    2    0    0  0.11781367819E+04  0.40387041252E+03 -0.11118342085E+04  0.19039213096E+04  0.91521771125E+03 0.  0.
         23    2    4    4    0    0  0.10290942635E+03 -0.20615541699E+03 -0.40749986478E+03  0.47793665395E+03  0.96316662108E+02 0.  0.
         23    2    4    4    0    0  0.10752273555E+04  0.61002582951E+03 -0.70433434369E+03  0.14259846556E+04  0.95393876355E+02 0.  0.
          2    1    3    3  502    0 -0.16659484417E+03 -0.58729345859E+02  0.18860877285E+03  0.25841100473E+03  0.00000000000E+00 0. -1.
         -1    1    3    3    0  502 -0.10115419377E+04 -0.34514106666E+03  0.87260408008E+03  0.13797743758E+04  0.00000000000E+00 0.  1.
         13    1    5    5    0    0  0.57670230982E+02 -0.25499722141E+02 -0.11582695370E+03  0.13187863578E+03  0.00000000000E+00 0.  1.
        -13    1    5    5    0    0  0.45239195372E+02 -0.18065569485E+03 -0.29167291108E+03  0.34605801817E+03  0.00000000000E+00 0. -1.
          4    1    6    6  503    0  0.89099292328E+03  0.51754792020E+03 -0.62480564601E+03  0.12050337482E+04  0.00000000000E+00 0. -1.
         -4    1    6    6    0  503  0.18423443222E+03  0.92477909316E+02 -0.79528697678E+02  0.22095090740E+03  0.00000000000E+00 0.  1.
<mgrwt>
<rscale>  0 0.35417449E+04</rscale>
<asrwt>0</asrwt>
<pdfrwt beam="1">  1        2 0.27636369E+00 0.35417449E+04</pdfrwt>
<pdfrwt beam="2">  1       -1 0.26857580E+00 0.35417449E+04</pdfrwt>
<totfact> 0.42637201E-01</totfact>
</mgrwt>
</event>
<event>
12    7  0.1730932E-007  0.1868583E+04  0.7818608E-02  0.8670654E-01
         -1   -1    0    0    0  501 -0.00000000000E+00  0.00000000000E+00  0.36685953783E+03  0.36685953783E+03  0.00000000000E+00 0.  1.
          2   -1    0    0  501    0  0.00000000000E+00 -0.00000000000E+00 -0.23793874613E+04  0.23793874613E+04  0.00000000000E+00 0. -1.
         24    2    1    2    0    0 -0.17773116421E+03  0.63653445229E+03 -0.38408366872E+03  0.76854489346E+03  0.79853071337E+02 0.  0.
        254    2    1    2    0    0  0.17773116421E+03 -0.63653445229E+03 -0.16284442548E+04  0.19777021057E+04  0.90703387601E+03 0.  0.
         23    2    4    4    0    0  0.13200396786E+03 -0.86071179333E+03 -0.12816391250E+04  0.15525101217E+04  0.97154477131E+02 0.  0.
         23    2    4    4    0    0  0.45727196355E+02  0.22417734104E+03 -0.34680512978E+03  0.42519198402E+03  0.90376814047E+02 0.  0.
          2    1    3    3  502    0 -0.60075011958E+02  0.14267265959E+03 -0.12264250021E+03  0.19749855117E+03  0.00000000000E+00 0. -1.
         -1    1    3    3    0  502 -0.11765615225E+03  0.49386179270E+03 -0.26144116851E+03  0.57104634229E+03  0.00000000000E+00 0.  1.
         13    1    5    5    0    0  0.10061108253E+03 -0.34485547919E+03 -0.51215789264E+03  0.62558260721E+03  0.00000000000E+00 0.  1.
        -13    1    5    5    0    0  0.31392885325E+02 -0.51585631414E+03 -0.76948123236E+03  0.92692751445E+03  0.00000000000E+00 0. -1.
          3    1    6    6  503    0 -0.16879800725E+02  0.20186191941E+02 -0.75962224695E+02  0.80390730798E+02  0.00000000000E+00 0. -1.
         -3    1    6    6    0  503  0.62606997080E+02  0.20399114909E+03 -0.27084290508E+03  0.34480125322E+03  0.00000000000E+00 0.  1.
<mgrwt>
<rscale>  0 0.18685834E+04</rscale>
<asrwt>0</asrwt>
<pdfrwt beam="1">  1        2 0.36605962E+00 0.18685834E+04</pdfrwt>
<pdfrwt beam="2">  1       -1 0.56439927E-01 0.18685834E+04</pdfrwt>
<totfact> 0.13881584E+01</totfact>
</mgrwt>
</event>
<event>
12    7  0.1730932E-007  0.2027415E+04  0.7818608E-02  0.8593909E-01
         -1   -1    0    0    0  501 -0.00000000000E+00  0.00000000000E+00  0.18953115842E+04  0.18953115842E+04  0.00000000000E+00 0.  1.
          2   -1    0    0  501    0  0.00000000000E+00 -0.00000000000E+00 -0.54218170499E+03  0.54218170499E+03  0.00000000000E+00 0. -1.
         24    2    1    2    0    0 -0.78639007023E+02 -0.57076443259E+03  0.12037592727E+04  0.13368885207E+04  0.79236351421E+02 0.  0.
        254    2    1    2    0    0  0.78639007023E+02  0.57076443259E+03  0.14937060648E+03  0.11006047684E+04  0.92577705050E+03 0.  0.
         23    2    4    4    0    0  0.22472772100E+03  0.69200590761E+03 -0.13581692097E+03  0.74575165389E+03  0.91239073345E+02 0.  0.
         23    2    4    4    0    0 -0.14608871398E+03 -0.12124147502E+03  0.28518752746E+03  0.35485311453E+03  0.92452146845E+02 0.  0.
          4    1    3    3  502    0  0.16234604229E+02 -0.71538325182E+02  0.14552013341E+03  0.16296442425E+03  0.00000000000E+00 0. -1.
         -3    1    3    3    0  502 -0.94873611251E+02 -0.49922610741E+03  0.10582391393E+04  0.11739240965E+04  0.00000000000E+00 0.  1.
         13    1    5    5    0    0  0.11112876362E+03  0.44644293119E+03 -0.11597764857E+03  0.47445938486E+03  0.00000000000E+00 0. -1.
        -13    1    5    5    0    0  0.11359895738E+03  0.24556297642E+03 -0.19839272400E+02  0.27129226903E+03  0.00000000000E+00 0.  1.
          3    1    6    6  503    0 -0.89593180278E+02 -0.21167198737E+02  0.16238768261E+03  0.18666747901E+03  0.00000000000E+00 0. -1.
         -3    1    6    6    0  503 -0.56495533698E+02 -0.10007427628E+03  0.12279984484E+03  0.16818563552E+03  0.00000000000E+00 0.  1.
<mgrwt>
<rscale>  0 0.20274154E+04</rscale>
<asrwt>0</asrwt>
<pdfrwt beam="1">  1        2 0.83412571E-01 0.20274154E+04</pdfrwt>
<pdfrwt beam="2">  1       -1 0.29158639E+00 0.20274154E+04</pdfrwt>
<totfact> 0.22209344E+00</totfact>
</mgrwt>
</event>
<event>
12    7  0.1730932E-007  0.2253705E+04  0.7818608E-02  0.8496402E-01
          2   -1    0    0  501    0  0.00000000000E+00  0.00000000000E+00  0.38452220951E+04  0.38452220951E+04  0.00000000000E+00 0. -1.
         -1   -1    0    0    0  501 -0.00000000000E+00 -0.00000000000E+00 -0.33022697028E+03  0.33022697028E+03  0.00000000000E+00 0.  1.
         24    2    1    2    0    0 -0.80741701092E+03  0.38309524803E+03  0.91357060940E+03  0.12805361276E+04  0.80481781584E+02 0.  0.
        254    2    1    2    0    0  0.80741701092E+03 -0.38309524803E+03  0.26014245154E+04  0.28949129378E+04  0.90245620908E+03 0.  0.
         23    2    4    4    0    0  0.30359236654E+03 -0.33757665904E+03  0.33543239876E+03  0.57152154543E+03  0.89418437657E+02 0.  0.
         23    2    4    4    0    0  0.50382464437E+03 -0.45518588990E+02  0.22659921167E+04  0.23233913923E+04  0.86695300272E+02 0.  0.
          2    1    3    3  502    0 -0.22769804337E+03  0.95622597652E+02  0.30268189380E+03  0.39064870276E+03  0.00000000000E+00 0. -1.
         -1    1    3    3    0  502 -0.57971896754E+03  0.28747265038E+03  0.61088871560E+03  0.88988742485E+03  0.00000000000E+00 0.  1.
         13    1    5    5    0    0 -0.54609677826E+01 -0.31242006658E+01  0.65814373562E+00  0.63258163189E+01  0.00000000000E+00 0. -1.
        -13    1    5    5    0    0  0.30905333433E+03 -0.33445245838E+03  0.33477425503E+03  0.56519572911E+03  0.00000000000E+00 0.  1.
          4    1    6    6  503    0  0.32476235539E+02  0.10468069806E+02  0.90495525918E+02  0.96714665752E+02  0.00000000000E+00 0. -1.
         -4    1    6    6    0  503  0.47134840883E+03 -0.55986658796E+02  0.21754965907E+04  0.22266767266E+04  0.00000000000E+00 0.  1.
<mgrwt>
<rscale>  0 0.22537045E+04</rscale>
<asrwt>0</asrwt>
<pdfrwt beam="1">  1        2 0.59157260E+00 0.22537045E+04</pdfrwt>
<pdfrwt beam="2">  1       -1 0.50804152E-01 0.22537045E+04</pdfrwt>
<totfact> 0.18376076E+00</totfact>
</mgrwt>
</event>
<event>
12    7  0.1730932E-007  0.1752721E+04  0.7818608E-02  0.8731854E-01
          2   -1    0    0  501    0  0.00000000000E+00  0.00000000000E+00  0.29258310396E+04  0.29258310396E+04  0.00000000000E+00 0. -1.
         -1   -1    0    0    0  501 -0.00000000000E+00 -0.00000000000E+00 -0.26249209471E+03  0.26249209471E+03  0.00000000000E+00 0.  1.
         24    2    1    2    0    0 -0.51300415986E+03  0.90222819498E+02  0.16540886899E+04  0.17360372869E+04  0.80638963568E+02 0.  0.
        254    2    1    2    0    0  0.51300415986E+03 -0.90222819498E+02  0.10092502550E+04  0.14522858474E+04  0.90511583791E+03 0.  0.
         23    2    4    4    0    0  0.65223421755E+03 -0.10663000119E+03  0.31450930196E+03  0.73760339310E+03  0.91450712458E+02 0.  0.
         23    2    4    4    0    0 -0.13923005769E+03  0.16407181689E+02  0.69474095304E+03  0.71468245426E+03  0.91933748006E+02 0.  0.
          2    1    3    3  502    0 -0.31248567649E+03  0.23873143580E+02  0.10690673698E+04  0.11140566710E+04  0.00000000000E+00 0. -1.
         -1    1    3    3    0  502 -0.20051848337E+03  0.66349675918E+02  0.58502132006E+03  0.62198061593E+03  0.00000000000E+00 0.  1.
         13    1    5    5    0    0  0.69370139685E+00  0.29619726740E+01 -0.32646968416E+01  0.44623703586E+01  0.00000000000E+00 0.  1.
        -13    1    5    5    0    0  0.65154051615E+03 -0.10959197386E+03  0.31777399880E+03  0.73314102274E+03  0.00000000000E+00 0. -1.
          3    1    6    6  503    0 -0.66260497699E+02  0.79663106319E+01  0.13993201351E+03  0.15503188080E+03  0.00000000000E+00 0. -1.
         -3    1    6    6    0  503 -0.72969559988E+02  0.84408710569E+01  0.55480893953E+03  0.55965057345E+03  0.00000000000E+00 0.  1.
<mgrwt>
<rscale>  0 0.17527208E+04</rscale>
<asrwt>0</asrwt>
<pdfrwt beam="1">  1        2 0.45012783E+00 0.17527208E+04</pdfrwt>
<pdfrwt beam="2">  1       -1 0.40383401E-01 0.17527208E+04</pdfrwt>
<totfact> 0.12553098E+01</totfact>
</mgrwt>
</event>
<event>
12    7  0.1730932E-007  0.1661258E+04  0.7818608E-02  0.8783774E-01
          2   -1    0    0  501    0  0.00000000000E+00  0.00000000000E+00  0.13826024030E+04  0.13826024030E+04  0.00000000000E+00 0. -1.
         -1   -1    0    0    0  501 -0.00000000000E+00 -0.00000000000E+00 -0.49901882893E+03  0.49901882893E+03  0.00000000000E+00 0.  1.
         24    2    1    2    0    0 -0.27226943960E+03  0.50979445931E+03  0.33135330827E+03  0.67119901764E+03  0.81805060380E+02 0.  0.
        254    2    1    2    0    0  0.27226943960E+03 -0.50979445931E+03  0.55223026581E+03  0.12104222143E+04  0.90892388675E+03 0.  0.
         23    2    4    4    0    0  0.96042809280E+02 -0.75221968089E+03  0.38296764781E+03  0.85440147164E+03  0.90988932979E+02 0.  0.
         23    2    4    4    0    0  0.17622663032E+03  0.24242522159E+03  0.16926261800E+03  0.35602074266E+03  0.90967697889E+02 0.  0.
          2    1    3    3  502    0 -0.53478601385E+01 -0.13686709675E+01  0.89998533602E+01  0.10557946239E+02  0.00000000000E+00 0. -1.
         -1    1    3    3    0  502 -0.26692157946E+03  0.51116313027E+03  0.32235345491E+03  0.66064107141E+03  0.00000000000E+00 0.  1.
         13    1    5    5    0    0  0.81823260581E+02 -0.64385520395E+03  0.28983267226E+03  0.71080767268E+03  0.00000000000E+00 0. -1.
        -13    1    5    5    0    0  0.14219548699E+02 -0.10836447694E+03  0.93134975554E+02  0.14359379896E+03  0.00000000000E+00 0.  1.
          4    1    6    6  503    0  0.18126323328E+03  0.23804277675E+03  0.14813487012E+03  0.33386324004E+03  0.00000000000E+00 0. -1.
         -4    1    6    6    0  503 -0.50366029647E+01  0.43824448384E+01  0.21127747879E+02  0.22157502626E+02  0.00000000000E+00 0.  1.
<mgrwt>
<rscale>  0 0.16612581E+04</rscale>
<asrwt>0</asrwt>
<pdfrwt beam="1">  1        2 0.21270806E+00 0.16612581E+04</pdfrwt>
<pdfrwt beam="2">  1       -1 0.76772128E-01 0.16612581E+04</pdfrwt>
<totfact> 0.27420297E+01</totfact>
</mgrwt>
</event>
<event>
12    7  0.1730932E-007  0.1873623E+04  0.7818608E-02  0.8668098E-01
         -1   -1    0    0    0  501 -0.00000000000E+00  0.00000000000E+00  0.39332552000E+03  0.39332552000E+03  0.00000000000E+00 0.  1.
          2   -1    0    0  501    0  0.00000000000E+00 -0.00000000000E+00 -0.22312720228E+04  0.22312720228E+04  0.00000000000E+00 0. -1.
         24    2    1    2    0    0  0.17301769597E+03 -0.61653990908E+03 -0.26548827300E+03  0.69843574553E+03  0.85275347761E+02 0.  0.
        254    2    1    2    0    0 -0.17301769597E+03  0.61653990908E+03 -0.15724582298E+04  0.19261617973E+04  0.90962508880E+03 0.  0.
         23    2    4    4    0    0 -0.50677749805E+03  0.39890342409E+03 -0.12347218179E+04  0.13958388535E+04  0.88773661872E+02 0.  0.
         23    2    4    4    0    0  0.33375980209E+03  0.21763648499E+03 -0.33773641196E+03  0.53032294382E+03  0.91734920804E+02 0.  0.
          2    1    3    3  502    0  0.46329714972E+02 -0.27977483710E+03 -0.85954344700E+02  0.29632507713E+03  0.00000000000E+00 0. -1.
         -1    1    3    3    0  502  0.12668798099E+03 -0.33676507197E+03 -0.17953392830E+03  0.40211066840E+03  0.00000000000E+00 0.  1.
         13    1    5    5    0    0 -0.55005870996E+02  0.67184568606E+02 -0.22183381482E+03  0.23822185773E+03  0.00000000000E+00 0. -1.
        -13    1    5    5    0    0 -0.45177162706E+03  0.33171885548E+03 -0.10128880030E+04  0.11576169957E+04  0.00000000000E+00 0.  1.
          3    1    6    6  503    0  0.46593137013E+02  0.28776488593E+02 -0.94623729893E+02  0.10932820757E+03  0.00000000000E+00 0. -1.
         -3    1    6    6    0  503  0.28716666507E+03  0.18885999639E+03 -0.24311268206E+03  0.42099473625E+03  0.00000000000E+00 0.  1.
<mgrwt>
<rscale>  0 0.18736235E+04</rscale>
<asrwt>0</asrwt>
<pdfrwt beam="1">  1        2 0.34327262E+00 0.18736235E+04</pdfrwt>
<pdfrwt beam="2">  1       -1 0.60511618E-01 0.18736235E+04</pdfrwt>
<totfact> 0.14678061E+01</totfact>
</mgrwt>
</event>
<event>
12    7  0.1730932E-007  0.1349797E+04  0.7818608E-02  0.8990982E-01
          2   -1    0    0  501    0  0.00000000000E+00  0.00000000000E+00  0.24816517713E+04  0.24816517713E+04  0.00000000000E+00 0. -1.
         -1   -1    0    0    0  501 -0.00000000000E+00 -0.00000000000E+00 -0.18354232737E+03  0.18354232737E+03  0.00000000000E+00 0.  1.
         24    2    1    2    0    0 -0.16149998247E+01  0.22082544682E+03  0.72173862975E+02  0.24585470525E+03  0.80429990715E+02 0.  0.
        254    2    1    2    0    0  0.16149998247E+01 -0.22082544682E+03  0.22259355809E+04  0.24193393934E+04  0.92176320378E+03 0.  0.
         23    2    4    4    0    0  0.41627783678E+03 -0.64503593775E+02  0.15292002580E+04  0.15886816162E+04  0.89486858252E+02 0.  0.
         23    2    4    4    0    0 -0.41466283696E+03 -0.15632185305E+03  0.69673532299E+03  0.83065777719E+03  0.90390499555E+02 0.  0.
          4    1    3    3  502    0 -0.27469303164E+02  0.75378065590E+02  0.54693173893E+02  0.97096645971E+02  0.00000000000E+00 0. -1.
         -3    1    3    3    0  502  0.25854303339E+02  0.14544738123E+03  0.17480689082E+02  0.14875805928E+03  0.00000000000E+00 0.  1.
         13    1    5    5    0    0  0.32206806709E+03 -0.67211682145E+02  0.10514074295E+04  0.11016818201E+04  0.00000000000E+00 0.  1.
        -13    1    5    5    0    0  0.94209769696E+02  0.27080883698E+01  0.47779282850E+03  0.48699979611E+03  0.00000000000E+00 0. -1.
          1    1    6    6  503    0  0.17274030370E+01 -0.10461856018E+02  0.22852442820E+02  0.25192627799E+02  0.00000000000E+00 0. -1.
         -1    1    6    6    0  503 -0.41639024000E+03 -0.14585999703E+03  0.67388288017E+03  0.80546514939E+03  0.00000000000E+00 0.  1.
<mgrwt>
<rscale>  0 0.13497972E+04</rscale>
<asrwt>0</asrwt>
<pdfrwt beam="1">  1        2 0.38179256E+00 0.13497972E+04</pdfrwt>
<pdfrwt beam="2">  1       -1 0.28237283E-01 0.13497972E+04</pdfrwt>
<totfact> 0.45208306E+01</totfact>
</mgrwt>
</event>
<event>
12    7  0.1730932E-007  0.1491438E+04  0.7818608E-02  0.8890166E-01
         -1   -1    0    0    0  501 -0.00000000000E+00  0.00000000000E+00  0.72703644889E+03  0.72703644889E+03  0.00000000000E+00 0.  1.
          2   -1    0    0  501    0  0.00000000000E+00 -0.00000000000E+00 -0.76488177266E+03  0.76488177266E+03  0.00000000000E+00 0. -1.
         24    2    1    2    0    0  0.32309364235E+03  0.75788029778E+02  0.31791250108E+03  0.46630893660E+03  0.79008473098E+02 0.  0.
        254    2    1    2    0    0 -0.32309364235E+03 -0.75788029778E+02 -0.35575782486E+03  0.10256092850E+04  0.90287177841E+03 0.  0.
         23    2    4    4    0    0 -0.35046229951E+03  0.62218888869E+02 -0.61536937754E+03  0.71677239356E+03  0.91587006957E+02 0.  0.
         23    2    4    4    0    0  0.27368657160E+02 -0.13800691865E+03  0.25961155268E+03  0.30883689139E+03  0.90482673535E+02 0.  0.
          4    1    3    3  502    0  0.30953694045E+02  0.34072815771E+02  0.43447796122E+02  0.63299280702E+02  0.00000000000E+00 0. -1.
         -3    1    3    3    0  502  0.29213994831E+03  0.41715214007E+02  0.27446470496E+03  0.40300965590E+03  0.00000000000E+00 0.  1.
         13    1    5    5    0    0 -0.44862159643E+02  0.40595383272E+02 -0.11830869605E+03  0.13288169954E+03  0.00000000000E+00 0. -1.
        -13    1    5    5    0    0 -0.30560013987E+03  0.21623505597E+02 -0.49706068149E+03  0.58389069402E+03  0.00000000000E+00 0.  1.
          1    1    6    6  503    0 -0.15226592944E+02 -0.74189584823E+01  0.22142401469E+01  0.17081947696E+02  0.00000000000E+00 0. -1.
         -1    1    6    6    0  503  0.42595250105E+02 -0.13058796016E+03  0.25739731254E+03  0.29175494370E+03  0.00000000000E+00 0.  1.
<mgrwt>
<rscale>  0 0.14914381E+04</rscale>
<asrwt>0</asrwt>
<pdfrwt beam="1">  1        2 0.11767412E+00 0.14914381E+04</pdfrwt>
<pdfrwt beam="2">  1       -1 0.11185176E+00 0.14914381E+04</pdfrwt>
<totfact> 0.29608649E+01</totfact>
</mgrwt>
</event>
<event>
12    7  0.1730932E-007  0.1028074E+04  0.7818608E-02  0.9278279E-01
          2   -1    0    0  501    0  0.00000000000E+00  0.00000000000E+00  0.11213000916E+04  0.11213000916E+04  0.00000000000E+00 0. -1.
         -1   -1    0    0    0  501 -0.00000000000E+00 -0.00000000000E+00 -0.23564953544E+03  0.23564953544E+03  0.00000000000E+00 0.  1.
         24    2    1    2    0    0 -0.54150379942E+02  0.43780650134E+02  0.11756602224E+03  0.16028388710E+03  0.83786310954E+02 0.  0.
        254    2    1    2    0    0  0.54150379942E+02 -0.43780650134E+02  0.76808453393E+03  0.11966657400E+04  0.91498963543E+03 0.  0.
         23    2    4    4    0    0  0.79862252387E+01 -0.36767268759E+03  0.76853460493E+03  0.85641628000E+03  0.86927675011E+02 0.  0.
         23    2    4    4    0    0  0.46164154703E+02  0.32389203746E+03 -0.45007099231E+00  0.34024945996E+03  0.93446836921E+02 0.  0.
          2    1    3    3  502    0 -0.29610897200E+02  0.49202055172E+02  0.12193054193E+03  0.13477649840E+03  0.00000000000E+00 0. -1.
         -1    1    3    3    0  502 -0.24539482742E+02 -0.54214050380E+01 -0.43645196904E+01  0.25507388693E+02  0.00000000000E+00 0.  1.
         13    1    5    5    0    0  0.39065097366E+01  0.43312949883E+01  0.13354931029E+02  0.14573095670E+02  0.00000000000E+00 0. -1.
        -13    1    5    5    0    0  0.40797155021E+01 -0.37200398258E+03  0.75517967390E+03  0.84184318433E+03  0.00000000000E+00 0.  1.
          1    1    6    6  503    0 -0.18956405220E+02  0.61653036263E+02 -0.24454682915E+02  0.68981691019E+02  0.00000000000E+00 0. -1.
         -1    1    6    6    0  503  0.65120559924E+02  0.26223900119E+03  0.24004611922E+02  0.27126776894E+03  0.00000000000E+00 0.  1.
<mgrwt>
<rscale>  0 0.10280736E+04</rscale>
<asrwt>0</asrwt>
<pdfrwt beam="1">  1        2 0.17250770E+00 0.10280736E+04</pdfrwt>
<pdfrwt beam="2">  1       -1 0.36253775E-01 0.10280736E+04</pdfrwt>
<totfact> 0.17475769E+02</totfact>
</mgrwt>
</event>
<event>
12    7  0.1730932E-007  0.1862845E+04  0.7818608E-02  0.8673575E-01
          2   -1    0    0  501    0  0.00000000000E+00  0.00000000000E+00  0.74334047300E+03  0.74334047300E+03  0.00000000000E+00 0. -1.
         -1   -1    0    0    0  501 -0.00000000000E+00 -0.00000000000E+00 -0.11670940055E+04  0.11670940055E+04  0.00000000000E+00 0.  1.
         24    2    1    2    0    0 -0.14925352049E+03 -0.25542964292E+03 -0.73467065027E+03  0.79611700846E+03  0.80872807117E+02 0.  0.
        254    2    1    2    0    0  0.14925352049E+03  0.25542964292E+03  0.31091711780E+03  0.11143174700E+04  0.10283545371E+04 0.  0.
         23    2    4    4    0    0  0.33510831310E+03  0.10402701875E+03 -0.28826323233E+03  0.46304369196E+03  0.90523849944E+02 0.  0.
         23    2    4    4    0    0 -0.18585479261E+03  0.15140262417E+03  0.59918035014E+03  0.65127377806E+03  0.87610977921E+02 0.  0.
          4    1    3    3  502    0 -0.21923178358E+02 -0.89474041009E+02 -0.16087675732E+03  0.18538489909E+03  0.00000000000E+00 0. -1.
         -3    1    3    3    0  502 -0.12733034213E+03 -0.16595560192E+03 -0.57379389294E+03  0.61073210937E+03  0.00000000000E+00 0.  1.
         13    1    5    5    0    0  0.20396439256E+03  0.50028379342E+02 -0.22489643254E+03  0.30770556957E+03  0.00000000000E+00 0. -1.
        -13    1    5    5    0    0  0.13114392054E+03  0.53998639408E+02 -0.63366799790E+02  0.15533812239E+03  0.00000000000E+00 0.  1.
          1    1    6    6  503    0 -0.13427996248E+03  0.14045602063E+03  0.39239873769E+03  0.43787643394E+03  0.00000000000E+00 0. -1.
         -1    1    6    6    0  503 -0.51574830127E+02  0.10946603540E+02  0.20678161244E+03  0.21339734412E+03  0.00000000000E+00 0.  1.
<mgrwt>
<rscale>  0 0.18628454E+04</rscale>
<asrwt>0</asrwt>
<pdfrwt beam="1">  1        2 0.11436007E+00 0.18628454E+04</pdfrwt>
<pdfrwt beam="2">  1       -1 0.17955292E+00 0.18628454E+04</pdfrwt>
<totfact> 0.85285777E+00</totfact>
</mgrwt>
</event>
<event>
12    7  0.1730932E-007  0.2001680E+04  0.7818608E-02  0.8605836E-01
          2   -1    0    0  501    0  0.00000000000E+00  0.00000000000E+00  0.37312047091E+04  0.37312047091E+04  0.00000000000E+00 0. -1.
         -1   -1    0    0    0  501 -0.00000000000E+00 -0.00000000000E+00 -0.26846041523E+03  0.26846041523E+03  0.00000000000E+00 0.  1.
         24    2    1    2    0    0 -0.35407692854E+03  0.69036816031E+03  0.10142976819E+04  0.12794751673E+04  0.79235396782E+02 0.  0.
        254    2    1    2    0    0  0.35407692854E+03 -0.69036816031E+03  0.24484466120E+04  0.27201899570E+04  0.89585932076E+03 0.  0.
         23    2    4    4    0    0 -0.88059628249E+02 -0.64457517276E+03  0.95580674191E+03  0.11596951189E+04  0.89969937002E+02 0.  0.
         23    2    4    4    0    0  0.44213655679E+03 -0.45792987553E+02  0.14926398701E+04  0.15604948381E+04  0.97921527016E+02 0.  0.
          2    1    3    3  502    0 -0.82220427948E+02  0.15164533010E+03  0.28213886815E+03  0.33069449018E+03  0.00000000000E+00 0. -1.
         -1    1    3    3    0  502 -0.27185650060E+03  0.53872283021E+03  0.73215881372E+03  0.94878067709E+03  0.00000000000E+00 0.  1.
         13    1    5    5    0    0 -0.74818593900E+02 -0.53616699851E+03  0.72965719852E+03  0.90855517149E+03  0.00000000000E+00 0.  1.
        -13    1    5    5    0    0 -0.13241034350E+02 -0.10840817425E+03  0.22614954339E+03  0.25113994746E+03  0.00000000000E+00 0. -1.
          1    1    6    6  503    0  0.29065218331E+03 -0.16314825068E+01  0.83327342988E+03  0.88251116839E+03  0.00000000000E+00 0. -1.
         -1    1    6    6    0  503  0.15148437348E+03 -0.44161505046E+02  0.65936644019E+03  0.67798366970E+03  0.00000000000E+00 0.  1.
<mgrwt>
<rscale>  0 0.20016801E+04</rscale>
<asrwt>0</asrwt>
<pdfrwt beam="1">  1        2 0.57403146E+00 0.20016801E+04</pdfrwt>
<pdfrwt beam="2">  1       -1 0.41301605E-01 0.20016801E+04</pdfrwt>
<totfact> 0.33858285E+00</totfact>
</mgrwt>
</event>
<event>
12    7  0.1730932E-007  0.1499269E+04  0.7818608E-02  0.8884939E-01
          2   -1    0    0  501    0  0.00000000000E+00  0.00000000000E+00  0.45299302836E+03  0.45299302836E+03  0.00000000000E+00 0. -1.
         -1   -1    0    0    0  501 -0.00000000000E+00 -0.00000000000E+00 -0.12405309495E+04  0.12405309495E+04  0.00000000000E+00 0.  1.
         24    2    1    2    0    0 -0.22191946534E+03 -0.38513596122E+03 -0.55012310027E+02  0.45474939096E+03  0.78693688465E+02 0.  0.
        254    2    1    2    0    0  0.22191946534E+03  0.38513596122E+03 -0.73252561113E+03  0.12387745869E+04  0.89464559938E+03 0.  0.
         23    2    4    4    0    0  0.41152754547E+03  0.25766864107E+02 -0.30659860737E+02  0.42268869870E+03  0.87788706423E+02 0.  0.
         23    2    4    4    0    0 -0.18960808014E+03  0.35936909712E+03 -0.70186575040E+03  0.81608588822E+03  0.91012490073E+02 0.  0.
          2    1    3    3  502    0 -0.17330395951E+03 -0.28614959374E+03 -0.73739207220E+01  0.33461952586E+03  0.00000000000E+00 0. -1.
         -1    1    3    3    0  502 -0.48615505824E+02 -0.98986367487E+02 -0.47638389305E+02  0.12012986511E+03  0.00000000000E+00 0.  1.
         13    1    5    5    0    0  0.13674723703E+03 -0.99258435290E+01  0.26808097754E+02  0.13970326878E+03  0.00000000000E+00 0.  1.
        -13    1    5    5    0    0  0.27478030845E+03  0.35692707636E+02 -0.57467958491E+02  0.28298542991E+03  0.00000000000E+00 0. -1.
          2    1    6    6  503    0  0.10227631744E+01  0.98750592569E+01 -0.59782277686E+02  0.60601019506E+02  0.00000000000E+00 0. -1.
         -2    1    6    6    0  503 -0.19063084331E+03  0.34949403786E+03 -0.64208347271E+03  0.75548486871E+03  0.00000000000E+00 0.  1.
<mgrwt>
<rscale>  0 0.14992690E+04</rscale>
<asrwt>0</asrwt>
<pdfrwt beam="1">  1        2 0.69691235E-01 0.14992690E+04</pdfrwt>
<pdfrwt beam="2">  1       -1 0.19085092E+00 0.14992690E+04</pdfrwt>
<totfact> 0.13290535E+01</totfact>
</mgrwt>
</event>
<event>
12    7  0.1730932E-007  0.1636796E+04  0.7818608E-02  0.8798256E-01
          2   -1    0    0  501    0  0.00000000000E+00  0.00000000000E+00  0.16766296978E+04  0.16766296978E+04  0.00000000000E+00 0. -1.
         -1   -1    0    0    0  501 -0.00000000000E+00 -0.00000000000E+00 -0.39947730258E+03  0.39947730258E+03  0.00000000000E+00 0.  1.
         24    2    1    2    0    0  0.30490885113E+03 -0.24513028857E+03 -0.65770846776E+02  0.40446007166E+03  0.78764709187E+02 0.  0.
        254    2    1    2    0    0 -0.30490885113E+03  0.24513028857E+03  0.13429232420E+04  0.16716469287E+04  0.91537006425E+03 0.  0.
         23    2    4    4    0    0  0.28250143314E+03 -0.38176387576E+02  0.65140837964E+03  0.71726515782E+03  0.94190940431E+02 0.  0.
         23    2    4    4    0    0 -0.58741028426E+03  0.28330667615E+03  0.69151486233E+03  0.95438177088E+03  0.85663556741E+02 0.  0.
          4    1    3    3  502    0  0.34304179096E+02 -0.16115192852E+01  0.93506233083E+00  0.34354738239E+02  0.00000000000E+00 0. -1.
         -3    1    3    3    0  502  0.27060467203E+03 -0.24351876929E+03 -0.66705909106E+02  0.37010533343E+03  0.00000000000E+00 0.  1.
         13    1    5    5    0    0  0.49425958612E+02 -0.44218645031E+02  0.16629179277E+03  0.17902841757E+03  0.00000000000E+00 0. -1.
        -13    1    5    5    0    0  0.23307547452E+03  0.60422574548E+01  0.48511658687E+03  0.53823674025E+03  0.00000000000E+00 0.  1.
          4    1    6    6  503    0 -0.18198068233E+03  0.12397403287E+03  0.19815154514E+03  0.29622721753E+03  0.00000000000E+00 0. -1.
         -4    1    6    6    0  503 -0.40542960194E+03  0.15933264328E+03  0.49336331719E+03  0.65815455335E+03  0.00000000000E+00 0.  1.
<mgrwt>
<rscale>  0 0.16367963E+04</rscale>
<asrwt>0</asrwt>
<pdfrwt beam="1">  1        2 0.25794303E+00 0.16367963E+04</pdfrwt>
<pdfrwt beam="2">  1       -1 0.61458047E-01 0.16367963E+04</pdfrwt>
<totfact> 0.29558933E+01</totfact>
</mgrwt>
</event>
<event>
12    7  0.1730932E-007  0.3335902E+04  0.7818608E-02  0.8153820E-01
         -1   -1    0    0    0  501 -0.00000000000E+00  0.00000000000E+00  0.83025422237E+03  0.83025422237E+03  0.00000000000E+00 0.  1.
          2   -1    0    0  501    0  0.00000000000E+00 -0.00000000000E+00 -0.33508544741E+04  0.33508544741E+04  0.00000000000E+00 0. -1.
         24    2    1    2    0    0  0.53970110045E+03  0.53763649857E+03  0.51837864816E+03  0.92487372265E+03  0.79653609741E+02 0.  0.
        254    2    1    2    0    0 -0.53970110045E+03 -0.53763649857E+03 -0.30389788999E+04  0.32562349739E+04  0.88732359842E+03 0.  0.
         23    2    4    4    0    0 -0.30423779172E+03 -0.75912343927E+03 -0.19414689986E+04  0.21086260358E+04  0.90403850365E+02 0.  0.
         23    2    4    4    0    0 -0.23546330874E+03  0.22148694070E+03 -0.10975099013E+04  0.11476089381E+04  0.89324445960E+02 0.  0.
          4    1    3    3  502    0  0.26137553824E+02  0.40428236029E+02  0.14379988048E+02  0.50243388068E+02  0.00000000000E+00 0. -1.
         -3    1    3    3    0  502  0.51356354663E+03  0.49720826254E+03  0.50399866012E+03  0.87463033458E+03  0.00000000000E+00 0.  1.
         13    1    5    5    0    0 -0.24021317357E+01 -0.10070654467E+02 -0.64069141099E+02  0.64900255465E+02  0.00000000000E+00 0. -1.
        -13    1    5    5    0    0 -0.30183565998E+03 -0.74905278480E+03 -0.18773998575E+04  0.20437257803E+04  0.00000000000E+00 0.  1.
          3    1    6    6  503    0 -0.99346092762E+02  0.11275314595E+03 -0.36621497885E+03  0.39584887117E+03  0.00000000000E+00 0. -1.
         -3    1    6    6    0  503 -0.13611721598E+03  0.10873379475E+03 -0.73129492245E+03  0.75176006691E+03  0.00000000000E+00 0.  1.
<mgrwt>
<rscale>  0 0.33359023E+04</rscale>
<asrwt>0</asrwt>
<pdfrwt beam="1">  1        2 0.51551607E+00 0.33359023E+04</pdfrwt>
<pdfrwt beam="2">  1       -1 0.12773142E+00 0.33359023E+04</pdfrwt>
<totfact> 0.51551131E-01</totfact>
</mgrwt>
</event>
<event>
12    7  0.1730932E-007  0.1542129E+04  0.7818608E-02  0.8856911E-01
         -1   -1    0    0    0  501 -0.00000000000E+00  0.00000000000E+00  0.51245528773E+03  0.51245528773E+03  0.00000000000E+00 0.  1.
          2   -1    0    0  501    0  0.00000000000E+00 -0.00000000000E+00 -0.11601800102E+04  0.11601800102E+04  0.00000000000E+00 0. -1.
         24    2    1    2    0    0 -0.45025223515E+03  0.22104106531E+03 -0.13344624501E+03  0.52486045885E+03  0.78002391970E+02 0.  0.
        254    2    1    2    0    0  0.45025223515E+03 -0.22104106531E+03 -0.51427847749E+03  0.11477748391E+04  0.89516395207E+03 0.  0.
         23    2    4    4    0    0  0.24551483470E+03 -0.12064492455E+03  0.22665026147E+03  0.36640209327E+03  0.89707419165E+02 0.  0.
         23    2    4    4    0    0  0.20473740045E+03 -0.10039614076E+03 -0.74092873897E+03  0.78137274584E+03  0.97832425583E+02 0.  0.
          4    1    3    3  502    0 -0.14142857652E-01  0.55090271269E+01  0.43534332133E+01  0.70215354908E+01  0.00000000000E+00 0. -1.
         -3    1    3    3    0  502 -0.45023809229E+03  0.21553203818E+03 -0.13779967822E+03  0.51783892336E+03  0.00000000000E+00 0.  1.
         13    1    5    5    0    0  0.18692291695E+02  0.10258770532E+02  0.38242560796E+02  0.43785129872E+02  0.00000000000E+00 0.  1.
        -13    1    5    5    0    0  0.22682254300E+03 -0.13090369508E+03  0.18840770068E+03  0.32261696340E+03  0.00000000000E+00 0. -1.
          2    1    6    6  503    0  0.13414189078E+03 -0.10602127188E+03 -0.59640810721E+03  0.62043306432E+03  0.00000000000E+00 0. -1.
         -2    1    6    6    0  503  0.70595509667E+02  0.56251311246E+01 -0.14452063176E+03  0.16093968152E+03  0.00000000000E+00 0.  1.
<mgrwt>
<rscale>  0 0.15421289E+04</rscale>
<asrwt>0</asrwt>
<pdfrwt beam="1">  1        2 0.17848923E+00 0.15421289E+04</pdfrwt>
<pdfrwt beam="2">  1       -1 0.78839275E-01 0.15421289E+04</pdfrwt>
<totfact> 0.35381749E+01</totfact>
</mgrwt>
</event>
<event>
12    7  0.1730932E-007  0.2157932E+04  0.7818608E-02  0.8536145E-01
          2   -1    0    0  501    0  0.00000000000E+00  0.00000000000E+00  0.27620350711E+04  0.27620350711E+04  0.00000000000E+00 0. -1.
         -1   -1    0    0    0  501 -0.00000000000E+00 -0.00000000000E+00 -0.42148893973E+03  0.42148893973E+03  0.00000000000E+00 0.  1.
         24    2    1    2    0    0 -0.44130290593E+02  0.88392278485E+03  0.90765970783E+03  0.12702209429E+04  0.79675130899E+02 0.  0.
        254    2    1    2    0    0  0.44130290593E+02 -0.88392278485E+03  0.14328864236E+04  0.19133030679E+04  0.90790867097E+03 0.  0.
         23    2    4    4    0    0 -0.30019401459E+03 -0.84991017225E+03  0.96247073046E+03  0.13218280833E+04  0.91737819857E+02 0.  0.
         23    2    4    4    0    0  0.34432430518E+03 -0.34012612600E+02  0.47041569309E+03  0.59147498460E+03  0.93998128432E+02 0.  0.
          2    1    3    3  502    0 -0.43633459865E+02  0.69889703584E+03  0.67130791152E+03  0.97005940931E+03  0.00000000000E+00 0. -1.
         -1    1    3    3    0  502 -0.49683072801E+00  0.18502574902E+03  0.23635179632E+03  0.30016153361E+03  0.00000000000E+00 0.  1.
         13    1    5    5    0    0 -0.45551300455E+02 -0.56429378720E+02  0.70365598425E+02  0.10104708406E+03  0.00000000000E+00 0. -1.
        -13    1    5    5    0    0 -0.25464271413E+03 -0.79348079353E+03  0.89210513204E+03  0.12207809993E+04  0.00000000000E+00 0.  1.
          4    1    6    6  503    0  0.87152436756E+01  0.16266271165E+02  0.16693783967E+02  0.24884321833E+02  0.00000000000E+00 0. -1.
         -4    1    6    6    0  503  0.33560906150E+03 -0.50278883765E+02  0.45372190913E+03  0.56659066277E+03  0.00000000000E+00 0.  1.
<mgrwt>
<rscale>  0 0.21579316E+04</rscale>
<asrwt>0</asrwt>
<pdfrwt beam="1">  1        2 0.42492846E+00 0.21579316E+04</pdfrwt>
<pdfrwt beam="2">  1       -1 0.64844454E-01 0.21579316E+04</pdfrwt>
<totfact> 0.61397800E+00</totfact>
</mgrwt>
</event>
<event>
12    7  0.1730932E-007  0.2056601E+04  0.7818608E-02  0.8580606E-01
          2   -1    0    0  501    0  0.00000000000E+00  0.00000000000E+00  0.14354349170E+04  0.14354349170E+04  0.00000000000E+00 0. -1.
         -1   -1    0    0    0  501 -0.00000000000E+00 -0.00000000000E+00 -0.73664196453E+03  0.73664196453E+03  0.00000000000E+00 0.  1.
         24    2    1    2    0    0 -0.48274180753E+03 -0.15386240966E+03 -0.41044137183E+03  0.65749910382E+03  0.84437302023E+02 0.  0.
        254    2    1    2    0    0  0.48274180753E+03  0.15386240966E+03  0.11092343243E+04  0.15145777777E+04  0.89823814476E+03 0.  0.
         23    2    4    4    0    0 -0.18549148977E+03  0.24525751291E+03  0.19956257470E+03  0.37781281712E+03  0.91427365412E+02 0.  0.
         23    2    4    4    0    0  0.66823329730E+03 -0.91395103249E+02  0.90967174963E+03  0.11367649606E+04  0.99212293016E+02 0.  0.
          2    1    3    3  502    0 -0.40621369041E+02 -0.36124867967E+02 -0.61578182336E+02  0.82139967423E+02  0.00000000000E+00 0. -1.
         -1    1    3    3    0  502 -0.44212043849E+03 -0.11773754169E+03 -0.34886318950E+03  0.57535913640E+03  0.00000000000E+00 0.  1.
         13    1    5    5    0    0 -0.23757849882E+02  0.21770886230E+02 -0.72496941584E+01  0.33029759061E+02  0.00000000000E+00 0.  1.
        -13    1    5    5    0    0 -0.16173363989E+03  0.22348662668E+03  0.20681226886E+03  0.34478305806E+03  0.00000000000E+00 0. -1.
          1    1    6    6  503    0  0.55425677315E+03 -0.42227589135E+02  0.71093251561E+03  0.90244599928E+03  0.00000000000E+00 0. -1.
         -1    1    6    6    0  503  0.11397652416E+03 -0.49167514113E+02  0.19873923402E+03  0.23431896133E+03  0.00000000000E+00 0.  1.
<mgrwt>
<rscale>  0 0.20566007E+04</rscale>
<asrwt>0</asrwt>
<pdfrwt beam="1">  1        2 0.22083614E+00 0.20566007E+04</pdfrwt>
<pdfrwt beam="2">  1       -1 0.11332953E+00 0.20566007E+04</pdfrwt>
<totfact> 0.10347364E+01</totfact>
</mgrwt>
</event>
<event>
12    7  0.1730932E-007  0.2302472E+04  0.7818608E-02  0.8476947E-01
         -1   -1    0    0    0  501 -0.00000000000E+00  0.00000000000E+00  0.10774176588E+04  0.10774176588E+04  0.00000000000E+00 0.  1.
          2   -1    0    0  501    0  0.00000000000E+00 -0.00000000000E+00 -0.12301116416E+04  0.12301116416E+04  0.00000000000E+00 0. -1.
         24    2    1    2    0    0  0.47191398903E+03 -0.77232114139E+03  0.28517838262E+03  0.95220517841E+03  0.78646254860E+02 0.  0.
        254    2    1    2    0    0 -0.47191398903E+03  0.77232114139E+03 -0.43787236543E+03  0.13553241219E+04  0.90883909940E+03 0.  0.
         23    2    4    4    0    0 -0.59611134537E+03  0.83276125775E+03 -0.17281996022E+03  0.10426394921E+04  0.91598708748E+02 0.  0.
         23    2    4    4    0    0  0.12419735634E+03 -0.60440116361E+02 -0.26505240521E+03  0.31268462979E+03  0.91874420856E+02 0.  0.
          2    1    3    3  502    0  0.96801193395E+02 -0.18984322382E+03  0.37026926992E+02  0.21629127120E+03  0.00000000000E+00 0. -1.
         -3    1    3    3    0  502  0.37511279563E+03 -0.58247791757E+03  0.24815145563E+03  0.73591390722E+03  0.00000000000E+00 0.  1.
         13    1    5    5    0    0 -0.10465580162E+03  0.20377306986E+03 -0.20257131469E+02  0.22997098119E+03  0.00000000000E+00 0. -1.
        -13    1    5    5    0    0 -0.49145554375E+03  0.62898818789E+03 -0.15256282875E+03  0.81266851096E+03  0.00000000000E+00 0.  1.
          4    1    6    6  503    0  0.47816204052E+01 -0.45126086154E+02 -0.77849417419E+02  0.90109707233E+02  0.00000000000E+00 0. -1.
         -4    1    6    6    0  503  0.11941573594E+03 -0.15314030207E+02 -0.18720298779E+03  0.22257492255E+03  0.00000000000E+00 0.  1.
<mgrwt>
<rscale>  0 0.23024717E+04</rscale>
<asrwt>0</asrwt>
<pdfrwt beam="1">  1        2 0.18924794E+00 0.23024717E+04</pdfrwt>
<pdfrwt beam="2">  1       -1 0.16575656E+00 0.23024717E+04</pdfrwt>
<totfact> 0.49671433E+00</totfact>
</mgrwt>
</event>
<event>
12    7  0.1730932E-007  0.1642059E+04  0.7818608E-02  0.8795118E-01
         -1   -1    0    0    0  501 -0.00000000000E+00  0.00000000000E+00  0.51765382233E+03  0.51765382233E+03  0.00000000000E+00 0.  1.
          2   -1    0    0  501    0  0.00000000000E+00 -0.00000000000E+00 -0.13022012698E+04  0.13022012698E+04  0.00000000000E+00 0. -1.
         24    2    1    2    0    0  0.44581337637E+03  0.32566872489E+03 -0.35753119834E+03  0.66297712306E+03  0.83068784750E+02 0.  0.
        254    2    1    2    0    0 -0.44581337637E+03 -0.32566872489E+03 -0.42701624918E+03  0.11568779691E+04  0.92261263454E+03 0.  0.
         23    2    4    4    0    0 -0.65078668584E+03 -0.26950182258E+03 -0.54644872553E+03  0.89654851138E+03  0.95070925068E+02 0.  0.
         23    2    4    4    0    0  0.20497330947E+03 -0.56166902311E+02  0.11943247635E+03  0.26032945772E+03  0.91315560782E+02 0.  0.
          2    1    3    3  502    0  0.12783065490E+03  0.10242096814E+03 -0.63276327701E+02  0.17559790629E+03  0.00000000000E+00 0. -1.
         -1    1    3    3    0  502  0.31798272147E+03  0.22324775675E+03 -0.29425487064E+03  0.48737921677E+03  0.00000000000E+00 0.  1.
         13    1    5    5    0    0 -0.58669618211E+03 -0.26634278196E+03 -0.51624630434E+03  0.82562772140E+03  0.00000000000E+00 0.  1.
        -13    1    5    5    0    0 -0.64090503731E+02 -0.31590406244E+01 -0.30202421187E+02  0.70920789982E+02  0.00000000000E+00 0. -1.
          1    1    6    6  503    0 -0.13713154071E+01 -0.89989118587E+01 -0.89546760494E+01  0.12768991493E+02  0.00000000000E+00 0. -1.
         -1    1    6    6    0  503  0.20634462488E+03 -0.47167990453E+02  0.12838715240E+03  0.24756046623E+03  0.00000000000E+00 0.  1.
<mgrwt>
<rscale>  0 0.16420590E+04</rscale>
<asrwt>0</asrwt>
<pdfrwt beam="1">  1        2 0.20033865E+00 0.16420590E+04</pdfrwt>
<pdfrwt beam="2">  1       -1 0.79639051E-01 0.16420590E+04</pdfrwt>
<totfact> 0.28289216E+01</totfact>
</mgrwt>
</event>
<event>
12    7  0.1730932E-007  0.2408535E+04  0.7818608E-02  0.8436315E-01
          2   -1    0    0  501    0  0.00000000000E+00  0.00000000000E+00  0.16569662906E+04  0.16569662906E+04  0.00000000000E+00 0. -1.
         -1   -1    0    0    0  501 -0.00000000000E+00 -0.00000000000E+00 -0.87525040385E+03  0.87525040385E+03  0.00000000000E+00 0.  1.
         24    2    1    2    0    0  0.18592423683E+03 -0.90124059865E+03  0.82087720032E+03  0.12357121876E+04  0.79641660656E+02 0.  0.
        254    2    1    2    0    0 -0.18592423683E+03  0.90124059865E+03 -0.39161313539E+02  0.12965045069E+04  0.91246254136E+03 0.  0.
         23    2    4    4    0    0 -0.45181332126E+03  0.22946805973E+03  0.16282322760E+03  0.54089843751E+03  0.96274859358E+02 0.  0.
         23    2    4    4    0    0  0.26588908443E+03  0.67177253892E+03 -0.20198454114E+03  0.75560606937E+03  0.90373823369E+02 0.  0.
          2    1    3    3  502    0  0.17647487660E+03 -0.71496415858E+03  0.67421329434E+03  0.99843913004E+03  0.00000000000E+00 0. -1.
         -1    1    3    3    0  502  0.94493602326E+01 -0.18627644006E+03  0.14666390598E+03  0.23727305757E+03  0.00000000000E+00 0.  1.
         13    1    5    5    0    0 -0.37914005108E+03  0.18807285010E+03  0.17183651765E+03  0.45677824387E+03  0.00000000000E+00 0. -1.
        -13    1    5    5    0    0 -0.72673270187E+02  0.41395209631E+02 -0.90132900502E+01  0.84120193638E+02  0.00000000000E+00 0.  1.
          4    1    6    6  503    0  0.28326859485E+02  0.15882603385E+03 -0.65169901955E+02  0.17399780492E+03  0.00000000000E+00 0. -1.
         -4    1    6    6    0  503  0.23756222495E+03  0.51294650507E+03 -0.13681463918E+03  0.58160826445E+03  0.00000000000E+00 0.  1.
<mgrwt>
<rscale>  0 0.24085352E+04</rscale>
<asrwt>0</asrwt>
<pdfrwt beam="1">  1        2 0.25491789E+00 0.24085352E+04</pdfrwt>
<pdfrwt beam="2">  1       -1 0.13465391E+00 0.24085352E+04</pdfrwt>
<totfact> 0.49171960E+00</totfact>
</mgrwt>
</event>
<event>
12    7  0.1730932E-007  0.2425044E+04  0.7818608E-02  0.8430187E-01
          2   -1    0    0  501    0  0.00000000000E+00  0.00000000000E+00  0.20873172569E+04  0.20873172569E+04  0.00000000000E+00 0. -1.
         -1   -1    0    0    0  501 -0.00000000000E+00 -0.00000000000E+00 -0.70435362206E+03  0.70435362206E+03  0.00000000000E+00 0.  1.
         24    2    1    2    0    0 -0.16228412194E+03  0.44249252241E+03  0.16723678332E+04  0.17388417606E+04  0.67975953364E+02 0.  0.
        254    2    1    2    0    0  0.16228412194E+03 -0.44249252241E+03 -0.28940419831E+03  0.10528291184E+04  0.89585634673E+03 0.  0.
         23    2    4    4    0    0  0.41559796569E+03 -0.13857153794E+03 -0.43268845039E+03  0.62217892111E+03  0.89238862378E+02 0.  0.
         23    2    4    4    0    0 -0.25331384375E+03 -0.30392098447E+03  0.14328425208E+03  0.43065019731E+03  0.91615213349E+02 0.  0.
          2    1    3    3  502    0 -0.41969685117E+02  0.18883498449E+03  0.60523929801E+03  0.63540122261E+03  0.00000000000E+00 0. -1.
         -1    1    3    3    0  502 -0.12031443682E+03  0.25365753793E+03  0.10671285352E+04  0.11034405380E+04  0.00000000000E+00 0.  1.
         13    1    5    5    0    0 -0.46694529999E+01 -0.25213459318E+01 -0.42632726453E+01  0.68070897066E+01  0.00000000000E+00 0. -1.
        -13    1    5    5    0    0  0.42026741869E+03 -0.13605019201E+03 -0.42842517775E+03  0.61537183140E+03  0.00000000000E+00 0.  1.
          2    1    6    6  503    0 -0.52206018284E+02 -0.15929115587E+02  0.13954379701E+02  0.56337640892E+02  0.00000000000E+00 0. -1.
         -2    1    6    6    0  503 -0.20110782546E+03 -0.28799186888E+03  0.12932987238E+03  0.37431255642E+03  0.00000000000E+00 0.  1.
<mgrwt>
<rscale>  0 0.24250439E+04</rscale>
<asrwt>0</asrwt>
<pdfrwt beam="1">  1        2 0.32112573E+00 0.24250439E+04</pdfrwt>
<pdfrwt beam="2">  1       -1 0.10836210E+00 0.24250439E+04</pdfrwt>
<totfact> 0.48216801E+00</totfact>
</mgrwt>
</event>
<event>
12    7  0.1730932E-007  0.2416353E+04  0.7818608E-02  0.8433407E-01
         -1   -1    0    0    0  501 -0.00000000000E+00  0.00000000000E+00  0.49148595097E+03  0.49148595097E+03  0.00000000000E+00 0.  1.
          2   -1    0    0  501    0  0.00000000000E+00 -0.00000000000E+00 -0.29699536765E+04  0.29699536765E+04  0.00000000000E+00 0. -1.
         24    2    1    2    0    0 -0.58016192431E+03  0.86078925073E+03 -0.10594285223E+04  0.14853042450E+04  0.78701420346E+02 0.  0.
        254    2    1    2    0    0  0.58016192431E+03 -0.86078925073E+03 -0.14190392032E+04  0.19761353825E+04  0.90216007292E+03 0.  0.
         23    2    4    4    0    0 -0.94302081399E+02  0.12210238109E+03 -0.18521194791E+03  0.25810838032E+03  0.92274570268E+02 0.  0.
         23    2    4    4    0    0  0.67446400571E+03 -0.98289163183E+03 -0.12338272553E+04  0.17180270022E+04  0.91156071736E+02 0.  0.
          4    1    3    3  502    0 -0.58255240428E+03  0.85653227404E+03 -0.10565691284E+04  0.14796462967E+04  0.00000000000E+00 0. -1.
         -3    1    3    3    0  502  0.23904799662E+01  0.42569766958E+01 -0.28593939368E+01  0.56579482804E+01  0.00000000000E+00 0.  1.
         13    1    5    5    0    0 -0.48558480736E+02  0.12069127738E+03 -0.11146363788E+03  0.17131390211E+03  0.00000000000E+00 0. -1.
        -13    1    5    5    0    0 -0.45743600663E+02  0.14111037120E+01 -0.73748310026E+02  0.86794478206E+02  0.00000000000E+00 0.  1.
          3    1    6    6  503    0  0.50305985671E+03 -0.71365959011E+03 -0.95784967621E+03  0.12960922931E+04  0.00000000000E+00 0. -1.
         -3    1    6    6    0  503  0.17140414900E+03 -0.26923204172E+03 -0.27597757907E+03  0.42193470909E+03  0.00000000000E+00 0.  1.
<mgrwt>
<rscale>  0 0.24163530E+04</rscale>
<asrwt>0</asrwt>
<pdfrwt beam="1">  1        2 0.45691594E+00 0.24163530E+04</pdfrwt>
<pdfrwt beam="2">  1       -1 0.75613225E-01 0.24163530E+04</pdfrwt>
<totfact> 0.32653267E+00</totfact>
</mgrwt>
</event>
<event>
12    7  0.1730932E-007  0.1811562E+04  0.7818608E-02  0.8700175E-01
          2   -1    0    0  501    0  0.00000000000E+00  0.00000000000E+00  0.66947631897E+03  0.66947631897E+03  0.00000000000E+00 0. -1.
         -1   -1    0    0    0  501 -0.00000000000E+00 -0.00000000000E+00 -0.12254934722E+04  0.12254934722E+04  0.00000000000E+00 0.  1.
         24    2    1    2    0    0 -0.20508407093E+03 -0.48565022345E+03  0.24165381027E+03  0.58534150762E+03  0.79451248219E+02 0.  0.
        254    2    1    2    0    0  0.20508407093E+03  0.48565022345E+03 -0.79767096347E+03  0.13096282835E+04  0.89494785287E+03 0.  0.
         23    2    4    4    0    0 -0.30647060032E+03  0.31760604713E+03 -0.18124889886E+03  0.48611017212E+03  0.93027447955E+02 0.  0.
         23    2    4    4    0    0  0.51155467124E+03  0.16804417633E+03 -0.61642206461E+03  0.82351811140E+03  0.90988412482E+02 0.  0.
          4    1    3    3  502    0 -0.20665428635E+03 -0.47487826084E+03  0.22326122560E+03  0.56396891008E+03  0.00000000000E+00 0. -1.
         -3    1    3    3    0  502  0.15702154246E+01 -0.10771962616E+02  0.18392584661E+02  0.21372597540E+02  0.00000000000E+00 0.  1.
         13    1    5    5    0    0 -0.26440077670E+03  0.21720787948E+03 -0.13551825862E+03  0.36803835676E+03  0.00000000000E+00 0. -1.
        -13    1    5    5    0    0 -0.42069823616E+02  0.10039816765E+03 -0.45730640241E+02  0.11807181536E+03  0.00000000000E+00 0.  1.
          3    1    6    6  503    0  0.49467199907E+03  0.16701012320E+03 -0.56458920119E+03  0.76899527568E+03  0.00000000000E+00 0. -1.
         -3    1    6    6    0  503  0.16882672174E+02  0.10340531296E+01 -0.51832863414E+02  0.54522835723E+02  0.00000000000E+00 0.  1.
<mgrwt>
<rscale>  0 0.18115616E+04</rscale>
<asrwt>0</asrwt>
<pdfrwt beam="1">  1        2 0.10299636E+00 0.18115616E+04</pdfrwt>
<pdfrwt beam="2">  1       -1 0.18853746E+00 0.18115616E+04</pdfrwt>
<totfact> 0.84451026E+00</totfact>
</mgrwt>
</event>
<event>
12    7  0.1730932E-007  0.1534500E+04  0.7818608E-02  0.8861829E-01
          2   -1    0    0  501    0  0.00000000000E+00  0.00000000000E+00  0.14077059882E+04  0.14077059882E+04  0.00000000000E+00 0. -1.
         -1   -1    0    0    0  501 -0.00000000000E+00 -0.00000000000E+00 -0.41817864792E+03  0.41817864792E+03  0.00000000000E+00 0.  1.
         24    2    1    2    0    0  0.21445823754E+03 -0.19407156225E+03 -0.13710767193E+03  0.33017866055E+03  0.81014364510E+02 0.  0.
        254    2    1    2    0    0 -0.21445823754E+03  0.19407156225E+03  0.11266350122E+04  0.14957059756E+04  0.94030516732E+03 0.  0.
         23    2    4    4    0    0 -0.39250573282E+03 -0.51381714323E+02  0.94406670261E+02  0.41606931905E+03  0.86603856713E+02 0.  0.
         23    2    4    4    0    0  0.17804749528E+03  0.24545327657E+03  0.10322283419E+04  0.10796366565E+04  0.90397669439E+02 0.  0.
          4    1    3    3  502    0  0.63123602803E+02 -0.10645909246E+03 -0.39507701878E+02  0.12991915219E+03  0.00000000000E+00 0. -1.
         -3    1    3    3    0  502  0.15133463474E+03 -0.87612469787E+02 -0.97599970055E+02  0.20025950836E+03  0.00000000000E+00 0.  1.
         13    1    5    5    0    0 -0.38440793529E+03 -0.63851814046E+02  0.86233757914E+02  0.39910246288E+03  0.00000000000E+00 0.  1.
        -13    1    5    5    0    0 -0.80977975266E+01  0.12470099723E+02  0.81729123464E+01  0.16966856164E+02  0.00000000000E+00 0. -1.
          3    1    6    6  503    0  0.32362364136E+02  0.30473461259E+02  0.69517429601E+02  0.82514407662E+02  0.00000000000E+00 0. -1.
         -3    1    6    6    0  503  0.14568513114E+03  0.21497981531E+03  0.96271091233E+03  0.99712224885E+03  0.00000000000E+00 0.  1.
<mgrwt>
<rscale>  0 0.15345000E+04</rscale>
<asrwt>0</asrwt>
<pdfrwt beam="1">  1        2 0.21657015E+00 0.15345000E+04</pdfrwt>
<pdfrwt beam="2">  1       -1 0.64335177E-01 0.15345000E+04</pdfrwt>
<totfact> 0.38544010E+01</totfact>
</mgrwt>
</event>
<event>
12    7  0.1730932E-007  0.2391314E+04  0.7818608E-02  0.8442763E-01
         -3   -1    0    0    0  501 -0.00000000000E+00  0.00000000000E+00  0.51337009141E+03  0.51337009141E+03  0.00000000000E+00 0.  1.
          2   -1    0    0  501    0  0.00000000000E+00 -0.00000000000E+00 -0.27847264361E+04  0.27847264361E+04  0.00000000000E+00 0. -1.
         24    2    1    2    0    0  0.37482880214E+03 -0.74086925772E+03 -0.17426017620E+04  0.19319595269E+04  0.80142527392E+02 0.  0.
        254    2    1    2    0    0 -0.37482880214E+03  0.74086925772E+03 -0.52875458269E+03  0.13661370006E+04  0.94729351722E+03 0.  0.
         23    2    4    4    0    0 -0.58445633509E+03  0.38650236930E+03 -0.22241019265E+02  0.70714249983E+03  0.92642123364E+02 0.  0.
         23    2    4    4    0    0  0.20962753295E+03  0.35436688842E+03 -0.50651356342E+03  0.65899450078E+03  0.90543735031E+02 0.  0.
          4    1    3    3  502    0  0.27484464624E+03 -0.50726724040E+03 -0.11304128925E+04  0.12691307814E+04  0.00000000000E+00 0. -1.
         -3    1    3    3    0  502  0.99984155902E+02 -0.23360201732E+03 -0.61218886951E+03  0.66282874552E+03  0.00000000000E+00 0.  1.
         13    1    5    5    0    0 -0.27423802492E+03  0.23617697121E+03 -0.40877802248E+01  0.36194304246E+03  0.00000000000E+00 0. -1.
        -13    1    5    5    0    0 -0.31021831017E+03  0.15032539810E+03 -0.18153239040E+02  0.34519945736E+03  0.00000000000E+00 0.  1.
          1    1    6    6  503    0  0.18457532837E+03  0.34932406490E+03 -0.48525248251E+03  0.62575180858E+03  0.00000000000E+00 0. -1.
         -1    1    6    6    0  503  0.25052204580E+02  0.50428235240E+01 -0.21261080909E+02  0.33242692202E+02  0.00000000000E+00 0.  1.
<mgrwt>
<rscale>  0 0.23913137E+04</rscale>
<asrwt>0</asrwt>
<pdfrwt beam="1">  1        2 0.42841946E+00 0.23913137E+04</pdfrwt>
<pdfrwt beam="2">  1       -3 0.78980013E-01 0.23913137E+04</pdfrwt>
<totfact> 0.20405014E+00</totfact>
</mgrwt>
</event>
<event>
12    7  0.1730932E-007  0.1593882E+04  0.7818608E-02  0.8824316E-01
         -3   -1    0    0    0  501 -0.00000000000E+00  0.00000000000E+00  0.68083692589E+03  0.68083692589E+03  0.00000000000E+00 0.  1.
          4   -1    0    0  501    0  0.00000000000E+00 -0.00000000000E+00 -0.93284399603E+03  0.93284399603E+03  0.00000000000E+00 0. -1.
         24    2    1    2    0    0  0.44366102548E+03  0.74080714462E+02 -0.37074330715E+03  0.58859026808E+03  0.81638508673E+02 0.  0.
        254    2    1    2    0    0 -0.44366102548E+03 -0.74080714462E+02  0.11873623700E+03  0.10250906538E+04  0.91344923057E+03 0.  0.
         23    2    4    4    0    0  0.96123710825E+02 -0.11080531917E+03 -0.29253470412E+03  0.33929767880E+03  0.89603432888E+02 0.  0.
         23    2    4    4    0    0 -0.53978473631E+03  0.36724604709E+02  0.41127094113E+03  0.68579297504E+03  0.91934538973E+02 0.  0.
          2    1    3    3  502    0  0.42456298636E+03  0.55829276304E+02 -0.36211168549E+03  0.56079899274E+03  0.00000000000E+00 0. -1.
         -1    1    3    3    0  502  0.19098039116E+02  0.18251438157E+02 -0.86316216560E+01  0.27791275345E+02  0.00000000000E+00 0.  1.
         13    1    5    5    0    0  0.42573349040E+02 -0.11007828696E+03 -0.19157056759E+03  0.22500889243E+03  0.00000000000E+00 0.  1.
        -13    1    5    5    0    0  0.53550361785E+02 -0.72703220908E+00 -0.10096413654E+03  0.11428878637E+03  0.00000000000E+00 0. -1.
          3    1    6    6  503    0 -0.44987585450E+03 -0.44465254498E+01  0.33629394744E+03  0.56169535794E+03  0.00000000000E+00 0. -1.
         -3    1    6    6    0  503 -0.89908881803E+02  0.41171130158E+02  0.74976993692E+02  0.12409761710E+03  0.00000000000E+00 0.  1.
<mgrwt>
<rscale>  0 0.15938816E+04</rscale>
<asrwt>0</asrwt>
<pdfrwt beam="1">  1        4 0.14351446E+00 0.15938816E+04</pdfrwt>
<pdfrwt beam="2">  1       -3 0.10474414E+00 0.15938816E+04</pdfrwt>
<totfact> 0.57553369E-01</totfact>
</mgrwt>
</event>
<event>
12    7  0.1730932E-007  0.1734144E+04  0.7818608E-02  0.8742127E-01
          2   -1    0    0  501    0  0.00000000000E+00  0.00000000000E+00  0.51717946108E+03  0.51717946108E+03  0.00000000000E+00 0. -1.
         -1   -1    0    0    0  501 -0.00000000000E+00 -0.00000000000E+00 -0.14536806996E+04  0.14536806996E+04  0.00000000000E+00 0.  1.
         24    2    1    2    0    0  0.40805362659E+03  0.16354652062E+03 -0.86331973862E+03  0.97218480218E+03  0.81037595716E+02 0.  0.
        254    2    1    2    0    0 -0.40805362659E+03 -0.16354652062E+03 -0.73181499939E+02  0.99867535853E+03  0.89372351050E+03 0.  0.
         23    2    4    4    0    0  0.37833284541E+02  0.31514010223E+03 -0.75059338394E+02  0.33836729131E+03  0.90077067520E+02 0.  0.
         23    2    4    4    0    0 -0.44588691113E+03 -0.47868662285E+03  0.18778384551E+01  0.66030806722E+03  0.89706170058E+02 0.  0.
          4    1    3    3  502    0  0.14412603333E+03  0.10017930782E+03 -0.34710800476E+03  0.38896294704E+03  0.00000000000E+00 0. -1.
         -3    1    3    3    0  502  0.26392759326E+03  0.63367212795E+02 -0.51621173386E+03  0.58322185514E+03  0.00000000000E+00 0.  1.
         13    1    5    5    0    0  0.22234405663E+02  0.30109624912E+03 -0.50583576938E+02  0.30612418768E+03  0.00000000000E+00 0.  1.
        -13    1    5    5    0    0  0.15598878878E+02  0.14043853113E+02 -0.24475761457E+02  0.32243103626E+02  0.00000000000E+00 0. -1.
          2    1    6    6  503    0 -0.10799642698E+03 -0.11139496959E+03  0.38616825604E+02  0.15988535489E+03  0.00000000000E+00 0. -1.
         -2    1    6    6    0  503 -0.33789048416E+03 -0.36729165326E+03 -0.36738987149E+02  0.50042271233E+03  0.00000000000E+00 0.  1.
<mgrwt>
<rscale>  0 0.17341439E+04</rscale>
<asrwt>0</asrwt>
<pdfrwt beam="1">  1        2 0.79566073E-01 0.17341439E+04</pdfrwt>
<pdfrwt beam="2">  1       -1 0.22364318E+00 0.17341439E+04</pdfrwt>
<totfact> 0.66788556E+00</totfact>
</mgrwt>
</event>
<event>
12    7  0.1730932E-007  0.2615610E+04  0.7818608E-02  0.8362918E-01
          2   -1    0    0  501    0  0.00000000000E+00  0.00000000000E+00  0.15865274868E+04  0.15865274868E+04  0.00000000000E+00 0. -1.
         -1   -1    0    0    0  501 -0.00000000000E+00 -0.00000000000E+00 -0.10780488082E+04  0.10780488082E+04  0.00000000000E+00 0.  1.
         24    2    1    2    0    0  0.22933330968E+03 -0.40667496762E+03  0.12961694516E+04  0.13799837252E+04  0.79508102891E+02 0.  0.
        254    2    1    2    0    0 -0.22933330968E+03  0.40667496762E+03 -0.78769077303E+03  0.12845925698E+04  0.90096782419E+03 0.  0.
         23    2    4    4    0    0  0.23571067793E+03  0.44851809302E+03 -0.54883804737E+03  0.75232890493E+03  0.89708279967E+02 0.  0.
         23    2    4    4    0    0 -0.46504398761E+03 -0.41843125400E+02 -0.23885272566E+03  0.53226366486E+03  0.90759169323E+02 0.  0.
          4    1    3    3  502    0  0.16504741606E+03 -0.33219846950E+03  0.94200277844E+03  0.10124059005E+04  0.00000000000E+00 0. -1.
         -3    1    3    3    0  502  0.64285893628E+02 -0.74476498120E+02  0.35416667315E+03  0.36757782477E+03  0.00000000000E+00 0.  1.
         13    1    5    5    0    0  0.16819880722E+03  0.31159458815E+03 -0.44028278180E+03  0.56500526906E+03  0.00000000000E+00 0. -1.
        -13    1    5    5    0    0  0.67511870705E+02  0.13692350487E+03 -0.10855526557E+03  0.18732363587E+03  0.00000000000E+00 0.  1.
          3    1    6    6  503    0 -0.45888321523E+03 -0.51267519752E+02 -0.22286593954E+03  0.51270985051E+03  0.00000000000E+00 0. -1.
         -3    1    6    6    0  503 -0.61607723793E+01  0.94243943523E+01 -0.15986786112E+02  0.19553814344E+02  0.00000000000E+00 0.  1.
<mgrwt>
<rscale>  0 0.26156101E+04</rscale>
<asrwt>0</asrwt>
<pdfrwt beam="1">  1        2 0.24408115E+00 0.26156101E+04</pdfrwt>
<pdfrwt beam="2">  1       -1 0.16585366E+00 0.26156101E+04</pdfrwt>
<totfact> 0.30146572E+00</totfact>
</mgrwt>
</event>
<event>
12    7  0.1730932E-007  0.2853471E+04  0.7818608E-02  0.8286857E-01
         -1   -1    0    0    0  501 -0.00000000000E+00  0.00000000000E+00  0.99140201417E+03  0.99140201417E+03  0.00000000000E+00 0.  1.
          2   -1    0    0  501    0  0.00000000000E+00 -0.00000000000E+00 -0.20532285254E+04  0.20532285254E+04  0.00000000000E+00 0. -1.
         24    2    1    2    0    0 -0.70238227766E+03 -0.92670302344E+03 -0.10549029238E+04  0.15720435878E+04  0.79884326542E+02 0.  0.
        254    2    1    2    0    0  0.70238227766E+03  0.92670302344E+03 -0.69235874474E+01  0.14725869518E+04  0.90351814424E+03 0.  0.
         23    2    4    4    0    0  0.44844127032E+02 -0.16595983281E+03 -0.16548746563E+02  0.19404616253E+03  0.88466888413E+02 0.  0.
         23    2    4    4    0    0  0.65753815063E+03  0.10926628563E+04  0.96251591159E+01  0.12785407893E+04  0.91133798343E+02 0.  0.
          2    1    3    3  502    0 -0.17052275537E+03 -0.21558961635E+03 -0.29579345174E+03  0.40379531804E+03  0.00000000000E+00 0. -1.
         -1    1    3    3    0  502 -0.53185952229E+03 -0.71111340710E+03 -0.75910947207E+03  0.11682482698E+04  0.00000000000E+00 0.  1.
         13    1    5    5    0    0  0.52395108351E+01 -0.14958409380E+03 -0.54467550321E+01  0.14977490020E+03  0.00000000000E+00 0. -1.
        -13    1    5    5    0    0  0.39604616197E+02 -0.16375739015E+02 -0.11101991531E+02  0.44271262331E+02  0.00000000000E+00 0.  1.
          1    1    6    6  503    0  0.30214212779E+03  0.56468411273E+03 -0.27336828451E+02  0.64101896598E+03  0.00000000000E+00 0.  1.
         -1    1    6    6    0  503  0.35539602284E+03  0.52797874352E+03  0.36961987567E+02  0.63752182330E+03  0.00000000000E+00 0. -1.
<mgrwt>
<rscale>  0 0.28534715E+04</rscale>
<asrwt>0</asrwt>
<pdfrwt beam="1">  1        2 0.31588131E+00 0.28534715E+04</pdfrwt>
<pdfrwt beam="2">  1       -1 0.15252339E+00 0.28534715E+04</pdfrwt>
<totfact> 0.20506650E+00</totfact>
</mgrwt>
</event>
<event>
12    7  0.1730932E-007  0.2098947E+04  0.7818608E-02  0.8561707E-01
          2   -1    0    0  501    0  0.00000000000E+00  0.00000000000E+00  0.22515997457E+04  0.22515997457E+04  0.00000000000E+00 0. -1.
         -1   -1    0    0    0  501 -0.00000000000E+00 -0.00000000000E+00 -0.48916102181E+03  0.48916102181E+03  0.00000000000E+00 0.  1.
         24    2    1    2    0    0  0.28599776612E+03 -0.95789772873E+02 -0.32210467890E+03  0.44852476999E+03  0.80328340682E+02 0.  0.
        254    2    1    2    0    0 -0.28599776612E+03  0.95789772873E+02  0.20845434028E+04  0.22922359975E+04  0.90446352464E+03 0.  0.
         23    2    4    4    0    0 -0.29892231951E+02 -0.37548691405E+03  0.63709624799E+03  0.74591917172E+03  0.92842950103E+02 0.  0.
         23    2    4    4    0    0 -0.25610553417E+03  0.47127668692E+03  0.14474471548E+04  0.15463168258E+04  0.91108174957E+02 0.  0.
          2    1    3    3  502    0  0.84165655474E+02  0.75323762824E+01 -0.72860229184E+02  0.11157601557E+03  0.00000000000E+00 0. -1.
         -1    1    3    3    0  502  0.20183211065E+03 -0.10332214915E+03 -0.24924444971E+03  0.33694875442E+03  0.00000000000E+00 0.  1.
         13    1    5    5    0    0 -0.24576438156E+02 -0.38007296192E+03  0.62723283978E+03  0.73381230093E+03  0.00000000000E+00 0. -1.
        -13    1    5    5    0    0 -0.53157937957E+01  0.45860478756E+01  0.98634082062E+01  0.12106870786E+02  0.00000000000E+00 0.  1.
          2    1    6    6  503    0 -0.96394164884E+02  0.11372632038E+03  0.32619668113E+03  0.35864994877E+03  0.00000000000E+00 0.  1.
         -2    1    6    6    0  503 -0.15971136929E+03  0.35755036654E+03  0.11212504737E+04  0.11876668770E+04  0.00000000000E+00 0. -1.
<mgrwt>
<rscale>  0 0.20989472E+04</rscale>
<asrwt>0</asrwt>
<pdfrwt beam="1">  1        2 0.34639996E+00 0.20989472E+04</pdfrwt>
<pdfrwt beam="2">  1       -1 0.75255543E-01 0.20989472E+04</pdfrwt>
<totfact> 0.89929464E+00</totfact>
</mgrwt>
</event>
<event>
12    7  0.1730932E-007  0.1417215E+04  0.7818608E-02  0.8941451E-01
         -1   -1    0    0    0  501 -0.00000000000E+00  0.00000000000E+00  0.23817625549E+03  0.23817625549E+03  0.00000000000E+00 0.  1.
          2   -1    0    0  501    0  0.00000000000E+00 -0.00000000000E+00 -0.21082047383E+04  0.21082047383E+04  0.00000000000E+00 0. -1.
         24    2    1    2    0    0  0.11266407270E+03 -0.16038268328E+03  0.46793674889E+02  0.21665504898E+03  0.79586203992E+02 0.  0.
        254    2    1    2    0    0 -0.11266407270E+03  0.16038268328E+03 -0.19168221577E+04  0.21297259448E+04  0.90725388808E+03 0.  0.
         23    2    4    4    0    0  0.15690699695E+03  0.45833974411E+03 -0.12776647319E+04  0.13695048216E+04  0.91766891780E+02 0.  0.
         23    2    4    4    0    0 -0.26957106965E+03 -0.29795706083E+03 -0.63915742583E+03  0.76022112329E+03  0.89257882569E+02 0.  0.
          4    1    3    3  502    0  0.13324706024E+02  0.24499894077E+01 -0.10888510231E+02  0.17381308748E+02  0.00000000000E+00 0. -1.
         -3    1    3    3    0  502  0.99339366672E+02 -0.16283267269E+03  0.57682185120E+02  0.19927374023E+03  0.00000000000E+00 0.  1.
         13    1    5    5    0    0  0.47239906174E+02  0.19043412072E+03 -0.40389420491E+03  0.44902927725E+03  0.00000000000E+00 0. -1.
        -13    1    5    5    0    0  0.10966709078E+03  0.26790562340E+03 -0.87377052699E+03  0.92047554431E+03  0.00000000000E+00 0.  1.
          4    1    6    6  503    0 -0.38526233492E+02 -0.25110877726E+02 -0.13142791425E+03  0.13924124206E+03  0.00000000000E+00 0. -1.
         -4    1    6    6    0  503 -0.23104483616E+03 -0.27284618311E+03 -0.50772951158E+03  0.62097988122E+03  0.00000000000E+00 0.  1.
<mgrwt>
<rscale>  0 0.14172146E+04</rscale>
<asrwt>0</asrwt>
<pdfrwt beam="1">  1        2 0.32433920E+00 0.14172146E+04</pdfrwt>
<pdfrwt beam="2">  1       -1 0.36642500E-01 0.14172146E+04</pdfrwt>
<totfact> 0.46041175E+01</totfact>
</mgrwt>
</event>
<event>
12    7  0.1730932E-007  0.2637840E+04  0.7818608E-02  0.8355460E-01
         -1   -1    0    0    0  501 -0.00000000000E+00  0.00000000000E+00  0.88904702908E+03  0.88904702908E+03  0.00000000000E+00 0.  1.
          2   -1    0    0  501    0  0.00000000000E+00 -0.00000000000E+00 -0.19566457586E+04  0.19566457586E+04  0.00000000000E+00 0. -1.
         24    2    1    2    0    0 -0.41384653849E+03  0.66492870581E+03 -0.14312166633E+04  0.16334517529E+04  0.79902129746E+02 0.  0.
        254    2    1    2    0    0  0.41384653849E+03 -0.66492870581E+03  0.36361793378E+03  0.12122410348E+04  0.85082970302E+03 0.  0.
         23    2    4    4    0    0 -0.24423864035E+03 -0.15916264889E+03  0.18861532524E+03  0.35921256123E+03  0.92047058569E+02 0.  0.
         23    2    4    4    0    0  0.65808517884E+03 -0.50576605692E+03  0.17500260854E+03  0.85302847360E+03  0.90311997182E+02 0.  0.
          2    1    3    3  502    0 -0.36721439331E+03  0.53868483105E+03 -0.11587401459E+04  0.13295512339E+04  0.00000000000E+00 0. -1.
         -1    1    3    3    0  502 -0.46632145176E+02  0.12624387477E+03 -0.27247651737E+03  0.30390051892E+03  0.00000000000E+00 0.  1.
         13    1    5    5    0    0 -0.10257247277E+01 -0.21652405791E+02 -0.75222365871E+00  0.21689735549E+02  0.00000000000E+00 0. -1.
        -13    1    5    5    0    0 -0.24321291562E+03 -0.13751024310E+03  0.18936754890E+03  0.33752282568E+03  0.00000000000E+00 0.  1.
          3    1    6    6  503    0  0.15342098894E+03 -0.74861739885E+02  0.48636439760E+02  0.17750431888E+03  0.00000000000E+00 0. -1.
         -3    1    6    6    0  503  0.50466418989E+03 -0.43090431704E+03  0.12636616878E+03  0.67552415472E+03  0.00000000000E+00 0.  1.
<mgrwt>
<rscale>  0 0.26378401E+04</rscale>
<asrwt>0</asrwt>
<pdfrwt beam="1">  1        2 0.30102242E+00 0.26378401E+04</pdfrwt>
<pdfrwt beam="2">  1       -1 0.13677647E+00 0.26378401E+04</pdfrwt>
<totfact> 0.31561484E+00</totfact>
</mgrwt>
</event>
<event>
12    7  0.1730932E-007  0.2170182E+04  0.7818608E-02  0.8530943E-01
         -1   -1    0    0    0  501 -0.00000000000E+00  0.00000000000E+00  0.96700653580E+03  0.96700653580E+03  0.00000000000E+00 0.  1.
          2   -1    0    0  501    0  0.00000000000E+00 -0.00000000000E+00 -0.12175946034E+04  0.12175946034E+04  0.00000000000E+00 0. -1.
         24    2    1    2    0    0 -0.84278275281E+03 -0.23514607795E+03 -0.31211813033E+03  0.93199846287E+03  0.75013072954E+02 0.  0.
        254    2    1    2    0    0  0.84278275281E+03  0.23514607795E+03  0.61530062721E+02  0.12526026763E+04  0.89423211179E+03 0.  0.
         23    2    4    4    0    0  0.77565946065E+03  0.86031738386E+02  0.38675854038E+03  0.87526540511E+03  0.86361460889E+02 0.  0.
         23    2    4    4    0    0  0.67123292156E+02  0.14911433956E+03 -0.32522847766E+03  0.37733727123E+03  0.99344003150E+02 0.  0.
          2    1    3    3  502    0 -0.63681029412E+03 -0.21068145386E+03 -0.23977060995E+03  0.71232294018E+03  0.00000000000E+00 0. -1.
         -1    1    3    3    0  502 -0.20597245868E+03 -0.24464624086E+02 -0.72347520377E+02  0.21967552269E+03  0.00000000000E+00 0.  1.
         13    1    5    5    0    0  0.54927428871E+03  0.94533528640E+02  0.25201897195E+03  0.61167997719E+03  0.00000000000E+00 0. -1.
        -13    1    5    5    0    0  0.22638517194E+03 -0.85017902535E+01  0.13473956843E+03  0.26358542792E+03  0.00000000000E+00 0.  1.
          2    1    6    6  503    0  0.71381516495E+02  0.95855199569E+02 -0.28912780143E+03  0.31285527923E+03  0.00000000000E+00 0. -1.
         -2    1    6    6    0  503 -0.42582243394E+01  0.53259139995E+02 -0.36100676228E+02  0.64481991995E+02  0.00000000000E+00 0.  1.
<mgrwt>
<rscale>  0 0.21701815E+04</rscale>
<asrwt>0</asrwt>
<pdfrwt beam="1">  1        2 0.18732225E+00 0.21701815E+04</pdfrwt>
<pdfrwt beam="2">  1       -1 0.14877024E+00 0.21701815E+04</pdfrwt>
<totfact> 0.68893559E+00</totfact>
</mgrwt>
</event>
<event>
12    7  0.1730932E-007  0.1575118E+04  0.7818608E-02  0.8835981E-01
          2   -1    0    0  501    0  0.00000000000E+00  0.00000000000E+00  0.94106601042E+03  0.94106601042E+03  0.00000000000E+00 0. -1.
         -1   -1    0    0    0  501 -0.00000000000E+00 -0.00000000000E+00 -0.65909232188E+03  0.65909232188E+03  0.00000000000E+00 0.  1.
         24    2    1    2    0    0 -0.39862854169E+03 -0.18379742584E+03  0.17419962514E+03  0.47890914253E+03  0.79512573923E+02 0.  0.
        254    2    1    2    0    0  0.39862854169E+03  0.18379742584E+03  0.10777406340E+03  0.11212491898E+04  0.10261083222E+04 0.  0.
         23    2    4    4    0    0 -0.11093631747E+03  0.39475612440E+02 -0.37108148712E+03  0.40167957588E+03  0.98892977933E+02 0.  0.
         23    2    4    4    0    0  0.50956485915E+03  0.14432181340E+03  0.47885555052E+03  0.71956961389E+03  0.89401674845E+02 0.  0.
          2    1    3    3  502    0 -0.18817373316E+03 -0.66672064895E+02  0.11686745448E+03  0.23132773289E+03  0.00000000000E+00 0. -1.
         -1    1    3    3    0  502 -0.21045480852E+03 -0.11712536094E+03  0.57332170667E+02  0.24758140964E+03  0.00000000000E+00 0.  1.
         13    1    5    5    0    0 -0.69949239766E+02 -0.25634588504E+02 -0.14778787111E+03  0.16550312118E+03  0.00000000000E+00 0. -1.
        -13    1    5    5    0    0 -0.40987077700E+02  0.65110200944E+02 -0.22329361601E+03  0.23617645470E+03  0.00000000000E+00 0.  1.
          1    1    6    6  503    0  0.50068623813E+03  0.15361852107E+03  0.46203695288E+03  0.69840067647E+03  0.00000000000E+00 0. -1.
         -1    1    6    6    0  503  0.88786210178E+01 -0.92967076736E+01  0.16818597639E+02  0.21168937415E+02  0.00000000000E+00 0.  1.
<mgrwt>
<rscale>  0 0.15751183E+04</rscale>
<asrwt>0</asrwt>
<pdfrwt beam="1">  1        2 0.14477939E+00 0.15751183E+04</pdfrwt>
<pdfrwt beam="2">  1       -1 0.10139882E+00 0.15751183E+04</pdfrwt>
<totfact> 0.27861537E+01</totfact>
</mgrwt>
</event>
<event>
12    7  0.1730932E-007  0.1426087E+04  0.7818608E-02  0.8935149E-01
         -1   -1    0    0    0  501 -0.00000000000E+00  0.00000000000E+00  0.83020865061E+03  0.83020865061E+03  0.00000000000E+00 0.  1.
          2   -1    0    0  501    0  0.00000000000E+00 -0.00000000000E+00 -0.61241356445E+03  0.61241356445E+03  0.00000000000E+00 0. -1.
         24    2    1    2    0    0  0.25384203039E+03 -0.96158414247E+02  0.40409065897E+03  0.49319912471E+03  0.79207947412E+02 0.  0.
        254    2    1    2    0    0 -0.25384203039E+03  0.96158414247E+02 -0.18629557281E+03  0.94942309035E+03  0.89051442831E+03 0.  0.
         23    2    4    4    0    0 -0.16090479995E+03  0.44631064060E+03  0.81484643400E+02  0.48996618837E+03  0.91343177484E+02 0.  0.
         23    2    4    4    0    0 -0.92937230440E+02 -0.35015222635E+03 -0.26778021621E+03  0.45945690199E+03  0.90280065177E+02 0.  0.
          2    1    3    3  502    0  0.10999971667E+03 -0.67738171946E+00  0.15042576630E+03  0.18635532641E+03  0.00000000000E+00 0. -1.
         -1    1    3    3    0  502  0.14384231372E+03 -0.95481032528E+02  0.25366489266E+03  0.30684379831E+03  0.00000000000E+00 0.  1.
         13    1    5    5    0    0 -0.83660104246E+02  0.13802474681E+03 -0.18351378480E+01  0.16141007250E+03  0.00000000000E+00 0. -1.
        -13    1    5    5    0    0 -0.77244695700E+02  0.30828589379E+03  0.83319781248E+02  0.32855611586E+03  0.00000000000E+00 0.  1.
          1    1    6    6  503    0  0.72235026586E+01 -0.97569301925E+02 -0.10110730654E+03  0.14069340818E+03  0.00000000000E+00 0. -1.
         -1    1    6    6    0  503 -0.10016073310E+03 -0.25258292443E+03 -0.16667290966E+03  0.31876349381E+03  0.00000000000E+00 0.  1.
<mgrwt>
<rscale>  0 0.14260870E+04</rscale>
<asrwt>0</asrwt>
<pdfrwt beam="1">  1        2 0.94217472E-01 0.14260870E+04</pdfrwt>
<pdfrwt beam="2">  1       -1 0.12772441E+00 0.14260870E+04</pdfrwt>
<totfact> 0.28482988E+01</totfact>
</mgrwt>
</event>
<event>
12    7  0.1730932E-007  0.1358974E+04  0.7818608E-02  0.8984063E-01
          2   -1    0    0  501    0  0.00000000000E+00  0.00000000000E+00  0.60793662151E+03  0.60793662151E+03  0.00000000000E+00 0. -1.
         -1   -1    0    0    0  501 -0.00000000000E+00 -0.00000000000E+00 -0.75945804486E+03  0.75945804486E+03  0.00000000000E+00 0.  1.
         24    2    1    2    0    0 -0.31412657762E+03  0.19588752186E+03 -0.78617804588E+02  0.38688779554E+03  0.80336661306E+02 0.  0.
        254    2    1    2    0    0  0.31412657762E+03 -0.19588752186E+03 -0.72903618763E+02  0.98050687083E+03  0.90500351277E+03 0.  0.
         23    2    4    4    0    0 -0.37710824807E+02 -0.48383423036E+03  0.62422676751E+02  0.49741742134E+03  0.89497663102E+02 0.  0.
         23    2    4    4    0    0  0.35183740242E+03  0.28794670850E+03 -0.13532629551E+03  0.48308944949E+03  0.91429455182E+02 0.  0.
          4    1    3    3  502    0 -0.18606602025E+03  0.11487271239E+03 -0.57545027009E+01  0.21874509879E+03  0.00000000000E+00 0. -1.
         -3    1    3    3    0  502 -0.12806055737E+03  0.81014809470E+02 -0.72863301887E+02  0.16814269675E+03  0.00000000000E+00 0.  1.
         13    1    5    5    0    0  0.26722743789E+02 -0.77020253259E+02  0.13554663127E+02  0.82643531751E+02  0.00000000000E+00 0. -1.
        -13    1    5    5    0    0 -0.64433568596E+02 -0.40681397710E+03  0.48868013624E+02  0.41477388958E+03  0.00000000000E+00 0.  1.
          4    1    6    6  503    0  0.22822327838E+03  0.23216307915E+03 -0.11841405820E+03  0.34642091348E+03  0.00000000000E+00 0. -1.
         -4    1    6    6    0  503  0.12361412404E+03  0.55783629348E+02 -0.16912237318E+02  0.13666853602E+03  0.00000000000E+00 0.  1.
<mgrwt>
<rscale>  0 0.13589737E+04</rscale>
<asrwt>0</asrwt>
<pdfrwt beam="1">  1        2 0.93528712E-01 0.13589737E+04</pdfrwt>
<pdfrwt beam="2">  1       -1 0.11683970E+00 0.13589737E+04</pdfrwt>
<totfact> 0.35986098E+01</totfact>
</mgrwt>
</event>
<event>
12    7  0.1730932E-007  0.1319052E+04  0.7818608E-02  0.9014592E-01
          2   -1    0    0  501    0  0.00000000000E+00  0.00000000000E+00  0.75511249559E+03  0.75511249559E+03  0.00000000000E+00 0. -1.
         -1   -1    0    0    0  501 -0.00000000000E+00 -0.00000000000E+00 -0.57603952207E+03  0.57603952207E+03  0.00000000000E+00 0.  1.
         24    2    1    2    0    0 -0.19641239215E+03  0.84753893450E+02  0.36997565702E+03  0.43478290210E+03  0.79957081787E+02 0.  0.
        254    2    1    2    0    0  0.19641239215E+03 -0.84753893450E+02 -0.19090268350E+03  0.89636911555E+03  0.84927775581E+03 0.  0.
         23    2    4    4    0    0  0.11417959904E+03  0.37249553461E+03 -0.55338062763E+02  0.40378660888E+03  0.90506464848E+02 0.  0.
         23    2    4    4    0    0  0.82232793105E+02 -0.45724942806E+03 -0.13556462074E+03  0.49258250667E+03  0.91763215749E+02 0.  0.
          2    1    3    3  502    0 -0.14837109287E+03  0.98674168498E+02  0.28181915520E+03  0.33342556736E+03  0.00000000000E+00 0. -1.
         -1    1    3    3    0  502 -0.48041299279E+02 -0.13920275048E+02  0.88156501820E+02  0.10135733475E+03  0.00000000000E+00 0.  1.
         13    1    5    5    0    0  0.93374965029E+01  0.15230288770E+03  0.45722139926E+01  0.15265734041E+03  0.00000000000E+00 0.  1.
        -13    1    5    5    0    0  0.10484210254E+03  0.22019264691E+03 -0.59910276755E+02  0.25112926846E+03  0.00000000000E+00 0. -1.
          2    1    6    6  503    0  0.82181221732E+01 -0.29035875614E+03 -0.71988357065E+02  0.29926254084E+03  0.00000000000E+00 0. -1.
         -2    1    6    6    0  503  0.74014670932E+02 -0.16689067192E+03 -0.63576263673E+02  0.19331996583E+03  0.00000000000E+00 0.  1.
<mgrwt>
<rscale>  0 0.13190521E+04</rscale>
<asrwt>0</asrwt>
<pdfrwt beam="1">  1        2 0.11617115E+00 0.13190521E+04</pdfrwt>
<pdfrwt beam="2">  1       -1 0.88621465E-01 0.13190521E+04</pdfrwt>
<totfact> 0.51951022E+01</totfact>
</mgrwt>
</event>
<event>
12    7  0.1730932E-007  0.1715842E+04  0.7818608E-02  0.8752380E-01
         -1   -1    0    0    0  501 -0.00000000000E+00  0.00000000000E+00  0.74225925203E+03  0.74225925203E+03  0.00000000000E+00 0.  1.
          2   -1    0    0  501    0  0.00000000000E+00 -0.00000000000E+00 -0.99160581140E+03  0.99160581140E+03  0.00000000000E+00 0. -1.
         24    2    1    2    0    0  0.24212490710E+03  0.68811468735E+02  0.46236479858E+03  0.53232544679E+03  0.78928356507E+02 0.  0.
        254    2    1    2    0    0 -0.24212490710E+03 -0.68811468735E+02 -0.71171135795E+03  0.12015396166E+04  0.93477532299E+03 0.  0.
         23    2    4    4    0    0  0.60639421040E+02  0.36738009956E+03 -0.48432999552E+03  0.61792411132E+03  0.92786776290E+02 0.  0.
         23    2    4    4    0    0 -0.30276432814E+03 -0.43619156830E+03 -0.22738136244E+03  0.58361550533E+03  0.83519168042E+02 0.  0.
          2    1    3    3  502    0  0.77606759811E+02  0.29196939769E-01  0.85904940044E+02  0.11576903189E+03  0.00000000000E+00 0. -1.
         -1    1    3    3    0  502  0.16451814729E+03  0.68782271796E+02  0.37645985854E+03  0.41655641490E+03  0.00000000000E+00 0.  1.
         13    1    5    5    0    0  0.75236915662E+02  0.21948552259E+03 -0.33264399070E+03  0.40556936849E+03  0.00000000000E+00 0. -1.
        -13    1    5    5    0    0 -0.14597494623E+02  0.14789457697E+03 -0.15168600482E+03  0.21235474283E+03  0.00000000000E+00 0.  1.
          4    1    6    6  503    0 -0.69628590703E+02 -0.73942380050E+02 -0.12877552912E+02  0.10237894109E+03  0.00000000000E+00 0. -1.
         -4    1    6    6    0  503 -0.23313573744E+03 -0.36224918825E+03 -0.21450380953E+03  0.48123656424E+03  0.00000000000E+00 0.  1.
<mgrwt>
<rscale>  0 0.17158422E+04</rscale>
<asrwt>0</asrwt>
<pdfrwt beam="1">  1        2 0.15255474E+00 0.17158422E+04</pdfrwt>
<pdfrwt beam="2">  1       -1 0.11419373E+00 0.17158422E+04</pdfrwt>
<totfact> 0.19308797E+01</totfact>
</mgrwt>
</event>
<event>
12    7  0.1730932E-007  0.2613243E+04  0.7818608E-02  0.8363717E-01
         -1   -1    0    0    0  501 -0.00000000000E+00  0.00000000000E+00  0.45030522671E+03  0.45030522671E+03  0.00000000000E+00 0.  1.
          2   -1    0    0  501    0  0.00000000000E+00 -0.00000000000E+00 -0.37913381944E+04  0.37913381944E+04  0.00000000000E+00 0. -1.
         24    2    1    2    0    0  0.95676900788E+03 -0.37216705965E+02 -0.25060443701E+04  0.26839348692E+04  0.80349113086E+02 0.  0.
        254    2    1    2    0    0 -0.95676900788E+03  0.37216705965E+02 -0.83498859763E+03  0.15577085519E+04  0.90136449719E+03 0.  0.
         23    2    4    4    0    0 -0.66531434665E+03  0.41916111287E+03 -0.68076791888E+03  0.10437974713E+04  0.87914636768E+02 0.  0.
         23    2    4    4    0    0 -0.29145466122E+03 -0.38194440691E+03 -0.15422067875E+03  0.51391108056E+03  0.97433215326E+02 0.  0.
          2    1    3    3  502    0  0.51799874422E+03 -0.12993143441E+02 -0.12452914770E+04  0.13487929357E+04  0.00000000000E+00 0. -1.
         -1    1    3    3    0  502  0.43877026365E+03 -0.24223562524E+02 -0.12607528931E+04  0.13351419335E+04  0.00000000000E+00 0.  1.
         13    1    5    5    0    0 -0.60211030901E+02  0.11389824358E+02 -0.45396336623E+02  0.76262203744E+02  0.00000000000E+00 0.  1.
        -13    1    5    5    0    0 -0.60510331575E+03  0.40777128851E+03 -0.63537158226E+03  0.96753526758E+03  0.00000000000E+00 0. -1.
          4    1    6    6  503    0 -0.15033008372E+03 -0.12073434139E+03 -0.72308117692E+02  0.20592323605E+03  0.00000000000E+00 0. -1.
         -4    1    6    6    0  503 -0.14112457750E+03 -0.26121006552E+03 -0.81912561059E+02  0.30798784451E+03  0.00000000000E+00 0.  1.
<mgrwt>
<rscale>  0 0.26132427E+04</rscale>
<asrwt>0</asrwt>
<pdfrwt beam="1">  1        2 0.58328279E+00 0.26132427E+04</pdfrwt>
<pdfrwt beam="2">  1       -1 0.69277728E-01 0.26132427E+04</pdfrwt>
<totfact> 0.10573818E+00</totfact>
</mgrwt>
</event>
<event>
12    7  0.1730932E-007  0.1251361E+04  0.7818608E-02  0.9069051E-01
         -1   -1    0    0    0  501 -0.00000000000E+00  0.00000000000E+00  0.95390052076E+02  0.95390052076E+02  0.00000000000E+00 0.  1.
          2   -1    0    0  501    0  0.00000000000E+00 -0.00000000000E+00 -0.41039491222E+04  0.41039491222E+04  0.00000000000E+00 0. -1.
         24    2    1    2    0    0 -0.11927998599E+03 -0.25733245738E+03 -0.11354858580E+04  0.11730737289E+04  0.79536978782E+02 0.  0.
        254    2    1    2    0    0  0.11927998599E+03  0.25733245738E+03 -0.28730732121E+04  0.30262654453E+04  0.90735062411E+03 0.  0.
         23    2    4    4    0    0 -0.21372726612E+02 -0.31737708821E+03 -0.71694959327E+03  0.78862635525E+03  0.82035354248E+02 0.  0.
         23    2    4    4    0    0  0.14065271260E+03  0.57470954559E+03 -0.21561236188E+04  0.22376390901E+04  0.89918799926E+02 0.  0.
          4    1    3    3  502    0 -0.10078997653E+03 -0.17018396283E+03 -0.89556205190E+03  0.91714371250E+03  0.00000000000E+00 0. -1.
         -3    1    3    3    0  502 -0.18490009457E+02 -0.87148494547E+02 -0.23992380612E+03  0.25593001640E+03  0.00000000000E+00 0.  1.
         13    1    5    5    0    0 -0.26120422262E+02 -0.29568433405E+03 -0.59797205060E+03  0.66759424440E+03  0.00000000000E+00 0. -1.
        -13    1    5    5    0    0  0.47476956501E+01 -0.21692754161E+02 -0.11897754267E+03  0.12103211085E+03  0.00000000000E+00 0.  1.
          4    1    6    6  503    0  0.51753555203E+02  0.32453556331E+03 -0.13245417005E+04  0.13647023407E+04  0.00000000000E+00 0. -1.
         -4    1    6    6    0  503  0.88899157399E+02  0.25017398229E+03 -0.83158191826E+03  0.87293674935E+03  0.00000000000E+00 0.  1.
<mgrwt>
<rscale>  0 0.12513607E+04</rscale>
<asrwt>0</asrwt>
<pdfrwt beam="1">  1        2 0.63137677E+00 0.12513607E+04</pdfrwt>
<pdfrwt beam="2">  1       -1 0.14675393E-01 0.12513607E+04</pdfrwt>
<totfact> 0.11159926E+01</totfact>
</mgrwt>
</event>
<event>
12    7  0.1730932E-007  0.1341973E+04  0.7818608E-02  0.8996927E-01
         -1   -1    0    0    0  501 -0.00000000000E+00  0.00000000000E+00  0.19929203519E+03  0.19929203519E+03  0.00000000000E+00 0.  1.
          2   -1    0    0  501    0  0.00000000000E+00 -0.00000000000E+00 -0.22591111075E+04  0.22591111075E+04  0.00000000000E+00 0. -1.
         24    2    1    2    0    0 -0.27120052795E+03  0.70860068584E+02 -0.94904465805E+03  0.99260009539E+03  0.77448761886E+02 0.  0.
        254    2    1    2    0    0  0.27120052795E+03 -0.70860068584E+02 -0.11107744143E+04  0.14658030473E+04  0.91443310222E+03 0.  0.
         23    2    4    4    0    0 -0.12757205710E+03 -0.29302873503E+03 -0.88561230074E+02  0.34285828257E+03  0.86995638688E+02 0.  0.
         23    2    4    4    0    0  0.39877258505E+03  0.22216866644E+03 -0.10222131842E+04  0.11229447648E+04  0.87787583316E+02 0.  0.
          4    1    3    3  502    0 -0.18127489308E+03  0.40020585469E+02 -0.74039945103E+03  0.76331748388E+03  0.00000000000E+00 0. -1.
         -3    1    3    3    0  502 -0.89925634875E+02  0.30839483114E+02 -0.20864520703E+03  0.22928261151E+03  0.00000000000E+00 0.  1.
         13    1    5    5    0    0 -0.66527722386E+02 -0.24376544859E+03 -0.63993818400E+02  0.26065828313E+03  0.00000000000E+00 0. -1.
        -13    1    5    5    0    0 -0.61044334715E+02 -0.49263286438E+02 -0.24567411674E+02  0.82199999440E+02  0.00000000000E+00 0.  1.
          3    1    6    6  503    0  0.23780467512E+03  0.16840483718E+03 -0.71247109799E+03  0.76975731122E+03  0.00000000000E+00 0. -1.
         -3    1    6    6    0  503  0.16096790993E+03  0.53763829261E+02 -0.30974208621E+03  0.35318745354E+03  0.00000000000E+00 0.  1.
<mgrwt>
<rscale>  0 0.13419730E+04</rscale>
<asrwt>0</asrwt>
<pdfrwt beam="1">  1        2 0.34755556E+00 0.13419730E+04</pdfrwt>
<pdfrwt beam="2">  1       -1 0.30660313E-01 0.13419730E+04</pdfrwt>
<totfact> 0.52394104E+01</totfact>
</mgrwt>
</event>
<event>
12    7  0.1730932E-007  0.1413473E+04  0.7818608E-02  0.8944124E-01
          2   -1    0    0  501    0  0.00000000000E+00  0.00000000000E+00  0.22864488192E+04  0.22864488192E+04  0.00000000000E+00 0. -1.
         -1   -1    0    0    0  501 -0.00000000000E+00 -0.00000000000E+00 -0.21845061033E+03  0.21845061033E+03  0.00000000000E+00 0.  1.
         24    2    1    2    0    0 -0.15211222040E+02 -0.42326230447E+03  0.49981295062E+03  0.66015388258E+03  0.81288396554E+02 0.  0.
        254    2    1    2    0    0  0.15211222040E+02  0.42326230447E+03  0.15681852582E+04  0.18447455469E+04  0.87435620266E+03 0.  0.
         23    2    4    4    0    0  0.14317570573E+03  0.21906837355E+02 -0.43559164066E+02  0.17612249296E+03  0.90236021183E+02 0.  0.
         23    2    4    4    0    0 -0.12796448369E+03  0.40135546712E+03  0.16117444223E+04  0.16686230540E+04  0.95507556562E+02 0.  0.
          4    1    3    3  502    0 -0.21890961547E+02 -0.16418635517E+03  0.25210641558E+03  0.30165214768E+03  0.00000000000E+00 0. -1.
         -3    1    3    3    0  502  0.66797395069E+01 -0.25907594930E+03  0.24770653504E+03  0.35850173490E+03  0.00000000000E+00 0.  1.
         13    1    5    5    0    0  0.15511388769E+03  0.25603940554E+02 -0.45040293509E+02  0.16353748184E+03  0.00000000000E+00 0.  1.
        -13    1    5    5    0    0 -0.11938181960E+02 -0.36971031986E+01  0.14811294432E+01  0.12585011125E+02  0.00000000000E+00 0. -1.
          1    1    6    6  503    0 -0.59481416485E+02  0.66395518363E+02  0.37949224580E+03  0.38982145707E+03  0.00000000000E+00 0. -1.
         -1    1    6    6    0  503 -0.68483067206E+02  0.33495994875E+03  0.12322521765E+04  0.12788015969E+04  0.00000000000E+00 0.  1.
<mgrwt>
<rscale>  0 0.14134725E+04</rscale>
<asrwt>0</asrwt>
<pdfrwt beam="1">  1        2 0.35176134E+00 0.14134725E+04</pdfrwt>
<pdfrwt beam="2">  1       -1 0.33607788E-01 0.14134725E+04</pdfrwt>
<totfact> 0.42731070E+01</totfact>
</mgrwt>
</event>
<event>
12    7  0.1730932E-007  0.1032180E+04  0.7818608E-02  0.9273938E-01
          2   -1    0    0  501    0  0.00000000000E+00  0.00000000000E+00  0.97209227772E+03  0.97209227772E+03  0.00000000000E+00 0. -1.
         -1   -1    0    0    0  501 -0.00000000000E+00 -0.00000000000E+00 -0.27399550012E+03  0.27399550012E+03  0.00000000000E+00 0.  1.
         24    2    1    2    0    0  0.27295353351E+02 -0.36523167992E+02 -0.19219289579E+02  0.94630682775E+02  0.80663541428E+02 0.  0.
        254    2    1    2    0    0 -0.27295353351E+02  0.36523167992E+02  0.71731606718E+03  0.11514570951E+04  0.89957330076E+03 0.  0.
         23    2    4    4    0    0  0.38444283139E+03 -0.10250148836E+03  0.15864466175E+03  0.43737766436E+03  0.88477380453E+02 0.  0.
         23    2    4    4    0    0 -0.41173818474E+03  0.13902465636E+03  0.55867140543E+03  0.71407943071E+03  0.94548962245E+02 0.  0.
          4    1    3    3  502    0  0.20777859413E+02  0.24002904188E+02 -0.78360802665E+01  0.32699587232E+02  0.00000000000E+00 0. -1.
         -3    1    3    3    0  502  0.65174939381E+01 -0.60526072180E+02 -0.11383209312E+02  0.61931095542E+02  0.00000000000E+00 0.  1.
         13    1    5    5    0    0  0.37658756329E+03 -0.10959644516E+03  0.14097013204E+03  0.41677590110E+03  0.00000000000E+00 0.  1.
        -13    1    5    5    0    0  0.78552681087E+01  0.70949567950E+01  0.17674529703E+02  0.20601763254E+02  0.00000000000E+00 0. -1.
          3    1    6    6  503    0 -0.42699715922E+02 -0.13869593792E+02  0.65852565380E+02  0.79700638259E+02  0.00000000000E+00 0. -1.
         -3    1    6    6    0  503 -0.36903846882E+03  0.15289425015E+03  0.49281884005E+03  0.63437879245E+03  0.00000000000E+00 0.  1.
<mgrwt>
<rscale>  0 0.10321800E+04</rscale>
<asrwt>0</asrwt>
<pdfrwt beam="1">  1        2 0.14955266E+00 0.10321800E+04</pdfrwt>
<pdfrwt beam="2">  1       -1 0.42153154E-01 0.10321800E+04</pdfrwt>
<totfact> 0.16493516E+02</totfact>
</mgrwt>
</event>
<event>
12    7  0.1730932E-007  0.2971258E+04  0.7818608E-02  0.8251986E-01
         -1   -1    0    0    0  501 -0.00000000000E+00  0.00000000000E+00  0.62141642521E+03  0.62141642521E+03  0.00000000000E+00 0.  1.
          2   -1    0    0  501    0  0.00000000000E+00 -0.00000000000E+00 -0.35517147832E+04  0.35517147832E+04  0.00000000000E+00 0. -1.
         24    2    1    2    0    0 -0.23591317641E+03 -0.18443690794E+02  0.53242120640E+03  0.58842349965E+03  0.82308428376E+02 0.  0.
        254    2    1    2    0    0  0.23591317641E+03  0.18443690794E+02 -0.34627195643E+04  0.35847077087E+04  0.89649728337E+03 0.  0.
         23    2    4    4    0    0 -0.21700850348E+03 -0.23501945735E+03 -0.74035409133E+03  0.81181490863E+03  0.92695358110E+02 0.  0.
         23    2    4    4    0    0  0.45292167989E+03  0.25346314814E+03 -0.27223654730E+04  0.27728928001E+04  0.90989540605E+02 0.  0.
          2    1    3    3  502    0 -0.15324986438E+03 -0.20736187037E+02  0.24837459421E+03  0.29258408952E+03  0.00000000000E+00 0. -1.
         -1    1    3    3    0  502 -0.82663312024E+02  0.22924962424E+01  0.28404661219E+03  0.29583941013E+03  0.00000000000E+00 0.  1.
         13    1    5    5    0    0 -0.73084662053E+02 -0.12435562136E+03 -0.41333336147E+03  0.43777866108E+03  0.00000000000E+00 0. -1.
        -13    1    5    5    0    0 -0.14392384143E+03 -0.11066383599E+03 -0.32702072985E+03  0.37403624755E+03  0.00000000000E+00 0.  1.
          1    1    6    6  503    0  0.35416415155E+03  0.22359422599E+03 -0.20176456702E+04  0.20606602521E+04  0.00000000000E+00 0. -1.
         -1    1    6    6    0  503  0.98757528334E+02  0.29868922157E+02 -0.70471980280E+03  0.71223254796E+03  0.00000000000E+00 0.  1.
<mgrwt>
<rscale>  0 0.29712583E+04</rscale>
<asrwt>0</asrwt>
<pdfrwt beam="1">  1        2 0.54641765E+00 0.29712583E+04</pdfrwt>
<pdfrwt beam="2">  1       -1 0.95602529E-01 0.29712583E+04</pdfrwt>
<totfact> 0.76864985E-01</totfact>
</mgrwt>
</event>
<event>
12    7  0.1876455E-007  0.1408727E+04  0.7818608E-02  0.8947526E-01
          2   -1    0    0  501    0  0.00000000000E+00  0.00000000000E+00  0.17613859762E+04  0.17613859762E+04  0.00000000000E+00 0. -1.
         -1   -1    0    0    0  501 -0.00000000000E+00 -0.00000000000E+00 -0.28166905684E+03  0.28166905684E+03  0.00000000000E+00 0.  1.
         24    2    1    2    0    0  0.18386714816E+03 -0.35566987705E+03  0.60793964962E+03  0.73245999420E+03  0.81233219269E+02 0.  0.
        254    2    1    2    0    0 -0.18386714816E+03  0.35566987705E+03  0.87177726970E+03  0.13105950388E+04  0.89294767939E+03 0.  0.
         23    2    4    4    0    0 -0.41060186789E+03  0.18961678475E+02  0.77771791108E+03  0.88434437327E+03  0.90919646642E+02 0.  0.
         23    2    4    4    0    0  0.22673471973E+03  0.33670819858E+03  0.94059358616E+02  0.42625066552E+03  0.89785426407E+02 0.  0.
          2    1    3    3  502    0  0.15453134167E+03 -0.33447964030E+03  0.51944074559E+03  0.63684790454E+03  0.00000000000E+00 0. -1.
         -1    1    3    3    0  502  0.29335806489E+02 -0.21190236756E+02  0.88498904031E+02  0.95612089669E+02  0.00000000000E+00 0.  1.
         13    1    5    5    0    0 -0.14984294806E+02  0.85860330328E+01  0.83300965881E+02  0.85072322002E+02  0.00000000000E+00 0. -1.
        -13    1    5    5    0    0 -0.39561757308E+03  0.10375645442E+02  0.69441694520E+03  0.79927205127E+03  0.00000000000E+00 0.  1.
          4    1    6    6  503    0  0.23201833456E+03  0.30327294522E+03  0.88131733825E+02  0.39188542890E+03  0.00000000000E+00 0.  1.
         -4    1    6    6    0  503 -0.52836148302E+01  0.33435253354E+02  0.59276247908E+01  0.34365236623E+02  0.00000000000E+00 0. -1.
<mgrwt>
<rscale>  0 0.14087270E+04</rscale>
<asrwt>0</asrwt>
<pdfrwt beam="1">  1        2 0.27098245E+00 0.14087270E+04</pdfrwt>
<pdfrwt beam="2">  1       -1 0.43333702E-01 0.14087270E+04</pdfrwt>
<totfact> 0.52784799E+01</totfact>
</mgrwt>
</event>
<event>
12    7  0.1730932E-007  0.1796470E+04  0.7818608E-02  0.8708179E-01
          2   -1    0    0  501    0  0.00000000000E+00  0.00000000000E+00  0.16547188416E+04  0.16547188416E+04  0.00000000000E+00 0. -1.
         -1   -1    0    0    0  501 -0.00000000000E+00 -0.00000000000E+00 -0.48759126617E+03  0.48759126617E+03  0.00000000000E+00 0.  1.
         24    2    1    2    0    0 -0.13117400706E+03 -0.54866916546E+03  0.86549753340E+03  0.10362437672E+04  0.80440608833E+02 0.  0.
        254    2    1    2    0    0  0.13117400706E+03  0.54866916546E+03  0.30163004201E+03  0.11060663405E+04  0.90230681818E+03 0.  0.
         23    2    4    4    0    0  0.30024222372E+03  0.73286448627E+03  0.21064790744E+03  0.82461001786E+03  0.91506243001E+02 0.  0.
         23    2    4    4    0    0 -0.16906821666E+03 -0.18419532081E+03  0.90982134572E+02  0.28145632266E+03  0.91803783486E+02 0.  0.
          2    1    3    3  502    0 -0.47902777228E+02 -0.34936876313E+03  0.56896840040E+03  0.66938647236E+03  0.00000000000E+00 0. -1.
         -1    1    3    3    0  502 -0.83271229836E+02 -0.19930040233E+03  0.29652913300E+03  0.36685729488E+03  0.00000000000E+00 0.  1.
         13    1    5    5    0    0  0.16343523350E+03  0.29723460484E+03  0.65340356875E+02  0.34544007888E+03  0.00000000000E+00 0. -1.
        -13    1    5    5    0    0  0.13680699023E+03  0.43562988143E+03  0.14530755056E+03  0.47916993898E+03  0.00000000000E+00 0.  1.
          1    1    6    6  503    0 -0.67187193443E+02 -0.19312026836E+02  0.41957342054E+02  0.81532152526E+02  0.00000000000E+00 0. -1.
         -1    1    6    6    0  503 -0.10188102322E+03 -0.16488329397E+03  0.49024792517E+02  0.19992417013E+03  0.00000000000E+00 0.  1.
<mgrwt>
<rscale>  0 0.17964704E+04</rscale>
<asrwt>0</asrwt>
<pdfrwt beam="1">  1        2 0.25457213E+00 0.17964704E+04</pdfrwt>
<pdfrwt beam="2">  1       -1 0.75014042E-01 0.17964704E+04</pdfrwt>
<totfact> 0.19981993E+01</totfact>
</mgrwt>
</event>
<event>
12    7  0.1730932E-007  0.1586474E+04  0.7818608E-02  0.8828901E-01
         -1   -1    0    0    0  501 -0.00000000000E+00  0.00000000000E+00  0.39743302291E+03  0.39743302291E+03  0.00000000000E+00 0.  1.
          2   -1    0    0  501    0  0.00000000000E+00 -0.00000000000E+00 -0.15832221986E+04  0.15832221986E+04  0.00000000000E+00 0. -1.
         24    2    1    2    0    0 -0.50290499467E+03 -0.63713774021E+02 -0.18622359512E+03  0.54581896839E+03  0.79159587013E+02 0.  0.
        254    2    1    2    0    0  0.50290499467E+03  0.63713774021E+02 -0.99956558053E+03  0.14348362531E+04  0.89590783269E+03 0.  0.
         23    2    4    4    0    0  0.42005642830E+03  0.37926525137E+03 -0.27434081028E+03  0.63507268010E+03  0.88118641433E+02 0.  0.
         23    2    4    4    0    0  0.82848566370E+02 -0.31555147735E+03 -0.72522477025E+03  0.79976357297E+03  0.85054014914E+02 0.  0.
          2    1    3    3  502    0 -0.45378885105E+02 -0.22750734091E+02 -0.37059644565E+02  0.62851064990E+02  0.00000000000E+00 0. -1.
         -1    1    3    3    0  502 -0.45752610957E+03 -0.40963039929E+02 -0.14916395055E+03  0.48296790340E+03  0.00000000000E+00 0.  1.
         13    1    5    5    0    0  0.31528757368E+03  0.29851073676E+03 -0.24858496074E+03  0.50030930112E+03  0.00000000000E+00 0. -1.
        -13    1    5    5    0    0  0.10476885462E+03  0.80754514616E+02 -0.25755849534E+02  0.13476337898E+03  0.00000000000E+00 0.  1.
          1    1    6    6  503    0 -0.67774548217E+01 -0.25056395324E+02 -0.23490828847E+02  0.35008225896E+02  0.00000000000E+00 0. -1.
         -1    1    6    6    0  503  0.89626021192E+02 -0.29049508203E+03 -0.70173394140E+03  0.76475534707E+03  0.00000000000E+00 0.  1.
<mgrwt>
<rscale>  0 0.15864738E+04</rscale>
<asrwt>0</asrwt>
<pdfrwt beam="1">  1        2 0.24357265E+00 0.15864738E+04</pdfrwt>
<pdfrwt beam="2">  1       -1 0.61143541E-01 0.15864738E+04</pdfrwt>
<totfact> 0.33810608E+01</totfact>
</mgrwt>
</event>
<event>
12    7  0.1730932E-007  0.1915519E+04  0.7818608E-02  0.8647170E-01
          2   -1    0    0  501    0  0.00000000000E+00  0.00000000000E+00  0.16525023072E+04  0.16525023072E+04  0.00000000000E+00 0. -1.
         -1   -1    0    0    0  501 -0.00000000000E+00 -0.00000000000E+00 -0.55509960817E+03  0.55509960817E+03  0.00000000000E+00 0.  1.
         24    2    1    2    0    0  0.69216237973E+03 -0.21100618744E+01  0.78425633524E+03  0.10489594152E+04  0.78515241525E+02 0.  0.
        254    2    1    2    0    0 -0.69216237973E+03  0.21100618744E+01  0.31314636378E+03  0.11586425001E+04  0.87481345763E+03 0.  0.
         23    2    4    4    0    0 -0.81363447407E+03 -0.97391647759E+02  0.32223333296E+02  0.82508730914E+03  0.90799416526E+02 0.  0.
         23    2    4    4    0    0  0.12147209434E+03  0.99501709633E+02  0.28092303048E+03  0.33355519098E+03  0.87665594447E+02 0.  0.
          2    1    3    3  502    0  0.65051436547E+03 -0.53321185304E+01  0.70442590650E+03  0.95886038030E+03  0.00000000000E+00 0. -1.
         -1    1    3    3    0  502  0.41648014264E+02  0.32220566560E+01  0.79830428740E+02  0.90099034923E+02  0.00000000000E+00 0.  1.
         13    1    5    5    0    0 -0.79362430817E+03 -0.79640777773E+02  0.33438096952E+02  0.79831090581E+03  0.00000000000E+00 0. -1.
        -13    1    5    5    0    0 -0.20010165904E+02 -0.17750869986E+02 -0.12147636561E+01  0.26776403334E+02  0.00000000000E+00 0.  1.
          1    1    6    6  503    0  0.12696368481E+03  0.66612750319E+02  0.24936186814E+03  0.28764279419E+03  0.00000000000E+00 0. -1.
         -1    1    6    6    0  503 -0.54915904701E+01  0.32888959314E+02  0.31561162341E+02  0.45912396790E+02  0.00000000000E+00 0.  1.
<mgrwt>
<rscale>  0 0.19155191E+04</rscale>
<asrwt>0</asrwt>
<pdfrwt beam="1">  1        2 0.25423112E+00 0.19155191E+04</pdfrwt>
<pdfrwt beam="2">  1       -1 0.85399941E-01 0.19155191E+04</pdfrwt>
<totfact> 0.15050538E+01</totfact>
</mgrwt>
</event>
<event>
12    7  0.1730932E-007  0.1169750E+04  0.7818608E-02  0.9139754E-01
         -1   -1    0    0    0  501 -0.00000000000E+00  0.00000000000E+00  0.22289618999E+03  0.22289618999E+03  0.00000000000E+00 0.  1.
          2   -1    0    0  501    0  0.00000000000E+00 -0.00000000000E+00 -0.15346999580E+04  0.15346999580E+04  0.00000000000E+00 0. -1.
         24    2    1    2    0    0  0.22227318866E+03 -0.77692446783E+02 -0.28633728620E+03  0.37893142020E+03  0.78476066775E+02 0.  0.
        254    2    1    2    0    0 -0.22227318866E+03  0.77692446783E+02 -0.10254664818E+04  0.13786647278E+04  0.89089474107E+03 0.  0.
         23    2    4    4    0    0 -0.36784419717E+03 -0.31121117298E+03 -0.62033877858E+03  0.79091515631E+03  0.92546402872E+02 0.  0.
         23    2    4    4    0    0  0.14557100851E+03  0.38890361976E+03 -0.40512770322E+03  0.58774957148E+03  0.94255816142E+02 0.  0.
          2    1    3    3  502    0  0.22687156881E+03 -0.72288040245E+02 -0.28553803692E+03  0.37179058625E+03  0.00000000000E+00 0. -1.
         -1    1    3    3    0  502 -0.45983801480E+01 -0.54044065376E+01 -0.79924928294E+00  0.71408339447E+01  0.00000000000E+00 0.  1.
         13    1    5    5    0    0 -0.22666802220E+03 -0.23313126279E+03 -0.46124376375E+03  0.56433535029E+03  0.00000000000E+00 0. -1.
        -13    1    5    5    0    0 -0.14117617497E+03 -0.78079910189E+02 -0.15909501483E+03  0.22657980602E+03  0.00000000000E+00 0.  1.
          4    1    6    6  503    0  0.10417736583E+03  0.29641952330E+03 -0.35701836310E+03  0.47558339851E+03  0.00000000000E+00 0. -1.
         -4    1    6    6    0  503  0.41393642680E+02  0.92484096461E+02 -0.48109340118E+02  0.11216617297E+03  0.00000000000E+00 0.  1.
<mgrwt>
<rscale>  0 0.11697500E+04</rscale>
<asrwt>0</asrwt>
<pdfrwt beam="1">  1        2 0.23610768E+00 0.11697500E+04</pdfrwt>
<pdfrwt beam="2">  1       -1 0.34291723E-01 0.11697500E+04</pdfrwt>
<totfact> 0.10996940E+02</totfact>
</mgrwt>
</event>
<event>
12    7  0.1730932E-007  0.1834039E+04  0.7818608E-02  0.8688405E-01
         -1   -1    0    0    0  501 -0.00000000000E+00  0.00000000000E+00  0.35252750022E+03  0.35252750022E+03  0.00000000000E+00 0.  1.
          2   -1    0    0  501    0  0.00000000000E+00 -0.00000000000E+00 -0.23854156101E+04  0.23854156101E+04  0.00000000000E+00 0. -1.
         24    2    1    2    0    0 -0.24256118465E+03 -0.59438569941E+03 -0.38581369321E+03  0.75328240343E+03  0.80323629704E+02 0.  0.
        254    2    1    2    0    0  0.24256118465E+03  0.59438569941E+03 -0.16470744167E+04  0.19846607069E+04  0.90216057300E+03 0.  0.
         23    2    4    4    0    0  0.34448310504E+03  0.61570176791E+03 -0.60644791535E+03  0.93479953371E+03  0.91180137802E+02 0.  0.
         23    2    4    4    0    0 -0.10192192038E+03 -0.21316068505E+02 -0.10406265013E+04  0.10498611732E+04  0.91991929376E+02 0.  0.
          4    1    3    3  502    0 -0.91426790784E+02 -0.22466824790E+03 -0.10113469561E+03  0.26279822363E+03  0.00000000000E+00 0. -1.
         -3    1    3    3    0  502 -0.15113439387E+03 -0.36971745151E+03 -0.28467899760E+03  0.49048417980E+03  0.00000000000E+00 0.  1.
         13    1    5    5    0    0  0.28852083343E+03  0.55661367823E+03 -0.56254384718E+03  0.84232929316E+03  0.00000000000E+00 0.  1.
        -13    1    5    5    0    0  0.55962271610E+02  0.59088089682E+02 -0.43904068172E+02  0.92470240554E+02  0.00000000000E+00 0. -1.
          2    1    6    6  503    0 -0.97471070536E+02 -0.40194060979E+02 -0.62877894701E+03  0.63755716319E+03  0.00000000000E+00 0. -1.
         -2    1    6    6    0  503 -0.44508498462E+01  0.18877992474E+02 -0.41184755431E+03  0.41230400999E+03  0.00000000000E+00 0.  1.
<mgrwt>
<rscale>  0 0.18340388E+04</rscale>
<asrwt>0</asrwt>
<pdfrwt beam="1">  1        2 0.36698701E+00 0.18340388E+04</pdfrwt>
<pdfrwt beam="2">  1       -1 0.54235001E-01 0.18340388E+04</pdfrwt>
<totfact> 0.14925337E+01</totfact>
</mgrwt>
</event>
<event>
12    7  0.1730932E-007  0.1493549E+04  0.7818608E-02  0.8888754E-01
         -1   -1    0    0    0  501 -0.00000000000E+00  0.00000000000E+00  0.24180488994E+03  0.24180488994E+03  0.00000000000E+00 0.  1.
          2   -1    0    0  501    0  0.00000000000E+00 -0.00000000000E+00 -0.23062884401E+04  0.23062884401E+04  0.00000000000E+00 0. -1.
         24    2    1    2    0    0  0.30214744945E+03 -0.33558113587E+03 -0.83159198934E+03  0.94976600987E+03  0.81255503213E+02 0.  0.
        254    2    1    2    0    0 -0.30214744945E+03  0.33558113587E+03 -0.12328915608E+04  0.15983273202E+04  0.91143888533E+03 0.  0.
         23    2    4    4    0    0  0.11366135507E+03 -0.22569750649E+03 -0.16074597033E+03  0.31553649289E+03  0.99326448106E+02 0.  0.
         23    2    4    4    0    0 -0.41580880452E+03  0.56127864236E+03 -0.10721455905E+04  0.12827908273E+04  0.90141350496E+02 0.  0.
          4    1    3    3  502    0  0.56576247511E+02 -0.70744378503E+02 -0.10733916479E+03  0.14045403223E+03  0.00000000000E+00 0. -1.
         -3    1    3    3    0  502  0.24557120194E+03 -0.26483675737E+03 -0.72425282456E+03  0.80931197764E+03  0.00000000000E+00 0.  1.
         13    1    5    5    0    0  0.10214340395E+03 -0.23373539853E+03 -0.16072151474E+03  0.30149115542E+03  0.00000000000E+00 0.  1.
        -13    1    5    5    0    0  0.11517951121E+02  0.80378920410E+01 -0.24455593411E-01  0.14045337467E+02  0.00000000000E+00 0. -1.
          1    1    6    6  503    0 -0.11013285567E+03  0.14265304108E+03 -0.35252551470E+03  0.39592091956E+03  0.00000000000E+00 0. -1.
         -1    1    6    6    0  503 -0.30567594885E+03  0.41862560128E+03 -0.71962007578E+03  0.88686990772E+03  0.00000000000E+00 0.  1.
<mgrwt>
<rscale>  0 0.14935486E+04</rscale>
<asrwt>0</asrwt>
<pdfrwt beam="1">  1        2 0.35481362E+00 0.14935486E+04</pdfrwt>
<pdfrwt beam="2">  1       -1 0.37200751E-01 0.14935486E+04</pdfrwt>
<totfact> 0.34470319E+01</totfact>
</mgrwt>
</event>
<event>
12    7  0.1730932E-007  0.1710184E+04  0.7818608E-02  0.8755577E-01
         -1   -1    0    0    0  501 -0.00000000000E+00  0.00000000000E+00  0.36912608041E+03  0.36912608041E+03  0.00000000000E+00 0.  1.
          2   -1    0    0  501    0  0.00000000000E+00 -0.00000000000E+00 -0.19808474988E+04  0.19808474988E+04  0.00000000000E+00 0. -1.
         24    2    1    2    0    0 -0.33454562582E+03  0.51168315619E+03 -0.58273504106E+03  0.85132614871E+03  0.10693762349E+03 0.  0.
        254    2    1    2    0    0  0.33454562582E+03 -0.51168315619E+03 -0.10289863773E+04  0.14986474305E+04  0.90188177061E+03 0.  0.
         23    2    4    4    0    0  0.57440620292E+03 -0.28330026668E+03 -0.34523761871E+03  0.73323684311E+03  0.90805989160E+02 0.  0.
         23    2    4    4    0    0 -0.23986057710E+03 -0.22838288951E+03 -0.68374875862E+03  0.76541058740E+03  0.93000869477E+02 0.  0.
          4    1    3    3  502    0 -0.32625615925E+03  0.48971996858E+03 -0.58228948666E+03  0.82784646846E+03  0.00000000000E+00 0. -1.
         -3    1    3    3    0  502 -0.82894665748E+01  0.21963187603E+02 -0.44555440204E+00  0.23479680247E+02  0.00000000000E+00 0.  1.
         13    1    5    5    0    0  0.22802388204E+03 -0.99234878282E+02 -0.86315414799E+02  0.26323526109E+03  0.00000000000E+00 0. -1.
        -13    1    5    5    0    0  0.34638232088E+03 -0.18406538840E+03 -0.25892220392E+03  0.47000158202E+03  0.00000000000E+00 0.  1.
          3    1    6    6  503    0 -0.13193653148E+03 -0.90509748152E+02 -0.24076562521E+03  0.28908017769E+03  0.00000000000E+00 0.  1.
         -3    1    6    6    0  503 -0.10792404561E+03 -0.13787314135E+03 -0.44298313341E+03  0.47633040971E+03  0.00000000000E+00 0. -1.
<mgrwt>
<rscale>  0 0.17101842E+04</rscale>
<asrwt>0</asrwt>
<pdfrwt beam="1">  1        2 0.30474577E+00 0.17101842E+04</pdfrwt>
<pdfrwt beam="2">  1       -1 0.56788628E-01 0.17101842E+04</pdfrwt>
<totfact> 0.23276621E+01</totfact>
</mgrwt>
</event>
<event>
12    7  0.1730932E-007  0.2935734E+04  0.7818608E-02  0.8262324E-01
         -1   -1    0    0    0  501 -0.00000000000E+00  0.00000000000E+00  0.11113043423E+04  0.11113043423E+04  0.00000000000E+00 0.  1.
          2   -1    0    0  501    0  0.00000000000E+00 -0.00000000000E+00 -0.19388326443E+04  0.19388326443E+04  0.00000000000E+00 0. -1.
         24    2    1    2    0    0 -0.10287205161E+04  0.25656985567E+03  0.44746841309E+03  0.11536234188E+04  0.80777598956E+02 0.  0.
        254    2    1    2    0    0  0.10287205161E+04 -0.25656985567E+03 -0.12749967150E+04  0.18965135678E+04  0.92035487626E+03 0.  0.
         23    2    4    4    0    0  0.80842281154E+03 -0.52179904205E+03 -0.11837635232E+04  0.15281386784E+04  0.89944755917E+02 0.  0.
         23    2    4    4    0    0  0.22029770460E+03  0.26522918637E+03 -0.91233191861E+02  0.36837488939E+03  0.92189825230E+02 0.  0.
          2    1    3    3  502    0  0.13651461818E+01 -0.52049700116E+00  0.14467500329E+01  0.20561193748E+01  0.00000000000E+00 0. -1.
         -1    1    3    3    0  502 -0.10300856623E+04  0.25709035268E+03  0.44602166306E+03  0.11515672994E+04  0.00000000000E+00 0.  1.
         13    1    5    5    0    0  0.16574879353E+03 -0.11973345177E+03 -0.30992370608E+03  0.37129700459E+03  0.00000000000E+00 0. -1.
        -13    1    5    5    0    0  0.64267401801E+03 -0.40206559028E+03 -0.87383981708E+03  0.11568416738E+04  0.00000000000E+00 0.  1.
          2    1    6    6  503    0  0.14459925408E+03  0.11330127510E+03 -0.72931857935E+02  0.19764913134E+03  0.00000000000E+00 0. -1.
         -2    1    6    6    0  503  0.75698450526E+02  0.15192791127E+03 -0.18301333926E+02  0.17072575804E+03  0.00000000000E+00 0.  1.
<mgrwt>
<rscale>  0 0.29357337E+04</rscale>
<asrwt>0</asrwt>
<pdfrwt beam="1">  1        2 0.29828194E+00 0.29357337E+04</pdfrwt>
<pdfrwt beam="2">  1       -1 0.17096990E+00 0.29357337E+04</pdfrwt>
<totfact> 0.17123474E+00</totfact>
</mgrwt>
</event>
<event>
12    7  0.1730932E-007  0.1671709E+04  0.7818608E-02  0.8777666E-01
         -1   -1    0    0    0  501 -0.00000000000E+00  0.00000000000E+00  0.10856052329E+04  0.10856052329E+04  0.00000000000E+00 0.  1.
          2   -1    0    0  501    0  0.00000000000E+00 -0.00000000000E+00 -0.64356035687E+03  0.64356035687E+03  0.00000000000E+00 0. -1.
         24    2    1    2    0    0  0.11406637825E+03  0.77986652727E+02 -0.43835141747E+03  0.46557133827E+03  0.74240482018E+02 0.  0.
        254    2    1    2    0    0 -0.11406637825E+03 -0.77986652727E+02  0.88039629349E+03  0.12635942515E+04  0.89581233646E+03 0.  0.
         23    2    4    4    0    0 -0.25431436570E+03 -0.43429308704E+03  0.45854727965E+03  0.68680584735E+03  0.90279467396E+02 0.  0.
         23    2    4    4    0    0  0.14024798744E+03  0.35630643431E+03  0.42184901384E+03  0.57678840413E+03  0.90024994028E+02 0.  0.
          2    1    3    3  502    0  0.10464617188E+03  0.50813358680E+02 -0.40575201746E+03  0.42209894383E+03  0.00000000000E+00 0. -1.
         -1    1    3    3    0  502  0.94202063750E+01  0.27173294047E+02 -0.32599400012E+02  0.43472394443E+02  0.00000000000E+00 0.  1.
         13    1    5    5    0    0 -0.14720531752E+03 -0.32952357134E+03  0.33858215115E+03  0.49486671201E+03  0.00000000000E+00 0. -1.
        -13    1    5    5    0    0 -0.10710904818E+03 -0.10476951570E+03  0.11996512850E+03  0.19193913535E+03  0.00000000000E+00 0.  1.
          2    1    6    6  503    0  0.33297414747E+02  0.18747440640E+03  0.16983071094E+03  0.25514278603E+03  0.00000000000E+00 0. -1.
         -2    1    6    6    0  503  0.10695057270E+03  0.16883202791E+03  0.25201830290E+03  0.32164561811E+03  0.00000000000E+00 0.  1.
<mgrwt>
<rscale>  0 0.16717087E+04</rscale>
<asrwt>0</asrwt>
<pdfrwt beam="1">  1        2 0.99009286E-01 0.16717087E+04</pdfrwt>
<pdfrwt beam="2">  1       -1 0.16701619E+00 0.16717087E+04</pdfrwt>
<totfact> 0.12836118E+01</totfact>
</mgrwt>
</event>
<event>
12    7  0.1730932E-007  0.2079502E+04  0.7818608E-02  0.8570327E-01
         -1   -1    0    0    0  501 -0.00000000000E+00  0.00000000000E+00  0.62044989381E+03  0.62044989381E+03  0.00000000000E+00 0.  1.
          2   -1    0    0  501    0  0.00000000000E+00 -0.00000000000E+00 -0.17424166380E+04  0.17424166380E+04  0.00000000000E+00 0. -1.
         24    2    1    2    0    0  0.43219004391E+03  0.67457967447E+03 -0.15615194410E+03  0.82077647158E+03  0.86282184717E+02 0.  0.
        254    2    1    2    0    0 -0.43219004391E+03 -0.67457967447E+03 -0.96581480013E+03  0.15420900603E+04  0.89632446948E+03 0.  0.
         23    2    4    4    0    0 -0.27372933502E+03 -0.33066968188E+03 -0.10544504313E+04  0.11422116513E+04  0.92258099536E+02 0.  0.
         23    2    4    4    0    0 -0.15846070889E+03 -0.34390999259E+03  0.88635631155E+02  0.39987840899E+03  0.93073022951E+02 0.  0.
          2    1    3    3  502    0  0.70969215572E+02  0.15696818306E+03 -0.59362883505E+02  0.18220755196E+03  0.00000000000E+00 0. -1.
         -1    1    3    3    0  502  0.36122082834E+03  0.51761149140E+03 -0.96789060596E+02  0.63856891962E+03  0.00000000000E+00 0.  1.
         13    1    5    5    0    0 -0.66955736665E-01 -0.90054032506E+01 -0.75683535843E+02  0.76217447927E+02  0.00000000000E+00 0.  1.
        -13    1    5    5    0    0 -0.27366237928E+03 -0.32166427863E+03 -0.97876689544E+03  0.10659942034E+04  0.00000000000E+00 0. -1.
          4    1    6    6  503    0 -0.13450818819E+03 -0.33927988811E+03  0.88210055594E+02  0.37547877313E+03  0.00000000000E+00 0. -1.
         -4    1    6    6    0  503 -0.23952520700E+02 -0.46301044798E+01  0.42557556090E+00  0.24399635857E+02  0.00000000000E+00 0.  1.
<mgrwt>
<rscale>  0 0.20795021E+04</rscale>
<asrwt>0</asrwt>
<pdfrwt beam="1">  1        2 0.26806410E+00 0.20795021E+04</pdfrwt>
<pdfrwt beam="2">  1       -1 0.95453828E-01 0.20795021E+04</pdfrwt>
<totfact> 0.10342972E+01</totfact>
</mgrwt>
</event>
<event>
12    7  0.1730932E-007  0.1459010E+04  0.7818608E-02  0.8912178E-01
          2   -1    0    0  501    0  0.00000000000E+00  0.00000000000E+00  0.54815617698E+03  0.54815617698E+03  0.00000000000E+00 0. -1.
         -1   -1    0    0    0  501 -0.00000000000E+00 -0.00000000000E+00 -0.97084984110E+03  0.97084984110E+03  0.00000000000E+00 0.  1.
         24    2    1    2    0    0  0.80886160301E+02 -0.40529356239E+03  0.46284299557E+02  0.42294922411E+03  0.77060801658E+02 0.  0.
        254    2    1    2    0    0 -0.80886160301E+02  0.40529356239E+03 -0.46897796368E+03  0.10960567940E+04  0.90033034079E+03 0.  0.
         23    2    4    4    0    0 -0.31777608162E+03  0.46412456904E+03 -0.57963259027E+03  0.81290582144E+03  0.91916707858E+02 0.  0.
         23    2    4    4    0    0  0.23688992132E+03 -0.58831006657E+02  0.11065462659E+03  0.28315097253E+03  0.91389850071E+02 0.  0.
          2    1    3    3  502    0  0.95551448019E+02 -0.34060059542E+03  0.45018768192E+02  0.35660276823E+03  0.00000000000E+00 0. -1.
         -1    1    3    3    0  502 -0.14665287718E+02 -0.64692966969E+02  0.12655313648E+01  0.66346455887E+02  0.00000000000E+00 0.  1.
         13    1    5    5    0    0 -0.29390309357E+03  0.45405975563E+03 -0.56854640525E+03  0.78472562404E+03  0.00000000000E+00 0.  1.
        -13    1    5    5    0    0 -0.23872988043E+02  0.10064813409E+02 -0.11086185020E+02  0.28180197398E+02  0.00000000000E+00 0. -1.
          4    1    6    6  503    0  0.25732705632E+02  0.17109054551E+02  0.34185305969E+02  0.46081742924E+02  0.00000000000E+00 0. -1.
         -4    1    6    6    0  503  0.21115721568E+03 -0.75940061208E+02  0.76469320622E+02  0.23706922961E+03  0.00000000000E+00 0.  1.
<mgrwt>
<rscale>  0 0.14590097E+04</rscale>
<asrwt>0</asrwt>
<pdfrwt beam="1">  1        2 0.84331721E-01 0.14590097E+04</pdfrwt>
<pdfrwt beam="2">  1       -1 0.14936151E+00 0.14590097E+04</pdfrwt>
<totfact> 0.21611092E+01</totfact>
</mgrwt>
</event>
<event>
12    7  0.1730932E-007  0.2693208E+04  0.7818608E-02  0.8337212E-01
         -1   -1    0    0    0  501 -0.00000000000E+00  0.00000000000E+00  0.11339123749E+04  0.11339123749E+04  0.00000000000E+00 0.  1.
          2   -1    0    0  501    0  0.00000000000E+00 -0.00000000000E+00 -0.15991910611E+04  0.15991910611E+04  0.00000000000E+00 0. -1.
         24    2    1    2    0    0  0.25402580381E+03 -0.53453458993E+03  0.83508655939E+03  0.10265523383E+04  0.78637171928E+02 0.  0.
        254    2    1    2    0    0 -0.25402580381E+03  0.53453458993E+03 -0.13003652456E+04  0.17065510978E+04  0.93333302766E+03 0.  0.
         23    2    4    4    0    0  0.24770006953E+03 -0.62459442316E+02 -0.14031591933E+03  0.30578327615E+03  0.92511341890E+02 0.  0.
         23    2    4    4    0    0 -0.50172587334E+03  0.59699403224E+03 -0.11600493262E+04  0.14007678216E+04  0.91133551421E+02 0.  0.
          2    1    3    3  502    0  0.68431853592E+02 -0.11259523362E+03  0.13759990827E+03  0.19051073454E+03  0.00000000000E+00 0. -1.
         -1    1    3    3    0  502  0.18559395022E+03 -0.42193935631E+03  0.69748665112E+03  0.83604160378E+03  0.00000000000E+00 0.  1.
         13    1    5    5    0    0  0.12715315706E+03 -0.24754347548E+02 -0.19502438962E+02  0.13100018396E+03  0.00000000000E+00 0. -1.
        -13    1    5    5    0    0  0.12054691247E+03 -0.37705094768E+02 -0.12081348036E+03  0.17478309219E+03  0.00000000000E+00 0.  1.
          1    1    6    6  503    0 -0.32929893875E+03  0.32223669676E+03 -0.68587993498E+03  0.82625998633E+03  0.00000000000E+00 0. -1.
         -1    1    6    6    0  503 -0.17242693459E+03  0.27475733549E+03 -0.47416939126E+03  0.57450783527E+03  0.00000000000E+00 0.  1.
<mgrwt>
<rscale>  0 0.26932081E+04</rscale>
<asrwt>0</asrwt>
<pdfrwt beam="1">  1        2 0.24602939E+00 0.26932081E+04</pdfrwt>
<pdfrwt beam="2">  1       -1 0.17444806E+00 0.26932081E+04</pdfrwt>
<totfact> 0.25472768E+00</totfact>
</mgrwt>
</event>
<event>
12    7  0.1730932E-007  0.1740037E+04  0.7818608E-02  0.8738853E-01
          2   -1    0    0  501    0  0.00000000000E+00  0.00000000000E+00  0.25738934200E+04  0.25738934200E+04  0.00000000000E+00 0. -1.
         -1   -1    0    0    0  501 -0.00000000000E+00 -0.00000000000E+00 -0.29408069622E+03  0.29408069622E+03  0.00000000000E+00 0.  1.
         24    2    1    2    0    0 -0.27854031338E+02 -0.56396745829E+03  0.13072514471E+04  0.14262092806E+04  0.79570251535E+02 0.  0.
        254    2    1    2    0    0  0.27854031338E+02  0.56396745829E+03  0.97256127664E+03  0.14417648356E+04  0.90220577662E+03 0.  0.
         23    2    4    4    0    0 -0.27059522611E+03  0.62069991211E+03  0.40966880777E+03  0.79680073075E+03  0.92588958162E+02 0.  0.
         23    2    4    4    0    0  0.29844925745E+03 -0.56732453825E+02  0.56289246887E+03  0.64496410488E+03  0.82705710104E+02 0.  0.
          4    1    3    3  502    0 -0.41547503206E+02 -0.27347389609E+03  0.70805510861E+03  0.76016853637E+03  0.00000000000E+00 0. -1.
         -1    1    3    3    0  502  0.13693471868E+02 -0.29049356220E+03  0.59919633852E+03  0.66604074421E+03  0.00000000000E+00 0.  1.
         13    1    5    5    0    0 -0.12577874595E+03  0.27975719576E+03  0.23950439274E+03  0.38916158039E+03  0.00000000000E+00 0. -1.
        -13    1    5    5    0    0 -0.14481648016E+03  0.34094271636E+03  0.17016441502E+03  0.40763915036E+03  0.00000000000E+00 0.  1.
          2    1    6    6  503    0  0.13274254031E+03 -0.32238997667E+02  0.17164885279E+03  0.21937015213E+03  0.00000000000E+00 0. -1.
         -2    1    6    6    0  503  0.16570671714E+03 -0.24493456158E+02  0.39124361608E+03  0.42559395275E+03  0.00000000000E+00 0.  1.
<mgrwt>
<rscale>  0 0.17400372E+04</rscale>
<asrwt>0</asrwt>
<pdfrwt beam="1">  1        2 0.39598359E+00 0.17400372E+04</pdfrwt>
<pdfrwt beam="2">  1       -1 0.45243186E-01 0.17400372E+04</pdfrwt>
<totfact> 0.16537472E+01</totfact>
</mgrwt>
</event>
<event>
12    7  0.1730932E-007  0.1996809E+04  0.7818608E-02  0.8608114E-01
         -1   -1    0    0    0  501 -0.00000000000E+00  0.00000000000E+00  0.13287282326E+04  0.13287282326E+04  0.00000000000E+00 0.  1.
          2   -1    0    0  501    0  0.00000000000E+00 -0.00000000000E+00 -0.75019963683E+03  0.75019963683E+03  0.00000000000E+00 0. -1.
         24    2    1    2    0    0  0.52478159641E+03  0.38122026025E+03  0.71021769851E+03  0.96521626825E+03  0.80676232353E+02 0.  0.
        254    2    1    2    0    0 -0.52478159641E+03 -0.38122026025E+03 -0.13168910270E+03  0.11137116012E+04  0.89570469474E+03 0.  0.
         23    2    4    4    0    0 -0.55902341838E+03 -0.41929832419E+03 -0.41061299339E+03  0.81563139437E+03  0.91286768898E+02 0.  0.
         23    2    4    4    0    0  0.34241821973E+02  0.38078063941E+02  0.27892389070E+03  0.29808020685E+03  0.91819559938E+02 0.  0.
          2    1    3    3  502    0  0.10551201324E+03  0.99972140160E+02  0.11966487388E+03  0.18827346012E+03  0.00000000000E+00 0. -1.
         -1    1    3    3    0  502  0.41926958317E+03  0.28124812009E+03  0.59055282463E+03  0.77694280813E+03  0.00000000000E+00 0.  1.
         13    1    5    5    0    0 -0.23199276163E+03 -0.20538481127E+03 -0.13816705317E+03  0.33925461932E+03  0.00000000000E+00 0. -1.
        -13    1    5    5    0    0 -0.32703065675E+03 -0.21391351292E+03 -0.27244594022E+03  0.47637677505E+03  0.00000000000E+00 0.  1.
          4    1    6    6  503    0 -0.19030274557E+02 -0.18882257874E+02  0.82193299205E+02  0.86454782669E+02  0.00000000000E+00 0.  1.
         -4    1    6    6    0  503  0.53272096530E+02  0.56960321816E+02  0.19673059149E+03  0.21162542418E+03  0.00000000000E+00 0. -1.
<mgrwt>
<rscale>  0 0.19968089E+04</rscale>
<asrwt>0</asrwt>
<pdfrwt beam="1">  1        2 0.11541533E+00 0.19968089E+04</pdfrwt>
<pdfrwt beam="2">  1       -1 0.20441973E+00 0.19968089E+04</pdfrwt>
<totfact> 0.55793175E+00</totfact>
</mgrwt>
</event>
<event>
12    7  0.1730932E-007  0.1344897E+04  0.7818608E-02  0.8994700E-01
         -1   -1    0    0    0  501 -0.00000000000E+00  0.00000000000E+00  0.71400231711E+03  0.71400231711E+03  0.00000000000E+00 0.  1.
          2   -1    0    0  501    0  0.00000000000E+00 -0.00000000000E+00 -0.63331265425E+03  0.63331265425E+03  0.00000000000E+00 0. -1.
         24    2    1    2    0    0  0.20164358568E+03 -0.23298655476E+03  0.21635632403E+03  0.38386834199E+03  0.74846340526E+02 0.  0.
        254    2    1    2    0    0 -0.20164358568E+03  0.23298655476E+03 -0.13566666117E+03  0.96344662936E+03  0.90270764610E+03 0.  0.
         23    2    4    4    0    0  0.25655991384E+03  0.23637927047E+03  0.17624049968E+03  0.40144668090E+03  0.91654650611E+02 0.  0.
         23    2    4    4    0    0 -0.45820349953E+03 -0.33927157074E+01 -0.31190716085E+03  0.56199994846E+03  0.92714117503E+02 0.  0.
          2    1    3    3  502    0  0.55512252841E+02 -0.11767442829E+03  0.75462374749E+02  0.15041094140E+03  0.00000000000E+00 0. -1.
         -1    1    3    3    0  502  0.14613133284E+03 -0.11531212647E+03  0.14089394928E+03  0.23345740060E+03  0.00000000000E+00 0.  1.
         13    1    5    5    0    0  0.92428238445E+02  0.88887677930E+02  0.17069806747E+02  0.12936528457E+03  0.00000000000E+00 0. -1.
        -13    1    5    5    0    0  0.16413167540E+03  0.14749159254E+03  0.15917069293E+03  0.27208139633E+03  0.00000000000E+00 0.  1.
          2    1    6    6  503    0 -0.16221532115E+03 -0.44869191473E+02 -0.10251832589E+03  0.19707121024E+03  0.00000000000E+00 0. -1.
         -2    1    6    6    0  503 -0.29598817837E+03  0.41476475765E+02 -0.20938883495E+03  0.36492873823E+03  0.00000000000E+00 0.  1.
<mgrwt>
<rscale>  0 0.13448966E+04</rscale>
<asrwt>0</asrwt>
<pdfrwt beam="1">  1        2 0.97432716E-01 0.13448966E+04</pdfrwt>
<pdfrwt beam="2">  1       -1 0.10984651E+00 0.13448966E+04</pdfrwt>
<totfact> 0.39710254E+01</totfact>
</mgrwt>
</event>
<event>
12    7  0.1730932E-007  0.2677026E+04  0.7818608E-02  0.8342498E-01
         -1   -1    0    0    0  501 -0.00000000000E+00  0.00000000000E+00  0.24041291659E+04  0.24041291659E+04  0.00000000000E+00 0.  1.
          2   -1    0    0  501    0  0.00000000000E+00 -0.00000000000E+00 -0.74522508301E+03  0.74522508301E+03  0.00000000000E+00 0. -1.
         24    2    1    2    0    0 -0.31352171064E+03  0.64820822111E+03  0.18504332892E+04  0.19873529388E+04  0.83657543618E+02 0.  0.
        254    2    1    2    0    0  0.31352171064E+03 -0.64820822111E+03 -0.19152920635E+03  0.11620013101E+04  0.89168035012E+03 0.  0.
         23    2    4    4    0    0  0.48131320033E+03 -0.47697528217E+03  0.18338485570E+03  0.70795245568E+03  0.91645281356E+02 0.  0.
         23    2    4    4    0    0 -0.16779148969E+03 -0.17123293894E+03 -0.37491406205E+03  0.45404885440E+03  0.90139363597E+02 0.  0.
          2    1    3    3  502    0 -0.92554034554E+02  0.14595795140E+03  0.52931011912E+03  0.55681161544E+03  0.00000000000E+00 0. -1.
         -1    1    3    3    0  502 -0.22096767608E+03  0.50225026972E+03  0.13211231701E+04  0.14305413234E+04  0.00000000000E+00 0.  1.
         13    1    5    5    0    0  0.80025507520E+00  0.38865241365E+01  0.60351611479E+00  0.40136902907E+01  0.00000000000E+00 0.  1.
        -13    1    5    5    0    0  0.48051294526E+03 -0.48086180631E+03  0.18278133958E+03  0.70393876539E+03  0.00000000000E+00 0. -1.
          4    1    6    6  503    0 -0.13333267312E+03 -0.17040755646E+03 -0.28554368509E+03  0.35826182201E+03  0.00000000000E+00 0. -1.
         -4    1    6    6    0  503 -0.34458816573E+02 -0.82538248761E+00 -0.89370376960E+02  0.95787032388E+02  0.00000000000E+00 0.  1.
<mgrwt>
<rscale>  0 0.26770262E+04</rscale>
<asrwt>0</asrwt>
<pdfrwt beam="1">  1        2 0.11465001E+00 0.26770262E+04</pdfrwt>
<pdfrwt beam="2">  1       -1 0.36986602E+00 0.26770262E+04</pdfrwt>
<totfact> 0.43394309E-01</totfact>
</mgrwt>
</event>
<event>
12    7  0.1730932E-007  0.1913773E+04  0.7818608E-02  0.8648031E-01
         -1   -1    0    0    0  501 -0.00000000000E+00  0.00000000000E+00  0.44631747923E+03  0.44631747923E+03  0.00000000000E+00 0.  1.
          2   -1    0    0  501    0  0.00000000000E+00 -0.00000000000E+00 -0.20515250388E+04  0.20515250388E+04  0.00000000000E+00 0. -1.
         24    2    1    2    0    0  0.10648430448E+03  0.56771476078E+03 -0.12279203691E+04  0.13586933150E+04  0.67971572392E+02 0.  0.
        254    2    1    2    0    0 -0.10648430448E+03 -0.56771476078E+03 -0.37728719040E+03  0.11391492030E+04  0.90646363737E+03 0.  0.
         23    2    4    4    0    0 -0.21342241172E+03 -0.59971573163E+03 -0.59646229323E+03  0.87702405854E+03  0.90530919756E+02 0.  0.
         23    2    4    4    0    0  0.10693810723E+03  0.32000970846E+02  0.21917510282E+03  0.26212514443E+03  0.90620332883E+02 0.  0.
          4    1    3    3  502    0  0.11417899071E+03  0.47585859095E+03 -0.10401785078E+04  0.11495432000E+04  0.00000000000E+00 0. -1.
         -3    1    3    3    0  502 -0.76946862308E+01  0.91856169831E+02 -0.18774186132E+03  0.20915011505E+03  0.00000000000E+00 0.  1.
         13    1    5    5    0    0 -0.98499010261E+02 -0.31785669659E+03 -0.37002963536E+03  0.49765134948E+03  0.00000000000E+00 0.  1.
        -13    1    5    5    0    0 -0.11492340145E+03 -0.28185903504E+03 -0.22643265786E+03  0.37937270906E+03  0.00000000000E+00 0. -1.
          1    1    6    6  503    0 -0.10542464757E+02 -0.20161487105E+01 -0.44777075533E+00  0.10742854249E+02  0.00000000000E+00 0. -1.
         -1    1    6    6    0  503  0.11748057199E+03  0.34017119557E+02  0.21962287358E+03  0.25138229018E+03  0.00000000000E+00 0.  1.
<mgrwt>
<rscale>  0 0.19137727E+04</rscale>
<asrwt>0</asrwt>
<pdfrwt beam="1">  1        2 0.31561924E+00 0.19137727E+04</pdfrwt>
<pdfrwt beam="2">  1       -1 0.68664227E-01 0.19137727E+04</pdfrwt>
<totfact> 0.14299233E+01</totfact>
</mgrwt>
</event>
<event>
12    7  0.1730932E-007  0.1265238E+04  0.7818608E-02  0.9057595E-01
          2   -1    0    0  501    0  0.00000000000E+00  0.00000000000E+00  0.15805011070E+04  0.15805011070E+04  0.00000000000E+00 0. -1.
         -1   -1    0    0    0  501 -0.00000000000E+00 -0.00000000000E+00 -0.25321532105E+03  0.25321532105E+03  0.00000000000E+00 0.  1.
         24    2    1    2    0    0 -0.65991240120E+02  0.25704138362E+03  0.55005696199E+03  0.61496740094E+03  0.72091095970E+02 0.  0.
        254    2    1    2    0    0  0.65991240120E+02 -0.25704138362E+03  0.77722882399E+03  0.12187490271E+04  0.90046622903E+03 0.  0.
         23    2    4    4    0    0  0.16257735573E+03  0.25652251625E+03  0.54348861929E+02  0.32209481185E+03  0.92499032911E+02 0.  0.
         23    2    4    4    0    0 -0.96586115605E+02 -0.51356389987E+03  0.72287996206E+03  0.89665421528E+03  0.91414360230E+02 0.  0.
          2    1    3    3  502    0 -0.23033009364E+02  0.60706898917E+02  0.21158063712E+03  0.22131925606E+03  0.00000000000E+00 0. -1.
         -1    1    3    3    0  502 -0.42958230757E+02  0.19633448470E+03  0.33847632487E+03  0.39364814488E+03  0.00000000000E+00 0.  1.
         13    1    5    5    0    0  0.13959234291E+03  0.15609673990E+03  0.91938304223E+01  0.20961092749E+03  0.00000000000E+00 0. -1.
        -13    1    5    5    0    0  0.22985012816E+02  0.10042577635E+03  0.45155031506E+02  0.11248388436E+03  0.00000000000E+00 0.  1.
          1    1    6    6  503    0 -0.10083440407E+03 -0.36820598979E+03  0.56628877768E+03  0.68295403044E+03  0.00000000000E+00 0. -1.
         -1    1    6    6    0  503  0.42482884668E+01 -0.14535791008E+03  0.15659118438E+03  0.21370018484E+03  0.00000000000E+00 0.  1.
<mgrwt>
<rscale>  0 0.12652385E+04</rscale>
<asrwt>0</asrwt>
<pdfrwt beam="1">  1        2 0.24315401E+00 0.12652385E+04</pdfrwt>
<pdfrwt beam="2">  1       -1 0.38956204E-01 0.12652385E+04</pdfrwt>
<totfact> 0.81812937E+01</totfact>
</mgrwt>
</event>
<event>
12    7  0.1730932E-007  0.1676862E+04  0.7818608E-02  0.8774672E-01
         -1   -1    0    0    0  501 -0.00000000000E+00  0.00000000000E+00  0.12133599848E+04  0.12133599848E+04  0.00000000000E+00 0.  1.
          2   -1    0    0  501    0  0.00000000000E+00 -0.00000000000E+00 -0.57935505587E+03  0.57935505587E+03  0.00000000000E+00 0. -1.
         24    2    1    2    0    0  0.96812329352E+02 -0.22883949348E+03  0.80387569681E+03  0.84534957314E+03  0.81606519346E+02 0.  0.
        254    2    1    2    0    0 -0.96812329352E+02  0.22883949348E+03 -0.16987076784E+03  0.94736546756E+03  0.89827897140E+03 0.  0.
         23    2    4    4    0    0 -0.48558873864E+02  0.56851629877E+03 -0.10583977345E+03  0.58660934829E+03  0.85672187196E+02 0.  0.
         23    2    4    4    0    0 -0.48253455487E+02 -0.33967680529E+03 -0.64030994390E+02  0.36075611926E+03  0.91303238286E+02 0.  0.
          4    1    3    3  502    0  0.28657077918E+02 -0.75057574328E+02  0.14973007821E+03  0.16992340598E+03  0.00000000000E+00 0. -1.
         -3    1    3    3    0  502  0.68155251434E+02 -0.15378191915E+03  0.65414561859E+03  0.67542616716E+03  0.00000000000E+00 0.  1.
         13    1    5    5    0    0  0.46015940659E+01  0.38213465612E+03 -0.53807746518E+02  0.38593178628E+03  0.00000000000E+00 0. -1.
        -13    1    5    5    0    0 -0.53160467930E+02  0.18638164265E+03 -0.52032026936E+02  0.20067756201E+03  0.00000000000E+00 0.  1.
          2    1    6    6  503    0 -0.35490004682E+02 -0.32472566519E+03 -0.78965757114E+02  0.33606828006E+03  0.00000000000E+00 0. -1.
         -2    1    6    6    0  503 -0.12763450805E+02 -0.14951140101E+02  0.14934762724E+02  0.24687839201E+02  0.00000000000E+00 0.  1.
<mgrwt>
<rscale>  0 0.16768616E+04</rscale>
<asrwt>0</asrwt>
<pdfrwt beam="1">  1        2 0.89131547E-01 0.16768616E+04</pdfrwt>
<pdfrwt beam="2">  1       -1 0.18667077E+00 0.16768616E+04</pdfrwt>
<totfact> 0.10508413E+01</totfact>
</mgrwt>
</event>
<event>
12    7  0.1730932E-007  0.2250082E+04  0.7818608E-02  0.8497867E-01
         -1   -1    0    0    0  501 -0.00000000000E+00  0.00000000000E+00  0.53016721711E+03  0.53016721711E+03  0.00000000000E+00 0.  1.
          2   -1    0    0  501    0  0.00000000000E+00 -0.00000000000E+00 -0.23873921370E+04  0.23873921370E+04  0.00000000000E+00 0. -1.
         24    2    1    2    0    0  0.56351566949E+03 -0.70374787644E+03 -0.42328554402E+03  0.99928779635E+03  0.81206310096E+02 0.  0.
        254    2    1    2    0    0 -0.56351566949E+03  0.70374787644E+03 -0.14339393759E+04  0.19182715578E+04  0.90042914896E+03 0.  0.
         23    2    4    4    0    0 -0.51935955319E+03  0.48846291991E+03 -0.33550908523E+03  0.79410292242E+03  0.98502464447E+02 0.  0.
         23    2    4    4    0    0 -0.44156116302E+02  0.21528495653E+03 -0.10984302907E+04  0.11241686354E+04  0.94385603669E+02 0.  0.
          4    1    3    3  502    0  0.12552906772E+01 -0.19658945505E+02 -0.98600324028E+01  0.22028847724E+02  0.00000000000E+00 0. -1.
         -3    1    3    3    0  502  0.56226037881E+03 -0.68408893094E+03 -0.41342551162E+03  0.97725894863E+03  0.00000000000E+00 0.  1.
         13    1    5    5    0    0 -0.14907684023E+03  0.14271601983E+03 -0.49091183556E+02  0.21213606698E+03  0.00000000000E+00 0.  1.
        -13    1    5    5    0    0 -0.37028271296E+03  0.34574690008E+03 -0.28641790168E+03  0.58196685544E+03  0.00000000000E+00 0. -1.
          2    1    6    6  503    0 -0.16190414324E+01  0.48322327492E+02 -0.47219204891E+03  0.47466093128E+03  0.00000000000E+00 0. -1.
         -2    1    6    6    0  503 -0.42537074869E+02  0.16696262904E+03 -0.62623824176E+03  0.64950770410E+03  0.00000000000E+00 0.  1.
<mgrwt>
<rscale>  0 0.22500818E+04</rscale>
<asrwt>0</asrwt>
<pdfrwt beam="1">  1        2 0.36729109E+00 0.22500818E+04</pdfrwt>
<pdfrwt beam="2">  1       -1 0.81564189E-01 0.22500818E+04</pdfrwt>
<totfact> 0.62660568E+00</totfact>
</mgrwt>
</event>
<event>
12    7  0.1730932E-007  0.1787484E+04  0.7818608E-02  0.8712984E-01
         -1   -1    0    0    0  501 -0.00000000000E+00  0.00000000000E+00  0.23642736367E+04  0.23642736367E+04  0.00000000000E+00 0.  1.
          2   -1    0    0  501    0  0.00000000000E+00 -0.00000000000E+00 -0.33785210962E+03  0.33785210962E+03  0.00000000000E+00 0. -1.
         24    2    1    2    0    0  0.42265469734E+03 -0.42326235726E+03  0.33121967095E+03  0.68808000424E+03  0.77198481584E+02 0.  0.
        254    2    1    2    0    0 -0.42265469734E+03  0.42326235726E+03  0.16952018561E+04  0.20140457421E+04  0.90823064357E+03 0.  0.
         23    2    4    4    0    0 -0.21113440406E+03  0.49186612168E+03  0.34644916013E+03  0.64407664131E+03  0.91091608251E+02 0.  0.
         23    2    4    4    0    0 -0.21152029328E+03 -0.68603764414E+02  0.13487526960E+04  0.13699691008E+04  0.90742444010E+02 0.  0.
          2    1    3    3  502    0  0.22836052975E+03 -0.24086406055E+03  0.14076940223E+03  0.36052746333E+03  0.00000000000E+00 0. -1.
         -3    1    3    3    0  502  0.19429416759E+03 -0.18239829672E+03  0.19045026872E+03  0.32755254092E+03  0.00000000000E+00 0.  1.
         13    1    5    5    0    0 -0.86503495654E+02  0.15502400618E+03  0.69932965158E+02  0.19080334606E+03  0.00000000000E+00 0.  1.
        -13    1    5    5    0    0 -0.12463090841E+03  0.33684211549E+03  0.27651619497E+03  0.45327329525E+03  0.00000000000E+00 0. -1.
          2    1    6    6  503    0 -0.15858542945E+03 -0.64076937397E+02  0.76924326301E+03  0.78802943475E+03  0.00000000000E+00 0. -1.
         -2    1    6    6    0  503 -0.52934863832E+02 -0.45268270178E+01  0.57950943300E+03  0.58193966604E+03  0.00000000000E+00 0.  1.
<mgrwt>
<rscale>  0 0.17874841E+04</rscale>
<asrwt>0</asrwt>
<pdfrwt beam="1">  1        2 0.51977249E-01 0.17874841E+04</pdfrwt>
<pdfrwt beam="2">  1       -1 0.36373440E+00 0.17874841E+04</pdfrwt>
<totfact> 0.13118200E+00</totfact>
</mgrwt>
</event>
<event>
12    7  0.1730932E-007  0.1553125E+04  0.7818608E-02  0.8849874E-01
         -3   -1    0    0    0  501 -0.00000000000E+00  0.00000000000E+00  0.25602864644E+03  0.25602864644E+03  0.00000000000E+00 0.  1.
          4   -1    0    0  501    0  0.00000000000E+00 -0.00000000000E+00 -0.23553986081E+04  0.23553986081E+04  0.00000000000E+00 0. -1.
         24    2    1    2    0    0 -0.50767842531E+02  0.33236936171E+03 -0.13679653636E+04  0.14108575296E+04  0.78377076854E+02 0.  0.
        254    2    1    2    0    0  0.50767842531E+02 -0.33236936171E+03 -0.73140459801E+03  0.12005697250E+04  0.89071219374E+03 0.  0.
         23    2    4    4    0    0  0.34884117150E+03 -0.12352073788E+03 -0.73329382251E+03  0.82643384156E+03  0.91244335269E+02 0.  0.
         23    2    4    4    0    0 -0.29807332897E+03 -0.20884862383E+03  0.18892244952E+01  0.37413588341E+03  0.86652368500E+02 0.  0.
          2    1    3    3  502    0 -0.58161459446E+02  0.25018799683E+03 -0.11352882170E+04  0.11639828713E+04  0.00000000000E+00 0. -1.
         -1    1    3    3    0  502  0.73936169144E+01  0.82181364877E+02 -0.23267714667E+03  0.24687465825E+03  0.00000000000E+00 0.  1.
         13    1    5    5    0    0  0.11323159983E+02 -0.29547505871E+01 -0.17791043320E+01  0.11836794974E+02  0.00000000000E+00 0.  1.
        -13    1    5    5    0    0  0.33751801152E+03 -0.12056598729E+03 -0.73151471818E+03  0.81459704658E+03  0.00000000000E+00 0. -1.
          4    1    6    6  503    0 -0.45779870559E+02 -0.69395569520E+02  0.19281900932E+02  0.85342447358E+02  0.00000000000E+00 0. -1.
         -4    1    6    6    0  503 -0.25229345841E+03 -0.13945305431E+03 -0.17392676436E+02  0.28879343605E+03  0.00000000000E+00 0.  1.
<mgrwt>
<rscale>  0 0.15531253E+04</rscale>
<asrwt>0</asrwt>
<pdfrwt beam="1">  1        4 0.36236902E+00 0.15531253E+04</pdfrwt>
<pdfrwt beam="2">  1       -3 0.39389022E-01 0.15531253E+04</pdfrwt>
<totfact> 0.17503773E-01</totfact>
</mgrwt>
</event>
<event>
12    7  0.1730932E-007  0.3421298E+04  0.7818608E-02  0.8132699E-01
          2   -1    0    0  501    0  0.00000000000E+00  0.00000000000E+00  0.27072568176E+04  0.27072568176E+04  0.00000000000E+00 0. -1.
         -1   -1    0    0    0  501 -0.00000000000E+00 -0.00000000000E+00 -0.10809168413E+04  0.10809168413E+04  0.00000000000E+00 0.  1.
         24    2    1    2    0    0 -0.28040218681E+03 -0.55743567100E+03  0.23900722707E+04  0.24719009135E+04  0.92134429572E+02 0.  0.
        254    2    1    2    0    0  0.28040218681E+03  0.55743567100E+03 -0.76373229443E+03  0.13162727454E+04  0.87173792453E+03 0.  0.
         23    2    4    4    0    0  0.34752890566E+03  0.67753004033E+03 -0.84062272354E+03  0.11378511596E+04  0.90749117032E+02 0.  0.
         23    2    4    4    0    0 -0.67126718853E+02 -0.12009436933E+03  0.76890429102E+02  0.17842158581E+03  0.83626970940E+02 0.  0.
          4    1    3    3  502    0 -0.15801075970E+03 -0.22654103373E+03  0.95911985957E+03  0.99809776333E+03  0.00000000000E+00 0. -1.
         -1    1    3    3    0  502 -0.12239142711E+03 -0.33089463727E+03  0.14309524111E+04  0.14738031501E+04  0.00000000000E+00 0.  1.
         13    1    5    5    0    0  0.85319668494E+02  0.24421572515E+03 -0.24911400119E+03  0.35913584036E+03  0.00000000000E+00 0. -1.
        -13    1    5    5    0    0  0.26220923717E+03  0.43331431518E+03 -0.59150872235E+03  0.77871531924E+03  0.00000000000E+00 0.  1.
          2    1    6    6  503    0  0.92272976310E+01  0.75139935328E+01  0.25588090488E+01  0.12171714100E+02  0.00000000000E+00 0. -1.
         -2    1    6    6    0  503 -0.76354016484E+02 -0.12760836286E+03  0.74331620053E+02  0.16624987171E+03  0.00000000000E+00 0.  1.
<mgrwt>
<rscale>  0 0.34212977E+04</rscale>
<asrwt>0</asrwt>
<pdfrwt beam="1">  1        2 0.41650105E+00 0.34212977E+04</pdfrwt>
<pdfrwt beam="2">  1       -1 0.16629490E+00 0.34212977E+04</pdfrwt>
<totfact> 0.64720179E-01</totfact>
</mgrwt>
</event>
<event>
12    7  0.1730932E-007  0.1479459E+04  0.7818608E-02  0.8898228E-01
          2   -1    0    0  501    0  0.00000000000E+00  0.00000000000E+00  0.78625672958E+03  0.78625672958E+03  0.00000000000E+00 0. -1.
         -1   -1    0    0    0  501 -0.00000000000E+00 -0.00000000000E+00 -0.69595561060E+03  0.69595561060E+03  0.00000000000E+00 0.  1.
         24    2    1    2    0    0  0.16044640545E+03  0.34577035032E+03  0.28999502919E+03  0.48575557929E+03  0.81001121468E+02 0.  0.
        254    2    1    2    0    0 -0.16044640545E+03 -0.34577035032E+03 -0.19969391021E+03  0.99645676089E+03  0.89874814847E+03 0.  0.
         23    2    4    4    0    0 -0.26627820319E+03 -0.27753309967E+03  0.28450564773E+03  0.48786176605E+03  0.95587322790E+02 0.  0.
         23    2    4    4    0    0  0.10583179775E+03 -0.68237250653E+02 -0.48419955794E+03  0.50859499484E+03  0.91449248657E+02 0.  0.
          4    1    3    3  502    0  0.14543779522E+03  0.28818865067E+03  0.27579429696E+03  0.42457902078E+03  0.00000000000E+00 0. -1.
         -3    1    3    3    0  502  0.15008610223E+02  0.57581699648E+02  0.14200732232E+02  0.61176558510E+02  0.00000000000E+00 0.  1.
         13    1    5    5    0    0 -0.13346740799E+03 -0.13574723652E+03  0.19965441085E+03  0.27586725973E+03  0.00000000000E+00 0. -1.
        -13    1    5    5    0    0 -0.13281079521E+03 -0.14178586314E+03  0.84851236879E+02  0.21199450632E+03  0.00000000000E+00 0.  1.
          1    1    6    6  503    0  0.49563732120E+02 -0.50507744808E+02 -0.39735730269E+03  0.40360924399E+03  0.00000000000E+00 0. -1.
         -1    1    6    6    0  503  0.56268065625E+02 -0.17729505845E+02 -0.86842255244E+02  0.10498575086E+03  0.00000000000E+00 0.  1.
<mgrwt>
<rscale>  0 0.14794591E+04</rscale>
<asrwt>0</asrwt>
<pdfrwt beam="1">  1        2 0.12096257E+00 0.14794591E+04</pdfrwt>
<pdfrwt beam="2">  1       -1 0.10707009E+00 0.14794591E+04</pdfrwt>
<totfact> 0.31686643E+01</totfact>
</mgrwt>
</event>
<event>
12    7  0.1730932E-007  0.1172656E+04  0.7818608E-02  0.9137133E-01
          2   -1    0    0  501    0  0.00000000000E+00  0.00000000000E+00  0.31981829738E+03  0.31981829738E+03  0.00000000000E+00 0. -1.
         -1   -1    0    0    0  501 -0.00000000000E+00 -0.00000000000E+00 -0.10749253466E+04  0.10749253466E+04  0.00000000000E+00 0.  1.
         24    2    1    2    0    0  0.50669500803E+02  0.22072118091E+03 -0.15169382169E+03  0.28439779846E+03  0.81153276068E+02 0.  0.
        254    2    1    2    0    0 -0.50669500803E+02 -0.22072118091E+03 -0.60341322756E+03  0.11103458456E+04  0.90414331582E+03 0.  0.
         23    2    4    4    0    0  0.27259557393E+03 -0.41290523059E+03 -0.49793976286E+03  0.70879237177E+03  0.98201540083E+02 0.  0.
         23    2    4    4    0    0 -0.32326507474E+03  0.19218404968E+03 -0.10547346471E+03  0.40155347379E+03  0.93196153679E+02 0.  0.
          2    1    3    3  502    0 -0.25288282679E+01  0.40062756891E+02  0.35951507395E+01  0.40303158325E+02  0.00000000000E+00 0. -1.
         -1    1    3    3    0  502  0.53198329071E+02  0.18065842402E+03 -0.15528897243E+03  0.24409464013E+03  0.00000000000E+00 0.  1.
         13    1    5    5    0    0  0.24833858121E+03 -0.33734725874E+03 -0.45537307259E+03  0.61874054266E+03  0.00000000000E+00 0. -1.
        -13    1    5    5    0    0  0.24256992727E+02 -0.75557971844E+02 -0.42566690266E+02  0.90051829107E+02  0.00000000000E+00 0.  1.
          3    1    6    6  503    0 -0.20393088895E+03  0.16848957637E+03 -0.87154250141E+02  0.27851823662E+03  0.00000000000E+00 0. -1.
         -3    1    6    6    0  503 -0.11933418579E+03  0.23694473310E+02 -0.18319214566E+02  0.12303523717E+03  0.00000000000E+00 0.  1.
<mgrwt>
<rscale>  0 0.11726565E+04</rscale>
<asrwt>0</asrwt>
<pdfrwt beam="1">  1        2 0.49202815E-01 0.11726565E+04</pdfrwt>
<pdfrwt beam="2">  1       -1 0.16537313E+00 0.11726565E+04</pdfrwt>
<totfact> 0.30822484E+01</totfact>
</mgrwt>
</event>
<event>
12    7  0.1730932E-007  0.1646660E+04  0.7818608E-02  0.8792385E-01
         -1   -1    0    0    0  501 -0.00000000000E+00  0.00000000000E+00  0.60398209319E+03  0.60398209319E+03  0.00000000000E+00 0.  1.
          2   -1    0    0  501    0  0.00000000000E+00 -0.00000000000E+00 -0.11223384356E+04  0.11223384356E+04  0.00000000000E+00 0. -1.
         24    2    1    2    0    0  0.15697173752E+03  0.40930271465E+03 -0.57800460589E+03  0.72982031793E+03  0.79871981478E+02 0.  0.
        254    2    1    2    0    0 -0.15697173752E+03 -0.40930271465E+03  0.59648263520E+02  0.99650021082E+03  0.89290868303E+03 0.  0.
         23    2    4    4    0    0 -0.13779339347E+03 -0.43490209546E+03  0.41763055550E+03  0.62533750754E+03  0.92221827812E+02 0.  0.
         23    2    4    4    0    0 -0.19178344046E+02  0.25599380810E+02 -0.35798229198E+03  0.37116270329E+03  0.92667652187E+02 0.  0.
          4    1    3    3  502    0  0.12295673770E+03  0.35474155860E+03 -0.44599134084E+03  0.58298216855E+03  0.00000000000E+00 0. -1.
         -3    1    3    3    0  502  0.34014999820E+02  0.54561156052E+02 -0.13201326506E+03  0.14683814938E+03  0.00000000000E+00 0.  1.
         13    1    5    5    0    0 -0.12132831357E+02 -0.10695066696E+03  0.56384611036E+02  0.12151080249E+03  0.00000000000E+00 0.  1.
        -13    1    5    5    0    0 -0.12566056211E+03 -0.32795142849E+03  0.36124594447E+03  0.50382670504E+03  0.00000000000E+00 0. -1.
          3    1    6    6  503    0 -0.15781379115E+02 -0.11062398969E+02 -0.10916629418E+02  0.22149523597E+02  0.00000000000E+00 0. -1.
         -3    1    6    6    0  503 -0.33969649309E+01  0.36661779779E+02 -0.34706566256E+03  0.34901317969E+03  0.00000000000E+00 0.  1.
<mgrwt>
<rscale>  0 0.16466600E+04</rscale>
<asrwt>0</asrwt>
<pdfrwt beam="1">  1        2 0.17266745E+00 0.16466600E+04</pdfrwt>
<pdfrwt beam="2">  1       -1 0.92920323E-01 0.16466600E+04</pdfrwt>
<totfact> 0.25886249E+01</totfact>
</mgrwt>
</event>
<event>
12    7  0.1730932E-007  0.1345030E+04  0.7818608E-02  0.8994599E-01
         -1   -1    0    0    0  501 -0.00000000000E+00  0.00000000000E+00  0.42004236429E+03  0.42004236429E+03  0.00000000000E+00 0.  1.
          2   -1    0    0  501    0  0.00000000000E+00 -0.00000000000E+00 -0.10767392242E+04  0.10767392242E+04  0.00000000000E+00 0. -1.
         24    2    1    2    0    0 -0.28757421561E+03 -0.51990590258E+02 -0.42672370227E+03  0.52334810033E+03  0.79988530976E+02 0.  0.
        254    2    1    2    0    0  0.28757421561E+03  0.51990590258E+02 -0.22997315769E+03  0.97343348821E+03  0.89960166282E+03 0.  0.
         23    2    4    4    0    0 -0.27408402476E+03 -0.10587780879E+03 -0.22718229571E+03  0.38294920100E+03  0.93306655923E+02 0.  0.
         23    2    4    4    0    0  0.56165824037E+03  0.15786839905E+03 -0.27908619776E+01  0.59048428721E+03  0.91002714987E+02 0.  0.
          2    1    3    3  502    0 -0.16128957912E+03 -0.11390453153E+02 -0.17145781978E+03  0.23567319474E+03  0.00000000000E+00 0. -1.
         -1    1    3    3    0  502 -0.12628463649E+03 -0.40600137105E+02 -0.25526588249E+03  0.28767490559E+03  0.00000000000E+00 0.  1.
         13    1    5    5    0    0 -0.29921733019E+02  0.13429115653E+02 -0.45381218124E+02  0.55992019186E+02  0.00000000000E+00 0. -1.
        -13    1    5    5    0    0 -0.24416229174E+03 -0.11930692445E+03 -0.18180107759E+03  0.32695718182E+03  0.00000000000E+00 0.  1.
          2    1    6    6  503    0  0.38135254903E+03  0.99132802128E+02 -0.43848935106E+02  0.39645908770E+03  0.00000000000E+00 0.  1.
         -2    1    6    6    0  503  0.18030569134E+03  0.58735596924E+02  0.41058073129E+02  0.19402519951E+03  0.00000000000E+00 0. -1.
<mgrwt>
<rscale>  0 0.13450295E+04</rscale>
<asrwt>0</asrwt>
<pdfrwt beam="1">  1        2 0.16565219E+00 0.13450295E+04</pdfrwt>
<pdfrwt beam="2">  1       -1 0.64621901E-01 0.13450295E+04</pdfrwt>
<totfact> 0.60951599E+01</totfact>
</mgrwt>
</event>
<event>
12    7  0.1730932E-007  0.1621929E+04  0.7818608E-02  0.8807188E-01
          2   -1    0    0  501    0  0.00000000000E+00  0.00000000000E+00  0.40244659393E+03  0.40244659393E+03  0.00000000000E+00 0. -1.
         -3   -1    0    0    0  501 -0.00000000000E+00 -0.00000000000E+00 -0.16341638266E+04  0.16341638266E+04  0.00000000000E+00 0.  1.
         24    2    1    2    0    0 -0.46388118926E+03  0.23163537615E+03 -0.16974120311E+03  0.55140329975E+03  0.79955098102E+02 0.  0.
        254    2    1    2    0    0  0.46388118926E+03 -0.23163537615E+03 -0.10619760295E+04  0.14852071208E+04  0.89955900252E+03 0.  0.
         23    2    4    4    0    0  0.23654285006E+03  0.31795402815E+03 -0.26084632540E+03  0.48318047460E+03  0.91516564784E+02 0.  0.
         23    2    4    4    0    0  0.22733833919E+03 -0.54958940429E+03 -0.80112970413E+03  0.10020266462E+04  0.92289560549E+02 0.  0.
          2    1    3    3  502    0 -0.45721380591E+03  0.23796064961E+03 -0.16708357049E+03  0.54183637254E+03  0.00000000000E+00 0. -1.
         -1    1    3    3    0  502 -0.66673833428E+01 -0.63252734651E+01 -0.26576326225E+01  0.95669272080E+01  0.00000000000E+00 0.  1.
         13    1    5    5    0    0 -0.77003490436E+01  0.19878301612E+02 -0.12147955583E+02  0.24535995500E+02  0.00000000000E+00 0.  1.
        -13    1    5    5    0    0  0.24424319911E+03  0.29807572653E+03 -0.24869836981E+03  0.45864447910E+03  0.00000000000E+00 0. -1.
          1    1    6    6  503    0  0.20768690609E+03 -0.54263343303E+03 -0.77269673048E+03  0.96677046443E+03  0.00000000000E+00 0. -1.
         -1    1    6    6    0  503  0.19651433096E+02 -0.69559712617E+01 -0.28432973657E+02  0.35256181726E+02  0.00000000000E+00 0.  1.
<mgrwt>
<rscale>  0 0.16219293E+04</rscale>
<asrwt>0</asrwt>
<pdfrwt beam="1">  1        2 0.61914860E-01 0.16219293E+04</pdfrwt>
<pdfrwt beam="2">  1       -3 0.25140982E+00 0.16219293E+04</pdfrwt>
<totfact> 0.33845106E+00</totfact>
</mgrwt>
</event>
<event>
12    7  0.1730932E-007  0.1650257E+04  0.7818608E-02  0.8790254E-01
         -1   -1    0    0    0  501 -0.00000000000E+00  0.00000000000E+00  0.62553033923E+03  0.62553033923E+03  0.00000000000E+00 0.  1.
          2   -1    0    0  501    0  0.00000000000E+00 -0.00000000000E+00 -0.10884160425E+04  0.10884160425E+04  0.00000000000E+00 0. -1.
         24    2    1    2    0    0 -0.11582216063E+03 -0.60693594017E+02 -0.74469325184E+03  0.76013488628E+03  0.78348712491E+02 0.  0.
        254    2    1    2    0    0  0.11582216063E+03  0.60693594017E+02  0.28180754854E+03  0.95381149549E+03  0.90179952832E+03 0.  0.
         23    2    4    4    0    0 -0.11099012367E+03 -0.24970489920E+03 -0.18462019078E+03  0.34203220319E+03  0.90719727415E+02 0.  0.
         23    2    4    4    0    0  0.22681228429E+03  0.31039849321E+03  0.46642773932E+03  0.61177929230E+03  0.94488251057E+02 0.  0.
          2    1    3    3  502    0 -0.12195777331E+03 -0.64903589531E+02 -0.73522671626E+03  0.74809391036E+03  0.00000000000E+00 0. -1.
         -1    1    3    3    0  502  0.61356126860E+01  0.42099955140E+01 -0.94665355820E+01  0.12040975923E+02  0.00000000000E+00 0.  1.
         13    1    5    5    0    0 -0.12450662507E+03 -0.23360833889E+03 -0.18105971293E+03  0.32071385272E+03  0.00000000000E+00 0.  1.
        -13    1    5    5    0    0  0.13516501407E+02 -0.16096560310E+02 -0.35604778534E+01  0.21318350467E+02  0.00000000000E+00 0. -1.
          3    1    6    6  503    0  0.54085994680E+02  0.75358240636E+02  0.56301428913E+02  0.10850811099E+03  0.00000000000E+00 0. -1.
         -3    1    6    6    0  503  0.17272628961E+03  0.23504025258E+03  0.41012631040E+03  0.50327118131E+03  0.00000000000E+00 0.  1.
<mgrwt>
<rscale>  0 0.16502573E+04</rscale>
<asrwt>0</asrwt>
<pdfrwt beam="1">  1        2 0.16744862E+00 0.16502573E+04</pdfrwt>
<pdfrwt beam="2">  1       -1 0.96235437E-01 0.16502573E+04</pdfrwt>
<totfact> 0.25103115E+01</totfact>
</mgrwt>
</event>
<event>
12    7  0.1730932E-007  0.1340076E+04  0.7818608E-02  0.8998375E-01
         -1   -1    0    0    0  501 -0.00000000000E+00  0.00000000000E+00  0.16680278892E+03  0.16680278892E+03  0.00000000000E+00 0.  1.
          2   -1    0    0  501    0  0.00000000000E+00 -0.00000000000E+00 -0.26915066113E+04  0.26915066113E+04  0.00000000000E+00 0. -1.
         24    2    1    2    0    0 -0.29451670258E+03  0.26289804063E+02 -0.26226602869E+03  0.40507383554E+03  0.88713587127E+02 0.  0.
        254    2    1    2    0    0  0.29451670258E+03 -0.26289804063E+02 -0.22624377937E+04  0.24532355647E+04  0.90128171156E+03 0.  0.
         23    2    4    4    0    0  0.34787351856E+03  0.61287221410E+02 -0.22860419753E+04  0.23147056924E+04  0.84275862068E+02 0.  0.
         23    2    4    4    0    0 -0.53356815987E+02 -0.87577025473E+02  0.23604181627E+02  0.13852987231E+03  0.90092635268E+02 0.  0.
          2    1    3    3  502    0 -0.29785991440E+03  0.17572938361E+02 -0.24780826613E+03  0.38786373062E+03  0.00000000000E+00 0. -1.
         -1    1    3    3    0  502  0.33432118282E+01  0.87168657018E+01 -0.14457762560E+02  0.17210104916E+02  0.00000000000E+00 0.  1.
         13    1    5    5    0    0  0.13587683949E+02  0.13574328631E+02 -0.55057151737E+02  0.58311041067E+02  0.00000000000E+00 0. -1.
        -13    1    5    5    0    0  0.33428583461E+03  0.47712892779E+02 -0.22309848236E+04  0.22563946513E+04  0.00000000000E+00 0.  1.
          1    1    6    6  503    0 -0.19820900021E+00 -0.35775198804E+02 -0.30230417043E+02  0.46837829272E+02  0.00000000000E+00 0. -1.
         -1    1    6    6    0  503 -0.53158606987E+02 -0.51801826669E+02  0.53834598670E+02  0.91692043040E+02  0.00000000000E+00 0.  1.
<mgrwt>
<rscale>  0 0.13400758E+04</rscale>
<asrwt>0</asrwt>
<pdfrwt beam="1">  1        2 0.41407789E+00 0.13400758E+04</pdfrwt>
<pdfrwt beam="2">  1       -1 0.25661971E-01 0.13400758E+04</pdfrwt>
<totfact> 0.40306199E+01</totfact>
</mgrwt>
</event>
<event>
12    7  0.1730932E-007  0.2197242E+04  0.7818608E-02  0.8519577E-01
          2   -1    0    0  501    0  0.00000000000E+00  0.00000000000E+00  0.17252622152E+04  0.17252622152E+04  0.00000000000E+00 0. -1.
         -1   -1    0    0    0  501 -0.00000000000E+00 -0.00000000000E+00 -0.69958511118E+03  0.69958511118E+03  0.00000000000E+00 0.  1.
         24    2    1    2    0    0 -0.29653907825E+03  0.29431667558E+03  0.13241565917E+04  0.13907563738E+04  0.79087808655E+02 0.  0.
        254    2    1    2    0    0  0.29653907825E+03 -0.29431667558E+03 -0.29847948767E+03  0.10340909526E+04  0.89760590640E+03 0.  0.
         23    2    4    4    0    0 -0.28629074142E+03 -0.69535140268E+02  0.50500410654E+02  0.31282685742E+03  0.92264981938E+02 0.  0.
         23    2    4    4    0    0  0.58282981967E+03 -0.22478153531E+03 -0.34897989833E+03  0.72126409516E+03  0.90650914063E+02 0.  0.
          4    1    3    3  502    0 -0.27408115300E+03  0.26005267387E+03  0.12521678009E+04  0.13079266314E+04  0.00000000000E+00 0. -1.
         -3    1    3    3    0  502 -0.22457925246E+02  0.34264001712E+02  0.71988790835E+02  0.82829742397E+02  0.00000000000E+00 0.  1.
         13    1    5    5    0    0 -0.75916382859E+02  0.20423610770E+02  0.45725670441E+00  0.78616983833E+02  0.00000000000E+00 0. -1.
        -13    1    5    5    0    0 -0.21037435857E+03 -0.89958751039E+02  0.50043153950E+02  0.23420987359E+03  0.00000000000E+00 0.  1.
          1    1    6    6  503    0  0.26055334128E+03 -0.12439755025E+03 -0.11619417841E+03  0.31122962786E+03  0.00000000000E+00 0. -1.
         -1    1    6    6    0  503  0.32227647839E+03 -0.10038398506E+03 -0.23278571992E+03  0.41003446730E+03  0.00000000000E+00 0.  1.
<mgrwt>
<rscale>  0 0.21972417E+04</rscale>
<asrwt>0</asrwt>
<pdfrwt beam="1">  1        2 0.26542496E+00 0.21972417E+04</pdfrwt>
<pdfrwt beam="2">  1       -1 0.10762848E+00 0.21972417E+04</pdfrwt>
<totfact> 0.79415333E+00</totfact>
</mgrwt>
</event>
<event>
12    7  0.1730932E-007  0.2323481E+04  0.7818608E-02  0.8468720E-01
          2   -1    0    0  501    0  0.00000000000E+00  0.00000000000E+00  0.16255655694E+04  0.16255655694E+04  0.00000000000E+00 0. -1.
         -1   -1    0    0    0  501 -0.00000000000E+00 -0.00000000000E+00 -0.83025905722E+03  0.83025905722E+03  0.00000000000E+00 0.  1.
         24    2    1    2    0    0  0.12808285578E+03 -0.17515294772E+03  0.13553918184E+04  0.13750298938E+04  0.80848343090E+02 0.  0.
        254    2    1    2    0    0 -0.12808285578E+03  0.17515294772E+03 -0.56008530620E+03  0.10807947328E+04  0.89851985574E+03 0.  0.
         23    2    4    4    0    0 -0.44434155113E+03 -0.40318048838E+02 -0.51065351531E+03  0.68434130700E+03  0.92146907905E+02 0.  0.
         23    2    4    4    0    0  0.31625869535E+03  0.21547099656E+03 -0.49431790887E+02  0.39645342579E+03  0.91019251382E+02 0.  0.
          4    1    3    3  502    0  0.11138967087E+03 -0.18080095586E+03  0.12003853849E+04  0.12190249040E+04  0.00000000000E+00 0. -1.
         -3    1    3    3    0  502  0.16693184910E+02  0.56480081398E+01  0.15500643350E+03  0.15600498981E+03  0.00000000000E+00 0.  1.
         13    1    5    5    0    0 -0.41821277887E+03 -0.21251070566E+02 -0.44438111582E+03  0.61059652187E+03  0.00000000000E+00 0. -1.
        -13    1    5    5    0    0 -0.26128772261E+02 -0.19066978273E+02 -0.66272399489E+02  0.73744785133E+02  0.00000000000E+00 0.  1.
          1    1    6    6  503    0  0.29012054653E+03  0.20582413097E+03 -0.69079449665E+02  0.36236097303E+03  0.00000000000E+00 0. -1.
         -1    1    6    6    0  503  0.26138148824E+02  0.96468655934E+01  0.19647658778E+02  0.34092452759E+02  0.00000000000E+00 0.  1.
<mgrwt>
<rscale>  0 0.23234806E+04</rscale>
<asrwt>0</asrwt>
<pdfrwt beam="1">  1        2 0.25008701E+00 0.23234806E+04</pdfrwt>
<pdfrwt beam="2">  1       -1 0.12773216E+00 0.23234806E+04</pdfrwt>
<totfact> 0.58952411E+00</totfact>
</mgrwt>
</event>
<event>
12    7  0.1730932E-007  0.2360065E+04  0.7818608E-02  0.8454608E-01
         -3   -1    0    0    0  501 -0.00000000000E+00  0.00000000000E+00  0.49981772937E+03  0.49981772937E+03  0.00000000000E+00 0.  1.
          2   -1    0    0  501    0  0.00000000000E+00 -0.00000000000E+00 -0.27859689741E+04  0.27859689741E+04  0.00000000000E+00 0. -1.
         24    2    1    2    0    0  0.11963521552E+03 -0.92824990790E+03 -0.14923990877E+04  0.17636995386E+04  0.86142608941E+02 0.  0.
        254    2    1    2    0    0 -0.11963521552E+03  0.92824990790E+03 -0.79375215704E+03  0.15220871649E+04  0.90041455700E+03 0.  0.
         23    2    4    4    0    0 -0.31776629578E+03  0.39034340061E+01 -0.31975192685E+03  0.46066316523E+03  0.94755482911E+02 0.  0.
         23    2    4    4    0    0  0.19813108026E+03  0.92434647389E+03 -0.47400023019E+03  0.10614239997E+04  0.90952515681E+02 0.  0.
          2    1    3    3  502    0  0.39134709128E+02 -0.27218090247E+03 -0.51431681498E+03  0.58321158707E+03  0.00000000000E+00 0. -1.
         -1    1    3    3    0  502  0.80500506396E+02 -0.65606900543E+03 -0.97808227274E+03  0.11804879515E+04  0.00000000000E+00 0.  1.
         13    1    5    5    0    0 -0.28575088272E+03  0.71495146952E+01 -0.31920132504E+03  0.42847890081E+03  0.00000000000E+00 0.  1.
        -13    1    5    5    0    0 -0.32015413067E+02 -0.32460806890E+01 -0.55060180916E+00  0.32184264417E+02  0.00000000000E+00 0. -1.
          4    1    6    6  503    0  0.21308015179E+02  0.38829164732E+02 -0.39417967794E+02  0.59291750941E+02  0.00000000000E+00 0. -1.
         -4    1    6    6    0  503  0.17682306508E+03  0.88551730916E+03 -0.43458226239E+03  0.10021322487E+04  0.00000000000E+00 0.  1.
<mgrwt>
<rscale>  0 0.23600650E+04</rscale>
<asrwt>0</asrwt>
<pdfrwt beam="1">  1        2 0.42861061E+00 0.23600650E+04</pdfrwt>
<pdfrwt beam="2">  1       -3 0.76895036E-01 0.23600650E+04</pdfrwt>
<totfact> 0.21679378E+00</totfact>
</mgrwt>
</event>
<event>
12    7  0.1730932E-007  0.1287632E+04  0.7818608E-02  0.9039431E-01
         -1   -1    0    0    0  501 -0.00000000000E+00  0.00000000000E+00  0.17266971413E+04  0.17266971413E+04  0.00000000000E+00 0.  1.
          2   -1    0    0  501    0  0.00000000000E+00 -0.00000000000E+00 -0.24005324280E+03  0.24005324280E+03  0.00000000000E+00 0. -1.
         24    2    1    2    0    0  0.22112662949E+02  0.32025383417E+03  0.32545399921E+03  0.46374803886E+03  0.78041333828E+02 0.  0.
        254    2    1    2    0    0 -0.22112662949E+02 -0.32025383417E+03  0.11611898993E+04  0.15030023452E+04  0.89866711269E+03 0.  0.
         23    2    4    4    0    0  0.23674211571E+03  0.14810936363E+03  0.79656534782E+03  0.84882442786E+03  0.89461405266E+02 0.  0.
         23    2    4    4    0    0 -0.25885477866E+03 -0.46836319780E+03  0.36462455147E+03  0.65417791738E+03  0.92885965429E+02 0.  0.
          4    1    3    3  502    0  0.22647722060E+02  0.72104325780E+02  0.39992654590E+02  0.85506523330E+02  0.00000000000E+00 0. -1.
         -3    1    3    3    0  502 -0.53505911128E+00  0.24814950839E+03  0.28546134461E+03  0.37824151553E+03  0.00000000000E+00 0.  1.
         13    1    5    5    0    0  0.29929844375E+02  0.38651177007E+02  0.24245468532E+03  0.24733374922E+03  0.00000000000E+00 0. -1.
        -13    1    5    5    0    0  0.20681227133E+03  0.10945818663E+03  0.55411066250E+03  0.60149067864E+03  0.00000000000E+00 0.  1.
          3    1    6    6  503    0 -0.26215964609E+03 -0.43656490869E+03  0.35511262951E+03  0.62082330753E+03  0.00000000000E+00 0. -1.
         -3    1    6    6    0  503  0.33048674355E+01 -0.31798289109E+02  0.95119219607E+01  0.33354609853E+02  0.00000000000E+00 0.  1.
<mgrwt>
<rscale>  0 0.12876323E+04</rscale>
<asrwt>0</asrwt>
<pdfrwt beam="1">  1        2 0.36931269E-01 0.12876323E+04</pdfrwt>
<pdfrwt beam="2">  1       -1 0.26564571E+00 0.12876323E+04</pdfrwt>
<totfact> 0.87580783E+00</totfact>
</mgrwt>
</event>
<event>
12    7  0.1730932E-007  0.1146165E+04  0.7818608E-02  0.9161329E-01
          2   -1    0    0  501    0  0.00000000000E+00  0.00000000000E+00  0.87406315683E+03  0.87406315683E+03  0.00000000000E+00 0. -1.
         -1   -1    0    0    0  501 -0.00000000000E+00 -0.00000000000E+00 -0.37574337507E+03  0.37574337507E+03  0.00000000000E+00 0.  1.
         24    2    1    2    0    0 -0.31078780235E+02 -0.77130970239E+02  0.30928003447E+03  0.32985316726E+03  0.78955019338E+02 0.  0.
        254    2    1    2    0    0  0.31078780235E+02  0.77130970239E+02  0.18903974729E+03  0.91995336464E+03  0.89647258180E+03 0.  0.
         23    2    4    4    0    0  0.52463526557E+02  0.45371614516E+03 -0.38330381400E+02  0.46978544119E+03  0.10304552693E+03 0.  0.
         23    2    4    4    0    0 -0.21384746323E+02 -0.37658517492E+03  0.22737012869E+03  0.45016792345E+03  0.93168033879E+02 0.  0.
          4    1    3    3  502    0 -0.38737515416E+02 -0.90083234748E+02  0.24634227280E+03  0.26514165959E+03  0.00000000000E+00 0. -1.
         -3    1    3    3    0  502  0.76587351814E+01  0.12952264509E+02  0.62937761672E+02  0.64711507669E+02  0.00000000000E+00 0.  1.
         13    1    5    5    0    0 -0.26176633130E+02  0.50500660603E+02  0.25842876098E+01  0.56940419614E+02  0.00000000000E+00 0. -1.
        -13    1    5    5    0    0  0.78640159687E+02  0.40321548456E+03 -0.40914669010E+02  0.41284502158E+03  0.00000000000E+00 0.  1.
          4    1    6    6  503    0 -0.74455917857E+01 -0.30313114768E+03  0.13659977508E+03  0.33257093692E+03  0.00000000000E+00 0.  1.
         -4    1    6    6    0  503 -0.13939154537E+02 -0.73454027242E+02  0.90770353606E+02  0.11759698653E+03  0.00000000000E+00 0. -1.
<mgrwt>
<rscale>  0 0.11461648E+04</rscale>
<asrwt>0</asrwt>
<pdfrwt beam="1">  1        2 0.13447125E+00 0.11461648E+04</pdfrwt>
<pdfrwt beam="2">  1       -1 0.57806673E-01 0.11461648E+04</pdfrwt>
<totfact> 0.10460977E+02</totfact>
</mgrwt>
</event>
<event>
12    7  0.1730932E-007  0.1490206E+04  0.7818608E-02  0.8890992E-01
         -1   -1    0    0    0  501 -0.00000000000E+00  0.00000000000E+00  0.48666429116E+03  0.48666429116E+03  0.00000000000E+00 0.  1.
          2   -1    0    0  501    0  0.00000000000E+00 -0.00000000000E+00 -0.11407836498E+04  0.11407836498E+04  0.00000000000E+00 0. -1.
         24    2    1    2    0    0 -0.33620374377E+03 -0.16004049920E+03  0.93910196578E+02  0.39255040704E+03  0.81429591319E+02 0.  0.
        254    2    1    2    0    0  0.33620374377E+03  0.16004049920E+03 -0.74802955523E+03  0.12348975339E+04  0.90927321806E+03 0.  0.
         23    2    4    4    0    0  0.18801832769E+03  0.17722158760E+03 -0.93764084285E+03  0.97709202925E+03  0.93702191953E+02 0.  0.
         23    2    4    4    0    0  0.14818541607E+03 -0.17181088406E+02  0.18961128762E+03  0.25780550468E+03  0.90868754327E+02 0.  0.
          2    1    3    3  502    0 -0.13297421755E+03 -0.40562437138E+02  0.64698315195E+00  0.13902471877E+03  0.00000000000E+00 0. -1.
         -1    1    3    3    0  502 -0.20322952621E+03 -0.11947806206E+03  0.93263213426E+02  0.25352568828E+03  0.00000000000E+00 0.  1.
         13    1    5    5    0    0  0.15383090213E+03  0.17817546177E+03 -0.74072997387E+03  0.77723312836E+03  0.00000000000E+00 0.  1.
        -13    1    5    5    0    0  0.34187425560E+02 -0.95387416496E+00 -0.19691086898E+03  0.19985890089E+03  0.00000000000E+00 0. -1.
          4    1    6    6  503    0  0.89377317528E+01  0.24647213672E+02  0.13686163194E+02  0.29574976816E+02  0.00000000000E+00 0. -1.
         -4    1    6    6    0  503  0.13924768432E+03 -0.41828302078E+02  0.17592512442E+03  0.22823052786E+03  0.00000000000E+00 0.  1.
<mgrwt>
<rscale>  0 0.14902062E+04</rscale>
<asrwt>0</asrwt>
<pdfrwt beam="1">  1        2 0.17550517E+00 0.14902062E+04</pdfrwt>
<pdfrwt beam="2">  1       -1 0.74871430E-01 0.14902062E+04</pdfrwt>
<totfact> 0.40697461E+01</totfact>
</mgrwt>
</event>
<event>
12    7  0.1730932E-007  0.1506268E+04  0.7818608E-02  0.8880295E-01
          2   -1    0    0  501    0  0.00000000000E+00  0.00000000000E+00  0.91314077715E+03  0.91314077715E+03  0.00000000000E+00 0. -1.
         -1   -1    0    0    0  501 -0.00000000000E+00 -0.00000000000E+00 -0.62116466511E+03  0.62116466511E+03  0.00000000000E+00 0.  1.
         24    2    1    2    0    0  0.32111601729E+03  0.21084551716E+03  0.40656495554E+03  0.56505717105E+03  0.80144961233E+02 0.  0.
        254    2    1    2    0    0 -0.32111601729E+03 -0.21084551716E+03 -0.11458884350E+03  0.96924827121E+03  0.88246262217E+03 0.  0.
         23    2    4    4    0    0 -0.35539085750E+03 -0.47927181172E+03 -0.24957374135E+03  0.65346985603E+03  0.93443401389E+02 0.  0.
         23    2    4    4    0    0  0.34274840202E+02  0.26842629457E+03  0.13498489785E+03  0.31577841519E+03  0.90926588877E+02 0.  0.
          4    1    3    3  502    0  0.25955957000E+03  0.16560395960E+03  0.36693505319E+03  0.47899600737E+03  0.00000000000E+00 0. -1.
         -3    1    3    3    0  502  0.61556447294E+02  0.45241557556E+02  0.39629902346E+02  0.86061163677E+02  0.00000000000E+00 0.  1.
         13    1    5    5    0    0 -0.14378485683E+03 -0.25122674560E+03 -0.15480287736E+03  0.32825735878E+03  0.00000000000E+00 0.  1.
        -13    1    5    5    0    0 -0.21160600067E+03 -0.22804506613E+03 -0.94770863983E+02  0.32521249724E+03  0.00000000000E+00 0. -1.
          1    1    6    6  503    0  0.48994803574E+02  0.70581242486E+02  0.27930524695E+02  0.90345540996E+02  0.00000000000E+00 0. -1.
         -1    1    6    6    0  503 -0.14719963372E+02  0.19784505208E+03  0.10705437315E+03  0.22543287419E+03  0.00000000000E+00 0.  1.
<mgrwt>
<rscale>  0 0.15062680E+04</rscale>
<asrwt>0</asrwt>
<pdfrwt beam="1">  1        2 0.14048320E+00 0.15062680E+04</pdfrwt>
<pdfrwt beam="2">  1       -1 0.95563795E-01 0.15062680E+04</pdfrwt>
<totfact> 0.33465074E+01</totfact>
</mgrwt>
</event>
<event>
12    7  0.1730932E-007  0.1637808E+04  0.7818608E-02  0.8797652E-01
         -1   -1    0    0    0  501 -0.00000000000E+00  0.00000000000E+00  0.99590121723E+03  0.99590121723E+03  0.00000000000E+00 0.  1.
          2   -1    0    0  501    0  0.00000000000E+00 -0.00000000000E+00 -0.67336392757E+03  0.67336392757E+03  0.00000000000E+00 0. -1.
         24    2    1    2    0    0  0.40981474594E+03  0.38129427012E+03  0.15896012601E+03  0.58748699663E+03  0.80865339516E+02 0.  0.
        254    2    1    2    0    0 -0.40981474594E+03 -0.38129427012E+03  0.16357716365E+03  0.10817781482E+04  0.91112733851E+03 0.  0.
         23    2    4    4    0    0  0.20015879805E+03 -0.37576161155E+03  0.16299419518E+03  0.46494836060E+03  0.91375802081E+02 0.  0.
         23    2    4    4    0    0 -0.60997354399E+03 -0.55326585676E+01  0.58296847451E+00  0.61682978757E+03  0.91544045753E+02 0.  0.
          4    1    3    3  502    0  0.38187035371E+03  0.35867652223E+03  0.12628936872E+03  0.53890891559E+03  0.00000000000E+00 0. -1.
         -3    1    3    3    0  502  0.27944392225E+02  0.22617747890E+02  0.32670757288E+02  0.48578081047E+02  0.00000000000E+00 0.  1.
         13    1    5    5    0    0  0.19551140371E+03 -0.38081421375E+03  0.16308204514E+03  0.45808288314E+03  0.00000000000E+00 0.  1.
        -13    1    5    5    0    0  0.46473943380E+01  0.50526021993E+01 -0.87849961094E-01  0.68654774585E+01  0.00000000000E+00 0. -1.
          4    1    6    6  503    0 -0.51772535772E+03 -0.31143361218E+02  0.20402990845E+02  0.51906236331E+03  0.00000000000E+00 0. -1.
         -4    1    6    6    0  503 -0.92248186270E+02  0.25610702651E+02 -0.19820022370E+02  0.97767424264E+02  0.00000000000E+00 0.  1.
<mgrwt>
<rscale>  0 0.16378082E+04</rscale>
<asrwt>0</asrwt>
<pdfrwt beam="1">  1        2 0.10359445E+00 0.16378082E+04</pdfrwt>
<pdfrwt beam="2">  1       -1 0.15321557E+00 0.16378082E+04</pdfrwt>
<totfact> 0.15478313E+01</totfact>
</mgrwt>
</event>
<event>
12    7  0.1730932E-007  0.1072874E+04  0.7818608E-02  0.9232042E-01
          2   -1    0    0  501    0  0.00000000000E+00  0.00000000000E+00  0.20074929075E+04  0.20074929075E+04  0.00000000000E+00 0. -1.
         -1   -1    0    0    0  501 -0.00000000000E+00 -0.00000000000E+00 -0.14334526721E+03  0.14334526721E+03  0.00000000000E+00 0.  1.
         24    2    1    2    0    0 -0.40485822300E+02  0.14615413673E+03  0.29539497323E+03  0.34395802026E+03  0.89715082359E+02 0.  0.
        254    2    1    2    0    0  0.40485822300E+02 -0.14615413673E+03  0.15687526671E+04  0.18068801545E+04  0.88364632554E+03 0.  0.
         23    2    4    4    0    0  0.15484697450E+03 -0.14691178670E+03  0.16312339422E+04  0.16479858635E+04  0.96812053995E+02 0.  0.
         23    2    4    4    0    0 -0.11436115220E+03  0.75764997050E+00 -0.62481275045E+02  0.15889429095E+03  0.90908958848E+02 0.  0.
          4    1    3    3  502    0 -0.10971916300E+02 -0.41392529204E+01  0.72923663657E+02  0.73860524525E+02  0.00000000000E+00 0. -1.
         -3    1    3    3    0  502 -0.29513906000E+02  0.15029338965E+03  0.22247130957E+03  0.27009749573E+03  0.00000000000E+00 0.  1.
         13    1    5    5    0    0  0.11051842100E+03 -0.55793894765E+02  0.11188460738E+04  0.11256748273E+04  0.00000000000E+00 0.  1.
        -13    1    5    5    0    0  0.44328553508E+02 -0.91117891937E+02  0.51238786841E+03  0.52231103624E+03  0.00000000000E+00 0. -1.
          1    1    6    6  503    0  0.75668666748E+01  0.20279876230E+02 -0.16153563908E+02  0.27008674128E+02  0.00000000000E+00 0. -1.
         -1    1    6    6    0  503 -0.12192801888E+03 -0.19522226260E+02 -0.46327711137E+02  0.13188561682E+03  0.00000000000E+00 0.  1.
<mgrwt>
<rscale>  0 0.10728739E+04</rscale>
<asrwt>0</asrwt>
<pdfrwt beam="1">  1        2 0.30884504E+00 0.10728739E+04</pdfrwt>
<pdfrwt beam="2">  1       -1 0.22053119E-01 0.10728739E+04</pdfrwt>
<totfact> 0.13038813E+02</totfact>
</mgrwt>
</event>
<event>
12    7  0.1730932E-007  0.1481347E+04  0.7818608E-02  0.8896952E-01
          2   -1    0    0  501    0  0.00000000000E+00  0.00000000000E+00  0.47674447062E+03  0.47674447062E+03  0.00000000000E+00 0. -1.
         -1   -1    0    0    0  501 -0.00000000000E+00 -0.00000000000E+00 -0.11507156516E+04  0.11507156516E+04  0.00000000000E+00 0.  1.
         24    2    1    2    0    0  0.33634774332E+03 -0.49086344281E+01 -0.56352044034E+03  0.66195472593E+03  0.86457350063E+02 0.  0.
        254    2    1    2    0    0 -0.33634774332E+03  0.49086344281E+01 -0.11045074068E+03  0.96550539634E+03  0.89824685088E+03 0.  0.
         23    2    4    4    0    0 -0.26273754442E+03  0.17586765131E+03 -0.45594832533E+03  0.56232638943E+03  0.91442030005E+02 0.  0.
         23    2    4    4    0    0 -0.73610198893E+02 -0.17095901688E+03  0.34549758465E+03  0.40317900691E+03  0.92408245186E+02 0.  0.
          4    1    3    3  502    0  0.18681487942E+03  0.53757035257E+01 -0.23041878317E+03  0.29668419742E+03  0.00000000000E+00 0. -1.
         -3    1    3    3    0  502  0.14953286390E+03 -0.10284337954E+02 -0.33310165717E+03  0.36527052852E+03  0.00000000000E+00 0.  1.
         13    1    5    5    0    0 -0.32624864812E+02  0.67034022144E+02 -0.10071611369E+03  0.12530633458E+03  0.00000000000E+00 0. -1.
        -13    1    5    5    0    0 -0.23011267961E+03  0.10883362917E+03 -0.35523221163E+03  0.43702005485E+03  0.00000000000E+00 0.  1.
          2    1    6    6  503    0  0.61680670072E+01 -0.34032852718E+01 -0.35317685503E+01  0.78804054680E+01  0.00000000000E+00 0. -1.
         -2    1    6    6    0  503 -0.79778265900E+02 -0.16755573161E+03  0.34902935320E+03  0.39529860144E+03  0.00000000000E+00 0.  1.
<mgrwt>
<rscale>  0 0.14813471E+04</rscale>
<asrwt>0</asrwt>
<pdfrwt beam="1">  1        2 0.73345304E-01 0.14813471E+04</pdfrwt>
<pdfrwt beam="2">  1       -1 0.17703317E+00 0.14813471E+04</pdfrwt>
<totfact> 0.15739128E+01</totfact>
</mgrwt>
</event>
<event>
12    7  0.1730932E-007  0.2011394E+04  0.7818608E-02  0.8601312E-01
          2   -1    0    0  501    0  0.00000000000E+00  0.00000000000E+00  0.13088396138E+04  0.13088396138E+04  0.00000000000E+00 0. -1.
         -1   -1    0    0    0  501 -0.00000000000E+00 -0.00000000000E+00 -0.77276551337E+03  0.77276551337E+03  0.00000000000E+00 0.  1.
         24    2    1    2    0    0  0.28079193928E+03  0.67150510623E+03 -0.13128676244E+03  0.74378519471E+03  0.78847834503E+02 0.  0.
        254    2    1    2    0    0 -0.28079193928E+03 -0.67150510623E+03  0.66736086287E+03  0.13378199325E+04  0.90256768695E+03 0.  0.
         23    2    4    4    0    0  0.23204580367E+03 -0.16057055728E+02 -0.25858444142E+02  0.25090169661E+03  0.90442900162E+02 0.  0.
         23    2    4    4    0    0 -0.51283774295E+03 -0.65544805051E+03  0.69321930702E+03  0.10869182358E+04  0.90683770808E+02 0.  0.
          4    1    3    3  502    0  0.22937605970E+03  0.52730274998E+03 -0.13491883742E+03  0.59064766112E+03  0.00000000000E+00 0. -1.
         -3    1    3    3    0  502  0.51415879584E+02  0.14420235625E+03  0.36320749837E+01  0.15313753358E+03  0.00000000000E+00 0.  1.
         13    1    5    5    0    0  0.48112572135E+01  0.11682721918E+02  0.13645637807E+02  0.18596709886E+02  0.00000000000E+00 0. -1.
        -13    1    5    5    0    0  0.22723454646E+03 -0.27739777647E+02 -0.39504081949E+02  0.23230498673E+03  0.00000000000E+00 0.  1.
          4    1    6    6  503    0 -0.36677382797E+03 -0.52619712146E+03  0.51231290504E+03  0.82089643938E+03  0.00000000000E+00 0. -1.
         -4    1    6    6    0  503 -0.14606391499E+03 -0.12925092904E+03  0.18090640197E+03  0.26602179646E+03  0.00000000000E+00 0.  1.
<mgrwt>
<rscale>  0 0.20113937E+04</rscale>
<asrwt>0</asrwt>
<pdfrwt beam="1">  1        2 0.20135994E+00 0.20113937E+04</pdfrwt>
<pdfrwt beam="2">  1       -1 0.11888700E+00 0.20113937E+04</pdfrwt>
<totfact> 0.10948151E+01</totfact>
</mgrwt>
</event>
<event>
12    7  0.1730932E-007  0.1462156E+04  0.7818608E-02  0.8910016E-01
          2   -1    0    0  501    0  0.00000000000E+00  0.00000000000E+00  0.15129900787E+04  0.15129900787E+04  0.00000000000E+00 0. -1.
         -1   -1    0    0    0  501 -0.00000000000E+00 -0.00000000000E+00 -0.35325762728E+03  0.35325762728E+03  0.00000000000E+00 0.  1.
         24    2    1    2    0    0 -0.14312591240E+03 -0.23848493798E+03 -0.82628007527E+02  0.29942059037E+03  0.73927057719E+02 0.  0.
        254    2    1    2    0    0  0.14312591240E+03  0.23848493798E+03  0.12423604589E+04  0.15668271156E+04  0.91330586762E+03 0.  0.
         23    2    4    4    0    0 -0.50108953150E+01  0.35825944617E+03  0.12989228038E+04  0.13505749706E+04  0.92072587450E+02 0.  0.
         23    2    4    4    0    0  0.14813680772E+03 -0.11977450819E+03 -0.56562344811E+02  0.21625214497E+03  0.85295045235E+02 0.  0.
          4    1    3    3  502    0 -0.35112571891E+02 -0.15596135349E+02 -0.32336006432E+00  0.38421825885E+02  0.00000000000E+00 0. -1.
         -3    1    3    3    0  502 -0.10801334051E+03 -0.22288880263E+03 -0.82304647463E+02  0.26099876448E+03  0.00000000000E+00 0.  1.
         13    1    5    5    0    0  0.12639341354E+02  0.32089303380E+03  0.12191012386E+04  0.12606902562E+04  0.00000000000E+00 0.  1.
        -13    1    5    5    0    0 -0.17650236669E+02  0.37366412365E+02  0.79821565127E+02  0.89884714423E+02  0.00000000000E+00 0. -1.
          2    1    6    6  503    0  0.28598833572E+02 -0.23082085339E+02  0.22778873443E+02  0.43238328143E+02  0.00000000000E+00 0. -1.
         -2    1    6    6    0  503  0.11953797415E+03 -0.96692422852E+02 -0.79341218254E+02  0.17301381683E+03  0.00000000000E+00 0.  1.
<mgrwt>
<rscale>  0 0.14621563E+04</rscale>
<asrwt>0</asrwt>
<pdfrwt beam="1">  1        2 0.23276770E+00 0.14621563E+04</pdfrwt>
<pdfrwt beam="2">  1       -1 0.54347328E-01 0.14621563E+04</pdfrwt>
<totfact> 0.47115048E+01</totfact>
</mgrwt>
</event>
<event>
12    7  0.1730932E-007  0.1208374E+04  0.7818608E-02  0.9105559E-01
          2   -1    0    0  501    0  0.00000000000E+00  0.00000000000E+00  0.52537653784E+03  0.52537653784E+03  0.00000000000E+00 0. -1.
         -1   -1    0    0    0  501 -0.00000000000E+00 -0.00000000000E+00 -0.69481910945E+03  0.69481910945E+03  0.00000000000E+00 0.  1.
         24    2    1    2    0    0 -0.18536228631E+02  0.14654658851E+03  0.17906894234E+03  0.24415258611E+03  0.75665743996E+02 0.  0.
        254    2    1    2    0    0  0.18536228631E+02 -0.14654658851E+03 -0.34851151396E+03  0.97604306118E+03  0.89965564943E+03 0.  0.
         23    2    4    4    0    0 -0.16032332819E+03  0.26511915132E+03 -0.40133868575E+03  0.51518779790E+03  0.91400177613E+02 0.  0.
         23    2    4    4    0    0  0.17885955682E+03 -0.41166573983E+03  0.52827171791E+02  0.46085526328E+03  0.90207766843E+02 0.  0.
          2    1    3    3  502    0 -0.10104174462E+02  0.52197253757E+02  0.12319146591E+03  0.13417445702E+03  0.00000000000E+00 0. -1.
         -1    1    3    3    0  502 -0.84320541690E+01  0.94349334756E+02  0.55877476427E+02  0.10997812909E+03  0.00000000000E+00 0.  1.
         13    1    5    5    0    0 -0.71613688902E+02  0.19278910659E+03 -0.28988630410E+03  0.35542964052E+03  0.00000000000E+00 0.  1.
        -13    1    5    5    0    0 -0.88709639287E+02  0.72330044732E+02 -0.11145238165E+03  0.15975815738E+03  0.00000000000E+00 0. -1.
          1    1    6    6  503    0  0.12143088141E+01 -0.26771426142E+01  0.12829444062E+02  0.13161925141E+02  0.00000000000E+00 0. -1.
         -1    1    6    6    0  503  0.17764524801E+03 -0.40898859722E+03  0.39997727729E+02  0.44769333814E+03  0.00000000000E+00 0.  1.
<mgrwt>
<rscale>  0 0.12083735E+04</rscale>
<asrwt>0</asrwt>
<pdfrwt beam="1">  1        2 0.80827160E-01 0.12083735E+04</pdfrwt>
<pdfrwt beam="2">  1       -1 0.10689525E+00 0.12083735E+04</pdfrwt>
<totfact> 0.53530419E+01</totfact>
</mgrwt>
</event>
<event>
12    7  0.1730932E-007  0.1391970E+04  0.7818608E-02  0.8959652E-01
          2   -1    0    0  501    0  0.00000000000E+00  0.00000000000E+00  0.79780555095E+03  0.79780555095E+03  0.00000000000E+00 0. -1.
         -1   -1    0    0    0  501 -0.00000000000E+00 -0.00000000000E+00 -0.60715903766E+03  0.60715903766E+03  0.00000000000E+00 0.  1.
         24    2    1    2    0    0 -0.34484275224E+03 -0.18362879810E+03  0.13923519430E+03  0.42196425681E+03  0.77661672824E+02 0.  0.
        254    2    1    2    0    0  0.34484275224E+03  0.18362879810E+03  0.51411318983E+02  0.98300033180E+03  0.90056119689E+03 0.  0.
         23    2    4    4    0    0  0.31764189877E+03 -0.32256655049E+03 -0.23275585071E+02  0.46241547413E+03  0.91327775107E+02 0.  0.
         23    2    4    4    0    0  0.27200853475E+02  0.50619534859E+03  0.74686904054E+02  0.52058485767E+03  0.91961095229E+02 0.  0.
          2    1    3    3  502    0 -0.30888848726E+03 -0.13346726170E+03  0.11380802205E+03  0.35521524938E+03  0.00000000000E+00 0. -1.
         -3    1    3    3    0  502 -0.35954264981E+02 -0.50161536396E+02  0.25427172247E+02  0.66749007426E+02  0.00000000000E+00 0.  1.
         13    1    5    5    0    0  0.28340849620E+03 -0.23627097905E+03 -0.17147606966E+02  0.36937567825E+03  0.00000000000E+00 0.  1.
        -13    1    5    5    0    0  0.34233402568E+02 -0.86295571435E+02 -0.61279781046E+01  0.93039795875E+02  0.00000000000E+00 0. -1.
          3    1    6    6  503    0 -0.16051355453E+02  0.13589642547E+03 -0.13423983399E+02  0.13749795561E+03  0.00000000000E+00 0. -1.
         -3    1    6    6    0  503  0.43252208928E+02  0.37029892312E+03  0.88110887454E+02  0.38308690206E+03  0.00000000000E+00 0.  1.
<mgrwt>
<rscale>  0 0.13919696E+04</rscale>
<asrwt>0</asrwt>
<pdfrwt beam="1">  1        2 0.12273932E+00 0.13919696E+04</pdfrwt>
<pdfrwt beam="2">  1       -1 0.93409083E-01 0.13919696E+04</pdfrwt>
<totfact> 0.42768137E+01</totfact>
</mgrwt>
</event>
<event>
12    7  0.1730932E-007  0.1324832E+04  0.7818608E-02  0.9010102E-01
         -1   -1    0    0    0  501 -0.00000000000E+00  0.00000000000E+00  0.43777498435E+03  0.43777498435E+03  0.00000000000E+00 0.  1.
          2   -1    0    0  501    0  0.00000000000E+00 -0.00000000000E+00 -0.10023294595E+04  0.10023294595E+04  0.00000000000E+00 0. -1.
         24    2    1    2    0    0  0.10954223059E+03  0.22101525862E+03 -0.41635668611E+03  0.49093726500E+03  0.82578830619E+02 0.  0.
        254    2    1    2    0    0 -0.10954223059E+03 -0.22101525862E+03 -0.14819778905E+03  0.94916717886E+03  0.90449350685E+03 0.  0.
         23    2    4    4    0    0 -0.17691339962E+03 -0.25406351524E+03  0.32723982931E+03  0.45863710649E+03  0.86113116380E+02 0.  0.
         23    2    4    4    0    0  0.67371169027E+02  0.33048256621E+02 -0.47543761836E+03  0.49053007238E+03  0.94592606869E+02 0.  0.
          2    1    3    3  502    0  0.10603005823E+03  0.12628459753E+03 -0.25047618316E+03  0.29988079490E+03  0.00000000000E+00 0. -1.
         -1    1    3    3    0  502  0.35121723672E+01  0.94730661094E+02 -0.16588050296E+03  0.19105647010E+03  0.00000000000E+00 0.  1.
         13    1    5    5    0    0 -0.18509893766E+03 -0.22642606387E+03  0.29520503099E+03  0.41554348683E+03  0.00000000000E+00 0.  1.
        -13    1    5    5    0    0  0.81855380424E+01 -0.27637451376E+02  0.32034798323E+02  0.43093619657E+02  0.00000000000E+00 0. -1.
          1    1    6    6  503    0  0.43138411717E+02 -0.22226826841E+02 -0.11122248585E+03  0.12134824166E+03  0.00000000000E+00 0. -1.
         -1    1    6    6    0  503  0.24232757310E+02  0.55275083462E+02 -0.36421513251E+03  0.36918183071E+03  0.00000000000E+00 0.  1.
<mgrwt>
<rscale>  0 0.13248317E+04</rscale>
<asrwt>0</asrwt>
<pdfrwt beam="1">  1        2 0.15420453E+00 0.13248317E+04</pdfrwt>
<pdfrwt beam="2">  1       -1 0.67349999E-01 0.13248317E+04</pdfrwt>
<totfact> 0.62576044E+01</totfact>
</mgrwt>
</event>
<event>
12    7  0.1730932E-007  0.1984714E+04  0.7818608E-02  0.8613801E-01
          2   -1    0    0  501    0  0.00000000000E+00  0.00000000000E+00  0.15779026802E+04  0.15779026802E+04  0.00000000000E+00 0. -1.
         -1   -1    0    0    0  501 -0.00000000000E+00 -0.00000000000E+00 -0.62410219169E+03  0.62410219169E+03  0.00000000000E+00 0.  1.
         24    2    1    2    0    0 -0.62305731644E+03 -0.45739626107E+03  0.50844141670E+03  0.92842453175E+03  0.77766816336E+02 0.  0.
        254    2    1    2    0    0  0.62305731644E+03  0.45739626107E+03  0.44535907177E+03  0.12735803401E+04  0.90898317952E+03 0.  0.
         23    2    4    4    0    0  0.73520759455E+03  0.36881264714E+02  0.21108864103E+03  0.77101836699E+03  0.89557094030E+02 0.  0.
         23    2    4    4    0    0 -0.11215027811E+03  0.42051499636E+03  0.23427043075E+03  0.50256197310E+03  0.90968978472E+02 0.  0.
          4    1    3    3  502    0 -0.54942847977E+03 -0.38125856166E+03  0.46173438091E+03  0.81266744966E+03  0.00000000000E+00 0. -1.
         -3    1    3    3    0  502 -0.73628836675E+02 -0.76137699415E+02  0.46707035786E+02  0.11575708209E+03  0.00000000000E+00 0.  1.
         13    1    5    5    0    0  0.58250733217E+03  0.40534270564E+01  0.19361423952E+03  0.61385478417E+03  0.00000000000E+00 0.  1.
        -13    1    5    5    0    0  0.15270026239E+03  0.32827837658E+02  0.17474401506E+02  0.15716358282E+03  0.00000000000E+00 0. -1.
          3    1    6    6  503    0  0.15200946252E+02  0.27120561447E+02  0.14802171767E+02  0.34433964471E+02  0.00000000000E+00 0. -1.
         -3    1    6    6    0  503 -0.12735122436E+03  0.39339443491E+03  0.21946825898E+03  0.46812800863E+03  0.00000000000E+00 0.  1.
<mgrwt>
<rscale>  0 0.19847141E+04</rscale>
<asrwt>0</asrwt>
<pdfrwt beam="1">  1        2 0.24275426E+00 0.19847141E+04</pdfrwt>
<pdfrwt beam="2">  1       -1 0.96015722E-01 0.19847141E+04</pdfrwt>
<totfact> 0.12711557E+01</totfact>
</mgrwt>
</event>
<event>
12    7  0.1730932E-007  0.3022872E+04  0.7818608E-02  0.8237230E-01
         -1   -1    0    0    0  501 -0.00000000000E+00  0.00000000000E+00  0.19285785449E+04  0.19285785449E+04  0.00000000000E+00 0.  1.
          2   -1    0    0  501    0  0.00000000000E+00 -0.00000000000E+00 -0.11845191307E+04  0.11845191307E+04  0.00000000000E+00 0. -1.
         24    2    1    2    0    0 -0.14942793886E+03  0.70137356308E+03  0.15383076737E+04  0.16990506223E+04  0.78287510799E+02 0.  0.
        254    2    1    2    0    0  0.14942793886E+03 -0.70137356308E+03 -0.79424825949E+03  0.14140470533E+04  0.92436204339E+03 0.  0.
         23    2    4    4    0    0  0.34526499367E+01  0.18795942870E+03 -0.34619761779E+03  0.40333107647E+03  0.86501439620E+02 0.  0.
         23    2    4    4    0    0  0.14597528893E+03 -0.88933299178E+03 -0.44805064170E+03  0.10107159768E+04  0.92603741746E+02 0.  0.
          2    1    3    3  502    0 -0.10444025413E+03  0.30951284091E+03  0.72056224996E+03  0.79114848255E+03  0.00000000000E+00 0. -1.
         -1    1    3    3    0  502 -0.44987684733E+02  0.39186072217E+03  0.81774542370E+03  0.90790213974E+03  0.00000000000E+00 0.  1.
         13    1    5    5    0    0 -0.11282392510E+02  0.19100415062E+03 -0.32789138481E+03  0.37963487481E+03  0.00000000000E+00 0. -1.
        -13    1    5    5    0    0  0.14735042447E+02 -0.30447219235E+01 -0.18306232975E+02  0.23696201662E+02  0.00000000000E+00 0.  1.
          4    1    6    6  503    0  0.53197730903E+02 -0.16290998001E+03 -0.11379722261E+03  0.20571696098E+03  0.00000000000E+00 0. -1.
         -4    1    6    6    0  503  0.92777558024E+02 -0.72642301177E+03 -0.33425341909E+03  0.80499901582E+03  0.00000000000E+00 0.  1.
<mgrwt>
<rscale>  0 0.30228716E+04</rscale>
<asrwt>0</asrwt>
<pdfrwt beam="1">  1        2 0.18223371E+00 0.30228716E+04</pdfrwt>
<pdfrwt beam="2">  1       -1 0.29670439E+00 0.30228716E+04</pdfrwt>
<totfact> 0.65335222E-01</totfact>
</mgrwt>
</event>
<event>
12    7  0.1730932E-007  0.1611720E+04  0.7818608E-02  0.8813380E-01
          2   -1    0    0  501    0  0.00000000000E+00  0.00000000000E+00  0.88964060074E+03  0.88964060074E+03  0.00000000000E+00 0. -1.
         -1   -1    0    0    0  501 -0.00000000000E+00 -0.00000000000E+00 -0.72996956029E+03  0.72996956029E+03  0.00000000000E+00 0.  1.
         24    2    1    2    0    0  0.29637168917E+03  0.32946555318E+03 -0.26510385726E+03  0.52251695029E+03  0.79750732477E+02 0.  0.
        254    2    1    2    0    0 -0.29637168917E+03 -0.32946555318E+03  0.42477489770E+03  0.10970932107E+04  0.90928327295E+03 0.  0.
         23    2    4    4    0    0 -0.10548815324E+03 -0.32045440374E+03  0.68010261536E+03  0.76474741390E+03  0.92088350542E+02 0.  0.
         23    2    4    4    0    0 -0.19088353593E+03 -0.90111494359E+01 -0.25532771766E+03  0.33234579684E+03  0.93508075412E+02 0.  0.
          2    1    3    3  502    0  0.58089414694E+01  0.38100666557E+02 -0.17998453544E+02  0.42536442294E+02  0.00000000000E+00 0. -1.
         -1    1    3    3    0  502  0.29056274770E+03  0.29136488662E+03 -0.24710540371E+03  0.47998050799E+03  0.00000000000E+00 0.  1.
         13    1    5    5    0    0 -0.49371149949E+02 -0.64106753026E+02  0.22892894392E+03  0.24280784088E+03  0.00000000000E+00 0. -1.
        -13    1    5    5    0    0 -0.56117003292E+02 -0.25634765071E+03  0.45117367144E+03  0.52193957302E+03  0.00000000000E+00 0.  1.
          2    1    6    6  503    0 -0.99587707661E+02 -0.49659645730E+02 -0.11456597873E+03  0.15971585836E+03  0.00000000000E+00 0. -1.
         -2    1    6    6    0  503 -0.91295828270E+02  0.40648496294E+02 -0.14076173893E+03  0.17262993848E+03  0.00000000000E+00 0.  1.
<mgrwt>
<rscale>  0 0.16117203E+04</rscale>
<asrwt>0</asrwt>
<pdfrwt beam="1">  1        2 0.13686778E+00 0.16117203E+04</pdfrwt>
<pdfrwt beam="2">  1       -1 0.11230301E+00 0.16117203E+04</pdfrwt>
<totfact> 0.23680419E+01</totfact>
</mgrwt>
</event>
<event>
12    7  0.1730932E-007  0.1906279E+04  0.7818608E-02  0.8651737E-01
         -1   -1    0    0    0  501 -0.00000000000E+00  0.00000000000E+00  0.73155550521E+03  0.73155550521E+03  0.00000000000E+00 0.  1.
          2   -1    0    0  501    0  0.00000000000E+00 -0.00000000000E+00 -0.12418394175E+04  0.12418394175E+04  0.00000000000E+00 0. -1.
         24    2    1    2    0    0 -0.21676648008E+03  0.52142678573E+03 -0.70313511815E+03  0.90536200781E+03  0.80048554238E+02 0.  0.
        254    2    1    2    0    0  0.21676648008E+03 -0.52142678573E+03  0.19285120587E+03  0.10680329149E+04  0.88579293286E+03 0.  0.
         23    2    4    4    0    0 -0.20732175799E+03  0.10686682327E+03  0.17246405706E+03  0.30412643402E+03  0.91357581199E+02 0.  0.
         23    2    4    4    0    0  0.42408823808E+03 -0.62829360900E+03  0.20387148812E+02  0.76390648086E+03  0.92378476268E+02 0.  0.
          4    1    3    3  502    0 -0.13603957045E+03  0.22354482949E+03 -0.31861477856E+03  0.41230381109E+03  0.00000000000E+00 0. -1.
         -3    1    3    3    0  502 -0.80726909634E+02  0.29788195624E+03 -0.38452033959E+03  0.49305819672E+03  0.00000000000E+00 0.  1.
         13    1    5    5    0    0 -0.92213540427E+02  0.73619355936E+01  0.34483905559E+02  0.98725249437E+02  0.00000000000E+00 0.  1.
        -13    1    5    5    0    0 -0.11510821757E+03  0.99504887675E+02  0.13798015150E+03  0.20540118459E+03  0.00000000000E+00 0. -1.
          4    1    6    6  503    0  0.41806876359E+03 -0.59104971643E+03  0.31281855891E+02  0.72463771147E+03  0.00000000000E+00 0. -1.
         -4    1    6    6    0  503  0.60194744910E+01 -0.37243892575E+02 -0.10894707079E+02  0.39268769393E+02  0.00000000000E+00 0.  1.
<mgrwt>
<rscale>  0 0.19062785E+04</rscale>
<asrwt>0</asrwt>
<pdfrwt beam="1">  1        2 0.19105222E+00 0.19062785E+04</pdfrwt>
<pdfrwt beam="2">  1       -1 0.11254700E+00 0.19062785E+04</pdfrwt>
<totfact> 0.13797295E+01</totfact>
</mgrwt>
</event>
<event>
12    7  0.1730932E-007  0.1864304E+04  0.7818608E-02  0.8672832E-01
          2   -1    0    0  501    0  0.00000000000E+00  0.00000000000E+00  0.52219111169E+03  0.52219111169E+03  0.00000000000E+00 0. -1.
         -1   -1    0    0    0  501 -0.00000000000E+00 -0.00000000000E+00 -0.16639638657E+04  0.16639638657E+04  0.00000000000E+00 0.  1.
         24    2    1    2    0    0 -0.45448313172E+03 -0.34941668739E+03  0.50138501156E+02  0.58143827555E+03  0.83124367905E+02 0.  0.
        254    2    1    2    0    0  0.45448313172E+03  0.34941668739E+03 -0.11919112551E+04  0.16047167018E+04  0.90874436147E+03 0.  0.
         23    2    4    4    0    0  0.60588714020E+03  0.52176428971E+03 -0.10364733063E+04  0.13121950823E+04  0.90784461717E+02 0.  0.
         23    2    4    4    0    0 -0.15140400848E+03 -0.17234760233E+03 -0.15543794881E+03  0.29252161956E+03  0.93707375178E+02 0.  0.
          2    1    3    3  502    0 -0.11490194672E+03 -0.10873474538E+03 -0.19623389784E+02  0.15940758965E+03  0.00000000000E+00 0. -1.
         -1    1    3    3    0  502 -0.33958118500E+03 -0.24068194201E+03  0.69761890940E+02  0.42203068590E+03  0.00000000000E+00 0.  1.
         13    1    5    5    0    0  0.51071425745E+03  0.42038656255E+03 -0.80204732956E+03  0.10396315855E+04  0.00000000000E+00 0.  1.
        -13    1    5    5    0    0  0.95172882749E+02  0.10137772717E+03 -0.23442597676E+03  0.27256349674E+03  0.00000000000E+00 0. -1.
          2    1    6    6  503    0  0.12437510136E+02 -0.66947626380E+01 -0.14383310963E+02  0.20159145305E+02  0.00000000000E+00 0. -1.
         -2    1    6    6    0  503 -0.16384151862E+03 -0.16565283969E+03 -0.14105463785E+03  0.27236247425E+03  0.00000000000E+00 0.  1.
<mgrwt>
<rscale>  0 0.18643038E+04</rscale>
<asrwt>0</asrwt>
<pdfrwt beam="1">  1        2 0.80337095E-01 0.18643038E+04</pdfrwt>
<pdfrwt beam="2">  1       -1 0.25599444E+00 0.18643038E+04</pdfrwt>
<totfact> 0.40023198E+00</totfact>
</mgrwt>
</event>
<event>
12    7  0.1730932E-007  0.1446519E+04  0.7818608E-02  0.8920817E-01
          2   -1    0    0  501    0  0.00000000000E+00  0.00000000000E+00  0.91477596138E+03  0.91477596138E+03  0.00000000000E+00 0. -1.
         -1   -1    0    0    0  501 -0.00000000000E+00 -0.00000000000E+00 -0.57183876010E+03  0.57183876010E+03  0.00000000000E+00 0.  1.
         24    2    1    2    0    0 -0.18065736229E+02  0.12538032075E+03  0.52038397651E+03  0.54168768322E+03  0.81113916763E+02 0.  0.
        254    2    1    2    0    0  0.18065736229E+02 -0.12538032075E+03 -0.17744677523E+03  0.94492703826E+03  0.91943088589E+03 0.  0.
         23    2    4    4    0    0 -0.41626119129E+03  0.25960056378E+02  0.37331105065E+02  0.42885542661E+03  0.92607027931E+02 0.  0.
         23    2    4    4    0    0  0.43432692752E+03 -0.15134037712E+03 -0.21477788029E+03  0.51607161165E+03  0.93040747868E+02 0.  0.
          4    1    3    3  502    0 -0.34215052096E+02  0.95550242190E+02  0.47077285229E+03  0.48158861804E+03  0.00000000000E+00 0. -1.
         -3    1    3    3    0  502  0.16149315867E+02  0.29830078557E+02  0.49611124220E+02  0.60099065184E+02  0.00000000000E+00 0.  1.
         13    1    5    5    0    0 -0.28021756750E+01 -0.90265511465E+00 -0.11303013690E+02  0.11680115292E+02  0.00000000000E+00 0. -1.
        -13    1    5    5    0    0 -0.41345901562E+03  0.26862711493E+02  0.48634118755E+02  0.41717531132E+03  0.00000000000E+00 0.  1.
          3    1    6    6  503    0  0.10380759918E+03 -0.43247617783E+02 -0.10939188018E+02  0.11298690157E+03  0.00000000000E+00 0. -1.
         -3    1    6    6    0  503  0.33051932834E+03 -0.10809275934E+03 -0.20383869227E+03  0.40308471008E+03  0.00000000000E+00 0.  1.
<mgrwt>
<rscale>  0 0.14465191E+04</rscale>
<asrwt>0</asrwt>
<pdfrwt beam="1">  1        2 0.14073476E+00 0.14465191E+04</pdfrwt>
<pdfrwt beam="2">  1       -1 0.87975194E-01 0.14465191E+04</pdfrwt>
<totfact> 0.40301776E+01</totfact>
</mgrwt>
</event>
<event>
12    7  0.1730932E-007  0.2096678E+04  0.7818608E-02  0.8562708E-01
         -1   -1    0    0    0  501 -0.00000000000E+00  0.00000000000E+00  0.20489498702E+04  0.20489498702E+04  0.00000000000E+00 0.  1.
          2   -1    0    0  501    0  0.00000000000E+00 -0.00000000000E+00 -0.53637936071E+03  0.53637936071E+03  0.00000000000E+00 0. -1.
         24    2    1    2    0    0  0.21627606877E+02 -0.48090726059E+03  0.14778271022E+04  0.15563016835E+04  0.79764899508E+02 0.  0.
        254    2    1    2    0    0 -0.21627606877E+02  0.48090726059E+03  0.34743407206E+02  0.10290275474E+04  0.90881848699E+03 0.  0.
         23    2    4    4    0    0  0.19773914361E+03  0.27872124705E+03 -0.37391184283E+03  0.51485197019E+03  0.92066185554E+02 0.  0.
         23    2    4    4    0    0 -0.21936675049E+03  0.20218601354E+03  0.40865525003E+03  0.51417557722E+03  0.91522978176E+02 0.  0.
          2    1    3    3  502    0 -0.15695347895E+02 -0.63952655419E+02  0.27266380968E+03  0.28050283277E+03  0.00000000000E+00 0. -1.
         -3    1    3    3    0  502  0.37322954772E+02 -0.41695460518E+03  0.12051632926E+04  0.12757988507E+04  0.00000000000E+00 0.  1.
         13    1    5    5    0    0  0.10458038984E+03  0.20294995984E+03 -0.28639404356E+03  0.36626123508E+03  0.00000000000E+00 0. -1.
        -13    1    5    5    0    0  0.93158753768E+02  0.75771287209E+02 -0.87517799272E+02  0.14859073510E+03  0.00000000000E+00 0.  1.
          4    1    6    6  503    0 -0.13905257015E+03  0.11698504727E+03  0.17234110932E+03  0.25044475740E+03  0.00000000000E+00 0.  1.
         -4    1    6    6    0  503 -0.80314180338E+02  0.85200966275E+02  0.23631414072E+03  0.26373081981E+03  0.00000000000E+00 0. -1.
<mgrwt>
<rscale>  0 0.20966778E+04</rscale>
<asrwt>0</asrwt>
<pdfrwt beam="1">  1        2 0.82519902E-01 0.20966778E+04</pdfrwt>
<pdfrwt beam="2">  1       -1 0.31522305E+00 0.20966778E+04</pdfrwt>
<totfact> 0.15710039E+00</totfact>
</mgrwt>
</event>
<event>
12    7  0.1730932E-007  0.3422140E+04  0.7818608E-02  0.8132494E-01
          2   -1    0    0  501    0  0.00000000000E+00  0.00000000000E+00  0.45423543270E+04  0.45423543270E+04  0.00000000000E+00 0. -1.
         -1   -1    0    0    0  501 -0.00000000000E+00 -0.00000000000E+00 -0.64454685797E+03  0.64454685797E+03  0.00000000000E+00 0.  1.
         24    2    1    2    0    0  0.18946764930E+03 -0.15773781348E+04  0.17262544400E+04  0.23473163718E+04  0.76941454489E+02 0.  0.
        254    2    1    2    0    0 -0.18946764930E+03  0.15773781348E+04  0.21715530291E+04  0.28395848132E+04  0.90751285554E+03 0.  0.
         23    2    4    4    0    0 -0.37326062800E+03  0.74442400787E+03  0.16070576011E+04  0.18122996128E+04  0.91132614233E+02 0.  0.
         23    2    4    4    0    0  0.18379297870E+03  0.83295412694E+03  0.56449542798E+03  0.10272852004E+04  0.95222676733E+02 0.  0.
          2    1    3    3  502    0  0.19203841032E+03 -0.15044847444E+04  0.16631163570E+04  0.22508463106E+04  0.00000000000E+00 0. -1.
         -1    1    3    3    0  502 -0.25707610169E+01 -0.72893390383E+02  0.63138082968E+02  0.96470061131E+02  0.00000000000E+00 0.  1.
         13    1    5    5    0    0 -0.36064009279E+03  0.65805600775E+03  0.14336000236E+04  0.16181186648E+04  0.00000000000E+00 0.  1.
        -13    1    5    5    0    0 -0.12620535212E+02  0.86368000115E+02  0.17345757753E+03  0.19418094797E+03  0.00000000000E+00 0. -1.
          4    1    6    6  503    0  0.16101482863E+03  0.69247849363E+03  0.42657090550E+03  0.82910492497E+03  0.00000000000E+00 0.  1.
         -4    1    6    6    0  503  0.22778150072E+02  0.14047563330E+03  0.13792452248E+03  0.19818027544E+03  0.00000000000E+00 0. -1.
<mgrwt>
<rscale>  0 0.34221398E+04</rscale>
<asrwt>0</asrwt>
<pdfrwt beam="1">  1        2 0.69882372E+00 0.34221398E+04</pdfrwt>
<pdfrwt beam="2">  1       -1 0.99161058E-01 0.34221398E+04</pdfrwt>
<totfact> 0.10147505E-01</totfact>
</mgrwt>
</event>
<event>
12    7  0.1730932E-007  0.2593277E+04  0.7818608E-02  0.8370488E-01
          2   -1    0    0  501    0  0.00000000000E+00  0.00000000000E+00  0.22954666090E+04  0.22954666090E+04  0.00000000000E+00 0. -1.
         -1   -1    0    0    0  501 -0.00000000000E+00 -0.00000000000E+00 -0.73243128146E+03  0.73243128146E+03  0.00000000000E+00 0.  1.
         24    2    1    2    0    0  0.22896691554E+03 -0.34998965427E+03 -0.54847169061E+03  0.69483822285E+03  0.84025912772E+02 0.  0.
        254    2    1    2    0    0 -0.22896691554E+03  0.34998965427E+03  0.21115070182E+04  0.23330596676E+04  0.89988161357E+03 0.  0.
         23    2    4    4    0    0 -0.47708831018E+03  0.27273764514E+03  0.69797509224E+03  0.89297871253E+03  0.90789167027E+02 0.  0.
         23    2    4    4    0    0  0.24812139464E+03  0.77252009128E+02  0.14135319259E+04  0.14400809551E+04  0.90711367891E+02 0.  0.
          4    1    3    3  502    0  0.14871738413E+03 -0.15215236472E+03 -0.25999384036E+03  0.33595237677E+03  0.00000000000E+00 0. -1.
         -3    1    3    3    0  502  0.80249531411E+02 -0.19783728954E+03 -0.28847785025E+03  0.35888584607E+03  0.00000000000E+00 0.  1.
         13    1    5    5    0    0 -0.24757091801E+03  0.13144858413E+03  0.28425932480E+03  0.39921604859E+03  0.00000000000E+00 0.  1.
        -13    1    5    5    0    0 -0.22951739216E+03  0.14128906100E+03  0.41371576745E+03  0.49376266394E+03  0.00000000000E+00 0. -1.
          1    1    6    6  503    0  0.22392864295E+03  0.96263077645E+02  0.12854823055E+04  0.13083865541E+04  0.00000000000E+00 0. -1.
         -1    1    6    6    0  503  0.24192751688E+02 -0.19011068517E+02  0.12804962043E+03  0.13169440100E+03  0.00000000000E+00 0.  1.
<mgrwt>
<rscale>  0 0.25932771E+04</rscale>
<asrwt>0</asrwt>
<pdfrwt beam="1">  1        2 0.35314870E+00 0.25932771E+04</pdfrwt>
<pdfrwt beam="2">  1       -1 0.11268174E+00 0.25932771E+04</pdfrwt>
<totfact> 0.33080287E+00</totfact>
</mgrwt>
</event>
<event>
12    7  0.1730932E-007  0.1263207E+04  0.7818608E-02  0.9059263E-01
         -1   -1    0    0    0  501 -0.00000000000E+00  0.00000000000E+00  0.14382390464E+03  0.14382390464E+03  0.00000000000E+00 0.  1.
          2   -1    0    0  501    0  0.00000000000E+00 -0.00000000000E+00 -0.27736882659E+04  0.27736882659E+04  0.00000000000E+00 0. -1.
         24    2    1    2    0    0 -0.73926958134E+02 -0.13060965483E+03 -0.13104606516E+04  0.13213691793E+04  0.78646751819E+02 0.  0.
        254    2    1    2    0    0  0.73926958134E+02  0.13060965483E+03 -0.13194037097E+04  0.15961429912E+04  0.88561968265E+03 0.  0.
         23    2    4    4    0    0  0.11182668106E+03 -0.12727202331E+03  0.51208117185E+02  0.19806089780E+03  0.88895857360E+02 0.  0.
         23    2    4    4    0    0 -0.37899722926E+02  0.25788167814E+03 -0.13706118269E+04  0.13980820935E+04  0.90096676669E+02 0.  0.
          4    1    3    3  502    0 -0.70604731796E+02 -0.14087624545E+03 -0.12562962168E+04  0.12661403275E+04  0.00000000000E+00 0. -1.
         -3    1    3    3    0  502 -0.33222263383E+01  0.10266590617E+02 -0.54164434859E+02  0.55228851829E+02  0.00000000000E+00 0.  1.
         13    1    5    5    0    0  0.49886626270E+02 -0.21677350935E+02 -0.18170620187E+02  0.57347663092E+02  0.00000000000E+00 0. -1.
        -13    1    5    5    0    0  0.61940054790E+02 -0.10559467237E+03  0.69378737372E+02  0.14071323470E+03  0.00000000000E+00 0.  1.
          1    1    6    6  503    0 -0.67610087165E+02  0.17345591727E+03 -0.94441458931E+03  0.96258869494E+03  0.00000000000E+00 0. -1.
         -1    1    6    6    0  503  0.29710364238E+02  0.84425760871E+02 -0.42619723756E+03  0.43549339851E+03  0.00000000000E+00 0.  1.
<mgrwt>
<rscale>  0 0.12632065E+04</rscale>
<asrwt>0</asrwt>
<pdfrwt beam="1">  1        2 0.42672123E+00 0.12632065E+04</pdfrwt>
<pdfrwt beam="2">  1       -1 0.22126757E-01 0.12632065E+04</pdfrwt>
<totfact> 0.46721229E+01</totfact>
</mgrwt>
</event>
<event>
12    7  0.1730932E-007  0.2055428E+04  0.7818608E-02  0.8581136E-01
          2   -1    0    0  501    0  0.00000000000E+00  0.00000000000E+00  0.11648872907E+04  0.11648872907E+04  0.00000000000E+00 0. -1.
         -1   -1    0    0    0  501 -0.00000000000E+00 -0.00000000000E+00 -0.90669379051E+03  0.90669379051E+03  0.00000000000E+00 0.  1.
         24    2    1    2    0    0  0.16263259063E+03  0.20385828150E+03  0.89544760309E+03  0.93594806291E+03  0.78516291951E+02 0.  0.
        254    2    1    2    0    0 -0.16263259063E+03 -0.20385828150E+03 -0.63725410292E+03  0.11356330183E+04  0.90308471478E+03 0.  0.
         23    2    4    4    0    0  0.77604391137E+02  0.16473010469E+03 -0.65441307203E+03  0.68604250151E+03  0.96121777548E+02 0.  0.
         23    2    4    4    0    0 -0.24023698177E+03 -0.36858838619E+03  0.17158969106E+02  0.44959051678E+03  0.90917527005E+02 0.  0.
          2    1    3    3  502    0  0.15791955323E+03  0.21007513030E+03  0.88278467379E+03  0.92107487532E+03  0.00000000000E+00 0. -1.
         -1    1    3    3    0  502  0.47130373974E+01 -0.62168487997E+01  0.12662929305E+02  0.14873187590E+02  0.00000000000E+00 0.  1.
         13    1    5    5    0    0  0.89456509544E+02  0.15763365107E+03 -0.64320287935E+03  0.66825203258E+03  0.00000000000E+00 0. -1.
        -13    1    5    5    0    0 -0.11852118407E+02  0.70964536135E+01 -0.11210192683E+02  0.17790468926E+02  0.00000000000E+00 0.  1.
          4    1    6    6  503    0 -0.23305096711E+03 -0.31110193773E+03  0.31254160283E+02  0.38996665430E+03  0.00000000000E+00 0. -1.
         -4    1    6    6    0  503 -0.71860146580E+01 -0.57486448456E+02 -0.14095191177E+02  0.59623862480E+02  0.00000000000E+00 0.  1.
<mgrwt>
<rscale>  0 0.20554280E+04</rscale>
<asrwt>0</asrwt>
<pdfrwt beam="1">  1        2 0.17921343E+00 0.20554280E+04</pdfrwt>
<pdfrwt beam="2">  1       -1 0.13949135E+00 0.20554280E+04</pdfrwt>
<totfact> 0.88746773E+00</totfact>
</mgrwt>
</event>
<event>
12    7  0.1730932E-007  0.1897117E+04  0.7818608E-02  0.8656293E-01
         -1   -1    0    0    0  501 -0.00000000000E+00  0.00000000000E+00  0.72182244686E+03  0.72182244686E+03  0.00000000000E+00 0.  1.
          2   -1    0    0  501    0  0.00000000000E+00 -0.00000000000E+00 -0.12465162533E+04  0.12465162533E+04  0.00000000000E+00 0. -1.
         24    2    1    2    0    0  0.23539025353E+03  0.50597862183E+03 -0.70268083041E+03  0.90093891877E+03  0.80669998872E+02 0.  0.
        254    2    1    2    0    0 -0.23539025353E+03 -0.50597862183E+03  0.17798702399E+03  0.10673997814E+04  0.89232279774E+03 0.  0.
         23    2    4    4    0    0  0.26604386684E+03 -0.15431942953E+03 -0.16396030240E+03  0.36008709961E+03  0.90476036213E+02 0.  0.
         23    2    4    4    0    0 -0.50143412037E+03 -0.35165919230E+03  0.34194732639E+03  0.70731268176E+03  0.90900446454E+02 0.  0.
          2    1    3    3  502    0  0.23489795371E+03  0.50673862959E+03 -0.70441768906E+03  0.89898018223E+03  0.00000000000E+00 0. -1.
         -1    1    3    3    0  502  0.49229981692E+00 -0.76000776298E+00  0.17368586417E+01  0.19587365445E+01  0.00000000000E+00 0.  1.
         13    1    5    5    0    0  0.50819869394E+02  0.15196126180E+00 -0.48328897919E+01  0.51049378461E+02  0.00000000000E+00 0.  1.
        -13    1    5    5    0    0  0.21522399744E+03 -0.15447139079E+03 -0.15912741261E+03  0.30903772115E+03  0.00000000000E+00 0. -1.
          1    1    6    6  503    0 -0.45359018607E+03 -0.34041599055E+03  0.33204909795E+03  0.65717859594E+03  0.00000000000E+00 0. -1.
         -1    1    6    6    0  503 -0.47843934300E+02 -0.11243201751E+02  0.98982284363E+01  0.50134085820E+02  0.00000000000E+00 0.  1.
<mgrwt>
<rscale>  0 0.18971172E+04</rscale>
<asrwt>0</asrwt>
<pdfrwt beam="1">  1        2 0.19177173E+00 0.18971172E+04</pdfrwt>
<pdfrwt beam="2">  1       -1 0.11104961E+00 0.18971172E+04</pdfrwt>
<totfact> 0.14164090E+01</totfact>
</mgrwt>
</event>
<event>
12    7  0.1730932E-007  0.1106571E+04  0.7818608E-02  0.9198811E-01
          2   -1    0    0  501    0  0.00000000000E+00  0.00000000000E+00  0.10563208186E+04  0.10563208186E+04  0.00000000000E+00 0. -1.
         -1   -1    0    0    0  501 -0.00000000000E+00 -0.00000000000E+00 -0.28980310560E+03  0.28980310560E+03  0.00000000000E+00 0.  1.
         24    2    1    2    0    0 -0.71016758961E+02 -0.86773064868E+02  0.29083564848E+03  0.32143017001E+03  0.78479519130E+02 0.  0.
        254    2    1    2    0    0  0.71016758961E+02  0.86773064868E+02  0.47568206457E+03  0.10246937542E+04  0.90063917225E+03 0.  0.
         23    2    4    4    0    0  0.14875862569E+03 -0.19420012797E+03  0.63064854791E+03  0.68229219033E+03  0.89231292649E+02 0.  0.
         23    2    4    4    0    0 -0.77741866734E+02  0.28097319284E+03 -0.15496648334E+03  0.34240156391E+03  0.90744074612E+02 0.  0.
          2    1    3    3  502    0 -0.64600179432E+02 -0.18008249564E+02  0.15996994086E+03  0.17345853169E+03  0.00000000000E+00 0. -1.
         -1    1    3    3    0  502 -0.64165795282E+01 -0.68764815304E+02  0.13086570762E+03  0.14797163832E+03  0.00000000000E+00 0.  1.
         13    1    5    5    0    0  0.95709693926E+01  0.56188973193E+01  0.78959192814E+01  0.13620609513E+02  0.00000000000E+00 0. -1.
        -13    1    5    5    0    0  0.13918765630E+03 -0.19981902529E+03  0.62275262862E+03  0.66867158082E+03  0.00000000000E+00 0.  1.
          4    1    6    6  503    0 -0.18060744592E+02  0.18302658163E+02 -0.44232557901E+02  0.51163433910E+02  0.00000000000E+00 0. -1.
         -4    1    6    6    0  503 -0.59681122142E+02  0.26267053467E+03 -0.11073392544E+03  0.29123813000E+03  0.00000000000E+00 0.  1.
<mgrwt>
<rscale>  0 0.11065714E+04</rscale>
<asrwt>0</asrwt>
<pdfrwt beam="1">  1        2 0.16251089E+00 0.11065714E+04</pdfrwt>
<pdfrwt beam="2">  1       -1 0.44585094E-01 0.11065714E+04</pdfrwt>
<totfact> 0.13072621E+02</totfact>
</mgrwt>
</event>
<event>
12    7  0.1730932E-007  0.2502110E+04  0.7818608E-02  0.8402234E-01
         -3   -1    0    0    0  501 -0.00000000000E+00  0.00000000000E+00  0.11894558484E+04  0.11894558484E+04  0.00000000000E+00 0.  1.
          4   -1    0    0  501    0  0.00000000000E+00 -0.00000000000E+00 -0.13158445944E+04  0.13158445944E+04  0.00000000000E+00 0. -1.
         24    2    1    2    0    0  0.47475689011E+03  0.97443164048E+03  0.39727222970E+01  0.10870467997E+04  0.82120858918E+02 0.  0.
        254    2    1    2    0    0 -0.47475689011E+03 -0.97443164048E+03 -0.13036146831E+03  0.14182536431E+04  0.90528346780E+03 0.  0.
         23    2    4    4    0    0 -0.49923011221E+03 -0.47256929452E+03 -0.43798643716E+03  0.82041768058E+03  0.93277051953E+02 0.  0.
         23    2    4    4    0    0  0.24473222103E+02 -0.50186234596E+03  0.30762496884E+03  0.59783596252E+03  0.10153799154E+03 0.  0.
          2    1    3    3  502    0  0.13506957064E+03  0.26754239489E+03  0.37612853583E+02  0.30205537362E+03  0.00000000000E+00 0. -1.
         -1    1    3    3    0  502  0.33968731947E+03  0.70688924559E+03 -0.33640131286E+02  0.78499142605E+03  0.00000000000E+00 0.  1.
         13    1    5    5    0    0 -0.46678803218E+03 -0.40488357672E+03 -0.40203243263E+03  0.73719187093E+03  0.00000000000E+00 0.  1.
        -13    1    5    5    0    0 -0.32442080031E+02 -0.67685717795E+02 -0.35954004530E+02  0.83225809650E+02  0.00000000000E+00 0. -1.
          3    1    6    6  503    0 -0.30316450827E+01 -0.23370942502E+03  0.19987899276E+03  0.30754007537E+03  0.00000000000E+00 0. -1.
         -3    1    6    6    0  503  0.27504867186E+02 -0.26815292095E+03  0.10774597609E+03  0.29029588715E+03  0.00000000000E+00 0.  1.
<mgrwt>
<rscale>  0 0.25021103E+04</rscale>
<asrwt>0</asrwt>
<pdfrwt beam="1">  1        4 0.20243763E+00 0.25021103E+04</pdfrwt>
<pdfrwt beam="2">  1       -3 0.18299321E+00 0.25021103E+04</pdfrwt>
<totfact> 0.48598316E-02</totfact>
</mgrwt>
</event>
<event>
12    7  0.1730932E-007  0.1479972E+04  0.7818608E-02  0.8897882E-01
         -1   -1    0    0    0  501 -0.00000000000E+00  0.00000000000E+00  0.23060975371E+03  0.23060975371E+03  0.00000000000E+00 0.  1.
          2   -1    0    0  501    0  0.00000000000E+00 -0.00000000000E+00 -0.23744845688E+04  0.23744845688E+04  0.00000000000E+00 0. -1.
         24    2    1    2    0    0  0.47578399215E+02  0.30361742564E+03 -0.73870815560E+02  0.32599387044E+03  0.79798878100E+02 0.  0.
        254    2    1    2    0    0 -0.47578399215E+02 -0.30361742564E+03 -0.20700039995E+04  0.22791004521E+04  0.90273754066E+03 0.  0.
         23    2    4    4    0    0  0.95071177033E+02  0.19733518031E+03 -0.14282994097E+04  0.14479094358E+04  0.91775967289E+02 0.  0.
         23    2    4    4    0    0 -0.14264957625E+03 -0.50095260595E+03 -0.64170458978E+03  0.83119101631E+03  0.88268397694E+02 0.  0.
          4    1    3    3  502    0  0.29382733204E+02  0.97400100721E+02 -0.60897839111E+02  0.11856926853E+03  0.00000000000E+00 0. -1.
         -3    1    3    3    0  502  0.18195666011E+02  0.20621732492E+03 -0.12972976449E+02  0.20742460191E+03  0.00000000000E+00 0.  1.
         13    1    5    5    0    0  0.10789155591E+03  0.15261857799E+03 -0.12367060157E+04  0.12507496901E+04  0.00000000000E+00 0. -1.
        -13    1    5    5    0    0 -0.12820378879E+02  0.44716602320E+02 -0.19159339408E+03  0.19715974562E+03  0.00000000000E+00 0.  1.
          3    1    6    6  503    0 -0.11561808359E+02 -0.33640647916E+01 -0.63896497885E+01  0.13631579838E+02  0.00000000000E+00 0. -1.
         -3    1    6    6    0  503 -0.13108776789E+03 -0.49758854116E+03 -0.63531493999E+03  0.81755943647E+03  0.00000000000E+00 0.  1.
<mgrwt>
<rscale>  0 0.14799720E+04</rscale>
<asrwt>0</asrwt>
<pdfrwt beam="1">  1        2 0.36530532E+00 0.14799720E+04</pdfrwt>
<pdfrwt beam="2">  1       -1 0.35478424E-01 0.14799720E+04</pdfrwt>
<totfact> 0.34385701E+01</totfact>
</mgrwt>
</event>
<event>
12    7  0.1730932E-007  0.1648679E+04  0.7818608E-02  0.8791189E-01
         -1   -1    0    0    0  501 -0.00000000000E+00  0.00000000000E+00  0.51771618654E+03  0.51771618654E+03  0.00000000000E+00 0.  1.
          2   -1    0    0  501    0  0.00000000000E+00 -0.00000000000E+00 -0.13125632691E+04  0.13125632691E+04  0.00000000000E+00 0. -1.
         24    2    1    2    0    0  0.56057467068E+03 -0.58313794491E+02 -0.40246317500E+03  0.69703454216E+03  0.78968890677E+02 0.  0.
        254    2    1    2    0    0 -0.56057467068E+03  0.58313794491E+02 -0.39238390752E+03  0.11332449134E+04  0.90146239130E+03 0.  0.
         23    2    4    4    0    0 -0.54686002719E+03 -0.21415888787E+03  0.60630756469E+02  0.59729729875E+03  0.90377297331E+02 0.  0.
         23    2    4    4    0    0 -0.13714643491E+02  0.27247268236E+03 -0.45301466399E+03  0.53594761469E+03  0.87109734421E+02 0.  0.
          4    1    3    3  502    0  0.39380801015E+03 -0.63055678883E+02 -0.31773747119E+03  0.50991947217E+03  0.00000000000E+00 0. -1.
         -3    1    3    3    0  502  0.16676666053E+03  0.47418843922E+01 -0.84725703817E+02  0.18711506999E+03  0.00000000000E+00 0.  1.
         13    1    5    5    0    0 -0.13122285171E+02  0.18639319654E+01 -0.10786474228E+02  0.17088494280E+02  0.00000000000E+00 0.  1.
        -13    1    5    5    0    0 -0.53373774202E+03 -0.21602281983E+03  0.71417230697E+02  0.58020880447E+03  0.00000000000E+00 0. -1.
          3    1    6    6  503    0 -0.18604906535E+02  0.21114485219E+03 -0.27246312256E+03  0.34520203404E+03  0.00000000000E+00 0. -1.
         -3    1    6    6    0  503  0.48902630433E+01  0.61327830170E+02 -0.18055154142E+03  0.19074558065E+03  0.00000000000E+00 0.  1.
<mgrwt>
<rscale>  0 0.16486786E+04</rscale>
<asrwt>0</asrwt>
<pdfrwt beam="1">  1        2 0.20193281E+00 0.16486786E+04</pdfrwt>
<pdfrwt beam="2">  1       -1 0.79648645E-01 0.16486786E+04</pdfrwt>
<totfact> 0.27876217E+01</totfact>
</mgrwt>
</event>
<event>
12    7  0.1730932E-007  0.1353828E+04  0.7818608E-02  0.8987935E-01
         -1   -1    0    0    0  501 -0.00000000000E+00  0.00000000000E+00  0.26929043525E+03  0.26929043525E+03  0.00000000000E+00 0.  1.
          2   -1    0    0  501    0  0.00000000000E+00 -0.00000000000E+00 -0.17015564197E+04  0.17015564197E+04  0.00000000000E+00 0. -1.
         24    2    1    2    0    0  0.33040505929E+03 -0.32355501923E+02 -0.29870389183E+03  0.45331560927E+03  0.77824449232E+02 0.  0.
        254    2    1    2    0    0 -0.33040505929E+03  0.32355501923E+02 -0.11335620926E+04  0.15175312456E+04  0.95274533956E+03 0.  0.
         23    2    4    4    0    0  0.27436506970E+03 -0.20062704465E+03 -0.36255322529E+03  0.50656382331E+03  0.98156321256E+02 0.  0.
         23    2    4    4    0    0 -0.60477012900E+03  0.23298254657E+03 -0.77100886729E+03  0.10109674223E+04  0.87021144750E+02 0.  0.
          4    1    3    3  502    0  0.57012854926E+02 -0.29812355733E+02 -0.34010060967E+02  0.72773116109E+02  0.00000000000E+00 0. -1.
         -3    1    3    3    0  502  0.27339220437E+03 -0.25431461900E+01 -0.26469383086E+03  0.38054249316E+03  0.00000000000E+00 0.  1.
         13    1    5    5    0    0  0.24642831587E+03 -0.18685357610E+03 -0.36103206413E+03  0.47537913826E+03  0.00000000000E+00 0. -1.
        -13    1    5    5    0    0  0.27936753830E+02 -0.13773468545E+02 -0.15211611612E+01  0.31184685048E+02  0.00000000000E+00 0.  1.
          1    1    6    6  503    0 -0.25318891673E+03  0.10770766332E+03 -0.26329911232E+03  0.38083065901E+03  0.00000000000E+00 0. -1.
         -1    1    6    6    0  503 -0.35158121226E+03  0.12527488325E+03 -0.50770975497E+03  0.63013676331E+03  0.00000000000E+00 0.  1.
<mgrwt>
<rscale>  0 0.13538285E+04</rscale>
<asrwt>0</asrwt>
<pdfrwt beam="1">  1        2 0.26177791E+00 0.13538285E+04</pdfrwt>
<pdfrwt beam="2">  1       -1 0.41429298E-01 0.13538285E+04</pdfrwt>
<totfact> 0.62171138E+01</totfact>
</mgrwt>
</event>
<event>
12    7  0.1730932E-007  0.3534127E+04  0.7818608E-02  0.8105750E-01
         -1   -1    0    0    0  501 -0.00000000000E+00  0.00000000000E+00  0.27821119839E+04  0.27821119839E+04  0.00000000000E+00 0.  1.
          2   -1    0    0  501    0  0.00000000000E+00 -0.00000000000E+00 -0.11223535993E+04  0.11223535993E+04  0.00000000000E+00 0. -1.
         24    2    1    2    0    0  0.53876368874E+03  0.19958592175E+03 -0.93533984174E+03  0.11006392486E+04  0.80282523845E+02 0.  0.
        254    2    1    2    0    0 -0.53876368874E+03 -0.19958592175E+03  0.25950982263E+04  0.28038263346E+04  0.89264016143E+03 0.  0.
         23    2    4    4    0    0 -0.13557795971E+02 -0.45691125636E+03  0.10326404715E+04  0.11329109976E+04  0.90494614454E+02 0.  0.
         23    2    4    4    0    0 -0.52520589277E+03  0.25732533461E+03  0.15624577548E+04  0.16709153369E+04  0.92877714829E+02 0.  0.
          4    1    3    3  502    0  0.40906146009E+03  0.18361265585E+03 -0.75118309285E+03  0.87482622532E+03  0.00000000000E+00 0. -1.
         -3    1    3    3    0  502  0.12970222865E+03  0.15973265898E+02 -0.18415674889E+03  0.22581302332E+03  0.00000000000E+00 0.  1.
         13    1    5    5    0    0  0.34732229792E+02 -0.24270556578E+03  0.58558076497E+03  0.63483631887E+03  0.00000000000E+00 0. -1.
        -13    1    5    5    0    0 -0.48290025764E+02 -0.21420569058E+03  0.44705970648E+03  0.49807467876E+03  0.00000000000E+00 0.  1.
          3    1    6    6  503    0 -0.13386890791E+03  0.26201620826E+02  0.31611863832E+03  0.34429406462E+03  0.00000000000E+00 0. -1.
         -3    1    6    6    0  503 -0.39133698486E+03  0.23112371378E+03  0.12463391165E+04  0.13266212723E+04  0.00000000000E+00 0.  1.
<mgrwt>
<rscale>  0 0.35341270E+04</rscale>
<asrwt>0</asrwt>
<pdfrwt beam="1">  1        2 0.17266979E+00 0.35341270E+04</pdfrwt>
<pdfrwt beam="2">  1       -1 0.42801723E+00 0.35341270E+04</pdfrwt>
<totfact> 0.90370565E-02</totfact>
</mgrwt>
</event>
<event>
12    7  0.1730932E-007  0.2322228E+04  0.7818608E-02  0.8469208E-01
          2   -1    0    0  501    0  0.00000000000E+00  0.00000000000E+00  0.16250404741E+04  0.16250404741E+04  0.00000000000E+00 0. -1.
         -1   -1    0    0    0  501 -0.00000000000E+00 -0.00000000000E+00 -0.82963213904E+03  0.82963213904E+03  0.00000000000E+00 0.  1.
         24    2    1    2    0    0  0.18238742340E+03  0.40331354939E+03 -0.59068318484E+03  0.74275140187E+03  0.82740732345E+02 0.  0.
        254    2    1    2    0    0 -0.18238742340E+03 -0.40331354939E+03  0.13860915199E+04  0.17119212113E+04  0.90194098519E+03 0.  0.
         23    2    4    4    0    0  0.55127484917E+02 -0.26591363115E+03 -0.93601227021E+01  0.28680215654E+03  0.91753835227E+02 0.  0.
         23    2    4    4    0    0 -0.23751490832E+03 -0.13739991824E+03  0.13954516426E+04  0.14251190547E+04  0.91580369742E+02 0.  0.
          4    1    3    3  502    0  0.64064370912E+01  0.75227464344E+02 -0.72367386098E+02  0.10458131955E+03  0.00000000000E+00 0. -1.
         -3    1    3    3    0  502  0.17598098631E+03  0.32808608504E+03 -0.51831579874E+03  0.63817008232E+03  0.00000000000E+00 0.  1.
         13    1    5    5    0    0  0.50209442269E+02 -0.24772660015E+03 -0.34797373589E+02  0.25514763124E+03  0.00000000000E+00 0. -1.
        -13    1    5    5    0    0  0.49180426472E+01 -0.18187030991E+02  0.25437250887E+02  0.31654525307E+02  0.00000000000E+00 0.  1.
          3    1    6    6  503    0 -0.14177070428E+03 -0.32263467151E+02  0.62874541383E+03  0.64533763203E+03  0.00000000000E+00 0. -1.
         -3    1    6    6    0  503 -0.95744204039E+02 -0.10513645109E+03  0.76670622879E+03  0.77978142272E+03  0.00000000000E+00 0.  1.
<mgrwt>
<rscale>  0 0.23222281E+04</rscale>
<asrwt>0</asrwt>
<pdfrwt beam="1">  1        2 0.25000623E+00 0.23222281E+04</pdfrwt>
<pdfrwt beam="2">  1       -1 0.12763571E+00 0.23222281E+04</pdfrwt>
<totfact> 0.59110485E+00</totfact>
</mgrwt>
</event>
<event>
12    7  0.1730932E-007  0.1664709E+04  0.7818608E-02  0.8781752E-01
          2   -1    0    0  501    0  0.00000000000E+00  0.00000000000E+00  0.11979103207E+04  0.11979103207E+04  0.00000000000E+00 0. -1.
         -1   -1    0    0    0  501 -0.00000000000E+00 -0.00000000000E+00 -0.57835217570E+03  0.57835217570E+03  0.00000000000E+00 0.  1.
         24    2    1    2    0    0  0.68288656040E+02  0.21620918703E+03 -0.35430813407E+03  0.42904532366E+03  0.84474154592E+02 0.  0.
        254    2    1    2    0    0 -0.68288656040E+02 -0.21620918703E+03  0.97386627909E+03  0.13472171728E+04  0.90286700457E+03 0.  0.
         23    2    4    4    0    0  0.35246261700E+03  0.16666549991E+02  0.69437136647E+03  0.78394283845E+03  0.88921927031E+02 0.  0.
         23    2    4    4    0    0 -0.42075127304E+03 -0.23287573702E+03  0.27949491262E+03  0.56327433432E+03  0.88869718456E+02 0.  0.
          2    1    3    3  502    0  0.13742975473E+02  0.20131319840E+02 -0.10205697893E+03  0.10492743379E+03  0.00000000000E+00 0. -1.
         -1    1    3    3    0  502  0.54545680566E+02  0.19607786719E+03 -0.25225115514E+03  0.32411788987E+03  0.00000000000E+00 0.  1.
         13    1    5    5    0    0  0.23910474677E+02  0.25555768053E+02  0.59134029049E+02  0.68714201383E+02  0.00000000000E+00 0. -1.
        -13    1    5    5    0    0  0.32855214233E+03 -0.88892180623E+01  0.63523733742E+03  0.71522863706E+03  0.00000000000E+00 0.  1.
          3    1    6    6  503    0 -0.19382309982E+03 -0.14622228823E+03  0.17256284709E+03  0.29786958185E+03  0.00000000000E+00 0. -1.
         -3    1    6    6    0  503 -0.22692817322E+03 -0.86653448783E+02  0.10693206553E+03  0.26540475246E+03  0.00000000000E+00 0.  1.
<mgrwt>
<rscale>  0 0.16647090E+04</rscale>
<asrwt>0</asrwt>
<pdfrwt beam="1">  1        2 0.18429389E+00 0.16647090E+04</pdfrwt>
<pdfrwt beam="2">  1       -1 0.88977258E-01 0.16647090E+04</pdfrwt>
<totfact> 0.25605860E+01</totfact>
</mgrwt>
</event>
<event>
12    7  0.1730932E-007  0.2037300E+04  0.7818608E-02  0.8589377E-01
         -1   -1    0    0    0  501 -0.00000000000E+00  0.00000000000E+00  0.40504934829E+03  0.40504934829E+03  0.00000000000E+00 0.  1.
          2   -1    0    0  501    0  0.00000000000E+00 -0.00000000000E+00 -0.25617821127E+04  0.25617821127E+04  0.00000000000E+00 0. -1.
         24    2    1    2    0    0  0.57450400582E+03 -0.49149363834E+03 -0.13286634114E+04  0.15308416863E+04  0.80678117670E+02 0.  0.
        254    2    1    2    0    0 -0.57450400582E+03  0.49149363834E+03 -0.82806935302E+03  0.14359897746E+04  0.89707688089E+03 0.  0.
         23    2    4    4    0    0 -0.10101372173E+03  0.25648500326E+03 -0.85087163955E+03  0.89894443384E+03  0.90167728550E+02 0.  0.
         23    2    4    4    0    0 -0.47349028408E+03  0.23500863508E+03  0.22802286525E+02  0.53704534080E+03  0.92063272375E+02 0.  0.
          4    1    3    3  502    0  0.48912879134E+03 -0.43489013893E+03 -0.10947406864E+04  0.12754738641E+04  0.00000000000E+00 0. -1.
         -3    1    3    3    0  502  0.85375214475E+02 -0.56603499410E+02 -0.23392272494E+03  0.25536782224E+03  0.00000000000E+00 0.  1.
         13    1    5    5    0    0 -0.58655545089E+01  0.13557455600E+03 -0.42442327346E+03  0.44558947476E+03  0.00000000000E+00 0.  1.
        -13    1    5    5    0    0 -0.95148167224E+02  0.12091044726E+03 -0.42644836609E+03  0.45335495908E+03  0.00000000000E+00 0. -1.
          4    1    6    6  503    0 -0.12411959011E+03  0.96359739002E+02  0.34946173334E+02  0.16097237956E+03  0.00000000000E+00 0. -1.
         -4    1    6    6    0  503 -0.34937069397E+03  0.13864889607E+03 -0.12143886808E+02  0.37607296124E+03  0.00000000000E+00 0.  1.
<mgrwt>
<rscale>  0 0.20373003E+04</rscale>
<asrwt>0</asrwt>
<pdfrwt beam="1">  1        2 0.39412034E+00 0.20373003E+04</pdfrwt>
<pdfrwt beam="2">  1       -1 0.62315282E-01 0.20373003E+04</pdfrwt>
<totfact> 0.88295744E+00</totfact>
</mgrwt>
</event>
<event>
12    7  0.1730932E-007  0.2057861E+04  0.7818608E-02  0.8580037E-01
          2   -1    0    0  501    0  0.00000000000E+00  0.00000000000E+00  0.20644318806E+04  0.20644318806E+04  0.00000000000E+00 0. -1.
         -1   -1    0    0    0  501 -0.00000000000E+00 -0.00000000000E+00 -0.51282774007E+03  0.51282774007E+03  0.00000000000E+00 0.  1.
         24    2    1    2    0    0 -0.41642103552E+03 -0.42592880373E+03 -0.92336311838E+02  0.60832139618E+03  0.81896897935E+02 0.  0.
        254    2    1    2    0    0  0.41642103552E+03  0.42592880373E+03  0.16439404524E+04  0.19689382245E+04  0.90518268669E+03 0.  0.
         23    2    4    4    0    0 -0.22461309370E+03  0.14785634748E+03  0.15952191479E+03  0.32561305525E+03  0.90906980476E+02 0.  0.
         23    2    4    4    0    0  0.64103412922E+03  0.27807245626E+03  0.14844185376E+04  0.16433251693E+04  0.93649193413E+02 0.  0.
          4    1    3    3  502    0 -0.45991878913E+02 -0.90458908052E+02 -0.13108589643E+02  0.10232253952E+03  0.00000000000E+00 0. -1.
         -3    1    3    3    0  502 -0.37042915661E+03 -0.33546989568E+03 -0.79227722195E+02  0.50599885666E+03  0.00000000000E+00 0.  1.
         13    1    5    5    0    0 -0.19954541030E+03  0.15839617678E+03  0.13204862536E+03  0.28695741679E+03  0.00000000000E+00 0. -1.
        -13    1    5    5    0    0 -0.25067683398E+02 -0.10539829303E+02  0.27473289426E+02  0.38655638458E+02  0.00000000000E+00 0.  1.
          2    1    6    6  503    0  0.60990509420E+03  0.26986983583E+03  0.13589063921E+04  0.15137504862E+04  0.00000000000E+00 0. -1.
         -2    1    6    6    0  503  0.31129035023E+02  0.82026204291E+01  0.12551214553E+03  0.12957468302E+03  0.00000000000E+00 0.  1.
<mgrwt>
<rscale>  0 0.20578610E+04</rscale>
<asrwt>0</asrwt>
<pdfrwt beam="1">  1        2 0.31760490E+00 0.20578610E+04</pdfrwt>
<pdfrwt beam="2">  1       -1 0.78896577E-01 0.20578610E+04</pdfrwt>
<totfact> 0.10403231E+01</totfact>
</mgrwt>
</event>
<event>
12    7  0.1876810E-007  0.1497517E+04  0.7818608E-02  0.8886106E-01
         -1   -1    0    0    0  501 -0.00000000000E+00  0.00000000000E+00  0.27736074531E+03  0.27736074531E+03  0.00000000000E+00 0.  1.
          2   -1    0    0  501    0  0.00000000000E+00 -0.00000000000E+00 -0.20213364053E+04  0.20213364053E+04  0.00000000000E+00 0. -1.
         24    2    1    2    0    0  0.32982424107E+03 -0.30081897775E+03 -0.29913150688E+03  0.54329902956E+03  0.80112981077E+02 0.  0.
        254    2    1    2    0    0 -0.32982424107E+03  0.30081897775E+03 -0.14448441531E+04  0.17553981210E+04  0.89138759763E+03 0.  0.
         23    2    4    4    0    0 -0.62373685456E+03  0.12663467419E+03 -0.94818988434E+03  0.11456229933E+04  0.91126184613E+02 0.  0.
         23    2    4    4    0    0  0.29391261349E+03  0.17418430357E+03 -0.49665426877E+03  0.60977512777E+03  0.91844693788E+02 0.  0.
          2    1    3    3  502    0  0.13028199061E+02 -0.30979806704E+02 -0.43287525406E+02  0.54802301502E+02  0.00000000000E+00 0. -1.
         -1    1    3    3    0  502  0.31679604201E+03 -0.26983917105E+03 -0.25584398147E+03  0.48849672806E+03  0.00000000000E+00 0.  1.
         13    1    5    5    0    0 -0.60036486041E+03  0.13034590148E+03 -0.93428472161E+03  0.11181752817E+04  0.00000000000E+00 0.  1.
        -13    1    5    5    0    0 -0.23371994144E+02 -0.37112272949E+01 -0.13905162730E+02  0.27447711541E+02  0.00000000000E+00 0. -1.
          4    1    6    6  503    0  0.24576064947E+02  0.45119520165E+02 -0.44974102110E+02  0.68281944384E+02  0.00000000000E+00 0. -1.
         -4    1    6    6    0  503  0.26933654854E+03  0.12906478340E+03 -0.45168016666E+03  0.54149318338E+03  0.00000000000E+00 0.  1.
<mgrwt>
<rscale>  0 0.14975171E+04</rscale>
<asrwt>0</asrwt>
<pdfrwt beam="1">  1        2 0.31097484E+00 0.14975171E+04</pdfrwt>
<pdfrwt beam="2">  1       -1 0.42670883E-01 0.14975171E+04</pdfrwt>
<totfact> 0.38708167E+01</totfact>
</mgrwt>
</event>
<event>
12    7  0.1730932E-007  0.2233418E+04  0.7818608E-02  0.8504646E-01
          2   -1    0    0  501    0  0.00000000000E+00  0.00000000000E+00  0.31372806569E+04  0.31372806569E+04  0.00000000000E+00 0. -1.
         -1   -1    0    0    0  501 -0.00000000000E+00 -0.00000000000E+00 -0.39749050550E+03  0.39749050550E+03  0.00000000000E+00 0.  1.
         24    2    1    2    0    0  0.85288790169E+03  0.34788238111E+02  0.55411985364E+03  0.10208932574E+04  0.80908815098E+02 0.  0.
        254    2    1    2    0    0 -0.85288790169E+03 -0.34788238111E+02  0.21856702978E+04  0.25138779051E+04  0.90210835082E+03 0.  0.
         23    2    4    4    0    0 -0.57765908968E+03 -0.44020319473E+03  0.14677954236E+04  0.16402003212E+04  0.91459344062E+02 0.  0.
         23    2    4    4    0    0 -0.27522881201E+03  0.40541495662E+03  0.71787487424E+03  0.87367758391E+03  0.88634076655E+02 0.  0.
          2    1    3    3  502    0  0.17139071772E+03 -0.24663439768E-01  0.15040674847E+03  0.22802843839E+03  0.00000000000E+00 0. -1.
         -1    1    3    3    0  502  0.68149718397E+03  0.34812901551E+02  0.40371310517E+03  0.79286481897E+03  0.00000000000E+00 0.  1.
         13    1    5    5    0    0 -0.18570700572E+03 -0.10877530534E+03  0.36338595440E+03  0.42233696366E+03  0.00000000000E+00 0. -1.
        -13    1    5    5    0    0 -0.39195208396E+03 -0.33142788940E+03  0.11044094692E+04  0.12178633575E+04  0.00000000000E+00 0.  1.
          1    1    6    6  503    0 -0.77499257809E+02  0.18502485044E+03  0.25962386635E+03  0.32809279513E+03  0.00000000000E+00 0. -1.
         -1    1    6    6    0  503 -0.19772955420E+03  0.22039010618E+03  0.45825100789E+03  0.54558478878E+03  0.00000000000E+00 0.  1.
<mgrwt>
<rscale>  0 0.22334183E+04</rscale>
<asrwt>0</asrwt>
<pdfrwt beam="1">  1        2 0.48265855E+00 0.22334183E+04</pdfrwt>
<pdfrwt beam="2">  1       -1 0.61152387E-01 0.22334183E+04</pdfrwt>
<totfact> 0.40120061E+00</totfact>
</mgrwt>
</event>
<event>
12    7  0.1730932E-007  0.2184575E+04  0.7818608E-02  0.8524876E-01
         -1   -1    0    0    0  501 -0.00000000000E+00  0.00000000000E+00  0.54582881249E+03  0.54582881249E+03  0.00000000000E+00 0.  1.
          2   -1    0    0  501    0  0.00000000000E+00 -0.00000000000E+00 -0.21858353869E+04  0.21858353869E+04  0.00000000000E+00 0. -1.
         24    2    1    2    0    0  0.59835863746E+03  0.37044126316E+03 -0.12330388294E+04  0.14219024083E+04  0.78497867540E+02 0.  0.
        254    2    1    2    0    0 -0.59835863746E+03 -0.37044126316E+03 -0.40696774500E+03  0.13097617912E+04  0.10269339880E+04 0.  0.
         23    2    4    4    0    0 -0.23971082325E+03  0.29776812334E+03 -0.37826540714E+03  0.54546592798E+03  0.91220755818E+02 0.  0.
         23    2    4    4    0    0 -0.35864781421E+03 -0.66820938650E+03 -0.28702337853E+02  0.76429586319E+03  0.90511344304E+02 0.  0.
          4    1    3    3  502    0  0.59512639521E+03  0.35694604580E+03 -0.12029393475E+04  0.13887580710E+04  0.00000000000E+00 0. -1.
         -3    1    3    3    0  502  0.32322422514E+01  0.13495217357E+02 -0.30099481947E+02  0.33144337298E+02  0.00000000000E+00 0.  1.
         13    1    5    5    0    0 -0.16583604393E+03  0.17421002551E+03 -0.17985026286E+03  0.30032789332E+03  0.00000000000E+00 0.  1.
        -13    1    5    5    0    0 -0.73874779313E+02  0.12355809782E+03 -0.19841514428E+03  0.24513803466E+03  0.00000000000E+00 0. -1.
          1    1    6    6  503    0 -0.34921762005E+03 -0.59530957510E+03 -0.29010731121E+02  0.69078799851E+03  0.00000000000E+00 0. -1.
         -1    1    6    6    0  503 -0.94301941563E+01 -0.72899811394E+02  0.30839326827E+00  0.73507864678E+02  0.00000000000E+00 0.  1.
<mgrwt>
<rscale>  0 0.21845750E+04</rscale>
<asrwt>0</asrwt>
<pdfrwt beam="1">  1        2 0.33628237E+00 0.21845750E+04</pdfrwt>
<pdfrwt beam="2">  1       -1 0.83973663E-01 0.21845750E+04</pdfrwt>
<totfact> 0.76997427E+00</totfact>
</mgrwt>
</event>
<event>
12    7  0.1730932E-007  0.2566093E+04  0.7818608E-02  0.8379811E-01
          2   -1    0    0  501    0  0.00000000000E+00  0.00000000000E+00  0.40076754457E+04  0.40076754457E+04  0.00000000000E+00 0. -1.
         -1   -1    0    0    0  501 -0.00000000000E+00 -0.00000000000E+00 -0.41076389087E+03  0.41076389087E+03  0.00000000000E+00 0.  1.
         24    2    1    2    0    0 -0.80856416474E+03 -0.35401979711E+03  0.38255011033E+03  0.96537638053E+03  0.80628431312E+02 0.  0.
        254    2    1    2    0    0  0.80856416474E+03  0.35401979711E+03  0.32143614445E+04  0.34530629560E+04  0.90134247498E+03 0.  0.
         23    2    4    4    0    0  0.62246254537E+03  0.42584995341E+03  0.11569217414E+04  0.13839307232E+04  0.89378562801E+02 0.  0.
         23    2    4    4    0    0  0.18610161937E+03 -0.71830156302E+02  0.20574397030E+04  0.20691322329E+04  0.91960215908E+02 0.  0.
          4    1    3    3  502    0 -0.68861172035E+03 -0.30903201245E+03  0.29586202452E+03  0.81069181794E+03  0.00000000000E+00 0. -1.
         -3    1    3    3    0  502 -0.11995244438E+03 -0.44987784657E+02  0.86688085811E+02  0.15468456259E+03  0.00000000000E+00 0.  1.
         13    1    5    5    0    0  0.30420517942E+03  0.15576179584E+03  0.50176675322E+03  0.60710164129E+03  0.00000000000E+00 0. -1.
        -13    1    5    5    0    0  0.31825736595E+03  0.27008815757E+03  0.65515498823E+03  0.77682908187E+03  0.00000000000E+00 0.  1.
          3    1    6    6  503    0  0.21466803504E+02  0.13154095251E+02  0.51329282369E+03  0.51390989164E+03  0.00000000000E+00 0. -1.
         -3    1    6    6    0  503  0.16463481587E+03 -0.84984251552E+02  0.15441468793E+04  0.15552223412E+04  0.00000000000E+00 0.  1.
<mgrwt>
<rscale>  0 0.25660930E+04</rscale>
<asrwt>0</asrwt>
<pdfrwt beam="1">  1        2 0.61656542E+00 0.25660930E+04</pdfrwt>
<pdfrwt beam="2">  1       -1 0.63194448E-01 0.25660930E+04</pdfrwt>
<totfact> 0.86636118E-01</totfact>
</mgrwt>
</event>
<event>
12    7  0.1730932E-007  0.1287630E+04  0.7818608E-02  0.9039433E-01
          2   -1    0    0  501    0  0.00000000000E+00  0.00000000000E+00  0.88225032592E+03  0.88225032592E+03  0.00000000000E+00 0. -1.
         -1   -1    0    0    0  501 -0.00000000000E+00 -0.00000000000E+00 -0.46981839667E+03  0.46981839667E+03  0.00000000000E+00 0.  1.
         24    2    1    2    0    0 -0.25772003076E+03  0.83705395753E+02  0.30695109754E+03  0.41672866315E+03  0.77573158183E+02 0.  0.
        254    2    1    2    0    0  0.25772003076E+03 -0.83705395753E+02  0.10548083171E+03  0.93534005944E+03  0.88899303338E+03 0.  0.
         23    2    4    4    0    0  0.63749371556E+02  0.35582200087E+03  0.22020929585E+03  0.43277670687E+03  0.90167984104E+02 0.  0.
         23    2    4    4    0    0  0.19397065920E+03 -0.43952739662E+03 -0.11472846414E+03  0.50256335256E+03  0.92727309046E+02 0.  0.
          2    1    3    3  502    0 -0.22665250014E+03  0.78375934644E+02  0.22468230981E+03  0.32862787967E+03  0.00000000000E+00 0. -1.
         -1    1    3    3    0  502 -0.31067530615E+02  0.53294611091E+01  0.82268787734E+02  0.88100783479E+02  0.00000000000E+00 0.  1.
         13    1    5    5    0    0  0.42432361313E+02  0.71445694607E+02  0.23554115966E+02  0.86370069720E+02  0.00000000000E+00 0.  1.
        -13    1    5    5    0    0  0.21317010243E+02  0.28437630626E+03  0.19665517988E+03  0.34640663715E+03  0.00000000000E+00 0. -1.
          3    1    6    6  503    0  0.18761176517E+03 -0.33087067548E+03 -0.93205021674E+02  0.39161301611E+03  0.00000000000E+00 0. -1.
         -3    1    6    6    0  503  0.63588940285E+01 -0.10865672115E+03 -0.21523442468E+02  0.11095033645E+03  0.00000000000E+00 0.  1.
<mgrwt>
<rscale>  0 0.12876295E+04</rscale>
<asrwt>0</asrwt>
<pdfrwt beam="1">  1        2 0.13573082E+00 0.12876295E+04</pdfrwt>
<pdfrwt beam="2">  1       -1 0.72279753E-01 0.12876295E+04</pdfrwt>
<totfact> 0.65202741E+01</totfact>
</mgrwt>
</event>
<event>
12    7  0.1730932E-007  0.1719746E+04  0.7818608E-02  0.8750182E-01
         -1   -1    0    0    0  501 -0.00000000000E+00  0.00000000000E+00  0.23441933608E+03  0.23441933608E+03  0.00000000000E+00 0.  1.
          2   -1    0    0  501    0  0.00000000000E+00 -0.00000000000E+00 -0.31540981509E+04  0.31540981509E+04  0.00000000000E+00 0. -1.
         24    2    1    2    0    0  0.86044450578E+02 -0.26123871897E+03  0.37053599189E+02  0.28928675943E+03  0.81636659678E+02 0.  0.
        254    2    1    2    0    0 -0.86044450578E+02  0.26123871897E+03 -0.29567324140E+04  0.30992307276E+04  0.88730784897E+03 0.  0.
         23    2    4    4    0    0  0.38271264314E+02  0.19200559052E+02 -0.27361925676E+04  0.27381901954E+04  0.95406643961E+02 0.  0.
         23    2    4    4    0    0 -0.12431571489E+03  0.24203815992E+03 -0.22053984639E+03  0.36104053221E+03  0.87610354547E+02 0.  0.
          4    1    3    3  502    0 -0.71398459862E+01 -0.16887400704E+02 -0.13703791670E+02  0.22890076658E+02  0.00000000000E+00 0. -1.
         -3    1    3    3    0  502  0.93184296565E+02 -0.24435131826E+03  0.50757390860E+02  0.26639668277E+03  0.00000000000E+00 0.  1.
         13    1    5    5    0    0  0.24146317565E+02  0.36095493941E+02 -0.25885577381E+04  0.25889219944E+04  0.00000000000E+00 0. -1.
        -13    1    5    5    0    0  0.14124946750E+02 -0.16894934889E+02 -0.14763482953E+03  0.14926820102E+03  0.00000000000E+00 0.  1.
          3    1    6    6  503    0 -0.72292960191E+02  0.20470379668E+03 -0.14072734397E+03  0.25871625733E+03  0.00000000000E+00 0. -1.
         -3    1    6    6    0  503 -0.52022754702E+02  0.37334363236E+02 -0.79812502422E+02  0.10232427487E+03  0.00000000000E+00 0.  1.
<mgrwt>
<rscale>  0 0.17197460E+04</rscale>
<asrwt>0</asrwt>
<pdfrwt beam="1">  1        2 0.48524586E+00 0.17197460E+04</pdfrwt>
<pdfrwt beam="2">  1       -1 0.36064514E-01 0.17197460E+04</pdfrwt>
<totfact> 0.11113125E+01</totfact>
</mgrwt>
</event>
<event>
12    7  0.1730932E-007  0.1887968E+04  0.7818608E-02  0.8660869E-01
          2   -1    0    0  501    0  0.00000000000E+00  0.00000000000E+00  0.14062460184E+04  0.14062460184E+04  0.00000000000E+00 0. -1.
         -1   -1    0    0    0  501 -0.00000000000E+00 -0.00000000000E+00 -0.63367729533E+03  0.63367729533E+03  0.00000000000E+00 0.  1.
         24    2    1    2    0    0  0.44688148213E+03 -0.42833734083E+02 -0.32001643074E+03  0.55743714112E+03  0.82388485302E+02 0.  0.
        254    2    1    2    0    0 -0.44688148213E+03  0.42833734083E+02  0.10925851538E+04  0.14824861726E+04  0.89581535251E+03 0.  0.
         23    2    4    4    0    0 -0.96470812547E+02  0.99536579442E+02 -0.12779473642E+03  0.20835320708E+03  0.88687180151E+02 0.  0.
         23    2    4    4    0    0 -0.35041066958E+03 -0.56702845359E+02  0.12203798902E+04  0.12741329655E+04  0.89916001615E+02 0.  0.
          2    1    3    3  502    0  0.90908610126E+02  0.17735081354E+01 -0.28848958794E+02  0.95392783530E+02  0.00000000000E+00 0. -1.
         -3    1    3    3    0  502  0.35597287200E+03 -0.44607242218E+02 -0.29116747195E+03  0.46204435759E+03  0.00000000000E+00 0.  1.
         13    1    5    5    0    0 -0.22225090308E+02  0.25267112998E+02  0.99975131428E+01  0.35104585277E+02  0.00000000000E+00 0.  1.
        -13    1    5    5    0    0 -0.74245722239E+02  0.74269466444E+02 -0.13779224956E+03  0.17324862180E+03  0.00000000000E+00 0. -1.
          3    1    6    6  503    0 -0.24940822011E+03  0.74184076332E-01  0.79049332371E+03  0.82890539907E+03  0.00000000000E+00 0. -1.
         -3    1    6    6    0  503 -0.10100244947E+03 -0.56777029436E+02  0.42988656649E+03  0.44522756644E+03  0.00000000000E+00 0.  1.
<mgrwt>
<rscale>  0 0.18879684E+04</rscale>
<asrwt>0</asrwt>
<pdfrwt beam="1">  1        2 0.21634554E+00 0.18879684E+04</pdfrwt>
<pdfrwt beam="2">  1       -1 0.97488815E-01 0.18879684E+04</pdfrwt>
<totfact> 0.15487349E+01</totfact>
</mgrwt>
</event>
<event>
12    7  0.1730932E-007  0.1191145E+04  0.7818608E-02  0.9120643E-01
         -1   -1    0    0    0  501 -0.00000000000E+00  0.00000000000E+00  0.13144863812E+04  0.13144863812E+04  0.00000000000E+00 0.  1.
          2   -1    0    0  501    0  0.00000000000E+00 -0.00000000000E+00 -0.26984409997E+03  0.26984409997E+03  0.00000000000E+00 0. -1.
         24    2    1    2    0    0  0.16618800237E+03 -0.14480871453E+03  0.31985669427E+03  0.39653940376E+03  0.79669178045E+02 0.  0.
        254    2    1    2    0    0 -0.16618800237E+03  0.14480871453E+03  0.72478558700E+03  0.11877910774E+04  0.91484724441E+03 0.  0.
         23    2    4    4    0    0 -0.17665838512E+03 -0.68056403657E+02 -0.16504697409E+03  0.26787822055E+03  0.93157813819E+02 0.  0.
         23    2    4    4    0    0  0.10470382754E+02  0.21286511818E+03  0.88983256108E+03  0.91991285690E+03  0.94955200308E+02 0.  0.
          4    1    3    3  502    0  0.46621149931E+02 -0.51238580526E+02  0.45213941243E+02  0.82723782783E+02  0.00000000000E+00 0. -1.
         -3    1    3    3    0  502  0.11956685244E+03 -0.93570134000E+02  0.27464275303E+03  0.31381562098E+03  0.00000000000E+00 0.  1.
         13    1    5    5    0    0 -0.16107584596E+03 -0.25896695842E+02 -0.14645464136E+03  0.21923738044E+03  0.00000000000E+00 0.  1.
        -13    1    5    5    0    0 -0.15582539162E+02 -0.42159707815E+02 -0.18592332723E+02  0.48640840102E+02  0.00000000000E+00 0. -1.
          2    1    6    6  503    0 -0.34985554833E+01  0.62502621095E+02  0.11934837554E+03  0.13476962669E+03  0.00000000000E+00 0. -1.
         -2    1    6    6    0  503  0.13968938237E+02  0.15036249709E+03  0.77048418555E+03  0.78514323021E+03  0.00000000000E+00 0.  1.
<mgrwt>
<rscale>  0 0.11911447E+04</rscale>
<asrwt>0</asrwt>
<pdfrwt beam="1">  1        2 0.41514478E-01 0.11911447E+04</pdfrwt>
<pdfrwt beam="2">  1       -1 0.20222867E+00 0.11911447E+04</pdfrwt>
<totfact> 0.20324979E+01</totfact>
</mgrwt>
</event>
<event>
12    7  0.1730932E-007  0.4240542E+04  0.7818608E-02  0.7957705E-01
         -1   -1    0    0    0  501 -0.00000000000E+00  0.00000000000E+00  0.13628956193E+04  0.13628956193E+04  0.00000000000E+00 0.  1.
          2   -1    0    0  501    0  0.00000000000E+00 -0.00000000000E+00 -0.32985278829E+04  0.32985278829E+04  0.00000000000E+00 0. -1.
         24    2    1    2    0    0  0.47595313496E+03 -0.11885318280E+04 -0.26537973876E+04  0.29475713332E+04  0.79980606687E+02 0.  0.
        254    2    1    2    0    0 -0.47595313496E+03  0.11885318280E+04  0.71816512393E+03  0.17138521689E+04  0.88452745517E+03 0.  0.
         23    2    4    4    0    0 -0.92663004849E+02  0.36591185865E+03 -0.18489398120E+03  0.43021869650E+03  0.91784648860E+02 0.  0.
         23    2    4    4    0    0 -0.38329013011E+03  0.82261996932E+03  0.90305910513E+03  0.12836334724E+04  0.92650992582E+02 0.  0.
          2    1    3    3  502    0  0.30605073683E+03 -0.86152321305E+03 -0.18939115024E+04  0.21030430521E+04  0.00000000000E+00 0. -1.
         -1    1    3    3    0  502  0.16990239813E+03 -0.32700861492E+03 -0.75988588515E+03  0.84452828109E+03  0.00000000000E+00 0.  1.
         13    1    5    5    0    0 -0.33604094377E+02  0.23621731585E+02 -0.21415553874E+02  0.46323291223E+02  0.00000000000E+00 0. -1.
        -13    1    5    5    0    0 -0.59058910471E+02  0.34229012706E+03 -0.16347842732E+03  0.38389540528E+03  0.00000000000E+00 0.  1.
          3    1    6    6  503    0 -0.98205348783E+02  0.28105093722E+03  0.34108374311E+03  0.45273837882E+03  0.00000000000E+00 0. -1.
         -3    1    6    6    0  503 -0.28508478132E+03  0.54156903209E+03  0.56197536203E+03  0.83089509361E+03  0.00000000000E+00 0.  1.
<mgrwt>
<rscale>  0 0.42405420E+04</rscale>
<asrwt>0</asrwt>
<pdfrwt beam="1">  1        2 0.50746582E+00 0.42405420E+04</pdfrwt>
<pdfrwt beam="2">  1       -1 0.20967625E+00 0.42405420E+04</pdfrwt>
<totfact> 0.12655260E-01</totfact>
</mgrwt>
</event>
<event>
12    7  0.1730932E-007  0.1420460E+04  0.7818608E-02  0.8939140E-01
         -1   -1    0    0    0  501 -0.00000000000E+00  0.00000000000E+00  0.10628178775E+04  0.10628178775E+04  0.00000000000E+00 0.  1.
          2   -1    0    0  501    0  0.00000000000E+00 -0.00000000000E+00 -0.47461238083E+03  0.47461238083E+03  0.00000000000E+00 0. -1.
         24    2    1    2    0    0  0.23762161980E+03  0.63292325983E+02  0.54949160578E+03  0.60715515100E+03  0.78907539815E+02 0.  0.
        254    2    1    2    0    0 -0.23762161980E+03 -0.63292325983E+02  0.38713890940E+02  0.93027510737E+03  0.89634985208E+03 0.  0.
         23    2    4    4    0    0 -0.49417390017E+03  0.70162929378E+02  0.24524545774E+03  0.56361734466E+03  0.91588735086E+02 0.  0.
         23    2    4    4    0    0  0.25655228037E+03 -0.13345525536E+03 -0.20653156680E+03  0.36665776271E+03  0.90295343890E+02 0.  0.
          2    1    3    3  502    0  0.55063220804E+02  0.33579723592E+02  0.22046087115E+03  0.22970100529E+03  0.00000000000E+00 0. -1.
         -1    1    3    3    0  502  0.18255839900E+03  0.29712602390E+02  0.32903073463E+03  0.37745414571E+03  0.00000000000E+00 0.  1.
         13    1    5    5    0    0 -0.39411051640E+02 -0.18172637485E+02  0.12434709266E+02  0.45145295868E+02  0.00000000000E+00 0. -1.
        -13    1    5    5    0    0 -0.45476284853E+03  0.88335566863E+02  0.23281074847E+03  0.51847204879E+03  0.00000000000E+00 0.  1.
          1    1    6    6  503    0  0.15017130645E+03 -0.12618681288E+03 -0.12775504185E+03  0.23408520616E+03  0.00000000000E+00 0. -1.
         -1    1    6    6    0  503  0.10638097392E+03 -0.72684424829E+01 -0.78776524946E+02  0.13257255655E+03  0.00000000000E+00 0.  1.
<mgrwt>
<rscale>  0 0.14204598E+04</rscale>
<asrwt>0</asrwt>
<pdfrwt beam="1">  1        2 0.73017290E-01 0.14204598E+04</pdfrwt>
<pdfrwt beam="2">  1       -1 0.16351044E+00 0.14204598E+04</pdfrwt>
<totfact> 0.19989792E+01</totfact>
</mgrwt>
</event>
<event>
12    7  0.1730932E-007  0.2379966E+04  0.7818608E-02  0.8447042E-01
         -1   -1    0    0    0  501 -0.00000000000E+00  0.00000000000E+00  0.44830432286E+03  0.44830432286E+03  0.00000000000E+00 0.  1.
          2   -1    0    0  501    0  0.00000000000E+00 -0.00000000000E+00 -0.31587016044E+04  0.31587016044E+04  0.00000000000E+00 0. -1.
         24    2    1    2    0    0  0.17133323538E+03  0.68579521176E+03 -0.22673191598E+04  0.23762058405E+04  0.77122461636E+02 0.  0.
        254    2    1    2    0    0 -0.17133323538E+03 -0.68579521176E+03 -0.44307812175E+03  0.12308000868E+04  0.90492015204E+03 0.  0.
         23    2    4    4    0    0  0.31792683800E+03 -0.41629186358E+03 -0.33407335403E+02  0.53226103409E+03  0.88370630575E+02 0.  0.
         23    2    4    4    0    0 -0.48926007338E+03 -0.26950334818E+03 -0.40967078635E+03  0.69853905267E+03  0.90106497163E+02 0.  0.
          2    1    3    3  502    0  0.13540580360E+03  0.39976717469E+03 -0.13991228519E+04  0.14614011360E+04  0.00000000000E+00 0. -1.
         -1    1    3    3    0  502  0.35927431777E+02  0.28602803707E+03 -0.86819630788E+03  0.91480470449E+03  0.00000000000E+00 0.  1.
         13    1    5    5    0    0  0.73062478350E+02 -0.11388602723E+03 -0.46091974805E+02  0.14294272658E+03  0.00000000000E+00 0. -1.
        -13    1    5    5    0    0  0.24486435965E+03 -0.30240583635E+03  0.12684639402E+02  0.38931830751E+03  0.00000000000E+00 0.  1.
          1    1    6    6  503    0 -0.11466189500E+02 -0.22228812996E+02 -0.54069574802E+01  0.25589623249E+02  0.00000000000E+00 0. -1.
         -1    1    6    6    0  503 -0.47779388388E+03 -0.24727453518E+03 -0.40426382887E+03  0.67294942942E+03  0.00000000000E+00 0.  1.
<mgrwt>
<rscale>  0 0.23799660E+04</rscale>
<asrwt>0</asrwt>
<pdfrwt beam="1">  1        2 0.48595409E+00 0.23799660E+04</pdfrwt>
<pdfrwt beam="2">  1       -1 0.68969897E-01 0.23799660E+04</pdfrwt>
<totfact> 0.30089590E+00</totfact>
</mgrwt>
</event>
<event>
12    7  0.1730932E-007  0.2534453E+04  0.7818608E-02  0.8390813E-01
          2   -1    0    0  501    0  0.00000000000E+00  0.00000000000E+00  0.25053796103E+04  0.25053796103E+04  0.00000000000E+00 0. -1.
         -1   -1    0    0    0  501 -0.00000000000E+00 -0.00000000000E+00 -0.64096597918E+03  0.64096597918E+03  0.00000000000E+00 0.  1.
         24    2    1    2    0    0  0.69676406358E+03 -0.23160349745E+03 -0.20853560558E+03  0.76772154586E+03  0.82394980689E+02 0.  0.
        254    2    1    2    0    0 -0.69676406358E+03  0.23160349745E+03  0.20729492367E+04  0.23786240436E+04  0.90642896169E+03 0.  0.
         23    2    4    4    0    0  0.34621648130E+02  0.37945095377E+03  0.49991974513E+03  0.63522719897E+03  0.91717816740E+02 0.  0.
         23    2    4    4    0    0 -0.73138571171E+03 -0.14784745633E+03  0.15730294916E+04  0.17433968446E+04  0.90701967484E+02 0.  0.
          4    1    3    3  502    0  0.45081324565E+03 -0.16897148610E+03 -0.10014445452E+03  0.49174470748E+03  0.00000000000E+00 0. -1.
         -3    1    3    3    0  502  0.24595081794E+03 -0.62632011347E+02 -0.10839115107E+03  0.27597683837E+03  0.00000000000E+00 0.  1.
         13    1    5    5    0    0  0.66118196267E+01  0.24494002581E+03  0.38372956995E+03  0.45528860655E+03  0.00000000000E+00 0. -1.
        -13    1    5    5    0    0  0.28009828503E+02  0.13451092796E+03  0.11619017518E+03  0.17993859242E+03  0.00000000000E+00 0.  1.
          1    1    6    6  503    0 -0.46895046713E+03 -0.13803612111E+03  0.10427786567E+04  0.11516752312E+04  0.00000000000E+00 0. -1.
         -1    1    6    6    0  503 -0.26243524459E+03 -0.98113352192E+01  0.53025083488E+03  0.59172161343E+03  0.00000000000E+00 0.  1.
<mgrwt>
<rscale>  0 0.25344531E+04</rscale>
<asrwt>0</asrwt>
<pdfrwt beam="1">  1        2 0.38544301E+00 0.25344531E+04</pdfrwt>
<pdfrwt beam="2">  1       -1 0.98610152E-01 0.25344531E+04</pdfrwt>
<totfact> 0.34394819E+00</totfact>
</mgrwt>
</event>
<event>
12    7  0.1730932E-007  0.2277144E+04  0.7818608E-02  0.8486988E-01
          2   -1    0    0  501    0  0.00000000000E+00  0.00000000000E+00  0.16977199015E+04  0.16977199015E+04  0.00000000000E+00 0. -1.
         -1   -1    0    0    0  501 -0.00000000000E+00 -0.00000000000E+00 -0.76358045691E+03  0.76358045691E+03  0.00000000000E+00 0.  1.
         24    2    1    2    0    0  0.13012887608E+03 -0.49759761918E+03  0.12718757721E+04  0.13742969655E+04  0.80543494431E+02 0.  0.
        254    2    1    2    0    0 -0.13012887608E+03  0.49759761918E+03 -0.33773632753E+03  0.10870033930E+04  0.89608796130E+03 0.  0.
         23    2    4    4    0    0 -0.77488663943E+02  0.45318163324E+03 -0.62216698573E+03  0.77859768269E+03  0.88002884096E+02 0.  0.
         23    2    4    4    0    0 -0.52640212141E+02  0.44415985943E+02  0.28443065820E+03  0.30840571028E+03  0.97311412849E+02 0.  0.
          2    1    3    3  502    0  0.13078543397E+03 -0.45145599283E+03  0.12012712184E+04  0.12899495662E+04  0.00000000000E+00 0. -1.
         -1    1    3    3    0  502 -0.65655788474E+00 -0.46141626350E+02  0.70604553708E+02  0.84347399218E+02  0.00000000000E+00 0.  1.
         13    1    5    5    0    0 -0.12075994157E+02  0.30417663541E+03 -0.38131961604E+03  0.48792817580E+03  0.00000000000E+00 0.  1.
        -13    1    5    5    0    0 -0.65412669786E+02  0.14900499783E+03 -0.24084736970E+03  0.29066950689E+03  0.00000000000E+00 0. -1.
          1    1    6    6  503    0 -0.44644841823E+01  0.65206701969E+02  0.18074870629E+03  0.19220286269E+03  0.00000000000E+00 0. -1.
         -1    1    6    6    0  503 -0.48175727959E+02 -0.20790716026E+02  0.10368195191E+03  0.11620284759E+03  0.00000000000E+00 0.  1.
<mgrwt>
<rscale>  0 0.22771436E+04</rscale>
<asrwt>0</asrwt>
<pdfrwt beam="1">  1        2 0.26118768E+00 0.22771436E+04</pdfrwt>
<pdfrwt beam="2">  1       -1 0.11747392E+00 0.22771436E+04</pdfrwt>
<totfact> 0.66332607E+00</totfact>
</mgrwt>
</event>
<event>
12    7  0.1730932E-007  0.2203149E+04  0.7818608E-02  0.8517119E-01
         -1   -1    0    0    0  501 -0.00000000000E+00  0.00000000000E+00  0.57941138604E+03  0.57941138604E+03  0.00000000000E+00 0.  1.
          2   -1    0    0  501    0  0.00000000000E+00 -0.00000000000E+00 -0.20943091548E+04  0.20943091548E+04  0.00000000000E+00 0. -1.
         24    2    1    2    0    0  0.43000851903E+03  0.69671215311E+03 -0.10960233788E+03  0.83002494473E+03  0.81323955069E+02 0.  0.
        254    2    1    2    0    0 -0.43000851903E+03 -0.69671215311E+03 -0.14052954309E+04  0.18436955961E+04  0.86835652376E+03 0.  0.
         23    2    4    4    0    0 -0.82085377111E+01 -0.21037273108E+03 -0.11030758903E+04  0.11267278369E+04  0.91734031089E+02 0.  0.
         23    2    4    4    0    0 -0.42179998132E+03 -0.48633942203E+03 -0.30221954055E+03  0.71696775926E+03  0.90911272448E+02 0.  0.
          2    1    3    3  502    0  0.12953322812E+03  0.20712581565E+03 -0.70464413629E+02  0.25425419227E+03  0.00000000000E+00 0. -1.
         -1    1    3    3    0  502  0.30047529090E+03  0.48958633746E+03 -0.39137924252E+02  0.57577075246E+03  0.00000000000E+00 0.  1.
         13    1    5    5    0    0 -0.22483957258E+02 -0.20989693041E+03 -0.95971581719E+03  0.98265797686E+03  0.00000000000E+00 0. -1.
        -13    1    5    5    0    0  0.14275419547E+02 -0.47580067417E+00 -0.14336007315E+03  0.14406986001E+03  0.00000000000E+00 0.  1.
          1    1    6    6  503    0 -0.15000800487E+03 -0.11042158247E+03 -0.88493515558E+02  0.20621937275E+03  0.00000000000E+00 0. -1.
         -1    1    6    6    0  503 -0.27179197645E+03 -0.37591783956E+03 -0.21372602500E+03  0.51074838651E+03  0.00000000000E+00 0.  1.
<mgrwt>
<rscale>  0 0.22031492E+04</rscale>
<asrwt>0</asrwt>
<pdfrwt beam="1">  1        2 0.32220141E+00 0.22031492E+04</pdfrwt>
<pdfrwt beam="2">  1       -1 0.89140212E-01 0.22031492E+04</pdfrwt>
<totfact> 0.75947713E+00</totfact>
</mgrwt>
</event>
<event>
12    7  0.1730932E-007  0.1760858E+04  0.7818608E-02  0.8727396E-01
          2   -1    0    0  501    0  0.00000000000E+00  0.00000000000E+00  0.97921751744E+03  0.97921751744E+03  0.00000000000E+00 0. -1.
         -1   -1    0    0    0  501 -0.00000000000E+00 -0.00000000000E+00 -0.79160644461E+03  0.79160644461E+03  0.00000000000E+00 0.  1.
         24    2    1    2    0    0  0.55120600388E+03  0.33497580734E+03  0.12730446707E+03  0.66231256143E+03  0.80091519397E+02 0.  0.
        254    2    1    2    0    0 -0.55120600388E+03 -0.33497580734E+03  0.60306605753E+02  0.11085114006E+04  0.89951308406E+03 0.  0.
         23    2    4    4    0    0 -0.18423812827E+03  0.11946350812E+03 -0.32549158315E+03  0.40234435067E+03  0.87869153445E+02 0.  0.
         23    2    4    4    0    0 -0.36696787561E+03 -0.45443931546E+03  0.38579818891E+03  0.70616704995E+03  0.93011540737E+02 0.  0.
          4    1    3    3  502    0  0.52062797131E+03  0.32433631810E+03  0.13702461724E+03  0.62850877280E+03  0.00000000000E+00 0. -1.
         -3    1    3    3    0  502  0.30578032566E+02  0.10639489238E+02 -0.97201501662E+01  0.33803788635E+02  0.00000000000E+00 0.  1.
         13    1    5    5    0    0 -0.15073154649E+03  0.12854866328E+03 -0.24783166380E+03  0.31727794049E+03  0.00000000000E+00 0.  1.
        -13    1    5    5    0    0 -0.33506581784E+02 -0.90851551543E+01 -0.77659919354E+02  0.85066410181E+02  0.00000000000E+00 0. -1.
          1    1    6    6  503    0 -0.20908125934E+03 -0.18568246890E+03  0.18992328984E+03  0.33802930093E+03  0.00000000000E+00 0. -1.
         -1    1    6    6    0  503 -0.15788661626E+03 -0.26875684656E+03  0.19587489907E+03  0.36813774902E+03  0.00000000000E+00 0.  1.
<mgrwt>
<rscale>  0 0.17608576E+04</rscale>
<asrwt>0</asrwt>
<pdfrwt beam="1">  1        2 0.15064885E+00 0.17608576E+04</pdfrwt>
<pdfrwt beam="2">  1       -1 0.12178561E+00 0.17608576E+04</pdfrwt>
<totfact> 0.16760526E+01</totfact>
</mgrwt>
</event>
<event>
12    7  0.1730932E-007  0.1152376E+04  0.7818608E-02  0.9155594E-01
         -1   -1    0    0    0  501 -0.00000000000E+00  0.00000000000E+00  0.95533091797E+03  0.95533091797E+03  0.00000000000E+00 0.  1.
          2   -1    0    0  501    0  0.00000000000E+00 -0.00000000000E+00 -0.34751605334E+03  0.34751605334E+03  0.00000000000E+00 0. -1.
         24    2    1    2    0    0  0.13240699153E+03  0.24365673332E+02 -0.68913610109E+02  0.17056898946E+03  0.78863154036E+02 0.  0.
        254    2    1    2    0    0 -0.13240699153E+03 -0.24365673332E+02  0.67672847474E+03  0.11322779818E+04  0.89775648269E+03 0.  0.
         23    2    4    4    0    0  0.31244925159E+03 -0.71011210249E+02  0.57798126243E+03  0.66747925464E+03  0.93803458662E+02 0.  0.
         23    2    4    4    0    0 -0.44485624312E+03  0.46645536918E+02  0.98747212307E+02  0.46479872721E+03  0.78828685855E+02 0.  0.
          2    1    3    3  502    0 -0.10083972235E+02  0.37692613624E+01  0.41691196879E+00  0.10773469397E+02  0.00000000000E+00 0. -1.
         -1    1    3    3    0  502  0.14249096377E+03  0.20596411969E+02 -0.69330522078E+02  0.15979552007E+03  0.00000000000E+00 0.  1.
         13    1    5    5    0    0  0.12255953437E+03 -0.45736041897E+02  0.32355333234E+03  0.34899768461E+03  0.00000000000E+00 0.  1.
        -13    1    5    5    0    0  0.18988971722E+03 -0.25275168353E+02  0.25442793009E+03  0.31848157003E+03  0.00000000000E+00 0. -1.
          1    1    6    6  503    0 -0.74743514478E+02 -0.20881784687E+02  0.23907373497E+02  0.81204706735E+02  0.00000000000E+00 0. -1.
         -1    1    6    6    0  503 -0.37011272864E+03  0.67527321605E+02  0.74839838809E+02  0.38359402047E+03  0.00000000000E+00 0.  1.
<mgrwt>
<rscale>  0 0.11523764E+04</rscale>
<asrwt>0</asrwt>
<pdfrwt beam="1">  1        2 0.53464009E-01 0.11523764E+04</pdfrwt>
<pdfrwt beam="2">  1       -1 0.14697399E+00 0.11523764E+04</pdfrwt>
<totfact> 0.38916106E+01</totfact>
</mgrwt>
</event>
<event>
12    7  0.1730932E-007  0.1366760E+04  0.7818608E-02  0.8978237E-01
         -1   -1    0    0    0  501 -0.00000000000E+00  0.00000000000E+00  0.21716142656E+03  0.21716142656E+03  0.00000000000E+00 0.  1.
          2   -1    0    0  501    0  0.00000000000E+00 -0.00000000000E+00 -0.21505130459E+04  0.21505130459E+04  0.00000000000E+00 0. -1.
         24    2    1    2    0    0 -0.37002649827E+03 -0.68096548146E+02 -0.50297036654E+03  0.63342417600E+03  0.81793935183E+02 0.  0.
        254    2    1    2    0    0  0.37002649827E+03  0.68096548146E+02 -0.14303812528E+04  0.17342502965E+04  0.90558092578E+03 0.  0.
         23    2    4    4    0    0  0.42091503574E+03 -0.34603887938E+03 -0.84437940721E+03  0.10090446713E+04  0.91006548834E+02 0.  0.
         23    2    4    4    0    0 -0.50888537467E+02  0.41413542752E+03 -0.58600184562E+03  0.72520562523E+03  0.91800001206E+02 0.  0.
          2    1    3    3  502    0 -0.26478768194E+03 -0.11097414987E+02 -0.35838206878E+03  0.44572791740E+03  0.00000000000E+00 0. -1.
         -1    1    3    3    0  502 -0.10523881633E+03 -0.56999133159E+02 -0.14458829776E+03  0.18769625860E+03  0.00000000000E+00 0.  1.
         13    1    5    5    0    0  0.40724602940E+03 -0.30409548534E+03 -0.77235713583E+03  0.92458581967E+03  0.00000000000E+00 0.  1.
        -13    1    5    5    0    0  0.13669006339E+02 -0.41943394037E+02 -0.72022271376E+02  0.84458851590E+02  0.00000000000E+00 0. -1.
          4    1    6    6  503    0 -0.21982585772E+02  0.12456285538E+03 -0.11172571090E+03  0.16876543927E+03  0.00000000000E+00 0. -1.
         -4    1    6    6    0  503 -0.28905951695E+02  0.28957257214E+03 -0.47427613473E+03  0.55644018596E+03  0.00000000000E+00 0.  1.
<mgrwt>
<rscale>  0 0.13667604E+04</rscale>
<asrwt>0</asrwt>
<pdfrwt beam="1">  1        2 0.33084816E+00 0.13667604E+04</pdfrwt>
<pdfrwt beam="2">  1       -1 0.33409451E-01 0.13667604E+04</pdfrwt>
<totfact> 0.51667448E+01</totfact>
</mgrwt>
</event>
<event>
12    7  0.1730932E-007  0.2399372E+04  0.7818608E-02  0.8439739E-01
          2   -1    0    0  501    0  0.00000000000E+00  0.00000000000E+00  0.19994731984E+04  0.19994731984E+04  0.00000000000E+00 0. -1.
         -1   -1    0    0    0  501 -0.00000000000E+00 -0.00000000000E+00 -0.71981275791E+03  0.71981275791E+03  0.00000000000E+00 0.  1.
         24    2    1    2    0    0 -0.85448591856E+03  0.32381246188E+02 -0.10975495986E+03  0.86584843533E+03  0.80328274129E+02 0.  0.
        254    2    1    2    0    0  0.85448591856E+03 -0.32381246188E+02  0.13894154004E+04  0.18534375210E+04  0.87952302946E+03 0.  0.
         23    2    4    4    0    0 -0.10123024106E+03 -0.17086063009E+03  0.45339517340E+03  0.50548627663E+03  0.10250988237E+03 0.  0.
         23    2    4    4    0    0  0.95571615962E+03  0.13847938390E+03  0.93602022699E+03  0.13479512444E+04  0.90932801413E+02 0.  0.
          2    1    3    3  502    0 -0.17022040705E+03 -0.25302838424E+02 -0.17249979195E+02  0.17295312195E+03  0.00000000000E+00 0. -1.
         -1    1    3    3    0  502 -0.68426551151E+03  0.57684084611E+02 -0.92504980661E+02  0.69289531338E+03  0.00000000000E+00 0.  1.
         13    1    5    5    0    0 -0.11804559529E+03 -0.12097946017E+03  0.31627489929E+03  0.35860926406E+03  0.00000000000E+00 0. -1.
        -13    1    5    5    0    0  0.16815354229E+02 -0.49881169922E+02  0.13712027411E+03  0.14687701257E+03  0.00000000000E+00 0.  1.
          3    1    6    6  503    0  0.93316854969E+03  0.12007346228E+03  0.90777311091E+03  0.13073917544E+04  0.00000000000E+00 0. -1.
         -3    1    6    6    0  503  0.22547609936E+02  0.18405921618E+02  0.28247116077E+02  0.40559490025E+02  0.00000000000E+00 0.  1.
<mgrwt>
<rscale>  0 0.23993718E+04</rscale>
<asrwt>0</asrwt>
<pdfrwt beam="1">  1        2 0.30761126E+00 0.23993718E+04</pdfrwt>
<pdfrwt beam="2">  1       -1 0.11074043E+00 0.23993718E+04</pdfrwt>
<totfact> 0.51389458E+00</totfact>
</mgrwt>
</event>
<event>
12    7  0.1730932E-007  0.2225600E+04  0.7818608E-02  0.8507848E-01
         -1   -1    0    0    0  501 -0.00000000000E+00  0.00000000000E+00  0.11304939219E+04  0.11304939219E+04  0.00000000000E+00 0.  1.
          2   -1    0    0  501    0  0.00000000000E+00 -0.00000000000E+00 -0.10953830313E+04  0.10953830313E+04  0.00000000000E+00 0. -1.
         24    2    1    2    0    0 -0.85421789165E+03 -0.34658179151E+03 -0.10096775049E+03  0.93102673894E+03  0.82517618523E+02 0.  0.
        254    2    1    2    0    0  0.85421789165E+03  0.34658179151E+03  0.13607864117E+03  0.12948502143E+04  0.89906203132E+03 0.  0.
         23    2    4    4    0    0  0.90659882700E+03  0.50832459697E+03  0.24643538422E+03  0.10723123303E+04  0.93850978699E+02 0.  0.
         23    2    4    4    0    0 -0.52380935347E+02 -0.16174280546E+03 -0.11035674305E+03  0.22253788392E+03  0.91869480982E+02 0.  0.
          4    1    3    3  502    0 -0.13933764497E+03 -0.82888007140E+02  0.19830032994E+01  0.16213985733E+03  0.00000000000E+00 0. -1.
         -3    1    3    3    0  502 -0.71488024668E+03 -0.26369378437E+03 -0.10295075379E+03  0.76888688161E+03  0.00000000000E+00 0.  1.
         13    1    5    5    0    0  0.16199064375E+03  0.13226520261E+03  0.59699340593E+02  0.21748347926E+03  0.00000000000E+00 0. -1.
        -13    1    5    5    0    0  0.74460818325E+03  0.37605939436E+03  0.18673604363E+03  0.85482885108E+03  0.00000000000E+00 0.  1.
          4    1    6    6  503    0 -0.51315121820E+02 -0.11436117071E+03 -0.12071833731E+03  0.17402481448E+03  0.00000000000E+00 0.  1.
         -4    1    6    6    0  503 -0.10658135274E+01 -0.47381634754E+02  0.10361594261E+02  0.48513069435E+02  0.00000000000E+00 0. -1.
<mgrwt>
<rscale>  0 0.22256000E+04</rscale>
<asrwt>0</asrwt>
<pdfrwt beam="1">  1        2 0.16852047E+00 0.22256000E+04</pdfrwt>
<pdfrwt beam="2">  1       -1 0.17392214E+00 0.22256000E+04</pdfrwt>
<totfact> 0.52530578E+00</totfact>
</mgrwt>
</event>
<event>
12    7  0.1730932E-007  0.1322812E+04  0.7818608E-02  0.9011668E-01
         -1   -1    0    0    0  501 -0.00000000000E+00  0.00000000000E+00  0.84753821029E+02  0.84753821029E+02  0.00000000000E+00 0.  1.
          2   -1    0    0  501    0  0.00000000000E+00 -0.00000000000E+00 -0.51615095198E+04  0.51615095198E+04  0.00000000000E+00 0. -1.
         24    2    1    2    0    0  0.15084538686E+03  0.17057438763E+03 -0.33645068099E+03  0.41440220290E+03  0.81732322740E+02 0.  0.
        254    2    1    2    0    0 -0.15084538686E+03 -0.17057438763E+03 -0.47403050178E+04  0.48318611380E+04  0.90804209273E+03 0.  0.
         23    2    4    4    0    0  0.29644500845E+03  0.84882510414E+02 -0.29274028107E+04  0.29449864142E+04  0.90405088945E+02 0.  0.
         23    2    4    4    0    0 -0.44729039531E+03 -0.25545689804E+03 -0.18129022071E+04  0.18868747238E+04  0.91405066209E+02 0.  0.
          4    1    3    3  502    0  0.18765754386E+02  0.31790057433E+01 -0.40031551024E+01  0.19449546677E+02  0.00000000000E+00 0. -1.
         -3    1    3    3    0  502  0.13207963248E+03  0.16739538188E+03 -0.33244752589E+03  0.39495265622E+03  0.00000000000E+00 0.  1.
         13    1    5    5    0    0  0.24053321159E+03  0.33248859352E+02 -0.20634811781E+04  0.20777190101E+04  0.00000000000E+00 0.  1.
        -13    1    5    5    0    0  0.55911796857E+02  0.51633651061E+02 -0.86392163254E+03  0.86726740405E+03  0.00000000000E+00 0. -1.
          4    1    6    6  503    0 -0.48151997033E+02 -0.60716740437E+02 -0.22145718227E+03  0.23462399913E+03  0.00000000000E+00 0. -1.
         -4    1    6    6    0  503 -0.39913839827E+03 -0.19474015760E+03 -0.15914450249E+04  0.16522507247E+04  0.00000000000E+00 0.  1.
<mgrwt>
<rscale>  0 0.13228116E+04</rscale>
<asrwt>0</asrwt>
<pdfrwt beam="1">  1        2 0.79407850E+00 0.13228116E+04</pdfrwt>
<pdfrwt beam="2">  1       -1 0.13039048E-01 0.13228116E+04</pdfrwt>
<totfact> 0.10377852E+00</totfact>
</mgrwt>
</event>
<event>
12    7  0.1730932E-007  0.1217393E+04  0.7818608E-02  0.9097767E-01
         -1   -1    0    0    0  501 -0.00000000000E+00  0.00000000000E+00  0.11446167036E+03  0.11446167036E+03  0.00000000000E+00 0.  1.
          2   -1    0    0  501    0  0.00000000000E+00 -0.00000000000E+00 -0.32369909188E+04  0.32369909188E+04  0.00000000000E+00 0. -1.
         24    2    1    2    0    0 -0.23906953836E+02 -0.78171943188E+02 -0.12487709944E+02  0.11446324514E+03  0.79142254481E+02 0.  0.
        254    2    1    2    0    0  0.23906953836E+02  0.78171943188E+02 -0.31100415386E+04  0.32369893441E+04  0.89390113936E+03 0.  0.
         23    2    4    4    0    0 -0.28163022002E+03  0.84591750485E+02 -0.26993788135E+04  0.27169813425E+04  0.94182225921E+02 0.  0.
         23    2    4    4    0    0  0.30553717385E+03 -0.64198072979E+01 -0.41066272506E+03  0.52000800157E+03  0.91489176473E+02 0.  0.
          2    1    3    3  502    0 -0.29528330919E+02 -0.89757126130E+02 -0.23669474236E+02  0.97408973040E+02  0.00000000000E+00 0. -1.
         -1    1    3    3    0  502  0.56213770829E+01  0.11585182943E+02  0.11181764292E+02  0.17054272098E+02  0.00000000000E+00 0.  1.
         13    1    5    5    0    0 -0.40699416166E+02 -0.12530256317E+02 -0.61597368295E+03  0.61744394716E+03  0.00000000000E+00 0. -1.
        -13    1    5    5    0    0 -0.24093080385E+03  0.97122006803E+02 -0.20834051305E+04  0.20995373953E+04  0.00000000000E+00 0.  1.
          2    1    6    6  503    0  0.16425807091E+03  0.28655160654E+02 -0.27155769987E+03  0.31866191559E+03  0.00000000000E+00 0. -1.
         -2    1    6    6    0  503  0.14127910294E+03 -0.35074967951E+02 -0.13910502519E+03  0.20134608598E+03  0.00000000000E+00 0.  1.
<mgrwt>
<rscale>  0 0.12173929E+04</rscale>
<asrwt>0</asrwt>
<pdfrwt beam="1">  1        2 0.49799862E+00 0.12173929E+04</pdfrwt>
<pdfrwt beam="2">  1       -1 0.17609487E-01 0.12173929E+04</pdfrwt>
<totfact> 0.35465153E+01</totfact>
</mgrwt>
</event>
<event>
12    7  0.1730932E-007  0.1402932E+04  0.7818608E-02  0.8951699E-01
         -1   -1    0    0    0  501 -0.00000000000E+00  0.00000000000E+00  0.26182190963E+03  0.26182190963E+03  0.00000000000E+00 0.  1.
          2   -1    0    0  501    0  0.00000000000E+00 -0.00000000000E+00 -0.18793470654E+04  0.18793470654E+04  0.00000000000E+00 0. -1.
         24    2    1    2    0    0 -0.10625951926E+03  0.33264177361E+03 -0.16351735893E+03  0.39421592416E+03  0.82016054573E+02 0.  0.
        254    2    1    2    0    0  0.10625951926E+03 -0.33264177361E+03 -0.14540077968E+04  0.17469530508E+04  0.90319690748E+03 0.  0.
         23    2    4    4    0    0  0.24683015278E+03 -0.22063885656E+03 -0.72952940433E+02  0.35137473410E+03  0.92387460717E+02 0.  0.
         23    2    4    4    0    0 -0.14057063352E+03 -0.11200291705E+03 -0.13810548564E+04  0.13955783167E+04  0.89563192289E+02 0.  0.
          4    1    3    3  502    0 -0.31198114802E+02  0.30319009497E+02 -0.25393487237E+01  0.43577666253E+02  0.00000000000E+00 0. -1.
         -3    1    3    3    0  502 -0.75061404462E+02  0.30232276411E+03 -0.16097801020E+03  0.35063825791E+03  0.00000000000E+00 0.  1.
         13    1    5    5    0    0  0.18386762078E+03 -0.10547766726E+03 -0.54192929403E+02  0.21879148489E+03  0.00000000000E+00 0.  1.
        -13    1    5    5    0    0  0.62962531998E+02 -0.11516118930E+03 -0.18760011030E+02  0.13258324920E+03  0.00000000000E+00 0. -1.
          3    1    6    6  503    0 -0.16142668982E+02 -0.28123410748E+02 -0.55898172467E+03  0.55992149495E+03  0.00000000000E+00 0. -1.
         -3    1    6    6    0  503 -0.12442796454E+03 -0.83879506303E+02 -0.82207313171E+03  0.83565682179E+03  0.00000000000E+00 0.  1.
<mgrwt>
<rscale>  0 0.14029316E+04</rscale>
<asrwt>0</asrwt>
<pdfrwt beam="1">  1        2 0.28913032E+00 0.14029316E+04</pdfrwt>
<pdfrwt beam="2">  1       -1 0.40280294E-01 0.14029316E+04</pdfrwt>
<totfact> 0.51985023E+01</totfact>
</mgrwt>
</event>
<event>
12    7  0.1730932E-007  0.2397142E+04  0.7818608E-02  0.8440574E-01
         -1   -1    0    0    0  501 -0.00000000000E+00  0.00000000000E+00  0.11820104291E+04  0.11820104291E+04  0.00000000000E+00 0.  1.
          2   -1    0    0  501    0  0.00000000000E+00 -0.00000000000E+00 -0.12153638092E+04  0.12153638092E+04  0.00000000000E+00 0. -1.
         24    2    1    2    0    0 -0.54493836559E+03  0.81192758793E+03  0.31275265037E+03  0.10297582161E+04  0.80022078704E+02 0.  0.
        254    2    1    2    0    0  0.54493836559E+03 -0.81192758793E+03 -0.34610603049E+03  0.13676160221E+04  0.89129118098E+03 0.  0.
         23    2    4    4    0    0 -0.16303499164E+03 -0.45101567377E+03  0.19884103559E+02  0.48802906136E+03  0.88212474601E+02 0.  0.
         23    2    4    4    0    0  0.70797335723E+03 -0.36091191416E+03 -0.36599013405E+03  0.87958696076E+03  0.90778626245E+02 0.  0.
          4    1    3    3  502    0 -0.14359954570E+02  0.54050521668E+02  0.20158632585E+02  0.59447772503E+02  0.00000000000E+00 0. -1.
         -3    1    3    3    0  502 -0.53057841102E+03  0.75787706626E+03  0.29259401778E+03  0.97031044365E+03  0.00000000000E+00 0.  1.
         13    1    5    5    0    0 -0.11782839677E+02 -0.23769165146E+02 -0.19744710539E+02  0.33070562694E+02  0.00000000000E+00 0. -1.
        -13    1    5    5    0    0 -0.15125215196E+03 -0.42724650862E+03  0.39628814098E+02  0.45495849867E+03  0.00000000000E+00 0.  1.
          2    1    6    6  503    0  0.58324821035E+03 -0.27278275667E+03 -0.32604632840E+03  0.72173063914E+03  0.00000000000E+00 0.  1.
         -2    1    6    6    0  503  0.12472514688E+03 -0.88129157492E+02 -0.39943805650E+02  0.15785632162E+03  0.00000000000E+00 0. -1.
<mgrwt>
<rscale>  0 0.23971422E+04</rscale>
<asrwt>0</asrwt>
<pdfrwt beam="1">  1        2 0.18697905E+00 0.23971422E+04</pdfrwt>
<pdfrwt beam="2">  1       -1 0.18184776E+00 0.23971422E+04</pdfrwt>
<totfact> 0.38375808E+00</totfact>
</mgrwt>
</event>
<event>
12    7  0.1730932E-007  0.1504843E+04  0.7818608E-02  0.8881239E-01
         -1   -1    0    0    0  501 -0.00000000000E+00  0.00000000000E+00  0.11846333983E+04  0.11846333983E+04  0.00000000000E+00 0.  1.
          2   -1    0    0  501    0  0.00000000000E+00 -0.00000000000E+00 -0.47790144549E+03  0.47790144549E+03  0.00000000000E+00 0. -1.
         24    2    1    2    0    0  0.77113848421E+02  0.25989361543E+03 -0.20932773861E+03  0.35195829804E+03  0.81026566313E+02 0.  0.
        254    2    1    2    0    0 -0.77113848421E+02 -0.25989361543E+03  0.91605969146E+03  0.13105765458E+04  0.89719244708E+03 0.  0.
         23    2    4    4    0    0 -0.17329450747E+03  0.91324145985E+02  0.90939127191E+03  0.93543745225E+03  0.98385241200E+02 0.  0.
         23    2    4    4    0    0  0.96180659052E+02 -0.35121776141E+03  0.66684195481E+01  0.37513909354E+03  0.89890136126E+02 0.  0.
          4    1    3    3  502    0  0.75787653643E+02  0.22935404715E+03 -0.21184426253E+03  0.32128653715E+03  0.00000000000E+00 0. -1.
         -3    1    3    3    0  502  0.13261947774E+01  0.30539568280E+02  0.25165239199E+01  0.30671760888E+02  0.00000000000E+00 0.  1.
         13    1    5    5    0    0 -0.80423592429E+02  0.15847779075E+02  0.20205473041E+03  0.21804866522E+03  0.00000000000E+00 0.  1.
        -13    1    5    5    0    0 -0.92870915043E+02  0.75476366910E+02  0.70733654150E+03  0.71738878704E+03  0.00000000000E+00 0. -1.
          4    1    6    6  503    0  0.67587622509E+01 -0.40986703635E+02 -0.28486347094E+02  0.50369263572E+02  0.00000000000E+00 0.  1.
         -4    1    6    6    0  503  0.89421896801E+02 -0.31023105778E+03  0.35154766642E+02  0.32476982996E+03  0.00000000000E+00 0. -1.
<mgrwt>
<rscale>  0 0.15048429E+04</rscale>
<asrwt>0</asrwt>
<pdfrwt beam="1">  1        2 0.73523300E-01 0.15048429E+04</pdfrwt>
<pdfrwt beam="2">  1       -1 0.18225129E+00 0.15048429E+04</pdfrwt>
<totfact> 0.14368824E+01</totfact>
</mgrwt>
</event>
<event>
12    7  0.1730932E-007  0.1469290E+04  0.7818608E-02  0.8905135E-01
          2   -1    0    0  501    0  0.00000000000E+00  0.00000000000E+00  0.73115066628E+03  0.73115066628E+03  0.00000000000E+00 0. -1.
         -1   -1    0    0    0  501 -0.00000000000E+00 -0.00000000000E+00 -0.73815641352E+03  0.73815641352E+03  0.00000000000E+00 0.  1.
         24    2    1    2    0    0 -0.26697127713E+03  0.14670539750E+02  0.36565924882E+03  0.45995849717E+03  0.79788754378E+02 0.  0.
        254    2    1    2    0    0  0.26697127713E+03 -0.14670539750E+02 -0.37266499606E+03  0.10093485826E+04  0.89911983318E+03 0.  0.
         23    2    4    4    0    0  0.57936362878E+03  0.93678026968E+02 -0.20447256233E+03  0.62750537082E+03  0.86695874036E+02 0.  0.
         23    2    4    4    0    0 -0.31239235165E+03 -0.10834856672E+03 -0.16819243373E+03  0.38184321181E+03  0.90482873291E+02 0.  0.
          4    1    3    3  502    0 -0.13169494586E+03  0.38628003963E+02  0.22342487349E+03  0.26221051761E+03  0.00000000000E+00 0. -1.
         -3    1    3    3    0  502 -0.13527633127E+03 -0.23957464213E+02  0.14223437534E+03  0.19774797956E+03  0.00000000000E+00 0.  1.
         13    1    5    5    0    0  0.52826672811E+03  0.89839617047E+02 -0.21090432732E+03  0.57586242116E+03  0.00000000000E+00 0. -1.
        -13    1    5    5    0    0  0.51096900669E+02  0.38384099211E+01  0.64317649973E+01  0.51642949661E+02  0.00000000000E+00 0.  1.
          3    1    6    6  503    0 -0.30610672425E+03 -0.11834259344E+03 -0.15167619013E+03  0.36154109407E+03  0.00000000000E+00 0. -1.
         -3    1    6    6    0  503 -0.62856274053E+01  0.99940267187E+01 -0.16516243598E+02  0.20302117735E+02  0.00000000000E+00 0.  1.
<mgrwt>
<rscale>  0 0.14692904E+04</rscale>
<asrwt>0</asrwt>
<pdfrwt beam="1">  1        2 0.11248472E+00 0.14692904E+04</pdfrwt>
<pdfrwt beam="2">  1       -1 0.11356253E+00 0.14692904E+04</pdfrwt>
<totfact> 0.30331719E+01</totfact>
</mgrwt>
</event>
<event>
12    7  0.1730932E-007  0.1742295E+04  0.7818608E-02  0.8737603E-01
          2   -1    0    0  501    0  0.00000000000E+00  0.00000000000E+00  0.35610030669E+04  0.35610030669E+04  0.00000000000E+00 0. -1.
         -1   -1    0    0    0  501 -0.00000000000E+00 -0.00000000000E+00 -0.21311348894E+03  0.21311348894E+03  0.00000000000E+00 0.  1.
         24    2    1    2    0    0 -0.20614113258E+03 -0.47483842211E+03  0.43033377338E+03  0.67839642352E+03  0.84076496557E+02 0.  0.
        254    2    1    2    0    0  0.20614113258E+03  0.47483842211E+03  0.29175558045E+04  0.30957201323E+04  0.89631778466E+03 0.  0.
         23    2    4    4    0    0  0.33496229365E+03  0.16688535214E+03  0.40343885115E+03  0.55794151752E+03  0.92116075798E+02 0.  0.
         23    2    4    4    0    0 -0.12882116107E+03  0.30795306997E+03  0.25141169534E+04  0.25377786148E+04  0.90034756520E+02 0.  0.
          4    1    3    3  502    0 -0.16201880825E+03 -0.43550744612E+03  0.37055495708E+03  0.59432971158E+03  0.00000000000E+00 0. -1.
         -3    1    3    3    0  502 -0.44122324337E+02 -0.39330975989E+02  0.59778816306E+02  0.84066711938E+02  0.00000000000E+00 0.  1.
         13    1    5    5    0    0  0.11085549903E+03  0.47844928386E+02  0.19590390368E+03  0.23012261583E+03  0.00000000000E+00 0. -1.
        -13    1    5    5    0    0  0.22410679462E+03  0.11904042376E+03  0.20753494748E+03  0.32781890169E+03  0.00000000000E+00 0.  1.
          3    1    6    6  503    0 -0.10532020528E+02  0.88275376563E+02  0.45525620824E+03  0.46385523680E+03  0.00000000000E+00 0. -1.
         -3    1    6    6    0  503 -0.11828914054E+03  0.21967769341E+03  0.20588607451E+04  0.20739233780E+04  0.00000000000E+00 0.  1.
<mgrwt>
<rscale>  0 0.17422948E+04</rscale>
<asrwt>0</asrwt>
<pdfrwt beam="1">  1        2 0.54784658E+00 0.17422948E+04</pdfrwt>
<pdfrwt beam="2">  1       -1 0.32786693E-01 0.17422948E+04</pdfrwt>
<totfact> 0.70013902E+00</totfact>
</mgrwt>
</event>
<event>
12    7  0.1730932E-007  0.1864879E+04  0.7818608E-02  0.8672539E-01
          2   -1    0    0  501    0  0.00000000000E+00  0.00000000000E+00  0.23668510081E+04  0.23668510081E+04  0.00000000000E+00 0. -1.
         -1   -1    0    0    0  501 -0.00000000000E+00 -0.00000000000E+00 -0.36734165726E+03  0.36734165726E+03  0.00000000000E+00 0.  1.
         24    2    1    2    0    0 -0.23721320120E+03 -0.62144274155E+03  0.11287748603E+04  0.13126049004E+04  0.79610020665E+02 0.  0.
        254    2    1    2    0    0  0.23721320120E+03  0.62144274155E+03  0.87073449055E+03  0.14215877650E+04  0.90568870851E+03 0.  0.
         23    2    4    4    0    0  0.28928744045E+02  0.79028673412E+03  0.45195344579E+03  0.91582587690E+03  0.95315923525E+02 0.  0.
         23    2    4    4    0    0  0.20828445716E+03 -0.16884399257E+03  0.41878104476E+03  0.50576188810E+03  0.92340755289E+02 0.  0.
          2    1    3    3  502    0 -0.20936070080E+03 -0.46902154640E+03  0.90115394177E+03  0.10372519177E+04  0.00000000000E+00 0. -1.
         -1    1    3    3    0  502 -0.27852500401E+02 -0.15242119515E+03  0.22762091857E+03  0.27535298270E+03  0.00000000000E+00 0.  1.
         13    1    5    5    0    0  0.29083074329E+02  0.64153331992E+03  0.32245472417E+03  0.71860133239E+03  0.00000000000E+00 0.  1.
        -13    1    5    5    0    0 -0.15433028393E+00  0.14875341421E+03  0.12949872162E+03  0.19722454451E+03  0.00000000000E+00 0. -1.
          3    1    6    6  503    0  0.56565875988E+02 -0.60288005057E+02  0.21048011349E+03  0.22613319096E+03  0.00000000000E+00 0. -1.
         -3    1    6    6    0  503  0.15171858117E+03 -0.10855598751E+03  0.20830093127E+03  0.27962869714E+03  0.00000000000E+00 0.  1.
<mgrwt>
<rscale>  0 0.18648785E+04</rscale>
<asrwt>0</asrwt>
<pdfrwt beam="1">  1        2 0.36413091E+00 0.18648785E+04</pdfrwt>
<pdfrwt beam="2">  1       -1 0.56514103E-01 0.18648785E+04</pdfrwt>
<totfact> 0.14080377E+01</totfact>
</mgrwt>
</event>
<event>
12    7  0.1730932E-007  0.1439562E+04  0.7818608E-02  0.8925669E-01
          2   -1    0    0  501    0  0.00000000000E+00  0.00000000000E+00  0.66531239160E+03  0.66531239160E+03  0.00000000000E+00 0. -1.
         -1   -1    0    0    0  501 -0.00000000000E+00 -0.00000000000E+00 -0.77870938729E+03  0.77870938729E+03  0.00000000000E+00 0.  1.
         24    2    1    2    0    0  0.76788796241E+01  0.35510835920E+03 -0.28800720181E+03  0.46378385854E+03  0.77371875952E+02 0.  0.
        254    2    1    2    0    0 -0.76788796241E+01 -0.35510835920E+03  0.17461020612E+03  0.98023792035E+03  0.89678132476E+03 0.  0.
         23    2    4    4    0    0 -0.37644780638E+03 -0.17382712005E+03 -0.14814132448E+03  0.44970905778E+03  0.91452534364E+02 0.  0.
         23    2    4    4    0    0  0.36876892676E+03 -0.18128123914E+03  0.32275153059E+03  0.53052886256E+03  0.91863564632E+02 0.  0.
          4    1    3    3  502    0 -0.20191824206E+02  0.26391381418E+02 -0.32853542938E+02  0.46728685638E+02  0.00000000000E+00 0. -1.
         -3    1    3    3    0  502  0.27870703830E+02  0.32871697778E+03 -0.25515365887E+03  0.41705517291E+03  0.00000000000E+00 0.  1.
         13    1    5    5    0    0 -0.30622714672E+02 -0.36018450115E+02 -0.40326408244E+02  0.62139348278E+02  0.00000000000E+00 0. -1.
        -13    1    5    5    0    0 -0.34582509171E+03 -0.13780866994E+03 -0.10781491623E+03  0.38756970951E+03  0.00000000000E+00 0.  1.
          4    1    6    6  503    0  0.18979324306E+03 -0.81406560912E+02  0.21824812517E+03  0.30046754802E+03  0.00000000000E+00 0. -1.
         -4    1    6    6    0  503  0.17897568369E+03 -0.99874678231E+02  0.10450340542E+03  0.23006131455E+03  0.00000000000E+00 0.  1.
<mgrwt>
<rscale>  0 0.14395624E+04</rscale>
<asrwt>0</asrwt>
<pdfrwt beam="1">  1        2 0.10235575E+00 0.14395624E+04</pdfrwt>
<pdfrwt beam="2">  1       -1 0.11980144E+00 0.14395624E+04</pdfrwt>
<totfact> 0.30112312E+01</totfact>
</mgrwt>
</event>
<event>
12    7  0.1730932E-007  0.1876587E+04  0.7818608E-02  0.8666599E-01
         -1   -1    0    0    0  501 -0.00000000000E+00  0.00000000000E+00  0.48437193436E+03  0.48437193436E+03  0.00000000000E+00 0.  1.
          2   -1    0    0  501    0  0.00000000000E+00 -0.00000000000E+00 -0.18176000079E+04  0.18176000079E+04  0.00000000000E+00 0. -1.
         24    2    1    2    0    0 -0.21704653172E+02 -0.43208216498E+03 -0.12142629803E+04  0.12916686714E+04  0.82506254076E+02 0.  0.
        254    2    1    2    0    0  0.21704653172E+02  0.43208216498E+03 -0.11896509321E+03  0.10103032709E+04  0.90520379831E+03 0.  0.
         23    2    4    4    0    0  0.34089022778E+03 -0.69954603430E+02 -0.18263590675E+03  0.40357188841E+03  0.91731132901E+02 0.  0.
         23    2    4    4    0    0 -0.31918557461E+03  0.50203676842E+03  0.63670813544E+02  0.60673138246E+03  0.10074050869E+03 0.  0.
          4    1    3    3  502    0 -0.10140496126E+02 -0.37370742447E+02 -0.57159524553E+02  0.69040664103E+02  0.00000000000E+00 0. -1.
         -3    1    3    3    0  502 -0.11564157046E+02 -0.39471142254E+03 -0.11571034558E+04  0.12226280073E+04  0.00000000000E+00 0.  1.
         13    1    5    5    0    0  0.30754261226E+03 -0.85758104027E+02 -0.18013065284E+03  0.36658418249E+03  0.00000000000E+00 0.  1.
        -13    1    5    5    0    0  0.33347615518E+02  0.15803500596E+02 -0.25052539164E+01  0.36987705918E+02  0.00000000000E+00 0. -1.
          1    1    6    6  503    0 -0.40603963648E+02  0.14379642791E+03  0.21653236149E+02  0.15097998934E+03  0.00000000000E+00 0. -1.
         -1    1    6    6    0  503 -0.27858161096E+03  0.35824034050E+03  0.42017577395E+02  0.45575139313E+03  0.00000000000E+00 0.  1.
<mgrwt>
<rscale>  0 0.18765867E+04</rscale>
<asrwt>0</asrwt>
<pdfrwt beam="1">  1        2 0.27963077E+00 0.18765867E+04</pdfrwt>
<pdfrwt beam="2">  1       -1 0.74518760E-01 0.18765867E+04</pdfrwt>
<totfact> 0.16337310E+01</totfact>
</mgrwt>
</event>
<event>
12    7  0.1730932E-007  0.3458010E+04  0.7818608E-02  0.8123814E-01
         -1   -1    0    0    0  501 -0.00000000000E+00  0.00000000000E+00  0.82728944226E+03  0.82728944226E+03  0.00000000000E+00 0.  1.
          2   -1    0    0  501    0  0.00000000000E+00 -0.00000000000E+00 -0.36135585309E+04  0.36135585309E+04  0.00000000000E+00 0. -1.
         24    2    1    2    0    0  0.17536444440E+03 -0.53124614305E+03 -0.32374244152E+04  0.32863880996E+04  0.80341425514E+02 0.  0.
        254    2    1    2    0    0 -0.17536444440E+03  0.53124614305E+03  0.45115532650E+03  0.11544598736E+04  0.90347181370E+03 0.  0.
         23    2    4    4    0    0  0.89908660309E+02 -0.13026939056E+02 -0.21387588827E+03  0.25065513601E+03  0.93977834016E+02 0.  0.
         23    2    4    4    0    0 -0.26527310471E+03  0.54427308211E+03  0.66503121477E+03  0.90380473754E+03  0.89406258137E+02 0.  0.
          4    1    3    3  502    0  0.18085846394E+03 -0.49474450699E+03 -0.30776825342E+04  0.31224368196E+04  0.00000000000E+00 0. -1.
         -3    1    3    3    0  502 -0.54940195422E+01 -0.36501636059E+02 -0.15974188100E+03  0.16395128005E+03  0.00000000000E+00 0.  1.
         13    1    5    5    0    0  0.52503461811E+02 -0.14219925991E+02 -0.28248372128E+02  0.61292661267E+02  0.00000000000E+00 0.  1.
        -13    1    5    5    0    0  0.37405198499E+02  0.11929869348E+01 -0.18562751614E+03  0.18936247475E+03  0.00000000000E+00 0. -1.
          4    1    6    6  503    0 -0.11343032456E+03  0.31961186166E+03  0.33552815901E+03  0.47707161531E+03  0.00000000000E+00 0. -1.
         -4    1    6    6    0  503 -0.15184278015E+03  0.22466122045E+03  0.32950305576E+03  0.42673312223E+03  0.00000000000E+00 0.  1.
<mgrwt>
<rscale>  0 0.34580103E+04</rscale>
<asrwt>0</asrwt>
<pdfrwt beam="1">  1        2 0.55593209E+00 0.34580103E+04</pdfrwt>
<pdfrwt beam="2">  1       -1 0.12727530E+00 0.34580103E+04</pdfrwt>
<totfact> 0.33737914E-01</totfact>
</mgrwt>
</event>
<event>
12    7  0.1730932E-007  0.2056911E+04  0.7818608E-02  0.8580466E-01
         -1   -1    0    0    0  501 -0.00000000000E+00  0.00000000000E+00  0.13444480358E+04  0.13444480358E+04  0.00000000000E+00 0.  1.
          2   -1    0    0  501    0  0.00000000000E+00 -0.00000000000E+00 -0.78673235484E+03  0.78673235484E+03  0.00000000000E+00 0. -1.
         24    2    1    2    0    0  0.32966710802E+03  0.15679627771E+03  0.98265417290E+03  0.10512897358E+04  0.79595290308E+02 0.  0.
        254    2    1    2    0    0 -0.32966710802E+03 -0.15679627771E+03 -0.42493849192E+03  0.10798906549E+04  0.92321483402E+03 0.  0.
         23    2    4    4    0    0 -0.25251132358E+02  0.30124908761E+03  0.85041497615E+02  0.32457935291E+03  0.82043083501E+02 0.  0.
         23    2    4    4    0    0 -0.30441597566E+03 -0.45804536532E+03 -0.50997998954E+03  0.75531130196E+03  0.89111897139E+02 0.  0.
          2    1    3    3  502    0  0.55918494353E+02  0.34620568913E+02  0.27507296423E+03  0.28282609048E+03  0.00000000000E+00 0. -1.
         -1    1    3    3    0  502  0.27374861367E+03  0.12217570880E+03  0.70758120867E+03  0.76846364531E+03  0.00000000000E+00 0.  1.
         13    1    5    5    0    0 -0.43225623095E+02  0.24787258727E+03  0.91836504889E+02  0.26784924424E+03  0.00000000000E+00 0.  1.
        -13    1    5    5    0    0  0.17974490738E+02  0.53376500346E+02 -0.67950072740E+01  0.56730108675E+02  0.00000000000E+00 0. -1.
          2    1    6    6  503    0 -0.29092039122E+03 -0.41478113187E+03 -0.43529823303E+03  0.66795405012E+03  0.00000000000E+00 0. -1.
         -2    1    6    6    0  503 -0.13495584443E+02 -0.43264233447E+02 -0.74681756507E+02  0.87357251847E+02  0.00000000000E+00 0.  1.
<mgrwt>
<rscale>  0 0.20569111E+04</rscale>
<asrwt>0</asrwt>
<pdfrwt beam="1">  1        2 0.12103575E+00 0.20569111E+04</pdfrwt>
<pdfrwt beam="2">  1       -1 0.20683816E+00 0.20569111E+04</pdfrwt>
<totfact> 0.50208274E+00</totfact>
</mgrwt>
</event>
<event>
12    7  0.1730932E-007  0.2678214E+04  0.7818608E-02  0.8342108E-01
          2   -1    0    0  501    0  0.00000000000E+00  0.00000000000E+00  0.17210936567E+04  0.17210936567E+04  0.00000000000E+00 0. -1.
         -1   -1    0    0    0  501 -0.00000000000E+00 -0.00000000000E+00 -0.10419002519E+04  0.10419002519E+04  0.00000000000E+00 0.  1.
         24    2    1    2    0    0 -0.88019542776E+03  0.69093518318E+03 -0.10000007249E+03  0.11263484230E+04  0.80779558006E+02 0.  0.
        254    2    1    2    0    0  0.88019542776E+03 -0.69093518318E+03  0.77919347723E+03  0.16366454856E+04  0.90516879768E+03 0.  0.
         23    2    4    4    0    0 -0.12333649181E+03  0.24311422945E+02  0.24583638379E+03  0.29083527524E+03  0.91360244280E+02 0.  0.
         23    2    4    4    0    0  0.10035319196E+04 -0.71524660612E+03  0.53335709345E+03  0.13458102104E+04  0.89896118448E+02 0.  0.
          4    1    3    3  502    0 -0.41339425435E+03  0.31744217019E+03 -0.86662978025E+02  0.52836995817E+03  0.00000000000E+00 0. -1.
         -3    1    3    3    0  502 -0.46680117342E+03  0.37349301299E+03 -0.13337094461E+02  0.59797846479E+03  0.00000000000E+00 0.  1.
         13    1    5    5    0    0 -0.33747868529E+01 -0.47810146972E+01 -0.72103108167E+01  0.92863270409E+01  0.00000000000E+00 0. -1.
        -13    1    5    5    0    0 -0.11996170495E+03  0.29092437642E+02  0.25304669460E+03  0.28154894820E+03  0.00000000000E+00 0.  1.
          1    1    6    6  503    0  0.55236167054E+03 -0.41391568094E+03  0.34365383570E+03  0.77105613596E+03  0.00000000000E+00 0. -1.
         -1    1    6    6    0  503  0.45117024903E+03 -0.30133092518E+03  0.18970325774E+03  0.57475407444E+03  0.00000000000E+00 0.  1.
<mgrwt>
<rscale>  0 0.26782143E+04</rscale>
<asrwt>0</asrwt>
<pdfrwt beam="1">  1        2 0.26478364E+00 0.26782143E+04</pdfrwt>
<pdfrwt beam="2">  1       -1 0.16029235E+00 0.26782143E+04</pdfrwt>
<totfact> 0.27766613E+00</totfact>
</mgrwt>
</event>
<event>
12    7  0.1730932E-007  0.1229926E+04  0.7818608E-02  0.9087058E-01
         -1   -1    0    0    0  501 -0.00000000000E+00  0.00000000000E+00  0.97537125904E+03  0.97537125904E+03  0.00000000000E+00 0.  1.
          2   -1    0    0  501    0  0.00000000000E+00 -0.00000000000E+00 -0.38772870645E+03  0.38772870645E+03  0.00000000000E+00 0. -1.
         24    2    1    2    0    0  0.24224099815E+03  0.13585721755E+03  0.15602858869E+03  0.32864233428E+03  0.80764959308E+02 0.  0.
        254    2    1    2    0    0 -0.24224099815E+03 -0.13585721755E+03  0.43161396390E+03  0.10344576312E+04  0.89815037282E+03 0.  0.
         23    2    4    4    0    0  0.26293029398E+03  0.15382269825E+03  0.28539506419E+03  0.42742399036E+03  0.91908448347E+02 0.  0.
         23    2    4    4    0    0 -0.50517129213E+03 -0.28967991580E+03  0.14621889971E+03  0.60703364085E+03  0.89428107930E+02 0.  0.
          2    1    3    3  502    0  0.24473291712E+03  0.12375643574E+03  0.13859761073E+03  0.30727699850E+03  0.00000000000E+00 0. -1.
         -1    1    3    3    0  502 -0.24919189696E+01  0.12100781803E+02  0.17430977961E+02  0.21365335782E+02  0.00000000000E+00 0.  1.
         13    1    5    5    0    0  0.19554017626E+03  0.73582011729E+02  0.22248323027E+03  0.30520331048E+03  0.00000000000E+00 0.  1.
        -13    1    5    5    0    0  0.67390117726E+02  0.80240686524E+02  0.62911833918E+02  0.12222067987E+03  0.00000000000E+00 0. -1.
          1    1    6    6  503    0 -0.20083906282E+03 -0.16533279109E+03  0.73683100457E+02  0.27037096785E+03  0.00000000000E+00 0. -1.
         -1    1    6    6    0  503 -0.30433222931E+03 -0.12434712471E+03  0.72535799255E+02  0.33666267300E+03  0.00000000000E+00 0.  1.
<mgrwt>
<rscale>  0 0.12299259E+04</rscale>
<asrwt>0</asrwt>
<pdfrwt beam="1">  1        2 0.59650571E-01 0.12299259E+04</pdfrwt>
<pdfrwt beam="2">  1       -1 0.15005712E+00 0.12299259E+04</pdfrwt>
<totfact> 0.32363560E+01</totfact>
</mgrwt>
</event>
<event>
12    7  0.1730932E-007  0.1200983E+04  0.7818608E-02  0.9111996E-01
          2   -1    0    0  501    0  0.00000000000E+00  0.00000000000E+00  0.33379275213E+04  0.33379275213E+04  0.00000000000E+00 0. -1.
         -1   -1    0    0    0  501 -0.00000000000E+00 -0.00000000000E+00 -0.10802815869E+03  0.10802815869E+03  0.00000000000E+00 0.  1.
         24    2    1    2    0    0 -0.11137228745E+03 -0.17897001434E+03  0.24959455445E+03  0.33649299462E+03  0.80598023355E+02 0.  0.
        254    2    1    2    0    0  0.11137228745E+03  0.17897001434E+03  0.29803048081E+04  0.31094626853E+04  0.86145655126E+03 0.  0.
         23    2    4    4    0    0 -0.23780531198E+02 -0.22925319453E+03  0.21983418722E+04  0.22123142026E+04  0.92220406058E+02 0.  0.
         23    2    4    4    0    0  0.13515281865E+03  0.40822320887E+03  0.78196293593E+03  0.89714848270E+03  0.92178599365E+02 0.  0.
          2    1    3    3  502    0 -0.18868688156E+02 -0.10616235677E+03  0.12506419545E+03  0.16512881750E+03  0.00000000000E+00 0. -1.
         -1    1    3    3    0  502 -0.92503599297E+02 -0.72807657575E+02  0.12453035900E+03  0.17136417711E+03  0.00000000000E+00 0.  1.
         13    1    5    5    0    0  0.35607988314E+02 -0.91122200659E+02  0.89021646149E+03  0.89557608979E+03  0.00000000000E+00 0.  1.
        -13    1    5    5    0    0 -0.59388519512E+02 -0.13813099387E+03  0.13081254107E+04  0.13167381128E+04  0.00000000000E+00 0. -1.
          1    1    6    6  503    0  0.12093289400E+03  0.30954976887E+03  0.66533933357E+03  0.74372189228E+03  0.00000000000E+00 0. -1.
         -1    1    6    6    0  503  0.14219924647E+02  0.98673440003E+02  0.11662360236E+03  0.15342659041E+03  0.00000000000E+00 0.  1.
<mgrwt>
<rscale>  0 0.12009832E+04</rscale>
<asrwt>0</asrwt>
<pdfrwt beam="1">  1        2 0.51352723E+00 0.12009832E+04</pdfrwt>
<pdfrwt beam="2">  1       -1 0.16619719E-01 0.12009832E+04</pdfrwt>
<totfact> 0.33560084E+01</totfact>
</mgrwt>
</event>
<event>
12    7  0.1730932E-007  0.1520776E+04  0.7818608E-02  0.8870753E-01
         -1   -1    0    0    0  501 -0.00000000000E+00  0.00000000000E+00  0.70670549727E+03  0.70670549727E+03  0.00000000000E+00 0.  1.
          2   -1    0    0  501    0  0.00000000000E+00 -0.00000000000E+00 -0.81814847815E+03  0.81814847815E+03  0.00000000000E+00 0. -1.
         24    2    1    2    0    0 -0.76608566913E+02  0.31043586914E+03 -0.37307867813E+03  0.49748585871E+03  0.77879253828E+02 0.  0.
        254    2    1    2    0    0  0.76608566913E+02 -0.31043586914E+03  0.26163569725E+03  0.10273681167E+04  0.94063420509E+03 0.  0.
         23    2    4    4    0    0 -0.86315996128E+02 -0.61227431238E+03  0.24857528270E+03  0.67255460735E+03  0.90607637169E+02 0.  0.
         23    2    4    4    0    0  0.16292456304E+03  0.30183844324E+03  0.13060414548E+02  0.35481350936E+03  0.89839818206E+02 0.  0.
          2    1    3    3  502    0 -0.51251202467E+02  0.18567009538E+03 -0.16538163604E+03  0.25387232148E+03  0.00000000000E+00 0. -1.
         -1    1    3    3    0  502 -0.25357364447E+02  0.12476577375E+03 -0.20769704209E+03  0.24361353724E+03  0.00000000000E+00 0.  1.
         13    1    5    5    0    0  0.36461427395E+01 -0.17428632114E+03  0.38467607487E+02  0.17851827055E+03  0.00000000000E+00 0. -1.
        -13    1    5    5    0    0 -0.89962138868E+02 -0.43798799123E+03  0.21010767521E+03  0.49403633680E+03  0.00000000000E+00 0.  1.
          1    1    6    6  503    0  0.47159025737E+02  0.10971036725E+03 -0.36938009582E+02  0.12499901977E+03  0.00000000000E+00 0. -1.
         -1    1    6    6    0  503  0.11576553731E+03  0.19212807599E+03  0.49998424130E+02  0.22981448959E+03  0.00000000000E+00 0.  1.
<mgrwt>
<rscale>  0 0.15207762E+04</rscale>
<asrwt>0</asrwt>
<pdfrwt beam="1">  1        2 0.12586900E+00 0.15207762E+04</pdfrwt>
<pdfrwt beam="2">  1       -1 0.10872392E+00 0.15207762E+04</pdfrwt>
<totfact> 0.28890117E+01</totfact>
</mgrwt>
</event>
<event>
12    7  0.1730932E-007  0.1531344E+04  0.7818608E-02  0.8863873E-01
          2   -1    0    0  501    0  0.00000000000E+00  0.00000000000E+00  0.15146964294E+04  0.15146964294E+04  0.00000000000E+00 0. -1.
         -1   -1    0    0    0  501 -0.00000000000E+00 -0.00000000000E+00 -0.38704376974E+03  0.38704376974E+03  0.00000000000E+00 0.  1.
         24    2    1    2    0    0 -0.17424645575E+03  0.30818357066E+03  0.85622662247E+03  0.92994969056E+03  0.79645824601E+02 0.  0.
        254    2    1    2    0    0  0.17424645575E+03 -0.30818357066E+03  0.27142603720E+03  0.97179050860E+03  0.86334567721E+03 0.  0.
         23    2    4    4    0    0  0.47211115493E+03 -0.22065245080E+03  0.35575223993E+03  0.63732316257E+03  0.89692311136E+02 0.  0.
         23    2    4    4    0    0 -0.29786469918E+03 -0.87531119860E+02 -0.84326202734E+02  0.33446734603E+03  0.91500935161E+02 0.  0.
          2    1    3    3  502    0 -0.10906112196E+03  0.11677002410E+03  0.41054738628E+03  0.44054366780E+03  0.00000000000E+00 0. -1.
         -1    1    3    3    0  502 -0.65185333794E+02  0.19141354656E+03  0.44567923618E+03  0.48940602276E+03  0.00000000000E+00 0.  1.
         13    1    5    5    0    0  0.66638042722E+02 -0.42017280090E+02  0.19655560346E+02  0.81193728923E+02  0.00000000000E+00 0. -1.
        -13    1    5    5    0    0  0.40547311220E+03 -0.17863517071E+03  0.33609667959E+03  0.55612943364E+03  0.00000000000E+00 0.  1.
          4    1    6    6  503    0 -0.90911265893E+02 -0.22417404507E+02  0.16753021266E+02  0.95121301571E+02  0.00000000000E+00 0. -1.
         -4    1    6    6    0  503 -0.20695343328E+03 -0.65113715353E+02 -0.10107922400E+03  0.23934604446E+03  0.00000000000E+00 0.  1.
<mgrwt>
<rscale>  0 0.15313443E+04</rscale>
<asrwt>0</asrwt>
<pdfrwt beam="1">  1        2 0.23303022E+00 0.15313443E+04</pdfrwt>
<pdfrwt beam="2">  1       -1 0.59545197E-01 0.15313443E+04</pdfrwt>
<totfact> 0.39109004E+01</totfact>
</mgrwt>
</event>
<event>
12    7  0.1730932E-007  0.1316456E+04  0.7818608E-02  0.9016616E-01
         -1   -1    0    0    0  501 -0.00000000000E+00  0.00000000000E+00  0.20451007515E+03  0.20451007515E+03  0.00000000000E+00 0.  1.
          2   -1    0    0  501    0  0.00000000000E+00 -0.00000000000E+00 -0.21185479286E+04  0.21185479286E+04  0.00000000000E+00 0. -1.
         24    2    1    2    0    0  0.98205203213E+02  0.29465551048E+03 -0.23745541024E+03  0.39883787079E+03  0.78869788469E+02 0.  0.
        254    2    1    2    0    0 -0.98205203213E+02 -0.29465551048E+03 -0.16765824433E+04  0.19242201330E+04  0.89175573976E+03 0.  0.
         23    2    4    4    0    0 -0.11373788260E+03 -0.59313783860E+03 -0.12900794256E+04  0.14267558213E+04  0.81107631609E+02 0.  0.
         23    2    4    4    0    0  0.15532679383E+02  0.29848232812E+03 -0.38650301769E+03  0.49746431167E+03  0.93558507733E+02 0.  0.
          2    1    3    3  502    0  0.26847646196E+02  0.14569890706E+03 -0.70792516048E+02  0.16419667461E+03  0.00000000000E+00 0. -1.
         -1    1    3    3    0  502  0.71357557017E+02  0.14895660341E+03 -0.16666289419E+03  0.23464119618E+03  0.00000000000E+00 0.  1.
         13    1    5    5    0    0 -0.64837219731E+02 -0.22720310381E+03 -0.42655274152E+03  0.48761906930E+03  0.00000000000E+00 0.  1.
        -13    1    5    5    0    0 -0.48900662865E+02 -0.36593473479E+03 -0.86352668406E+03  0.93913675204E+03  0.00000000000E+00 0. -1.
          3    1    6    6  503    0  0.20424474632E+02  0.30044249923E+03 -0.38874505492E+03  0.49173730002E+03  0.00000000000E+00 0. -1.
         -3    1    6    6    0  503 -0.48917952493E+01 -0.19601711018E+01  0.22420372290E+01  0.57270116506E+01  0.00000000000E+00 0.  1.
<mgrwt>
<rscale>  0 0.13164564E+04</rscale>
<asrwt>0</asrwt>
<pdfrwt beam="1">  1        2 0.32593045E+00 0.13164564E+04</pdfrwt>
<pdfrwt beam="2">  1       -1 0.31463089E-01 0.13164564E+04</pdfrwt>
<totfact> 0.60116850E+01</totfact>
</mgrwt>
</event>
<event>
12    7  0.1730932E-007  0.1967459E+04  0.7818608E-02  0.8621988E-01
          2   -1    0    0  501    0  0.00000000000E+00  0.00000000000E+00  0.24467498961E+04  0.24467498961E+04  0.00000000000E+00 0. -1.
         -1   -1    0    0    0  501 -0.00000000000E+00 -0.00000000000E+00 -0.39551399413E+03  0.39551399413E+03  0.00000000000E+00 0.  1.
         24    2    1    2    0    0  0.60137607146E+03 -0.25666858958E+03  0.23519367867E+03  0.69993653463E+03  0.84042500088E+02 0.  0.
        254    2    1    2    0    0 -0.60137607146E+03  0.25666858958E+03  0.18160422233E+04  0.21423273556E+04  0.92952955711E+03 0.  0.
         23    2    4    4    0    0 -0.44871348299E+03 -0.17755823993E+03  0.14951251163E+04  0.15738916720E+04  0.94154997136E+02 0.  0.
         23    2    4    4    0    0 -0.15266258848E+03  0.43422682951E+03  0.32091710701E+03  0.56843568360E+03  0.90953457485E+02 0.  0.
          4    1    3    3  502    0  0.50116710221E+02 -0.31169683110E+01  0.31705705709E+01  0.50313543431E+02  0.00000000000E+00 0. -1.
         -3    1    3    3    0  502  0.55125936124E+03 -0.25355162127E+03  0.23202310810E+03  0.64962299120E+03  0.00000000000E+00 0.  1.
         13    1    5    5    0    0 -0.34117220742E+03 -0.89638441926E+02  0.10768835273E+04  0.11331865057E+04  0.00000000000E+00 0. -1.
        -13    1    5    5    0    0 -0.10754127557E+03 -0.87919797999E+02  0.41824158901E+03  0.44070516631E+03  0.00000000000E+00 0.  1.
          4    1    6    6  503    0 -0.25184029533E+02  0.16146179620E+03  0.75550403652E+02  0.18003335932E+03  0.00000000000E+00 0. -1.
         -4    1    6    6    0  503 -0.12747855895E+03  0.27276503330E+03  0.24536670336E+03  0.38840232427E+03  0.00000000000E+00 0.  1.
<mgrwt>
<rscale>  0 0.19674591E+04</rscale>
<asrwt>0</asrwt>
<pdfrwt beam="1">  1        2 0.37642305E+00 0.19674591E+04</pdfrwt>
<pdfrwt beam="2">  1       -1 0.60848309E-01 0.19674591E+04</pdfrwt>
<totfact> 0.10859611E+01</totfact>
</mgrwt>
</event>
<event>
12    7  0.1730932E-007  0.2209472E+04  0.7818608E-02  0.8514496E-01
          2   -1    0    0  501    0  0.00000000000E+00  0.00000000000E+00  0.24217959198E+04  0.24217959198E+04  0.00000000000E+00 0. -1.
         -1   -1    0    0    0  501 -0.00000000000E+00 -0.00000000000E+00 -0.50394070937E+03  0.50394070937E+03  0.00000000000E+00 0.  1.
         24    2    1    2    0    0 -0.34582086018E+03 -0.63390077640E+03  0.15661765888E+04  0.17264225050E+04  0.78761010953E+02 0.  0.
        254    2    1    2    0    0  0.34582086018E+03  0.63390077640E+03  0.35167862164E+03  0.11993141242E+04  0.89064822117E+03 0.  0.
         23    2    4    4    0    0 -0.67232377303E+02  0.70706814687E+03  0.18742773517E+03  0.74016240624E+03  0.90805698209E+02 0.  0.
         23    2    4    4    0    0  0.41305323748E+03 -0.73167370467E+02  0.16425088648E+03  0.45915171794E+03  0.88744043663E+02 0.  0.
          4    1    3    3  502    0 -0.33632251700E+03 -0.61224531733E+03  0.15407158221E+04  0.16916744393E+04  0.00000000000E+00 0. -1.
         -3    1    3    3    0  502 -0.94983431771E+01 -0.21655459065E+02  0.25460766644E+02  0.34748065680E+02  0.00000000000E+00 0.  1.
         13    1    5    5    0    0  0.82129527873E+01  0.33395032452E+03  0.11002235635E+03  0.35170327086E+03  0.00000000000E+00 0. -1.
        -13    1    5    5    0    0 -0.75445330090E+02  0.37311782235E+03  0.77405378819E+02  0.38845913537E+03  0.00000000000E+00 0.  1.
          3    1    6    6  503    0  0.33245417444E+02  0.17629542989E+02  0.75824837125E+01  0.38386880914E+02  0.00000000000E+00 0. -1.
         -3    1    6    6    0  503  0.37980782004E+03 -0.90796913456E+02  0.15666840276E+03  0.42076483703E+03  0.00000000000E+00 0.  1.
<mgrwt>
<rscale>  0 0.22094719E+04</rscale>
<asrwt>0</asrwt>
<pdfrwt beam="1">  1        2 0.37258398E+00 0.22094719E+04</pdfrwt>
<pdfrwt beam="2">  1       -1 0.77529341E-01 0.22094719E+04</pdfrwt>
<totfact> 0.66936986E+00</totfact>
</mgrwt>
</event>
<event>
12    7  0.1730932E-007  0.1423543E+04  0.7818608E-02  0.8936951E-01
          2   -1    0    0  501    0  0.00000000000E+00  0.00000000000E+00  0.36134356558E+03  0.36134356558E+03  0.00000000000E+00 0. -1.
         -1   -1    0    0    0  501 -0.00000000000E+00 -0.00000000000E+00 -0.14020413947E+04  0.14020413947E+04  0.00000000000E+00 0.  1.
         24    2    1    2    0    0 -0.10888760545E+03 -0.12895799336E+03  0.16846924834E+03  0.25084454726E+03  0.77810183042E+02 0.  0.
        254    2    1    2    0    0  0.10888760545E+03  0.12895799336E+03 -0.12091670775E+04  0.15125404130E+04  0.89286438227E+03 0.  0.
         23    2    4    4    0    0  0.28215502057E+03  0.44549702480E+03 -0.69992874272E+03  0.88118034188E+03  0.92192707356E+02 0.  0.
         23    2    4    4    0    0 -0.17326741512E+03 -0.31653903144E+03 -0.50923833477E+03  0.63136007116E+03  0.95253883343E+02 0.  0.
          4    1    3    3  502    0 -0.79993947276E+02 -0.13404839426E+03  0.13546348339E+03  0.20668420098E+03  0.00000000000E+00 0. -1.
         -3    1    3    3    0  502 -0.28893658170E+02  0.50904008987E+01  0.33005764952E+02  0.44160346282E+02  0.00000000000E+00 0.  1.
         13    1    5    5    0    0  0.18109716871E+02  0.81999963816E+00 -0.25677280755E+02  0.31431783143E+02  0.00000000000E+00 0. -1.
        -13    1    5    5    0    0  0.26404530369E+03  0.44467702516E+03 -0.67425146197E+03  0.84974855874E+03  0.00000000000E+00 0.  1.
          3    1    6    6  503    0 -0.26612832486E+01 -0.23520361793E+02 -0.57727592027E+01  0.24364207277E+02  0.00000000000E+00 0. -1.
         -3    1    6    6    0  503 -0.17060613187E+03 -0.29301866965E+03 -0.50346557556E+03  0.60699586388E+03  0.00000000000E+00 0.  1.
<mgrwt>
<rscale>  0 0.14235430E+04</rscale>
<asrwt>0</asrwt>
<pdfrwt beam="1">  1        2 0.55591319E-01 0.14235430E+04</pdfrwt>
<pdfrwt beam="2">  1       -1 0.21569867E+00 0.14235430E+04</pdfrwt>
<totfact> 0.11664830E+01</totfact>
</mgrwt>
</event>
<event>
12    7  0.1730932E-007  0.1538243E+04  0.7818608E-02  0.8859413E-01
          2   -1    0    0  501    0  0.00000000000E+00  0.00000000000E+00  0.80994984127E+03  0.80994984127E+03  0.00000000000E+00 0. -1.
         -1   -1    0    0    0  501 -0.00000000000E+00 -0.00000000000E+00 -0.73035091425E+03  0.73035091425E+03  0.00000000000E+00 0.  1.
         24    2    1    2    0    0  0.26283825018E+03  0.27462566355E+02 -0.38869837897E+03  0.47665721369E+03  0.79230873042E+02 0.  0.
        254    2    1    2    0    0 -0.26283825018E+03 -0.27462566355E+02  0.46829730599E+03  0.10636435418E+04  0.91771296109E+03 0.  0.
         23    2    4    4    0    0 -0.30368473026E+03 -0.30335113512E+03 -0.76102430291E+02  0.44542435281E+03  0.91460087491E+02 0.  0.
         23    2    4    4    0    0  0.40846480082E+02  0.27588856876E+03  0.54439973628E+03  0.61821918902E+03  0.89671374998E+02 0.  0.
          4    1    3    3  502    0  0.27098026156E+02  0.12417441171E+02 -0.12237196934E+02  0.32221807144E+02  0.00000000000E+00 0. -1.
         -3    1    3    3    0  502  0.23574022402E+03  0.15045125184E+02 -0.37646118203E+03  0.44443540655E+03  0.00000000000E+00 0.  1.
         13    1    5    5    0    0 -0.26679274930E+03 -0.25018625265E+03 -0.95236335828E+02  0.37794376798E+03  0.00000000000E+00 0.  1.
        -13    1    5    5    0    0 -0.36891980965E+02 -0.53164882466E+02  0.19133905537E+02  0.67480584824E+02  0.00000000000E+00 0. -1.
          4    1    6    6  503    0  0.68599401648E+02  0.20116960757E+03  0.37620985253E+03  0.43209830138E+03  0.00000000000E+00 0.  1.
         -4    1    6    6    0  503 -0.27752921566E+02  0.74718961199E+02  0.16818988375E+03  0.18612088763E+03  0.00000000000E+00 0. -1.
<mgrwt>
<rscale>  0 0.15382426E+04</rscale>
<asrwt>0</asrwt>
<pdfrwt beam="1">  1        2 0.12460767E+00 0.15382426E+04</pdfrwt>
<pdfrwt beam="2">  1       -1 0.11236168E+00 0.15382426E+04</pdfrwt>
<totfact> 0.27049362E+01</totfact>
</mgrwt>
</event>
<event>
12    7  0.1730932E-007  0.1930515E+04  0.7818608E-02  0.8639815E-01
          2   -1    0    0  501    0  0.00000000000E+00  0.00000000000E+00  0.23504769819E+04  0.23504769819E+04  0.00000000000E+00 0. -1.
         -1   -1    0    0    0  501 -0.00000000000E+00 -0.00000000000E+00 -0.39639690463E+03  0.39639690463E+03  0.00000000000E+00 0.  1.
         24    2    1    2    0    0  0.25781531382E+03 -0.37121141563E+03  0.16298658451E+04  0.16932617316E+04  0.80037289439E+02 0.  0.
        254    2    1    2    0    0 -0.25781531382E+03  0.37121141563E+03  0.32421423221E+03  0.10536121549E+04  0.89482794631E+03 0.  0.
         23    2    4    4    0    0 -0.27085052783E+03 -0.18186406168E+03  0.35675833298E+03  0.49202644748E+03  0.91536722199E+02 0.  0.
         23    2    4    4    0    0  0.13035214012E+02  0.55307547730E+03 -0.32544100770E+02  0.56158570744E+03  0.90867969671E+02 0.  0.
          2    1    3    3  502    0  0.19082236991E+03 -0.31910244515E+03  0.12555671717E+04  0.13094611373E+04  0.00000000000E+00 0. -1.
         -1    1    3    3    0  502  0.66992943916E+02 -0.52108970480E+02  0.37429867337E+03  0.38380059435E+03  0.00000000000E+00 0.  1.
         13    1    5    5    0    0 -0.49695175089E+02 -0.76771843402E+02  0.12500232949E+03  0.15488417849E+03  0.00000000000E+00 0. -1.
        -13    1    5    5    0    0 -0.22115535275E+03 -0.10509221827E+03  0.23175600349E+03  0.33714226899E+03  0.00000000000E+00 0.  1.
          3    1    6    6  503    0  0.38097111987E+02  0.15843045943E+03 -0.32446782530E+02  0.16614570146E+03  0.00000000000E+00 0. -1.
         -3    1    6    6    0  503 -0.25061897975E+02  0.39464501787E+03 -0.97318239406E-01  0.39544000598E+03  0.00000000000E+00 0.  1.
<mgrwt>
<rscale>  0 0.19305148E+04</rscale>
<asrwt>0</asrwt>
<pdfrwt beam="1">  1        2 0.36161183E+00 0.19305148E+04</pdfrwt>
<pdfrwt beam="2">  1       -1 0.60984141E-01 0.19305148E+04</pdfrwt>
<totfact> 0.12312840E+01</totfact>
</mgrwt>
</event>
<event>
12    7  0.1730932E-007  0.3354126E+04  0.7818608E-02  0.8149258E-01
         -1   -1    0    0    0  501 -0.00000000000E+00  0.00000000000E+00  0.16608361640E+04  0.16608361640E+04  0.00000000000E+00 0.  1.
          2   -1    0    0  501    0  0.00000000000E+00 -0.00000000000E+00 -0.16934481150E+04  0.16934481150E+04  0.00000000000E+00 0. -1.
         24    2    1    2    0    0  0.12291505670E+04  0.25582161857E+03  0.87132430947E+03  0.15303222784E+04  0.80152396111E+02 0.  0.
        254    2    1    2    0    0 -0.12291505670E+04 -0.25582161857E+03 -0.90393626049E+03  0.18239620005E+04  0.96616810112E+03 0.  0.
         23    2    4    4    0    0 -0.83061446583E+03 -0.56537902505E+03 -0.82949569706E+03  0.13059693175E+04  0.88988280578E+02 0.  0.
         23    2    4    4    0    0 -0.39853610113E+03  0.30955740648E+03 -0.74440563427E+02  0.51799268301E+03  0.90101111861E+02 0.  0.
          2    1    3    3  502    0  0.13099893029E+03  0.36980246882E+01  0.10067287753E+03  0.16525563045E+03  0.00000000000E+00 0. -1.
         -1    1    3    3    0  502  0.10981516367E+04  0.25212359389E+03  0.77065143194E+03  0.13650666479E+04  0.00000000000E+00 0.  1.
         13    1    5    5    0    0 -0.64893549993E+03 -0.48330156775E+03 -0.67616988909E+03  0.10544683055E+04  0.00000000000E+00 0. -1.
        -13    1    5    5    0    0 -0.18167896590E+03 -0.82077457301E+02 -0.15332580798E+03  0.25150101201E+03  0.00000000000E+00 0.  1.
          1    1    6    6  503    0 -0.29754654816E+03  0.27678026442E+03 -0.55681182202E+02  0.41017271624E+03  0.00000000000E+00 0. -1.
         -1    1    6    6    0  503 -0.10098955297E+03  0.32777142056E+02 -0.18759381224E+02  0.10781996677E+03  0.00000000000E+00 0.  1.
<mgrwt>
<rscale>  0 0.33541257E+04</rscale>
<asrwt>0</asrwt>
<pdfrwt beam="1">  1        2 0.26053048E+00 0.33541257E+04</pdfrwt>
<pdfrwt beam="2">  1       -1 0.25551325E+00 0.33541257E+04</pdfrwt>
<totfact> 0.60064051E-01</totfact>
</mgrwt>
</event>
<event>
12    7  0.1730932E-007  0.1140854E+04  0.7818608E-02  0.9166263E-01
          2   -1    0    0  501    0  0.00000000000E+00  0.00000000000E+00  0.83671813011E+03  0.83671813011E+03  0.00000000000E+00 0. -1.
         -1   -1    0    0    0  501 -0.00000000000E+00 -0.00000000000E+00 -0.38888448848E+03  0.38888448848E+03  0.00000000000E+00 0.  1.
         24    2    1    2    0    0 -0.75741431555E+02 -0.12783196723E+03 -0.83335864891E+02  0.18940864728E+03  0.82782806114E+02 0.  0.
        254    2    1    2    0    0  0.75741431555E+02  0.12783196723E+03  0.53116950652E+03  0.10361939713E+04  0.87719959258E+03 0.  0.
         23    2    4    4    0    0  0.27344000831E+03 -0.78180369217E+02 -0.11782167330E+03  0.32119354146E+03  0.91660984606E+02 0.  0.
         23    2    4    4    0    0 -0.19769857675E+03  0.20601233645E+03  0.64899117982E+03  0.71500042986E+03  0.92251033522E+02 0.  0.
          2    1    3    3  502    0 -0.35750379101E+02 -0.87463385187E+02 -0.76932134258E+01  0.94800416070E+02  0.00000000000E+00 0. -1.
         -1    1    3    3    0  502 -0.39991052454E+02 -0.40368582047E+02 -0.75642651465E+02  0.94608231214E+02  0.00000000000E+00 0.  1.
         13    1    5    5    0    0  0.63590486771E+02 -0.38488353316E+02  0.55716304009E+01  0.74539562744E+02  0.00000000000E+00 0. -1.
        -13    1    5    5    0    0  0.20984952154E+03 -0.39692015901E+02 -0.12339330370E+03  0.24665397871E+03  0.00000000000E+00 0.  1.
          3    1    6    6  503    0 -0.88145020957E+02  0.10484649464E+03  0.20426745946E+03  0.24594212155E+03  0.00000000000E+00 0. -1.
         -3    1    6    6    0  503 -0.10955355580E+03  0.10116584181E+03  0.44472372037E+03  0.46905830831E+03  0.00000000000E+00 0.  1.
<mgrwt>
<rscale>  0 0.11408535E+04</rscale>
<asrwt>0</asrwt>
<pdfrwt beam="1">  1        2 0.12872587E+00 0.11408535E+04</pdfrwt>
<pdfrwt beam="2">  1       -1 0.59828383E-01 0.11408535E+04</pdfrwt>
<totfact> 0.10383988E+02</totfact>
</mgrwt>
</event>
<event>
12    7  0.1730932E-007  0.1811063E+04  0.7818608E-02  0.8700439E-01
         -1   -1    0    0    0  501 -0.00000000000E+00  0.00000000000E+00  0.42605358688E+03  0.42605358688E+03  0.00000000000E+00 0.  1.
          2   -1    0    0  501    0  0.00000000000E+00 -0.00000000000E+00 -0.19246097424E+04  0.19246097424E+04  0.00000000000E+00 0. -1.
         24    2    1    2    0    0  0.65205563871E+03  0.14219868966E+03 -0.57763450545E+03  0.88633474822E+03  0.80812379611E+02 0.  0.
        254    2    1    2    0    0 -0.65205563871E+03 -0.14219868966E+03 -0.92092165003E+03  0.14643285810E+04  0.92236895243E+03 0.  0.
         23    2    4    4    0    0 -0.85133975082E+03 -0.22284210237E+03 -0.83266452156E+03  0.12148220078E+04  0.89578632024E+02 0.  0.
         23    2    4    4    0    0  0.19928411211E+03  0.80643412716E+02 -0.88257128462E+02  0.24950657319E+03  0.90811298796E+02 0.  0.
          2    1    3    3  502    0  0.63353401976E+03  0.15154698171E+03 -0.56238364328E+03  0.86058538454E+03  0.00000000000E+00 0. -1.
         -1    1    3    3    0  502  0.18521618950E+02 -0.93482920511E+01 -0.15250862172E+02  0.25749363677E+02  0.00000000000E+00 0.  1.
         13    1    5    5    0    0 -0.70732438043E+03 -0.16338879236E+03 -0.72083792263E+03  0.10230400712E+04  0.00000000000E+00 0. -1.
        -13    1    5    5    0    0 -0.14401537039E+03 -0.59453310012E+02 -0.11182659894E+03  0.19178193661E+03  0.00000000000E+00 0.  1.
          4    1    6    6  503    0  0.12965058577E+03  0.43808561766E+02 -0.80568127205E+01  0.13708893721E+03  0.00000000000E+00 0. -1.
         -4    1    6    6    0  503  0.69633526340E+02  0.36834850950E+02 -0.80200315742E+02  0.11241763598E+03  0.00000000000E+00 0.  1.
<mgrwt>
<rscale>  0 0.18110625E+04</rscale>
<asrwt>0</asrwt>
<pdfrwt beam="1">  1        2 0.29609381E+00 0.18110625E+04</pdfrwt>
<pdfrwt beam="2">  1       -1 0.65546706E-01 0.18110625E+04</pdfrwt>
<totfact> 0.18648786E+01</totfact>
</mgrwt>
</event>
<event>
12    7  0.1730932E-007  0.1250780E+04  0.7818608E-02  0.9069534E-01
          2   -1    0    0  501    0  0.00000000000E+00  0.00000000000E+00  0.34715150591E+04  0.34715150591E+04  0.00000000000E+00 0. -1.
         -1   -1    0    0    0  501 -0.00000000000E+00 -0.00000000000E+00 -0.11266346148E+03  0.11266346148E+03  0.00000000000E+00 0.  1.
         24    2    1    2    0    0 -0.97715375275E+02  0.22319489620E+03  0.12153997111E+04  0.12423735466E+04  0.83254521351E+02 0.  0.
        254    2    1    2    0    0  0.97715375275E+02 -0.22319489620E+03  0.21434518865E+04  0.23418049740E+04  0.91120814858E+03 0.  0.
         23    2    4    4    0    0  0.17415510122E+03 -0.31295280878E+03  0.21614575835E+04  0.21925823692E+04  0.85141650285E+02 0.  0.
         23    2    4    4    0    0 -0.76439725948E+02  0.89757912580E+02 -0.18005697009E+02  0.14922260475E+03  0.89686487669E+02 0.  0.
          2    1    3    3  502    0 -0.10728993918E+03  0.18618882629E+03  0.11004530033E+04  0.11212378082E+04  0.00000000000E+00 0. -1.
         -1    1    3    3    0  502  0.95745639054E+01  0.37006069913E+02  0.11494670776E+03  0.12113573837E+03  0.00000000000E+00 0.  1.
         13    1    5    5    0    0  0.16782473005E+03 -0.25245136117E+03  0.19076750393E+04  0.19316109560E+04  0.00000000000E+00 0. -1.
        -13    1    5    5    0    0  0.63303711709E+01 -0.60501447615E+02  0.25378254424E+03  0.26097141323E+03  0.00000000000E+00 0.  1.
          2    1    6    6  503    0 -0.95064004505E+02  0.80976999576E+02 -0.25231192880E+02  0.12740114798E+03  0.00000000000E+00 0. -1.
         -2    1    6    6    0  503  0.18624278558E+02  0.87809130039E+01  0.72254958711E+01  0.21821456770E+02  0.00000000000E+00 0.  1.
<mgrwt>
<rscale>  0 0.12507804E+04</rscale>
<asrwt>0</asrwt>
<pdfrwt beam="1">  1        2 0.53407916E+00 0.12507804E+04</pdfrwt>
<pdfrwt beam="2">  1       -1 0.17332843E-01 0.12507804E+04</pdfrwt>
<totfact> 0.25303452E+01</totfact>
</mgrwt>
</event>
<event>
12    7  0.1730932E-007  0.1961134E+04  0.7818608E-02  0.8625011E-01
          2   -1    0    0  501    0  0.00000000000E+00  0.00000000000E+00  0.35018387665E+04  0.35018387665E+04  0.00000000000E+00 0. -1.
         -1   -1    0    0    0  501 -0.00000000000E+00 -0.00000000000E+00 -0.27457332642E+03  0.27457332642E+03  0.00000000000E+00 0.  1.
         24    2    1    2    0    0 -0.22869023519E+03  0.47090173575E+03  0.18653583097E+03  0.56426207655E+03  0.97715947500E+02 0.  0.
        254    2    1    2    0    0  0.22869023519E+03 -0.47090173575E+03  0.30407296091E+04  0.32121500164E+04  0.89320966383E+03 0.  0.
         23    2    4    4    0    0  0.49893751918E+03 -0.18344439751E+03  0.10512298415E+04  0.11819303401E+04  0.96356910454E+02 0.  0.
         23    2    4    4    0    0 -0.27024728399E+03 -0.28745733825E+03  0.19894997677E+04  0.20302196763E+04  0.89539336234E+02 0.  0.
          2    1    3    3  502    0 -0.20633240486E+02  0.36992565645E+01  0.99100523661E+01  0.23186725728E+02  0.00000000000E+00 0. -1.
         -1    1    3    3    0  502 -0.20805699470E+03  0.46720247919E+03  0.17662577860E+03  0.54107535083E+03  0.00000000000E+00 0.  1.
         13    1    5    5    0    0  0.10438228468E+03 -0.23853244218E+02  0.14041709807E+03  0.17658312503E+03  0.00000000000E+00 0.  1.
        -13    1    5    5    0    0  0.39455523450E+03 -0.15959115329E+03  0.91081274339E+03  0.10053472150E+04  0.00000000000E+00 0. -1.
          2    1    6    6  503    0 -0.20166654080E+02 -0.48604850163E+01  0.21735445824E+03  0.21834211405E+03  0.00000000000E+00 0.  1.
         -2    1    6    6    0  503 -0.25008062991E+03 -0.28259685323E+03  0.17721453094E+04  0.18118775623E+04  0.00000000000E+00 0. -1.
<mgrwt>
<rscale>  0 0.19611339E+04</rscale>
<asrwt>0</asrwt>
<pdfrwt beam="1">  1        2 0.53874439E+00 0.19611339E+04</pdfrwt>
<pdfrwt beam="2">  1       -1 0.42242053E-01 0.19611339E+04</pdfrwt>
<totfact> 0.47659109E+00</totfact>
</mgrwt>
</event>
<event>
12    7  0.1730932E-007  0.1505879E+04  0.7818608E-02  0.8880553E-01
         -1   -1    0    0    0  501 -0.00000000000E+00  0.00000000000E+00  0.18267974761E+04  0.18267974761E+04  0.00000000000E+00 0.  1.
          2   -1    0    0  501    0  0.00000000000E+00 -0.00000000000E+00 -0.31033427727E+03  0.31033427727E+03  0.00000000000E+00 0. -1.
         24    2    1    2    0    0  0.20561914347E+03 -0.40236978852E+03  0.26612746685E+03  0.53056790510E+03  0.80608898035E+02 0.  0.
        254    2    1    2    0    0 -0.20561914347E+03  0.40236978852E+03  0.12503357320E+04  0.16065638483E+04  0.90195746963E+03 0.  0.
         23    2    4    4    0    0 -0.28543300231E+03  0.58160554515E+03  0.12256779938E+04  0.13895676326E+04  0.94205372174E+02 0.  0.
         23    2    4    4    0    0  0.79813858842E+02 -0.17923575663E+03  0.24657738132E+02  0.21699621562E+03  0.89351245236E+02 0.  0.
          4    1    3    3  502    0  0.18516050297E+03 -0.33718263497E+03  0.25454823389E+03  0.46127144347E+03  0.00000000000E+00 0. -1.
         -3    1    3    3    0  502  0.20458640495E+02 -0.65187153546E+02  0.11579232955E+02  0.69296461628E+02  0.00000000000E+00 0.  1.
         13    1    5    5    0    0 -0.13717472051E+03  0.21150297842E+03  0.40263438917E+03  0.47504196149E+03  0.00000000000E+00 0.  1.
        -13    1    5    5    0    0 -0.14825828180E+03  0.37010256673E+03  0.82304360465E+03  0.91452567115E+03  0.00000000000E+00 0. -1.
          4    1    6    6  503    0  0.26062300060E+02 -0.29930477519E+02 -0.29361266639E+02  0.49367610308E+02  0.00000000000E+00 0. -1.
         -4    1    6    6    0  503  0.53751558782E+02 -0.14930527911E+03  0.54019004771E+02  0.16762860531E+03  0.00000000000E+00 0.  1.
<mgrwt>
<rscale>  0 0.15058790E+04</rscale>
<asrwt>0</asrwt>
<pdfrwt beam="1">  1        2 0.47743736E-01 0.15058790E+04</pdfrwt>
<pdfrwt beam="2">  1       -1 0.28104576E+00 0.15058790E+04</pdfrwt>
<totfact> 0.51308957E+00</totfact>
</mgrwt>
</event>
<event>
12    7  0.1730932E-007  0.1237009E+04  0.7818608E-02  0.9081066E-01
         -1   -1    0    0    0  501 -0.00000000000E+00  0.00000000000E+00  0.47186292635E+03  0.47186292635E+03  0.00000000000E+00 0.  1.
          2   -1    0    0  501    0  0.00000000000E+00 -0.00000000000E+00 -0.81071771629E+03  0.81071771629E+03  0.00000000000E+00 0. -1.
         24    2    1    2    0    0  0.27600510111E+03  0.46412541104E+02 -0.25709571894E+02  0.29268719335E+03  0.81681523336E+02 0.  0.
        254    2    1    2    0    0 -0.27600510111E+03 -0.46412541104E+02 -0.31314521805E+03  0.98989344929E+03  0.89637948077E+03 0.  0.
         23    2    4    4    0    0 -0.57919726535E+03 -0.13623453388E+03 -0.26155194712E+03  0.65665224117E+03  0.93559736922E+02 0.  0.
         23    2    4    4    0    0  0.30319216424E+03  0.89821992781E+02 -0.51593270925E+02  0.33324120812E+03  0.91620730955E+02 0.  0.
          4    1    3    3  502    0  0.26723644464E+03  0.49273388370E+02 -0.70040750362E+01  0.27183127342E+03  0.00000000000E+00 0. -1.
         -3    1    3    3    0  502  0.87686564752E+01 -0.28608472659E+01 -0.18705496858E+02  0.20855919931E+02  0.00000000000E+00 0.  1.
         13    1    5    5    0    0 -0.34645612777E+03 -0.81577449030E+02 -0.20587143246E+03  0.41118095209E+03  0.00000000000E+00 0. -1.
        -13    1    5    5    0    0 -0.23274113758E+03 -0.54657084855E+02 -0.55680514664E+02  0.24547128908E+03  0.00000000000E+00 0.  1.
          3    1    6    6  503    0  0.21677301456E+03  0.35863217753E+02 -0.15321084167E+01  0.21972495895E+03  0.00000000000E+00 0. -1.
         -3    1    6    6    0  503  0.86419149676E+02  0.53958775027E+02 -0.50061162509E+02  0.11351624917E+03  0.00000000000E+00 0.  1.
<mgrwt>
<rscale>  0 0.12370087E+04</rscale>
<asrwt>0</asrwt>
<pdfrwt beam="1">  1        2 0.12472580E+00 0.12370087E+04</pdfrwt>
<pdfrwt beam="2">  1       -1 0.72594297E-01 0.12370087E+04</pdfrwt>
<totfact> 0.72795659E+01</totfact>
</mgrwt>
</event>
<event>
12    7  0.1730932E-007  0.1286639E+04  0.7818608E-02  0.9040228E-01
         -1   -1    0    0    0  501 -0.00000000000E+00  0.00000000000E+00  0.28832413671E+03  0.28832413671E+03  0.00000000000E+00 0.  1.
          2   -1    0    0  501    0  0.00000000000E+00 -0.00000000000E+00 -0.14353988497E+04  0.14353988497E+04  0.00000000000E+00 0. -1.
         24    2    1    2    0    0  0.94240114830E+02 -0.74341716126E+02 -0.68137233904E+03  0.69704823076E+03  0.84853294520E+02 0.  0.
        254    2    1    2    0    0 -0.94240114830E+02  0.74341716126E+02 -0.46570237391E+03  0.10266747556E+04  0.90706916095E+03 0.  0.
         23    2    4    4    0    0  0.20473505589E+03  0.39313675312E+03 -0.32954062006E+03  0.55982548254E+03  0.91294035193E+02 0.  0.
         23    2    4    4    0    0 -0.29897517072E+03 -0.31879503700E+03 -0.13616175385E+03  0.46684927308E+03  0.91606725944E+02 0.  0.
          4    1    3    3  502    0  0.10176190373E+03 -0.79862487444E+02 -0.66982912113E+03  0.68220565336E+03  0.00000000000E+00 0. -1.
         -3    1    3    3    0  502 -0.75217889030E+01  0.55207713180E+01 -0.11543217909E+02  0.14842577402E+02  0.00000000000E+00 0.  1.
         13    1    5    5    0    0  0.17051552551E+03  0.26422768771E+03 -0.19309629839E+03  0.36902302888E+03  0.00000000000E+00 0.  1.
        -13    1    5    5    0    0  0.34219530378E+02  0.12890906541E+03 -0.13644432167E+03  0.19080245365E+03  0.00000000000E+00 0. -1.
          4    1    6    6  503    0 -0.18059507791E+03 -0.13057252191E+03 -0.50065439150E+02  0.22840821754E+03  0.00000000000E+00 0.  1.
         -4    1    6    6    0  503 -0.11838009282E+03 -0.18822251509E+03 -0.86096314702E+02  0.23844105554E+03  0.00000000000E+00 0. -1.
<mgrwt>
<rscale>  0 0.12866392E+04</rscale>
<asrwt>0</asrwt>
<pdfrwt beam="1">  1        2 0.22083059E+00 0.12866392E+04</pdfrwt>
<pdfrwt beam="2">  1       -1 0.44357560E-01 0.12866392E+04</pdfrwt>
<totfact> 0.77658065E+01</totfact>
</mgrwt>
</event>
<event>
12    7  0.1730932E-007  0.1563530E+04  0.7818608E-02  0.8843271E-01
         -1   -1    0    0    0  501 -0.00000000000E+00  0.00000000000E+00  0.91870164842E+03  0.91870164842E+03  0.00000000000E+00 0.  1.
          2   -1    0    0  501    0  0.00000000000E+00 -0.00000000000E+00 -0.66523976917E+03  0.66523976917E+03  0.00000000000E+00 0. -1.
         24    2    1    2    0    0 -0.19904909158E+03  0.34452316441E+03 -0.25657968157E+03  0.47986421486E+03  0.78229023023E+02 0.  0.
        254    2    1    2    0    0  0.19904909158E+03 -0.34452316441E+03  0.51004156081E+03  0.11040772027E+04  0.89472192561E+03 0.  0.
         23    2    4    4    0    0 -0.83531686011E+02 -0.58515851328E+03  0.32215301095E+03  0.67859216311E+03  0.85537904636E+02 0.  0.
         23    2    4    4    0    0  0.28258077759E+03  0.24063534888E+03  0.18788854986E+03  0.42548503962E+03  0.89320461159E+02 0.  0.
          2    1    3    3  502    0 -0.18768491350E+03  0.30222399569E+03 -0.19937623824E+03  0.40781840898E+03  0.00000000000E+00 0. -1.
         -1    1    3    3    0  502 -0.11364178080E+02  0.42299168715E+02 -0.57203443325E+02  0.72045805885E+02  0.00000000000E+00 0.  1.
         13    1    5    5    0    0 -0.46584891485E+02 -0.16614291922E+03  0.13052969805E+03  0.21635994036E+03  0.00000000000E+00 0. -1.
        -13    1    5    5    0    0 -0.36946794527E+02 -0.41901559407E+03  0.19162331290E+03  0.46223222275E+03  0.00000000000E+00 0.  1.
          3    1    6    6  503    0  0.22626742888E+02 -0.59902221175E+01  0.10564432194E+02  0.25679943192E+02  0.00000000000E+00 0. -1.
         -3    1    6    6    0  503  0.25995403470E+03  0.24662557099E+03  0.17732411767E+03  0.39980509643E+03  0.00000000000E+00 0.  1.
<mgrwt>
<rscale>  0 0.15635305E+04</rscale>
<asrwt>0</asrwt>
<pdfrwt beam="1">  1        2 0.10234458E+00 0.15635305E+04</pdfrwt>
<pdfrwt beam="2">  1       -1 0.14133872E+00 0.15635305E+04</pdfrwt>
<totfact> 0.19619330E+01</totfact>
</mgrwt>
</event>
<event>
12    7  0.1730932E-007  0.1426379E+04  0.7818608E-02  0.8934942E-01
          4   -1    0    0  501    0  0.00000000000E+00  0.00000000000E+00  0.91867470135E+03  0.91867470135E+03  0.00000000000E+00 0. -1.
         -3   -1    0    0    0  501 -0.00000000000E+00 -0.00000000000E+00 -0.55366659590E+03  0.55366659590E+03  0.00000000000E+00 0.  1.
         24    2    1    2    0    0  0.37309206472E+00  0.29817465433E+03 -0.20519917150E+03  0.37048647697E+03  0.79026995045E+02 0.  0.
        254    2    1    2    0    0 -0.37309206472E+00 -0.29817465433E+03  0.57020727696E+03  0.11018548203E+04  0.89444923982E+03 0.  0.
         23    2    4    4    0    0  0.61929795958E+02  0.13645678603E+03 -0.16465517457E+03  0.24128489990E+03  0.93012484786E+02 0.  0.
         23    2    4    4    0    0 -0.62302888023E+02 -0.43463144036E+03  0.73486245153E+03  0.86056992039E+03  0.88156828434E+02 0.  0.
          4    1    3    3  502    0  0.26003857093E+02  0.15089845725E+03 -0.67860231989E+02  0.16748598769E+03  0.00000000000E+00 0. -1.
         -3    1    3    3    0  502 -0.25630765028E+02  0.14727619708E+03 -0.13733893951E+03  0.20300048928E+03  0.00000000000E+00 0.  1.
         13    1    5    5    0    0  0.53011572537E+02  0.17755952638E+02 -0.38780977721E+02  0.68040171296E+02  0.00000000000E+00 0.  1.
        -13    1    5    5    0    0  0.89182234214E+01  0.11870083339E+03 -0.12587419685E+03  0.17324472860E+03  0.00000000000E+00 0. -1.
          4    1    6    6  503    0 -0.69701602527E+02 -0.41805064241E+03  0.66651948797E+03  0.78985624063E+03  0.00000000000E+00 0. -1.
         -4    1    6    6    0  503  0.73987145042E+01 -0.16580797951E+02  0.68342963555E+02  0.70713679754E+02  0.00000000000E+00 0.  1.
<mgrwt>
<rscale>  0 0.14263793E+04</rscale>
<asrwt>0</asrwt>
<pdfrwt beam="1">  1        4 0.14133457E+00 0.14263793E+04</pdfrwt>
<pdfrwt beam="2">  1       -3 0.85179477E-01 0.14263793E+04</pdfrwt>
<totfact> 0.97803756E-01</totfact>
</mgrwt>
</event>
<event>
12    7  0.1730932E-007  0.1153123E+04  0.7818608E-02  0.9154907E-01
         -3   -1    0    0    0  501 -0.00000000000E+00  0.00000000000E+00  0.44765841152E+03  0.44765841152E+03  0.00000000000E+00 0.  1.
          2   -1    0    0  501    0  0.00000000000E+00 -0.00000000000E+00 -0.74258191825E+03  0.74258191825E+03  0.00000000000E+00 0. -1.
         24    2    1    2    0    0  0.43072562195E+02  0.71545141954E+02 -0.25287644657E+03  0.27817738189E+03  0.80387844948E+02 0.  0.
        254    2    1    2    0    0 -0.43072562195E+02 -0.71545141954E+02 -0.42047060157E+02  0.91206294788E+03  0.90725790857E+03 0.  0.
         23    2    4    4    0    0  0.54632325898E+02  0.10058352854E+03 -0.43711151874E+03  0.46082522910E+03  0.90507870989E+02 0.  0.
         23    2    4    4    0    0 -0.97704888093E+02 -0.17212867049E+03  0.39506445858E+03  0.45123771878E+03  0.91460527272E+02 0.  0.
          2    1    3    3  502    0 -0.55344947870E+01  0.65107830755E+02 -0.16636845328E+03  0.17874037738E+03  0.00000000000E+00 0. -1.
         -3    1    3    3    0  502  0.48607056982E+02  0.64373111999E+01 -0.86507993290E+02  0.99437004515E+02  0.00000000000E+00 0.  1.
         13    1    5    5    0    0  0.12513792279E+02  0.36960103505E+02 -0.37934477847E+02  0.54421216982E+02  0.00000000000E+00 0. -1.
        -13    1    5    5    0    0  0.42118533619E+02  0.63623425034E+02 -0.39917704089E+03  0.40640401212E+03  0.00000000000E+00 0.  1.
          2    1    6    6  503    0  0.27421166626E+01  0.83222773850E+01  0.35666824990E+02  0.36727399983E+02  0.00000000000E+00 0. -1.
         -2    1    6    6    0  503 -0.10044700476E+03 -0.18045094788E+03  0.35939763359E+03  0.41451031880E+03  0.00000000000E+00 0.  1.
<mgrwt>
<rscale>  0 0.11531228E+04</rscale>
<asrwt>0</asrwt>
<pdfrwt beam="1">  1        2 0.11424337E+00 0.11531228E+04</pdfrwt>
<pdfrwt beam="2">  1       -3 0.68870525E-01 0.11531228E+04</pdfrwt>
<totfact> 0.48176406E+01</totfact>
</mgrwt>
</event>
<event>
12    7  0.1730932E-007  0.1916133E+04  0.7818608E-02  0.8646867E-01
          2   -1    0    0  501    0  0.00000000000E+00  0.00000000000E+00  0.21317885541E+04  0.21317885541E+04  0.00000000000E+00 0. -1.
         -1   -1    0    0    0  501 -0.00000000000E+00 -0.00000000000E+00 -0.43057346245E+03  0.43057346245E+03  0.00000000000E+00 0.  1.
         24    2    1    2    0    0  0.42768842272E+03 -0.51717142565E+03  0.21622998536E+03  0.71005229272E+03  0.83875988183E+02 0.  0.
        254    2    1    2    0    0 -0.42768842272E+03  0.51717142565E+03  0.14849851063E+04  0.18523097238E+04  0.88061732703E+03 0.  0.
         23    2    4    4    0    0 -0.50147815754E+03  0.25765791219E+03  0.14591212626E+04  0.15672554123E+04  0.96885118334E+02 0.  0.
         23    2    4    4    0    0  0.73789734820E+02  0.25951351346E+03  0.25863843682E+02  0.28505431154E+03  0.88288354199E+02 0.  0.
          4    1    3    3  502    0  0.10467630134E+03 -0.18637199602E+03  0.59891344271E+02  0.22198788724E+03  0.00000000000E+00 0. -1.
         -3    1    3    3    0  502  0.32301212138E+03 -0.33079942963E+03  0.15633864109E+03  0.48806440548E+03  0.00000000000E+00 0.  1.
         13    1    5    5    0    0 -0.24004582533E+03  0.13681432535E+03  0.84338331698E+03  0.88748835330E+03  0.00000000000E+00 0. -1.
        -13    1    5    5    0    0 -0.26143233221E+03  0.12084358684E+03  0.61573794563E+03  0.67976705900E+03  0.00000000000E+00 0.  1.
          3    1    6    6  503    0  0.46549352633E+02  0.17085552443E+03 -0.25696140286E+02  0.17893782184E+03  0.00000000000E+00 0. -1.
         -3    1    6    6    0  503  0.27240382187E+02  0.88657989021E+02  0.51559983968E+02  0.10611648970E+03  0.00000000000E+00 0.  1.
<mgrwt>
<rscale>  0 0.19161332E+04</rscale>
<asrwt>0</asrwt>
<pdfrwt beam="1">  1        2 0.32796746E+00 0.19161332E+04</pdfrwt>
<pdfrwt beam="2">  1       -1 0.66242073E-01 0.19161332E+04</pdfrwt>
<totfact> 0.13872691E+01</totfact>
</mgrwt>
</event>
<event>
12    7  0.1730932E-007  0.1253515E+04  0.7818608E-02  0.9067263E-01
          2   -1    0    0  501    0  0.00000000000E+00  0.00000000000E+00  0.17658840052E+04  0.17658840052E+04  0.00000000000E+00 0. -1.
         -1   -1    0    0    0  501 -0.00000000000E+00 -0.00000000000E+00 -0.22245212583E+03  0.22245212583E+03  0.00000000000E+00 0.  1.
         24    2    1    2    0    0 -0.17191837872E+03 -0.23473917120E+03  0.43272343198E+03  0.52640267920E+03  0.72054178594E+02 0.  0.
        254    2    1    2    0    0  0.17191837872E+03  0.23473917120E+03  0.11107084474E+04  0.14619334519E+04  0.90494074671E+03 0.  0.
         23    2    4    4    0    0  0.42090217997E+03  0.29788688922E+03  0.10629691307E+04  0.11859092850E+04  0.10286989669E+03 0.  0.
         23    2    4    4    0    0 -0.24898380126E+03 -0.63147718019E+02  0.47739316746E+02  0.27602416684E+03  0.89049035583E+02 0.  0.
          4    1    3    3  502    0 -0.11723349860E+03 -0.19546841754E+03  0.36889643130E+03  0.43363137857E+03  0.00000000000E+00 0. -1.
         -1    1    3    3    0  502 -0.54684880118E+02 -0.39270753659E+02  0.63827000672E+02  0.92771300634E+02  0.00000000000E+00 0.  1.
         13    1    5    5    0    0  0.32025970379E+03  0.25380582202E+03  0.91031301287E+03  0.99782436058E+03  0.00000000000E+00 0.  1.
        -13    1    5    5    0    0  0.10064247618E+03  0.44081067202E+02  0.15265611781E+03  0.18808492444E+03  0.00000000000E+00 0. -1.
          2    1    6    6  503    0 -0.20518469510E+02  0.16442112583E+02  0.18896032970E+02  0.32379171071E+02  0.00000000000E+00 0. -1.
         -2    1    6    6    0  503 -0.22846533175E+03 -0.79589830602E+02  0.28843283775E+02  0.24364499577E+03  0.00000000000E+00 0.  1.
<mgrwt>
<rscale>  0 0.12535145E+04</rscale>
<asrwt>0</asrwt>
<pdfrwt beam="1">  1        2 0.27167445E+00 0.12535145E+04</pdfrwt>
<pdfrwt beam="2">  1       -1 0.34223405E-01 0.12535145E+04</pdfrwt>
<totfact> 0.81568851E+01</totfact>
</mgrwt>
</event>
<event>
12    7  0.1730932E-007  0.1884701E+04  0.7818608E-02  0.8662510E-01
         -1   -1    0    0    0  501 -0.00000000000E+00  0.00000000000E+00  0.27805064627E+03  0.27805064627E+03  0.00000000000E+00 0.  1.
          2   -1    0    0  501    0  0.00000000000E+00 -0.00000000000E+00 -0.31937493726E+04  0.31937493726E+04  0.00000000000E+00 0. -1.
         24    2    1    2    0    0  0.57744875290E+02  0.26020033201E+03 -0.23854122657E+04  0.24015581218E+04  0.79063592017E+02 0.  0.
        254    2    1    2    0    0 -0.57744875290E+02 -0.26020033201E+03 -0.53028646067E+03  0.10702418971E+04  0.89060389880E+03 0.  0.
         23    2    4    4    0    0  0.12638962853E+03  0.28668051924E+03 -0.91452657107E+02  0.33966136647E+03  0.94054224075E+02 0.  0.
         23    2    4    4    0    0 -0.18413450382E+03 -0.54688085125E+03 -0.43883380356E+03  0.73058053064E+03  0.90491014130E+02 0.  0.
          4    1    3    3  502    0 -0.10167936658E+01  0.16403216869E+03 -0.15248347426E+04  0.15336324783E+04  0.00000000000E+00 0. -1.
         -3    1    3    3    0  502  0.58761668955E+02  0.96168163324E+02 -0.86057752307E+03  0.86792564347E+03  0.00000000000E+00 0.  1.
         13    1    5    5    0    0  0.76466359071E+02  0.11674039941E+03 -0.82929118048E+02  0.16233503486E+03  0.00000000000E+00 0.  1.
        -13    1    5    5    0    0  0.49923269459E+02  0.16994011983E+03 -0.85235390587E+01  0.17732633161E+03  0.00000000000E+00 0. -1.
          4    1    6    6  503    0 -0.10330656613E+03 -0.30334372147E+03 -0.29934948646E+03  0.43851998245E+03  0.00000000000E+00 0. -1.
         -4    1    6    6    0  503 -0.80827937686E+02 -0.24353712978E+03 -0.13948431710E+03  0.29206054819E+03  0.00000000000E+00 0.  1.
<mgrwt>
<rscale>  0 0.18847006E+04</rscale>
<asrwt>0</asrwt>
<pdfrwt beam="1">  1        2 0.49134607E+00 0.18847006E+04</pdfrwt>
<pdfrwt beam="2">  1       -1 0.42777021E-01 0.18847006E+04</pdfrwt>
<totfact> 0.75538577E+00</totfact>
</mgrwt>
</event>
<event>
12    7  0.1730932E-007  0.2427936E+04  0.7818608E-02  0.8429118E-01
          2   -1    0    0  501    0  0.00000000000E+00  0.00000000000E+00  0.17130978099E+04  0.17130978099E+04  0.00000000000E+00 0. -1.
         -1   -1    0    0    0  501 -0.00000000000E+00 -0.00000000000E+00 -0.86026542944E+03  0.86026542944E+03  0.00000000000E+00 0.  1.
         24    2    1    2    0    0  0.30567333739E+03 -0.10056546206E+04  0.31473658739E+03  0.11001408980E+04  0.80457882486E+02 0.  0.
        254    2    1    2    0    0 -0.30567333739E+03  0.10056546206E+04  0.53809579310E+03  0.14732223414E+04  0.88094243815E+03 0.  0.
         23    2    4    4    0    0 -0.29850861999E+03  0.14539026120E+03 -0.14339428876E+03  0.37221217431E+03  0.87944621205E+02 0.  0.
         23    2    4    4    0    0 -0.71647174023E+01  0.86026435943E+03  0.68149008186E+03  0.11010101670E+04  0.87684405600E+02 0.  0.
          4    1    3    3  502    0  0.37020579951E+02 -0.99194905280E+02  0.79401567730E+01  0.10617532040E+03  0.00000000000E+00 0. -1.
         -3    1    3    3    0  502  0.26865275744E+03 -0.90645971535E+03  0.30679643062E+03  0.99396557761E+03  0.00000000000E+00 0.  1.
         13    1    5    5    0    0 -0.50255122952E+02  0.23004838544E+01 -0.49767455226E+02  0.70764886833E+02  0.00000000000E+00 0.  1.
        -13    1    5    5    0    0 -0.24825349703E+03  0.14308977734E+03 -0.93626833533E+02  0.30144728748E+03  0.00000000000E+00 0. -1.
          3    1    6    6  503    0  0.18986701555E+02  0.77874493620E+03  0.62030142587E+03  0.99578011098E+03  0.00000000000E+00 0. -1.
         -3    1    6    6    0  503 -0.26151418957E+02  0.81519423235E+02  0.61188655981E+02  0.10523005606E+03  0.00000000000E+00 0.  1.
<mgrwt>
<rscale>  0 0.24279364E+04</rscale>
<asrwt>0</asrwt>
<pdfrwt beam="1">  1        2 0.26355351E+00 0.24279364E+04</pdfrwt>
<pdfrwt beam="2">  1       -1 0.13234853E+00 0.24279364E+04</pdfrwt>
<totfact> 0.47738062E+00</totfact>
</mgrwt>
</event>
<event>
12    7  0.1730932E-007  0.2146159E+04  0.7818608E-02  0.8541178E-01
         -1   -1    0    0    0  501 -0.00000000000E+00  0.00000000000E+00  0.96246750800E+03  0.96246750800E+03  0.00000000000E+00 0.  1.
          2   -1    0    0  501    0  0.00000000000E+00 -0.00000000000E+00 -0.11964034105E+04  0.11964034105E+04  0.00000000000E+00 0. -1.
         24    2    1    2    0    0  0.21936624502E+03  0.68261807375E+03  0.41791322932E+03  0.83375865198E+03  0.80081448891E+02 0.  0.
        254    2    1    2    0    0 -0.21936624502E+03 -0.68261807375E+03 -0.65184913185E+03  0.13251122666E+04  0.90383972264E+03 0.  0.
         23    2    4    4    0    0  0.11553978353E+03 -0.77252512149E+03 -0.51974707268E+03  0.94314972285E+03  0.96176271673E+02 0.  0.
         23    2    4    4    0    0 -0.33490602856E+03  0.89907047744E+02 -0.13210205917E+03  0.38196254371E+03  0.90548912556E+02 0.  0.
          4    1    3    3  502    0  0.27100845243E+02  0.39565985880E+02  0.45866005439E+02  0.66359728047E+02  0.00000000000E+00 0. -1.
         -3    1    3    3    0  502  0.19226539978E+03  0.64305208787E+03  0.37204722388E+03  0.76739892394E+03  0.00000000000E+00 0.  1.
         13    1    5    5    0    0  0.11957026688E+03 -0.63048783595E+03 -0.45698487404E+03  0.78781161143E+03  0.00000000000E+00 0. -1.
        -13    1    5    5    0    0 -0.40304833533E+01 -0.14203728554E+03 -0.62762198639E+02  0.15533811142E+03  0.00000000000E+00 0.  1.
          2    1    6    6  503    0 -0.19714457348E+03  0.79588334130E+02 -0.41111689370E+02  0.21654204392E+03  0.00000000000E+00 0. -1.
         -2    1    6    6    0  503 -0.13776145508E+03  0.10318713613E+02 -0.90990369798E+02  0.16542049979E+03  0.00000000000E+00 0.  1.
<mgrwt>
<rscale>  0 0.21461588E+04</rscale>
<asrwt>0</asrwt>
<pdfrwt beam="1">  1        2 0.18406206E+00 0.21461588E+04</pdfrwt>
<pdfrwt beam="2">  1       -1 0.14807193E+00 0.21461588E+04</pdfrwt>
<totfact> 0.71980207E+00</totfact>
</mgrwt>
</event>
<event>
12    7  0.1730932E-007  0.1326312E+04  0.7818608E-02  0.9008956E-01
         -1   -1    0    0    0  501 -0.00000000000E+00  0.00000000000E+00  0.31901484079E+03  0.31901484079E+03  0.00000000000E+00 0.  1.
          2   -1    0    0  501    0  0.00000000000E+00 -0.00000000000E+00 -0.13785435171E+04  0.13785435171E+04  0.00000000000E+00 0. -1.
         24    2    1    2    0    0  0.10928144785E+03 -0.28905818737E+03 -0.50556127037E+03  0.59798755577E+03  0.80621636183E+02 0.  0.
        254    2    1    2    0    0 -0.10928144785E+03  0.28905818737E+03 -0.55396740595E+03  0.10995708021E+04  0.89815310028E+03 0.  0.
         23    2    4    4    0    0 -0.38972633858E+03 -0.14005697515E+03 -0.30991198601E+03  0.52465598104E+03  0.87840105307E+02 0.  0.
         23    2    4    4    0    0  0.28044489072E+03  0.42911516252E+03 -0.24405541995E+03  0.57491482111E+03  0.90414844426E+02 0.  0.
          2    1    3    3  502    0  0.10883923680E+03 -0.18082430258E+03 -0.32773846579E+03  0.38981522524E+03  0.00000000000E+00 0. -1.
         -1    1    3    3    0  502  0.44221105510E+00 -0.10823388479E+03 -0.17782280458E+03  0.20817233053E+03  0.00000000000E+00 0.  1.
         13    1    5    5    0    0 -0.16988325724E+02  0.89000124097E+01 -0.28830674820E+02  0.34626886120E+02  0.00000000000E+00 0.  1.
        -13    1    5    5    0    0 -0.37273801285E+03 -0.14895698756E+03 -0.28108131119E+03  0.49002909492E+03  0.00000000000E+00 0. -1.
          1    1    6    6  503    0  0.25675506283E+03  0.33524060692E+03 -0.21488389017E+03  0.47379796652E+03  0.00000000000E+00 0. -1.
         -1    1    6    6    0  503  0.23689827888E+02  0.93874555594E+02 -0.29171529779E+02  0.10111685459E+03  0.00000000000E+00 0.  1.
<mgrwt>
<rscale>  0 0.13263119E+04</rscale>
<asrwt>0</asrwt>
<pdfrwt beam="1">  1        2 0.21208361E+00 0.13263119E+04</pdfrwt>
<pdfrwt beam="2">  1       -1 0.49079208E-01 0.13263119E+04</pdfrwt>
<totfact> 0.69014315E+01</totfact>
</mgrwt>
</event>
<event>
12    7  0.1730932E-007  0.1323677E+04  0.7818608E-02  0.9010997E-01
          2   -1    0    0  501    0  0.00000000000E+00  0.00000000000E+00  0.16605256556E+04  0.16605256556E+04  0.00000000000E+00 0. -1.
         -1   -1    0    0    0  501 -0.00000000000E+00 -0.00000000000E+00 -0.26379010483E+03  0.26379010483E+03  0.00000000000E+00 0.  1.
         24    2    1    2    0    0  0.23585911793E+03  0.21435674393E+03  0.60495920311E+03  0.68838607555E+03  0.79507322953E+02 0.  0.
        254    2    1    2    0    0 -0.23585911793E+03 -0.21435674393E+03  0.79177634767E+03  0.12359296849E+04  0.89388705333E+03 0.  0.
         23    2    4    4    0    0 -0.14239923378E+03 -0.42303511700E+03  0.86664933428E+03  0.97910963828E+03  0.91314638306E+02 0.  0.
         23    2    4    4    0    0 -0.93459884140E+02  0.20867837307E+03 -0.74872986615E+02  0.25682004661E+03  0.89828497075E+02 0.  0.
          4    1    3    3  502    0  0.84947097603E+02  0.97843242302E+02  0.17232118623E+03  0.21560125389E+03  0.00000000000E+00 0. -1.
         -3    1    3    3    0  502  0.15091202032E+03  0.11651350162E+03  0.43263801688E+03  0.47278482165E+03  0.00000000000E+00 0.  1.
         13    1    5    5    0    0  0.72175979235E+00  0.42622227546E+01  0.14709904820E+02  0.15331952903E+02  0.00000000000E+00 0. -1.
        -13    1    5    5    0    0 -0.14312099358E+03 -0.42729733975E+03  0.85193942947E+03  0.96377768538E+03  0.00000000000E+00 0.  1.
          1    1    6    6  503    0  0.12421032344E+02  0.88619573426E+01 -0.18087045326E+02  0.23663422006E+02  0.00000000000E+00 0. -1.
         -1    1    6    6    0  503 -0.10588091648E+03  0.19981641573E+03 -0.56785941290E+02  0.23315662461E+03  0.00000000000E+00 0.  1.
<mgrwt>
<rscale>  0 0.13236771E+04</rscale>
<asrwt>0</asrwt>
<pdfrwt beam="1">  1        2 0.25546548E+00 0.13236771E+04</pdfrwt>
<pdfrwt beam="2">  1       -1 0.40583094E-01 0.13236771E+04</pdfrwt>
<totfact> 0.68209844E+01</totfact>
</mgrwt>
</event>
<event>
12    7  0.1730932E-007  0.2096041E+04  0.7818608E-02  0.8562989E-01
          2   -1    0    0  501    0  0.00000000000E+00  0.00000000000E+00  0.42388210227E+03  0.42388210227E+03  0.00000000000E+00 0. -1.
         -1   -1    0    0    0  501 -0.00000000000E+00 -0.00000000000E+00 -0.25911619755E+04  0.25911619755E+04  0.00000000000E+00 0.  1.
         24    2    1    2    0    0 -0.13455693130E+03  0.69442714402E+03 -0.15822181575E+04  0.17350676741E+04  0.81920142171E+02 0.  0.
        254    2    1    2    0    0  0.13455693130E+03 -0.69442714402E+03 -0.58506171572E+03  0.12799764036E+04  0.89202452689E+03 0.  0.
         23    2    4    4    0    0 -0.70223380762E+01  0.17332037532E+03 -0.28631537252E+03  0.34693643829E+03  0.91099582539E+02 0.  0.
         23    2    4    4    0    0  0.14157926938E+03 -0.86774751934E+03 -0.29874634320E+03  0.93303996535E+03  0.91015122513E+02 0.  0.
          4    1    3    3  502    0 -0.17591497948E+02  0.24317116414E+02 -0.95795831444E+02  0.10038737108E+03  0.00000000000E+00 0. -1.
         -3    1    3    3    0  502 -0.11696543335E+03  0.67011002761E+03 -0.14864223260E+04  0.16346803030E+04  0.00000000000E+00 0.  1.
         13    1    5    5    0    0  0.27347445239E+02  0.15301555671E+03 -0.23799699918E+03  0.28426082209E+03  0.00000000000E+00 0. -1.
        -13    1    5    5    0    0 -0.34369783315E+02  0.20304818612E+02 -0.48318373341E+02  0.62675616203E+02  0.00000000000E+00 0.  1.
          3    1    6    6  503    0 -0.56626287774E+01 -0.13986439102E+03 -0.66288132804E+02  0.15488134100E+03  0.00000000000E+00 0. -1.
         -3    1    6    6    0  503  0.14724189815E+03 -0.72788312833E+03 -0.23245821040E+03  0.77815862436E+03  0.00000000000E+00 0.  1.
<mgrwt>
<rscale>  0 0.20960412E+04</rscale>
<asrwt>0</asrwt>
<pdfrwt beam="1">  1        2 0.65212632E-01 0.20960412E+04</pdfrwt>
<pdfrwt beam="2">  1       -1 0.39864030E+00 0.20960412E+04</pdfrwt>
<totfact> 0.57394982E-01</totfact>
</mgrwt>
</event>
<event>
12    7  0.1730932E-007  0.1671365E+04  0.7818608E-02  0.8777866E-01
         -1   -1    0    0    0  501 -0.00000000000E+00  0.00000000000E+00  0.64950242855E+03  0.64950242855E+03  0.00000000000E+00 0.  1.
          2   -1    0    0  501    0  0.00000000000E+00 -0.00000000000E+00 -0.10752317168E+04  0.10752317168E+04  0.00000000000E+00 0. -1.
         24    2    1    2    0    0  0.33970137539E+02 -0.15318485798E+03 -0.74102836428E+03  0.76169171843E+03  0.80197670199E+02 0.  0.
        254    2    1    2    0    0 -0.33970137539E+02  0.15318485798E+03  0.31529907599E+03  0.96304242696E+03  0.89633567253E+03 0.  0.
         23    2    4    4    0    0 -0.69272031873E+02 -0.27518993416E+03 -0.14057551828E+03  0.32995075441E+03  0.92617005613E+02 0.  0.
         23    2    4    4    0    0  0.35301894335E+02  0.42837479214E+03  0.45587459427E+03  0.63309167255E+03  0.90731658584E+02 0.  0.
          4    1    3    3  502    0  0.34793768295E+02 -0.14529913058E+03 -0.73836231876E+03  0.75332685962E+03  0.00000000000E+00 0. -1.
         -3    1    3    3    0  502 -0.82363075602E+00 -0.78857273975E+01 -0.26660455144E+01  0.83648588090E+01  0.00000000000E+00 0.  1.
         13    1    5    5    0    0 -0.90171258822E+02 -0.20883631290E+03 -0.12115062293E+03  0.25772259300E+03  0.00000000000E+00 0. -1.
        -13    1    5    5    0    0  0.20899226949E+02 -0.66353621259E+02 -0.19424895356E+02  0.72228161411E+02  0.00000000000E+00 0.  1.
          3    1    6    6  503    0  0.54691252902E+02  0.15242640699E+03  0.15093353866E+03  0.22137270786E+03  0.00000000000E+00 0. -1.
         -3    1    6    6    0  503 -0.19389358568E+02  0.27594838515E+03  0.30494105560E+03  0.41171896469E+03  0.00000000000E+00 0.  1.
<mgrwt>
<rscale>  0 0.16713654E+04</rscale>
<asrwt>0</asrwt>
<pdfrwt beam="1">  1        2 0.16542026E+00 0.16713654E+04</pdfrwt>
<pdfrwt beam="2">  1       -1 0.99923450E-01 0.16713654E+04</pdfrwt>
<totfact> 0.23447974E+01</totfact>
</mgrwt>
</event>
<event>
12    7  0.1730932E-007  0.1267050E+04  0.7818608E-02  0.9056111E-01
          2   -1    0    0  501    0  0.00000000000E+00  0.00000000000E+00  0.24262990469E+03  0.24262990469E+03  0.00000000000E+00 0. -1.
         -1   -1    0    0    0  501 -0.00000000000E+00 -0.00000000000E+00 -0.16541806744E+04  0.16541806744E+04  0.00000000000E+00 0.  1.
         24    2    1    2    0    0 -0.24005282100E+03 -0.16813676680E+03 -0.45463744203E+03  0.55048337961E+03  0.10218325850E+03 0.  0.
        254    2    1    2    0    0  0.24005282100E+03  0.16813676680E+03 -0.95691332770E+03  0.13463271995E+04  0.90056564567E+03 0.  0.
         23    2    4    4    0    0 -0.30642608104E+03  0.22380919691E+03 -0.40079942516E+03  0.55946141385E+03  0.91484395481E+02 0.  0.
         23    2    4    4    0    0  0.54647890204E+03 -0.55672430110E+02 -0.55611390254E+03  0.78686578565E+03  0.90313244731E+02 0.  0.
          4    1    3    3  502    0 -0.25294123145E+02  0.95406222600E+01 -0.18044096022E+02  0.32502392835E+02  0.00000000000E+00 0. -1.
         -3    1    3    3    0  502 -0.21475869785E+03 -0.17767738906E+03 -0.43659334600E+03  0.51798098678E+03  0.00000000000E+00 0.  1.
         13    1    5    5    0    0 -0.12542154154E+03  0.13861238569E+03 -0.15720810680E+03  0.24425057910E+03  0.00000000000E+00 0. -1.
        -13    1    5    5    0    0 -0.18100453950E+03  0.85196811223E+02 -0.24359131836E+03  0.31521083475E+03  0.00000000000E+00 0.  1.
          2    1    6    6  503    0  0.30775831594E+03 -0.49743966636E+02 -0.37184624638E+03  0.48524145968E+03  0.00000000000E+00 0. -1.
         -2    1    6    6    0  503  0.23872058610E+03 -0.59284634739E+01 -0.18426765616E+03  0.30162432597E+03  0.00000000000E+00 0.  1.
<mgrwt>
<rscale>  0 0.12670496E+04</rscale>
<asrwt>0</asrwt>
<pdfrwt beam="1">  1        2 0.37327679E-01 0.12670496E+04</pdfrwt>
<pdfrwt beam="2">  1       -1 0.25448933E+00 0.12670496E+04</pdfrwt>
<totfact> 0.10236849E+01</totfact>
</mgrwt>
</event>
<event>
12    7  0.1730932E-007  0.2082413E+04  0.7818608E-02  0.8569030E-01
          2   -1    0    0  501    0  0.00000000000E+00  0.00000000000E+00  0.86733531661E+03  0.86733531661E+03  0.00000000000E+00 0. -1.
         -1   -1    0    0    0  501 -0.00000000000E+00 -0.00000000000E+00 -0.12499332748E+04  0.12499332748E+04  0.00000000000E+00 0.  1.
         24    2    1    2    0    0 -0.82257158533E+03 -0.11754279545E+03 -0.29972783646E+03  0.88696834190E+03  0.80223075434E+02 0.  0.
        254    2    1    2    0    0  0.82257158533E+03  0.11754279545E+03 -0.82870121740E+02  0.12303002495E+04  0.90351033482E+03 0.  0.
         23    2    4    4    0    0  0.38711704519E+03 -0.11293970870E+03 -0.44864839469E+03  0.60999242921E+03  0.90500813055E+02 0.  0.
         23    2    4    4    0    0  0.43545454014E+03  0.23048250416E+03  0.36577827295E+03  0.62030782030E+03  0.90803115101E+02 0.  0.
          4    1    3    3  502    0 -0.32728560255E+03 -0.48638442507E+02 -0.77945347355E+02  0.33993681898E+03  0.00000000000E+00 0. -1.
         -3    1    3    3    0  502 -0.49528598278E+03 -0.68904352948E+02 -0.22178248911E+03  0.54703152292E+03  0.00000000000E+00 0.  1.
         13    1    5    5    0    0  0.59914785639E+02 -0.27044490463E+02 -0.31436944732E+02  0.72866092915E+02  0.00000000000E+00 0. -1.
        -13    1    5    5    0    0  0.32720225955E+03 -0.85895218238E+02 -0.41721144996E+03  0.53712633630E+03  0.00000000000E+00 0.  1.
          3    1    6    6  503    0  0.24767167552E+03  0.17432926382E+03  0.19392377095E+03  0.35963645535E+03  0.00000000000E+00 0.  1.
         -3    1    6    6    0  503  0.18778286462E+03  0.56153240333E+02  0.17185450200E+03  0.26067136495E+03  0.00000000000E+00 0. -1.
<mgrwt>
<rscale>  0 0.20824133E+04</rscale>
<asrwt>0</asrwt>
<pdfrwt beam="1">  1        2 0.13343620E+00 0.20824133E+04</pdfrwt>
<pdfrwt beam="2">  1       -1 0.19229743E+00 0.20824133E+04</pdfrwt>
<totfact> 0.55340888E+00</totfact>
</mgrwt>
</event>
<event>
12    7  0.1730932E-007  0.1924869E+04  0.7818608E-02  0.8642576E-01
          2   -1    0    0  501    0  0.00000000000E+00  0.00000000000E+00  0.81340749206E+03  0.81340749206E+03  0.00000000000E+00 0. -1.
         -1   -1    0    0    0  501 -0.00000000000E+00 -0.00000000000E+00 -0.11387650447E+04  0.11387650447E+04  0.00000000000E+00 0.  1.
         24    2    1    2    0    0  0.40308600508E+03 -0.53406449883E+03 -0.47420645600E+03  0.82390586153E+03  0.79030939127E+02 0.  0.
        254    2    1    2    0    0 -0.40308600508E+03  0.53406449883E+03  0.14884890335E+03  0.11282666752E+04  0.89617324108E+03 0.  0.
         23    2    4    4    0    0 -0.57397816827E+03  0.66090322227E+03  0.17685766786E+03  0.89775432377E+03  0.91870475773E+02 0.  0.
         23    2    4    4    0    0  0.17089216318E+03 -0.12683872344E+03 -0.28008764518E+02  0.23051235147E+03  0.84019403060E+02 0.  0.
          4    1    3    3  502    0  0.22203384151E+03 -0.26799993104E+03 -0.20200570635E+03  0.40240439263E+03  0.00000000000E+00 0. -1.
         -3    1    3    3    0  502  0.18105216358E+03 -0.26606456779E+03 -0.27220074965E+03  0.42150146889E+03  0.00000000000E+00 0.  1.
         13    1    5    5    0    0 -0.22400969999E+03  0.32189173249E+03  0.97313627742E+02  0.40406011344E+03  0.00000000000E+00 0.  1.
        -13    1    5    5    0    0 -0.34996846828E+03  0.33901148978E+03  0.79544040123E+02  0.49369421033E+03  0.00000000000E+00 0. -1.
          1    1    6    6  503    0  0.16964314861E+03 -0.10664167056E+03 -0.57922024453E+01  0.20046145111E+03  0.00000000000E+00 0. -1.
         -1    1    6    6    0  503  0.12490145701E+01 -0.20197052879E+02 -0.22216562073E+02  0.30050900365E+02  0.00000000000E+00 0.  1.
<mgrwt>
<rscale>  0 0.19248688E+04</rscale>
<asrwt>0</asrwt>
<pdfrwt beam="1">  1        2 0.12513961E+00 0.19248688E+04</pdfrwt>
<pdfrwt beam="2">  1       -1 0.17519462E+00 0.19248688E+04</pdfrwt>
<totfact> 0.81020608E+00</totfact>
</mgrwt>
</event>
<event>
12    7  0.1730932E-007  0.3309376E+04  0.7818608E-02  0.8160514E-01
          2   -1    0    0  501    0  0.00000000000E+00  0.00000000000E+00  0.14126951531E+04  0.14126951531E+04  0.00000000000E+00 0. -1.
         -1   -1    0    0    0  501 -0.00000000000E+00 -0.00000000000E+00 -0.19381339332E+04  0.19381339332E+04  0.00000000000E+00 0.  1.
         24    2    1    2    0    0  0.83323874230E+03 -0.21537611739E+03  0.10271544170E+04  0.13423313887E+04  0.78317859164E+02 0.  0.
        254    2    1    2    0    0 -0.83323874230E+03  0.21537611739E+03 -0.15525931971E+04  0.20084976976E+04  0.93959762237E+03 0.  0.
         23    2    4    4    0    0 -0.88387106078E+03  0.34125748814E+03 -0.81702420838E+03  0.12544223516E+04  0.91444813246E+02 0.  0.
         23    2    4    4    0    0  0.50632318480E+02 -0.12588137074E+03 -0.73556898870E+03  0.75407534596E+03  0.95698166537E+02 0.  0.
          2    1    3    3  502    0  0.80892977251E+03 -0.19915224382E+03  0.97407137479E+03  0.12817347761E+04  0.00000000000E+00 0. -1.
         -1    1    3    3    0  502  0.24308969786E+02 -0.16223873577E+02  0.53083042232E+02  0.60596612599E+02  0.00000000000E+00 0.  1.
         13    1    5    5    0    0 -0.17437360995E+03  0.99791551861E+02 -0.14474875200E+03  0.24762211306E+03  0.00000000000E+00 0. -1.
        -13    1    5    5    0    0 -0.70949745082E+03  0.24146593627E+03 -0.67227545638E+03  0.10068002386E+04  0.00000000000E+00 0.  1.
          4    1    6    6  503    0  0.13095712538E+02 -0.14495239762E+01 -0.89595242167E+01  0.15933357487E+02  0.00000000000E+00 0. -1.
         -4    1    6    6    0  503  0.37536605942E+02 -0.12443184677E+03 -0.72660946448E+03  0.73814198847E+03  0.00000000000E+00 0.  1.
<mgrwt>
<rscale>  0 0.33093760E+04</rscale>
<asrwt>0</asrwt>
<pdfrwt beam="1">  1        2 0.21733772E+00 0.33093760E+04</pdfrwt>
<pdfrwt beam="2">  1       -1 0.29817445E+00 0.33093760E+04</pdfrwt>
<totfact> 0.45890252E-01</totfact>
</mgrwt>
</event>
<event>
12    7  0.1730932E-007  0.1842716E+04  0.7818608E-02  0.8683907E-01
         -1   -1    0    0    0  501 -0.00000000000E+00  0.00000000000E+00  0.63372032588E+03  0.63372032588E+03  0.00000000000E+00 0.  1.
          2   -1    0    0  501    0  0.00000000000E+00 -0.00000000000E+00 -0.13395514744E+04  0.13395514744E+04  0.00000000000E+00 0. -1.
         24    2    1    2    0    0 -0.23546295939E+03  0.47499763514E+03  0.19906317938E+03  0.57205676692E+03  0.80976765587E+02 0.  0.
        254    2    1    2    0    0  0.23546295939E+03 -0.47499763514E+03 -0.90489432789E+03  0.14012150334E+04  0.92924930263E+03 0.  0.
         23    2    4    4    0    0  0.42449910928E+03 -0.57748032497E+03 -0.35744868987E+03  0.80601850282E+03  0.90626935800E+02 0.  0.
         23    2    4    4    0    0 -0.18903614989E+03  0.10248268983E+03 -0.54744563803E+03  0.59519653054E+03  0.91240427974E+02 0.  0.
          4    1    3    3  502    0 -0.33786852132E+02  0.14415184176E+03  0.41388734258E+02  0.15373461609E+03  0.00000000000E+00 0. -1.
         -3    1    3    3    0  502 -0.20167610726E+03  0.33084579338E+03  0.15767444512E+03  0.41832215083E+03  0.00000000000E+00 0.  1.
         13    1    5    5    0    0  0.23824756391E+03 -0.35420026169E+03 -0.25766640034E+03  0.49860976822E+03  0.00000000000E+00 0.  1.
        -13    1    5    5    0    0  0.18625154536E+03 -0.22328006328E+03 -0.99782289525E+02  0.30740873460E+03  0.00000000000E+00 0. -1.
          2    1    6    6  503    0 -0.16207413948E+03  0.43758617793E+02 -0.41992110149E+03  0.45223508797E+03  0.00000000000E+00 0. -1.
         -2    1    6    6    0  503 -0.26962010404E+02  0.58724072040E+02 -0.12752453654E+03  0.14296144257E+03  0.00000000000E+00 0.  1.
<mgrwt>
<rscale>  0 0.18427165E+04</rscale>
<asrwt>0</asrwt>
<pdfrwt beam="1">  1        2 0.20608484E+00 0.18427165E+04</pdfrwt>
<pdfrwt beam="2">  1       -1 0.97495436E-01 0.18427165E+04</pdfrwt>
<totfact> 0.16980703E+01</totfact>
</mgrwt>
</event>
<event>
12    7  0.1730932E-007  0.1246425E+04  0.7818608E-02  0.9073164E-01
         -1   -1    0    0    0  501 -0.00000000000E+00  0.00000000000E+00  0.22175400212E+03  0.22175400212E+03  0.00000000000E+00 0.  1.
          2   -1    0    0  501    0  0.00000000000E+00 -0.00000000000E+00 -0.17514637169E+04  0.17514637169E+04  0.00000000000E+00 0. -1.
         24    2    1    2    0    0 -0.51350688409E+02 -0.84172786377E+02 -0.78230220104E+03  0.79268647821E+03  0.81444261998E+02 0.  0.
        254    2    1    2    0    0  0.51350688409E+02  0.84172786377E+02 -0.74740751369E+03  0.11805312408E+04  0.90846797838E+03 0.  0.
         23    2    4    4    0    0  0.42985801091E+03 -0.10359093087E+03 -0.23026989276E+03  0.50665315895E+03  0.90356015035E+02 0.  0.
         23    2    4    4    0    0 -0.37850732250E+03  0.18776371724E+03 -0.51713762093E+03  0.67387808182E+03  0.90318013041E+02 0.  0.
          4    1    3    3  502    0 -0.39899823745E+02 -0.75188850099E+02 -0.76646568419E+03  0.77117767353E+03  0.00000000000E+00 0. -1.
         -3    1    3    3    0  502 -0.11450864665E+02 -0.89839362783E+01 -0.15836516856E+02  0.21508804680E+02  0.00000000000E+00 0.  1.
         13    1    5    5    0    0  0.83698657477E+02 -0.77472843427E+01 -0.84118267670E+01  0.84476295537E+02  0.00000000000E+00 0. -1.
        -13    1    5    5    0    0  0.34615935344E+03 -0.95843646524E+02 -0.22185806600E+03  0.42217686341E+03  0.00000000000E+00 0.  1.
          2    1    6    6  503    0 -0.13332836851E+03  0.24016286600E+02 -0.19182117282E+03  0.23483738675E+03  0.00000000000E+00 0. -1.
         -2    1    6    6    0  503 -0.24517895399E+03  0.16374743064E+03 -0.32531644811E+03  0.43904069507E+03  0.00000000000E+00 0.  1.
<mgrwt>
<rscale>  0 0.12464254E+04</rscale>
<asrwt>0</asrwt>
<pdfrwt beam="1">  1        2 0.26945596E+00 0.12464254E+04</pdfrwt>
<pdfrwt beam="2">  1       -1 0.34115999E-01 0.12464254E+04</pdfrwt>
<totfact> 0.83593451E+01</totfact>
</mgrwt>
</event>
<event>
12    7  0.1730932E-007  0.1547917E+04  0.7818608E-02  0.8853199E-01
          2   -1    0    0  501    0  0.00000000000E+00  0.00000000000E+00  0.13586785247E+04  0.13586785247E+04  0.00000000000E+00 0. -1.
         -1   -1    0    0    0  501 -0.00000000000E+00 -0.00000000000E+00 -0.44087820563E+03  0.44087820563E+03  0.00000000000E+00 0.  1.
         24    2    1    2    0    0 -0.14745977864E+03  0.45146859644E+03  0.50355817182E+03  0.69678248018E+03  0.79791681233E+02 0.  0.
        254    2    1    2    0    0  0.14745977864E+03 -0.45146859644E+03  0.41424214725E+03  0.11027742502E+04  0.90495646877E+03 0.  0.
         23    2    4    4    0    0  0.25642134589E+03 -0.67870431211E+03  0.19519149203E+03  0.75686152701E+03  0.91368498924E+02 0.  0.
         23    2    4    4    0    0 -0.10896156725E+03  0.22723571567E+03  0.21905065523E+03  0.34591272315E+03  0.90353355609E+02 0.  0.
          2    1    3    3  502    0 -0.11501313595E+03  0.38333142948E+03  0.45966675862E+03  0.60947890468E+03  0.00000000000E+00 0. -1.
         -1    1    3    3    0  502 -0.32446642688E+02  0.68137166961E+02  0.43891413205E+02  0.87303575507E+02  0.00000000000E+00 0.  1.
         13    1    5    5    0    0  0.10768559603E+02 -0.53491379160E+02  0.39367558202E+02  0.67283684197E+02  0.00000000000E+00 0. -1.
        -13    1    5    5    0    0  0.24565278629E+03 -0.62521293295E+03  0.15582393383E+03  0.68957784281E+03  0.00000000000E+00 0.  1.
          4    1    6    6  503    0  0.12359081012E+02  0.31145786132E+02  0.10797744220E+02  0.35205087097E+02  0.00000000000E+00 0. -1.
         -4    1    6    6    0  503 -0.12132064826E+03  0.19608992954E+03  0.20825291100E+03  0.31070763606E+03  0.00000000000E+00 0.  1.
<mgrwt>
<rscale>  0 0.15479170E+04</rscale>
<asrwt>0</asrwt>
<pdfrwt beam="1">  1        2 0.20902746E+00 0.15479170E+04</pdfrwt>
<pdfrwt beam="2">  1       -1 0.67827417E-01 0.15479170E+04</pdfrwt>
<totfact> 0.36914706E+01</totfact>
</mgrwt>
</event>
<event>
12    7  0.1730932E-007  0.1160338E+04  0.7818608E-02  0.9148299E-01
          2   -1    0    0  501    0  0.00000000000E+00  0.00000000000E+00  0.25630617501E+04  0.25630617501E+04  0.00000000000E+00 0. -1.
         -1   -1    0    0    0  501 -0.00000000000E+00 -0.00000000000E+00 -0.13132580151E+03  0.13132580151E+03  0.00000000000E+00 0.  1.
         24    2    1    2    0    0 -0.70424185359E+02  0.89016023014E+02  0.56611449550E+02  0.14993135413E+03  0.79944583891E+02 0.  0.
        254    2    1    2    0    0  0.70424185359E+02 -0.89016023014E+02  0.23751244990E+04  0.25444561975E+04  0.90562549475E+03 0.  0.
         23    2    4    4    0    0 -0.15637738451E+03 -0.44288659571E+03  0.13687780601E+04  0.14500311631E+04  0.91839931973E+02 0.  0.
         23    2    4    4    0    0  0.22680156987E+03  0.35387057270E+03  0.10063464389E+04  0.10944250344E+04  0.91485880919E+02 0.  0.
          2    1    3    3  502    0 -0.32741866680E+02  0.89088350482E+02  0.59690009439E+02  0.11212341973E+03  0.00000000000E+00 0. -1.
         -1    1    3    3    0  502 -0.37682318679E+02 -0.72327468298E-01 -0.30785598894E+01  0.37807934396E+02  0.00000000000E+00 0.  1.
         13    1    5    5    0    0 -0.14644174565E+02 -0.62185004199E+02  0.10862430457E+03  0.12601851507E+03  0.00000000000E+00 0.  1.
        -13    1    5    5    0    0 -0.14173320995E+03 -0.38070159151E+03  0.12601537555E+04  0.13240126480E+04  0.00000000000E+00 0. -1.
          3    1    6    6  503    0  0.22724873837E+03  0.35414927093E+03  0.96114327960E+03  0.10492188042E+04  0.00000000000E+00 0. -1.
         -3    1    6    6    0  503 -0.44716850178E+00 -0.27869823663E+00  0.45203159307E+02  0.45206230142E+02  0.00000000000E+00 0.  1.
<mgrwt>
<rscale>  0 0.11603381E+04</rscale>
<asrwt>0</asrwt>
<pdfrwt beam="1">  1        2 0.39431715E+00 0.11603381E+04</pdfrwt>
<pdfrwt beam="2">  1       -1 0.20203971E-01 0.11603381E+04</pdfrwt>
<totfact> 0.73077667E+01</totfact>
</mgrwt>
</event>
<event>
12    7  0.1730932E-007  0.1517640E+04  0.7818608E-02  0.8872806E-01
          2   -1    0    0  501    0  0.00000000000E+00  0.00000000000E+00  0.19238994368E+04  0.19238994368E+04  0.00000000000E+00 0. -1.
         -1   -1    0    0    0  501 -0.00000000000E+00 -0.00000000000E+00 -0.29929211277E+03  0.29929211277E+03  0.00000000000E+00 0.  1.
         24    2    1    2    0    0 -0.50838489407E+02 -0.33399524952E+03  0.94992463402E+01  0.34814058179E+03  0.83511976987E+02 0.  0.
        254    2    1    2    0    0  0.50838489407E+02  0.33399524952E+03  0.16151080776E+04  0.18750509677E+04  0.89056423147E+03 0.  0.
         23    2    4    4    0    0  0.13359634829E+03 -0.26076296858E+03  0.81292484171E+03  0.86894642913E+03  0.91519333290E+02 0.  0.
         23    2    4    4    0    0 -0.82757858886E+02  0.59475821810E+03  0.80218323594E+03  0.10061045386E+04  0.90344880135E+02 0.  0.
          2    1    3    3  502    0 -0.12486438630E+02 -0.10833041853E+03  0.42175358444E+02  0.11691942349E+03  0.00000000000E+00 0. -1.
         -1    1    3    3    0  502 -0.38352050777E+02 -0.22566483099E+03 -0.32676112104E+02  0.23122115830E+03  0.00000000000E+00 0.  1.
         13    1    5    5    0    0  0.18716246212E+02 -0.75664211802E+02  0.12461200272E+03  0.14698136631E+03  0.00000000000E+00 0. -1.
        -13    1    5    5    0    0  0.11488010208E+03 -0.18509875677E+03  0.68831283898E+03  0.72196506281E+03  0.00000000000E+00 0.  1.
          2    1    6    6  503    0 -0.25425446699E+02  0.18879418847E+03  0.32749588888E+03  0.37887102842E+03  0.00000000000E+00 0. -1.
         -2    1    6    6    0  503 -0.57332412187E+02  0.40596402963E+03  0.47468734706E+03  0.62723351018E+03  0.00000000000E+00 0.  1.
<mgrwt>
<rscale>  0 0.15176402E+04</rscale>
<asrwt>0</asrwt>
<pdfrwt beam="1">  1        2 0.29598452E+00 0.15176402E+04</pdfrwt>
<pdfrwt beam="2">  1       -1 0.46044942E-01 0.15176402E+04</pdfrwt>
<totfact> 0.37982666E+01</totfact>
</mgrwt>
</event>
<event>
12    7  0.1730932E-007  0.1799108E+04  0.7818608E-02  0.8706774E-01
          2   -1    0    0  501    0  0.00000000000E+00  0.00000000000E+00  0.12676955618E+04  0.12676955618E+04  0.00000000000E+00 0. -1.
         -3   -1    0    0    0  501 -0.00000000000E+00 -0.00000000000E+00 -0.63832163563E+03  0.63832163563E+03  0.00000000000E+00 0.  1.
         24    2    1    2    0    0  0.15623518289E+03  0.64474462175E+03  0.31250746594E+03  0.73798996510E+03  0.82844509052E+02 0.  0.
        254    2    1    2    0    0 -0.15623518289E+03 -0.64474462175E+03  0.31686646026E+03  0.11680272323E+04  0.90762227948E+03 0.  0.
         23    2    4    4    0    0 -0.33077667411E+03 -0.58055134481E+03 -0.11967615460E+03  0.68489757750E+03  0.91155019549E+02 0.  0.
         23    2    4    4    0    0  0.17454149122E+03 -0.64193276943E+02  0.43654261486E+03  0.48312965484E+03  0.90880690128E+02 0.  0.
          2    1    3    3  502    0  0.15471039172E+03  0.58291444468E+03  0.30455514034E+03  0.67563184401E+03  0.00000000000E+00 0. -1.
         -1    1    3    3    0  502  0.15247911605E+01  0.61830177069E+02  0.79523255944E+01  0.62358121098E+02  0.00000000000E+00 0.  1.
         13    1    5    5    0    0 -0.32654214147E+03 -0.52244120973E+03 -0.10948471146E+03  0.62574874336E+03  0.00000000000E+00 0. -1.
        -13    1    5    5    0    0 -0.42345326321E+01 -0.58110135083E+02 -0.10191443140E+02  0.59148834132E+02  0.00000000000E+00 0.  1.
          3    1    6    6  503    0  0.14797156842E+03 -0.86640399888E+02  0.37718696706E+03  0.41433338277E+03  0.00000000000E+00 0. -1.
         -3    1    6    6    0  503  0.26569922801E+02  0.22447122945E+02  0.59355647797E+02  0.68796272076E+02  0.00000000000E+00 0.  1.
<mgrwt>
<rscale>  0 0.17991081E+04</rscale>
<asrwt>0</asrwt>
<pdfrwt beam="1">  1        2 0.19503009E+00 0.17991081E+04</pdfrwt>
<pdfrwt beam="2">  1       -3 0.98203329E-01 0.17991081E+04</pdfrwt>
<totfact> 0.94441822E+00</totfact>
</mgrwt>
</event>
<event>
12    7  0.1730932E-007  0.1705720E+04  0.7818608E-02  0.8758109E-01
          2   -1    0    0  501    0  0.00000000000E+00  0.00000000000E+00  0.28034777273E+04  0.28034777273E+04  0.00000000000E+00 0. -1.
         -1   -1    0    0    0  501 -0.00000000000E+00 -0.00000000000E+00 -0.25945270344E+03  0.25945270344E+03  0.00000000000E+00 0.  1.
         24    2    1    2    0    0  0.16322623591E+03  0.38370832107E+03  0.12350917635E+03  0.44315809186E+03  0.85203861356E+02 0.  0.
        254    2    1    2    0    0 -0.16322623591E+03 -0.38370832107E+03  0.24205158475E+04  0.26197723389E+04  0.91128220645E+03 0.  0.
         23    2    4    4    0    0  0.11187407805E+03 -0.40796009005E+03  0.44024622475E+03  0.61832061285E+03  0.97756828140E+02 0.  0.
         23    2    4    4    0    0 -0.27510031396E+03  0.24251768982E+02  0.19802696228E+04  0.20014517261E+04  0.89849328274E+02 0.  0.
          2    1    3    3  502    0  0.21085834480E+02  0.15140856006E+03  0.35298710159E+02  0.15689220317E+03  0.00000000000E+00 0. -1.
         -1    1    3    3    0  502  0.14214040143E+03  0.23229976101E+03  0.88210466193E+02  0.28626588870E+03  0.00000000000E+00 0.  1.
         13    1    5    5    0    0  0.30933737649E+02 -0.27173699487E+03  0.30827469875E+03  0.41210578787E+03  0.00000000000E+00 0.  1.
        -13    1    5    5    0    0  0.80940340401E+02 -0.13622309519E+03  0.13197152600E+03  0.20621482498E+03  0.00000000000E+00 0. -1.
          3    1    6    6  503    0 -0.20219296747E+03  0.85122952333E+00  0.16542417184E+04  0.16665528446E+04  0.00000000000E+00 0. -1.
         -3    1    6    6    0  503 -0.72907346490E+02  0.23400539459E+02  0.32602790435E+03  0.33489888151E+03  0.00000000000E+00 0.  1.
<mgrwt>
<rscale>  0 0.17057196E+04</rscale>
<asrwt>0</asrwt>
<pdfrwt beam="1">  1        2 0.43130424E+00 0.17057196E+04</pdfrwt>
<pdfrwt beam="2">  1       -1 0.39915802E-01 0.17057196E+04</pdfrwt>
<totfact> 0.15289131E+01</totfact>
</mgrwt>
</event>
<event>
12    7  0.1730932E-007  0.1653398E+04  0.7818608E-02  0.8788399E-01
          2   -1    0    0  501    0  0.00000000000E+00  0.00000000000E+00  0.22232773658E+04  0.22232773658E+04  0.00000000000E+00 0. -1.
         -1   -1    0    0    0  501 -0.00000000000E+00 -0.00000000000E+00 -0.30739807061E+03  0.30739807061E+03  0.00000000000E+00 0.  1.
         24    2    1    2    0    0  0.32911318760E+03 -0.11457194027E+03  0.13868408488E+04  0.14322723508E+04  0.81451379332E+02 0.  0.
        254    2    1    2    0    0 -0.32911318760E+03  0.11457194027E+03  0.52903844637E+03  0.10984030856E+04  0.89731011417E+03 0.  0.
         23    2    4    4    0    0  0.36676624672E+02 -0.12305907962E+03  0.62195454504E+03  0.64152847779E+03  0.90788875081E+02 0.  0.
         23    2    4    4    0    0 -0.36578981228E+03  0.23763101989E+03 -0.92916098671E+02  0.45687460782E+03  0.99147957622E+02 0.  0.
          4    1    3    3  502    0  0.21099643357E+03 -0.45839127002E+02  0.96446175245E+03  0.98833556674E+03  0.00000000000E+00 0. -1.
         -3    1    3    3    0  502  0.11811675403E+03 -0.68732813271E+02  0.42237909639E+03  0.44393678409E+03  0.00000000000E+00 0.  1.
         13    1    5    5    0    0  0.57705404617E+02 -0.11440520294E+03  0.44376311925E+03  0.46189194645E+03  0.00000000000E+00 0. -1.
        -13    1    5    5    0    0 -0.21028779945E+02 -0.86538766792E+01  0.17819142579E+03  0.17963653134E+03  0.00000000000E+00 0.  1.
          4    1    6    6  503    0 -0.26730126841E+03  0.20485578791E+03 -0.36527010219E+02  0.33874781831E+03  0.00000000000E+00 0. -1.
         -4    1    6    6    0  503 -0.98488543861E+02  0.32775231983E+02 -0.56389088452E+02  0.11812678951E+03  0.00000000000E+00 0.  1.
<mgrwt>
<rscale>  0 0.16533979E+04</rscale>
<asrwt>0</asrwt>
<pdfrwt beam="1">  1        2 0.34204266E+00 0.16533979E+04</pdfrwt>
<pdfrwt beam="2">  1       -1 0.47292012E-01 0.16533979E+04</pdfrwt>
<totfact> 0.24326147E+01</totfact>
</mgrwt>
</event>
<event>
12    7  0.1730932E-007  0.3245761E+04  0.7818608E-02  0.8176835E-01
          2   -1    0    0  501    0  0.00000000000E+00  0.00000000000E+00  0.14043988762E+04  0.14043988762E+04  0.00000000000E+00 0. -1.
         -1   -1    0    0    0  501 -0.00000000000E+00 -0.00000000000E+00 -0.18753515554E+04  0.18753515554E+04  0.00000000000E+00 0.  1.
         24    2    1    2    0    0 -0.14641379060E+04 -0.31095444236E+03 -0.24513294968E+03  0.15187333406E+04  0.77899447153E+02 0.  0.
        254    2    1    2    0    0  0.14641379060E+04  0.31095444236E+03 -0.22581972948E+03  0.17610170910E+04  0.89988564362E+03 0.  0.
         23    2    4    4    0    0  0.95449444997E+03  0.40778065837E+02  0.26746930581E+03  0.99637841256E+03  0.92236683484E+02 0.  0.
         23    2    4    4    0    0  0.50964345601E+03  0.27017637652E+03 -0.49328903529E+03  0.76463867844E+03  0.92771275410E+02 0.  0.
          2    1    3    3  502    0 -0.11689728038E+04 -0.26947815718E+03 -0.17275571097E+03  0.12120067776E+04  0.00000000000E+00 0. -1.
         -1    1    3    3    0  502 -0.29516510216E+03 -0.41476285176E+02 -0.72377238711E+02  0.30672656300E+03  0.00000000000E+00 0.  1.
         13    1    5    5    0    0  0.37313075019E+03  0.24626284450E+01  0.60088906843E+02  0.37794615754E+03  0.00000000000E+00 0.  1.
        -13    1    5    5    0    0  0.58136369978E+03  0.38315437392E+02  0.20738039896E+03  0.61843225501E+03  0.00000000000E+00 0. -1.
          3    1    6    6  503    0  0.31586207565E+03  0.11946885400E+03 -0.30816811279E+03  0.45717528766E+03  0.00000000000E+00 0. -1.
         -3    1    6    6    0  503  0.19378138036E+03  0.15070752252E+03 -0.18512092250E+03  0.30746339077E+03  0.00000000000E+00 0.  1.
<mgrwt>
<rscale>  0 0.32457613E+04</rscale>
<asrwt>0</asrwt>
<pdfrwt beam="1">  1        2 0.21606137E+00 0.32457613E+04</pdfrwt>
<pdfrwt beam="2">  1       -1 0.28851562E+00 0.32457613E+04</pdfrwt>
<totfact> 0.53868176E-01</totfact>
</mgrwt>
</event>
<event>
12    7  0.1730932E-007  0.2418724E+04  0.7818608E-02  0.8432527E-01
         -1   -1    0    0    0  501 -0.00000000000E+00  0.00000000000E+00  0.15803580374E+04  0.15803580374E+04  0.00000000000E+00 0.  1.
          2   -1    0    0  501    0  0.00000000000E+00 -0.00000000000E+00 -0.92545873723E+03  0.92545873723E+03  0.00000000000E+00 0. -1.
         24    2    1    2    0    0 -0.40411533251E+03 -0.70429612957E+03  0.95168727088E+03  0.12535733347E+04  0.79970019000E+02 0.  0.
        254    2    1    2    0    0  0.40411533251E+03  0.70429612957E+03 -0.29678797070E+03  0.12522434399E+04  0.90591848039E+03 0.  0.
         23    2    4    4    0    0  0.49902508697E+03  0.20614599909E+03  0.15278525059E+03  0.56853078659E+03  0.91442397940E+02 0.  0.
         23    2    4    4    0    0 -0.94909754463E+02  0.49815013049E+03 -0.44957322128E+03  0.68371265330E+03  0.90473736475E+02 0.  0.
          4    1    3    3  502    0 -0.13885054742E+03 -0.26617233088E+03  0.40913406543E+03  0.50746218356E+03  0.00000000000E+00 0. -1.
         -1    1    3    3    0  502 -0.26526478509E+03 -0.43812379869E+03  0.54255320544E+03  0.74611115119E+03  0.00000000000E+00 0.  1.
         13    1    5    5    0    0  0.25186108494E+03  0.65983928798E+02  0.10334595298E+03  0.28012188590E+03  0.00000000000E+00 0. -1.
        -13    1    5    5    0    0  0.24716400204E+03  0.14016207029E+03  0.49439297612E+02  0.28840890069E+03  0.00000000000E+00 0.  1.
          3    1    6    6  503    0  0.13218477630E+02  0.11482620213E+03 -0.81815954674E+02  0.14161085864E+03  0.00000000000E+00 0. -1.
         -3    1    6    6    0  503 -0.10812823209E+03  0.38332392836E+03 -0.36775726661E+03  0.54210179466E+03  0.00000000000E+00 0.  1.
<mgrwt>
<rscale>  0 0.24187238E+04</rscale>
<asrwt>0</asrwt>
<pdfrwt beam="1">  1        2 0.14237827E+00 0.24187238E+04</pdfrwt>
<pdfrwt beam="2">  1       -1 0.24313201E+00 0.24187238E+04</pdfrwt>
<totfact> 0.22315069E+00</totfact>
</mgrwt>
</event>
<event>
12    7  0.1730932E-007  0.1585625E+04  0.7818608E-02  0.8829428E-01
          2   -1    0    0  501    0  0.00000000000E+00  0.00000000000E+00  0.14718354294E+04  0.14718354294E+04  0.00000000000E+00 0. -1.
         -1   -1    0    0    0  501 -0.00000000000E+00 -0.00000000000E+00 -0.42705283747E+03  0.42705283747E+03  0.00000000000E+00 0.  1.
         24    2    1    2    0    0  0.96270281882E+01 -0.50437829880E+03  0.13981062833E+03  0.52927585045E+03  0.78075387298E+02 0.  0.
        254    2    1    2    0    0 -0.96270281882E+01  0.50437829880E+03  0.90497196361E+03  0.13696124164E+04  0.89575318497E+03 0.  0.
         23    2    4    4    0    0  0.10637260538E+03  0.18057587989E+03  0.97972743263E+03  0.10059321121E+04  0.90059937559E+02 0.  0.
         23    2    4    4    0    0 -0.11599963356E+03  0.32380241891E+03 -0.74755469018E+02  0.36368030433E+03  0.91493508684E+02 0.  0.
          4    1    3    3  502    0 -0.18008888386E+02 -0.84292985803E+02  0.17171209880E+01  0.86212389023E+02  0.00000000000E+00 0. -1.
         -1    1    3    3    0  502  0.27635916574E+02 -0.42008531300E+03  0.13809350734E+03  0.44306346143E+03  0.00000000000E+00 0.  1.
         13    1    5    5    0    0  0.11539178762E+03  0.13684109132E+03  0.85267086428E+03  0.87125676566E+03  0.00000000000E+00 0.  1.
        -13    1    5    5    0    0 -0.90191822412E+01  0.43734788566E+02  0.12705656835E+03  0.13467534644E+03  0.00000000000E+00 0. -1.
          4    1    6    6  503    0 -0.49300112894E+02  0.55639598650E+02 -0.42078233241E+02  0.85421565088E+02  0.00000000000E+00 0. -1.
         -4    1    6    6    0  503 -0.66699520671E+02  0.26816282026E+03 -0.32677235776E+02  0.27825873925E+03  0.00000000000E+00 0.  1.
<mgrwt>
<rscale>  0 0.15856248E+04</rscale>
<asrwt>0</asrwt>
<pdfrwt beam="1">  1        2 0.22643622E+00 0.15856248E+04</pdfrwt>
<pdfrwt beam="2">  1       -1 0.65700437E-01 0.15856248E+04</pdfrwt>
<totfact> 0.33827715E+01</totfact>
</mgrwt>
</event>
<event>
12    7  0.1730932E-007  0.1419854E+04  0.7818608E-02  0.8939571E-01
         -3   -1    0    0    0  501 -0.00000000000E+00  0.00000000000E+00  0.45420164510E+03  0.45420164510E+03  0.00000000000E+00 0.  1.
          4   -1    0    0  501    0  0.00000000000E+00 -0.00000000000E+00 -0.11096317565E+04  0.11096317565E+04  0.00000000000E+00 0. -1.
         24    2    1    2    0    0  0.18262882089E+03  0.33214691296E+03 -0.77821991512E+01  0.38778299039E+03  0.81487588029E+02 0.  0.
        254    2    1    2    0    0 -0.18262882089E+03 -0.33214691296E+03 -0.64764791225E+03  0.11760504112E+04  0.90552299445E+03 0.  0.
         23    2    4    4    0    0  0.56615888452E+02 -0.41045304910E+03  0.51420228905E+02  0.42743078269E+03  0.91520324040E+02 0.  0.
         23    2    4    4    0    0 -0.23924470934E+03  0.78306136130E+02 -0.69906814116E+03  0.74861962853E+03  0.91461469150E+02 0.  0.
          4    1    3    3  502    0  0.23371028905E+01  0.87326464514E+01 -0.14915981844E+02  0.17441550342E+02  0.00000000000E+00 0. -1.
         -3    1    3    3    0  502  0.18029171799E+03  0.32341426651E+03  0.71337826927E+01  0.37034144005E+03  0.00000000000E+00 0.  1.
         13    1    5    5    0    0  0.32423267203E+02 -0.68679378540E+02 -0.17501653875E+02  0.77938650111E+02  0.00000000000E+00 0. -1.
        -13    1    5    5    0    0  0.24192621249E+02 -0.34177367056E+03  0.68921882780E+02  0.34949213258E+03  0.00000000000E+00 0.  1.
          3    1    6    6  503    0 -0.72888663071E+01 -0.10664339506E+02 -0.88596800176E+02  0.89533506078E+02  0.00000000000E+00 0. -1.
         -3    1    6    6    0  503 -0.23195584303E+03  0.88970475637E+02 -0.61047134098E+03  0.65908612245E+03  0.00000000000E+00 0.  1.
<mgrwt>
<rscale>  0 0.14198543E+04</rscale>
<asrwt>0</asrwt>
<pdfrwt beam="1">  1        4 0.17071258E+00 0.14198543E+04</pdfrwt>
<pdfrwt beam="2">  1       -3 0.69877176E-01 0.14198543E+04</pdfrwt>
<totfact> 0.90953713E-01</totfact>
</mgrwt>
</event>
<event>
12    7  0.1730932E-007  0.1089893E+04  0.7818608E-02  0.9215099E-01
         -1   -1    0    0    0  501 -0.00000000000E+00  0.00000000000E+00  0.10239787263E+03  0.10239787263E+03  0.00000000000E+00 0.  1.
          2   -1    0    0  501    0  0.00000000000E+00 -0.00000000000E+00 -0.29001273702E+04  0.29001273702E+04  0.00000000000E+00 0. -1.
         24    2    1    2    0    0  0.14882829182E+01 -0.10500789078E+03 -0.12482268385E+03  0.18147666453E+03  0.79524871905E+02 0.  0.
        254    2    1    2    0    0 -0.14882829182E+01  0.10500789078E+03 -0.26729068137E+04  0.28210485783E+04  0.89602197193E+03 0.  0.
         23    2    4    4    0    0 -0.39704054197E+03  0.26668904208E+02 -0.74805735010E+03  0.85228295275E+03  0.91891294923E+02 0.  0.
         23    2    4    4    0    0  0.39555225905E+03  0.78338986575E+02 -0.19248494636E+04  0.19687656255E+04  0.91619017154E+02 0.  0.
          4    1    3    3  502    0 -0.23612998518E+02 -0.35943631136E+02 -0.90859198162E+02  0.10052319239E+03  0.00000000000E+00 0. -1.
         -3    1    3    3    0  502  0.25101281436E+02 -0.69064259647E+02 -0.33963485685E+02  0.80953472132E+02  0.00000000000E+00 0.  1.
         13    1    5    5    0    0 -0.39335879046E+03  0.27502322449E+02 -0.75050185703E+03  0.84778567644E+03  0.00000000000E+00 0.  1.
        -13    1    5    5    0    0 -0.36817515130E+01 -0.83341824104E+00  0.24445069205E+01  0.44972763149E+01  0.00000000000E+00 0. -1.
          1    1    6    6  503    0  0.62650828251E+01 -0.79067277752E+01 -0.17625528642E+02  0.20308295518E+02  0.00000000000E+00 0. -1.
         -1    1    6    6    0  503  0.38928717623E+03  0.86245714350E+02 -0.19072239349E+04  0.19484573300E+04  0.00000000000E+00 0.  1.
<mgrwt>
<rscale>  0 0.10898933E+04</rscale>
<asrwt>0</asrwt>
<pdfrwt beam="1">  1        2 0.44617339E+00 0.10898933E+04</pdfrwt>
<pdfrwt beam="2">  1       -1 0.15753521E-01 0.10898933E+04</pdfrwt>
<totfact> 0.70216412E+01</totfact>
</mgrwt>
</event>
<event>
12    7  0.1730932E-007  0.2015993E+04  0.7818608E-02  0.8599180E-01
         -1   -1    0    0    0  501 -0.00000000000E+00  0.00000000000E+00  0.41614778499E+03  0.41614778499E+03  0.00000000000E+00 0.  1.
          2   -1    0    0  501    0  0.00000000000E+00 -0.00000000000E+00 -0.24415774334E+04  0.24415774334E+04  0.00000000000E+00 0. -1.
         24    2    1    2    0    0  0.10399192804E+03  0.62585175588E+03 -0.15269738512E+04  0.16554653595E+04  0.80072922136E+02 0.  0.
        254    2    1    2    0    0 -0.10399192804E+03 -0.62585175588E+03 -0.49845579725E+03  0.12022598589E+04  0.89132813549E+03 0.  0.
         23    2    4    4    0    0  0.13520080462E+03 -0.20620210781E+02 -0.51937629432E+03  0.54477188408E+03  0.91215239498E+02 0.  0.
         23    2    4    4    0    0 -0.23919273266E+03 -0.60523154510E+03  0.20920497073E+02  0.65748797484E+03  0.91292843703E+02 0.  0.
          4    1    3    3  502    0  0.70239101391E+02  0.40228152273E+03 -0.10783684616E+04  0.11531012505E+04  0.00000000000E+00 0. -1.
         -3    1    3    3    0  502  0.33752826645E+02  0.22357023316E+03 -0.44860538952E+03  0.50236410895E+03  0.00000000000E+00 0.  1.
         13    1    5    5    0    0  0.81472427629E+02 -0.56424694880E+02 -0.33895387580E+03  0.35314477566E+03  0.00000000000E+00 0. -1.
        -13    1    5    5    0    0  0.53728376992E+02  0.35804484099E+02 -0.18042241852E+03  0.19162710842E+03  0.00000000000E+00 0.  1.
          3    1    6    6  503    0 -0.12384480181E+03 -0.19498658015E+03  0.91215031114E+01  0.23117202079E+03  0.00000000000E+00 0. -1.
         -3    1    6    6    0  503 -0.11534793084E+03 -0.41024496495E+03  0.11798993961E+02  0.42631595405E+03  0.00000000000E+00 0.  1.
<mgrwt>
<rscale>  0 0.20159931E+04</rscale>
<asrwt>0</asrwt>
<pdfrwt beam="1">  1        2 0.37562730E+00 0.20159931E+04</pdfrwt>
<pdfrwt beam="2">  1       -1 0.64022736E-01 0.20159931E+04</pdfrwt>
<totfact> 0.98361325E+00</totfact>
</mgrwt>
</event>
<event>
12    7  0.1730932E-007  0.2216819E+04  0.7818608E-02  0.8511460E-01
         -1   -1    0    0    0  501 -0.00000000000E+00  0.00000000000E+00  0.12557462081E+04  0.12557462081E+04  0.00000000000E+00 0.  1.
          2   -1    0    0  501    0  0.00000000000E+00 -0.00000000000E+00 -0.97835957825E+03  0.97835957825E+03  0.00000000000E+00 0. -1.
         24    2    1    2    0    0 -0.10356443840E+03  0.83255322115E+03  0.50250441486E+03  0.98115642163E+03  0.79289203595E+02 0.  0.
        254    2    1    2    0    0  0.10356443840E+03 -0.83255322115E+03 -0.22511778501E+03  0.12529493647E+04  0.90295826840E+03 0.  0.
         23    2    4    4    0    0  0.22143055859E+03 -0.83514995207E+03  0.11992550755E+03  0.87706048395E+03  0.91356611340E+02 0.  0.
         23    2    4    4    0    0 -0.11786612018E+03  0.25967309184E+01 -0.34504329257E+03  0.37588888076E+03  0.91314903702E+02 0.  0.
          4    1    3    3  502    0 -0.45176934411E+02  0.61691078177E+03  0.35082950356E+03  0.71112671771E+03  0.00000000000E+00 0. -1.
         -3    1    3    3    0  502 -0.58387503993E+02  0.21564243938E+03  0.15167491130E+03  0.27002970393E+03  0.00000000000E+00 0.  1.
         13    1    5    5    0    0  0.14944002105E+02 -0.10073069407E+03 -0.13041475927E+02  0.10266487238E+03  0.00000000000E+00 0.  1.
        -13    1    5    5    0    0  0.20648655648E+03 -0.73441925800E+03  0.13296698348E+03  0.77439561158E+03  0.00000000000E+00 0. -1.
          3    1    6    6  503    0 -0.90086132190E+02 -0.38356637427E+02 -0.25485210007E+03  0.27301343513E+03  0.00000000000E+00 0. -1.
         -3    1    6    6    0  503 -0.27779987993E+02  0.40953368345E+02 -0.90191192491E+02  0.10287544563E+03  0.00000000000E+00 0.  1.
<mgrwt>
<rscale>  0 0.22168187E+04</rscale>
<asrwt>0</asrwt>
<pdfrwt beam="1">  1        2 0.15051686E+00 0.22168187E+04</pdfrwt>
<pdfrwt beam="2">  1       -1 0.19319172E+00 0.22168187E+04</pdfrwt>
<totfact> 0.45447147E+00</totfact>
</mgrwt>
</event>
<event>
12    7  0.1730932E-007  0.1624205E+04  0.7818608E-02  0.8805814E-01
          2   -1    0    0  501    0  0.00000000000E+00  0.00000000000E+00  0.12166328890E+04  0.12166328890E+04  0.00000000000E+00 0. -1.
         -1   -1    0    0    0  501 -0.00000000000E+00 -0.00000000000E+00 -0.54207844064E+03  0.54207844064E+03  0.00000000000E+00 0.  1.
         24    2    1    2    0    0  0.48563680027E+03 -0.16430767855E+01 -0.64068378219E+02  0.49544645314E+03  0.74274015413E+02 0.  0.
        254    2    1    2    0    0 -0.48563680027E+03  0.16430767855E+01  0.73862282656E+03  0.12632648765E+04  0.90245701655E+03 0.  0.
         23    2    4    4    0    0 -0.27921496116E+03  0.22209877071E+03 -0.85542199834E+02  0.38047665045E+03  0.10077775101E+03 0.  0.
         23    2    4    4    0    0 -0.20642183911E+03 -0.22045569393E+03  0.82416502640E+03  0.88278822602E+03  0.94108302624E+02 0.  0.
          2    1    3    3  502    0  0.55278798482E+01 -0.35554301025E+01  0.75626514096E+01  0.10019592565E+02  0.00000000000E+00 0. -1.
         -1    1    3    3    0  502  0.48010892042E+03  0.19123533170E+01 -0.71631029629E+02  0.48542686058E+03  0.00000000000E+00 0.  1.
         13    1    5    5    0    0 -0.21247321268E+03  0.21650195289E+03 -0.76943774022E+02  0.31295096433E+03  0.00000000000E+00 0. -1.
        -13    1    5    5    0    0 -0.66741748476E+02  0.55968178177E+01 -0.85984258117E+01  0.67525686118E+02  0.00000000000E+00 0.  1.
          4    1    6    6  503    0 -0.19576750878E+03 -0.15777073375E+03  0.68818399759E+03  0.73267573759E+03  0.00000000000E+00 0. -1.
         -4    1    6    6    0  503 -0.10654330338E+02 -0.62684960174E+02  0.13598102881E+03  0.15011248843E+03  0.00000000000E+00 0.  1.
<mgrwt>
<rscale>  0 0.16242050E+04</rscale>
<asrwt>0</asrwt>
<pdfrwt beam="1">  1        2 0.18717429E+00 0.16242050E+04</pdfrwt>
<pdfrwt beam="2">  1       -1 0.83396683E-01 0.16242050E+04</pdfrwt>
<totfact> 0.28829057E+01</totfact>
</mgrwt>
</event>
<event>
12    7  0.1730932E-007  0.1942357E+04  0.7818608E-02  0.8634055E-01
         -1   -1    0    0    0  501 -0.00000000000E+00  0.00000000000E+00  0.16706617557E+04  0.16706617557E+04  0.00000000000E+00 0.  1.
          2   -1    0    0  501    0  0.00000000000E+00 -0.00000000000E+00 -0.56455952854E+03  0.56455952854E+03  0.00000000000E+00 0. -1.
         24    2    1    2    0    0 -0.69142238177E+03  0.31122312536E+03  0.37770934440E+03  0.85085047959E+03  0.79733593920E+02 0.  0.
        254    2    1    2    0    0  0.69142238177E+03 -0.31122312536E+03  0.72839288280E+03  0.13843708047E+04  0.90055626663E+03 0.  0.
         23    2    4    4    0    0 -0.10714676161E+03 -0.19403725398E+03 -0.64886448182E+02  0.24821349011E+03  0.90932948145E+02 0.  0.
         23    2    4    4    0    0  0.79856914338E+03 -0.11718587137E+03  0.79327933098E+03  0.11361573146E+04  0.10057903004E+03 0.  0.
          4    1    3    3  502    0 -0.90950136090E+02  0.35909637977E+02  0.20620599870E+02  0.99933170136E+02  0.00000000000E+00 0. -1.
         -3    1    3    3    0  502 -0.60047224568E+03  0.27531348738E+03  0.35708874453E+03  0.75091730945E+03  0.00000000000E+00 0.  1.
         13    1    5    5    0    0 -0.10871899553E+03 -0.19089610293E+03 -0.40266202874E+02  0.22334392581E+03  0.00000000000E+00 0.  1.
        -13    1    5    5    0    0  0.15722339238E+01 -0.31411510561E+01 -0.24620245307E+02  0.24869564300E+02  0.00000000000E+00 0. -1.
          3    1    6    6  503    0  0.34014398971E+03 -0.95736717635E+02  0.37420943787E+03  0.51468063518E+03  0.00000000000E+00 0.  1.
         -3    1    6    6    0  503  0.45842515367E+03 -0.21449153739E+02  0.41906989311E+03  0.62147667939E+03  0.00000000000E+00 0. -1.
<mgrwt>
<rscale>  0 0.19423573E+04</rscale>
<asrwt>0</asrwt>
<pdfrwt beam="1">  1        2 0.86855313E-01 0.19423573E+04</pdfrwt>
<pdfrwt beam="2">  1       -1 0.25702488E+00 0.19423573E+04</pdfrwt>
<totfact> 0.35696524E+00</totfact>
</mgrwt>
</event>
<event>
12    7  0.1730932E-007  0.2373713E+04  0.7818608E-02  0.8449411E-01
         -1   -1    0    0    0  501 -0.00000000000E+00  0.00000000000E+00  0.57449393876E+03  0.57449393876E+03  0.00000000000E+00 0.  1.
          2   -1    0    0  501    0  0.00000000000E+00 -0.00000000000E+00 -0.24519467640E+04  0.24519467640E+04  0.00000000000E+00 0. -1.
         24    2    1    2    0    0 -0.90117001011E+03  0.24153334000E+03 -0.28918597111E+03  0.97949791451E+03  0.73088283487E+02 0.  0.
        254    2    1    2    0    0  0.90117001011E+03 -0.24153334000E+03 -0.15882668542E+04  0.20469427883E+04  0.89271352460E+03 0.  0.
         23    2    4    4    0    0  0.47315892027E+03 -0.55398185285E+03 -0.73837156156E+03  0.10411272439E+04  0.89320310662E+02 0.  0.
         23    2    4    4    0    0  0.42801108984E+03  0.31244851285E+03 -0.84989529261E+03  0.10058155444E+04  0.92332739396E+02 0.  0.
          4    1    3    3  502    0 -0.26876184695E+03  0.51268642864E+02 -0.11272668310E+03  0.29592010611E+03  0.00000000000E+00 0. -1.
         -3    1    3    3    0  502 -0.63240816316E+03  0.19026469714E+03 -0.17645928801E+03  0.68357780840E+03  0.00000000000E+00 0.  1.
         13    1    5    5    0    0  0.18598859498E+03 -0.17476651931E+03 -0.30437284087E+03  0.39721268861E+03  0.00000000000E+00 0. -1.
        -13    1    5    5    0    0  0.28717032528E+03 -0.37921533354E+03 -0.43399872069E+03  0.64391455526E+03  0.00000000000E+00 0.  1.
          1    1    6    6  503    0  0.12063973178E+03  0.10339469549E+03 -0.18327722282E+03  0.24255916463E+03  0.00000000000E+00 0. -1.
         -1    1    6    6    0  503  0.30737135806E+03  0.20905381736E+03 -0.66661806978E+03  0.76325637978E+03  0.00000000000E+00 0.  1.
<mgrwt>
<rscale>  0 0.23737132E+04</rscale>
<asrwt>0</asrwt>
<pdfrwt beam="1">  1        2 0.37722258E+00 0.23737132E+04</pdfrwt>
<pdfrwt beam="2">  1       -1 0.88383684E-01 0.23737132E+04</pdfrwt>
<totfact> 0.47826877E+00</totfact>
</mgrwt>
</event>
<event>
12    7  0.1730932E-007  0.1398513E+04  0.7818608E-02  0.8954895E-01
          2   -1    0    0  501    0  0.00000000000E+00  0.00000000000E+00  0.16427801784E+04  0.16427801784E+04  0.00000000000E+00 0. -1.
         -1   -1    0    0    0  501 -0.00000000000E+00 -0.00000000000E+00 -0.29764175591E+03  0.29764175591E+03  0.00000000000E+00 0.  1.
         24    2    1    2    0    0  0.83009307271E+01  0.28743503922E+03 -0.64228743643E+01  0.29921436958E+03  0.82463194356E+02 0.  0.
        254    2    1    2    0    0 -0.83009307271E+01 -0.28743503922E+03  0.13515612968E+04  0.16412075647E+04  0.88552612842E+03 0.  0.
         23    2    4    4    0    0  0.13829083627E+03 -0.25980092803E+03  0.14196724303E+04  0.14527539544E+04  0.91669869505E+02 0.  0.
         23    2    4    4    0    0 -0.14659176700E+03 -0.27634111196E+02 -0.68111133483E+02  0.18845361032E+03  0.92859283239E+02 0.  0.
          2    1    3    3  502    0  0.15995335581E+02  0.60143909844E+01 -0.45430472468E+01  0.17682277499E+02  0.00000000000E+00 0. -1.
         -1    1    3    3    0  502 -0.76944048538E+01  0.28142064824E+03 -0.18798271175E+01  0.28153209208E+03  0.00000000000E+00 0.  1.
         13    1    5    5    0    0  0.36290113905E+02 -0.59562501696E+02  0.55465729921E+03  0.55902538721E+03  0.00000000000E+00 0.  1.
        -13    1    5    5    0    0  0.10200072237E+03 -0.20023842633E+03  0.86501513110E+03  0.89372856717E+03  0.00000000000E+00 0. -1.
          1    1    6    6  503    0 -0.70517316293E+02  0.16698326923E+02 -0.69479180979E+02  0.10039363829E+03  0.00000000000E+00 0. -1.
         -1    1    6    6    0  503 -0.76074450707E+02 -0.44332438119E+02  0.13680474961E+01  0.88059972029E+02  0.00000000000E+00 0.  1.
<mgrwt>
<rscale>  0 0.13985135E+04</rscale>
<asrwt>0</asrwt>
<pdfrwt beam="1">  1        2 0.25273541E+00 0.13985135E+04</pdfrwt>
<pdfrwt beam="2">  1       -1 0.45791040E-01 0.13985135E+04</pdfrwt>
<totfact> 0.55478013E+01</totfact>
</mgrwt>
</event>
<event>
12    7  0.1730932E-007  0.1337300E+04  0.7818608E-02  0.9000498E-01
         -1   -1    0    0    0  501 -0.00000000000E+00  0.00000000000E+00  0.24418283379E+03  0.24418283379E+03  0.00000000000E+00 0.  1.
          2   -1    0    0  501    0  0.00000000000E+00 -0.00000000000E+00 -0.18309768432E+04  0.18309768432E+04  0.00000000000E+00 0. -1.
         24    2    1    2    0    0 -0.65888241086E+02 -0.29502609681E+03 -0.69386135043E+03  0.76110843104E+03  0.80379176808E+02 0.  0.
        254    2    1    2    0    0  0.65888241086E+02  0.29502609681E+03 -0.89293265897E+03  0.13140512459E+04  0.91543447903E+03 0.  0.
         23    2    4    4    0    0  0.32434356045E+03  0.46467734960E+03 -0.78268480377E+03  0.97067973237E+03  0.92194665398E+02 0.  0.
         23    2    4    4    0    0 -0.25845531937E+03 -0.16965125279E+03 -0.11024785520E+03  0.34337151358E+03  0.10084000735E+03 0.  0.
          4    1    3    3  502    0 -0.13429875462E+02 -0.19093954723E+03 -0.36400092358E+03  0.41126019090E+03  0.00000000000E+00 0. -1.
         -3    1    3    3    0  502 -0.52458365624E+02 -0.10408654959E+03 -0.32986042685E+03  0.34984824014E+03  0.00000000000E+00 0.  1.
         13    1    5    5    0    0  0.11716837982E+03  0.11923898566E+03 -0.28504387071E+03  0.33044874513E+03  0.00000000000E+00 0. -1.
        -13    1    5    5    0    0  0.20717518063E+03  0.34543836394E+03 -0.49764093306E+03  0.64023098723E+03  0.00000000000E+00 0.  1.
          4    1    6    6  503    0 -0.17664474238E+03 -0.14275752756E+03 -0.11970873572E+03  0.25673577486E+03  0.00000000000E+00 0.  1.
         -4    1    6    6    0  503 -0.81810576987E+02 -0.26893725223E+02  0.94608805209E+01  0.86635738720E+02  0.00000000000E+00 0. -1.
<mgrwt>
<rscale>  0 0.13373004E+04</rscale>
<asrwt>0</asrwt>
<pdfrwt beam="1">  1        2 0.28168875E+00 0.13373004E+04</pdfrwt>
<pdfrwt beam="2">  1       -1 0.37566590E-01 0.13373004E+04</pdfrwt>
<totfact> 0.63096324E+01</totfact>
</mgrwt>
</event>
<event>
12    7  0.1730932E-007  0.1603198E+04  0.7818608E-02  0.8818586E-01
          2   -1    0    0  501    0  0.00000000000E+00  0.00000000000E+00  0.16533724759E+04  0.16533724759E+04  0.00000000000E+00 0. -1.
         -1   -1    0    0    0  501 -0.00000000000E+00 -0.00000000000E+00 -0.38863649584E+03  0.38863649584E+03  0.00000000000E+00 0.  1.
         24    2    1    2    0    0  0.52532237754E+02  0.10260453365E+02 -0.25629884151E+03  0.27387979109E+03  0.80350052262E+02 0.  0.
        254    2    1    2    0    0 -0.52532237754E+02 -0.10260453365E+02  0.15210348216E+04  0.17681291807E+04  0.89992719603E+03 0.  0.
         23    2    4    4    0    0 -0.41892316384E+03  0.13383038185E+03  0.51514238444E+03  0.68406060981E+03  0.95708167590E+02 0.  0.
         23    2    4    4    0    0  0.36639092608E+03 -0.14409083522E+03  0.10058924371E+04  0.10840685708E+04  0.91545571758E+02 0.  0.
          2    1    3    3  502    0  0.21925166718E+02 -0.26665628102E+02 -0.42434138645E+02  0.54703060063E+02  0.00000000000E+00 0. -1.
         -1    1    3    3    0  502  0.30607071036E+02  0.36926081467E+02 -0.21386470287E+03  0.21917673102E+03  0.00000000000E+00 0.  1.
         13    1    5    5    0    0 -0.39597693491E+03  0.99171097211E+02  0.47451129038E+03  0.62593418519E+03  0.00000000000E+00 0. -1.
        -13    1    5    5    0    0 -0.22946228929E+02  0.34659284641E+02  0.40631094061E+02  0.58126424615E+02  0.00000000000E+00 0.  1.
          2    1    6    6  503    0  0.33537438010E+03 -0.11721307913E+03  0.95336583292E+03  0.10174091075E+04  0.00000000000E+00 0. -1.
         -2    1    6    6    0  503  0.31016545981E+02 -0.26877756087E+02  0.52526604213E+02  0.66659463297E+02  0.00000000000E+00 0.  1.
<mgrwt>
<rscale>  0 0.16031979E+04</rscale>
<asrwt>0</asrwt>
<pdfrwt beam="1">  1        2 0.25436499E+00 0.16031979E+04</pdfrwt>
<pdfrwt beam="2">  1       -1 0.59790231E-01 0.16031979E+04</pdfrwt>
<totfact> 0.32250419E+01</totfact>
</mgrwt>
</event>
<event>
12    7  0.1730932E-007  0.1351024E+04  0.7818608E-02  0.8990053E-01
         -1   -1    0    0    0  501 -0.00000000000E+00  0.00000000000E+00  0.15902898555E+03  0.15902898555E+03  0.00000000000E+00 0.  1.
          2   -1    0    0  501    0  0.00000000000E+00 -0.00000000000E+00 -0.28693932202E+04  0.28693932202E+04  0.00000000000E+00 0. -1.
         24    2    1    2    0    0 -0.23775359092E+03  0.14733314220E+03 -0.20874760844E+03  0.35825289860E+03  0.80843988880E+02 0.  0.
        254    2    1    2    0    0  0.23775359092E+03 -0.14733314220E+03 -0.25016166262E+04  0.26701693071E+04  0.89077750287E+03 0.  0.
         23    2    4    4    0    0 -0.19341797420E+03 -0.24371839861E+03 -0.37365570385E+03  0.49486703578E+03  0.92008844784E+02 0.  0.
         23    2    4    4    0    0  0.43117156511E+03  0.96385256412E+02 -0.21279609223E+04  0.21753022713E+04  0.92321441729E+02 0.  0.
          2    1    3    3  502    0 -0.66552746116E+02  0.56346108272E+02 -0.11091697524E+03  0.14109120217E+03  0.00000000000E+00 0. -1.
         -1    1    3    3    0  502 -0.17120084480E+03  0.90987033924E+02 -0.97830633209E+02  0.21716169643E+03  0.00000000000E+00 0.  1.
         13    1    5    5    0    0 -0.12139363643E+03 -0.12453568957E+03 -0.14174734684E+03  0.22436101105E+03  0.00000000000E+00 0. -1.
        -13    1    5    5    0    0 -0.72024337765E+02 -0.11918270904E+03 -0.23190835701E+03  0.27050602473E+03  0.00000000000E+00 0.  1.
          4    1    6    6  503    0  0.20261002552E+03  0.69453177531E+02 -0.83585212823E+03  0.86285766299E+03  0.00000000000E+00 0. -1.
         -4    1    6    6    0  503  0.22856153959E+03  0.26932078880E+02 -0.12921087941E+04  0.13124446083E+04  0.00000000000E+00 0.  1.
<mgrwt>
<rscale>  0 0.13510243E+04</rscale>
<asrwt>0</asrwt>
<pdfrwt beam="1">  1        2 0.44144511E+00 0.13510243E+04</pdfrwt>
<pdfrwt beam="2">  1       -1 0.24465998E-01 0.13510243E+04</pdfrwt>
<totfact> 0.34207112E+01</totfact>
</mgrwt>
</event>
<event>
12    7  0.1730932E-007  0.1559573E+04  0.7818608E-02  0.8845776E-01
          2   -1    0    0  501    0  0.00000000000E+00  0.00000000000E+00  0.84122487524E+03  0.84122487524E+03  0.00000000000E+00 0. -1.
         -1   -1    0    0    0  501 -0.00000000000E+00 -0.00000000000E+00 -0.72283537005E+03  0.72283537005E+03  0.00000000000E+00 0.  1.
         24    2    1    2    0    0  0.83908835014E+02 -0.12255289908E+03 -0.45618985994E+03  0.48572573699E+03  0.75897283234E+02 0.  0.
        254    2    1    2    0    0 -0.83908835014E+02  0.12255289908E+03  0.57457936512E+03  0.10783345083E+04  0.90033547043E+03 0.  0.
         23    2    4    4    0    0 -0.14345292665E+03  0.44727569431E+03  0.92635457629E+02  0.48730762052E+03  0.90846574661E+02 0.  0.
         23    2    4    4    0    0  0.59544091632E+02 -0.32472279523E+03  0.48194390749E+03  0.59102688778E+03  0.89735497552E+02 0.  0.
          2    1    3    3  502    0 -0.62479879729E+01 -0.51590709030E+02 -0.14980290482E+03  0.15856086814E+03  0.00000000000E+00 0. -1.
         -1    1    3    3    0  502  0.90156822987E+02 -0.70962190046E+02 -0.30638695511E+03  0.32716486885E+03  0.00000000000E+00 0.  1.
         13    1    5    5    0    0 -0.30108396286E+02  0.41157023206E+02 -0.13024781007E+02  0.52631369034E+02  0.00000000000E+00 0.  1.
        -13    1    5    5    0    0 -0.11334453036E+03  0.40611867110E+03  0.10566023864E+03  0.43467625149E+03  0.00000000000E+00 0. -1.
          3    1    6    6  503    0  0.27600359454E+02 -0.21260567431E+03  0.23592541122E+03  0.31878480555E+03  0.00000000000E+00 0. -1.
         -3    1    6    6    0  503  0.31943732179E+02 -0.11211712092E+03  0.24601849628E+03  0.27224208224E+03  0.00000000000E+00 0.  1.
<mgrwt>
<rscale>  0 0.15595731E+04</rscale>
<asrwt>0</asrwt>
<pdfrwt beam="1">  1        2 0.12941921E+00 0.15595731E+04</pdfrwt>
<pdfrwt beam="2">  1       -1 0.11120544E+00 0.15595731E+04</pdfrwt>
<totfact> 0.26294824E+01</totfact>
</mgrwt>
</event>
<event>
12    7  0.1730932E-007  0.1397971E+04  0.7818608E-02  0.8955289E-01
         -1   -1    0    0    0  501 -0.00000000000E+00  0.00000000000E+00  0.22768429509E+03  0.22768429509E+03  0.00000000000E+00 0.  1.
          2   -1    0    0  501    0  0.00000000000E+00 -0.00000000000E+00 -0.21458682247E+04  0.21458682247E+04  0.00000000000E+00 0. -1.
         24    2    1    2    0    0  0.24985764008E+03  0.31962629894E+03 -0.64768018261E+03  0.76844826460E+03  0.80207887020E+02 0.  0.
        254    2    1    2    0    0 -0.24985764008E+03 -0.31962629894E+03 -0.12705037470E+04  0.16051042552E+04  0.89307899294E+03 0.  0.
         23    2    4    4    0    0 -0.36608776287E+03 -0.47544572677E+03 -0.12490823469E+04  0.13893090369E+04  0.99518849324E+02 0.  0.
         23    2    4    4    0    0  0.11623012279E+03  0.15581942783E+03 -0.21421400106E+02  0.21579521833E+03  0.91211645845E+02 0.  0.
          2    1    3    3  502    0  0.13720878806E+03  0.21999958670E+03 -0.35761925170E+03  0.44172117773E+03  0.00000000000E+00 0. -1.
         -1    1    3    3    0  502  0.11264885202E+03  0.99626712237E+02 -0.29006093092E+03  0.32672708687E+03  0.00000000000E+00 0.  1.
         13    1    5    5    0    0 -0.33975566753E+03 -0.46315146139E+03 -0.12186035167E+04  0.13471962443E+04  0.00000000000E+00 0.  1.
        -13    1    5    5    0    0 -0.26332095335E+02 -0.12294265380E+02 -0.30478830214E+02  0.42112792559E+02  0.00000000000E+00 0. -1.
          2    1    6    6  503    0  0.57081775916E+02  0.12852999201E+03  0.14544904665E+02  0.14138543857E+03  0.00000000000E+00 0. -1.
         -2    1    6    6    0  503  0.59148346873E+02  0.27289435825E+02 -0.35966304771E+02  0.74409779763E+02  0.00000000000E+00 0.  1.
<mgrwt>
<rscale>  0 0.13979707E+04</rscale>
<asrwt>0</asrwt>
<pdfrwt beam="1">  1        2 0.33013359E+00 0.13979707E+04</pdfrwt>
<pdfrwt beam="2">  1       -1 0.35028352E-01 0.13979707E+04</pdfrwt>
<totfact> 0.47643731E+01</totfact>
</mgrwt>
</event>
<event>
12    7  0.1730932E-007  0.1645854E+04  0.7818608E-02  0.8792863E-01
          2   -1    0    0  501    0  0.00000000000E+00  0.00000000000E+00  0.78064719432E+03  0.78064719432E+03  0.00000000000E+00 0. -1.
         -1   -1    0    0    0  501 -0.00000000000E+00 -0.00000000000E+00 -0.86749714526E+03  0.86749714526E+03  0.00000000000E+00 0.  1.
         24    2    1    2    0    0  0.44495361400E+03 -0.24054109658E+03  0.23603411508E+03  0.56387408883E+03  0.79988416767E+02 0.  0.
        254    2    1    2    0    0 -0.44495361400E+03  0.24054109658E+03 -0.32288406603E+03  0.10842702508E+04  0.90307481352E+03 0.  0.
         23    2    4    4    0    0 -0.45746220547E+03 -0.67580422729E+02 -0.52451510375E+03  0.70491363844E+03  0.89153578890E+02 0.  0.
         23    2    4    4    0    0  0.12508591471E+02  0.30812151931E+03  0.20163103772E+03  0.37935661231E+03  0.90338410492E+02 0.  0.
          2    1    3    3  502    0  0.37065265067E+03 -0.17663363920E+03  0.21563873770E+03  0.46377030429E+03  0.00000000000E+00 0. -1.
         -1    1    3    3    0  502  0.74300963330E+02 -0.63907457383E+02  0.20395377385E+02  0.10010378454E+03  0.00000000000E+00 0.  1.
         13    1    5    5    0    0 -0.45751445947E+03 -0.59993002272E+02 -0.50546152559E+03  0.68440484715E+03  0.00000000000E+00 0. -1.
        -13    1    5    5    0    0  0.52254000375E-01 -0.75874204572E+01 -0.19053578159E+02  0.20508791294E+02  0.00000000000E+00 0.  1.
          3    1    6    6  503    0  0.49145330674E+02  0.14321647207E+03  0.80442326245E+02  0.17145608548E+03  0.00000000000E+00 0. -1.
         -3    1    6    6    0  503 -0.36636739203E+02  0.16490504724E+03  0.12118871147E+03  0.20790052683E+03  0.00000000000E+00 0.  1.
<mgrwt>
<rscale>  0 0.16458544E+04</rscale>
<asrwt>0</asrwt>
<pdfrwt beam="1">  1        2 0.12009957E+00 0.16458544E+04</pdfrwt>
<pdfrwt beam="2">  1       -1 0.13346110E+00 0.16458544E+04</pdfrwt>
<totfact> 0.18418592E+01</totfact>
</mgrwt>
</event>
<event>
12    7  0.1730932E-007  0.1641261E+04  0.7818608E-02  0.8795593E-01
          2   -1    0    0  501    0  0.00000000000E+00  0.00000000000E+00  0.18923781561E+04  0.18923781561E+04  0.00000000000E+00 0. -1.
         -1   -1    0    0    0  501 -0.00000000000E+00 -0.00000000000E+00 -0.35586663798E+03  0.35586663798E+03  0.00000000000E+00 0.  1.
         24    2    1    2    0    0  0.35227058750E+03 -0.44957656832E+03  0.51134177304E+03  0.77081088175E+03  0.80407393786E+02 0.  0.
        254    2    1    2    0    0 -0.35227058750E+03  0.44957656832E+03  0.10251697451E+04  0.14774339124E+04  0.89756576444E+03 0.  0.
         23    2    4    4    0    0  0.16444718923E+03  0.79975010197E+01 -0.55771731514E+02  0.19759520449E+03  0.93949671289E+02 0.  0.
         23    2    4    4    0    0 -0.51671777672E+03  0.44157906730E+03  0.10809414766E+04  0.12798387079E+04  0.86967285771E+02 0.  0.
          2    1    3    3  502    0  0.30299686553E+02 -0.23135131700E+02  0.61369277683E+02  0.72246062642E+02  0.00000000000E+00 0. -1.
         -1    1    3    3    0  502  0.32197090095E+03 -0.42644143662E+03  0.44997249535E+03  0.69856481911E+03  0.00000000000E+00 0.  1.
         13    1    5    5    0    0  0.72349346051E+02  0.33420426332E+02  0.11811659265E+02  0.80565923720E+02  0.00000000000E+00 0.  1.
        -13    1    5    5    0    0  0.92097843175E+02 -0.25422925312E+02 -0.67583390779E+02  0.11702928077E+03  0.00000000000E+00 0. -1.
          1    1    6    6  503    0 -0.32249565708E+03  0.27725093926E+03  0.75277298434E+03  0.86460320269E+03  0.00000000000E+00 0. -1.
         -1    1    6    6    0  503 -0.19422211965E+03  0.16432812804E+03  0.32816849229E+03  0.41523550517E+03  0.00000000000E+00 0.  1.
<mgrwt>
<rscale>  0 0.16412608E+04</rscale>
<asrwt>0</asrwt>
<pdfrwt beam="1">  1        2 0.29113509E+00 0.16412608E+04</pdfrwt>
<pdfrwt beam="2">  1       -1 0.54748715E-01 0.16412608E+04</pdfrwt>
<totfact> 0.28144833E+01</totfact>
</mgrwt>
</event>
<event>
12    7  0.1730932E-007  0.1127349E+04  0.7818608E-02  0.9178938E-01
         -1   -1    0    0    0  501 -0.00000000000E+00  0.00000000000E+00  0.30353173381E+03  0.30353173381E+03  0.00000000000E+00 0.  1.
          2   -1    0    0  501    0  0.00000000000E+00 -0.00000000000E+00 -0.10467730976E+04  0.10467730976E+04  0.00000000000E+00 0. -1.
         24    2    1    2    0    0  0.27280069439E+02  0.44345266126E+02 -0.37748950334E+03  0.38925003792E+03  0.79413865762E+02 0.  0.
        254    2    1    2    0    0 -0.27280069439E+02 -0.44345266126E+02 -0.36575186043E+03  0.96105479347E+03  0.88720977667E+03 0.  0.
         23    2    4    4    0    0  0.16290420717E+03  0.19936275771E+03 -0.53232772105E+03  0.59823367861E+03  0.90705246571E+02 0.  0.
         23    2    4    4    0    0 -0.19018427660E+03 -0.24370802384E+03  0.16657586062E+03  0.36282111485E+03  0.91257789211E+02 0.  0.
          2    1    3    3  502    0  0.41097246890E+02  0.43006497574E+02 -0.36715773666E+03  0.37194535368E+03  0.00000000000E+00 0. -1.
         -1    1    3    3    0  502 -0.13817177451E+02  0.13387685517E+01 -0.10331766675E+02  0.17304684238E+02  0.00000000000E+00 0.  1.
         13    1    5    5    0    0  0.71987342206E+02  0.70059191498E+02 -0.11909685960E+03  0.15580285530E+03  0.00000000000E+00 0. -1.
        -13    1    5    5    0    0  0.90916864959E+02  0.12930356622E+03 -0.41323086145E+03  0.44243082332E+03  0.00000000000E+00 0.  1.
          1    1    6    6  503    0 -0.66740955672E+02 -0.11671060704E+03  0.26538668668E+02  0.13704021999E+03  0.00000000000E+00 0. -1.
         -1    1    6    6    0  503 -0.12344332093E+03 -0.12699741680E+03  0.14003719195E+03  0.22578089486E+03  0.00000000000E+00 0.  1.
<mgrwt>
<rscale>  0 0.11273488E+04</rscale>
<asrwt>0</asrwt>
<pdfrwt beam="1">  1        2 0.16104202E+00 0.11273488E+04</pdfrwt>
<pdfrwt beam="2">  1       -1 0.46697190E-01 0.11273488E+04</pdfrwt>
<totfact> 0.12140130E+02</totfact>
</mgrwt>
</event>
<event>
12    7  0.1730932E-007  0.1962899E+04  0.7818608E-02  0.8624166E-01
         -1   -1    0    0    0  501 -0.00000000000E+00  0.00000000000E+00  0.61252650935E+03  0.61252650935E+03  0.00000000000E+00 0.  1.
          2   -1    0    0  501    0  0.00000000000E+00 -0.00000000000E+00 -0.15725737631E+04  0.15725737631E+04  0.00000000000E+00 0. -1.
         24    2    1    2    0    0  0.61482311577E+02  0.92266084769E+02 -0.12291677315E+04  0.12368859756E+04  0.82100545340E+02 0.  0.
        254    2    1    2    0    0 -0.61482311577E+02 -0.92266084769E+02  0.26912047776E+03  0.94821429680E+03  0.90243637785E+03 0.  0.
         23    2    4    4    0    0  0.20897612625E+03 -0.19387068940E+03  0.48871730722E+03  0.57354040594E+03  0.94059158648E+02 0.  0.
         23    2    4    4    0    0 -0.27045843783E+03  0.10160460463E+03 -0.21959682946E+03  0.37467389085E+03  0.93201366420E+02 0.  0.
          2    1    3    3  502    0  0.16482257212E+02  0.72129400635E+02 -0.98593486091E+03  0.98870716857E+03  0.00000000000E+00 0. -1.
         -1    1    3    3    0  502  0.45000054366E+02  0.20136684135E+02 -0.24323287058E+03  0.24817880706E+03  0.00000000000E+00 0.  1.
         13    1    5    5    0    0  0.52747026802E+02 -0.58128101702E+02  0.64744223406E+02  0.10174939562E+03  0.00000000000E+00 0. -1.
        -13    1    5    5    0    0  0.15622909945E+03 -0.13574258770E+03  0.42397308381E+03  0.47179101033E+03  0.00000000000E+00 0.  1.
          3    1    6    6  503    0 -0.31132086378E+02  0.61848864226E+01  0.58997476728E+01  0.32284154703E+02  0.00000000000E+00 0. -1.
         -3    1    6    6    0  503 -0.23932635145E+03  0.95419718211E+02 -0.22549657713E+03  0.34238973615E+03  0.00000000000E+00 0.  1.
<mgrwt>
<rscale>  0 0.19628990E+04</rscale>
<asrwt>0</asrwt>
<pdfrwt beam="1">  1        2 0.24193443E+00 0.19628990E+04</pdfrwt>
<pdfrwt beam="2">  1       -1 0.94234847E-01 0.19628990E+04</pdfrwt>
<totfact> 0.13373914E+01</totfact>
</mgrwt>
</event>
<event>
12    7  0.1730932E-007  0.1700532E+04  0.7818608E-02  0.8761061E-01
         -1   -1    0    0    0  501 -0.00000000000E+00  0.00000000000E+00  0.38978099816E+03  0.38978099816E+03  0.00000000000E+00 0.  1.
          2   -1    0    0  501    0  0.00000000000E+00 -0.00000000000E+00 -0.18547652873E+04  0.18547652873E+04  0.00000000000E+00 0. -1.
         24    2    1    2    0    0  0.33551657910E+03 -0.41920826181E+03 -0.88552419404E+03  0.10383293554E+04  0.75284862262E+02 0.  0.
        254    2    1    2    0    0 -0.33551657910E+03  0.41920826181E+03 -0.57946009514E+03  0.12062169301E+04  0.91152528156E+03 0.  0.
         23    2    4    4    0    0  0.29313628291E+03  0.23804945793E+03 -0.28794352186E+03  0.48412432612E+03  0.94172536194E+02 0.  0.
         23    2    4    4    0    0 -0.62865286201E+03  0.18115880388E+03 -0.29151657327E+03  0.72209260396E+03  0.91721769824E+02 0.  0.
          4    1    3    3  502    0  0.17778661493E+03 -0.22093303389E+03 -0.53916368822E+03  0.60919370368E+03  0.00000000000E+00 0. -1.
         -3    1    3    3    0  502  0.15772996417E+03 -0.19827522793E+03 -0.34636050582E+03  0.42913565174E+03  0.00000000000E+00 0.  1.
         13    1    5    5    0    0  0.72135215386E+02  0.99376983442E+02 -0.13145165794E+03  0.17988555393E+03  0.00000000000E+00 0. -1.
        -13    1    5    5    0    0  0.22100106753E+03  0.13867247449E+03 -0.15649186393E+03  0.30423877219E+03  0.00000000000E+00 0.  1.
          3    1    6    6  503    0 -0.28847941550E+03  0.74492222268E+02 -0.83859707343E+02  0.30951884411E+03  0.00000000000E+00 0. -1.
         -3    1    6    6    0  503 -0.34017344651E+03  0.10666658161E+03 -0.20765686593E+03  0.41257375984E+03  0.00000000000E+00 0.  1.
<mgrwt>
<rscale>  0 0.17005320E+04</rscale>
<asrwt>0</asrwt>
<pdfrwt beam="1">  1        2 0.28534851E+00 0.17005320E+04</pdfrwt>
<pdfrwt beam="2">  1       -1 0.59966306E-01 0.17005320E+04</pdfrwt>
<totfact> 0.24586192E+01</totfact>
</mgrwt>
</event>
<event>
12    7  0.1730932E-007  0.1837497E+04  0.7818608E-02  0.8686610E-01
          2   -1    0    0  501    0  0.00000000000E+00  0.00000000000E+00  0.82632998828E+03  0.82632998828E+03  0.00000000000E+00 0. -1.
         -1   -1    0    0    0  501 -0.00000000000E+00 -0.00000000000E+00 -0.10215028339E+04  0.10215028339E+04  0.00000000000E+00 0.  1.
         24    2    1    2    0    0  0.60547325852E+03 -0.27313371671E+03 -0.28169691341E+03  0.72599170439E+03  0.80690209002E+02 0.  0.
        254    2    1    2    0    0 -0.60547325852E+03  0.27313371671E+03  0.86524067804E+02  0.11218411178E+04  0.89991176525E+03 0.  0.
         23    2    4    4    0    0 -0.39616934340E+03  0.16606177910E+03  0.48251378330E+03  0.65239033229E+03  0.90922667511E+02 0.  0.
         23    2    4    4    0    0 -0.20930391512E+03  0.10707193761E+03 -0.39598971550E+03  0.46945078549E+03  0.91124401276E+02 0.  0.
          2    1    3    3  502    0  0.70581398739E+02 -0.61926369825E+02 -0.34523593144E+02  0.10004242905E+03  0.00000000000E+00 0. -1.
         -1    1    3    3    0  502  0.53489185978E+03 -0.21120734688E+03 -0.24717332027E+03  0.62594927533E+03  0.00000000000E+00 0.  1.
         13    1    5    5    0    0 -0.10640056542E+03  0.37361803385E+02  0.19032154271E+03  0.22122222830E+03  0.00000000000E+00 0.  1.
        -13    1    5    5    0    0 -0.28976877798E+03  0.12869997571E+03  0.29219224059E+03  0.43116810399E+03  0.00000000000E+00 0. -1.
          3    1    6    6  503    0  0.13097821830E+01 -0.81080007940E+01 -0.34870275085E+02  0.35824451018E+02  0.00000000000E+00 0. -1.
         -3    1    6    6    0  503 -0.21061369730E+03  0.11517993840E+03 -0.36111944041E+03  0.43362633447E+03  0.00000000000E+00 0.  1.
<mgrwt>
<rscale>  0 0.18374966E+04</rscale>
<asrwt>0</asrwt>
<pdfrwt beam="1">  1        2 0.12712769E+00 0.18374966E+04</pdfrwt>
<pdfrwt beam="2">  1       -1 0.15715428E+00 0.18374966E+04</pdfrwt>
<totfact> 0.10884915E+01</totfact>
</mgrwt>
</event>
<event>
12    7  0.1730932E-007  0.1393642E+04  0.7818608E-02  0.8958434E-01
          2   -1    0    0  501    0  0.00000000000E+00  0.00000000000E+00  0.17815500457E+04  0.17815500457E+04  0.00000000000E+00 0. -1.
         -1   -1    0    0    0  501 -0.00000000000E+00 -0.00000000000E+00 -0.27254890232E+03  0.27254890232E+03  0.00000000000E+00 0.  1.
         24    2    1    2    0    0 -0.27848064865E+03 -0.28653556326E+03  0.36405745444E+03  0.54651335294E+03  0.80528964516E+02 0.  0.
        254    2    1    2    0    0  0.27848064865E+03  0.28653556326E+03  0.11449436890E+04  0.15075855951E+04  0.89569200898E+03 0.  0.
         23    2    4    4    0    0  0.10830665397E+03 -0.26865713334E+03  0.72252307632E+03  0.78372024683E+03  0.90944174532E+02 0.  0.
         23    2    4    4    0    0  0.17017399468E+03  0.55519269660E+03  0.42242061265E+03  0.72386534827E+03  0.91344127394E+02 0.  0.
          2    1    3    3  502    0 -0.24021556850E+03 -0.26595896094E+03  0.34977420418E+03  0.50077907520E+03  0.00000000000E+00 0. -1.
         -1    1    3    3    0  502 -0.38265080154E+02 -0.20576602325E+02  0.14283250256E+02  0.45734277739E+02  0.00000000000E+00 0.  1.
         13    1    5    5    0    0  0.12360807404E+03 -0.23068283796E+03  0.64444048868E+03  0.69555522509E+03  0.00000000000E+00 0. -1.
        -13    1    5    5    0    0 -0.15301420065E+02 -0.37974295379E+02  0.78082587642E+02  0.88165021740E+02  0.00000000000E+00 0.  1.
          1    1    6    6  503    0  0.10957256693E+03  0.26848299716E+03  0.16395029702E+03  0.33312004905E+03  0.00000000000E+00 0. -1.
         -1    1    6    6    0  503  0.60601427750E+02  0.28670969944E+03  0.25847031563E+03  0.39074529922E+03  0.00000000000E+00 0.  1.
<mgrwt>
<rscale>  0 0.13936420E+04</rscale>
<asrwt>0</asrwt>
<pdfrwt beam="1">  1        2 0.27408462E+00 0.13936420E+04</pdfrwt>
<pdfrwt beam="2">  1       -1 0.41930601E-01 0.13936420E+04</pdfrwt>
<totfact> 0.54736687E+01</totfact>
</mgrwt>
</event>
<event>
12    7  0.1730932E-007  0.1577431E+04  0.7818608E-02  0.8834534E-01
         -1   -1    0    0    0  501 -0.00000000000E+00  0.00000000000E+00  0.62690314026E+03  0.62690314026E+03  0.00000000000E+00 0.  1.
          2   -1    0    0  501    0  0.00000000000E+00 -0.00000000000E+00 -0.99229343020E+03  0.99229343020E+03  0.00000000000E+00 0. -1.
         24    2    1    2    0    0 -0.95808068624E+02 -0.12268552908E+03  0.39303786966E+03  0.43039413769E+03  0.80804837225E+02 0.  0.
        254    2    1    2    0    0  0.95808068624E+02  0.12268552908E+03 -0.75842815959E+03  0.11888024328E+04  0.90211253501E+03 0.  0.
         23    2    4    4    0    0 -0.22283461166E+03 -0.55594327868E+02  0.88504031488E+02  0.26221703745E+03  0.90436816024E+02 0.  0.
         23    2    4    4    0    0  0.31864268028E+03  0.17827985695E+03 -0.84693219108E+03  0.92658539532E+03  0.89159931763E+02 0.  0.
          4    1    3    3  502    0 -0.20285479818E+02 -0.16929057592E+02  0.14431923565E+02  0.30106047569E+02  0.00000000000E+00 0. -1.
         -3    1    3    3    0  502 -0.75522588806E+02 -0.10575647149E+03  0.37860594609E+03  0.40028809013E+03  0.00000000000E+00 0.  1.
         13    1    5    5    0    0 -0.12754497031E+03 -0.30449417680E+02  0.97282908477E+02  0.16327538323E+03  0.00000000000E+00 0.  1.
        -13    1    5    5    0    0 -0.95289641352E+02 -0.25144910188E+02 -0.87788769890E+01  0.98941654213E+02  0.00000000000E+00 0. -1.
          1    1    6    6  503    0  0.10360214362E+03  0.61973842989E+02 -0.18457441649E+03  0.22054903446E+03  0.00000000000E+00 0. -1.
         -1    1    6    6    0  503  0.21504053666E+03  0.11630601396E+03 -0.66235777460E+03  0.70603636086E+03  0.00000000000E+00 0.  1.
<mgrwt>
<rscale>  0 0.15774307E+04</rscale>
<asrwt>0</asrwt>
<pdfrwt beam="1">  1        2 0.15266053E+00 0.15774307E+04</pdfrwt>
<pdfrwt beam="2">  1       -1 0.96446638E-01 0.15774307E+04</pdfrwt>
<totfact> 0.28904539E+01</totfact>
</mgrwt>
</event>
<event>
12    7  0.1730932E-007  0.1725410E+04  0.7818608E-02  0.8747003E-01
          2   -1    0    0  501    0  0.00000000000E+00  0.00000000000E+00  0.11476220818E+04  0.11476220818E+04  0.00000000000E+00 0. -1.
         -1   -1    0    0    0  501 -0.00000000000E+00 -0.00000000000E+00 -0.64852377480E+03  0.64852377480E+03  0.00000000000E+00 0.  1.
         24    2    1    2    0    0  0.56559548958E+03 -0.23788378679E+03  0.62727270121E+02  0.62209477097E+03  0.81118677281E+02 0.  0.
        254    2    1    2    0    0 -0.56559548958E+03  0.23788378679E+03  0.43637103684E+03  0.11740510856E+04  0.90082701777E+03 0.  0.
         23    2    4    4    0    0 -0.24392144850E+03  0.55357846758E+03  0.35638568892E+03  0.70757304050E+03  0.87761355809E+02 0.  0.
         23    2    4    4    0    0 -0.32167404108E+03 -0.31569468079E+03  0.79985347922E+02  0.46647804509E+03  0.89815313210E+02 0.  0.
          4    1    3    3  502    0  0.39158059859E+03 -0.13517375636E+03  0.68843378320E+02  0.41993656704E+03  0.00000000000E+00 0. -1.
         -1    1    3    3    0  502  0.17401489099E+03 -0.10271003043E+03 -0.61161081994E+01  0.20215820393E+03  0.00000000000E+00 0.  1.
         13    1    5    5    0    0 -0.18389208026E+03  0.47598083924E+03  0.27238643944E+03  0.57841890433E+03  0.00000000000E+00 0. -1.
        -13    1    5    5    0    0 -0.60029368242E+02  0.77597628345E+02  0.83999249480E+02  0.12915413617E+03  0.00000000000E+00 0.  1.
          2    1    6    6  503    0 -0.32640405076E+03 -0.31359395535E+03  0.83428298985E+02  0.46026194092E+03  0.00000000000E+00 0. -1.
         -2    1    6    6    0  503  0.47300096885E+01 -0.21007254399E+01 -0.34429510631E+01  0.62161041698E+01  0.00000000000E+00 0.  1.
<mgrwt>
<rscale>  0 0.17254103E+04</rscale>
<asrwt>0</asrwt>
<pdfrwt beam="1">  1        2 0.17655724E+00 0.17254103E+04</pdfrwt>
<pdfrwt beam="2">  1       -1 0.99772888E-01 0.17254103E+04</pdfrwt>
<totfact> 0.21139722E+01</totfact>
</mgrwt>
</event>
<event>
12    7  0.1730932E-007  0.2267462E+04  0.7818608E-02  0.8490862E-01
          2   -1    0    0  501    0  0.00000000000E+00  0.00000000000E+00  0.13943142222E+04  0.13943142222E+04  0.00000000000E+00 0. -1.
         -1   -1    0    0    0  501 -0.00000000000E+00 -0.00000000000E+00 -0.92184848184E+03  0.92184848184E+03  0.00000000000E+00 0.  1.
         24    2    1    2    0    0 -0.72882656376E+03  0.41707628707E+03 -0.25989688937E+03  0.88242357691E+03  0.77357525165E+02 0.  0.
        254    2    1    2    0    0  0.72882656376E+03 -0.41707628707E+03  0.73236262970E+03  0.14337391271E+04  0.90228159347E+03 0.  0.
         23    2    4    4    0    0  0.80094816285E+02  0.21752387732E+03  0.38426309413E+03  0.45750305421E+03  0.88989338135E+02 0.  0.
         23    2    4    4    0    0  0.64873174748E+03 -0.63460016439E+03  0.34809953557E+03  0.97623607289E+03  0.91067746866E+02 0.  0.
          2    1    3    3  502    0 -0.43908010381E+02  0.17257472839E+02  0.20108125469E+01  0.47220515790E+02  0.00000000000E+00 0. -1.
         -1    1    3    3    0  502 -0.68491855338E+03  0.39981881423E+03 -0.26190770192E+03  0.83520306112E+03  0.00000000000E+00 0.  1.
         13    1    5    5    0    0  0.92465481210E+02  0.15501048995E+03  0.31743377920E+03  0.36516067886E+03  0.00000000000E+00 0.  1.
        -13    1    5    5    0    0 -0.12370664925E+02  0.62513387367E+02  0.66829314932E+02  0.92342375349E+02  0.00000000000E+00 0. -1.
          3    1    6    6  503    0  0.13909885047E+03 -0.18256216691E+03  0.11084607492E+03  0.25488092772E+03  0.00000000000E+00 0. -1.
         -3    1    6    6    0  503  0.50963289700E+03 -0.45203799748E+03  0.23725346065E+03  0.72135514517E+03  0.00000000000E+00 0.  1.
<mgrwt>
<rscale>  0 0.22674624E+04</rscale>
<asrwt>0</asrwt>
<pdfrwt beam="1">  1        2 0.21450988E+00 0.22674624E+04</pdfrwt>
<pdfrwt beam="2">  1       -1 0.14182284E+00 0.22674624E+04</pdfrwt>
<totfact> 0.61186774E+00</totfact>
</mgrwt>
</event>
<event>
12    7  0.1730932E-007  0.1850855E+04  0.7818608E-02  0.8679713E-01
          2   -1    0    0  501    0  0.00000000000E+00  0.00000000000E+00  0.16818990223E+04  0.16818990223E+04  0.00000000000E+00 0. -1.
         -1   -1    0    0    0  501 -0.00000000000E+00 -0.00000000000E+00 -0.50919565345E+03  0.50919565345E+03  0.00000000000E+00 0.  1.
         24    2    1    2    0    0 -0.12057586099E+03 -0.54491639332E+03 -0.60083849086E+02  0.56690756622E+03  0.79383283837E+02 0.  0.
        254    2    1    2    0    0  0.12057586099E+03  0.54491639332E+03  0.12327872179E+04  0.16241871095E+04  0.89819097529E+03 0.  0.
         23    2    4    4    0    0  0.19631591335E+03  0.73507734604E+03  0.11518591587E+04  0.13834221956E+04  0.90547265966E+02 0.  0.
         23    2    4    4    0    0 -0.75740052366E+02 -0.19016095272E+03  0.80928059267E+02  0.24076491393E+03  0.97573815797E+02 0.  0.
          4    1    3    3  502    0 -0.15587502419E+02 -0.10272579210E+02 -0.46627543056E+01  0.19241553810E+02  0.00000000000E+00 0. -1.
         -3    1    3    3    0  502 -0.10498835857E+03 -0.53464381411E+03 -0.55421094781E+02  0.54766601241E+03  0.00000000000E+00 0.  1.
         13    1    5    5    0    0  0.12628671714E+03  0.32739264904E+03  0.57407272330E+03  0.67282521743E+03  0.00000000000E+00 0.  1.
        -13    1    5    5    0    0  0.70029196212E+02  0.40768469700E+03  0.57778643538E+03  0.71059697818E+03  0.00000000000E+00 0. -1.
          2    1    6    6  503    0  0.18331838028E+02 -0.55478087590E+02  0.18936783591E+01  0.58459049820E+02  0.00000000000E+00 0. -1.
         -2    1    6    6    0  503 -0.94071890393E+02 -0.13468286513E+03  0.79034380908E+02  0.18230586411E+03  0.00000000000E+00 0.  1.
<mgrwt>
<rscale>  0 0.18508546E+04</rscale>
<asrwt>0</asrwt>
<pdfrwt beam="1">  1        2 0.25875369E+00 0.18508546E+04</pdfrwt>
<pdfrwt beam="2">  1       -1 0.78337794E-01 0.18508546E+04</pdfrwt>
<totfact> 0.17533988E+01</totfact>
</mgrwt>
</event>
<event>
12    7  0.1730932E-007  0.1333756E+04  0.7818608E-02  0.9003216E-01
          2   -1    0    0  501    0  0.00000000000E+00  0.00000000000E+00  0.10150803038E+04  0.10150803038E+04  0.00000000000E+00 0. -1.
         -1   -1    0    0    0  501 -0.00000000000E+00 -0.00000000000E+00 -0.43811930899E+03  0.43811930899E+03  0.00000000000E+00 0.  1.
         24    2    1    2    0    0  0.64747783160E+02  0.30733795986E+03  0.33310333628E+03  0.46431163946E+03  0.77321206051E+02 0.  0.
        254    2    1    2    0    0 -0.64747783160E+02 -0.30733795986E+03  0.24385765851E+03  0.98888797330E+03  0.90541922287E+03 0.  0.
         23    2    4    4    0    0 -0.27842622179E+03  0.18517797427E+03 -0.79370096008E+02  0.35550092730E+03  0.90935438851E+02 0.  0.
         23    2    4    4    0    0  0.21367843863E+03 -0.49251593412E+03  0.32322775452E+03  0.63338704600E+03  0.92046446158E+02 0.  0.
          2    1    3    3  502    0  0.41465994054E+02  0.29048996667E+03  0.31420076529E+03  0.42991391034E+03  0.00000000000E+00 0. -1.
         -1    1    3    3    0  502  0.23281789106E+02  0.16847993189E+02  0.18902570990E+02  0.34397729119E+02  0.00000000000E+00 0.  1.
         13    1    5    5    0    0 -0.65740870994E+02  0.12707448205E+02  0.94674832669E+01  0.67623772435E+02  0.00000000000E+00 0. -1.
        -13    1    5    5    0    0 -0.21268535079E+03  0.17247052606E+03 -0.88837579275E+02  0.28787715487E+03  0.00000000000E+00 0.  1.
          4    1    6    6  503    0  0.94684440973E+02 -0.23152856422E+03  0.97842144287E+02  0.26859580155E+03  0.00000000000E+00 0. -1.
         -4    1    6    6    0  503  0.11899399766E+03 -0.26098736990E+03  0.22538561023E+03  0.36479124445E+03  0.00000000000E+00 0.  1.
<mgrwt>
<rscale>  0 0.13337560E+04</rscale>
<asrwt>0</asrwt>
<pdfrwt beam="1">  1        2 0.15616620E+00 0.13337560E+04</pdfrwt>
<pdfrwt beam="2">  1       -1 0.67402971E-01 0.13337560E+04</pdfrwt>
<totfact> 0.61270222E+01</totfact>
</mgrwt>
</event>
<event>
12    7  0.1730932E-007  0.2227215E+04  0.7818608E-02  0.8507185E-01
          2   -1    0    0  501    0  0.00000000000E+00  0.00000000000E+00  0.33372468784E+04  0.33372468784E+04  0.00000000000E+00 0. -1.
         -1   -1    0    0    0  501 -0.00000000000E+00 -0.00000000000E+00 -0.37160016557E+03  0.37160016557E+03  0.00000000000E+00 0.  1.
         24    2    1    2    0    0 -0.37610529209E+03 -0.25383965456E+03 -0.10913181479E+03  0.47213013504E+03  0.71465729149E+02 0.  0.
        254    2    1    2    0    0  0.37610529209E+03  0.25383965456E+03  0.30747785276E+04  0.32367169089E+04  0.90342879834E+03 0.  0.
         23    2    4    4    0    0 -0.19916852494E+03  0.26753818652E+02  0.18302223214E+04  0.18435680686E+04  0.92981770387E+02 0.  0.
         23    2    4    4    0    0  0.57527381703E+03  0.22708583591E+03  0.12445562062E+04  0.13931488404E+04  0.97137013972E+02 0.  0.
          2    1    3    3  502    0 -0.17239629272E+02 -0.46438285748E+01 -0.18916095174E+02  0.26011317112E+02  0.00000000000E+00 0. -1.
         -1    1    3    3    0  502 -0.35886566282E+03 -0.24919582599E+03 -0.90215719612E+02  0.44611881793E+03  0.00000000000E+00 0.  1.
         13    1    5    5    0    0 -0.95321393855E+02  0.39861467016E+02  0.12260542787E+04  0.12304000159E+04  0.00000000000E+00 0. -1.
        -13    1    5    5    0    0 -0.10384713108E+03 -0.13107648363E+02  0.60416804265E+03  0.61316805269E+03  0.00000000000E+00 0.  1.
          4    1    6    6  503    0  0.33951333300E+01 -0.11750286804E+01 -0.97775015710E+00  0.37233879865E+01  0.00000000000E+00 0. -1.
         -4    1    6    6    0  503  0.57187868370E+03  0.22826086459E+03  0.12455339564E+04  0.13894254524E+04  0.00000000000E+00 0.  1.
<mgrwt>
<rscale>  0 0.22272148E+04</rscale>
<asrwt>0</asrwt>
<pdfrwt beam="1">  1        2 0.51342258E+00 0.22272148E+04</pdfrwt>
<pdfrwt beam="2">  1       -1 0.57169259E-01 0.22272148E+04</pdfrwt>
<totfact> 0.33889585E+00</totfact>
</mgrwt>
</event>
<event>
12    7  0.1730932E-007  0.1499569E+04  0.7818608E-02  0.8884740E-01
         -1   -1    0    0    0  501 -0.00000000000E+00  0.00000000000E+00  0.62329149593E+03  0.62329149593E+03  0.00000000000E+00 0.  1.
          2   -1    0    0  501    0  0.00000000000E+00 -0.00000000000E+00 -0.90194808271E+03  0.90194808271E+03  0.00000000000E+00 0. -1.
         24    2    1    2    0    0  0.36292701297E+03 -0.24092618015E+03  0.11189239918E+03  0.45679530508E+03  0.79878662460E+02 0.  0.
        254    2    1    2    0    0 -0.36292701297E+03  0.24092618015E+03 -0.39054898596E+03  0.10684442736E+04  0.89402640579E+03 0.  0.
         23    2    4    4    0    0  0.24973890330E+03  0.21820532650E+03 -0.26549254455E+03  0.43597303467E+03  0.97995466271E+02 0.  0.
         23    2    4    4    0    0 -0.61266591627E+03  0.22720853654E+02 -0.12505644141E+03  0.63247123890E+03  0.92222515389E+02 0.  0.
          4    1    3    3  502    0  0.11826279863E+02 -0.85032709419E+01 -0.10902704677E+02  0.18194380489E+02  0.00000000000E+00 0. -1.
         -3    1    3    3    0  502  0.35110073311E+03 -0.23242290921E+03  0.12279510386E+03  0.43860092459E+03  0.00000000000E+00 0.  1.
         13    1    5    5    0    0 -0.77489243188E+01 -0.58101739526E+00 -0.80256346629E+01  0.11171133383E+02  0.00000000000E+00 0. -1.
        -13    1    5    5    0    0  0.25748782762E+03  0.21878634389E+03 -0.25746690989E+03  0.42480190128E+03  0.00000000000E+00 0.  1.
          1    1    6    6  503    0 -0.86525281576E+02  0.13799419166E+02 -0.50134509202E+02  0.10094809228E+03  0.00000000000E+00 0. -1.
         -1    1    6    6    0  503 -0.52614063470E+03  0.89214344879E+01 -0.74921932211E+02  0.53152314663E+03  0.00000000000E+00 0.  1.
<mgrwt>
<rscale>  0 0.14995687E+04</rscale>
<asrwt>0</asrwt>
<pdfrwt beam="1">  1        2 0.13876124E+00 0.14995687E+04</pdfrwt>
<pdfrwt beam="2">  1       -1 0.95891000E-01 0.14995687E+04</pdfrwt>
<totfact> 0.33809251E+01</totfact>
</mgrwt>
</event>
<event>
12    7  0.1730932E-007  0.1823547E+04  0.7818608E-02  0.8693877E-01
         -1   -1    0    0    0  501 -0.00000000000E+00  0.00000000000E+00  0.50944886321E+03  0.50944886321E+03  0.00000000000E+00 0.  1.
          2   -1    0    0  501    0  0.00000000000E+00 -0.00000000000E+00 -0.16318236775E+04  0.16318236775E+04  0.00000000000E+00 0. -1.
         24    2    1    2    0    0  0.42134829727E+03  0.87436130133E+02 -0.10550709712E+04  0.11421197744E+04  0.77995899222E+02 0.  0.
        254    2    1    2    0    0 -0.42134829727E+03 -0.87436130133E+02 -0.67303843137E+02  0.99915276638E+03  0.89922020596E+03 0.  0.
         23    2    4    4    0    0 -0.22421154382E+03 -0.48094708547E+03  0.34558303980E+02  0.53943007990E+03  0.90606949612E+02 0.  0.
         23    2    4    4    0    0 -0.19713675344E+03  0.39351095534E+03 -0.10186214712E+03  0.45972268648E+03  0.85177930920E+02 0.  0.
          2    1    3    3  502    0  0.29521331293E+03  0.88082690842E+02 -0.80740304397E+03  0.86418119394E+03  0.00000000000E+00 0. -1.
         -1    1    3    3    0  502  0.12613498434E+03 -0.64656070944E+00 -0.24766792722E+03  0.27793858042E+03  0.00000000000E+00 0.  1.
         13    1    5    5    0    0 -0.13297487120E+03 -0.23676377872E+03 -0.22857322969E+02  0.27251029430E+03  0.00000000000E+00 0. -1.
        -13    1    5    5    0    0 -0.91236672622E+02 -0.24418330676E+03  0.57415626948E+02  0.26691978561E+03  0.00000000000E+00 0.  1.
          3    1    6    6  503    0 -0.46697590131E+02  0.17142317694E+03 -0.17520670242E+02  0.17853163417E+03  0.00000000000E+00 0. -1.
         -3    1    6    6    0  503 -0.15043916331E+03  0.22208777841E+03 -0.84341476874E+02  0.28119105231E+03  0.00000000000E+00 0.  1.
<mgrwt>
<rscale>  0 0.18235468E+04</rscale>
<asrwt>0</asrwt>
<pdfrwt beam="1">  1        2 0.25104980E+00 0.18235468E+04</pdfrwt>
<pdfrwt beam="2">  1       -1 0.78376746E-01 0.18235468E+04</pdfrwt>
<totfact> 0.18721898E+01</totfact>
</mgrwt>
</event>
<event>
12    7  0.1730932E-007  0.1592302E+04  0.7818608E-02  0.8825291E-01
          2   -1    0    0  501    0  0.00000000000E+00  0.00000000000E+00  0.17235496765E+04  0.17235496765E+04  0.00000000000E+00 0. -1.
         -1   -1    0    0    0  501 -0.00000000000E+00 -0.00000000000E+00 -0.36776208929E+03  0.36776208929E+03  0.00000000000E+00 0.  1.
         24    2    1    2    0    0  0.28648511840E+03  0.40204666586E+03  0.74560468873E+03  0.89775073084E+03  0.79465579218E+02 0.  0.
        254    2    1    2    0    0 -0.28648511840E+03 -0.40204666586E+03  0.61018289847E+03  0.11935610349E+04  0.89919382224E+03 0.  0.
         23    2    4    4    0    0 -0.19066143243E+03 -0.68204267304E+03  0.43569762910E+03  0.83651019302E+03  0.91558120039E+02 0.  0.
         23    2    4    4    0    0 -0.95823685969E+02  0.27999600718E+03  0.17448526936E+03  0.35705084193E+03  0.97263825053E+02 0.  0.
          2    1    3    3  502    0  0.19044648120E+03  0.26681996148E+03  0.42452580582E+03  0.53636267008E+03  0.00000000000E+00 0. -1.
         -1    1    3    3    0  502  0.96038637194E+02  0.13522670438E+03  0.32107888291E+03  0.36138806077E+03  0.00000000000E+00 0.  1.
         13    1    5    5    0    0 -0.20350746784E+01 -0.99631653187E+02  0.85010958275E+02  0.13098652935E+03  0.00000000000E+00 0.  1.
        -13    1    5    5    0    0 -0.18862635775E+03 -0.58241101986E+03  0.35068667083E+03  0.70552366366E+03  0.00000000000E+00 0. -1.
          1    1    6    6  503    0 -0.48821860289E+00  0.14625609733E+03  0.67850004382E+02  0.16122874265E+03  0.00000000000E+00 0. -1.
         -1    1    6    6    0  503 -0.95335467366E+02  0.13373990986E+03  0.10663526498E+03  0.19582209927E+03  0.00000000000E+00 0.  1.
<mgrwt>
<rscale>  0 0.15923018E+04</rscale>
<asrwt>0</asrwt>
<pdfrwt beam="1">  1        2 0.26516149E+00 0.15923018E+04</pdfrwt>
<pdfrwt beam="2">  1       -1 0.56578784E-01 0.15923018E+04</pdfrwt>
<totfact> 0.32883810E+01</totfact>
</mgrwt>
</event>
<event>
12    7  0.1730932E-007  0.1680337E+04  0.7818608E-02  0.8772659E-01
          2   -1    0    0  501    0  0.00000000000E+00  0.00000000000E+00  0.53565748446E+03  0.53565748446E+03  0.00000000000E+00 0. -1.
         -1   -1    0    0    0  501 -0.00000000000E+00 -0.00000000000E+00 -0.13177884339E+04  0.13177884339E+04  0.00000000000E+00 0.  1.
         24    2    1    2    0    0  0.94292903865E+02 -0.36107388506E+03 -0.79331436892E+03  0.88044268327E+03  0.81031650533E+02 0.  0.
        254    2    1    2    0    0 -0.94292903865E+02  0.36107388506E+03  0.11183419487E+02  0.97300323509E+03  0.89852363598E+03 0.  0.
         23    2    4    4    0    0  0.45616561334E+02 -0.23514014061E+03  0.20069158333E+03  0.32600954345E+03  0.92915845829E+02 0.  0.
         23    2    4    4    0    0 -0.13990946520E+03  0.59621402568E+03 -0.18950816385E+03  0.64699369163E+03  0.87416645895E+02 0.  0.
          2    1    3    3  502    0  0.98909251868E+02 -0.29505422498E+03 -0.59642088479E+03  0.67272424336E+03  0.00000000000E+00 0. -1.
         -1    1    3    3    0  502 -0.46163480025E+01 -0.66019660084E+02 -0.19689348413E+03  0.20771843991E+03  0.00000000000E+00 0.  1.
         13    1    5    5    0    0  0.72678927845E+02 -0.19699938146E+03  0.16862648162E+03  0.26930628131E+03  0.00000000000E+00 0. -1.
        -13    1    5    5    0    0 -0.27062366511E+02 -0.38140759151E+02  0.32065101710E+02  0.56703262142E+02  0.00000000000E+00 0.  1.
          2    1    6    6  503    0 -0.11311403912E+03  0.56287582569E+03 -0.18824895464E+03  0.60420331836E+03  0.00000000000E+00 0. -1.
         -2    1    6    6    0  503 -0.26795426078E+02  0.33338199990E+02 -0.12592092103E+01  0.42790373276E+02  0.00000000000E+00 0.  1.
<mgrwt>
<rscale>  0 0.16803372E+04</rscale>
<asrwt>0</asrwt>
<pdfrwt beam="1">  1        2 0.82408845E-01 0.16803372E+04</pdfrwt>
<pdfrwt beam="2">  1       -1 0.20273668E+00 0.16803372E+04</pdfrwt>
<totfact> 0.89133142E+00</totfact>
</mgrwt>
</event>
<event>
12    7  0.1730932E-007  0.2499728E+04  0.7818608E-02  0.8403083E-01
          2   -1    0    0  501    0  0.00000000000E+00  0.00000000000E+00  0.11760671714E+04  0.11760671714E+04  0.00000000000E+00 0. -1.
         -1   -1    0    0    0  501 -0.00000000000E+00 -0.00000000000E+00 -0.13282910700E+04  0.13282910700E+04  0.00000000000E+00 0.  1.
         24    2    1    2    0    0  0.46133740773E+03  0.47329008133E+03  0.79987230346E+03  0.10407016915E+04  0.80178575969E+02 0.  0.
        254    2    1    2    0    0 -0.46133740773E+03 -0.47329008133E+03 -0.95209620200E+03  0.14636565498E+04  0.89384988291E+03 0.  0.
         23    2    4    4    0    0 -0.31105630321E+03 -0.71069017964E+03 -0.84400037386E+03  0.11497479384E+04  0.88017814443E+02 0.  0.
         23    2    4    4    0    0 -0.15028110452E+03  0.23740009831E+03 -0.10809582815E+03  0.31390861142E+03  0.88942066562E+02 0.  0.
          2    1    3    3  502    0  0.33469099327E+03  0.32145559910E+03  0.61117254532E+03  0.76738754441E+03  0.00000000000E+00 0. -1.
         -1    1    3    3    0  502  0.12664641446E+03  0.15183448222E+03  0.18869975814E+03  0.27331414711E+03  0.00000000000E+00 0.  1.
         13    1    5    5    0    0 -0.24287032540E+03 -0.62937663638E+03 -0.72593383890E+03  0.99099994140E+03  0.00000000000E+00 0. -1.
        -13    1    5    5    0    0 -0.68185977811E+02 -0.81313543251E+02 -0.11806653496E+03  0.15874799703E+03  0.00000000000E+00 0.  1.
          1    1    6    6  503    0 -0.12760618500E+03  0.18792495296E+03 -0.12185208926E+03  0.25777326870E+03  0.00000000000E+00 0. -1.
         -1    1    6    6    0  503 -0.22674919525E+02  0.49475145343E+02  0.13756261117E+02  0.56135342719E+02  0.00000000000E+00 0.  1.
<mgrwt>
<rscale>  0 0.24997276E+04</rscale>
<asrwt>0</asrwt>
<pdfrwt beam="1">  1        2 0.18093341E+00 0.24997276E+04</pdfrwt>
<pdfrwt beam="2">  1       -1 0.20435247E+00 0.24997276E+04</pdfrwt>
<totfact> 0.27958153E+00</totfact>
</mgrwt>
</event>
<event>
12    7  0.1730932E-007  0.2384781E+04  0.7818608E-02  0.8445223E-01
          2   -1    0    0  501    0  0.00000000000E+00  0.00000000000E+00  0.33155927314E+04  0.33155927314E+04  0.00000000000E+00 0. -1.
         -3   -1    0    0    0  501 -0.00000000000E+00 -0.00000000000E+00 -0.42882083749E+03  0.42882083749E+03  0.00000000000E+00 0.  1.
         24    2    1    2    0    0 -0.32635091337E+03 -0.86954589055E+03  0.20069496044E+04  0.22127357498E+04  0.75748328559E+02 0.  0.
        254    2    1    2    0    0  0.32635091337E+03  0.86954589055E+03  0.87982228953E+03  0.15316778191E+04  0.84222010547E+03 0.  0.
         23    2    4    4    0    0 -0.26663494349E+03  0.38657034526E+03  0.40820844005E+03  0.62884702206E+03  0.91014403802E+02 0.  0.
         23    2    4    4    0    0  0.59298585686E+03  0.48297554529E+03  0.47161384948E+03  0.90283079708E+03  0.88239567926E+02 0.  0.
          2    1    3    3  502    0 -0.29429558318E+02 -0.82896309818E+02  0.24829045377E+03  0.26341231277E+03  0.00000000000E+00 0. -1.
         -1    1    3    3    0  502 -0.29692135506E+03 -0.78664958073E+03  0.17586591506E+04  0.19493234370E+04  0.00000000000E+00 0.  1.
         13    1    5    5    0    0 -0.78789418142E+02  0.12543885545E+03  0.76262338271E+02  0.16660919275E+03  0.00000000000E+00 0.  1.
        -13    1    5    5    0    0 -0.18784552535E+03  0.26113148981E+03  0.33194610178E+03  0.46223782931E+03  0.00000000000E+00 0. -1.
          1    1    6    6  503    0  0.25238258016E+03  0.18195879148E+03  0.14603547596E+03  0.34370383880E+03  0.00000000000E+00 0. -1.
         -1    1    6    6    0  503  0.34060327671E+03  0.30101675381E+03  0.32557837352E+03  0.55912695828E+03  0.00000000000E+00 0.  1.
<mgrwt>
<rscale>  0 0.23847811E+04</rscale>
<asrwt>0</asrwt>
<pdfrwt beam="1">  1        2 0.51009117E+00 0.23847811E+04</pdfrwt>
<pdfrwt beam="2">  1       -3 0.65972439E-01 0.23847811E+04</pdfrwt>
<totfact> 0.14000694E+00</totfact>
</mgrwt>
</event>
<event>
12    7  0.1730932E-007  0.1054898E+04  0.7818608E-02  0.9250302E-01
         -1   -1    0    0    0  501 -0.00000000000E+00  0.00000000000E+00  0.20721575898E+03  0.20721575898E+03  0.00000000000E+00 0.  1.
          2   -1    0    0  501    0  0.00000000000E+00 -0.00000000000E+00 -0.13425739007E+04  0.13425739007E+04  0.00000000000E+00 0. -1.
         24    2    1    2    0    0  0.64218353277E+02  0.10320381225E+03 -0.18610027201E+03  0.23579453675E+03  0.78681182994E+02 0.  0.
        254    2    1    2    0    0 -0.64218353277E+02 -0.10320381225E+03 -0.94925786973E+03  0.13139951229E+04  0.90039860957E+03 0.  0.
         23    2    4    4    0    0  0.14170455318E+03 -0.33711355559E+03 -0.79284715610E+02  0.38535006634E+03  0.92102539296E+02 0.  0.
         23    2    4    4    0    0 -0.20592290645E+03  0.23390974335E+03 -0.86997315412E+03  0.92864505660E+03  0.91707910415E+02 0.  0.
          4    1    3    3  502    0  0.31617021885E+02  0.94913209910E+02 -0.17270319449E+03  0.19958593858E+03  0.00000000000E+00 0. -1.
         -3    1    3    3    0  502  0.32601331392E+02  0.82906023373E+01 -0.13397077518E+02  0.36208598173E+02  0.00000000000E+00 0.  1.
         13    1    5    5    0    0  0.12367111784E+03 -0.17692333705E+03 -0.42560806711E+02  0.22001780575E+03  0.00000000000E+00 0.  1.
        -13    1    5    5    0    0  0.18033435340E+02 -0.16019021855E+03 -0.36723908899E+02  0.16533226059E+03  0.00000000000E+00 0. -1.
          2    1    6    6  503    0 -0.10394252616E+03  0.18248449507E+03 -0.53545305350E+03  0.57516485653E+03  0.00000000000E+00 0. -1.
         -2    1    6    6    0  503 -0.10198038029E+03  0.51425248272E+02 -0.33452010062E+03  0.35348020007E+03  0.00000000000E+00 0.  1.
<mgrwt>
<rscale>  0 0.10548980E+04</rscale>
<asrwt>0</asrwt>
<pdfrwt beam="1">  1        2 0.20654983E+00 0.10548980E+04</pdfrwt>
<pdfrwt beam="2">  1       -1 0.31879348E-01 0.10548980E+04</pdfrwt>
<totfact> 0.16218720E+02</totfact>
</mgrwt>
</event>
<event>
12    7  0.1730932E-007  0.1937699E+04  0.7818608E-02  0.8636316E-01
         -1   -1    0    0    0  501 -0.00000000000E+00  0.00000000000E+00  0.58013519293E+03  0.58013519293E+03  0.00000000000E+00 0.  1.
          2   -1    0    0  501    0  0.00000000000E+00 -0.00000000000E+00 -0.16180176835E+04  0.16180176835E+04  0.00000000000E+00 0. -1.
         24    2    1    2    0    0 -0.16656139962E+03 -0.26765955963E+03  0.37606567151E+03  0.49706244000E+03  0.79128631151E+02 0.  0.
        254    2    1    2    0    0  0.16656139962E+03  0.26765955963E+03 -0.14139481621E+04  0.17010904364E+04  0.89166974165E+03 0.  0.
         23    2    4    4    0    0  0.48416320991E+03  0.26439283048E+03 -0.58457122644E+03  0.80840286869E+03  0.86452858190E+02 0.  0.
         23    2    4    4    0    0 -0.31760181028E+03  0.32667291494E+01 -0.82937693566E+03  0.89268756776E+03  0.90240848900E+02 0.  0.
          2    1    3    3  502    0 -0.85045030441E+02 -0.16823766852E+03  0.16815850956E+03  0.25261404286E+03  0.00000000000E+00 0. -1.
         -1    1    3    3    0  502 -0.81516369181E+02 -0.99421891107E+02  0.20790716195E+03  0.24444839714E+03  0.00000000000E+00 0.  1.
         13    1    5    5    0    0  0.34052043468E+02  0.29192915709E+02 -0.20263661560E+02  0.49217720099E+02  0.00000000000E+00 0.  1.
        -13    1    5    5    0    0  0.45011116644E+03  0.23519991477E+03 -0.56430756488E+03  0.75918514859E+03  0.00000000000E+00 0. -1.
          1    1    6    6  503    0 -0.19328478275E+03  0.42882336668E+02 -0.45438508763E+03  0.49564474163E+03  0.00000000000E+00 0. -1.
         -1    1    6    6    0  503 -0.12431702753E+03 -0.39615607519E+02 -0.37499184803E+03  0.39704282613E+03  0.00000000000E+00 0.  1.
<mgrwt>
<rscale>  0 0.19376986E+04</rscale>
<asrwt>0</asrwt>
<pdfrwt beam="1">  1        2 0.24892580E+00 0.19376986E+04</pdfrwt>
<pdfrwt beam="2">  1       -1 0.89251567E-01 0.19376986E+04</pdfrwt>
<totfact> 0.14259907E+01</totfact>
</mgrwt>
</event>
<event>
12    7  0.1730932E-007  0.1039774E+04  0.7818608E-02  0.9265965E-01
         -1   -1    0    0    0  501 -0.00000000000E+00  0.00000000000E+00  0.10357306456E+03  0.10357306456E+03  0.00000000000E+00 0.  1.
          2   -1    0    0  501    0  0.00000000000E+00 -0.00000000000E+00 -0.26095850636E+04  0.26095850636E+04  0.00000000000E+00 0. -1.
         24    2    1    2    0    0  0.15519754374E+02  0.61938274184E+02 -0.12649558929E+03  0.16227396741E+03  0.79085357694E+02 0.  0.
        254    2    1    2    0    0 -0.15519754374E+02 -0.61938274184E+02 -0.23795164097E+04  0.25508841607E+04  0.91697025293E+03 0.  0.
         23    2    4    4    0    0  0.43517042466E+03  0.43241743484E+02 -0.10988937559E+04  0.11861231037E+04  0.89874266033E+02 0.  0.
         23    2    4    4    0    0 -0.45069017903E+03 -0.10518001767E+03 -0.12806226539E+04  0.13647610570E+04  0.91618161353E+02 0.  0.
          4    1    3    3  502    0 -0.18390251323E+01  0.73190168837E+02 -0.12003727323E+03  0.14060273750E+03  0.00000000000E+00 0. -1.
         -3    1    3    3    0  502  0.17358779506E+02 -0.11251894652E+02 -0.64583160638E+01  0.21671229905E+02  0.00000000000E+00 0.  1.
         13    1    5    5    0    0  0.24070385008E+03  0.78456161576E+01 -0.71259649950E+03  0.75219257391E+03  0.00000000000E+00 0. -1.
        -13    1    5    5    0    0  0.19446657458E+03  0.35396127326E+02 -0.38629725635E+03  0.43393052983E+03  0.00000000000E+00 0.  1.
          1    1    6    6  503    0 -0.33068884192E+03 -0.37778318599E+02 -0.85829181244E+03  0.92056892563E+03  0.00000000000E+00 0. -1.
         -1    1    6    6    0  503 -0.12000133711E+03 -0.67401699069E+02 -0.42233084143E+03  0.44419213137E+03  0.00000000000E+00 0.  1.
<mgrwt>
<rscale>  0 0.10397744E+04</rscale>
<asrwt>0</asrwt>
<pdfrwt beam="1">  1        2 0.40147463E+00 0.10397744E+04</pdfrwt>
<pdfrwt beam="2">  1       -1 0.15934317E-01 0.10397744E+04</pdfrwt>
<totfact> 0.10294174E+02</totfact>
</mgrwt>
</event>
<event>
12    7  0.1730932E-007  0.1983919E+04  0.7818608E-02  0.8614176E-01
          2   -1    0    0  501    0  0.00000000000E+00  0.00000000000E+00  0.22718635985E+04  0.22718635985E+04  0.00000000000E+00 0. -1.
         -1   -1    0    0    0  501 -0.00000000000E+00 -0.00000000000E+00 -0.43311723167E+03  0.43311723167E+03  0.00000000000E+00 0.  1.
         24    2    1    2    0    0  0.61533636935E+03  0.48837214769E+03  0.67578771822E+03  0.10393633118E+04  0.80254916684E+02 0.  0.
        254    2    1    2    0    0 -0.61533636935E+03 -0.48837214769E+03  0.11629586487E+04  0.16656175185E+04  0.89702993104E+03 0.  0.
         23    2    4    4    0    0 -0.21630268516E+03  0.25347045455E+03  0.31775460654E+03  0.46875813584E+03  0.87932229607E+02 0.  0.
         23    2    4    4    0    0 -0.39903368420E+03 -0.74184260224E+03  0.84520404213E+03  0.11968593826E+04  0.92434740786E+02 0.  0.
          2    1    3    3  502    0  0.58408551250E+02  0.30204853581E+02  0.82592807816E+02  0.10557207937E+03  0.00000000000E+00 0. -1.
         -1    1    3    3    0  502  0.55692781810E+03  0.45816729411E+03  0.59319491040E+03  0.93379123239E+03  0.00000000000E+00 0.  1.
         13    1    5    5    0    0 -0.20103542800E+03  0.21476698642E+03  0.23644005259E+03  0.37741754097E+03  0.00000000000E+00 0.  1.
        -13    1    5    5    0    0 -0.15267257158E+02  0.38703468128E+02  0.81314553950E+02  0.91340594865E+02  0.00000000000E+00 0. -1.
          4    1    6    6  503    0 -0.16922562549E+03 -0.22639074292E+03  0.29953615002E+03  0.41183975764E+03  0.00000000000E+00 0. -1.
         -4    1    6    6    0  503 -0.22980805871E+03 -0.51545185932E+03  0.54566789211E+03  0.78501962498E+03  0.00000000000E+00 0.  1.
<mgrwt>
<rscale>  0 0.19839186E+04</rscale>
<asrwt>0</asrwt>
<pdfrwt beam="1">  1        2 0.34951747E+00 0.19839186E+04</pdfrwt>
<pdfrwt beam="2">  1       -1 0.66633422E-01 0.19839186E+04</pdfrwt>
<totfact> 0.11368249E+01</totfact>
</mgrwt>
</event>
<event>
12    7  0.1730932E-007  0.4264249E+04  0.7818608E-02  0.7953262E-01
          2   -1    0    0  501    0  0.00000000000E+00  0.00000000000E+00  0.23926934184E+04  0.23926934184E+04  0.00000000000E+00 0. -1.
         -1   -1    0    0    0  501 -0.00000000000E+00 -0.00000000000E+00 -0.18999319429E+04  0.18999319429E+04  0.00000000000E+00 0.  1.
         24    2    1    2    0    0  0.17980171942E+04  0.78569139488E+03  0.77856841752E+03  0.21126595004E+04  0.83573828996E+02 0.  0.
        254    2    1    2    0    0 -0.17980171942E+04 -0.78569139488E+03 -0.28580694203E+03  0.21799658609E+04  0.90575313842E+03 0.  0.
         23    2    4    4    0    0  0.65380806497E+02 -0.15231790243E+03 -0.74346558011E+01  0.19019759004E+03  0.92975566109E+02 0.  0.
         23    2    4    4    0    0 -0.18633980007E+04 -0.63337349246E+03 -0.27837228623E+03  0.19897682709E+04  0.90953569665E+02 0.  0.
          2    1    3    3  502    0  0.12563534534E+04  0.54916159669E+03  0.58501822421E+03  0.14907208933E+04  0.00000000000E+00 0. -1.
         -1    1    3    3    0  502  0.54166374089E+03  0.23652979819E+03  0.19355019331E+03  0.62193860706E+03  0.00000000000E+00 0.  1.
         13    1    5    5    0    0  0.21804039772E+02 -0.49974996089E+02 -0.47152614474E+02  0.72085265042E+02  0.00000000000E+00 0.  1.
        -13    1    5    5    0    0  0.43576766725E+02 -0.10234290634E+03  0.39717958673E+02  0.11811232500E+03  0.00000000000E+00 0. -1.
          4    1    6    6  503    0 -0.14722485994E+04 -0.49812193698E+03 -0.25705060203E+03  0.15753464427E+04  0.00000000000E+00 0. -1.
         -4    1    6    6    0  503 -0.39114940131E+03 -0.13525155548E+03 -0.21321684199E+02  0.41442182812E+03  0.00000000000E+00 0.  1.
<mgrwt>
<rscale>  0 0.42642489E+04</rscale>
<asrwt>0</asrwt>
<pdfrwt beam="1">  1        2 0.36810668E+00 0.42642489E+04</pdfrwt>
<pdfrwt beam="2">  1       -1 0.29229722E+00 0.42642489E+04</pdfrwt>
<totfact> 0.13059116E-01</totfact>
</mgrwt>
</event>
<event>
12    7  0.1730932E-007  0.1297284E+04  0.7818608E-02  0.9031721E-01
         -1   -1    0    0    0  501 -0.00000000000E+00  0.00000000000E+00  0.14982379058E+03  0.14982379058E+03  0.00000000000E+00 0.  1.
          2   -1    0    0  501    0  0.00000000000E+00 -0.00000000000E+00 -0.28082104767E+04  0.28082104767E+04  0.00000000000E+00 0. -1.
         24    2    1    2    0    0 -0.27411841905E+03 -0.94835603179E+02 -0.30262623520E+03  0.42677525403E+03  0.80123529177E+02 0.  0.
        254    2    1    2    0    0  0.27411841905E+03  0.94835603179E+02 -0.23557604509E+04  0.25312590132E+04  0.87950565133E+03 0.  0.
         23    2    4    4    0    0 -0.29964334680E+03 -0.23232092071E+02 -0.10749552707E+04  0.11199557803E+04  0.91903484753E+02 0.  0.
         23    2    4    4    0    0  0.57376176585E+03  0.11806769525E+03 -0.12808051802E+04  0.14113032329E+04  0.90401111346E+02 0.  0.
          4    1    3    3  502    0 -0.56033602653E+02  0.12886097782E+02 -0.52040730787E+02  0.77550330774E+02  0.00000000000E+00 0. -1.
         -3    1    3    3    0  502 -0.21808481640E+03 -0.10772170096E+03 -0.25058550441E+03  0.34922492325E+03  0.00000000000E+00 0.  1.
         13    1    5    5    0    0 -0.28747414004E+03 -0.38414369566E+02 -0.10427137411E+04  0.10822980138E+04  0.00000000000E+00 0.  1.
        -13    1    5    5    0    0 -0.12169206762E+02  0.15182277495E+02 -0.32241529636E+02  0.37657766482E+02  0.00000000000E+00 0. -1.
          1    1    6    6  503    0  0.20529495123E+03  0.74993537261E+02 -0.40608315456E+03  0.46116545409E+03  0.00000000000E+00 0. -1.
         -1    1    6    6    0  503  0.36846681463E+03  0.43074157990E+02 -0.87472202563E+03  0.95013777880E+03  0.00000000000E+00 0.  1.
<mgrwt>
<rscale>  0 0.12972845E+04</rscale>
<asrwt>0</asrwt>
<pdfrwt beam="1">  1        2 0.43203238E+00 0.12972845E+04</pdfrwt>
<pdfrwt beam="2">  1       -1 0.23049814E-01 0.12972845E+04</pdfrwt>
<totfact> 0.41435903E+01</totfact>
</mgrwt>
</event>
<event>
12    7  0.1730932E-007  0.2320665E+04  0.7818608E-02  0.8469818E-01
         -1   -1    0    0    0  501 -0.00000000000E+00  0.00000000000E+00  0.22904250119E+04  0.22904250119E+04  0.00000000000E+00 0.  1.
          2   -1    0    0  501    0  0.00000000000E+00 -0.00000000000E+00 -0.58782586911E+03  0.58782586911E+03  0.00000000000E+00 0. -1.
         24    2    1    2    0    0 -0.54340452232E+03  0.53007414277E+03  0.14944965415E+04  0.16781161642E+04  0.79289824641E+02 0.  0.
        254    2    1    2    0    0  0.54340452232E+03 -0.53007414277E+03  0.20810260130E+03  0.12001347168E+04  0.90595230233E+03 0.  0.
         23    2    4    4    0    0  0.61673562523E+03 -0.68510210176E+03  0.31583540904E+03  0.97869386103E+03  0.91443680762E+02 0.  0.
         23    2    4    4    0    0 -0.73331102914E+02  0.15502795898E+03 -0.10773280774E+03  0.22144085578E+03  0.89546502007E+02 0.  0.
          4    1    3    3  502    0  0.14242346572E+01 -0.85800870008E+00  0.78203785559E+00  0.18374456443E+01  0.00000000000E+00 0. -1.
         -3    1    3    3    0  502 -0.54482875697E+03  0.53093215147E+03  0.14937145036E+04  0.16762787185E+04  0.00000000000E+00 0.  1.
         13    1    5    5    0    0  0.26155550922E+03 -0.28860644877E+03  0.18139733209E+03  0.42966261038E+03  0.00000000000E+00 0. -1.
        -13    1    5    5    0    0  0.35518011601E+03 -0.39649565299E+03  0.13443807695E+03  0.54903125065E+03  0.00000000000E+00 0.  1.
          4    1    6    6  503    0 -0.27522070225E+02  0.62628899598E+02  0.50728902086E+01  0.68597212986E+02  0.00000000000E+00 0.  1.
         -4    1    6    6    0  503 -0.45809032690E+02  0.92399059385E+02 -0.11280569795E+03  0.15284364279E+03  0.00000000000E+00 0. -1.
<mgrwt>
<rscale>  0 0.23206646E+04</rscale>
<asrwt>0</asrwt>
<pdfrwt beam="1">  1        2 0.90434750E-01 0.23206646E+04</pdfrwt>
<pdfrwt beam="2">  1       -1 0.35237307E+00 0.23206646E+04</pdfrwt>
<totfact> 0.78749750E-01</totfact>
</mgrwt>
</event>
<event>
12    7  0.1730932E-007  0.1373543E+04  0.7818608E-02  0.8973195E-01
          2   -1    0    0  501    0  0.00000000000E+00  0.00000000000E+00  0.19589912948E+04  0.19589912948E+04  0.00000000000E+00 0. -1.
         -1   -1    0    0    0  501 -0.00000000000E+00 -0.00000000000E+00 -0.24076418170E+03  0.24076418170E+03  0.00000000000E+00 0.  1.
         24    2    1    2    0    0  0.22725970268E+03  0.11309407748E+03  0.10031496773E+04  0.10379134031E+04  0.80732363371E+02 0.  0.
        254    2    1    2    0    0 -0.22725970268E+03 -0.11309407748E+03  0.71507743576E+03  0.11618420733E+04  0.87983181428E+03 0.  0.
         23    2    4    4    0    0 -0.35304816476E+03 -0.42368468954E+03  0.52573450119E+03  0.76699170779E+03  0.87907856793E+02 0.  0.
         23    2    4    4    0    0  0.12578846209E+03  0.31059061206E+03  0.18934293458E+03  0.39485036555E+03  0.88129443497E+02 0.  0.
          2    1    3    3  502    0  0.20914436475E+03  0.11072792899E+03  0.98130450362E+03  0.10094357673E+04  0.00000000000E+00 0. -1.
         -1    1    3    3    0  502  0.18115337924E+02  0.23661484910E+01  0.21845173698E+02  0.28477635799E+02  0.00000000000E+00 0.  1.
         13    1    5    5    0    0 -0.20512882509E+03 -0.31011755250E+03  0.34160344851E+03  0.50491944633E+03  0.00000000000E+00 0. -1.
        -13    1    5    5    0    0 -0.14791933967E+03 -0.11356713704E+03  0.18413105268E+03  0.26207226146E+03  0.00000000000E+00 0.  1.
          4    1    6    6  503    0  0.84578699365E+02  0.27168122917E+03  0.13013612284E+03  0.31288920905E+03  0.00000000000E+00 0. -1.
         -4    1    6    6    0  503  0.41209762722E+02  0.38909382889E+02  0.59206811734E+02  0.81961156508E+02  0.00000000000E+00 0.  1.
<mgrwt>
<rscale>  0 0.13735428E+04</rscale>
<asrwt>0</asrwt>
<pdfrwt beam="1">  1        2 0.30138326E+00 0.13735428E+04</pdfrwt>
<pdfrwt beam="2">  1       -1 0.37040645E-01 0.13735428E+04</pdfrwt>
<totfact> 0.54831235E+01</totfact>
</mgrwt>
</event>
<event>
12    7  0.1730932E-007  0.2311633E+04  0.7818608E-02  0.8473348E-01
         -1   -1    0    0    0  501 -0.00000000000E+00  0.00000000000E+00  0.32166724270E+04  0.32166724270E+04  0.00000000000E+00 0.  1.
          2   -1    0    0  501    0  0.00000000000E+00 -0.00000000000E+00 -0.41530876599E+03  0.41530876599E+03  0.00000000000E+00 0. -1.
         24    2    1    2    0    0 -0.55056555751E+03  0.14778912294E+03 -0.59159604743E+02  0.57778861101E+03  0.73319589516E+02 0.  0.
        254    2    1    2    0    0  0.55056555751E+03 -0.14778912294E+03  0.28605232657E+04  0.30541925819E+04  0.90583382356E+03 0.  0.
         23    2    4    4    0    0  0.44691206587E+03  0.11626045458E+03  0.26463320607E+04  0.26878435670E+04  0.90458703553E+02 0.  0.
         23    2    4    4    0    0  0.10365349165E+03 -0.26404957752E+03  0.21419120499E+03  0.36634901495E+03  0.88698944448E+02 0.  0.
          4    1    3    3  502    0 -0.52123264817E+03  0.12514068136E+03 -0.66037125343E+02  0.54009681129E+03  0.00000000000E+00 0. -1.
         -3    1    3    3    0  502 -0.29332909346E+02  0.22648441577E+02  0.68775206008E+01  0.37691799721E+02  0.00000000000E+00 0.  1.
         13    1    5    5    0    0  0.12131607577E+03 -0.55445945493E+01  0.59555019188E+03  0.60780618936E+03  0.00000000000E+00 0. -1.
        -13    1    5    5    0    0  0.32559599010E+03  0.12180504913E+03  0.20507818688E+04  0.20800373776E+04  0.00000000000E+00 0.  1.
          3    1    6    6  503    0  0.76334204465E+02 -0.16901214231E+03  0.85923623675E+02  0.20438905089E+03  0.00000000000E+00 0. -1.
         -3    1    6    6    0  503  0.27319287181E+02 -0.95037435208E+02  0.12826758131E+03  0.16195996406E+03  0.00000000000E+00 0.  1.
<mgrwt>
<rscale>  0 0.23116334E+04</rscale>
<asrwt>0</asrwt>
<pdfrwt beam="1">  1        2 0.63893658E-01 0.23116334E+04</pdfrwt>
<pdfrwt beam="2">  1       -1 0.49487267E+00 0.23116334E+04</pdfrwt>
<totfact> 0.12637227E-01</totfact>
</mgrwt>
</event>
<event>
12    7  0.1730932E-007  0.2296277E+04  0.7818608E-02  0.8479391E-01
         -1   -1    0    0    0  501 -0.00000000000E+00  0.00000000000E+00  0.97675350149E+03  0.97675350149E+03  0.00000000000E+00 0.  1.
          2   -1    0    0  501    0  0.00000000000E+00 -0.00000000000E+00 -0.13495948709E+04  0.13495948709E+04  0.00000000000E+00 0. -1.
         24    2    1    2    0    0 -0.17109919696E+03  0.87937230237E+03 -0.54733168430E+03  0.10528114643E+04  0.79179703323E+02 0.  0.
        254    2    1    2    0    0  0.17109919696E+03 -0.87937230237E+03  0.17449031485E+03  0.12735369081E+04  0.88818849627E+03 0.  0.
         23    2    4    4    0    0  0.33812497827E+03 -0.50337194335E+03  0.45729302861E+03  0.76603040159E+03  0.99869153649E+02 0.  0.
         23    2    4    4    0    0 -0.16702578131E+03 -0.37600035903E+03 -0.28280271376E+03  0.50750650651E+03  0.91167963799E+02 0.  0.
          4    1    3    3  502    0 -0.12118730483E+03  0.64804439181E+03 -0.44229617599E+03  0.79389785483E+03  0.00000000000E+00 0. -1.
         -3    1    3    3    0  502 -0.49911892138E+02  0.23132791056E+03 -0.10503550831E+03  0.25891360951E+03  0.00000000000E+00 0.  1.
         13    1    5    5    0    0  0.50932581070E+02 -0.25638594530E+02  0.47041127203E+02  0.73921126835E+02  0.00000000000E+00 0. -1.
        -13    1    5    5    0    0  0.28719239720E+03 -0.47773334882E+03  0.41025190141E+03  0.69210927475E+03  0.00000000000E+00 0.  1.
          3    1    6    6  503    0  0.42673016050E+01 -0.74652256240E+02 -0.51156891665E+02  0.90599099276E+02  0.00000000000E+00 0. -1.
         -3    1    6    6    0  503 -0.17129308292E+03 -0.30134810279E+03 -0.23164582210E+03  0.41690740723E+03  0.00000000000E+00 0.  1.
<mgrwt>
<rscale>  0 0.22962766E+04</rscale>
<asrwt>0</asrwt>
<pdfrwt beam="1">  1        2 0.20762998E+00 0.22962766E+04</pdfrwt>
<pdfrwt beam="2">  1       -1 0.15026977E+00 0.22962766E+04</pdfrwt>
<totfact> 0.55512872E+00</totfact>
</mgrwt>
</event>
<event>
12    7  0.1730932E-007  0.1867471E+04  0.7818608E-02  0.8671220E-01
         -1   -1    0    0    0  501 -0.00000000000E+00  0.00000000000E+00  0.33660608636E+03  0.33660608636E+03  0.00000000000E+00 0.  1.
          2   -1    0    0  501    0  0.00000000000E+00 -0.00000000000E+00 -0.25901551443E+04  0.25901551443E+04  0.00000000000E+00 0. -1.
         24    2    1    2    0    0  0.57509973997E+03  0.32487293534E+03 -0.37787401934E+03  0.76499322233E+03  0.78381890066E+02 0.  0.
        254    2    1    2    0    0 -0.57509973997E+03 -0.32487293534E+03 -0.18756750386E+04  0.21617680083E+04  0.84782187774E+03 0.  0.
         23    2    4    4    0    0 -0.20531935297E+02 -0.15882809088E+03  0.12075412230E+02  0.18506309825E+03  0.91948963751E+02 0.  0.
         23    2    4    4    0    0 -0.55456780467E+03 -0.16604484445E+03 -0.18877504508E+04  0.19767049101E+04  0.92974171430E+02 0.  0.
          2    1    3    3  502    0  0.28529494768E+03  0.18567123590E+03 -0.23206092730E+03  0.41197000982E+03  0.00000000000E+00 0. -1.
         -1    1    3    3    0  502  0.28980479229E+03  0.13920169944E+03 -0.14581309204E+03  0.35302321251E+03  0.00000000000E+00 0.  1.
         13    1    5    5    0    0 -0.19799231661E+00 -0.48221781796E+02 -0.38546551805E+02  0.61735047555E+02  0.00000000000E+00 0. -1.
        -13    1    5    5    0    0 -0.20333942980E+02 -0.11060630908E+03  0.50621964035E+02  0.12332805070E+03  0.00000000000E+00 0.  1.
          4    1    6    6  503    0 -0.17818163873E+03 -0.12799426824E+02 -0.51782558507E+03  0.54777354652E+03  0.00000000000E+00 0. -1.
         -4    1    6    6    0  503 -0.37638616594E+03 -0.15324541763E+03 -0.13699248657E+04  0.14289313635E+04  0.00000000000E+00 0.  1.
<mgrwt>
<rscale>  0 0.18674710E+04</rscale>
<asrwt>0</asrwt>
<pdfrwt beam="1">  1        2 0.39848542E+00 0.18674710E+04</pdfrwt>
<pdfrwt beam="2">  1       -1 0.51785550E-01 0.18674710E+04</pdfrwt>
<totfact> 0.12389673E+01</totfact>
</mgrwt>
</event>
<event>
12    7  0.1730932E-007  0.1319556E+04  0.7818608E-02  0.9014200E-01
          2   -1    0    0  501    0  0.00000000000E+00  0.00000000000E+00  0.24102653067E+04  0.24102653067E+04  0.00000000000E+00 0. -1.
         -1   -1    0    0    0  501 -0.00000000000E+00 -0.00000000000E+00 -0.18060530322E+03  0.18060530322E+03  0.00000000000E+00 0.  1.
         24    2    1    2    0    0 -0.97140463047E+02  0.33721309306E+02  0.12389157292E+04  0.12457542030E+04  0.80112132977E+02 0.  0.
        254    2    1    2    0    0  0.97140463047E+02 -0.33721309306E+02  0.99074427427E+03  0.13451164070E+04  0.90398591529E+03 0.  0.
         23    2    4    4    0    0  0.15281153038E+03  0.32674168989E+03  0.11080646244E+03  0.38787395903E+03  0.89758789258E+02 0.  0.
         23    2    4    4    0    0 -0.55671067332E+02 -0.36046299920E+03  0.87993781184E+03  0.95724244794E+03  0.94814080709E+02 0.  0.
          4    1    3    3  502    0 -0.79293090799E+02  0.10935081674E+02  0.11368363341E+04  0.11396507451E+04  0.00000000000E+00 0. -1.
         -3    1    3    3    0  502 -0.17847372248E+02  0.22786227632E+02  0.10207939512E+03  0.10610345788E+03  0.00000000000E+00 0.  1.
         13    1    5    5    0    0  0.62064667230E+02  0.51402374813E+02  0.37252354276E+02  0.88780431143E+02  0.00000000000E+00 0.  1.
        -13    1    5    5    0    0  0.90746863150E+02  0.27533931508E+03  0.73554108159E+02  0.29909352789E+03  0.00000000000E+00 0. -1.
          1    1    6    6  503    0 -0.73940442945E+02 -0.19317310813E+03  0.53039051818E+03  0.56929530174E+03  0.00000000000E+00 0. -1.
         -1    1    6    6    0  503  0.18269375612E+02 -0.16728989107E+03  0.34954729366E+03  0.38794714620E+03  0.00000000000E+00 0.  1.
<mgrwt>
<rscale>  0 0.13195555E+04</rscale>
<asrwt>0</asrwt>
<pdfrwt beam="1">  1        2 0.37081002E+00 0.13195555E+04</pdfrwt>
<pdfrwt beam="2">  1       -1 0.27785433E-01 0.13195555E+04</pdfrwt>
<totfact> 0.51210075E+01</totfact>
</mgrwt>
</event>
<event>
12    7  0.1730932E-007  0.1673405E+04  0.7818608E-02  0.8776679E-01
          2   -1    0    0  501    0  0.00000000000E+00  0.00000000000E+00  0.31744553007E+04  0.31744553007E+04  0.00000000000E+00 0. -1.
         -1   -1    0    0    0  501 -0.00000000000E+00 -0.00000000000E+00 -0.22053277713E+03  0.22053277713E+03  0.00000000000E+00 0.  1.
         24    2    1    2    0    0  0.67128087090E+02  0.49644757806E+03  0.41520733786E+03  0.65540317880E+03  0.78675380771E+02 0.  0.
        254    2    1    2    0    0 -0.67128087090E+02 -0.49644757806E+03  0.25387151857E+04  0.27395848991E+04  0.89960227155E+03 0.  0.
         23    2    4    4    0    0 -0.18778886692E+03 -0.71062328086E+03  0.15699268718E+04  0.17359534910E+04  0.92811822081E+02 0.  0.
         23    2    4    4    0    0  0.12066077983E+03  0.21417570280E+03  0.96878831390E+03  0.10036314080E+04  0.91076618957E+02 0.  0.
          4    1    3    3  502    0 -0.16234615504E+02  0.86567654090E+02  0.59037473608E+02  0.10603275327E+03  0.00000000000E+00 0. -1.
         -3    1    3    3    0  502  0.83362702594E+02  0.40987992397E+03  0.35616986425E+03  0.54937042554E+03  0.00000000000E+00 0.  1.
         13    1    5    5    0    0 -0.40824441326E+02 -0.52485739882E+02  0.13794974767E+03  0.15313889376E+03  0.00000000000E+00 0.  1.
        -13    1    5    5    0    0 -0.14696442559E+03 -0.65813754098E+03  0.14319771242E+04  0.15828145973E+04  0.00000000000E+00 0. -1.
          4    1    6    6  503    0  0.14354929951E+02 -0.72500146628E+01  0.75202456118E+02  0.76902770644E+02  0.00000000000E+00 0.  1.
         -4    1    6    6    0  503  0.10630584987E+03  0.22142571747E+03  0.89358585779E+03  0.92672863736E+03  0.00000000000E+00 0. -1.
<mgrwt>
<rscale>  0 0.16734054E+04</rscale>
<asrwt>0</asrwt>
<pdfrwt beam="1">  1        2 0.48837771E+00 0.16734054E+04</pdfrwt>
<pdfrwt beam="2">  1       -1 0.33928122E-01 0.16734054E+04</pdfrwt>
<totfact> 0.12083155E+01</totfact>
</mgrwt>
</event>
<event>
12    7  0.1730932E-007  0.1323782E+04  0.7818608E-02  0.9010915E-01
         -3   -1    0    0    0  501 -0.00000000000E+00  0.00000000000E+00  0.30510545841E+03  0.30510545841E+03  0.00000000000E+00 0.  1.
          2   -1    0    0  501    0  0.00000000000E+00 -0.00000000000E+00 -0.14358967136E+04  0.14358967136E+04  0.00000000000E+00 0. -1.
         24    2    1    2    0    0 -0.15235747713E+03  0.10844742806E+03  0.84010460444E+02  0.22085210573E+03  0.82123380675E+02 0.  0.
        254    2    1    2    0    0  0.15235747713E+03 -0.10844742806E+03 -0.12148017156E+04  0.15201500663E+04  0.89450509791E+03 0.  0.
         23    2    4    4    0    0  0.47997930914E+03  0.52229089725E+01 -0.97095062574E+03  0.10869651225E+04  0.91327126015E+02 0.  0.
         23    2    4    4    0    0 -0.32762183202E+03 -0.11367033704E+03 -0.24385108990E+03  0.43318494376E+03  0.89043984202E+02 0.  0.
          4    1    3    3  502    0 -0.78903596639E+02  0.11405911768E+02  0.15597205758E+02  0.81235123028E+02  0.00000000000E+00 0. -1.
         -1    1    3    3    0  502 -0.73453880487E+02  0.97041516295E+02  0.68413254686E+02  0.13961698271E+03  0.00000000000E+00 0.  1.
         13    1    5    5    0    0  0.37516755237E+03  0.20223781557E+02 -0.67315325626E+03  0.77090531202E+03  0.00000000000E+00 0. -1.
        -13    1    5    5    0    0  0.10481175677E+03 -0.15000872585E+02 -0.29779736948E+03  0.31605981049E+03  0.00000000000E+00 0.  1.
          2    1    6    6  503    0 -0.19110686444E+03 -0.93745763619E+02 -0.10463504187E+03  0.23718894118E+03  0.00000000000E+00 0. -1.
         -2    1    6    6    0  503 -0.13651496758E+03 -0.19924573417E+02 -0.13921604803E+03  0.19599600258E+03  0.00000000000E+00 0.  1.
<mgrwt>
<rscale>  0 0.13237823E+04</rscale>
<asrwt>0</asrwt>
<pdfrwt beam="1">  1        2 0.22090719E+00 0.13237823E+04</pdfrwt>
<pdfrwt beam="2">  1       -3 0.46939300E-01 0.13237823E+04</pdfrwt>
<totfact> 0.39033356E+01</totfact>
</mgrwt>
</event>
<event>
12    7  0.1730932E-007  0.1620330E+04  0.7818608E-02  0.8808155E-01
         -1   -1    0    0    0  501 -0.00000000000E+00  0.00000000000E+00  0.17691064277E+03  0.17691064277E+03  0.00000000000E+00 0.  1.
          2   -1    0    0  501    0  0.00000000000E+00 -0.00000000000E+00 -0.37101617961E+04  0.37101617961E+04  0.00000000000E+00 0. -1.
         24    2    1    2    0    0  0.27687764207E+01  0.85213518022E+02  0.94944168714E+02  0.15155662006E+03  0.81767989661E+02 0.  0.
        254    2    1    2    0    0 -0.27687764207E+01 -0.85213518022E+02 -0.36281953220E+04  0.37355158188E+04  0.88487746492E+03 0.  0.
         23    2    4    4    0    0  0.36627974964E+02 -0.13615607865E+03 -0.36218875637E+04  0.36257443727E+04  0.89847901443E+02 0.  0.
         23    2    4    4    0    0 -0.39396751384E+02  0.50942560627E+02 -0.63077583004E+01  0.10977144612E+03  0.88672059108E+02 0.  0.
          2    1    3    3  502    0  0.34067409978E+01 -0.13810269783E+02  0.29810445902E+02  0.33030169854E+02  0.00000000000E+00 0. -1.
         -1    1    3    3    0  502 -0.63796457711E+00  0.99023787805E+02  0.65133722812E+02  0.11852645020E+03  0.00000000000E+00 0.  1.
         13    1    5    5    0    0  0.32172914631E+02 -0.14631314153E+03 -0.35319267966E+04  0.35351024778E+04  0.00000000000E+00 0.  1.
        -13    1    5    5    0    0  0.44550603325E+01  0.10157062883E+02 -0.89960767089E+02  0.90641894862E+02  0.00000000000E+00 0. -1.
          1    1    6    6  503    0 -0.46716016937E+02  0.38679690680E+02  0.32223063682E+02  0.68679185658E+02  0.00000000000E+00 0. -1.
         -1    1    6    6    0  503  0.73192655528E+01  0.12262869947E+02 -0.38530821982E+02  0.41092260466E+02  0.00000000000E+00 0.  1.
<mgrwt>
<rscale>  0 0.16203297E+04</rscale>
<asrwt>0</asrwt>
<pdfrwt beam="1">  1        2 0.57079411E+00 0.16203297E+04</pdfrwt>
<pdfrwt beam="2">  1       -1 0.27217023E-01 0.16203297E+04</pdfrwt>
<totfact> 0.76756952E+00</totfact>
</mgrwt>
</event>
<event>
12    7  0.1730932E-007  0.4050263E+04  0.7818608E-02  0.7994483E-01
          2   -1    0    0  501    0  0.00000000000E+00  0.00000000000E+00  0.31593997858E+04  0.31593997858E+04  0.00000000000E+00 0. -1.
         -1   -1    0    0    0  501 -0.00000000000E+00 -0.00000000000E+00 -0.12980813410E+04  0.12980813410E+04  0.00000000000E+00 0.  1.
         24    2    1    2    0    0 -0.13463232202E+02 -0.19045090894E+04  0.11969585109E+04  0.22508899401E+04  0.80372355773E+02 0.  0.
        254    2    1    2    0    0  0.13463232202E+02  0.19045090894E+04  0.66435993398E+03  0.22065911867E+04  0.89461411423E+03 0.  0.
         23    2    4    4    0    0  0.36766265270E+03  0.53437186926E+03  0.38972985665E+03  0.76224362723E+03  0.91634410797E+02 0.  0.
         23    2    4    4    0    0 -0.35419942050E+03  0.13701372201E+04  0.27463007733E+03  0.14443475595E+04  0.89358613847E+02 0.  0.
          2    1    3    3  502    0  0.87991019567E+01 -0.25058911132E+02  0.13896649811E+02  0.29974824409E+02  0.00000000000E+00 0. -1.
         -1    1    3    3    0  502 -0.22262334158E+02 -0.18794501782E+04  0.11830618611E+04  0.22209151157E+04  0.00000000000E+00 0.  1.
         13    1    5    5    0    0  0.40932324434E+01  0.16786711223E+02  0.29913832000E+02  0.34545413161E+02  0.00000000000E+00 0. -1.
        -13    1    5    5    0    0  0.36356942025E+03  0.51758515804E+03  0.35981602465E+03  0.72769821407E+03  0.00000000000E+00 0.  1.
          3    1    6    6  503    0 -0.10235159944E+03  0.56671155432E+03  0.10144256887E+03  0.58474646684E+03  0.00000000000E+00 0. -1.
         -3    1    6    6    0  503 -0.25184782105E+03  0.80342566578E+03  0.17318750846E+03  0.85960109265E+03  0.00000000000E+00 0.  1.
<mgrwt>
<rscale>  0 0.40502632E+04</rscale>
<asrwt>0</asrwt>
<pdfrwt beam="1">  1        2 0.48606150E+00 0.40502632E+04</pdfrwt>
<pdfrwt beam="2">  1       -1 0.19970482E+00 0.40502632E+04</pdfrwt>
<totfact> 0.18571944E-01</totfact>
</mgrwt>
</event>
<event>
12    7  0.1730932E-007  0.1657677E+04  0.7818608E-02  0.8785878E-01
         -1   -1    0    0    0  501 -0.00000000000E+00  0.00000000000E+00  0.69160004368E+03  0.69160004368E+03  0.00000000000E+00 0.  1.
          2   -1    0    0  501    0  0.00000000000E+00 -0.00000000000E+00 -0.99330964038E+03  0.99330964038E+03  0.00000000000E+00 0. -1.
         24    2    1    2    0    0  0.57522297430E+03  0.12343524175E+03  0.72536716577E+01  0.59361743647E+03  0.78811903056E+02 0.  0.
        254    2    1    2    0    0 -0.57522297430E+03 -0.12343524175E+03 -0.30896326836E+03  0.10912922476E+04  0.86564585102E+03 0.  0.
         23    2    4    4    0    0 -0.30793547228E+03 -0.40604089508E+03 -0.43138569436E+03  0.67361034890E+03  0.89240244789E+02 0.  0.
         23    2    4    4    0    0 -0.26728750202E+03  0.28260565333E+03  0.12242242599E+03  0.41768189868E+03  0.90345747414E+02 0.  0.
          2    1    3    3  502    0  0.75010481302E+02  0.44317543366E+02 -0.57920111045E+00  0.87126072040E+02  0.00000000000E+00 0. -1.
         -1    1    3    3    0  502  0.50021249300E+03  0.79117698380E+02  0.78328727682E+01  0.50649136443E+03  0.00000000000E+00 0.  1.
         13    1    5    5    0    0 -0.29448975494E+03 -0.39927934046E+03 -0.39478906275E+03  0.63403991321E+03  0.00000000000E+00 0.  1.
        -13    1    5    5    0    0 -0.13445717343E+02 -0.67615546184E+01 -0.36596631607E+02  0.39570435690E+02  0.00000000000E+00 0. -1.
          1    1    6    6  503    0 -0.69930615950E+01  0.12574818317E+02 -0.12532286390E+02  0.19081068323E+02  0.00000000000E+00 0. -1.
         -1    1    6    6    0  503 -0.26029444042E+03  0.27003083501E+03  0.13495471238E+03  0.39860083036E+03  0.00000000000E+00 0.  1.
<mgrwt>
<rscale>  0 0.16576767E+04</rscale>
<asrwt>0</asrwt>
<pdfrwt beam="1">  1        2 0.15281687E+00 0.16576767E+04</pdfrwt>
<pdfrwt beam="2">  1       -1 0.10640001E+00 0.16576767E+04</pdfrwt>
<totfact> 0.22876704E+01</totfact>
</mgrwt>
</event>
<event>
12    7  0.1730932E-007  0.3367173E+04  0.7818608E-02  0.8146011E-01
         -1   -1    0    0    0  501 -0.00000000000E+00  0.00000000000E+00  0.73373113342E+03  0.73373113342E+03  0.00000000000E+00 0.  1.
          2   -1    0    0  501    0  0.00000000000E+00 -0.00000000000E+00 -0.38630812065E+04  0.38630812065E+04  0.00000000000E+00 0. -1.
         24    2    1    2    0    0  0.29512437908E+03  0.11133410060E+04 -0.28790590268E+04  0.31019159272E+04  0.79214549529E+02 0.  0.
        254    2    1    2    0    0 -0.29512437908E+03 -0.11133410060E+04 -0.25029104626E+03  0.14948964127E+04  0.91947978892E+03 0.  0.
         23    2    4    4    0    0 -0.19129360580E+03  0.41627212813E+02 -0.25111139810E+03  0.33146273188E+03  0.92111562267E+02 0.  0.
         23    2    4    4    0    0 -0.10383077328E+03 -0.11549682188E+04  0.82035183484E+00  0.11634336808E+04  0.94047014161E+02 0.  0.
          2    1    3    3  502    0  0.27077427572E+03  0.92212026249E+03 -0.23567518356E+04  0.25451726270E+04  0.00000000000E+00 0. -1.
         -1    1    3    3    0  502  0.24350103360E+02  0.19122074348E+03 -0.52230719119E+03  0.55674330013E+03  0.00000000000E+00 0.  1.
         13    1    5    5    0    0 -0.74177288887E+01  0.67957620451E+01  0.72799343425E+01  0.12417831037E+02  0.00000000000E+00 0.  1.
        -13    1    5    5    0    0 -0.18387587691E+03  0.34831450768E+02 -0.25839133244E+03  0.31904490084E+03  0.00000000000E+00 0. -1.
          3    1    6    6  503    0 -0.10881236491E+03 -0.11007741791E+04  0.18245298323E+02  0.11062896614E+04  0.00000000000E+00 0. -1.
         -3    1    6    6    0  503  0.49815916281E+01 -0.54194039708E+02 -0.17424946488E+02  0.57144019417E+02  0.00000000000E+00 0.  1.
<mgrwt>
<rscale>  0 0.33671727E+04</rscale>
<asrwt>0</asrwt>
<pdfrwt beam="1">  1        2 0.59432019E+00 0.33671727E+04</pdfrwt>
<pdfrwt beam="2">  1       -1 0.11288171E+00 0.33671727E+04</pdfrwt>
<totfact> 0.29664724E-01</totfact>
</mgrwt>
</event>
<event>
12    7  0.1730932E-007  0.1198161E+04  0.7818608E-02  0.9114468E-01
         -1   -1    0    0    0  501 -0.00000000000E+00  0.00000000000E+00  0.56108906799E+03  0.56108906799E+03  0.00000000000E+00 0.  1.
          2   -1    0    0  501    0  0.00000000000E+00 -0.00000000000E+00 -0.63964409169E+03  0.63964409169E+03  0.00000000000E+00 0. -1.
         24    2    1    2    0    0  0.19485123618E+03 -0.67500315376E+02 -0.11340044000E+03  0.24914462415E+03  0.81792952843E+02 0.  0.
        254    2    1    2    0    0 -0.19485123618E+03  0.67500315376E+02  0.34845416295E+02  0.95158853554E+03  0.92832281083E+03 0.  0.
         23    2    4    4    0    0  0.11645988701E+02 -0.36372668239E+03  0.21447391405E+03  0.43214898303E+03  0.91219269850E+02 0.  0.
         23    2    4    4    0    0 -0.20649722488E+03  0.43122699776E+03 -0.17962849775E+03  0.51943955251E+03  0.94621477611E+02 0.  0.
          2    1    3    3  502    0  0.17853366253E+01  0.12619666820E+02 -0.79549158436E+01  0.15024117398E+02  0.00000000000E+00 0. -1.
         -1    1    3    3    0  502  0.19306589955E+03 -0.80119982196E+02 -0.10544552415E+03  0.23412050675E+03  0.00000000000E+00 0.  1.
         13    1    5    5    0    0  0.39776968193E+02 -0.21947252635E+03  0.93738882552E+02  0.24194498367E+03  0.00000000000E+00 0. -1.
        -13    1    5    5    0    0 -0.28130979492E+02 -0.14425415603E+03  0.12073503149E+03  0.19020399935E+03  0.00000000000E+00 0.  1.
          2    1    6    6  503    0 -0.25987302136E+02  0.11515377207E+02 -0.22637241172E+02  0.36337150032E+02  0.00000000000E+00 0. -1.
         -2    1    6    6    0  503 -0.18050992274E+03  0.41971162056E+03 -0.15699125658E+03  0.48310240248E+03  0.00000000000E+00 0.  1.
<mgrwt>
<rscale>  0 0.11981608E+04</rscale>
<asrwt>0</asrwt>
<pdfrwt beam="1">  1        2 0.98406782E-01 0.11981608E+04</pdfrwt>
<pdfrwt beam="2">  1       -1 0.86321396E-01 0.11981608E+04</pdfrwt>
<totfact> 0.68501165E+01</totfact>
</mgrwt>
</event>
<event>
12    7  0.1730932E-007  0.2728137E+04  0.7818608E-02  0.8325933E-01
          2   -1    0    0  501    0  0.00000000000E+00  0.00000000000E+00  0.19905111814E+04  0.19905111814E+04  0.00000000000E+00 0. -1.
         -1   -1    0    0    0  501 -0.00000000000E+00 -0.00000000000E+00 -0.93477649237E+03  0.93477649237E+03  0.00000000000E+00 0.  1.
         24    2    1    2    0    0  0.77177369586E+03  0.86278456699E+03  0.87061862911E+03  0.14506197417E+04  0.79303159652E+02 0.  0.
        254    2    1    2    0    0 -0.77177369586E+03 -0.86278456699E+03  0.18511605990E+03  0.14746679320E+04  0.89462042644E+03 0.  0.
         23    2    4    4    0    0 -0.64746322966E+02 -0.66115459726E+03 -0.10571874890E+03  0.67869147738E+03  0.90156418456E+02 0.  0.
         23    2    4    4    0    0 -0.70702737289E+03 -0.20162996973E+03  0.29083480879E+03  0.79597645463E+03  0.91930841435E+02 0.  0.
          2    1    3    3  502    0  0.17366242420E+03  0.17002954133E+03  0.14852957301E+03  0.28483278702E+03  0.00000000000E+00 0. -1.
         -1    1    3    3    0  502  0.59811127166E+03  0.69275502566E+03  0.72208905610E+03  0.11657869547E+04  0.00000000000E+00 0.  1.
         13    1    5    5    0    0  0.10199246918E+02 -0.33608893157E+03 -0.67059583333E+02  0.34286554548E+03  0.00000000000E+00 0.  1.
        -13    1    5    5    0    0 -0.74945569884E+02 -0.32506566569E+03 -0.38659165563E+02  0.33582593190E+03  0.00000000000E+00 0. -1.
          3    1    6    6  503    0 -0.67738537074E+03 -0.18392690589E+03  0.25657120398E+03  0.74733448329E+03  0.00000000000E+00 0. -1.
         -3    1    6    6    0  503 -0.29642002153E+02 -0.17703063845E+02  0.34263604815E+02  0.48641971343E+02  0.00000000000E+00 0.  1.
<mgrwt>
<rscale>  0 0.27281371E+04</rscale>
<asrwt>0</asrwt>
<pdfrwt beam="1">  1        2 0.30623249E+00 0.27281371E+04</pdfrwt>
<pdfrwt beam="2">  1       -1 0.14381177E+00 0.27281371E+04</pdfrwt>
<totfact> 0.26299354E+00</totfact>
</mgrwt>
</event>
<event>
12    7  0.1730932E-007  0.2274075E+04  0.7818608E-02  0.8488214E-01
          2   -1    0    0  501    0  0.00000000000E+00  0.00000000000E+00  0.95157476738E+03  0.95157476738E+03  0.00000000000E+00 0. -1.
         -1   -1    0    0    0  501 -0.00000000000E+00 -0.00000000000E+00 -0.13586471679E+04  0.13586471679E+04  0.00000000000E+00 0.  1.
         24    2    1    2    0    0 -0.22208280470E+03 -0.33338960110E+03  0.71714446289E+03  0.82523989736E+03  0.79090513203E+02 0.  0.
        254    2    1    2    0    0  0.22208280470E+03  0.33338960110E+03 -0.11242168634E+04  0.14849820379E+04  0.88365077870E+03 0.  0.
         23    2    4    4    0    0 -0.20129300565E+03 -0.31853648183E+02  0.42800350154E+01  0.22253667333E+03  0.89278907078E+02 0.  0.
         23    2    4    4    0    0  0.42337581035E+03  0.36524324929E+03 -0.11284968984E+04  0.12624453646E+04  0.87254460647E+02 0.  0.
          4    1    3    3  502    0 -0.22067035303E+03 -0.32475133440E+03  0.71576169530E+03  0.81637836716E+03  0.00000000000E+00 0. -1.
         -3    1    3    3    0  502 -0.14124516711E+01 -0.86382667003E+01  0.13827675834E+01  0.88615302007E+01  0.00000000000E+00 0.  1.
         13    1    5    5    0    0  0.49250449188E+01  0.10581642925E+02 -0.22948715170E+01  0.11895111169E+02  0.00000000000E+00 0.  1.
        -13    1    5    5    0    0 -0.20621805057E+03 -0.42435291109E+02  0.65749065324E+01  0.21064156216E+03  0.00000000000E+00 0. -1.
          3    1    6    6  503    0  0.25999881475E+03  0.26140560452E+03 -0.66969646562E+03  0.76447735729E+03  0.00000000000E+00 0. -1.
         -3    1    6    6    0  503  0.16337699560E+03  0.10383764477E+03 -0.45880043275E+03  0.49796800726E+03  0.00000000000E+00 0.  1.
<mgrwt>
<rscale>  0 0.22740751E+04</rscale>
<asrwt>0</asrwt>
<pdfrwt beam="1">  1        2 0.14639612E+00 0.22740751E+04</pdfrwt>
<pdfrwt beam="2">  1       -1 0.20902264E+00 0.22740751E+04</pdfrwt>
<totfact> 0.36633710E+00</totfact>
</mgrwt>
</event>
<event>
12    7  0.1730932E-007  0.1059022E+04  0.7818608E-02  0.9246078E-01
          2   -1    0    0  501    0  0.00000000000E+00  0.00000000000E+00  0.38123020006E+03  0.38123020006E+03  0.00000000000E+00 0. -1.
         -1   -1    0    0    0  501 -0.00000000000E+00 -0.00000000000E+00 -0.73546680462E+03  0.73546680462E+03  0.00000000000E+00 0.  1.
         24    2    1    2    0    0  0.11507584442E+02  0.27560902214E+02  0.10021126976E+03  0.13107882733E+03  0.79040069313E+02 0.  0.
        254    2    1    2    0    0 -0.11507584442E+02 -0.27560902214E+02 -0.45444787432E+03  0.98561817735E+03  0.87408711992E+03 0.  0.
         23    2    4    4    0    0  0.37397069399E+03  0.17609928434E+03 -0.27739444482E+03  0.50589945250E+03  0.90119587849E+02 0.  0.
         23    2    4    4    0    0 -0.38547827843E+03 -0.20366018656E+03 -0.17705342950E+03  0.47971872485E+03  0.93333613132E+02 0.  0.
          2    1    3    3  502    0  0.23655915422E+02 -0.44822000169E+01  0.92991520149E+02  0.96057874592E+02  0.00000000000E+00 0. -1.
         -1    1    3    3    0  502 -0.12148330980E+02  0.32043102231E+02  0.72197496078E+01  0.35020952737E+02  0.00000000000E+00 0.  1.
         13    1    5    5    0    0  0.30956429213E+03  0.14695448263E+03 -0.26706943615E+03  0.43445569930E+03  0.00000000000E+00 0. -1.
        -13    1    5    5    0    0  0.64406401861E+02  0.29144801706E+02 -0.10325008666E+02  0.71443753199E+02  0.00000000000E+00 0.  1.
          4    1    6    6  503    0 -0.22936045082E+03 -0.11990599457E+03 -0.55031427667E+02  0.26459803848E+03  0.00000000000E+00 0. -1.
         -4    1    6    6    0  503 -0.15611782761E+03 -0.83754191981E+02 -0.12202200183E+03  0.21512068637E+03  0.00000000000E+00 0.  1.
<mgrwt>
<rscale>  0 0.10590225E+04</rscale>
<asrwt>0</asrwt>
<pdfrwt beam="1">  1        2 0.58650801E-01 0.10590225E+04</pdfrwt>
<pdfrwt beam="2">  1       -1 0.11314874E+00 0.10590225E+04</pdfrwt>
<totfact> 0.68290363E+01</totfact>
</mgrwt>
</event>
<event>
12    7  0.1730932E-007  0.1505330E+04  0.7818608E-02  0.8880916E-01
          2   -1    0    0  501    0  0.00000000000E+00  0.00000000000E+00  0.56447030538E+03  0.56447030538E+03  0.00000000000E+00 0. -1.
         -1   -1    0    0    0  501 -0.00000000000E+00 -0.00000000000E+00 -0.10036044931E+04  0.10036044931E+04  0.00000000000E+00 0.  1.
         24    2    1    2    0    0 -0.38620438669E+03  0.21001871764E+03 -0.30913126485E+03  0.54330486733E+03  0.79726720136E+02 0.  0.
        254    2    1    2    0    0  0.38620438669E+03 -0.21001871764E+03 -0.13000292285E+03  0.10247699311E+04  0.91651020821E+03 0.  0.
         23    2    4    4    0    0 -0.12676928745E+03 -0.41764722882E+03  0.14627082497E+02  0.44592115705E+03  0.90177972826E+02 0.  0.
         23    2    4    4    0    0  0.51297367414E+03  0.20762851118E+03 -0.14463000535E+03  0.57884877408E+03  0.88862116766E+02 0.  0.
          4    1    3    3  502    0 -0.19014739455E+03  0.90254371791E+02 -0.10165137148E+03  0.23374106316E+03  0.00000000000E+00 0. -1.
         -3    1    3    3    0  502 -0.19605699213E+03  0.11976434585E+03 -0.20747989337E+03  0.30956380418E+03  0.00000000000E+00 0.  1.
         13    1    5    5    0    0  0.14125142536E+02 -0.49961121738E+02  0.10239672096E+01  0.51929585458E+02  0.00000000000E+00 0.  1.
        -13    1    5    5    0    0 -0.14089442999E+03 -0.36768610708E+03  0.13603115287E+02  0.39399157160E+03  0.00000000000E+00 0. -1.
          4    1    6    6  503    0  0.82798550540E+02  0.70929410009E+02 -0.32278424071E+02  0.11370346449E+03  0.00000000000E+00 0.  1.
         -4    1    6    6    0  503  0.43017512360E+03  0.13669910117E+03 -0.11235158128E+03  0.46514530960E+03  0.00000000000E+00 0. -1.
<mgrwt>
<rscale>  0 0.15053304E+04</rscale>
<asrwt>0</asrwt>
<pdfrwt beam="1">  1        2 0.86841586E-01 0.15053304E+04</pdfrwt>
<pdfrwt beam="2">  1       -1 0.15440069E+00 0.15053304E+04</pdfrwt>
<totfact> 0.19002572E+01</totfact>
</mgrwt>
</event>
<event>
12    7  0.1730932E-007  0.1787461E+04  0.7818608E-02  0.8712996E-01
         -1   -1    0    0    0  501 -0.00000000000E+00  0.00000000000E+00  0.33763157101E+03  0.33763157101E+03  0.00000000000E+00 0.  1.
          2   -1    0    0  501    0  0.00000000000E+00 -0.00000000000E+00 -0.23657557778E+04  0.23657557778E+04  0.00000000000E+00 0. -1.
         24    2    1    2    0    0  0.10707185160E+03  0.15195306472E+03 -0.16939683802E+04  0.17059836030E+04  0.79354050851E+02 0.  0.
        254    2    1    2    0    0 -0.10707185160E+03 -0.15195306472E+03 -0.33415582655E+03  0.99740374575E+03  0.92119487641E+03 0.  0.
         23    2    4    4    0    0 -0.20987752715E+03  0.26484923135E+03  0.11569852483E+03  0.36887044188E+03  0.92117112949E+02 0.  0.
         23    2    4    4    0    0  0.10280567555E+03 -0.41680229607E+03 -0.44985435138E+03  0.62853330387E+03  0.91607945460E+02 0.  0.
          2    1    3    3  502    0  0.76288729238E+02  0.82280877766E+02 -0.12919221971E+04  0.12967856710E+04  0.00000000000E+00 0. -1.
         -1    1    3    3    0  502  0.30783122367E+02  0.69672186958E+02 -0.40204618307E+03  0.40919793204E+03  0.00000000000E+00 0.  1.
         13    1    5    5    0    0 -0.37530720210E+02  0.10566934797E+03  0.62225176949E+02  0.12824405915E+03  0.00000000000E+00 0. -1.
        -13    1    5    5    0    0 -0.17234680694E+03  0.15917988338E+03  0.53473347881E+02  0.24062638273E+03  0.00000000000E+00 0.  1.
          3    1    6    6  503    0  0.25143497539E+00 -0.13480690391E+03 -0.18067524709E+03  0.22542517489E+03  0.00000000000E+00 0. -1.
         -3    1    6    6    0  503  0.10255424057E+03 -0.28199539216E+03 -0.26917910429E+03  0.40310812898E+03  0.00000000000E+00 0.  1.
<mgrwt>
<rscale>  0 0.17874606E+04</rscale>
<asrwt>0</asrwt>
<pdfrwt beam="1">  1        2 0.36396242E+00 0.17874606E+04</pdfrwt>
<pdfrwt beam="2">  1       -1 0.51943320E-01 0.17874606E+04</pdfrwt>
<totfact> 0.16711882E+01</totfact>
</mgrwt>
</event>
<event>
12    7  0.1730932E-007  0.2222337E+04  0.7818608E-02  0.8509188E-01
         -1   -1    0    0    0  501 -0.00000000000E+00  0.00000000000E+00  0.13186374536E+04  0.13186374536E+04  0.00000000000E+00 0.  1.
          2   -1    0    0  501    0  0.00000000000E+00 -0.00000000000E+00 -0.93634199621E+03  0.93634199621E+03  0.00000000000E+00 0. -1.
         24    2    1    2    0    0 -0.91283882393E+03  0.13306363995E+03  0.19550262030E+03  0.94761390109E+03  0.93649240521E+02 0.  0.
        254    2    1    2    0    0  0.91283882393E+03 -0.13306363995E+03  0.18679283704E+03  0.13073655487E+04  0.90737669307E+03 0.  0.
         23    2    4    4    0    0  0.32241964529E+02 -0.36574907355E+03  0.37030375959E+02  0.37973764159E+03  0.89540485884E+02 0.  0.
         23    2    4    4    0    0  0.88059685940E+03  0.23268543360E+03  0.14976246109E+03  0.92762790708E+03  0.92040205631E+02 0.  0.
          4    1    3    3  502    0 -0.38884112429E+03  0.77755649132E+02  0.12637672362E+03  0.41619038574E+03  0.00000000000E+00 0. -1.
         -3    1    3    3    0  502 -0.52399769964E+03  0.55307990819E+02  0.69125896679E+02  0.53142351535E+03  0.00000000000E+00 0.  1.
         13    1    5    5    0    0  0.57019894122E+02 -0.32087079018E+03  0.23642243745E+02  0.32675417060E+03  0.00000000000E+00 0. -1.
        -13    1    5    5    0    0 -0.24777929593E+02 -0.44878283376E+02  0.13388132213E+02  0.52983470987E+02  0.00000000000E+00 0.  1.
          4    1    6    6  503    0  0.48538926008E+02  0.28415249173E+02 -0.68702280292E+01  0.56662631043E+02  0.00000000000E+00 0. -1.
         -4    1    6    6    0  503  0.83205793339E+03  0.20427018443E+03  0.15663268912E+03  0.87096527604E+03  0.00000000000E+00 0.  1.
<mgrwt>
<rscale>  0 0.22223372E+04</rscale>
<asrwt>0</asrwt>
<pdfrwt beam="1">  1        2 0.14405261E+00 0.22223372E+04</pdfrwt>
<pdfrwt beam="2">  1       -1 0.20286730E+00 0.22223372E+04</pdfrwt>
<totfact> 0.41484126E+00</totfact>
</mgrwt>
</event>
<event>
12    7  0.1730932E-007  0.1610216E+04  0.7818608E-02  0.8814297E-01
          2   -1    0    0  501    0  0.00000000000E+00  0.00000000000E+00  0.14456039810E+04  0.14456039810E+04  0.00000000000E+00 0. -1.
         -1   -1    0    0    0  501 -0.00000000000E+00 -0.00000000000E+00 -0.44839288110E+03  0.44839288110E+03  0.00000000000E+00 0.  1.
         24    2    1    2    0    0 -0.51004742611E+03 -0.11483204746E+03  0.52421984000E+03  0.74504433438E+03  0.83365721559E+02 0.  0.
        254    2    1    2    0    0  0.51004742611E+03  0.11483204746E+03  0.47299125994E+03  0.11489525278E+04  0.90721353775E+03 0.  0.
         23    2    4    4    0    0  0.73672748077E+03  0.47236870428E+02  0.49760501402E+03  0.89557339571E+03  0.97171262588E+02 0.  0.
         23    2    4    4    0    0 -0.22668005466E+03  0.67595177037E+02 -0.24613754074E+02  0.25337913206E+03  0.87419634706E+02 0.  0.
          4    1    3    3  502    0 -0.49510228253E+03 -0.11572009540E+03  0.52391251279E+03  0.73006967592E+03  0.00000000000E+00 0. -1.
         -3    1    3    3    0  502 -0.14945143586E+02  0.88804793328E+00  0.30732721196E+00  0.14974658459E+02  0.00000000000E+00 0.  1.
         13    1    5    5    0    0  0.36602400440E+03  0.93491802496E+01  0.30257295139E+03  0.47498565229E+03  0.00000000000E+00 0.  1.
        -13    1    5    5    0    0  0.37070347638E+03  0.37887690178E+02  0.19503206263E+03  0.42058774342E+03  0.00000000000E+00 0. -1.
          2    1    6    6  503    0 -0.89197182807E+02 -0.35114592465E+01  0.21604207462E+02  0.91843396860E+02  0.00000000000E+00 0. -1.
         -2    1    6    6    0  503 -0.13748287185E+03  0.71106636284E+02 -0.46217961536E+02  0.16153573520E+03  0.00000000000E+00 0.  1.
<mgrwt>
<rscale>  0 0.16102156E+04</rscale>
<asrwt>0</asrwt>
<pdfrwt beam="1">  1        2 0.22240061E+00 0.16102156E+04</pdfrwt>
<pdfrwt beam="2">  1       -1 0.68983521E-01 0.16102156E+04</pdfrwt>
<totfact> 0.31640656E+01</totfact>
</mgrwt>
</event>
<event>
12    7  0.1730932E-007  0.2764494E+04  0.7818608E-02  0.8314377E-01
         -1   -1    0    0    0  501 -0.00000000000E+00  0.00000000000E+00  0.85378955921E+03  0.85378955921E+03  0.00000000000E+00 0.  1.
          2   -1    0    0  501    0  0.00000000000E+00 -0.00000000000E+00 -0.22377961155E+04  0.22377961155E+04  0.00000000000E+00 0. -1.
         24    2    1    2    0    0  0.59181427801E+03 -0.55572074385E+03 -0.16538766752E+04  0.18444011896E+04  0.86243880694E+02 0.  0.
        254    2    1    2    0    0 -0.59181427801E+03  0.55572074385E+03  0.26987011884E+03  0.12471844851E+04  0.90750734102E+03 0.  0.
         23    2    4    4    0    0 -0.25544271414E+03  0.76239689303E+03  0.14685681981E+03  0.82244294341E+03  0.91353527143E+02 0.  0.
         23    2    4    4    0    0 -0.33637156387E+03 -0.20667614919E+03  0.12301329903E+03  0.42474154168E+03  0.97016729845E+02 0.  0.
          4    1    3    3  502    0  0.28669161325E+03 -0.21318739316E+03 -0.69539826316E+03  0.78180540425E+03  0.00000000000E+00 0. -1.
         -3    1    3    3    0  502  0.30512266475E+03 -0.34253335069E+03 -0.95847841200E+03  0.10625957854E+04  0.00000000000E+00 0.  1.
         13    1    5    5    0    0 -0.14781530567E+03  0.36047762769E+03  0.10942845736E+03  0.40468268055E+03  0.00000000000E+00 0. -1.
        -13    1    5    5    0    0 -0.10762740847E+03  0.40191926534E+03  0.37428362446E+02  0.41776026286E+03  0.00000000000E+00 0.  1.
          2    1    6    6  503    0 -0.30196238699E+03 -0.21518399360E+03  0.11683337932E+03  0.38876146000E+03  0.00000000000E+00 0. -1.
         -2    1    6    6    0  503 -0.34409176877E+02  0.85078444164E+01  0.61799197131E+01  0.35980081679E+02  0.00000000000E+00 0.  1.
<mgrwt>
<rscale>  0 0.27644941E+04</rscale>
<asrwt>0</asrwt>
<pdfrwt beam="1">  1        2 0.34427633E+00 0.27644941E+04</pdfrwt>
<pdfrwt beam="2">  1       -1 0.13135224E+00 0.27644941E+04</pdfrwt>
<totfact> 0.24101986E+00</totfact>
</mgrwt>
</event>
<event>
12    7  0.1730932E-007  0.2048029E+04  0.7818608E-02  0.8584489E-01
          2   -1    0    0  501    0  0.00000000000E+00  0.00000000000E+00  0.19249043031E+04  0.19249043031E+04  0.00000000000E+00 0. -1.
         -1   -1    0    0    0  501 -0.00000000000E+00 -0.00000000000E+00 -0.54475733746E+03  0.54475733746E+03  0.00000000000E+00 0.  1.
         24    2    1    2    0    0  0.70426109749E+03 -0.41780852314E+03  0.60819295377E+03  0.10255453063E+04  0.10628664497E+03 0.  0.
        254    2    1    2    0    0 -0.70426109749E+03  0.41780852314E+03  0.77195401184E+03  0.14441163342E+04  0.90499245016E+03 0.  0.
         23    2    4    4    0    0 -0.39086506530E+03  0.68659640921E+03  0.54622318282E+03  0.96480181292E+03  0.91063957444E+02 0.  0.
         23    2    4    4    0    0 -0.31339603219E+03 -0.26878788607E+03  0.22573082902E+03  0.47931452128E+03  0.91235971238E+02 0.  0.
          2    1    3    3  502    0  0.37609353085E+03 -0.20659217181E+03  0.38180976148E+03  0.57437388813E+03  0.00000000000E+00 0. -1.
         -1    1    3    3    0  502  0.32816756664E+03 -0.21121635133E+03  0.22638319230E+03  0.45117141822E+03  0.00000000000E+00 0.  1.
         13    1    5    5    0    0 -0.17369142333E+03  0.36906482333E+03  0.24136443248E+03  0.47395605664E+03  0.00000000000E+00 0. -1.
        -13    1    5    5    0    0 -0.21717364198E+03  0.31753158588E+03  0.30485875033E+03  0.49084575628E+03  0.00000000000E+00 0.  1.
          1    1    6    6  503    0 -0.21824868849E+03 -0.23526513576E+03  0.15707326196E+03  0.35728725664E+03  0.00000000000E+00 0. -1.
         -1    1    6    6    0  503 -0.95147343695E+02 -0.33522750310E+02  0.68657567062E+02  0.12202726464E+03  0.00000000000E+00 0.  1.
<mgrwt>
<rscale>  0 0.20480290E+04</rscale>
<asrwt>0</asrwt>
<pdfrwt beam="1">  1        2 0.29613912E+00 0.20480290E+04</pdfrwt>
<pdfrwt beam="2">  1       -1 0.83808822E-01 0.20480290E+04</pdfrwt>
<totfact> 0.10939828E+01</totfact>
</mgrwt>
</event>
<event>
12    7  0.1730932E-007  0.1858685E+04  0.7818608E-02  0.8675699E-01
          2   -1    0    0  501    0  0.00000000000E+00  0.00000000000E+00  0.73655751229E+03  0.73655751229E+03  0.00000000000E+00 0. -1.
         -1   -1    0    0    0  501 -0.00000000000E+00 -0.00000000000E+00 -0.11725861591E+04  0.11725861591E+04  0.00000000000E+00 0.  1.
         24    2    1    2    0    0  0.44285235381E+03  0.29009394905E+02 -0.73923963282E+03  0.86580721170E+03  0.78658380632E+02 0.  0.
        254    2    1    2    0    0 -0.44285235381E+03 -0.29009394905E+02  0.30321098600E+03  0.10433364597E+04  0.89423392566E+03 0.  0.
         23    2    4    4    0    0 -0.15493667321E+03  0.27681638923E+03 -0.19683370423E+03  0.38413300235E+03  0.90454244342E+02 0.  0.
         23    2    4    4    0    0 -0.28791568060E+03 -0.30582578414E+03  0.50004469024E+03  0.65920345734E+03  0.89886909818E+02 0.  0.
          4    1    3    3  502    0  0.19054334698E+03 -0.11704048785E+02 -0.25843764295E+03  0.32130012003E+03  0.00000000000E+00 0. -1.
         -3    1    3    3    0  502  0.25230900682E+03  0.40713443690E+02 -0.48080198987E+03  0.54450709167E+03  0.00000000000E+00 0.  1.
         13    1    5    5    0    0 -0.18431421142E+02 -0.10158139179E+01 -0.24863690208E+01  0.18626089073E+02  0.00000000000E+00 0.  1.
        -13    1    5    5    0    0 -0.13650525206E+03  0.27783220315E+03 -0.19434733521E+03  0.36550691327E+03  0.00000000000E+00 0. -1.
          2    1    6    6  503    0 -0.70385189927E+02 -0.28722779169E+02  0.10879055845E+03  0.13271947337E+03  0.00000000000E+00 0.  1.
         -2    1    6    6    0  503 -0.21753049067E+03 -0.27710300497E+03  0.39125413179E+03  0.52648398397E+03  0.00000000000E+00 0. -1.
<mgrwt>
<rscale>  0 0.18586846E+04</rscale>
<asrwt>0</asrwt>
<pdfrwt beam="1">  1        2 0.11331654E+00 0.18586846E+04</pdfrwt>
<pdfrwt beam="2">  1       -1 0.18039787E+00 0.18586846E+04</pdfrwt>
<totfact> 0.85133767E+00</totfact>
</mgrwt>
</event>
<event>
12    7  0.1730932E-007  0.1508750E+04  0.7818608E-02  0.8878655E-01
          2   -1    0    0  501    0  0.00000000000E+00  0.00000000000E+00  0.48959244757E+03  0.48959244757E+03  0.00000000000E+00 0. -1.
         -1   -1    0    0    0  501 -0.00000000000E+00 -0.00000000000E+00 -0.11623576632E+04  0.11623576632E+04  0.00000000000E+00 0.  1.
         24    2    1    2    0    0  0.39069868164E+03  0.12971725905E+03  0.50817374529E+02  0.42223913822E+03  0.78939579214E+02 0.  0.
        254    2    1    2    0    0 -0.39069868164E+03 -0.12971725905E+03 -0.72358259015E+03  0.12297109725E+04  0.90506645286E+03 0.  0.
         23    2    4    4    0    0 -0.49675381453E+03 -0.23489050179E+03 -0.84903200537E+03  0.10154279489E+04  0.91108029777E+02 0.  0.
         23    2    4    4    0    0  0.10605513290E+03  0.10517324274E+03  0.12544941522E+03  0.21428302368E+03  0.88716155554E+02 0.  0.
          4    1    3    3  502    0  0.17569114086E+03  0.53603036516E+02  0.62040779077E+02  0.19388068694E+03  0.00000000000E+00 0. -1.
         -3    1    3    3    0  502  0.21500754078E+03  0.76114222533E+02 -0.11223404548E+02  0.22835845128E+03  0.00000000000E+00 0.  1.
         13    1    5    5    0    0 -0.47895345083E+03 -0.23995837548E+03 -0.83554249460E+03  0.99252591418E+03  0.00000000000E+00 0.  1.
        -13    1    5    5    0    0 -0.17800363700E+02  0.50678736887E+01 -0.13489510762E+02  0.22902034673E+02  0.00000000000E+00 0. -1.
          2    1    6    6  503    0  0.92503014918E+01  0.21222830657E+02  0.71674078157E+02  0.75320316638E+02  0.00000000000E+00 0. -1.
         -2    1    6    6    0  503  0.96804831406E+02  0.83950412084E+02  0.53775337064E+02  0.13896270704E+03  0.00000000000E+00 0.  1.
<mgrwt>
<rscale>  0 0.15087499E+04</rscale>
<asrwt>0</asrwt>
<pdfrwt beam="1">  1        2 0.75321916E-01 0.15087499E+04</pdfrwt>
<pdfrwt beam="2">  1       -1 0.17882425E+00 0.15087499E+04</pdfrwt>
<totfact> 0.14781422E+01</totfact>
</mgrwt>
</event>
<event>
12    7  0.1730932E-007  0.1330197E+04  0.7818608E-02  0.9005956E-01
         -1   -1    0    0    0  501 -0.00000000000E+00  0.00000000000E+00  0.21622572929E+03  0.21622572929E+03  0.00000000000E+00 0.  1.
          2   -1    0    0  501    0  0.00000000000E+00 -0.00000000000E+00 -0.20458061269E+04  0.20458061269E+04  0.00000000000E+00 0. -1.
         24    2    1    2    0    0  0.27210085980E+03 -0.21420668680E+03 -0.65137149930E+03  0.74204434734E+03  0.80134890914E+02 0.  0.
        254    2    1    2    0    0 -0.27210085980E+03  0.21420668680E+03 -0.11782088984E+04  0.15199875089E+04  0.89569103850E+03 0.  0.
         23    2    4    4    0    0 -0.51884965744E+03  0.20448935887E+03 -0.11146753730E+04  0.12491928567E+04  0.83431056180E+02 0.  0.
         23    2    4    4    0    0  0.24674879764E+03  0.97173279257E+01 -0.63533525393E+02  0.27079465223E+03  0.91180256777E+02 0.  0.
          4    1    3    3  502    0  0.12040456362E+03 -0.14390400222E+03 -0.36630934831E+03  0.41156792812E+03  0.00000000000E+00 0. -1.
         -3    1    3    3    0  502  0.15169629618E+03 -0.70302684576E+02 -0.28506215100E+03  0.33047641922E+03  0.00000000000E+00 0.  1.
         13    1    5    5    0    0 -0.29346312214E+03  0.72358376321E+02 -0.62083138282E+03  0.69049833061E+03  0.00000000000E+00 0. -1.
        -13    1    5    5    0    0 -0.22538653530E+03  0.13213098255E+03 -0.49384399014E+03  0.55869452605E+03  0.00000000000E+00 0.  1.
          1    1    6    6  503    0  0.15253783847E+03  0.48515221589E+02 -0.25738480554E+02  0.16212337361E+03  0.00000000000E+00 0. -1.
         -1    1    6    6    0  503  0.94210959176E+02 -0.38797893664E+02 -0.37795044839E+02  0.10867127862E+03  0.00000000000E+00 0.  1.
<mgrwt>
<rscale>  0 0.13301969E+04</rscale>
<asrwt>0</asrwt>
<pdfrwt beam="1">  1        2 0.31473941E+00 0.13301969E+04</pdfrwt>
<pdfrwt beam="2">  1       -1 0.33265496E-01 0.13301969E+04</pdfrwt>
<totfact> 0.59714150E+01</totfact>
</mgrwt>
</event>
<event>
12    7  0.1730932E-007  0.3516255E+04  0.7818608E-02  0.8109949E-01
         -1   -1    0    0    0  501 -0.00000000000E+00  0.00000000000E+00  0.12088574634E+04  0.12088574634E+04  0.00000000000E+00 0.  1.
          2   -1    0    0  501    0  0.00000000000E+00 -0.00000000000E+00 -0.25569694406E+04  0.25569694406E+04  0.00000000000E+00 0. -1.
         24    2    1    2    0    0 -0.97576021009E+03 -0.25665806876E+03 -0.20156004584E+04  0.22549076759E+04  0.63103622485E+02 0.  0.
        254    2    1    2    0    0  0.97576021009E+03  0.25665806876E+03  0.66748848115E+03  0.15109192281E+04  0.90518213055E+03 0.  0.
         23    2    4    4    0    0  0.57439036485E+01 -0.16932296315E+03  0.35571961579E+03  0.40277477812E+03  0.83593172894E+02 0.  0.
         23    2    4    4    0    0  0.97001630644E+03  0.42598103190E+03  0.31176886537E+03  0.11081444500E+04  0.91612347858E+02 0.  0.
          4    1    3    3  502    0 -0.39227615806E+03 -0.12666229740E+03 -0.87008861677E+03  0.96279703094E+03  0.00000000000E+00 0. -1.
         -3    1    3    3    0  502 -0.58348405203E+03 -0.12999577136E+03 -0.11455118416E+04  0.12921106450E+04  0.00000000000E+00 0.  1.
         13    1    5    5    0    0 -0.45199948723E+01 -0.16589282181E+03  0.35506430784E+03  0.39193305727E+03  0.00000000000E+00 0.  1.
        -13    1    5    5    0    0  0.10263898521E+02 -0.34301413324E+01  0.65530795104E+00  0.10841720847E+02  0.00000000000E+00 0. -1.
          2    1    6    6  503    0  0.62049892213E+03  0.31683659770E+03  0.18798722085E+03  0.72162562123E+03  0.00000000000E+00 0. -1.
         -2    1    6    6    0  503  0.34951738431E+03  0.10914443421E+03  0.12378164452E+03  0.38651882874E+03  0.00000000000E+00 0.  1.
<mgrwt>
<rscale>  0 0.35162546E+04</rscale>
<asrwt>0</asrwt>
<pdfrwt beam="1">  1        2 0.39337991E+00 0.35162546E+04</pdfrwt>
<pdfrwt beam="2">  1       -1 0.18597807E+00 0.35162546E+04</pdfrwt>
<totfact> 0.56719872E-01</totfact>
</mgrwt>
</event>
<event>
12    7  0.1730932E-007  0.3169194E+04  0.7818608E-02  0.8197001E-01
          2   -1    0    0  501    0  0.00000000000E+00  0.00000000000E+00  0.20506959595E+04  0.20506959595E+04  0.00000000000E+00 0. -1.
         -1   -1    0    0    0  501 -0.00000000000E+00 -0.00000000000E+00 -0.12244369649E+04  0.12244369649E+04  0.00000000000E+00 0.  1.
         24    2    1    2    0    0 -0.42218176240E+03 -0.34521572224E+03 -0.10056819082E+04  0.11468829125E+04  0.80826846056E+02 0.  0.
        254    2    1    2    0    0  0.42218176240E+03  0.34521572224E+03  0.18319409028E+04  0.21282500120E+04  0.93596437254E+03 0.  0.
         23    2    4    4    0    0 -0.22390600448E+03 -0.12638763069E+03  0.34805083826E+03  0.44005500054E+03  0.80008033674E+02 0.  0.
         23    2    4    4    0    0  0.64608776687E+03  0.47160335293E+03  0.14838900646E+04  0.16881950114E+04  0.90738899848E+02 0.  0.
          4    1    3    3  502    0 -0.14869745739E+03 -0.17059314041E+03 -0.43810761493E+03  0.49310367637E+03  0.00000000000E+00 0. -1.
         -3    1    3    3    0  502 -0.27348430501E+03 -0.17462258183E+03 -0.56757429330E+03  0.65377923613E+03  0.00000000000E+00 0.  1.
         13    1    5    5    0    0 -0.12690233892E+03 -0.10996020684E+03  0.24997555698E+03  0.30113656337E+03  0.00000000000E+00 0.  1.
        -13    1    5    5    0    0 -0.97003665562E+02 -0.16427423844E+02  0.98075281282E+02  0.13891843717E+03  0.00000000000E+00 0. -1.
          4    1    6    6  503    0  0.10254512351E+03  0.96467506315E+02  0.32796363992E+03  0.35690563352E+03  0.00000000000E+00 0. -1.
         -4    1    6    6    0  503  0.54354264336E+03  0.37513584661E+03  0.11559264246E+04  0.13312893779E+04  0.00000000000E+00 0.  1.
<mgrwt>
<rscale>  0 0.31691942E+04</rscale>
<asrwt>0</asrwt>
<pdfrwt beam="1">  1        2 0.31549169E+00 0.31691942E+04</pdfrwt>
<pdfrwt beam="2">  1       -1 0.18837492E+00 0.31691942E+04</pdfrwt>
<totfact> 0.10904951E+00</totfact>
</mgrwt>
</event>
<event>
12    7  0.1730932E-007  0.2468857E+04  0.7818608E-02  0.8414165E-01
          2   -1    0    0  501    0  0.00000000000E+00  0.00000000000E+00  0.93519889884E+03  0.93519889884E+03  0.00000000000E+00 0. -1.
         -1   -1    0    0    0  501 -0.00000000000E+00 -0.00000000000E+00 -0.16294007674E+04  0.16294007674E+04  0.00000000000E+00 0.  1.
         24    2    1    2    0    0 -0.12247955777E+03  0.39841635581E+03 -0.13228865170E+04  0.13892816958E+04  0.79611927598E+02 0.  0.
        254    2    1    2    0    0  0.12247955777E+03 -0.39841635581E+03  0.62868464844E+03  0.11753179704E+04  0.90132741532E+03 0.  0.
         23    2    4    4    0    0 -0.30809327550E+03 -0.18259803388E+03 -0.99252637959E+01  0.36950056755E+03  0.90380585155E+02 0.  0.
         23    2    4    4    0    0  0.43057283328E+03 -0.21581832193E+03  0.63860991224E+03  0.80581740280E+03  0.97716701810E+02 0.  0.
          4    1    3    3  502    0  0.51022338367E+01  0.69961115373E+02 -0.27174081305E+03  0.28064864142E+03  0.00000000000E+00 0. -1.
         -3    1    3    3    0  502 -0.12758179161E+03  0.32845524044E+03 -0.10511457039E+04  0.11086330544E+04  0.00000000000E+00 0.  1.
         13    1    5    5    0    0 -0.11418738510E+03 -0.40965449259E+02  0.32653847042E+02  0.12563120900E+03  0.00000000000E+00 0. -1.
        -13    1    5    5    0    0 -0.19390589040E+03 -0.14163258462E+03 -0.42579110837E+02  0.24386935855E+03  0.00000000000E+00 0.  1.
          1    1    6    6  503    0  0.14699286943E+03 -0.11360302088E+03  0.19352745756E+03  0.26826372630E+03  0.00000000000E+00 0. -1.
         -1    1    6    6    0  503  0.28357996384E+03 -0.10221530105E+03  0.44508245468E+03  0.53755367651E+03  0.00000000000E+00 0.  1.
<mgrwt>
<rscale>  0 0.24688571E+04</rscale>
<asrwt>0</asrwt>
<pdfrwt beam="1">  1        2 0.14387675E+00 0.24688571E+04</pdfrwt>
<pdfrwt beam="2">  1       -1 0.25067704E+00 0.24688571E+04</pdfrwt>
<totfact> 0.19539117E+00</totfact>
</mgrwt>
</event>
<event>
12    7  0.1730932E-007  0.1066268E+04  0.7818608E-02  0.9238707E-01
          2   -1    0    0  501    0  0.00000000000E+00  0.00000000000E+00  0.98534154828E+03  0.98534154828E+03  0.00000000000E+00 0. -1.
         -1   -1    0    0    0  501 -0.00000000000E+00 -0.00000000000E+00 -0.28846035410E+03  0.28846035410E+03  0.00000000000E+00 0.  1.
         24    2    1    2    0    0 -0.13704178400E+03  0.36564298476E+02  0.19868340961E+03  0.25115692356E+03  0.59053403897E+02 0.  0.
        254    2    1    2    0    0  0.13704178400E+03 -0.36564298476E+02  0.49819778457E+03  0.10226449788E+04  0.88175071402E+03 0.  0.
         23    2    4    4    0    0  0.28905066282E+03 -0.30873979710E+03  0.54382645869E+03  0.69556249939E+03  0.95861490711E+02 0.  0.
         23    2    4    4    0    0 -0.15200887881E+03  0.27217549862E+03 -0.45628674122E+02  0.32708247943E+03  0.87833770027E+02 0.  0.
          4    1    3    3  502    0 -0.85193564264E+02  0.31601074377E+02  0.16720057859E+03  0.19029609763E+03  0.00000000000E+00 0. -1.
         -1    1    3    3    0  502 -0.51848219738E+02  0.49632240993E+01  0.31482831025E+02  0.60860825929E+02  0.00000000000E+00 0.  1.
         13    1    5    5    0    0  0.19850860157E+03 -0.20192056907E+03  0.43120315785E+03  0.51586213706E+03  0.00000000000E+00 0.  1.
        -13    1    5    5    0    0  0.90542061243E+02 -0.10681922803E+03  0.11262330085E+03  0.17970036234E+03  0.00000000000E+00 0. -1.
          3    1    6    6  503    0 -0.68126483154E+01 -0.62191879882E+01  0.21843039434E+01  0.94795390194E+01  0.00000000000E+00 0. -1.
         -3    1    6    6    0  503 -0.14519623050E+03  0.27839468661E+03 -0.47812978065E+02  0.31760294041E+03  0.00000000000E+00 0.  1.
<mgrwt>
<rscale>  0 0.10662682E+04</rscale>
<asrwt>0</asrwt>
<pdfrwt beam="1">  1        2 0.15159101E+00 0.10662682E+04</pdfrwt>
<pdfrwt beam="2">  1       -1 0.44378516E-01 0.10662682E+04</pdfrwt>
<totfact> 0.14671069E+02</totfact>
</mgrwt>
</event>
<event>
12    7  0.1730932E-007  0.2016189E+04  0.7818608E-02  0.8599089E-01
          2   -1    0    0  501    0  0.00000000000E+00  0.00000000000E+00  0.19568942623E+04  0.19568942623E+04  0.00000000000E+00 0. -1.
         -1   -1    0    0    0  501 -0.00000000000E+00 -0.00000000000E+00 -0.51931998134E+03  0.51931998134E+03  0.00000000000E+00 0.  1.
         24    2    1    2    0    0 -0.67524883086E+03  0.41327425406E+03  0.41866714965E+03  0.90046591285E+03  0.93808770089E+02 0.  0.
        254    2    1    2    0    0  0.67524883086E+03 -0.41327425406E+03  0.10189071313E+04  0.15757483308E+04  0.90446363505E+03 0.  0.
         23    2    4    4    0    0  0.26890727872E+03  0.27149470395E+03  0.24559591892E+03  0.46205765566E+03  0.84613373296E+02 0.  0.
         23    2    4    4    0    0  0.40634155214E+03 -0.68476895801E+03  0.77331121238E+03  0.11136906751E+04  0.90965410112E+02 0.  0.
          4    1    3    3  502    0 -0.11534954340E+03  0.10789949311E+03  0.61485746760E+02  0.16949429144E+03  0.00000000000E+00 0. -1.
         -3    1    3    3    0  502 -0.55989928746E+03  0.30537476095E+03  0.35718140289E+03  0.73097162140E+03  0.00000000000E+00 0.  1.
         13    1    5    5    0    0  0.25908783254E+03  0.26342378683E+03  0.21165024982E+03  0.42581031538E+03  0.00000000000E+00 0.  1.
        -13    1    5    5    0    0  0.98194461774E+01  0.80709171216E+01  0.33945669096E+02  0.36247340272E+02  0.00000000000E+00 0. -1.
          4    1    6    6  503    0  0.53640865935E+02 -0.42911071290E+02  0.75983799619E+02  0.10243163741E+03  0.00000000000E+00 0. -1.
         -4    1    6    6    0  503  0.35270068621E+03 -0.64185788672E+03  0.69732741276E+03  0.10112590377E+04  0.00000000000E+00 0.  1.
<mgrwt>
<rscale>  0 0.20161888E+04</rscale>
<asrwt>0</asrwt>
<pdfrwt beam="1">  1        2 0.30106065E+00 0.20161888E+04</pdfrwt>
<pdfrwt beam="2">  1       -1 0.79895383E-01 0.20161888E+04</pdfrwt>
<totfact> 0.11666835E+01</totfact>
</mgrwt>
</event>
<event>
12    7  0.1730932E-007  0.1803718E+04  0.7818608E-02  0.8704325E-01
         -1   -1    0    0    0  501 -0.00000000000E+00  0.00000000000E+00  0.41435133335E+03  0.41435133335E+03  0.00000000000E+00 0.  1.
          2   -1    0    0  501    0  0.00000000000E+00 -0.00000000000E+00 -0.19629474734E+04  0.19629474734E+04  0.00000000000E+00 0. -1.
         24    2    1    2    0    0  0.51557861299E+03  0.13129721143E+03 -0.11161580871E+04  0.12392057641E+04  0.82230082443E+02 0.  0.
        254    2    1    2    0    0 -0.51557861299E+03 -0.13129721143E+03 -0.43243805293E+03  0.11380930426E+04  0.90840125506E+03 0.  0.
         23    2    4    4    0    0 -0.38867919265E+03 -0.17037955344E+03 -0.70109613280E+03  0.82462165080E+03  0.91456943456E+02 0.  0.
         23    2    4    4    0    0 -0.12689942033E+03  0.39082342009E+02  0.26865807987E+03  0.31347139185E+03  0.91957910433E+02 0.  0.
          2    1    3    3  502    0  0.36333550831E+03  0.53433137921E+02 -0.77305041216E+03  0.85584737633E+03  0.00000000000E+00 0. -1.
         -1    1    3    3    0  502  0.15224310467E+03  0.77864073510E+02 -0.34310767491E+03  0.38335838774E+03  0.00000000000E+00 0.  1.
         13    1    5    5    0    0 -0.34649751392E+03 -0.17241353061E+03 -0.66326443196E+03  0.76792360257E+03  0.00000000000E+00 0.  1.
        -13    1    5    5    0    0 -0.42181678732E+02  0.20339771709E+01 -0.37831700844E+02  0.56698048225E+02  0.00000000000E+00 0. -1.
          3    1    6    6  503    0 -0.67764519626E+02 -0.25628189003E+02  0.10124600229E+03  0.12449733801E+03  0.00000000000E+00 0. -1.
         -3    1    6    6    0  503 -0.59134900709E+02  0.64710531012E+02  0.16741207757E+03  0.18897405384E+03  0.00000000000E+00 0.  1.
<mgrwt>
<rscale>  0 0.18037183E+04</rscale>
<asrwt>0</asrwt>
<pdfrwt beam="1">  1        2 0.30199192E+00 0.18037183E+04</pdfrwt>
<pdfrwt beam="2">  1       -1 0.63746359E-01 0.18037183E+04</pdfrwt>
<totfact> 0.18793335E+01</totfact>
</mgrwt>
</event>
<event>
12    7  0.1730932E-007  0.1193572E+04  0.7818608E-02  0.9118502E-01
          2   -1    0    0  501    0  0.00000000000E+00  0.00000000000E+00  0.31243295383E+04  0.31243295383E+04  0.00000000000E+00 0. -1.
         -1   -1    0    0    0  501 -0.00000000000E+00 -0.00000000000E+00 -0.11399357988E+03  0.11399357988E+03  0.00000000000E+00 0.  1.
         24    2    1    2    0    0 -0.76754559295E+02  0.16257357328E+02  0.12834047926E+04  0.12882059860E+04  0.78684411884E+02 0.  0.
        254    2    1    2    0    0  0.76754559295E+02 -0.16257357328E+02  0.17269311659E+04  0.19501171322E+04  0.90250208514E+03 0.  0.
         23    2    4    4    0    0  0.43919371209E+03  0.13145067342E+03  0.64542129991E+03  0.79695172010E+03  0.91613282408E+02 0.  0.
         23    2    4    4    0    0 -0.36243915280E+03 -0.14770803075E+03  0.10815098660E+04  0.11531654121E+04  0.83349119338E+02 0.  0.
          2    1    3    3  502    0 -0.84020132138E+02 -0.60156530175E+00  0.11930545570E+04  0.11960095821E+04  0.00000000000E+00 0. -1.
         -1    1    3    3    0  502  0.72655728424E+01  0.16858922629E+02  0.90350235547E+02  0.92196403858E+02  0.00000000000E+00 0.  1.
         13    1    5    5    0    0  0.19931900896E+03  0.76960536004E+02  0.37336367596E+03  0.43017604066E+03  0.00000000000E+00 0.  1.
        -13    1    5    5    0    0  0.23987470314E+03  0.54490137419E+02  0.27205762395E+03  0.36677567944E+03  0.00000000000E+00 0. -1.
          2    1    6    6  503    0 -0.43357830689E+02  0.40768400691E+00  0.18717497027E+03  0.19213156217E+03  0.00000000000E+00 0. -1.
         -2    1    6    6    0  503 -0.31908132211E+03 -0.14811571476E+03  0.89433489571E+03  0.96103384996E+03  0.00000000000E+00 0.  1.
<mgrwt>
<rscale>  0 0.11935720E+04</rscale>
<asrwt>0</asrwt>
<pdfrwt beam="1">  1        2 0.48066602E+00 0.11935720E+04</pdfrwt>
<pdfrwt beam="2">  1       -1 0.17537476E-01 0.11935720E+04</pdfrwt>
<totfact> 0.42277516E+01</totfact>
</mgrwt>
</event>
<event>
12    7  0.1730932E-007  0.2302037E+04  0.7818608E-02  0.8477118E-01
         -1   -1    0    0    0  501 -0.00000000000E+00  0.00000000000E+00  0.13633321029E+04  0.13633321029E+04  0.00000000000E+00 0.  1.
          2   -1    0    0  501    0  0.00000000000E+00 -0.00000000000E+00 -0.97176902676E+03  0.97176902676E+03  0.00000000000E+00 0. -1.
         24    2    1    2    0    0 -0.21490048467E+03  0.38282494010E+03  0.10350018856E+04  0.11271238698E+04  0.80263078498E+02 0.  0.
        254    2    1    2    0    0  0.21490048467E+03 -0.38282494010E+03 -0.64343880945E+03  0.12079772598E+04  0.92328674071E+03 0.  0.
         23    2    4    4    0    0  0.30052951810E+03 -0.52539289592E+03 -0.76753201096E+03  0.98176536552E+03  0.91663290088E+02 0.  0.
         23    2    4    4    0    0 -0.85629033424E+02  0.14256795582E+03  0.12409320150E+03  0.22621189427E+03  0.90081879727E+02 0.  0.
          2    1    3    3  502    0 -0.14141541236E+03  0.20079592280E+03  0.49566635507E+03  0.55317488828E+03  0.00000000000E+00 0. -1.
         -1    1    3    3    0  502 -0.73485072313E+02  0.18202901730E+03  0.53933553049E+03  0.57394898156E+03  0.00000000000E+00 0.  1.
         13    1    5    5    0    0  0.19454289134E+03 -0.41754030012E+03 -0.59142413426E+03  0.74964614678E+03  0.00000000000E+00 0.  1.
        -13    1    5    5    0    0  0.10598662675E+03 -0.10785259580E+03 -0.17610787670E+03  0.23211921874E+03  0.00000000000E+00 0. -1.
          1    1    6    6  503    0 -0.21584888810E+02  0.28901003487E+02 -0.11678137841E+02  0.37915093709E+02  0.00000000000E+00 0. -1.
         -1    1    6    6    0  503 -0.64044144614E+02  0.11366695233E+03  0.13577133935E+03  0.18829680056E+03  0.00000000000E+00 0.  1.
<mgrwt>
<rscale>  0 0.23020373E+04</rscale>
<asrwt>0</asrwt>
<pdfrwt beam="1">  1        2 0.14950293E+00 0.23020373E+04</pdfrwt>
<pdfrwt beam="2">  1       -1 0.20974340E+00 0.23020373E+04</pdfrwt>
<totfact> 0.35053121E+00</totfact>
</mgrwt>
</event>
<event>
12    7  0.1730932E-007  0.1924322E+04  0.7818608E-02  0.8642844E-01
         -1   -1    0    0    0  501 -0.00000000000E+00  0.00000000000E+00  0.22269080947E+04  0.22269080947E+04  0.00000000000E+00 0.  1.
          2   -1    0    0  501    0  0.00000000000E+00 -0.00000000000E+00 -0.41571244077E+03  0.41571244077E+03  0.00000000000E+00 0. -1.
         24    2    1    2    0    0  0.55657994761E+03  0.49335085745E+03  0.59638151877E+03  0.95680361648E+03  0.81399864523E+02 0.  0.
        254    2    1    2    0    0 -0.55657994761E+03 -0.49335085745E+03  0.12148141352E+04  0.16858169190E+04  0.90168120461E+03 0.  0.
         23    2    4    4    0    0 -0.70946635137E+03 -0.87135119124E+02  0.68353289901E+03  0.99304002439E+03  0.89309760356E+02 0.  0.
         23    2    4    4    0    0  0.15288640376E+03 -0.40621573833E+03  0.53128123616E+03  0.69277689461E+03  0.96408481430E+02 0.  0.
          4    1    3    3  502    0  0.44127690606E+03  0.34682529081E+03  0.46240112066E+03  0.72720553254E+03  0.00000000000E+00 0. -1.
         -3    1    3    3    0  502  0.11530304155E+03  0.14652556665E+03  0.13398039811E+03  0.22959808394E+03  0.00000000000E+00 0.  1.
         13    1    5    5    0    0 -0.29642102418E+02 -0.45320615960E+01  0.59094777517E+02  0.66267537663E+02  0.00000000000E+00 0.  1.
        -13    1    5    5    0    0 -0.67982424895E+03 -0.82603057528E+02  0.62443812150E+03  0.92677248673E+03  0.00000000000E+00 0. -1.
          4    1    6    6  503    0  0.47124249028E+02 -0.18883038077E+03  0.17199066720E+03  0.25972754408E+03  0.00000000000E+00 0.  1.
         -4    1    6    6    0  503  0.10576215474E+03 -0.21738535756E+03  0.35929056896E+03  0.43304935054E+03  0.00000000000E+00 0. -1.
<mgrwt>
<rscale>  0 0.19243216E+04</rscale>
<asrwt>0</asrwt>
<pdfrwt beam="1">  1        2 0.63955761E-01 0.19243216E+04</pdfrwt>
<pdfrwt beam="2">  1       -1 0.34260124E+00 0.19243216E+04</pdfrwt>
<totfact> 0.14170046E+00</totfact>
</mgrwt>
</event>
<event>
12    7  0.1730932E-007  0.1516970E+04  0.7818608E-02  0.8873246E-01
          2   -1    0    0  501    0  0.00000000000E+00  0.00000000000E+00  0.20232372812E+04  0.20232372812E+04  0.00000000000E+00 0. -1.
         -1   -1    0    0    0  501 -0.00000000000E+00 -0.00000000000E+00 -0.28434593150E+03  0.28434593150E+03  0.00000000000E+00 0.  1.
         24    2    1    2    0    0 -0.19508712802E+03  0.44282581987E+03  0.63070138963E+03  0.79888167030E+03  0.79208496982E+02 0.  0.
        254    2    1    2    0    0  0.19508712802E+03 -0.44282581987E+03  0.11081899601E+04  0.15087015424E+04  0.90218715474E+03 0.  0.
         23    2    4    4    0    0  0.30242732593E+03 -0.21449786741E+03  0.13800393375E+02  0.38193461980E+03  0.90619977657E+02 0.  0.
         23    2    4    4    0    0 -0.10734019791E+03 -0.22832795247E+03  0.10943895667E+04  0.11267669226E+04  0.90882353687E+02 0.  0.
          2    1    3    3  502    0 -0.30146625775E+02  0.56571427400E+02  0.13304874708E+03  0.14768586440E+03  0.00000000000E+00 0. -1.
         -1    1    3    3    0  502 -0.16494050224E+03  0.38625439247E+03  0.49765264255E+03  0.65119580590E+03  0.00000000000E+00 0.  1.
         13    1    5    5    0    0  0.47165285880E+02 -0.70848577767E+02  0.25331614960E+02  0.88801891198E+02  0.00000000000E+00 0.  1.
        -13    1    5    5    0    0  0.25526204005E+03 -0.14364928964E+03 -0.11531221586E+02  0.29313272860E+03  0.00000000000E+00 0. -1.
          4    1    6    6  503    0 -0.11939744561E+03 -0.19443790807E+03  0.86563906014E+03  0.89520546946E+03  0.00000000000E+00 0. -1.
         -4    1    6    6    0  503  0.12057247693E+02 -0.33890044393E+02  0.22875050657E+03  0.23156145316E+03  0.00000000000E+00 0.  1.
<mgrwt>
<rscale>  0 0.15169697E+04</rscale>
<asrwt>0</asrwt>
<pdfrwt beam="1">  1        2 0.31126727E+00 0.15169697E+04</pdfrwt>
<pdfrwt beam="2">  1       -1 0.43745529E-01 0.15169697E+04</pdfrwt>
<totfact> 0.36815274E+01</totfact>
</mgrwt>
</event>
<event>
12    7  0.1730932E-007  0.1172998E+04  0.7818608E-02  0.9136825E-01
          2   -1    0    0  501    0  0.00000000000E+00  0.00000000000E+00  0.16720712044E+04  0.16720712044E+04  0.00000000000E+00 0. -1.
         -1   -1    0    0    0  501 -0.00000000000E+00 -0.00000000000E+00 -0.20572147018E+03  0.20572147018E+03  0.00000000000E+00 0.  1.
         24    2    1    2    0    0 -0.61602724577E+02 -0.23149128156E+03  0.27387777738E+03  0.37247132385E+03  0.79641327450E+02 0.  0.
        254    2    1    2    0    0  0.61602724577E+02  0.23149128156E+03  0.11924719568E+04  0.15053213507E+04  0.88691594415E+03 0.  0.
         23    2    4    4    0    0 -0.34169183651E+03  0.27553668855E+03  0.87350232920E+03  0.98180219677E+03  0.90859543148E+02 0.  0.
         23    2    4    4    0    0  0.40329456109E+03 -0.44045406998E+02  0.31896962759E+03  0.52351915392E+03  0.88001024515E+02 0.  0.
          4    1    3    3  502    0 -0.13407449057E+02 -0.75697964123E+02  0.14685944943E+03  0.16576380591E+03  0.00000000000E+00 0. -1.
         -3    1    3    3    0  502 -0.48195275520E+02 -0.15579331743E+03  0.12701832795E+03  0.20670751794E+03  0.00000000000E+00 0.  1.
         13    1    5    5    0    0 -0.24911959086E+03  0.22317292159E+03  0.57869851209E+03  0.66840009828E+03  0.00000000000E+00 0. -1.
        -13    1    5    5    0    0 -0.92572245650E+02  0.52363766965E+02  0.29480381711E+03  0.31340209849E+03  0.00000000000E+00 0.  1.
          2    1    6    6  503    0  0.12085141875E+03 -0.34781550465E+02  0.56605526614E+02  0.13790941705E+03  0.00000000000E+00 0.  1.
         -2    1    6    6    0  503  0.28244314234E+03 -0.92638565333E+01  0.26236410097E+03  0.38560973687E+03  0.00000000000E+00 0. -1.
<mgrwt>
<rscale>  0 0.11729978E+04</rscale>
<asrwt>0</asrwt>
<pdfrwt beam="1">  1        2 0.25724172E+00 0.11729978E+04</pdfrwt>
<pdfrwt beam="2">  1       -1 0.31649458E-01 0.11729978E+04</pdfrwt>
<totfact> 0.10625553E+02</totfact>
</mgrwt>
</event>
<event>
12    7  0.1730932E-007  0.1434699E+04  0.7818608E-02  0.8929078E-01
         -1   -1    0    0    0  501 -0.00000000000E+00  0.00000000000E+00  0.52162558536E+03  0.52162558536E+03  0.00000000000E+00 0.  1.
          2   -1    0    0  501    0  0.00000000000E+00 -0.00000000000E+00 -0.98651254636E+03  0.98651254636E+03  0.00000000000E+00 0. -1.
         24    2    1    2    0    0  0.58171948673E+01 -0.35618207666E+03  0.10975072587E+03  0.38098754229E+03  0.78783082325E+02 0.  0.
        254    2    1    2    0    0 -0.58171948673E+01  0.35618207666E+03 -0.57463768687E+03  0.11271505894E+04  0.90186499466E+03 0.  0.
         23    2    4    4    0    0  0.42841840270E+03  0.98039887091E+02 -0.19920100625E+03  0.49107846993E+03  0.91229795051E+02 0.  0.
         23    2    4    4    0    0 -0.43423559757E+03  0.25814218957E+03 -0.37543668061E+03  0.63607211950E+03  0.91853665247E+02 0.  0.
          2    1    3    3  502    0 -0.11460967658E+02 -0.38791750975E+01  0.31050448482E+01  0.12491720562E+02  0.00000000000E+00 0. -1.
         -1    1    3    3    0  502  0.17278162525E+02 -0.35230290156E+03  0.10664568102E+03  0.36849582173E+03  0.00000000000E+00 0.  1.
         13    1    5    5    0    0  0.32494037287E+03  0.95314250563E+02 -0.11494272101E+03  0.35760716071E+03  0.00000000000E+00 0.  1.
        -13    1    5    5    0    0  0.10347802983E+03  0.27256365282E+01 -0.84258285243E+02  0.13347130922E+03  0.00000000000E+00 0. -1.
          2    1    6    6  503    0 -0.16167910918E+02 -0.75908407180E+01 -0.97964284196E+01  0.20371357737E+02  0.00000000000E+00 0. -1.
         -2    1    6    6    0  503 -0.41806768665E+03  0.26573303029E+03 -0.36564025219E+03  0.61570076176E+03  0.00000000000E+00 0.  1.
<mgrwt>
<rscale>  0 0.14346988E+04</rscale>
<asrwt>0</asrwt>
<pdfrwt beam="1">  1        2 0.15177116E+00 0.14346988E+04</pdfrwt>
<pdfrwt beam="2">  1       -1 0.80250090E-01 0.14346988E+04</pdfrwt>
<totfact> 0.44121273E+01</totfact>
</mgrwt>
</event>
<event>
12    7  0.1730932E-007  0.2011633E+04  0.7818608E-02  0.8601201E-01
         -1   -1    0    0    0  501 -0.00000000000E+00  0.00000000000E+00  0.77645082563E+03  0.77645082563E+03  0.00000000000E+00 0.  1.
          2   -1    0    0  501    0  0.00000000000E+00 -0.00000000000E+00 -0.13029372812E+04  0.13029372812E+04  0.00000000000E+00 0. -1.
         24    2    1    2    0    0  0.51313239907E+03  0.61765982155E+03 -0.19329440400E+03  0.82878664933E+03  0.68673643790E+02 0.  0.
        254    2    1    2    0    0 -0.51313239907E+03 -0.61765982155E+03 -0.33319205153E+03  0.12506014575E+04  0.89898751275E+03 0.  0.
         23    2    4    4    0    0 -0.46243324418E+03 -0.80485485207E+03 -0.10886428539E+03  0.93878623673E+03  0.88500437390E+02 0.  0.
         23    2    4    4    0    0 -0.50699154884E+02  0.18719503052E+03 -0.22432776614E+03  0.31181522074E+03  0.96402289737E+02 0.  0.
          2    1    3    3  502    0  0.50809132701E+03  0.59587015713E+03 -0.18307918446E+03  0.80419899808E+03  0.00000000000E+00 0. -1.
         -1    1    3    3    0  502  0.50410720550E+01  0.21789664425E+02 -0.10215219545E+02  0.24587651242E+02  0.00000000000E+00 0.  1.
         13    1    5    5    0    0 -0.11858699214E+03 -0.28814779303E+03 -0.45538159114E+02  0.31490593718E+03  0.00000000000E+00 0.  1.
        -13    1    5    5    0    0 -0.34384625204E+03 -0.51670705903E+03 -0.63326126276E+02  0.62388029955E+03  0.00000000000E+00 0. -1.
          3    1    6    6  503    0 -0.69822199232E+02  0.13181791821E+03 -0.19717475604E+03  0.24724277035E+03  0.00000000000E+00 0. -1.
         -3    1    6    6    0  503  0.19123044348E+02  0.55377112306E+02 -0.27153010097E+02  0.64572450393E+02  0.00000000000E+00 0.  1.
<mgrwt>
<rscale>  0 0.20116329E+04</rscale>
<asrwt>0</asrwt>
<pdfrwt beam="1">  1        2 0.20045188E+00 0.20116329E+04</pdfrwt>
<pdfrwt beam="2">  1       -1 0.11945398E+00 0.20116329E+04</pdfrwt>
<totfact> 0.10907455E+01</totfact>
</mgrwt>
</event>
<event>
12    7  0.1730932E-007  0.1508834E+04  0.7818608E-02  0.8878600E-01
         -1   -1    0    0    0  501 -0.00000000000E+00  0.00000000000E+00  0.51503471035E+03  0.51503471035E+03  0.00000000000E+00 0.  1.
          2   -1    0    0  501    0  0.00000000000E+00 -0.00000000000E+00 -0.11050613089E+04  0.11050613089E+04  0.00000000000E+00 0. -1.
         24    2    1    2    0    0 -0.38664945869E+03 -0.93756276448E+01 -0.48680415397E+03  0.62659097664E+03  0.77796281282E+02 0.  0.
        254    2    1    2    0    0  0.38664945869E+03  0.93756276448E+01 -0.10322244462E+03  0.99350504266E+03  0.90929186207E+03 0.  0.
         23    2    4    4    0    0  0.25126401897E+02 -0.40543221584E+03  0.33817058979E+02  0.41920215437E+03  0.97878675121E+02 0.  0.
         23    2    4    4    0    0  0.36152305679E+03  0.41480784348E+03 -0.13703950360E+03  0.57430288829E+03  0.90991836658E+02 0.  0.
          2    1    3    3  502    0 -0.37226954298E+03 -0.13548401096E+02 -0.48494006126E+03  0.61150227703E+03  0.00000000000E+00 0. -1.
         -1    1    3    3    0  502 -0.14379915716E+02  0.41727734507E+01 -0.18640927140E+01  0.15088699610E+02  0.00000000000E+00 0.  1.
         13    1    5    5    0    0  0.11316273816E+02 -0.11216087997E+03  0.53832815199E+02  0.12492434927E+03  0.00000000000E+00 0.  1.
        -13    1    5    5    0    0  0.13810128081E+02 -0.29327133587E+03 -0.20015756221E+02  0.29427780510E+03  0.00000000000E+00 0. -1.
          3    1    6    6  503    0  0.15932148901E+03  0.14509409684E+03 -0.15787292667E+02  0.21606682394E+03  0.00000000000E+00 0. -1.
         -3    1    6    6    0  503  0.20220156779E+03  0.26971374664E+03 -0.12125221093E+03  0.35823606434E+03  0.00000000000E+00 0.  1.
<mgrwt>
<rscale>  0 0.15088339E+04</rscale>
<asrwt>0</asrwt>
<pdfrwt beam="1">  1        2 0.17000943E+00 0.15088339E+04</pdfrwt>
<pdfrwt beam="2">  1       -1 0.79236110E-01 0.15088339E+04</pdfrwt>
<totfact> 0.37930822E+01</totfact>
</mgrwt>
</event>
<event>
12    7  0.1730932E-007  0.1734532E+04  0.7818608E-02  0.8741911E-01
          2   -1    0    0  501    0  0.00000000000E+00  0.00000000000E+00  0.21749442117E+04  0.21749442117E+04  0.00000000000E+00 0. -1.
         -1   -1    0    0    0  501 -0.00000000000E+00 -0.00000000000E+00 -0.34582492582E+03  0.34582492582E+03  0.00000000000E+00 0.  1.
         24    2    1    2    0    0  0.14027607337E+03 -0.10516602107E+03  0.15917209165E+04  0.16034013474E+04  0.81136526857E+02 0.  0.
        254    2    1    2    0    0 -0.14027607337E+03  0.10516602107E+03  0.23739836945E+03  0.91736779022E+03  0.86860140914E+03 0.  0.
         23    2    4    4    0    0  0.34425788209E+03  0.42962467351E+02 -0.17599122509E+02  0.35903692132E+03  0.90766286577E+02 0.  0.
         23    2    4    4    0    0 -0.48453395546E+03  0.62203553714E+02  0.25499749195E+03  0.55833086889E+03  0.89817605006E+02 0.  0.
          2    1    3    3  502    0  0.11372146065E+03 -0.10208396820E+03  0.15027684074E+04  0.15105186504E+04  0.00000000000E+00 0. -1.
         -1    1    3    3    0  502  0.26554612725E+02 -0.30820528653E+01  0.88952509115E+02  0.92882696907E+02  0.00000000000E+00 0.  1.
         13    1    5    5    0    0  0.17127002204E+03  0.44646162972E+02 -0.48007426728E+02  0.18338869469E+03  0.00000000000E+00 0.  1.
        -13    1    5    5    0    0  0.17298786005E+03 -0.16836956206E+01  0.30408304219E+02  0.17564822663E+03  0.00000000000E+00 0. -1.
          3    1    6    6  503    0 -0.24579261950E+03  0.63119038931E+02  0.95163891854E+02  0.27102433689E+03  0.00000000000E+00 0. -1.
         -3    1    6    6    0  503 -0.23874133596E+03 -0.91548521638E+00  0.15983360010E+03  0.28730653200E+03  0.00000000000E+00 0.  1.
<mgrwt>
<rscale>  0 0.17345315E+04</rscale>
<asrwt>0</asrwt>
<pdfrwt beam="1">  1        2 0.33460679E+00 0.17345315E+04</pdfrwt>
<pdfrwt beam="2">  1       -1 0.53203836E-01 0.17345315E+04</pdfrwt>
<totfact> 0.20547184E+01</totfact>
</mgrwt>
</event>
<event>
12    7  0.1730932E-007  0.1353380E+04  0.7818608E-02  0.8988273E-01
          2   -1    0    0  501    0  0.00000000000E+00  0.00000000000E+00  0.17046569775E+04  0.17046569775E+04  0.00000000000E+00 0. -1.
         -1   -1    0    0    0  501 -0.00000000000E+00 -0.00000000000E+00 -0.26862257263E+03  0.26862257263E+03  0.00000000000E+00 0.  1.
         24    2    1    2    0    0 -0.12859887217E+03 -0.21566995827E+03  0.78920821504E+01  0.26362599651E+03  0.79907322906E+02 0.  0.
        254    2    1    2    0    0  0.12859887217E+03  0.21566995827E+03  0.14281423228E+04  0.17096535537E+04  0.90568955975E+03 0.  0.
         23    2    4    4    0    0 -0.35395417992E+03  0.10033885942E+03  0.91746619465E+03  0.99247297288E+03  0.88920950166E+02 0.  0.
         23    2    4    4    0    0  0.48255305209E+03  0.11533109885E+03  0.51067612812E+03  0.71718058078E+03  0.86018411876E+02 0.  0.
          4    1    3    3  502    0  0.18301278604E+01 -0.32464716186E+00  0.11686091174E+02  0.11832983169E+02  0.00000000000E+00 0. -1.
         -3    1    3    3    0  502 -0.13042900003E+03 -0.21534531110E+03 -0.37940090231E+01  0.25179301334E+03  0.00000000000E+00 0.  1.
         13    1    5    5    0    0 -0.32630209163E+03  0.74479283658E+02  0.75851047711E+03  0.82907078261E+03  0.00000000000E+00 0. -1.
        -13    1    5    5    0    0 -0.27652088291E+02  0.25859575762E+02  0.15895571755E+03  0.16340219027E+03  0.00000000000E+00 0.  1.
          4    1    6    6  503    0  0.46229036964E+03  0.11190049708E+03  0.45660090075E+03  0.65933185094E+03  0.00000000000E+00 0. -1.
         -4    1    6    6    0  503  0.20262682450E+02  0.34306017625E+01  0.54075227373E+02  0.57848729839E+02  0.00000000000E+00 0.  1.
<mgrwt>
<rscale>  0 0.13533800E+04</rscale>
<asrwt>0</asrwt>
<pdfrwt beam="1">  1        2 0.26225491E+00 0.13533800E+04</pdfrwt>
<pdfrwt beam="2">  1       -1 0.41326551E-01 0.13533800E+04</pdfrwt>
<totfact> 0.62210809E+01</totfact>
</mgrwt>
</event>
<event>
12    7  0.1730932E-007  0.1654818E+04  0.7818608E-02  0.8787561E-01
          2   -1    0    0  501    0  0.00000000000E+00  0.00000000000E+00  0.23361967680E+04  0.23361967680E+04  0.00000000000E+00 0. -1.
         -1   -1    0    0    0  501 -0.00000000000E+00 -0.00000000000E+00 -0.29304285402E+03  0.29304285402E+03  0.00000000000E+00 0.  1.
         24    2    1    2    0    0 -0.23886810318E+03 -0.28566308054E+03  0.14319401345E+04  0.14819170007E+04  0.83451073691E+02 0.  0.
        254    2    1    2    0    0  0.23886810318E+03  0.28566308054E+03  0.61121377946E+03  0.11473226214E+04  0.89671932453E+03 0.  0.
         23    2    4    4    0    0  0.39285705853E+03  0.52191367951E+03  0.32957962257E+03  0.73837882496E+03  0.99247187565E+02 0.  0.
         23    2    4    4    0    0 -0.15398895535E+03 -0.23625059897E+03  0.28163415689E+03  0.40894379641E+03  0.91598506614E+02 0.  0.
          2    1    3    3  502    0 -0.99336266535E+02 -0.59453437256E+02  0.42262926271E+03  0.43819846959E+03  0.00000000000E+00 0. -1.
         -1    1    3    3    0  502 -0.13953183665E+03 -0.22620964329E+03  0.10093108718E+04  0.10437185311E+04  0.00000000000E+00 0.  1.
         13    1    5    5    0    0  0.38682279580E+03  0.48711703443E+03  0.29315445004E+03  0.68764410283E+03  0.00000000000E+00 0.  1.
        -13    1    5    5    0    0  0.60342627337E+01  0.34796645076E+02  0.36425172535E+02  0.50734722129E+02  0.00000000000E+00 0. -1.
          4    1    6    6  503    0 -0.54319750877E+02 -0.10846060353E+03  0.62686524915E+02  0.13654280742E+03  0.00000000000E+00 0. -1.
         -4    1    6    6    0  503 -0.99669204469E+02 -0.12778999544E+03  0.21894763197E+03  0.27240098898E+03  0.00000000000E+00 0.  1.
<mgrwt>
<rscale>  0 0.16548181E+04</rscale>
<asrwt>0</asrwt>
<pdfrwt beam="1">  1        2 0.35941488E+00 0.16548181E+04</pdfrwt>
<pdfrwt beam="2">  1       -1 0.45083517E-01 0.16548181E+04</pdfrwt>
<totfact> 0.22972595E+01</totfact>
</mgrwt>
</event>
<event>
12    7  0.1730932E-007  0.1228624E+04  0.7818608E-02  0.9088164E-01
          2   -1    0    0  501    0  0.00000000000E+00  0.00000000000E+00  0.15470131813E+04  0.15470131813E+04  0.00000000000E+00 0. -1.
         -1   -1    0    0    0  501 -0.00000000000E+00 -0.00000000000E+00 -0.24394073048E+03  0.24394073048E+03  0.00000000000E+00 0.  1.
         24    2    1    2    0    0  0.12984956184E+03  0.12944339575E+03  0.60666808641E+03  0.63877466847E+03  0.79814839479E+02 0.  0.
        254    2    1    2    0    0 -0.12984956184E+03 -0.12944339575E+03  0.69640436440E+03  0.11521792433E+04  0.89940061625E+03 0.  0.
         23    2    4    4    0    0  0.37768084410E+03 -0.38814339478E+02  0.24331817321E+03  0.46003649144E+03  0.90997071885E+02 0.  0.
         23    2    4    4    0    0 -0.50753040594E+03 -0.90629056269E+02  0.45308619119E+03  0.69214275186E+03  0.89295876258E+02 0.  0.
          2    1    3    3  502    0  0.27743287697E+02  0.49761127629E+02  0.30811764402E+03  0.31334061721E+03  0.00000000000E+00 0. -1.
         -1    1    3    3    0  502  0.10210627414E+03  0.79682268118E+02  0.29855044238E+03  0.32543405126E+03  0.00000000000E+00 0.  1.
         13    1    5    5    0    0  0.72249590589E+02  0.45416308090E+01  0.90129321905E+02  0.11560244123E+03  0.00000000000E+00 0. -1.
        -13    1    5    5    0    0  0.30543125351E+03 -0.43355970287E+02  0.15318885131E+03  0.34443405021E+03  0.00000000000E+00 0.  1.
          1    1    6    6  503    0 -0.11673535569E+03 -0.17796251766E+02  0.57545635377E+02  0.13135962087E+03  0.00000000000E+00 0. -1.
         -1    1    6    6    0  503 -0.39079505025E+03 -0.72832804502E+02  0.39554055581E+03  0.56078313099E+03  0.00000000000E+00 0.  1.
<mgrwt>
<rscale>  0 0.12286245E+04</rscale>
<asrwt>0</asrwt>
<pdfrwt beam="1">  1        2 0.23800202E+00 0.12286245E+04</pdfrwt>
<pdfrwt beam="2">  1       -1 0.37529344E-01 0.12286245E+04</pdfrwt>
<totfact> 0.91652753E+01</totfact>
</mgrwt>
</event>
<event>
12    7  0.1730932E-007  0.1988977E+04  0.7818608E-02  0.8611792E-01
         -3   -1    0    0    0  501 -0.00000000000E+00  0.00000000000E+00  0.16457030503E+04  0.16457030503E+04  0.00000000000E+00 0.  1.
          4   -1    0    0  501    0  0.00000000000E+00 -0.00000000000E+00 -0.60096354761E+03  0.60096354761E+03  0.00000000000E+00 0. -1.
         24    2    1    2    0    0  0.36200657818E+03  0.30445945213E+03 -0.29643504989E+03  0.56380353268E+03  0.79097180844E+02 0.  0.
        254    2    1    2    0    0 -0.36200657818E+03 -0.30445945213E+03  0.13411745525E+04  0.16828630652E+04  0.89974140463E+03 0.  0.
         23    2    4    4    0    0 -0.63643551603E+03 -0.90967345027E+02  0.95721482303E+03  0.11566268561E+04  0.90555192266E+02 0.  0.
         23    2    4    4    0    0  0.27442893785E+03 -0.21349210710E+03  0.38395972951E+03  0.52623620912E+03  0.92786594829E+02 0.  0.
          4    1    3    3  502    0  0.28260635050E+03  0.22533642160E+03 -0.26242317888E+03  0.44666405391E+03  0.00000000000E+00 0. -1.
         -3    1    3    3    0  502  0.79400227681E+02  0.79123030527E+02 -0.34011871011E+02  0.11713947876E+03  0.00000000000E+00 0.  1.
         13    1    5    5    0    0 -0.56064911391E+03 -0.10525741818E+03  0.86838703973E+03  0.10389911471E+04  0.00000000000E+00 0. -1.
        -13    1    5    5    0    0 -0.75786402124E+02  0.14290073156E+02  0.88827783292E+02  0.11763570896E+03  0.00000000000E+00 0.  1.
          1    1    6    6  503    0  0.92531723286E+02 -0.67825539470E+02  0.19487618068E+03  0.22613966794E+03  0.00000000000E+00 0. -1.
         -1    1    6    6    0  503  0.18189721457E+03 -0.14566656763E+03  0.18908354883E+03  0.30009654119E+03  0.00000000000E+00 0.  1.
<mgrwt>
<rscale>  0 0.19889772E+04</rscale>
<asrwt>0</asrwt>
<pdfrwt beam="1">  1        4 0.92455931E-01 0.19889772E+04</pdfrwt>
<pdfrwt beam="2">  1       -3 0.25318508E+00 0.19889772E+04</pdfrwt>
<totfact> 0.14829395E-01</totfact>
</mgrwt>
</event>
<event>
12    7  0.1730932E-007  0.2405258E+04  0.7818608E-02  0.8437538E-01
          2   -1    0    0  501    0  0.00000000000E+00  0.00000000000E+00  0.83518484425E+03  0.83518484425E+03  0.00000000000E+00 0. -1.
         -1   -1    0    0    0  501 -0.00000000000E+00 -0.00000000000E+00 -0.17317323062E+04  0.17317323062E+04  0.00000000000E+00 0.  1.
         24    2    1    2    0    0 -0.96759564012E+02 -0.47534881549E+02 -0.14739668425E+04  0.14800417535E+04  0.79519564579E+02 0.  0.
        254    2    1    2    0    0  0.96759564012E+02  0.47534881549E+02  0.57741938051E+03  0.10868753970E+04  0.91447417098E+03 0.  0.
         23    2    4    4    0    0  0.45947278408E+03 -0.13450982920E+03  0.41596397995E+03  0.64070340491E+03  0.90921323104E+02 0.  0.
         23    2    4    4    0    0 -0.36271322006E+03  0.18204471075E+03  0.16145540056E+03  0.44617199207E+03  0.91106769344E+02 0.  0.
          2    1    3    3  502    0 -0.54058398930E+02 -0.28122387159E+01 -0.33045135211E+03  0.33485566338E+03  0.00000000000E+00 0. -1.
         -1    1    3    3    0  502 -0.42701165082E+02 -0.44722642833E+02 -0.11435154904E+04  0.11451860901E+04  0.00000000000E+00 0.  1.
         13    1    5    5    0    0  0.35037482469E+03 -0.12138295530E+03  0.36228619077E+03  0.51840874186E+03  0.00000000000E+00 0. -1.
        -13    1    5    5    0    0  0.10909795939E+03 -0.13126873898E+02  0.53677789183E+02  0.12229466306E+03  0.00000000000E+00 0.  1.
          1    1    6    6  503    0 -0.17121302483E+03  0.79302977643E+02  0.12363598797E+03  0.22558528245E+03  0.00000000000E+00 0. -1.
         -1    1    6    6    0  503 -0.19150019523E+03  0.10274173310E+03  0.37819412586E+02  0.22058670962E+03  0.00000000000E+00 0.  1.
<mgrwt>
<rscale>  0 0.24052581E+04</rscale>
<asrwt>0</asrwt>
<pdfrwt beam="1">  1        2 0.12848998E+00 0.24052581E+04</pdfrwt>
<pdfrwt beam="2">  1       -1 0.26642035E+00 0.24052581E+04</pdfrwt>
<totfact> 0.18166607E+00</totfact>
</mgrwt>
</event>
<event>
12    7  0.1730932E-007  0.1704497E+04  0.7818608E-02  0.8758803E-01
          2   -1    0    0  501    0  0.00000000000E+00  0.00000000000E+00  0.18938885804E+04  0.18938885804E+04  0.00000000000E+00 0. -1.
         -1   -1    0    0    0  501 -0.00000000000E+00 -0.00000000000E+00 -0.38351143365E+03  0.38351143365E+03  0.00000000000E+00 0.  1.
         24    2    1    2    0    0  0.34762388613E+03  0.16331632733E+03 -0.85488682115E+02  0.40170275763E+03  0.80883878080E+02 0.  0.
        254    2    1    2    0    0 -0.34762388613E+03 -0.16331632733E+03  0.15958658288E+04  0.18756972564E+04  0.90771023184E+03 0.  0.
         23    2    4    4    0    0 -0.53443055823E+03 -0.36410199520E+03  0.82722260464E+03  0.10541109752E+04  0.93093640415E+02 0.  0.
         23    2    4    4    0    0  0.18680667209E+03  0.20078566787E+03  0.76864322418E+03  0.82158628119E+03  0.94762831403E+02 0.  0.
          4    1    3    3  502    0  0.14334624652E+02 -0.75633499302E+01 -0.11628698266E+02  0.19947740460E+02  0.00000000000E+00 0. -1.
         -3    1    3    3    0  502  0.33328926148E+03  0.17087967726E+03 -0.73859983850E+02  0.38175501717E+03  0.00000000000E+00 0.  1.
         13    1    5    5    0    0 -0.13230816437E+03 -0.12150211218E+03  0.17852205827E+03  0.25325548151E+03  0.00000000000E+00 0. -1.
        -13    1    5    5    0    0 -0.40212239386E+03 -0.24259988301E+03  0.64870054637E+03  0.80085549367E+03  0.00000000000E+00 0.  1.
          1    1    6    6  503    0  0.10788420627E+03  0.97088966598E+02  0.53190969493E+03  0.55135577711E+03  0.00000000000E+00 0. -1.
         -1    1    6    6    0  503  0.78922465827E+02  0.10369670127E+03  0.23673352925E+03  0.27023050408E+03  0.00000000000E+00 0.  1.
<mgrwt>
<rscale>  0 0.17044975E+04</rscale>
<asrwt>0</asrwt>
<pdfrwt beam="1">  1        2 0.29136747E+00 0.17044975E+04</pdfrwt>
<pdfrwt beam="2">  1       -1 0.59001760E-01 0.17044975E+04</pdfrwt>
<totfact> 0.24141940E+01</totfact>
</mgrwt>
</event>
<event>
12    7  0.1730932E-007  0.1842329E+04  0.7818608E-02  0.8684108E-01
          2   -1    0    0  501    0  0.00000000000E+00  0.00000000000E+00  0.17670861711E+04  0.17670861711E+04  0.00000000000E+00 0. -1.
         -1   -1    0    0    0  501 -0.00000000000E+00 -0.00000000000E+00 -0.48019379322E+03  0.48019379322E+03  0.00000000000E+00 0.  1.
         24    2    1    2    0    0  0.33767393390E+03  0.55758137435E+03  0.79616995413E+03  0.10320695500E+04  0.79751398365E+02 0.  0.
        254    2    1    2    0    0 -0.33767393390E+03 -0.55758137435E+03  0.49072242374E+03  0.12152104143E+04  0.90055937017E+03 0.  0.
         23    2    4    4    0    0 -0.43618262737E+03 -0.70904317934E+02  0.54557825993E+03  0.70799874426E+03  0.91235286122E+02 0.  0.
         23    2    4    4    0    0  0.98508693475E+02 -0.48667705642E+03 -0.54855836193E+02  0.50721167004E+03  0.87726823297E+02 0.  0.
          2    1    3    3  502    0  0.35577197904E+02  0.30177853368E+02  0.81385612984E+02  0.93808623513E+02  0.00000000000E+00 0. -1.
         -1    1    3    3    0  502  0.30209673600E+03  0.52740352098E+03  0.71478434115E+03  0.93826092650E+03  0.00000000000E+00 0.  1.
         13    1    5    5    0    0 -0.34231599375E+03 -0.23339715643E+02  0.38170492944E+03  0.51324812232E+03  0.00000000000E+00 0. -1.
        -13    1    5    5    0    0 -0.93866633620E+02 -0.47564602291E+02  0.16387333049E+03  0.19475062193E+03  0.00000000000E+00 0.  1.
          1    1    6    6  503    0  0.97225600400E+02 -0.39068894243E+03 -0.13903839939E+02  0.40284486329E+03  0.00000000000E+00 0. -1.
         -1    1    6    6    0  503  0.12830930750E+01 -0.95988113985E+02 -0.40951996254E+02  0.10436680675E+03  0.00000000000E+00 0.  1.
<mgrwt>
<rscale>  0 0.18423288E+04</rscale>
<asrwt>0</asrwt>
<pdfrwt beam="1">  1        2 0.27185941E+00 0.18423288E+04</pdfrwt>
<pdfrwt beam="2">  1       -1 0.73875969E-01 0.18423288E+04</pdfrwt>
<totfact> 0.17795422E+01</totfact>
</mgrwt>
</event>
<event>
12    7  0.1730932E-007  0.3192163E+04  0.7818608E-02  0.8190890E-01
          2   -1    0    0  501    0  0.00000000000E+00  0.00000000000E+00  0.18410956781E+04  0.18410956781E+04  0.00000000000E+00 0. -1.
         -1   -1    0    0    0  501 -0.00000000000E+00 -0.00000000000E+00 -0.13836742232E+04  0.13836742232E+04  0.00000000000E+00 0.  1.
         24    2    1    2    0    0 -0.10473431688E+04  0.77114077411E+03 -0.43820972629E+03  0.13747737677E+04  0.79933355419E+02 0.  0.
        254    2    1    2    0    0  0.10473431688E+04 -0.77114077411E+03  0.89563118119E+03  0.18499961336E+04  0.96371400053E+03 0.  0.
         23    2    4    4    0    0  0.78109006740E+03 -0.45481939398E+03  0.10597055942E+04  0.13958221686E+04  0.91548924011E+02 0.  0.
         23    2    4    4    0    0  0.26625310143E+03 -0.31632138013E+03 -0.16407441303E+03  0.45417396496E+03  0.91671412609E+02 0.  0.
          4    1    3    3  502    0 -0.11682167526E+03  0.11889392037E+03 -0.59129579574E+02  0.17685976165E+03  0.00000000000E+00 0. -1.
         -3    1    3    3    0  502 -0.93052149357E+03  0.65224685374E+03 -0.37908014672E+03  0.11979140060E+04  0.00000000000E+00 0.  1.
         13    1    5    5    0    0  0.17854958027E+02  0.23117096874E+01  0.13585672289E+02  0.22554689521E+02  0.00000000000E+00 0. -1.
        -13    1    5    5    0    0  0.76323510937E+03 -0.45713110367E+03  0.10461199219E+04  0.13732674791E+04  0.00000000000E+00 0.  1.
          2    1    6    6  503    0  0.12643084921E+03 -0.82363157060E+02 -0.61929848982E+02  0.16310657702E+03  0.00000000000E+00 0. -1.
         -2    1    6    6    0  503  0.13982225222E+03 -0.23395822307E+03 -0.10214456405E+03  0.29106738794E+03  0.00000000000E+00 0.  1.
<mgrwt>
<rscale>  0 0.31921633E+04</rscale>
<asrwt>0</asrwt>
<pdfrwt beam="1">  1        2 0.28324549E+00 0.31921633E+04</pdfrwt>
<pdfrwt beam="2">  1       -1 0.21287296E+00 0.31921633E+04</pdfrwt>
<totfact> 0.96484989E-01</totfact>
</mgrwt>
</event>
<event>
12    7  0.1730932E-007  0.1908982E+04  0.7818608E-02  0.8650398E-01
          2   -1    0    0  501    0  0.00000000000E+00  0.00000000000E+00  0.93129076508E+03  0.93129076508E+03  0.00000000000E+00 0. -1.
         -1   -1    0    0    0  501 -0.00000000000E+00 -0.00000000000E+00 -0.97826967217E+03  0.97826967217E+03  0.00000000000E+00 0.  1.
         24    2    1    2    0    0  0.42371933243E+03 -0.30252406203E+02 -0.62943644142E+03  0.76379417400E+03  0.82085477947E+02 0.  0.
        254    2    1    2    0    0 -0.42371933243E+03  0.30252406203E+02  0.58245753433E+03  0.11457662632E+04  0.89054492864E+03 0.  0.
         23    2    4    4    0    0 -0.53633931399E+03 -0.12356853132E+03  0.35495289597E+02  0.55947260986E+03  0.93918283309E+02 0.  0.
         23    2    4    4    0    0  0.11261998156E+03  0.15382093752E+03  0.54696224474E+03  0.58629365338E+03  0.90710582445E+02 0.  0.
          4    1    3    3  502    0  0.32270712371E+03 -0.16018095939E+02 -0.41171717877E+03  0.52336173187E+03  0.00000000000E+00 0. -1.
         -3    1    3    3    0  502  0.10101220872E+03 -0.14234310263E+02 -0.21771926265E+03  0.24043244213E+03  0.00000000000E+00 0.  1.
         13    1    5    5    0    0 -0.64532962649E+02 -0.41262665452E+02 -0.14434871358E+02  0.77945342001E+02  0.00000000000E+00 0.  1.
        -13    1    5    5    0    0 -0.47180635134E+03 -0.82305865866E+02  0.49930160955E+02  0.48152726786E+03  0.00000000000E+00 0. -1.
          2    1    6    6  503    0  0.50272037579E+01  0.11149811285E+02  0.15544234053E+03  0.15592277671E+03  0.00000000000E+00 0.  1.
         -2    1    6    6    0  503  0.10759277780E+03  0.14267112624E+03  0.39151990421E+03  0.43037087667E+03  0.00000000000E+00 0. -1.
<mgrwt>
<rscale>  0 0.19089825E+04</rscale>
<asrwt>0</asrwt>
<pdfrwt beam="1">  1        2 0.14327550E+00 0.19089825E+04</pdfrwt>
<pdfrwt beam="2">  1       -1 0.15050303E+00 0.19089825E+04</pdfrwt>
<totfact> 0.10314972E+01</totfact>
</mgrwt>
</event>
<event>
12    7  0.1730932E-007  0.2313482E+04  0.7818608E-02  0.8472624E-01
         -1   -1    0    0    0  501 -0.00000000000E+00  0.00000000000E+00  0.88506213339E+03  0.88506213339E+03  0.00000000000E+00 0.  1.
          2   -1    0    0  501    0  0.00000000000E+00 -0.00000000000E+00 -0.15118150384E+04  0.15118150384E+04  0.00000000000E+00 0. -1.
         24    2    1    2    0    0 -0.67130618620E+03 -0.74689349225E+02  0.46957061879E+03  0.82646630974E+03  0.79495286619E+02 0.  0.
        254    2    1    2    0    0  0.67130618620E+03  0.74689349225E+02 -0.10963235238E+04  0.15704108621E+04  0.89890739918E+03 0.  0.
         23    2    4    4    0    0  0.76377270900E+03  0.20951954832E+03 -0.11265769305E+04  0.13801014401E+04  0.90869205295E+02 0.  0.
         23    2    4    4    0    0 -0.92466522801E+02 -0.13483019910E+03  0.30253406665E+02  0.19030942199E+03  0.92591398390E+02 0.  0.
          2    1    3    3  502    0 -0.92305671032E+02  0.13510991283E+01  0.35782597437E+02  0.99007861571E+02  0.00000000000E+00 0. -1.
         -1    1    3    3    0  502 -0.57900051517E+03 -0.76040448354E+02  0.43378802135E+03  0.72745844817E+03  0.00000000000E+00 0.  1.
         13    1    5    5    0    0  0.19797633004E+03  0.90553708751E+02 -0.27367935575E+03  0.34970700763E+03  0.00000000000E+00 0.  1.
        -13    1    5    5    0    0  0.56579637896E+03  0.11896583957E+03 -0.85289757472E+03  0.10303944324E+04  0.00000000000E+00 0. -1.
          2    1    6    6  503    0 -0.69661819458E+02 -0.42921718168E+02  0.46676336113E+02  0.94200442322E+02  0.00000000000E+00 0. -1.
         -2    1    6    6    0  503 -0.22804703343E+02 -0.91908480928E+02 -0.16422929447E+02  0.96108979667E+02  0.00000000000E+00 0.  1.
<mgrwt>
<rscale>  0 0.23134824E+04</rscale>
<asrwt>0</asrwt>
<pdfrwt beam="1">  1        2 0.23258693E+00 0.23134824E+04</pdfrwt>
<pdfrwt beam="2">  1       -1 0.13616341E+00 0.23134824E+04</pdfrwt>
<totfact> 0.58106208E+00</totfact>
</mgrwt>
</event>
<event>
12    7  0.1730932E-007  0.1810823E+04  0.7818608E-02  0.8700565E-01
          2   -1    0    0  501    0  0.00000000000E+00  0.00000000000E+00  0.32295668419E+04  0.32295668419E+04  0.00000000000E+00 0. -1.
         -1   -1    0    0    0  501 -0.00000000000E+00 -0.00000000000E+00 -0.25383290220E+03  0.25383290220E+03  0.00000000000E+00 0.  1.
         24    2    1    2    0    0 -0.32990509132E+03 -0.92236099927E+01  0.18164446425E+02  0.34033413655E+03  0.81085961332E+02 0.  0.
        254    2    1    2    0    0  0.32990509132E+03  0.92236099927E+01  0.29575694933E+04  0.31430656076E+04  0.10112970195E+04 0.  0.
         23    2    4    4    0    0 -0.30366091065E+03 -0.21763578527E+03  0.11037923379E+04  0.11688502188E+04  0.90983654008E+02 0.  0.
         23    2    4    4    0    0  0.63356600198E+03  0.22685939526E+03  0.18537771554E+04  0.19742153887E+04  0.90363681709E+02 0.  0.
          2    1    3    3  502    0 -0.14593690360E+03  0.33124232857E+02  0.23481479044E+02  0.15147994749E+03  0.00000000000E+00 0. -1.
         -1    1    3    3    0  502 -0.18396818773E+03 -0.42347842850E+02 -0.53170326187E+01  0.18885418906E+03  0.00000000000E+00 0.  1.
         13    1    5    5    0    0 -0.26937829714E+03 -0.22310595167E+03  0.10000187874E+04  0.10594236677E+04  0.00000000000E+00 0.  1.
        -13    1    5    5    0    0 -0.34282613516E+02  0.54701664028E+01  0.10377355045E+03  0.10942655109E+03  0.00000000000E+00 0. -1.
          1    1    6    6  503    0  0.88751947684E+02  0.78392692428E+01  0.30953119157E+03  0.32209924079E+03  0.00000000000E+00 0. -1.
         -1    1    6    6    0  503  0.54481405429E+03  0.21902012602E+03  0.15442459639E+04  0.16521161479E+04  0.00000000000E+00 0.  1.
<mgrwt>
<rscale>  0 0.18108234E+04</rscale>
<asrwt>0</asrwt>
<pdfrwt beam="1">  1        2 0.49685641E+00 0.18108234E+04</pdfrwt>
<pdfrwt beam="2">  1       -1 0.39051218E-01 0.18108234E+04</pdfrwt>
<totfact> 0.85228185E+00</totfact>
</mgrwt>
</event>
<event>
12    7  0.1730932E-007  0.1527661E+04  0.7818608E-02  0.8866264E-01
         -1   -1    0    0    0  501 -0.00000000000E+00  0.00000000000E+00  0.70768102745E+03  0.70768102745E+03  0.00000000000E+00 0.  1.
          2   -1    0    0  501    0  0.00000000000E+00 -0.00000000000E+00 -0.82443459824E+03  0.82443459824E+03  0.00000000000E+00 0. -1.
         24    2    1    2    0    0 -0.20141362653E+03 -0.44146357100E+03  0.23350326263E+02  0.49211891610E+03  0.78601885342E+02 0.  0.
        254    2    1    2    0    0  0.20141362653E+03  0.44146357100E+03 -0.14010389706E+03  0.10399967096E+04  0.90912404023E+03 0.  0.
         23    2    4    4    0    0  0.54421024628E+03  0.31277194465E+03 -0.18291745638E+03  0.66035028550E+03  0.92804214324E+02 0.  0.
         23    2    4    4    0    0 -0.34279661974E+03  0.12869162635E+03  0.42813559329E+02  0.37964642409E+03  0.90704736727E+02 0.  0.
          4    1    3    3  502    0 -0.13837842579E+02 -0.31431711788E+02  0.22793270324E+02  0.41218582766E+02  0.00000000000E+00 0. -1.
         -3    1    3    3    0  502 -0.18757578395E+03 -0.41003185921E+03  0.55705593951E+00  0.45090033334E+03  0.00000000000E+00 0.  1.
         13    1    5    5    0    0  0.46462608286E+03  0.28349711836E+03 -0.18683807954E+03  0.57546197178E+03  0.00000000000E+00 0. -1.
        -13    1    5    5    0    0  0.79584163414E+02  0.29274826284E+02  0.39206231560E+01  0.84888313719E+02  0.00000000000E+00 0.  1.
          2    1    6    6  503    0 -0.29756758027E+03  0.10899093502E+03  0.68213464266E+02  0.32415824138E+03  0.00000000000E+00 0. -1.
         -2    1    6    6    0  503 -0.45229039471E+02  0.19700691329E+02 -0.25399904938E+02  0.55488182716E+02  0.00000000000E+00 0.  1.
<mgrwt>
<rscale>  0 0.15276606E+04</rscale>
<asrwt>0</asrwt>
<pdfrwt beam="1">  1        2 0.12683609E+00 0.15276606E+04</pdfrwt>
<pdfrwt beam="2">  1       -1 0.10887400E+00 0.15276606E+04</pdfrwt>
<totfact> 0.28485059E+01</totfact>
</mgrwt>
</event>
<event>
12    7  0.1730932E-007  0.2051939E+04  0.7818608E-02  0.8582715E-01
          2   -1    0    0  501    0  0.00000000000E+00  0.00000000000E+00  0.12871018225E+04  0.12871018225E+04  0.00000000000E+00 0. -1.
         -1   -1    0    0    0  501 -0.00000000000E+00 -0.00000000000E+00 -0.81781668708E+03  0.81781668708E+03  0.00000000000E+00 0.  1.
         24    2    1    2    0    0 -0.12824667430E+03 -0.22637290530E+03  0.99587115801E+03  0.10334444025E+04  0.92499015649E+02 0.  0.
        254    2    1    2    0    0  0.12824667430E+03  0.22637290530E+03 -0.52658602255E+03  0.10714741072E+04  0.89614285774E+03 0.  0.
         23    2    4    4    0    0 -0.33149131149E+03  0.26773839422E+03 -0.38233292210E+03  0.57959862993E+03  0.90475251655E+02 0.  0.
         23    2    4    4    0    0  0.45973798580E+03 -0.41365488913E+02 -0.14425310045E+03  0.49187547724E+03  0.89790917509E+02 0.  0.
          2    1    3    3  502    0 -0.13456062121E+03 -0.16732122630E+03  0.82763536818E+03  0.85503406729E+03  0.00000000000E+00 0. -1.
         -1    1    3    3    0  502  0.63139469093E+01 -0.59051679001E+02  0.16823578983E+03  0.17841033517E+03  0.00000000000E+00 0.  1.
         13    1    5    5    0    0 -0.18107899588E+03  0.13730451579E+03 -0.14391487926E+03  0.26898629199E+03  0.00000000000E+00 0.  1.
        -13    1    5    5    0    0 -0.15041231561E+03  0.13043387843E+03 -0.23841804284E+03  0.31061233794E+03  0.00000000000E+00 0. -1.
          4    1    6    6  503    0  0.20102814632E+03  0.45020303956E+01 -0.22633424703E+02  0.20234835261E+03  0.00000000000E+00 0. -1.
         -4    1    6    6    0  503  0.25870983948E+03 -0.45867519309E+02 -0.12161967574E+03  0.28952712463E+03  0.00000000000E+00 0.  1.
<mgrwt>
<rscale>  0 0.20519389E+04</rscale>
<asrwt>0</asrwt>
<pdfrwt beam="1">  1        2 0.19801567E+00 0.20519389E+04</pdfrwt>
<pdfrwt beam="2">  1       -1 0.12581795E+00 0.20519389E+04</pdfrwt>
<totfact> 0.97677303E+00</totfact>
</mgrwt>
</event>
<event>
12    7  0.1730932E-007  0.1975156E+04  0.7818608E-02  0.8618325E-01
         -1   -1    0    0    0  501 -0.00000000000E+00  0.00000000000E+00  0.71933488579E+03  0.71933488579E+03  0.00000000000E+00 0.  1.
          2   -1    0    0  501    0  0.00000000000E+00 -0.00000000000E+00 -0.13558504825E+04  0.13558504825E+04  0.00000000000E+00 0. -1.
         24    2    1    2    0    0  0.57771670306E+03 -0.51556838468E+03 -0.14910347318E+03  0.79159111173E+03  0.69406730103E+02 0.  0.
        254    2    1    2    0    0 -0.57771670306E+03  0.51556838468E+03 -0.48741212356E+03  0.12835942566E+04  0.90026456618E+03 0.  0.
         23    2    4    4    0    0 -0.23431469056E+03 -0.24138730826E+03 -0.18193199447E+03  0.39327760865E+03  0.91634164207E+02 0.  0.
         23    2    4    4    0    0 -0.34340201249E+03  0.75695569293E+03 -0.30548012909E+03  0.89031664795E+03  0.91862729691E+02 0.  0.
          2    1    3    3  502    0  0.27664195986E+03 -0.23404021521E+03 -0.10367732751E+03  0.37690129283E+03  0.00000000000E+00 0. -1.
         -1    1    3    3    0  502  0.30107474319E+03 -0.28152816947E+03 -0.45426145669E+02  0.41468981890E+03  0.00000000000E+00 0.  1.
         13    1    5    5    0    0 -0.21097377957E+03 -0.16222907181E+03 -0.13952073513E+03  0.30049000472E+03  0.00000000000E+00 0. -1.
        -13    1    5    5    0    0 -0.23340910993E+02 -0.79158236446E+02 -0.42411259339E+02  0.92787603924E+02  0.00000000000E+00 0.  1.
          1    1    6    6  503    0 -0.13115871099E+03  0.34433052267E+03 -0.93296623212E+02  0.38009258900E+03  0.00000000000E+00 0. -1.
         -1    1    6    6    0  503 -0.21224330150E+03  0.41262517026E+03 -0.21218350588E+03  0.51022405895E+03  0.00000000000E+00 0.  1.
<mgrwt>
<rscale>  0 0.19751562E+04</rscale>
<asrwt>0</asrwt>
<pdfrwt beam="1">  1        2 0.20859238E+00 0.19751562E+04</pdfrwt>
<pdfrwt beam="2">  1       -1 0.11066691E+00 0.19751562E+04</pdfrwt>
<totfact> 0.12247225E+01</totfact>
</mgrwt>
</event>
<event>
12    7  0.1730932E-007  0.1586937E+04  0.7818608E-02  0.8828614E-01
         -1   -1    0    0    0  501 -0.00000000000E+00  0.00000000000E+00  0.55860461384E+03  0.55860461384E+03  0.00000000000E+00 0.  1.
          2   -1    0    0  501    0  0.00000000000E+00 -0.00000000000E+00 -0.11270797595E+04  0.11270797595E+04  0.00000000000E+00 0. -1.
         24    2    1    2    0    0 -0.40755094134E+01 -0.31608840493E+03 -0.64423688729E+03  0.72176949858E+03  0.77340497966E+02 0.  0.
        254    2    1    2    0    0  0.40755094134E+01  0.31608840493E+03  0.75761741671E+02  0.96391487473E+03  0.90744892677E+03 0.  0.
         23    2    4    4    0    0  0.34807334001E+01 -0.18072269228E+03  0.33892947612E+03  0.39471272567E+03  0.90841284771E+02 0.  0.
         23    2    4    4    0    0  0.59477601336E+00  0.49681109721E+03 -0.26316773445E+03  0.56920214905E+03  0.88950604030E+02 0.  0.
          2    1    3    3  502    0  0.29010954249E+02 -0.23690863084E+03 -0.49724868549E+03  0.55156467441E+03  0.00000000000E+00 0. -1.
         -1    1    3    3    0  502 -0.33086463663E+02 -0.79179774098E+02 -0.14698820180E+03  0.17020482417E+03  0.00000000000E+00 0.  1.
         13    1    5    5    0    0  0.29163640345E+02 -0.14533666692E+03  0.19920047281E+03  0.24830242253E+03  0.00000000000E+00 0.  1.
        -13    1    5    5    0    0 -0.25682906945E+02 -0.35386025360E+02  0.13972900331E+03  0.14641030314E+03  0.00000000000E+00 0. -1.
          3    1    6    6  503    0  0.28373422107E+02  0.16860122997E+03 -0.12606742828E+03  0.21242509810E+03  0.00000000000E+00 0. -1.
         -3    1    6    6    0  503 -0.27778646094E+02  0.32820986725E+03 -0.13710030617E+03  0.35677705095E+03  0.00000000000E+00 0.  1.
<mgrwt>
<rscale>  0 0.15869366E+04</rscale>
<asrwt>0</asrwt>
<pdfrwt beam="1">  1        2 0.17339688E+00 0.15869366E+04</pdfrwt>
<pdfrwt beam="2">  1       -1 0.85939172E-01 0.15869366E+04</pdfrwt>
<totfact> 0.30687417E+01</totfact>
</mgrwt>
</event>
<event>
12    7  0.1730932E-007  0.2148309E+04  0.7818608E-02  0.8540257E-01
          2   -1    0    0  501    0  0.00000000000E+00  0.00000000000E+00  0.96442348709E+03  0.96442348709E+03  0.00000000000E+00 0. -1.
         -1   -1    0    0    0  501 -0.00000000000E+00 -0.00000000000E+00 -0.11963701686E+04  0.11963701686E+04  0.00000000000E+00 0.  1.
         24    2    1    2    0    0  0.34145924039E+03 -0.11361277421E+03 -0.90463308358E+03  0.97682532653E+03  0.79526268235E+02 0.  0.
        254    2    1    2    0    0 -0.34145924039E+03  0.11361277421E+03  0.67268640210E+03  0.11839683291E+04  0.90541246595E+03 0.  0.
         23    2    4    4    0    0 -0.58086369199E+03  0.63900817290E+02  0.16651677253E+03  0.61436479111E+03  0.90721099532E+02 0.  0.
         23    2    4    4    0    0  0.23940445161E+03  0.49711956925E+02  0.50616962957E+03  0.56960353801E+03  0.91949586795E+02 0.  0.
          2    1    3    3  502    0  0.53005556416E+02 -0.23061690250E+02 -0.81441132768E+02  0.99870359340E+02  0.00000000000E+00 0. -1.
         -1    1    3    3    0  502  0.28845368397E+03 -0.90551083964E+02 -0.82319195081E+03  0.87695496719E+03  0.00000000000E+00 0.  1.
         13    1    5    5    0    0 -0.33767835674E+03  0.75304275378E+02  0.12214519479E+03  0.36690169680E+03  0.00000000000E+00 0. -1.
        -13    1    5    5    0    0 -0.24318533525E+03 -0.11403458088E+02  0.44371577737E+02  0.24746309431E+03  0.00000000000E+00 0.  1.
          3    1    6    6  503    0  0.12582800594E+03 -0.15166735015E+02  0.20151538937E+03  0.23805707106E+03  0.00000000000E+00 0. -1.
         -3    1    6    6    0  503  0.11357644567E+03  0.64878691940E+02  0.30465424020E+03  0.33154646696E+03  0.00000000000E+00 0.  1.
<mgrwt>
<rscale>  0 0.21483086E+04</rscale>
<asrwt>0</asrwt>
<pdfrwt beam="1">  1        2 0.14837285E+00 0.21483086E+04</pdfrwt>
<pdfrwt beam="2">  1       -1 0.18405695E+00 0.21483086E+04</pdfrwt>
<totfact> 0.54137017E+00</totfact>
</mgrwt>
</event>
<event>
12    7  0.1730932E-007  0.1410641E+04  0.7818608E-02  0.8946152E-01
         -1   -1    0    0    0  501 -0.00000000000E+00  0.00000000000E+00  0.86528717984E+03  0.86528717984E+03  0.00000000000E+00 0.  1.
          2   -1    0    0  501    0  0.00000000000E+00 -0.00000000000E+00 -0.57492701951E+03  0.57492701951E+03  0.00000000000E+00 0. -1.
         24    2    1    2    0    0  0.31389296834E+03 -0.59756619490E+02  0.36440836877E+03  0.49114881764E+03  0.79586762061E+02 0.  0.
        254    2    1    2    0    0 -0.31389296834E+03  0.59756619490E+02 -0.74048208446E+02  0.94906538170E+03  0.89058537627E+03 0.  0.
         23    2    4    4    0    0 -0.40654758973E+03  0.24846945017E+03  0.25525326338E+03  0.54786000115E+03  0.89321565177E+02 0.  0.
         23    2    4    4    0    0  0.92654621392E+02 -0.18871283068E+03 -0.32930147183E+03  0.40120538056E+03  0.91262734505E+02 0.  0.
          4    1    3    3  502    0  0.12974758831E+01 -0.12980879242E+02  0.17718876083E+02  0.22003300644E+02  0.00000000000E+00 0. -1.
         -3    1    3    3    0  502  0.31259549246E+03 -0.46775740248E+02  0.34668949269E+03  0.46914551700E+03  0.00000000000E+00 0.  1.
         13    1    5    5    0    0 -0.40073200588E+03  0.25132133061E+03  0.23818538743E+03  0.52960440948E+03  0.00000000000E+00 0.  1.
        -13    1    5    5    0    0 -0.58155838554E+01 -0.28518804397E+01  0.17067875956E+02  0.18255591672E+02  0.00000000000E+00 0. -1.
          1    1    6    6  503    0  0.50568297902E+02 -0.18692902706E+02 -0.83151690050E+02  0.99099853292E+02  0.00000000000E+00 0. -1.
         -1    1    6    6    0  503  0.42086323489E+02 -0.17001992798E+03 -0.24614978178E+03  0.30210552726E+03  0.00000000000E+00 0.  1.
<mgrwt>
<rscale>  0 0.14106410E+04</rscale>
<asrwt>0</asrwt>
<pdfrwt beam="1">  1        2 0.88450311E-01 0.14106410E+04</pdfrwt>
<pdfrwt beam="2">  1       -1 0.13312110E+00 0.14106410E+04</pdfrwt>
<totfact> 0.27719337E+01</totfact>
</mgrwt>
</event>
<event>
12    7  0.1730932E-007  0.1596845E+04  0.7818608E-02  0.8822488E-01
         -1   -1    0    0    0  501 -0.00000000000E+00  0.00000000000E+00  0.44283259545E+03  0.44283259545E+03  0.00000000000E+00 0.  1.
          2   -1    0    0  501    0  0.00000000000E+00 -0.00000000000E+00 -0.14395479454E+04  0.14395479454E+04  0.00000000000E+00 0. -1.
         24    2    1    2    0    0  0.16754355833E+03  0.50377088476E+03 -0.46817858212E+03  0.71235024970E+03  0.79973403194E+02 0.  0.
        254    2    1    2    0    0 -0.16754355833E+03 -0.50377088476E+03 -0.52853676784E+03  0.11700302912E+04  0.89875681862E+03 0.  0.
         23    2    4    4    0    0 -0.47765908853E+03 -0.93933697681E+02 -0.38281893830E+03  0.62602399945E+03  0.91509365422E+02 0.  0.
         23    2    4    4    0    0  0.31011553020E+03 -0.40983718708E+03 -0.14571782954E+03  0.54400629171E+03  0.10281535681E+03 0.  0.
          4    1    3    3  502    0  0.17168233394E+03  0.43643102184E+03 -0.39945275118E+03  0.61604331101E+03  0.00000000000E+00 0. -1.
         -3    1    3    3    0  502 -0.41387756068E+01  0.67339862914E+02 -0.68725830944E+02  0.96306938690E+02  0.00000000000E+00 0.  1.
         13    1    5    5    0    0 -0.59531230891E+02  0.16714842430E+02 -0.35395478512E+02  0.71247409132E+02  0.00000000000E+00 0. -1.
        -13    1    5    5    0    0 -0.41812785764E+03 -0.11064854011E+03 -0.34742345978E+03  0.55477659032E+03  0.00000000000E+00 0.  1.
          1    1    6    6  503    0  0.65472112972E+02 -0.35416814196E+02 -0.28846378945E+01  0.74493418773E+02  0.00000000000E+00 0. -1.
         -1    1    6    6    0  503  0.24464341723E+03 -0.37442037288E+03 -0.14283319165E+03  0.46951287294E+03  0.00000000000E+00 0.  1.
<mgrwt>
<rscale>  0 0.15968453E+04</rscale>
<asrwt>0</asrwt>
<pdfrwt beam="1">  1        2 0.22146891E+00 0.15968453E+04</pdfrwt>
<pdfrwt beam="2">  1       -1 0.68128092E-01 0.15968453E+04</pdfrwt>
<totfact> 0.32751585E+01</totfact>
</mgrwt>
</event>
<event>
12    7  0.1730932E-007  0.1187520E+04  0.7818608E-02  0.9123851E-01
         -1   -1    0    0    0  501 -0.00000000000E+00  0.00000000000E+00  0.38320300600E+03  0.38320300600E+03  0.00000000000E+00 0.  1.
          2   -1    0    0  501    0  0.00000000000E+00 -0.00000000000E+00 -0.92001048766E+03  0.92001048766E+03  0.00000000000E+00 0. -1.
         24    2    1    2    0    0  0.89383704590E+02  0.19454458855E+03 -0.28424285613E+02  0.22974441343E+03  0.78342274094E+02 0.  0.
        254    2    1    2    0    0 -0.89383704590E+02 -0.19454458855E+03 -0.50838319605E+03  0.10734690802E+04  0.92089377704E+03 0.  0.
         23    2    4    4    0    0 -0.44950217653E+03 -0.31027345409E+03 -0.26336165879E+03  0.61333576197E+03  0.92193115621E+02 0.  0.
         23    2    4    4    0    0  0.36011847195E+03  0.11572886554E+03 -0.24502153726E+03  0.46013331825E+03  0.92782717631E+02 0.  0.
          2    1    3    3  502    0  0.22888660371E+02  0.45014652293E+02 -0.41793570603E+02  0.65550837053E+02  0.00000000000E+00 0. -1.
         -1    1    3    3    0  502  0.66495044219E+02  0.14952993626E+03  0.13369284991E+02  0.16419357638E+03  0.00000000000E+00 0.  1.
         13    1    5    5    0    0 -0.11297764998E+03 -0.12959402857E+03 -0.78894674367E+02  0.18916376841E+03  0.00000000000E+00 0. -1.
        -13    1    5    5    0    0 -0.33652452655E+03 -0.18067942552E+03 -0.18446698442E+03  0.42417199356E+03  0.00000000000E+00 0.  1.
          2    1    6    6  503    0  0.10105302329E+02  0.20690283934E+02 -0.10990429166E+01  0.23052394231E+02  0.00000000000E+00 0. -1.
         -2    1    6    6    0  503  0.35001316962E+03  0.95038581604E+02 -0.24392249434E+03  0.43708092402E+03  0.00000000000E+00 0.  1.
<mgrwt>
<rscale>  0 0.11875197E+04</rscale>
<asrwt>0</asrwt>
<pdfrwt beam="1">  1        2 0.14154007E+00 0.11875197E+04</pdfrwt>
<pdfrwt beam="2">  1       -1 0.58954309E-01 0.11875197E+04</pdfrwt>
<totfact> 0.93405548E+01</totfact>
</mgrwt>
</event>
<event>
12    7  0.1730932E-007  0.3249077E+04  0.7818608E-02  0.8175975E-01
          2   -1    0    0  501    0  0.00000000000E+00  0.00000000000E+00  0.25529777482E+04  0.25529777482E+04  0.00000000000E+00 0. -1.
         -1   -1    0    0    0  501 -0.00000000000E+00 -0.00000000000E+00 -0.10337441328E+04  0.10337441328E+04  0.00000000000E+00 0.  1.
         24    2    1    2    0    0 -0.10781998511E+04  0.30266116251E+03  0.18061304414E+04  0.21266483146E+04  0.80044888626E+02 0.  0.
        254    2    1    2    0    0  0.10781998511E+04 -0.30266116251E+03 -0.28689682601E+03  0.14600735665E+04  0.89184434335E+03 0.  0.
         23    2    4    4    0    0  0.30604706721E+03 -0.42438378876E+03 -0.40169707790E+03  0.66594367646E+03  0.91400384623E+02 0.  0.
         23    2    4    4    0    0  0.77215278386E+03  0.12172262625E+03  0.11480025190E+03  0.79412989007E+03  0.80167731067E+02 0.  0.
          4    1    3    3  502    0 -0.75765851315E+03  0.18463020099E+03  0.13026083778E+04  0.15181973915E+04  0.00000000000E+00 0. -1.
         -3    1    3    3    0  502 -0.32054133792E+03  0.11803096152E+03  0.50352206362E+03  0.60845092303E+03  0.00000000000E+00 0.  1.
         13    1    5    5    0    0  0.68519923454E+02 -0.14534403867E+03 -0.85940257728E+02  0.18222403075E+03  0.00000000000E+00 0. -1.
        -13    1    5    5    0    0  0.23752714376E+03 -0.27903975009E+03 -0.31575682018E+03  0.48371964570E+03  0.00000000000E+00 0.  1.
          3    1    6    6  503    0  0.14525496355E+01  0.67048002315E+00 -0.46241993804E+01  0.48931241365E+01  0.00000000000E+00 0. -1.
         -3    1    6    6    0  503  0.77070023422E+03  0.12105214622E+03  0.11942445128E+03  0.78923676593E+03  0.00000000000E+00 0.  1.
<mgrwt>
<rscale>  0 0.32490773E+04</rscale>
<asrwt>0</asrwt>
<pdfrwt beam="1">  1        2 0.39276581E+00 0.32490773E+04</pdfrwt>
<pdfrwt beam="2">  1       -1 0.15903756E+00 0.32490773E+04</pdfrwt>
<totfact> 0.91820040E-01</totfact>
</mgrwt>
</event>
<event>
12    7  0.1730932E-007  0.2029013E+04  0.7818608E-02  0.8593175E-01
         -1   -1    0    0    0  501 -0.00000000000E+00  0.00000000000E+00  0.61029240465E+03  0.61029240465E+03  0.00000000000E+00 0.  1.
          2   -1    0    0  501    0  0.00000000000E+00 -0.00000000000E+00 -0.16864432549E+04  0.16864432549E+04  0.00000000000E+00 0. -1.
         24    2    1    2    0    0 -0.75517856690E+03 -0.30234242604E+03 -0.43357807210E+03  0.92511162803E+03  0.78332427596E+02 0.  0.
        254    2    1    2    0    0  0.75517856690E+03  0.30234242604E+03 -0.64257277816E+03  0.13716240315E+04  0.89819101430E+03 0.  0.
         23    2    4    4    0    0 -0.10405799870E+03 -0.15971191684E+03 -0.21812058055E+03  0.30373347541E+03  0.91331664567E+02 0.  0.
         23    2    4    4    0    0  0.85923656560E+03  0.46205434288E+03 -0.42445219761E+03  0.10678905561E+04  0.91917791356E+02 0.  0.
          4    1    3    3  502    0 -0.47543792240E+03 -0.19593235746E+03 -0.23117700974E+03  0.56380272843E+03  0.00000000000E+00 0. -1.
         -3    1    3    3    0  502 -0.27974064450E+03 -0.10641006857E+03 -0.20240106236E+03  0.36130889959E+03  0.00000000000E+00 0.  1.
         13    1    5    5    0    0 -0.99803986397E+02 -0.96664517991E+02 -0.10498117064E+03  0.17414336315E+03  0.00000000000E+00 0.  1.
        -13    1    5    5    0    0 -0.42540123017E+01 -0.63047398849E+02 -0.11313940991E+03  0.12959011226E+03  0.00000000000E+00 0. -1.
          1    1    6    6  503    0  0.17349020653E+03  0.11423766930E+03 -0.55316298917E+02  0.21496276370E+03  0.00000000000E+00 0. -1.
         -1    1    6    6    0  503  0.68574635907E+03  0.34781667357E+03 -0.36913589869E+03  0.85292779243E+03  0.00000000000E+00 0.  1.
<mgrwt>
<rscale>  0 0.20290131E+04</rscale>
<asrwt>0</asrwt>
<pdfrwt beam="1">  1        2 0.25945281E+00 0.20290131E+04</pdfrwt>
<pdfrwt beam="2">  1       -1 0.93891140E-01 0.20290131E+04</pdfrwt>
<totfact> 0.11580787E+01</totfact>
</mgrwt>
</event>
<event>
12    7  0.1730932E-007  0.3472433E+04  0.7818608E-02  0.8120354E-01
          2   -1    0    0  501    0  0.00000000000E+00  0.00000000000E+00  0.26486888825E+04  0.26486888825E+04  0.00000000000E+00 0. -1.
         -1   -1    0    0    0  501 -0.00000000000E+00 -0.00000000000E+00 -0.11380906368E+04  0.11380906368E+04  0.00000000000E+00 0.  1.
         24    2    1    2    0    0  0.12760970057E+04  0.78384251738E+03  0.13613716372E+04  0.20254593224E+04  0.79498880274E+02 0.  0.
        254    2    1    2    0    0 -0.12760970057E+04 -0.78384251738E+03  0.14922660857E+03  0.17613201970E+04  0.91495770147E+03 0.  0.
         23    2    4    4    0    0 -0.11906297577E+04 -0.96039893318E+03  0.18183466063E+03  0.15427434765E+04  0.83834715344E+02 0.  0.
         23    2    4    4    0    0 -0.85467247962E+02  0.17655641580E+03 -0.32608052059E+02  0.21857672049E+03  0.90750643232E+02 0.  0.
          2    1    3    3  502    0  0.10538443590E+04  0.61747971732E+03  0.11325013233E+04  0.16656615447E+04  0.00000000000E+00 0. -1.
         -1    1    3    3    0  502  0.22225264665E+03  0.16636280006E+03  0.22887031393E+03  0.35979777763E+03  0.00000000000E+00 0.  1.
         13    1    5    5    0    0 -0.11547428112E+03 -0.88417456477E+02 -0.70488830780E+01  0.14560783963E+03  0.00000000000E+00 0. -1.
        -13    1    5    5    0    0 -0.10751554766E+04 -0.87198147670E+03  0.18888354370E+03  0.13971356368E+04  0.00000000000E+00 0.  1.
          4    1    6    6  503    0 -0.47795370255E+02  0.78177551176E+02 -0.60251917401E+02  0.10966503762E+03  0.00000000000E+00 0. -1.
         -4    1    6    6    0  503 -0.37671877707E+02  0.98378864622E+02  0.27643865342E+02  0.10891168287E+03  0.00000000000E+00 0.  1.
<mgrwt>
<rscale>  0 0.34724332E+04</rscale>
<asrwt>0</asrwt>
<pdfrwt beam="1">  1        2 0.40749060E+00 0.34724332E+04</pdfrwt>
<pdfrwt beam="2">  1       -1 0.17509087E+00 0.34724332E+04</pdfrwt>
<totfact> 0.60179522E-01</totfact>
</mgrwt>
</event>
<event>
12    7  0.1730932E-007  0.1757999E+04  0.7818608E-02  0.8728959E-01
          2   -1    0    0  501    0  0.00000000000E+00  0.00000000000E+00  0.15278569394E+04  0.15278569394E+04  0.00000000000E+00 0. -1.
         -1   -1    0    0    0  501 -0.00000000000E+00 -0.00000000000E+00 -0.50570209845E+03  0.50570209845E+03  0.00000000000E+00 0.  1.
         24    2    1    2    0    0 -0.17512016534E+02  0.74871250591E+02  0.10630048236E+04  0.10687853260E+04  0.80065243670E+02 0.  0.
        254    2    1    2    0    0  0.17512016534E+02 -0.74871250591E+02 -0.40849982610E+02  0.96477371186E+03  0.96083672866E+03 0.  0.
         23    2    4    4    0    0 -0.13269534763E+03 -0.48239432270E+03 -0.96345794969E+02  0.51770389608E+03  0.91774037431E+02 0.  0.
         23    2    4    4    0    0  0.15020736417E+03  0.40752307211E+03  0.55495812359E+02  0.44706981579E+03  0.90301320283E+02 0.  0.
          4    1    3    3  502    0  0.17938558669E+02  0.72735365456E+02  0.66822412234E+03  0.67241036797E+03  0.00000000000E+00 0. -1.
         -3    1    3    3    0  502 -0.35450575203E+02  0.21358851345E+01  0.39478070125E+03  0.39637495805E+03  0.00000000000E+00 0.  1.
         13    1    5    5    0    0 -0.11317339868E+03 -0.27782823159E+03 -0.85417268534E+02  0.31191802481E+03  0.00000000000E+00 0. -1.
        -13    1    5    5    0    0 -0.19521948956E+02 -0.20456609111E+03 -0.10928526435E+02  0.20578587127E+03  0.00000000000E+00 0.  1.
          3    1    6    6  503    0  0.95607124238E+02  0.14315372920E+03  0.39678004182E+02  0.17665802106E+03  0.00000000000E+00 0. -1.
         -3    1    6    6    0  503  0.54600239928E+02  0.26436934291E+03  0.15817808177E+02  0.27041179473E+03  0.00000000000E+00 0.  1.
<mgrwt>
<rscale>  0 0.17579994E+04</rscale>
<asrwt>0</asrwt>
<pdfrwt beam="1">  1        2 0.23505491E+00 0.17579994E+04</pdfrwt>
<pdfrwt beam="2">  1       -1 0.77800324E-01 0.17579994E+04</pdfrwt>
<totfact> 0.21868772E+01</totfact>
</mgrwt>
</event>
<event>
12    7  0.1730932E-007  0.1347073E+04  0.7818608E-02  0.8993046E-01
         -1   -1    0    0    0  501 -0.00000000000E+00  0.00000000000E+00  0.19652444330E+03  0.19652444330E+03  0.00000000000E+00 0.  1.
          2   -1    0    0  501    0  0.00000000000E+00 -0.00000000000E+00 -0.23083730989E+04  0.23083730989E+04  0.00000000000E+00 0. -1.
         24    2    1    2    0    0 -0.26878188244E+02  0.36454378274E+03 -0.74307853722E+03  0.83167164274E+03  0.76794546148E+02 0.  0.
        254    2    1    2    0    0  0.26878188244E+02 -0.36454378274E+03 -0.13687701184E+04  0.16732258994E+04  0.89024640808E+03 0.  0.
         23    2    4    4    0    0  0.20921280505E+03  0.62434390294E+02 -0.12794146942E+02  0.23705366667E+03  0.91447798204E+02 0.  0.
         23    2    4    4    0    0 -0.18233461680E+03 -0.42697817304E+03 -0.13559759714E+04  0.14361722328E+04  0.91452580015E+02 0.  0.
          4    1    3    3  502    0 -0.31707309057E+02  0.35050412776E+03 -0.73465380971E+03  0.81460095577E+03  0.00000000000E+00 0. -1.
         -3    1    3    3    0  502  0.48291208133E+01  0.14039654985E+02 -0.84247275130E+01  0.17070686969E+02  0.00000000000E+00 0.  1.
         13    1    5    5    0    0  0.31947227704E+02 -0.23524007789E+02 -0.80827199868E+00  0.39681955648E+02  0.00000000000E+00 0.  1.
        -13    1    5    5    0    0  0.17726557734E+03  0.85958398083E+02 -0.11985874943E+02  0.19737171102E+03  0.00000000000E+00 0. -1.
          3    1    6    6  503    0 -0.10187630478E+03 -0.33899712565E+03 -0.10117588070E+04  0.10718925862E+04  0.00000000000E+00 0. -1.
         -3    1    6    6    0  503 -0.80458312023E+02 -0.87981047384E+02 -0.34421716439E+03  0.36427964661E+03  0.00000000000E+00 0.  1.
<mgrwt>
<rscale>  0 0.13470735E+04</rscale>
<asrwt>0</asrwt>
<pdfrwt beam="1">  1        2 0.35513429E+00 0.13470735E+04</pdfrwt>
<pdfrwt beam="2">  1       -1 0.30234532E-01 0.13470735E+04</pdfrwt>
<totfact> 0.50353691E+01</totfact>
</mgrwt>
</event>
<event>
12    7  0.1730932E-007  0.1174086E+04  0.7818608E-02  0.9135846E-01
         -1   -1    0    0    0  501 -0.00000000000E+00  0.00000000000E+00  0.60241519498E+03  0.60241519498E+03  0.00000000000E+00 0.  1.
          2   -1    0    0  501    0  0.00000000000E+00 -0.00000000000E+00 -0.57206304073E+03  0.57206304073E+03  0.00000000000E+00 0. -1.
         24    2    1    2    0    0 -0.17600832860E+03  0.83974560773E+02  0.96465998344E+02  0.23265214585E+03  0.82405543113E+02 0.  0.
        254    2    1    2    0    0  0.17600832860E+03 -0.83974560773E+02 -0.66113844093E+02  0.94182608986E+03  0.91904008867E+03 0.  0.
         23    2    4    4    0    0 -0.30151000370E+03 -0.25166091881E+03 -0.12988553509E+03  0.42386147882E+03  0.92448908126E+02 0.  0.
         23    2    4    4    0    0  0.47751833230E+03  0.16768635804E+03  0.63771691000E+02  0.51796461104E+03  0.89877902522E+02 0.  0.
          4    1    3    3  502    0 -0.13280899511E+01  0.12410105558E+02 -0.99411196821E+01  0.15956202662E+02  0.00000000000E+00 0. -1.
         -3    1    3    3    0  502 -0.17468023865E+03  0.71564455216E+02  0.10640711803E+03  0.21669594318E+03  0.00000000000E+00 0.  1.
         13    1    5    5    0    0 -0.22827555956E+03 -0.18428106953E+03 -0.13761150952E+03  0.32404655720E+03  0.00000000000E+00 0.  1.
        -13    1    5    5    0    0 -0.73234444145E+02 -0.67379849278E+02  0.77259744280E+01  0.99814921624E+02  0.00000000000E+00 0. -1.
          3    1    6    6  503    0  0.72106759458E+02  0.51036215969E+02 -0.12639636018E+02  0.89240352412E+02  0.00000000000E+00 0. -1.
         -3    1    6    6    0  503  0.40541157284E+03  0.11665014207E+03  0.76411327019E+02  0.42872425863E+03  0.00000000000E+00 0.  1.
<mgrwt>
<rscale>  0 0.11740860E+04</rscale>
<asrwt>0</asrwt>
<pdfrwt beam="1">  1        2 0.88009699E-01 0.11740860E+04</pdfrwt>
<pdfrwt beam="2">  1       -1 0.92679261E-01 0.11740860E+04</pdfrwt>
<totfact> 0.67203098E+01</totfact>
</mgrwt>
</event>
<event>
12    7  0.1730932E-007  0.1704936E+04  0.7818608E-02  0.8758554E-01
         -1   -1    0    0    0  501 -0.00000000000E+00  0.00000000000E+00  0.15432468038E+04  0.15432468038E+04  0.00000000000E+00 0.  1.
          2   -1    0    0  501    0  0.00000000000E+00 -0.00000000000E+00 -0.47089123110E+03  0.47089123110E+03  0.00000000000E+00 0. -1.
         24    2    1    2    0    0 -0.58199189475E+03 -0.20596861639E+03  0.37087790707E+03  0.72467766601E+03  0.80434204029E+02 0.  0.
        254    2    1    2    0    0  0.58199189475E+03  0.20596861639E+03  0.70147766563E+03  0.12894603689E+04  0.88853783886E+03 0.  0.
         23    2    4    4    0    0  0.61427299539E+03  0.36155867428E+03  0.80552355146E+03  0.10794856177E+04  0.91460477982E+02 0.  0.
         23    2    4    4    0    0 -0.32281100641E+02 -0.15559005790E+03 -0.10404588583E+03  0.20997475120E+03  0.89518233942E+02 0.  0.
          4    1    3    3  502    0 -0.51122947021E+03 -0.19658349079E+03  0.30190779115E+03  0.62541902307E+03  0.00000000000E+00 0. -1.
         -3    1    3    3    0  502 -0.70762424538E+02 -0.93851255993E+01  0.68970115918E+02  0.99258642942E+02  0.00000000000E+00 0.  1.
         13    1    5    5    0    0  0.58452764912E+03  0.33151181413E+03  0.72497389224E+03  0.98851393511E+03  0.00000000000E+00 0.  1.
        -13    1    5    5    0    0  0.29745346272E+02  0.30046860151E+02  0.80549659226E+02  0.90971682579E+02  0.00000000000E+00 0. -1.
          1    1    6    6  503    0  0.15060953534E+02 -0.66246201897E+02 -0.45023931826E+01  0.68085704311E+02  0.00000000000E+00 0. -1.
         -1    1    6    6    0  503 -0.47342054175E+02 -0.89343856001E+02 -0.99543492648E+02  0.14188904689E+03  0.00000000000E+00 0.  1.
<mgrwt>
<rscale>  0 0.17049356E+04</rscale>
<asrwt>0</asrwt>
<pdfrwt beam="1">  1        2 0.72444805E-01 0.17049356E+04</pdfrwt>
<pdfrwt beam="2">  1       -1 0.23742258E+00 0.17049356E+04</pdfrwt>
<totfact> 0.60513487E+00</totfact>
</mgrwt>
</event>
<event>
12    7  0.1730932E-007  0.1657916E+04  0.7818608E-02  0.8785737E-01
          2   -1    0    0  501    0  0.00000000000E+00  0.00000000000E+00  0.79007296955E+03  0.79007296955E+03  0.00000000000E+00 0. -1.
         -1   -1    0    0    0  501 -0.00000000000E+00 -0.00000000000E+00 -0.86975680094E+03  0.86975680094E+03  0.00000000000E+00 0.  1.
         24    2    1    2    0    0 -0.47749540608E+03 -0.24813040519E+03  0.21194141915E+03  0.58383452939E+03  0.79831270539E+02 0.  0.
        254    2    1    2    0    0  0.47749540608E+03  0.24813040519E+03 -0.29162525054E+03  0.10759952411E+04  0.88495757599E+03 0.  0.
         23    2    4    4    0    0 -0.20228445266E+03  0.26708943102E+03 -0.11119408090E+03  0.36687610246E+03  0.99890875343E+02 0.  0.
         23    2    4    4    0    0  0.67977985874E+03 -0.18959025829E+02 -0.18043116963E+03  0.70911913863E+03  0.88512399074E+02 0.  0.
          2    1    3    3  502    0 -0.27295746837E+03 -0.12936526943E+03  0.15944255329E+03  0.34155977555E+03  0.00000000000E+00 0. -1.
         -1    1    3    3    0  502 -0.20453793771E+03 -0.11876513576E+03  0.52498865860E+02  0.24227475385E+03  0.00000000000E+00 0.  1.
         13    1    5    5    0    0 -0.10642805793E+03  0.21224696738E+03 -0.58623404668E+02  0.24456575854E+03  0.00000000000E+00 0. -1.
        -13    1    5    5    0    0 -0.95856394738E+02  0.54842463645E+02 -0.52570676237E+02  0.12231034392E+03  0.00000000000E+00 0.  1.
          3    1    6    6  503    0  0.26708646731E+03 -0.42333723464E+02 -0.97963464636E+02  0.28761808977E+03  0.00000000000E+00 0. -1.
         -3    1    6    6    0  503  0.41269339144E+03  0.23374697635E+02 -0.82467704995E+02  0.42150104886E+03  0.00000000000E+00 0.  1.
<mgrwt>
<rscale>  0 0.16579160E+04</rscale>
<asrwt>0</asrwt>
<pdfrwt beam="1">  1        2 0.12154969E+00 0.16579160E+04</pdfrwt>
<pdfrwt beam="2">  1       -1 0.13380874E+00 0.16579160E+04</pdfrwt>
<totfact> 0.17990568E+01</totfact>
</mgrwt>
</event>
<event>
12    7  0.1730932E-007  0.1214768E+04  0.7818608E-02  0.9100028E-01
         -1   -1    0    0    0  501 -0.00000000000E+00  0.00000000000E+00  0.33024876464E+03  0.33024876464E+03  0.00000000000E+00 0.  1.
          2   -1    0    0  501    0  0.00000000000E+00 -0.00000000000E+00 -0.11170825767E+04  0.11170825767E+04  0.00000000000E+00 0. -1.
         24    2    1    2    0    0 -0.27334213446E+03 -0.22158388309E+02 -0.22523295578E+03  0.36363166130E+03  0.79316984821E+02 0.  0.
        254    2    1    2    0    0  0.27334213446E+03  0.22158388309E+02 -0.56160085630E+03  0.10836996801E+04  0.88532624390E+03 0.  0.
         23    2    4    4    0    0  0.51904182772E+03 -0.16157400071E+03 -0.16846295776E+03  0.57645341643E+03  0.91696218812E+02 0.  0.
         23    2    4    4    0    0 -0.24569969326E+03  0.18373238901E+03 -0.39313789854E+03  0.50724626364E+03  0.92819365817E+02 0.  0.
          4    1    3    3  502    0 -0.13951891203E+03 -0.41872956733E+02 -0.14894316779E+03  0.20833371919E+03  0.00000000000E+00 0. -1.
         -3    1    3    3    0  502 -0.13382322244E+03  0.19714568425E+02 -0.76289787993E+02  0.15529794211E+03  0.00000000000E+00 0.  1.
         13    1    5    5    0    0  0.50405007496E+03 -0.13712656570E+03 -0.16341801703E+03  0.54733501750E+03  0.00000000000E+00 0.  1.
        -13    1    5    5    0    0  0.14991752764E+02 -0.24447435009E+02 -0.50449407286E+01  0.29118398933E+02  0.00000000000E+00 0. -1.
          2    1    6    6  503    0 -0.40349895829E+02  0.64118433413E+02 -0.53590702462E+02  0.92796826385E+02  0.00000000000E+00 0. -1.
         -2    1    6    6    0  503 -0.20534979743E+03  0.11961395560E+03 -0.33954719608E+03  0.41444943726E+03  0.00000000000E+00 0.  1.
<mgrwt>
<rscale>  0 0.12147677E+04</rscale>
<asrwt>0</asrwt>
<pdfrwt beam="1">  1        2 0.17185886E+00 0.12147677E+04</pdfrwt>
<pdfrwt beam="2">  1       -1 0.50807502E-01 0.12147677E+04</pdfrwt>
<totfact> 0.93027725E+01</totfact>
</mgrwt>
</event>
<event>
12    7  0.1730932E-007  0.2216069E+04  0.7818608E-02  0.8511770E-01
         -1   -1    0    0    0  501 -0.00000000000E+00  0.00000000000E+00  0.84008482322E+03  0.84008482322E+03  0.00000000000E+00 0.  1.
          2   -1    0    0  501    0  0.00000000000E+00 -0.00000000000E+00 -0.14614478979E+04  0.14614478979E+04  0.00000000000E+00 0. -1.
         24    2    1    2    0    0  0.19855536996E+03  0.45490183581E+03 -0.10480863193E+04  0.11624049279E+04  0.79626430529E+02 0.  0.
        254    2    1    2    0    0 -0.19855536996E+03 -0.45490183581E+03  0.42672324469E+03  0.11391277932E+04  0.93228723392E+03 0.  0.
         23    2    4    4    0    0 -0.55025095653E+03 -0.15799909168E+03  0.30149136865E+03  0.65351744958E+03  0.91914000091E+02 0.  0.
         23    2    4    4    0    0  0.35169558657E+03 -0.29690274413E+03  0.12523187604E+03  0.48561034362E+03  0.91067875598E+02 0.  0.
          2    1    3    3  502    0  0.90483641147E+02  0.28116677185E+03 -0.67753498690E+03  0.73911819175E+03  0.00000000000E+00 0. -1.
         -1    1    3    3    0  502  0.10807172882E+03  0.17373506396E+03 -0.37055133242E+03  0.42328673612E+03  0.00000000000E+00 0.  1.
         13    1    5    5    0    0 -0.42082503442E+03 -0.89768508330E+02  0.19421160018E+03  0.47209134744E+03  0.00000000000E+00 0. -1.
        -13    1    5    5    0    0 -0.12942592211E+03 -0.68230583346E+02  0.10727976847E+03  0.18142610215E+03  0.00000000000E+00 0.  1.
          1    1    6    6  503    0  0.33954130733E+03 -0.30313400952E+03  0.12470063674E+03  0.47194149629E+03  0.00000000000E+00 0. -1.
         -1    1    6    6    0  503  0.12154279232E+02  0.62312653918E+01  0.53123930179E+00  0.13668847327E+02  0.00000000000E+00 0.  1.
<mgrwt>
<rscale>  0 0.22160688E+04</rscale>
<asrwt>0</asrwt>
<pdfrwt beam="1">  1        2 0.22483814E+00 0.22160688E+04</pdfrwt>
<pdfrwt beam="2">  1       -1 0.12924382E+00 0.22160688E+04</pdfrwt>
<totfact> 0.71452865E+00</totfact>
</mgrwt>
</event>
<event>
12    7  0.1730932E-007  0.2482030E+04  0.7818608E-02  0.8409415E-01
         -1   -1    0    0    0  501 -0.00000000000E+00  0.00000000000E+00  0.42523625821E+03  0.42523625821E+03  0.00000000000E+00 0.  1.
          2   -1    0    0  501    0  0.00000000000E+00 -0.00000000000E+00 -0.36217950426E+04  0.36217950426E+04  0.00000000000E+00 0. -1.
         24    2    1    2    0    0 -0.40679041101E+03 -0.96310965567E+03 -0.97078839366E+03  0.14289950955E+04  0.80859324636E+02 0.  0.
        254    2    1    2    0    0  0.40679041101E+03  0.96310965567E+03 -0.22257703907E+04  0.26180362053E+04  0.89833239546E+03 0.  0.
         23    2    4    4    0    0 -0.21935517962E+03  0.36324576813E+03 -0.37995688677E+03  0.57671633944E+03  0.90389808513E+02 0.  0.
         23    2    4    4    0    0  0.62614559063E+03  0.59986388755E+03 -0.18458135040E+04  0.20413198659E+04  0.89801554348E+02 0.  0.
          4    1    3    3  502    0 -0.11480904360E+02 -0.62320648330E+01 -0.89390569807E+01  0.15828977753E+02  0.00000000000E+00 0. -1.
         -3    1    3    3    0  502 -0.39530950665E+03 -0.95687759084E+03 -0.96184933668E+03  0.14131661178E+04  0.00000000000E+00 0.  1.
         13    1    5    5    0    0 -0.16013265930E+03  0.30718288004E+03 -0.34190194138E+03  0.48672448868E+03  0.00000000000E+00 0. -1.
        -13    1    5    5    0    0 -0.59222520320E+02  0.56062888091E+02 -0.38054945388E+02  0.89991850757E+02  0.00000000000E+00 0.  1.
          2    1    6    6  503    0  0.56464720911E+03  0.53160802393E+03 -0.17063103819E+04  0.18742808438E+04  0.00000000000E+00 0. -1.
         -2    1    6    6    0  503  0.61498381522E+02  0.68255863613E+02 -0.13950312203E+03  0.16703902210E+03  0.00000000000E+00 0.  1.
<mgrwt>
<rscale>  0 0.24820303E+04</rscale>
<asrwt>0</asrwt>
<pdfrwt beam="1">  1        2 0.55719926E+00 0.24820303E+04</pdfrwt>
<pdfrwt beam="2">  1       -1 0.65420960E-01 0.24820303E+04</pdfrwt>
<totfact> 0.16050509E+00</totfact>
</mgrwt>
</event>
<event>
12    7  0.1730932E-007  0.1226684E+04  0.7818608E-02  0.9089816E-01
         -1   -1    0    0    0  501 -0.00000000000E+00  0.00000000000E+00  0.44261288691E+03  0.44261288691E+03  0.00000000000E+00 0.  1.
          2   -1    0    0  501    0  0.00000000000E+00 -0.00000000000E+00 -0.84992590058E+03  0.84992590058E+03  0.00000000000E+00 0. -1.
         24    2    1    2    0    0  0.16630811366E+03 -0.21597401549E+03 -0.61874197401E+02  0.29057317401E+03  0.79380029697E+02 0.  0.
        254    2    1    2    0    0 -0.16630811366E+03  0.21597401549E+03 -0.34543881627E+03  0.10019656135E+04  0.90016884571E+03 0.  0.
         23    2    4    4    0    0  0.96310706343E+02  0.50478121233E+03 -0.28957115574E+03  0.59684778396E+03  0.91082372067E+02 0.  0.
         23    2    4    4    0    0 -0.26261882000E+03 -0.28880719684E+03 -0.55867660525E+02  0.40511782952E+03  0.92849441226E+02 0.  0.
          4    1    3    3  502    0  0.32575906421E+02 -0.21088867387E+02  0.15626771418E+02  0.41834507189E+02  0.00000000000E+00 0. -1.
         -3    1    3    3    0  502  0.13373220724E+03 -0.19488514811E+03 -0.77500968819E+02  0.24873866682E+03  0.00000000000E+00 0.  1.
         13    1    5    5    0    0  0.10918979903E+03  0.40282028378E+03 -0.21217635022E+03  0.46819375992E+03  0.00000000000E+00 0. -1.
        -13    1    5    5    0    0 -0.12879092689E+02  0.10196092856E+03 -0.77394805520E+02  0.12865402404E+03  0.00000000000E+00 0.  1.
          3    1    6    6  503    0 -0.25422531428E+03 -0.25319047026E+03 -0.29487011992E+02  0.36000751177E+03  0.00000000000E+00 0. -1.
         -3    1    6    6    0  503 -0.83935057168E+01 -0.35616726580E+02 -0.26380648533E+02  0.45110317751E+02  0.00000000000E+00 0.  1.
<mgrwt>
<rscale>  0 0.12266836E+04</rscale>
<asrwt>0</asrwt>
<pdfrwt beam="1">  1        2 0.13075783E+00 0.12266836E+04</pdfrwt>
<pdfrwt beam="2">  1       -1 0.68094290E-01 0.12266836E+04</pdfrwt>
<totfact> 0.77939574E+01</totfact>
</mgrwt>
</event>
<event>
12    7  0.1730932E-007  0.1914559E+04  0.7818608E-02  0.8647643E-01
          2   -1    0    0  501    0  0.00000000000E+00  0.00000000000E+00  0.11364857137E+04  0.11364857137E+04  0.00000000000E+00 0. -1.
         -1   -1    0    0    0  501 -0.00000000000E+00 -0.00000000000E+00 -0.80633150380E+03  0.80633150380E+03  0.00000000000E+00 0.  1.
         24    2    1    2    0    0 -0.52302963179E+03  0.45738423545E+03  0.38493017774E+03  0.79680456776E+03  0.62975732622E+02 0.  0.
        254    2    1    2    0    0  0.52302963179E+03 -0.45738423545E+03 -0.54775967805E+02  0.11460126498E+04  0.90971657796E+03 0.  0.
         23    2    4    4    0    0 -0.20651765698E+03 -0.30152091336E+03 -0.11300618894E+03  0.39190907437E+03  0.85193426956E+02 0.  0.
         23    2    4    4    0    0  0.72954728877E+03 -0.15586332209E+03  0.58230221132E+02  0.75410357540E+03  0.93535138070E+02 0.  0.
          4    1    3    3  502    0 -0.10534327404E+03  0.88914598237E+02  0.10592135060E+03  0.17384574679E+03  0.00000000000E+00 0. -1.
         -3    1    3    3    0  502 -0.41768635775E+03  0.36846963722E+03  0.27900882714E+03  0.62295882097E+03  0.00000000000E+00 0.  1.
         13    1    5    5    0    0 -0.19465525714E+03 -0.30297677727E+03 -0.98964074451E+02  0.37346952316E+03  0.00000000000E+00 0. -1.
        -13    1    5    5    0    0 -0.11862399842E+02  0.14558639055E+01 -0.14042114486E+02  0.18439551213E+02  0.00000000000E+00 0.  1.
          1    1    6    6  503    0  0.70877046631E+03 -0.15903463116E+03  0.42104873132E+02  0.72761281473E+03  0.00000000000E+00 0. -1.
         -1    1    6    6    0  503  0.20776822465E+02  0.31713090660E+01  0.16125348000E+02  0.26490760673E+02  0.00000000000E+00 0.  1.
<mgrwt>
<rscale>  0 0.19145592E+04</rscale>
<asrwt>0</asrwt>
<pdfrwt beam="1">  1        2 0.17484396E+00 0.19145592E+04</pdfrwt>
<pdfrwt beam="2">  1       -1 0.12405100E+00 0.19145592E+04</pdfrwt>
<totfact> 0.12590478E+01</totfact>
</mgrwt>
</event>
<event>
12    7  0.1730932E-007  0.2076316E+04  0.7818608E-02  0.8571749E-01
          2   -1    0    0  501    0  0.00000000000E+00  0.00000000000E+00  0.11325809419E+04  0.11325809419E+04  0.00000000000E+00 0. -1.
         -1   -1    0    0    0  501 -0.00000000000E+00 -0.00000000000E+00 -0.95160677268E+03  0.95160677268E+03  0.00000000000E+00 0.  1.
         24    2    1    2    0    0  0.69456142062E+03 -0.42296842099E+03  0.30605218730E+03  0.87263288231E+03  0.80637173572E+02 0.  0.
        254    2    1    2    0    0 -0.69456142062E+03  0.42296842099E+03 -0.12507801807E+03  0.12115548323E+04  0.88932713265E+03 0.  0.
         23    2    4    4    0    0 -0.29582838400E+03  0.58186213830E+03 -0.31908529458E+03  0.73158887170E+03  0.85608826668E+02 0.  0.
         23    2    4    4    0    0 -0.39873303662E+03 -0.15889371732E+03  0.19400727651E+03  0.47996596059E+03  0.92158841627E+02 0.  0.
          2    1    3    3  502    0  0.68582816952E+03 -0.42615874572E+03  0.29926738595E+03  0.86112282687E+03  0.00000000000E+00 0. -1.
         -1    1    3    3    0  502  0.87332511025E+01  0.31903247382E+01  0.67848013511E+01  0.11510055436E+02  0.00000000000E+00 0.  1.
         13    1    5    5    0    0 -0.17644154659E+03  0.31990474429E+03 -0.22338365415E+03  0.42821831083E+03  0.00000000000E+00 0.  1.
        -13    1    5    5    0    0 -0.11938683741E+03  0.26195739401E+03 -0.95701640431E+02  0.30337056087E+03  0.00000000000E+00 0. -1.
          4    1    6    6  503    0 -0.22444571407E+03 -0.80609804631E+02  0.15652947080E+03  0.28526355252E+03  0.00000000000E+00 0. -1.
         -4    1    6    6    0  503 -0.17428732255E+03 -0.78283912686E+02  0.37477805711E+02  0.19470240807E+03  0.00000000000E+00 0.  1.
<mgrwt>
<rscale>  0 0.20763157E+04</rscale>
<asrwt>0</asrwt>
<pdfrwt beam="1">  1        2 0.17424322E+00 0.20763157E+04</pdfrwt>
<pdfrwt beam="2">  1       -1 0.14640104E+00 0.20763157E+04</pdfrwt>
<totfact> 0.81579500E+00</totfact>
</mgrwt>
</event>
<event>
12    7  0.1730932E-007  0.3181721E+04  0.7818608E-02  0.8193661E-01
          2   -1    0    0  501    0  0.00000000000E+00  0.00000000000E+00  0.16092218220E+04  0.16092218220E+04  0.00000000000E+00 0. -1.
         -1   -1    0    0    0  501 -0.00000000000E+00 -0.00000000000E+00 -0.15727084340E+04  0.15727084340E+04  0.00000000000E+00 0.  1.
         24    2    1    2    0    0 -0.45242045103E+03  0.63019242579E+03  0.12547310323E+04  0.14773422095E+04  0.79770186576E+02 0.  0.
        254    2    1    2    0    0  0.45242045103E+03 -0.63019242579E+03 -0.12182176443E+04  0.17045880465E+04  0.90539462190E+03 0.  0.
         23    2    4    4    0    0 -0.63063125575E+02 -0.13897806749E+02  0.10558971039E+03  0.15333485947E+03  0.90511244321E+02 0.  0.
         23    2    4    4    0    0  0.51548357661E+03 -0.61629461904E+03 -0.13238073547E+04  0.15512531870E+04  0.91532304287E+02 0.  0.
          2    1    3    3  502    0 -0.42428613887E+03  0.58096156021E+03  0.11196912437E+04  0.13308807397E+04  0.00000000000E+00 0. -1.
         -1    1    3    3    0  502 -0.28134312159E+02  0.49230865583E+02  0.13503978858E+03  0.14646146984E+03  0.00000000000E+00 0.  1.
         13    1    5    5    0    0  0.70361096864E+00  0.27408408477E+02  0.59882815842E+01  0.28063774514E+02  0.00000000000E+00 0. -1.
        -13    1    5    5    0    0 -0.63766736544E+02 -0.41306215226E+02  0.99601428808E+02  0.12527108496E+03  0.00000000000E+00 0.  1.
          2    1    6    6  503    0  0.65961512616E+02 -0.13373383898E+03 -0.23808911290E+03  0.28093075039E+03  0.00000000000E+00 0. -1.
         -2    1    6    6    0  503  0.44952206399E+03 -0.48256078006E+03 -0.10857182418E+04  0.12703224366E+04  0.00000000000E+00 0.  1.
<mgrwt>
<rscale>  0 0.31817207E+04</rscale>
<asrwt>0</asrwt>
<pdfrwt beam="1">  1        2 0.24757259E+00 0.31817207E+04</pdfrwt>
<pdfrwt beam="2">  1       -1 0.24195514E+00 0.31817207E+04</pdfrwt>
<totfact> 0.83270020E-01</totfact>
</mgrwt>
</event>
<event>
12    7  0.1730932E-007  0.2072774E+04  0.7818608E-02  0.8573332E-01
         -1   -1    0    0    0  501 -0.00000000000E+00  0.00000000000E+00  0.74086595510E+03  0.74086595510E+03  0.00000000000E+00 0.  1.
          2   -1    0    0  501    0  0.00000000000E+00 -0.00000000000E+00 -0.14497871227E+04  0.14497871227E+04  0.00000000000E+00 0. -1.
         24    2    1    2    0    0  0.71334525867E+03  0.60589278311E+02  0.18023781078E+03  0.74257219886E+03  0.79970515609E+02 0.  0.
        254    2    1    2    0    0 -0.71334525867E+03 -0.60589278311E+02 -0.88915897840E+03  0.14480808790E+04  0.89095568038E+03 0.  0.
         23    2    4    4    0    0 -0.17288217379E+03 -0.41189953078E+03 -0.19427049578E+03  0.49604344964E+03  0.93640850724E+02 0.  0.
         23    2    4    4    0    0 -0.54046308488E+03  0.35131025247E+03 -0.69488848262E+03  0.95203742932E+03  0.89364556299E+02 0.  0.
          4    1    3    3  502    0  0.15818993841E+03  0.10847765017E+02  0.74753666577E+02  0.17529929061E+03  0.00000000000E+00 0. -1.
         -1    1    3    3    0  502  0.55515532026E+03  0.49741513294E+02  0.10548414421E+03  0.56727290825E+03  0.00000000000E+00 0.  1.
         13    1    5    5    0    0 -0.12757755130E+02  0.13113999255E+01 -0.92804153896E+01  0.15830546280E+02  0.00000000000E+00 0. -1.
        -13    1    5    5    0    0 -0.16012441866E+03 -0.41321093071E+03 -0.18499008039E+03  0.48021290336E+03  0.00000000000E+00 0.  1.
          1    1    6    6  503    0 -0.12353937046E+03  0.96144461636E+02 -0.22424108916E+03  0.27347723785E+03  0.00000000000E+00 0. -1.
         -1    1    6    6    0  503 -0.41692371443E+03  0.25516579084E+03 -0.47064739346E+03  0.67856019146E+03  0.00000000000E+00 0.  1.
<mgrwt>
<rscale>  0 0.20727739E+04</rscale>
<asrwt>0</asrwt>
<pdfrwt beam="1">  1        2 0.22304417E+00 0.20727739E+04</pdfrwt>
<pdfrwt beam="2">  1       -1 0.11397938E+00 0.20727739E+04</pdfrwt>
<totfact> 0.10002851E+01</totfact>
</mgrwt>
</event>
<event>
12    7  0.1730932E-007  0.1474681E+04  0.7818608E-02  0.8901467E-01
         -1   -1    0    0    0  501 -0.00000000000E+00  0.00000000000E+00  0.50639040628E+03  0.50639040628E+03  0.00000000000E+00 0.  1.
          2   -1    0    0  501    0  0.00000000000E+00 -0.00000000000E+00 -0.10736202463E+04  0.10736202463E+04  0.00000000000E+00 0. -1.
         24    2    1    2    0    0  0.86757690731E+02  0.26500151641E+03 -0.51994440482E+03  0.59563592150E+03  0.81775707187E+02 0.  0.
        254    2    1    2    0    0 -0.86757690731E+02 -0.26500151641E+03 -0.47285435237E+02  0.98437473111E+03  0.94287061587E+03 0.  0.
         23    2    4    4    0    0 -0.14391213720E+03 -0.33090252711E+03  0.38494946317E+03  0.53536093368E+03  0.90653485507E+02 0.  0.
         23    2    4    4    0    0  0.57154446472E+02  0.65901010696E+02 -0.43223489841E+03  0.44901379743E+03  0.84716048781E+02 0.  0.
          2    1    3    3  502    0  0.27654526931E+02  0.13378179855E+03 -0.33132048594E+03  0.35837913846E+03  0.00000000000E+00 0. -1.
         -1    1    3    3    0  502  0.59103163801E+02  0.13121971786E+03 -0.18862391888E+03  0.23725678304E+03  0.00000000000E+00 0.  1.
         13    1    5    5    0    0  0.13474625896E+01 -0.57498618911E+02  0.95788516050E+02  0.11172889796E+03  0.00000000000E+00 0.  1.
        -13    1    5    5    0    0 -0.14525959979E+03 -0.27340390820E+03  0.28916094712E+03  0.42363203572E+03  0.00000000000E+00 0. -1.
          3    1    6    6  503    0  0.41234957140E+02  0.86291177182E+02 -0.33281959061E+03  0.34628798542E+03  0.00000000000E+00 0. -1.
         -3    1    6    6    0  503  0.15919489332E+02 -0.20390166486E+02 -0.99415307796E+02  0.10272581201E+03  0.00000000000E+00 0.  1.
<mgrwt>
<rscale>  0 0.14746810E+04</rscale>
<asrwt>0</asrwt>
<pdfrwt beam="1">  1        2 0.16517234E+00 0.14746810E+04</pdfrwt>
<pdfrwt beam="2">  1       -1 0.77906218E-01 0.14746810E+04</pdfrwt>
<totfact> 0.41233319E+01</totfact>
</mgrwt>
</event>
<event>
12    7  0.1730932E-007  0.2627203E+04  0.7818608E-02  0.8359019E-01
          2   -1    0    0  501    0  0.00000000000E+00  0.00000000000E+00  0.29572283441E+04  0.29572283441E+04  0.00000000000E+00 0. -1.
         -1   -1    0    0    0  501 -0.00000000000E+00 -0.00000000000E+00 -0.58350220664E+03  0.58350220664E+03  0.00000000000E+00 0.  1.
         24    2    1    2    0    0  0.82693638242E+03 -0.20873031466E+03 -0.54227462871E+01  0.85670672301E+03  0.80776718467E+02 0.  0.
        254    2    1    2    0    0 -0.82693638242E+03  0.20873031466E+03  0.23791488837E+04  0.26840238277E+04  0.90346132845E+03 0.  0.
         23    2    4    4    0    0 -0.79830510811E+03  0.49066823737E+03  0.17181077681E+04  0.19591681571E+04  0.91647150610E+02 0.  0.
         23    2    4    4    0    0 -0.28631274304E+02 -0.28193792271E+03  0.66104111558E+03  0.72485567057E+03  0.90175631635E+02 0.  0.
          4    1    3    3  502    0  0.85738922221E+02 -0.10692749551E+02 -0.22624301779E+02  0.89316049552E+02  0.00000000000E+00 0. -1.
         -3    1    3    3    0  502  0.74119746020E+03 -0.19803756511E+03  0.17201555492E+02  0.76739067345E+03  0.00000000000E+00 0.  1.
         13    1    5    5    0    0 -0.53304847271E+03  0.37470312641E+03  0.11614658979E+04  0.13317455234E+04  0.00000000000E+00 0. -1.
        -13    1    5    5    0    0 -0.26525663541E+03  0.11596511096E+03  0.55664187027E+03  0.62742263374E+03  0.00000000000E+00 0.  1.
          1    1    6    6  503    0 -0.90011707010E+01 -0.24573340459E+03  0.61876813274E+03  0.66583776500E+03  0.00000000000E+00 0. -1.
         -1    1    6    6    0  503 -0.19630103603E+02 -0.36204518123E+02  0.42272982843E+02  0.59017905575E+02  0.00000000000E+00 0.  1.
<mgrwt>
<rscale>  0 0.26272033E+04</rscale>
<asrwt>0</asrwt>
<pdfrwt beam="1">  1        2 0.45495820E+00 0.26272033E+04</pdfrwt>
<pdfrwt beam="2">  1       -1 0.89769572E-01 0.26272033E+04</pdfrwt>
<totfact> 0.22567571E+00</totfact>
</mgrwt>
</event>
<event>
12    7  0.1730932E-007  0.1232975E+04  0.7818608E-02  0.9084473E-01
          2   -1    0    0  501    0  0.00000000000E+00  0.00000000000E+00  0.54182297847E+03  0.54182297847E+03  0.00000000000E+00 0. -1.
         -1   -1    0    0    0  501 -0.00000000000E+00 -0.00000000000E+00 -0.70144134080E+03  0.70144134080E+03  0.00000000000E+00 0.  1.
         24    2    1    2    0    0 -0.72993465694E+02  0.39427633570E+02 -0.31498328509E+03  0.33529184771E+03  0.79520871036E+02 0.  0.
        254    2    1    2    0    0  0.72993465694E+02 -0.39427633570E+02  0.15536492276E+03  0.90797247157E+03  0.89072620124E+03 0.  0.
         23    2    4    4    0    0  0.20787421557E+03 -0.27281740234E+03 -0.23570520183E+03  0.42456569210E+03  0.84012262326E+02 0.  0.
         23    2    4    4    0    0 -0.13488074987E+03  0.23338976877E+03  0.39107012459E+03  0.48340677947E+03  0.89903677516E+02 0.  0.
          2    1    3    3  502    0 -0.16552560552E+02  0.23255676361E+02 -0.23136830452E+03  0.23312251303E+03  0.00000000000E+00 0. -1.
         -1    1    3    3    0  502 -0.56440905142E+02  0.16171957209E+02 -0.83614980568E+02  0.10216933468E+03  0.00000000000E+00 0.  1.
         13    1    5    5    0    0  0.95819512089E+02 -0.12762788599E+03 -0.16050556988E+03  0.22634551938E+03  0.00000000000E+00 0. -1.
        -13    1    5    5    0    0  0.11205470348E+03 -0.14518951635E+03 -0.75199631951E+02  0.19822017272E+03  0.00000000000E+00 0.  1.
          1    1    6    6  503    0 -0.56253413953E+02  0.53630544086E+02  0.17537050826E+03  0.19182152384E+03  0.00000000000E+00 0. -1.
         -1    1    6    6    0  503 -0.78627335919E+02  0.17975922469E+03  0.21569961634E+03  0.29158525563E+03  0.00000000000E+00 0.  1.
<mgrwt>
<rscale>  0 0.12329753E+04</rscale>
<asrwt>0</asrwt>
<pdfrwt beam="1">  1        2 0.83357381E-01 0.12329753E+04</pdfrwt>
<pdfrwt beam="2">  1       -1 0.10791405E+00 0.12329753E+04</pdfrwt>
<totfact> 0.50392823E+01</totfact>
</mgrwt>
</event>
<event>
12    7  0.1730932E-007  0.3069457E+04  0.7818608E-02  0.8224170E-01
          2   -1    0    0  501    0  0.00000000000E+00  0.00000000000E+00  0.18154341897E+04  0.18154341897E+04  0.00000000000E+00 0. -1.
         -1   -1    0    0    0  501 -0.00000000000E+00 -0.00000000000E+00 -0.12974263354E+04  0.12974263354E+04  0.00000000000E+00 0.  1.
         24    2    1    2    0    0 -0.66644100852E+03 -0.10091669623E+04 -0.48239588474E+03  0.13043318632E+04  0.77551557428E+02 0.  0.
        254    2    1    2    0    0  0.66644100852E+03  0.10091669623E+04  0.10004037391E+04  0.18085286619E+04  0.89855812511E+03 0.  0.
         23    2    4    4    0    0 -0.26778794743E+02  0.66270378263E+03  0.21968004418E+03  0.70437916642E+03  0.89427517640E+02 0.  0.
         23    2    4    4    0    0  0.69321980326E+03  0.34646317964E+03  0.78072369494E+03  0.11041494955E+04  0.95006263569E+02 0.  0.
          4    1    3    3  502    0 -0.60338544774E+03 -0.90805005522E+03 -0.45882642170E+03  0.11828569595E+04  0.00000000000E+00 0. -1.
         -3    1    3    3    0  502 -0.63055560780E+02 -0.10111690705E+03 -0.23569463042E+02  0.12147490368E+03  0.00000000000E+00 0.  1.
         13    1    5    5    0    0  0.85352348482E+01  0.23784517568E+02 -0.57888597785E+01  0.25924205048E+02  0.00000000000E+00 0.  1.
        -13    1    5    5    0    0 -0.35314029591E+02  0.63891926507E+03  0.22546890396E+03  0.67845496137E+03  0.00000000000E+00 0. -1.
          2    1    6    6  503    0  0.17530917279E+03  0.13483546738E+03  0.23048909940E+03  0.31943564965E+03  0.00000000000E+00 0.  1.
         -2    1    6    6    0  503  0.51791063046E+03  0.21162771226E+03  0.55023459554E+03  0.78471384585E+03  0.00000000000E+00 0. -1.
<mgrwt>
<rscale>  0 0.30694574E+04</rscale>
<asrwt>0</asrwt>
<pdfrwt beam="1">  1        2 0.27929757E+00 0.30694574E+04</pdfrwt>
<pdfrwt beam="2">  1       -1 0.19960405E+00 0.30694574E+04</pdfrwt>
<totfact> 0.12410678E+00</totfact>
</mgrwt>
</event>
<event>
12    7  0.1730932E-007  0.1979176E+04  0.7818608E-02  0.8616419E-01
          2   -1    0    0  501    0  0.00000000000E+00  0.00000000000E+00  0.13820702219E+04  0.13820702219E+04  0.00000000000E+00 0. -1.
         -1   -1    0    0    0  501 -0.00000000000E+00 -0.00000000000E+00 -0.70856333936E+03  0.70856333936E+03  0.00000000000E+00 0.  1.
         24    2    1    2    0    0 -0.42080119076E+03 -0.65516697641E+03  0.21216435905E+03  0.81147668009E+03  0.84636150350E+02 0.  0.
        254    2    1    2    0    0  0.42080119076E+03  0.65516697641E+03  0.46134252350E+03  0.12791568812E+04  0.90392919721E+03 0.  0.
         23    2    4    4    0    0 -0.21050748745E+03 -0.60218068516E+01 -0.31038656347E+02  0.23666864690E+03  0.10343590193E+03 0.  0.
         23    2    4    4    0    0  0.63130867821E+03  0.66118878326E+03  0.49238117985E+03  0.10424882343E+04  0.92850622318E+02 0.  0.
          2    1    3    3  502    0 -0.15332899835E+03 -0.19118632388E+03  0.36081330407E+02  0.24771728761E+03  0.00000000000E+00 0. -1.
         -1    1    3    3    0  502 -0.26747219242E+03 -0.46398065253E+03  0.17608302864E+03  0.56375939248E+03  0.00000000000E+00 0.  1.
         13    1    5    5    0    0  0.11375335576E+02 -0.56993492127E+01 -0.23530657569E+01  0.12939001483E+02  0.00000000000E+00 0. -1.
        -13    1    5    5    0    0 -0.22188282302E+03 -0.32245763893E+00 -0.28685590590E+02  0.22372964542E+03  0.00000000000E+00 0.  1.
          2    1    6    6  503    0  0.10794099327E+03  0.16839699965E+03  0.10667474931E+03  0.22668989756E+03  0.00000000000E+00 0. -1.
         -2    1    6    6    0  503  0.52336768494E+03  0.49279178362E+03  0.38570643054E+03  0.81579833673E+03  0.00000000000E+00 0.  1.
<mgrwt>
<rscale>  0 0.19791759E+04</rscale>
<asrwt>0</asrwt>
<pdfrwt beam="1">  1        2 0.21262619E+00 0.19791759E+04</pdfrwt>
<pdfrwt beam="2">  1       -1 0.10900974E+00 0.19791759E+04</pdfrwt>
<totfact> 0.12253789E+01</totfact>
</mgrwt>
</event>
<event>
12    7  0.1730932E-007  0.5174805E+04  0.7818608E-02  0.7802093E-01
         -1   -1    0    0    0  501 -0.00000000000E+00  0.00000000000E+00  0.26800765282E+04  0.26800765282E+04  0.00000000000E+00 0.  1.
          2   -1    0    0  501    0  0.00000000000E+00 -0.00000000000E+00 -0.24979334687E+04  0.24979334687E+04  0.00000000000E+00 0. -1.
         24    2    1    2    0    0  0.13133770999E+04 -0.19172733049E+04 -0.85876755331E+03  0.24787726195E+04  0.77043213406E+02 0.  0.
        254    2    1    2    0    0 -0.13133770999E+04  0.19172733049E+04  0.10409106128E+04  0.26992373773E+04  0.89526039977E+03 0.  0.
         23    2    4    4    0    0 -0.61069518651E+02  0.26356114664E+03 -0.13155075689E+03  0.31469253834E+03  0.92367894459E+02 0.  0.
         23    2    4    4    0    0 -0.12523075812E+04  0.16537121582E+04  0.11724613697E+04  0.23845448390E+04  0.91379678081E+02 0.  0.
          2    1    3    3  502    0  0.11367810311E+04 -0.16987757871E+04 -0.74245224143E+03  0.21747058694E+04  0.00000000000E+00 0. -1.
         -1    1    3    3    0  502  0.17659606873E+03 -0.21849751776E+03 -0.11631531188E+03  0.30406675013E+03  0.00000000000E+00 0.  1.
         13    1    5    5    0    0 -0.47085334915E+02  0.25410992766E+03 -0.14196386842E+03  0.29486034667E+03  0.00000000000E+00 0.  1.
        -13    1    5    5    0    0 -0.13984183736E+02  0.94512189764E+01  0.10413111533E+02  0.19832191677E+02  0.00000000000E+00 0. -1.
          1    1    6    6  503    0 -0.21177972364E+03  0.22876172694E+03  0.16356955965E+03  0.35204769549E+03  0.00000000000E+00 0. -1.
         -1    1    6    6    0  503 -0.10405278576E+04  0.14249504313E+04  0.10088918100E+04  0.20324971435E+04  0.00000000000E+00 0.  1.
<mgrwt>
<rscale>  0 0.51748054E+04</rscale>
<asrwt>0</asrwt>
<pdfrwt beam="1">  1        2 0.38429746E+00 0.51748054E+04</pdfrwt>
<pdfrwt beam="2">  1       -1 0.41231947E+00 0.51748054E+04</pdfrwt>
<totfact> 0.16814136E-02</totfact>
</mgrwt>
</event>
<event>
12    7  0.1730932E-007  0.1587659E+04  0.7818608E-02  0.8828166E-01
          2   -1    0    0  501    0  0.00000000000E+00  0.00000000000E+00  0.67002681669E+03  0.67002681669E+03  0.00000000000E+00 0. -1.
         -1   -1    0    0    0  501 -0.00000000000E+00 -0.00000000000E+00 -0.94050698720E+03  0.94050698720E+03  0.00000000000E+00 0.  1.
         24    2    1    2    0    0 -0.18626925619E+03  0.25239415321E+03 -0.53368941184E+03  0.62390303346E+03  0.77663134601E+02 0.  0.
        254    2    1    2    0    0  0.18626925619E+03 -0.25239415321E+03  0.26320924132E+03  0.98663077043E+03  0.89764253914E+03 0.  0.
         23    2    4    4    0    0  0.74787820060E+02  0.25550399314E+03  0.35320389297E+03  0.45176939297E+03  0.92016769537E+02 0.  0.
         23    2    4    4    0    0  0.11148143613E+03 -0.50789814635E+03 -0.89994651650E+02  0.53486137747E+03  0.87114970662E+02 0.  0.
          2    1    3    3  502    0 -0.26106487575E+02  0.49804422826E+02 -0.48476342294E+02  0.74242743677E+02  0.00000000000E+00 0. -1.
         -1    1    3    3    0  502 -0.16016276862E+03  0.20258973038E+03 -0.48521306954E+03  0.54966028978E+03  0.00000000000E+00 0.  1.
         13    1    5    5    0    0  0.11578164821E+02  0.16740963427E+03  0.16991534205E+03  0.23881219192E+03  0.00000000000E+00 0. -1.
        -13    1    5    5    0    0  0.63209655239E+02  0.88094358871E+02  0.18328855092E+03  0.21295720105E+03  0.00000000000E+00 0.  1.
          1    1    6    6  503    0  0.89489640105E+02 -0.45174998096E+03 -0.10579550169E+03  0.47252421013E+03  0.00000000000E+00 0. -1.
         -1    1    6    6    0  503  0.21991796025E+02 -0.56148165390E+02  0.15800850045E+02  0.62337167333E+02  0.00000000000E+00 0.  1.
<mgrwt>
<rscale>  0 0.15876585E+04</rscale>
<asrwt>0</asrwt>
<pdfrwt beam="1">  1        2 0.10308105E+00 0.15876585E+04</pdfrwt>
<pdfrwt beam="2">  1       -1 0.14469338E+00 0.15876585E+04</pdfrwt>
<totfact> 0.18240488E+01</totfact>
</mgrwt>
</event>
<event>
12    7  0.1730932E-007  0.1707200E+04  0.7818608E-02  0.8757269E-01
         -1   -1    0    0    0  501 -0.00000000000E+00  0.00000000000E+00  0.48210945876E+03  0.48210945876E+03  0.00000000000E+00 0.  1.
          2   -1    0    0  501    0  0.00000000000E+00 -0.00000000000E+00 -0.15113428420E+04  0.15113428420E+04  0.00000000000E+00 0. -1.
         24    2    1    2    0    0  0.40488823368E+03 -0.25815337018E+03  0.70028243869E+02  0.49158592741E+03  0.78581962146E+02 0.  0.
        254    2    1    2    0    0 -0.40488823368E+03  0.25815337018E+03 -0.10992616271E+04  0.15018663734E+04  0.90368624771E+03 0.  0.
         23    2    4    4    0    0 -0.57149682021E+03  0.35055749596E+03 -0.43398303062E+03  0.80439000380E+03  0.95931401819E+02 0.  0.
         23    2    4    4    0    0  0.16660858653E+03 -0.92404125780E+02 -0.66527859652E+03  0.69747636959E+03  0.87067396806E+02 0.  0.
          2    1    3    3  502    0  0.60723007912E+02 -0.26818198013E+02 -0.15507654803E+02  0.68168810992E+02  0.00000000000E+00 0. -1.
         -1    1    3    3    0  502  0.34416522577E+03 -0.23133517217E+03  0.85535898671E+02  0.42341711641E+03  0.00000000000E+00 0.  1.
         13    1    5    5    0    0 -0.49242889987E+03  0.26164996660E+03 -0.34377183593E+03  0.65507709594E+03  0.00000000000E+00 0.  1.
        -13    1    5    5    0    0 -0.79067920340E+02  0.88907529365E+02 -0.90211194691E+02  0.14931290786E+03  0.00000000000E+00 0. -1.
          1    1    6    6  503    0  0.65214642486E+01 -0.18170953983E+02 -0.18142744990E+03  0.18245172689E+03  0.00000000000E+00 0. -1.
         -1    1    6    6    0  503  0.16008712228E+03 -0.74233171796E+02 -0.48385114662E+03  0.51502464271E+03  0.00000000000E+00 0.  1.
<mgrwt>
<rscale>  0 0.17071997E+04</rscale>
<asrwt>0</asrwt>
<pdfrwt beam="1">  1        2 0.23251428E+00 0.17071997E+04</pdfrwt>
<pdfrwt beam="2">  1       -1 0.74170687E-01 0.17071997E+04</pdfrwt>
<totfact> 0.24803776E+01</totfact>
</mgrwt>
</event>
<event>
12    7  0.1730932E-007  0.1419595E+04  0.7818608E-02  0.8939756E-01
          2   -1    0    0  501    0  0.00000000000E+00  0.00000000000E+00  0.31424375119E+04  0.31424375119E+04  0.00000000000E+00 0. -1.
         -1   -1    0    0    0  501 -0.00000000000E+00 -0.00000000000E+00 -0.16032528551E+03  0.16032528551E+03  0.00000000000E+00 0.  1.
         24    2    1    2    0    0  0.81056975155E+02 -0.35749632050E+03  0.35586970749E+03  0.51696532975E+03  0.78968671358E+02 0.  0.
        254    2    1    2    0    0 -0.81056975155E+02  0.35749632050E+03  0.26262425189E+04  0.27857974677E+04  0.85389923902E+03 0.  0.
         23    2    4    4    0    0 -0.30992068811E+03  0.49303618111E+03  0.12626654889E+04  0.13935635142E+04  0.92518227396E+02 0.  0.
         23    2    4    4    0    0  0.22886371295E+03 -0.13553986061E+03  0.13635770300E+04  0.13922339535E+04  0.90683028059E+02 0.  0.
          4    1    3    3  502    0  0.47029875042E+02 -0.15789392327E+03  0.10838947657E+03  0.19720694406E+03  0.00000000000E+00 0. -1.
         -3    1    3    3    0  502  0.34027100113E+02 -0.19960239723E+03  0.24748023092E+03  0.31975838569E+03  0.00000000000E+00 0.  1.
         13    1    5    5    0    0 -0.72263141879E+02  0.19818885122E+03  0.45327218059E+03  0.49995645022E+03  0.00000000000E+00 0.  1.
        -13    1    5    5    0    0 -0.23765754623E+03  0.29484732989E+03  0.80939330833E+03  0.89360706398E+03  0.00000000000E+00 0. -1.
          4    1    6    6  503    0  0.29844356752E+02  0.89478340272E+01  0.93205060541E+02  0.98274781476E+02  0.00000000000E+00 0. -1.
         -4    1    6    6    0  503  0.19901935620E+03 -0.14448769464E+03  0.12703719695E+04  0.12939591720E+04  0.00000000000E+00 0.  1.
<mgrwt>
<rscale>  0 0.14195946E+04</rscale>
<asrwt>0</asrwt>
<pdfrwt beam="1">  1        2 0.48345188E+00 0.14195946E+04</pdfrwt>
<pdfrwt beam="2">  1       -1 0.24665431E-01 0.14195946E+04</pdfrwt>
<totfact> 0.22665745E+01</totfact>
</mgrwt>
</event>
<event>
12    7  0.1730932E-007  0.2022313E+04  0.7818608E-02  0.8596259E-01
          2   -1    0    0  501    0  0.00000000000E+00  0.00000000000E+00  0.12849467406E+04  0.12849467406E+04  0.00000000000E+00 0. -1.
         -1   -1    0    0    0  501 -0.00000000000E+00 -0.00000000000E+00 -0.79570377238E+03  0.79570377238E+03  0.00000000000E+00 0.  1.
         24    2    1    2    0    0  0.28736468453E+03  0.70762203600E+03  0.46279489617E+03  0.89648976246E+03  0.78786867729E+02 0.  0.
        254    2    1    2    0    0 -0.28736468453E+03 -0.70762203600E+03  0.26448072008E+02  0.11841607505E+04  0.90456054230E+03 0.  0.
         23    2    4    4    0    0 -0.40135426623E+03 -0.42616432996E+02  0.23172111845E+03  0.47384389135E+03  0.89061491433E+02 0.  0.
         23    2    4    4    0    0  0.11398958169E+03 -0.66500560300E+03 -0.20527304644E+03  0.71031685912E+03  0.84775821969E+02 0.  0.
          2    1    3    3  502    0  0.63320894507E+02  0.11675446365E+03  0.11196485699E+03  0.17371606047E+03  0.00000000000E+00 0. -1.
         -1    1    3    3    0  502  0.22404379003E+03  0.59086757235E+03  0.35083003918E+03  0.72277370199E+03  0.00000000000E+00 0.  1.
         13    1    5    5    0    0 -0.39548708315E+03 -0.46283605820E+02  0.20821205073E+03  0.44933780520E+03  0.00000000000E+00 0.  1.
        -13    1    5    5    0    0 -0.58671830717E+01  0.36671728237E+01  0.23509067714E+02  0.24506086152E+02  0.00000000000E+00 0. -1.
          3    1    6    6  503    0  0.78513039240E+01 -0.24163474722E+03 -0.97894522850E+02  0.26083008194E+03  0.00000000000E+00 0. -1.
         -3    1    6    6    0  503  0.10613827777E+03 -0.42337085578E+03 -0.10737852359E+03  0.44948677718E+03  0.00000000000E+00 0.  1.
<mgrwt>
<rscale>  0 0.20223125E+04</rscale>
<asrwt>0</asrwt>
<pdfrwt beam="1">  1        2 0.19768411E+00 0.20223125E+04</pdfrwt>
<pdfrwt beam="2">  1       -1 0.12241597E+00 0.20223125E+04</pdfrwt>
<totfact> 0.10512372E+01</totfact>
</mgrwt>
</event>
<event>
12    7  0.1730932E-007  0.1331220E+04  0.7818608E-02  0.9005167E-01
         -1   -1    0    0    0  501 -0.00000000000E+00  0.00000000000E+00  0.84198188861E+03  0.84198188861E+03  0.00000000000E+00 0.  1.
          2   -1    0    0  501    0  0.00000000000E+00 -0.00000000000E+00 -0.52618338662E+03  0.52618338662E+03  0.00000000000E+00 0. -1.
         24    2    1    2    0    0 -0.33676775272E+03 -0.21328107507E+03 -0.29205447055E+02  0.40762231518E+03  0.80010358344E+02 0.  0.
        254    2    1    2    0    0  0.33676775272E+03  0.21328107507E+03  0.34500394905E+03  0.96054296005E+03  0.80294066841E+03 0.  0.
         23    2    4    4    0    0 -0.43222107605E+02 -0.13925366493E+03  0.39593750614E+03  0.43161038563E+03  0.90891597166E+02 0.  0.
         23    2    4    4    0    0  0.37998986032E+03  0.35253474000E+03 -0.50933557091E+02  0.52893257442E+03  0.92208482202E+02 0.  0.
          2    1    3    3  502    0 -0.31925650866E+03 -0.19319856563E+03 -0.46211048430E+02  0.37601311823E+03  0.00000000000E+00 0. -1.
         -1    1    3    3    0  502 -0.17511244058E+02 -0.20082509437E+02  0.17005601375E+02  0.31609196951E+02  0.00000000000E+00 0.  1.
         13    1    5    5    0    0  0.46177516211E+00 -0.12307881294E+03  0.25449625993E+03  0.28269586794E+03  0.00000000000E+00 0.  1.
        -13    1    5    5    0    0 -0.43683882768E+02 -0.16174851988E+02  0.14144124621E+03  0.14891451769E+03  0.00000000000E+00 0. -1.
          1    1    6    6  503    0  0.12739390076E+03  0.89548556717E+02 -0.52355817536E+02  0.16428414894E+03  0.00000000000E+00 0. -1.
         -1    1    6    6    0  503  0.25259595956E+03  0.26298618328E+03  0.14222604447E+01  0.36464842548E+03  0.00000000000E+00 0.  1.
<mgrwt>
<rscale>  0 0.13312203E+04</rscale>
<asrwt>0</asrwt>
<pdfrwt beam="1">  1        2 0.80951291E-01 0.13312203E+04</pdfrwt>
<pdfrwt beam="2">  1       -1 0.12953567E+00 0.13312203E+04</pdfrwt>
<totfact> 0.33205143E+01</totfact>
</mgrwt>
</event>
<event>
12    7  0.1730932E-007  0.1668979E+04  0.7818608E-02  0.8779258E-01
          2   -1    0    0  501    0  0.00000000000E+00  0.00000000000E+00  0.16098197452E+04  0.16098197452E+04  0.00000000000E+00 0. -1.
         -1   -1    0    0    0  501 -0.00000000000E+00 -0.00000000000E+00 -0.43257781683E+03  0.43257781683E+03  0.00000000000E+00 0.  1.
         24    2    1    2    0    0  0.16411027674E+03 -0.16350348396E+03  0.10995843848E+04  0.11264194730E+04  0.77906595347E+02 0.  0.
        254    2    1    2    0    0 -0.16411027674E+03  0.16350348396E+03  0.77657543548E+02  0.91597808903E+03  0.88279079816E+03 0.  0.
         23    2    4    4    0    0 -0.29235678881E+03  0.41205139348E+02  0.41929764414E+03  0.52115038876E+03  0.92827031914E+02 0.  0.
         23    2    4    4    0    0  0.12824651207E+03  0.12229834461E+03 -0.34164010059E+03  0.39482770027E+03  0.88130026776E+02 0.  0.
          2    1    3    3  502    0  0.17208422374E+03 -0.16189494648E+03  0.10618017060E+04  0.10877710313E+04  0.00000000000E+00 0. -1.
         -1    1    3    3    0  502 -0.79739469951E+01 -0.16085374809E+01  0.37782678818E+02  0.38648441653E+02  0.00000000000E+00 0.  1.
         13    1    5    5    0    0 -0.64180140375E+02  0.44470286629E+02  0.14176887105E+03  0.16184903339E+03  0.00000000000E+00 0.  1.
        -13    1    5    5    0    0 -0.22817664843E+03 -0.32651472814E+01  0.27752877309E+03  0.35930135537E+03  0.00000000000E+00 0. -1.
          3    1    6    6  503    0  0.55718598258E+02  0.10651942308E+03 -0.17396536549E+03  0.21145897492E+03  0.00000000000E+00 0. -1.
         -3    1    6    6    0  503  0.72527913809E+02  0.15778921535E+02 -0.16767473510E+03  0.18336872535E+03  0.00000000000E+00 0.  1.
<mgrwt>
<rscale>  0 0.16689785E+04</rscale>
<asrwt>0</asrwt>
<pdfrwt beam="1">  1        2 0.24766457E+00 0.16689785E+04</pdfrwt>
<pdfrwt beam="2">  1       -1 0.66550434E-01 0.16689785E+04</pdfrwt>
<totfact> 0.27376312E+01</totfact>
</mgrwt>
</event>
<event>
12    7  0.1730932E-007  0.2265964E+04  0.7818608E-02  0.8491463E-01
          2   -1    0    0  501    0  0.00000000000E+00  0.00000000000E+00  0.14664864347E+04  0.14664864347E+04  0.00000000000E+00 0. -1.
         -1   -1    0    0    0  501 -0.00000000000E+00 -0.00000000000E+00 -0.87532205793E+03  0.87532205793E+03  0.00000000000E+00 0.  1.
         24    2    1    2    0    0 -0.57609631276E+03 -0.29543597063E+03 -0.45887639697E+03  0.79765776893E+03  0.80752673727E+02 0.  0.
        254    2    1    2    0    0  0.57609631276E+03  0.29543597063E+03  0.10500407737E+04  0.15441507237E+04  0.92878762731E+03 0.  0.
         23    2    4    4    0    0 -0.32109269293E+02  0.45325514441E+03  0.26309758086E+03  0.53295572332E+03  0.91379619491E+02 0.  0.
         23    2    4    4    0    0  0.60820558205E+03 -0.15781917378E+03  0.78694319287E+03  0.10111950004E+04  0.91732318741E+02 0.  0.
          2    1    3    3  502    0 -0.43373069754E+02 -0.10797335129E+02 -0.11886616732E+02  0.46250376032E+02  0.00000000000E+00 0. -1.
         -3    1    3    3    0  502 -0.53272324301E+03 -0.28463863550E+03 -0.44698978024E+03  0.75140739289E+03  0.00000000000E+00 0.  1.
         13    1    5    5    0    0 -0.55292153714E+02  0.37857361310E+03  0.19577514385E+03  0.42977099687E+03  0.00000000000E+00 0. -1.
        -13    1    5    5    0    0  0.23182884421E+02  0.74681531307E+02  0.67322437003E+02  0.10318472645E+03  0.00000000000E+00 0.  1.
          1    1    6    6  503    0  0.49308955335E+03 -0.11444104802E+03  0.68307847267E+03  0.85019424893E+03  0.00000000000E+00 0. -1.
         -1    1    6    6    0  503  0.11511602870E+03 -0.43378125756E+02  0.10386472020E+03  0.16100075143E+03  0.00000000000E+00 0.  1.
<mgrwt>
<rscale>  0 0.22659637E+04</rscale>
<asrwt>0</asrwt>
<pdfrwt beam="1">  1        2 0.22561330E+00 0.22659637E+04</pdfrwt>
<pdfrwt beam="2">  1       -1 0.13466493E+00 0.22659637E+04</pdfrwt>
<totfact> 0.63675881E+00</totfact>
</mgrwt>
</event>
<event>
12    7  0.1730932E-007  0.1502819E+04  0.7818608E-02  0.8882581E-01
         -1   -1    0    0    0  501 -0.00000000000E+00  0.00000000000E+00  0.92489265271E+03  0.92489265271E+03  0.00000000000E+00 0.  1.
          2   -1    0    0  501    0  0.00000000000E+00 -0.00000000000E+00 -0.61046670247E+03  0.61046670247E+03  0.00000000000E+00 0. -1.
         24    2    1    2    0    0  0.13118662769E+03  0.51845466424E+02 -0.36935472860E+03  0.40364635974E+03  0.81299351279E+02 0.  0.
        254    2    1    2    0    0 -0.13118662769E+03 -0.51845466424E+02  0.68378067884E+03  0.11317129954E+04  0.89068535613E+03 0.  0.
         23    2    4    4    0    0 -0.20969856865E+03 -0.40552433300E+03  0.57969612757E+03  0.74424659224E+03  0.97118048745E+02 0.  0.
         23    2    4    4    0    0  0.78511940959E+02  0.35367886658E+03  0.10408455126E+03  0.38746640320E+03  0.89686979299E+02 0.  0.
          2    1    3    3  502    0  0.13344569752E+03  0.39761246399E+02 -0.36491001459E+03  0.39057397462E+03  0.00000000000E+00 0. -1.
         -1    1    3    3    0  502 -0.22590698283E+01  0.12084220025E+02 -0.44447140090E+01  0.13072385120E+02  0.00000000000E+00 0.  1.
         13    1    5    5    0    0 -0.24386024851E+02 -0.39865966308E+02  0.11748907139E+03  0.12644230057E+03  0.00000000000E+00 0. -1.
        -13    1    5    5    0    0 -0.18531254380E+03 -0.36565836670E+03  0.46220705618E+03  0.61780429167E+03  0.00000000000E+00 0.  1.
          1    1    6    6  503    0 -0.18263950215E+02  0.38472796675E+02  0.20733182812E+02  0.47366579261E+02  0.00000000000E+00 0. -1.
         -1    1    6    6    0  503  0.96775891175E+02  0.31520606991E+03  0.83351368452E+02  0.34009982393E+03  0.00000000000E+00 0.  1.
<mgrwt>
<rscale>  0 0.15028189E+04</rscale>
<asrwt>0</asrwt>
<pdfrwt beam="1">  1        2 0.93917954E-01 0.15028189E+04</pdfrwt>
<pdfrwt beam="2">  1       -1 0.14229118E+00 0.15028189E+04</pdfrwt>
<totfact> 0.21533018E+01</totfact>
</mgrwt>
</event>
<event>
12    7  0.1730932E-007  0.1487594E+04  0.7818608E-02  0.8892745E-01
          2   -1    0    0  501    0  0.00000000000E+00  0.00000000000E+00  0.82946992810E+03  0.82946992810E+03  0.00000000000E+00 0. -1.
         -1   -1    0    0    0  501 -0.00000000000E+00 -0.00000000000E+00 -0.66697326825E+03  0.66697326825E+03  0.00000000000E+00 0.  1.
         24    2    1    2    0    0 -0.67275520963E+02 -0.39971010283E+03 -0.18041361026E+03  0.45101463613E+03  0.81061514996E+02 0.  0.
        254    2    1    2    0    0  0.67275520963E+02  0.39971010283E+03  0.34291027010E+03  0.10454285602E+04  0.90057718112E+03 0.  0.
         23    2    4    4    0    0 -0.19202591644E+03  0.20136464904E+03  0.56663766202E+03  0.63943981582E+03  0.10189879080E+03 0.  0.
         23    2    4    4    0    0  0.25930143740E+03  0.19834545379E+03 -0.22372739192E+03  0.40598874441E+03  0.90524914874E+02 0.  0.
          4    1    3    3  502    0  0.17130591367E+02 -0.47608758963E+02 -0.13817738448E+02  0.52449794913E+02  0.00000000000E+00 0. -1.
         -3    1    3    3    0  502 -0.84406112330E+02 -0.35210134387E+03 -0.16659587181E+03  0.39856484122E+03  0.00000000000E+00 0.  1.
         13    1    5    5    0    0 -0.19499560081E+03  0.15608461667E+03  0.49852879994E+03  0.55759901028E+03  0.00000000000E+00 0.  1.
        -13    1    5    5    0    0  0.29696843759E+01  0.45280032377E+02  0.68108862079E+02  0.81840805538E+02  0.00000000000E+00 0. -1.
          3    1    6    6  503    0 -0.36487890833E+01  0.72887942281E+01 -0.21960850919E+02  0.23424755200E+02  0.00000000000E+00 0. -1.
         -3    1    6    6    0  503  0.26295022648E+03  0.19105665956E+03 -0.20176654100E+03  0.38256398921E+03  0.00000000000E+00 0.  1.
<mgrwt>
<rscale>  0 0.14875944E+04</rscale>
<asrwt>0</asrwt>
<pdfrwt beam="1">  1        2 0.12761076E+00 0.14875944E+04</pdfrwt>
<pdfrwt beam="2">  1       -1 0.10261127E+00 0.14875944E+04</pdfrwt>
<totfact> 0.32546586E+01</totfact>
</mgrwt>
</event>
<event>
12    7  0.1730932E-007  0.1785883E+04  0.7818608E-02  0.8713843E-01
          2   -1    0    0  501    0  0.00000000000E+00  0.00000000000E+00  0.51418756654E+03  0.51418756654E+03  0.00000000000E+00 0. -1.
         -1   -1    0    0    0  501 -0.00000000000E+00 -0.00000000000E+00 -0.15506884909E+04  0.15506884909E+04  0.00000000000E+00 0.  1.
         24    2    1    2    0    0 -0.49153938829E+03 -0.28643926171E+02 -0.91049332037E+03  0.10382488534E+04  0.80815533020E+02 0.  0.
        254    2    1    2    0    0  0.49153938829E+03  0.28643926171E+02 -0.12600760398E+03  0.10266272040E+04  0.89199442547E+03 0.  0.
         23    2    4    4    0    0 -0.13382451545E+03  0.27844407925E+03  0.47106905303E+02  0.32524120267E+03  0.90125874095E+02 0.  0.
         23    2    4    4    0    0  0.62536390374E+03 -0.24980015308E+03 -0.17311450929E+03  0.70138600137E+03  0.92160517684E+02 0.  0.
          2    1    3    3  502    0 -0.32594088651E+01 -0.92604606235E+01 -0.12375941031E+02  0.15796955198E+02  0.00000000000E+00 0. -1.
         -1    1    3    3    0  502 -0.48827997942E+03 -0.19383465547E+02 -0.89811737934E+03  0.10224518982E+04  0.00000000000E+00 0.  1.
         13    1    5    5    0    0 -0.14556965042E+03  0.25129353494E+03  0.32425543032E+02  0.29221632341E+03  0.00000000000E+00 0. -1.
        -13    1    5    5    0    0  0.11745134973E+02  0.27150544307E+02  0.14681362272E+02  0.33024879256E+02  0.00000000000E+00 0.  1.
          3    1    6    6  503    0  0.36924713944E+03 -0.11614658368E+03 -0.13520276343E+03  0.41001617788E+03  0.00000000000E+00 0. -1.
         -3    1    6    6    0  503  0.25611676430E+03 -0.13365356940E+03 -0.37911745856E+02  0.29136982349E+03  0.00000000000E+00 0.  1.
<mgrwt>
<rscale>  0 0.17858832E+04</rscale>
<asrwt>0</asrwt>
<pdfrwt beam="1">  1        2 0.79105781E-01 0.17858832E+04</pdfrwt>
<pdfrwt beam="2">  1       -1 0.23856746E+00 0.17858832E+04</pdfrwt>
<totfact> 0.53330620E+00</totfact>
</mgrwt>
</event>
<event>
12    7  0.1730932E-007  0.1863379E+04  0.7818608E-02  0.8673303E-01
          2   -1    0    0  501    0  0.00000000000E+00  0.00000000000E+00  0.75558813333E+03  0.75558813333E+03  0.00000000000E+00 0. -1.
         -1   -1    0    0    0  501 -0.00000000000E+00 -0.00000000000E+00 -0.11488342950E+04  0.11488342950E+04  0.00000000000E+00 0.  1.
         24    2    1    2    0    0 -0.15193147828E+03  0.10418410905E+03  0.53425053355E+03  0.57321572606E+03  0.95995486038E+02 0.  0.
        254    2    1    2    0    0  0.15193147828E+03 -0.10418410905E+03 -0.92749669522E+03  0.13312067023E+04  0.93697580645E+03 0.  0.
         23    2    4    4    0    0 -0.31304631736E+02 -0.20176671289E+03 -0.10500897237E+04  0.10736720336E+04  0.91615618375E+02 0.  0.
         23    2    4    4    0    0  0.18323611001E+03  0.97582603839E+02  0.12259302847E+03  0.25753466868E+03  0.90538491040E+02 0.  0.
          2    1    3    3  502    0 -0.14461114545E+03  0.63123440409E+02  0.47674026203E+03  0.50217350544E+03  0.00000000000E+00 0. -1.
         -1    1    3    3    0  502 -0.73203328224E+01  0.41060668640E+02  0.57510271513E+02  0.71042220625E+02  0.00000000000E+00 0.  1.
         13    1    5    5    0    0 -0.38229451380E+02 -0.13155211270E+03 -0.47786785110E+03  0.49711681970E+03  0.00000000000E+00 0. -1.
        -13    1    5    5    0    0  0.69248196432E+01 -0.70214600186E+02 -0.57222187258E+03  0.57655521390E+03  0.00000000000E+00 0.  1.
          4    1    6    6  503    0  0.21134760435E+02  0.34565392574E+02 -0.63773498469E+01  0.41013595960E+02  0.00000000000E+00 0. -1.
         -4    1    6    6    0  503  0.16210134958E+03  0.63017211264E+02  0.12897037831E+03  0.21652107272E+03  0.00000000000E+00 0.  1.
<mgrwt>
<rscale>  0 0.18633793E+04</rscale>
<asrwt>0</asrwt>
<pdfrwt beam="1">  1        2 0.11624433E+00 0.18633793E+04</pdfrwt>
<pdfrwt beam="2">  1       -1 0.17674374E+00 0.18633793E+04</pdfrwt>
<totfact> 0.87481830E+00</totfact>
</mgrwt>
</event>
<event>
12    7  0.1730932E-007  0.1752987E+04  0.7818608E-02  0.8731708E-01
         -1   -1    0    0    0  501 -0.00000000000E+00  0.00000000000E+00  0.11265453777E+04  0.11265453777E+04  0.00000000000E+00 0.  1.
          2   -1    0    0  501    0  0.00000000000E+00 -0.00000000000E+00 -0.68194426367E+03  0.68194426367E+03  0.00000000000E+00 0. -1.
         24    2    1    2    0    0 -0.60218150941E+03 -0.16770384726E+03  0.20790872999E+03  0.66375079954E+03  0.81190721263E+02 0.  0.
        254    2    1    2    0    0  0.60218150941E+03  0.16770384726E+03  0.23669238407E+03  0.11447388419E+04  0.92933125457E+03 0.  0.
         23    2    4    4    0    0  0.32855760097E+02 -0.15375111033E+03  0.42202172823E+03  0.45953706180E+03  0.91395115650E+02 0.  0.
         23    2    4    4    0    0  0.56932574932E+03  0.32145495759E+03 -0.18532934417E+03  0.68520178007E+03  0.87689309512E+02 0.  0.
          4    1    3    3  502    0 -0.22562512502E+03 -0.75060735447E+02  0.39783031416E+02  0.24108815946E+03  0.00000000000E+00 0. -1.
         -3    1    3    3    0  502 -0.37655638439E+03 -0.92643111817E+02  0.16812569857E+03  0.42266264008E+03  0.00000000000E+00 0.  1.
         13    1    5    5    0    0  0.47681777807E+02 -0.56545988281E+02  0.11136885018E+03  0.13369376020E+03  0.00000000000E+00 0. -1.
        -13    1    5    5    0    0 -0.14826017710E+02 -0.97205122046E+02  0.31065287805E+03  0.32584330160E+03  0.00000000000E+00 0.  1.
          4    1    6    6  503    0  0.56561084023E+03  0.32058378801E+03 -0.17368155201E+03  0.67294492288E+03  0.00000000000E+00 0.  1.
         -4    1    6    6    0  503  0.37149090815E+01  0.87116958354E+00 -0.11647792156E+02  0.12256857184E+02  0.00000000000E+00 0. -1.
<mgrwt>
<rscale>  0 0.17529873E+04</rscale>
<asrwt>0</asrwt>
<pdfrwt beam="1">  1        2 0.10491450E+00 0.17529873E+04</pdfrwt>
<pdfrwt beam="2">  1       -1 0.17331467E+00 0.17529873E+04</pdfrwt>
<totfact> 0.10662261E+01</totfact>
</mgrwt>
</event>
<event>
12    7  0.1730932E-007  0.1768397E+04  0.7818608E-02  0.8723289E-01
         -1   -1    0    0    0  501 -0.00000000000E+00  0.00000000000E+00  0.52592280465E+03  0.52592280465E+03  0.00000000000E+00 0.  1.
          2   -1    0    0  501    0  0.00000000000E+00 -0.00000000000E+00 -0.14865427485E+04  0.14865427485E+04  0.00000000000E+00 0. -1.
         24    2    1    2    0    0 -0.71473274956E+02 -0.48518324304E+03  0.14106917632E+03  0.51673127515E+03  0.81237244217E+02 0.  0.
        254    2    1    2    0    0  0.71473274956E+02  0.48518324304E+03 -0.11016891201E+04  0.14957342780E+04  0.88486773276E+03 0.  0.
         23    2    4    4    0    0 -0.63985981085E+02  0.65575394080E+03 -0.10698310720E+04  0.12593030039E+04  0.84841594814E+02 0.  0.
         23    2    4    4    0    0  0.13545925604E+03 -0.17057069776E+03 -0.31858048102E+02  0.23643127409E+03  0.86262617393E+02 0.  0.
          2    1    3    3  502    0 -0.30846276126E+02 -0.71631082901E+02  0.45669317674E+02  0.90378046921E+02  0.00000000000E+00 0. -1.
         -1    1    3    3    0  502 -0.40626998830E+02 -0.41355216014E+03  0.95399858648E+02  0.42635322823E+03  0.00000000000E+00 0.  1.
         13    1    5    5    0    0 -0.20930136522E+02  0.22439502010E+03 -0.44503850321E+03  0.49884914053E+03  0.00000000000E+00 0.  1.
        -13    1    5    5    0    0 -0.43055844562E+02  0.43135892070E+03 -0.62479256881E+03  0.76045386333E+03  0.00000000000E+00 0. -1.
          4    1    6    6  503    0  0.10552046422E+03 -0.76575335060E+02  0.66170266858E+01  0.13054552980E+03  0.00000000000E+00 0.  1.
         -4    1    6    6    0  503  0.29938791821E+02 -0.93995362699E+02 -0.38475074788E+02  0.10588574429E+03  0.00000000000E+00 0. -1.
<mgrwt>
<rscale>  0 0.17683967E+04</rscale>
<asrwt>0</asrwt>
<pdfrwt beam="1">  1        2 0.22869888E+00 0.17683967E+04</pdfrwt>
<pdfrwt beam="2">  1       -1 0.80911201E-01 0.17683967E+04</pdfrwt>
<totfact> 0.21213147E+01</totfact>
</mgrwt>
</event>
<event>
12    7  0.1730932E-007  0.1528338E+04  0.7818608E-02  0.8865824E-01
          2   -1    0    0  501    0  0.00000000000E+00  0.00000000000E+00  0.24481951674E+04  0.24481951674E+04  0.00000000000E+00 0. -1.
         -1   -1    0    0    0  501 -0.00000000000E+00 -0.00000000000E+00 -0.23852447122E+03  0.23852447122E+03  0.00000000000E+00 0.  1.
         24    2    1    2    0    0 -0.47255748205E+03  0.64307006819E+02  0.50192171072E+03  0.69913715000E+03  0.97063823624E+02 0.  0.
        254    2    1    2    0    0  0.47255748205E+03 -0.64307006819E+02  0.17077489855E+04  0.19875824886E+04  0.89812670976E+03 0.  0.
         23    2    4    4    0    0  0.71161951516E+03  0.30472016399E+02  0.14172573559E+04  0.15890357758E+04  0.95317395023E+02 0.  0.
         23    2    4    4    0    0 -0.23906203311E+03 -0.94779023218E+02  0.29049162963E+03  0.39854671288E+03  0.91216098088E+02 0.  0.
          2    1    3    3  502    0 -0.42805107700E+03  0.28458648182E+02  0.43180960150E+03  0.60868477156E+03  0.00000000000E+00 0. -1.
         -1    1    3    3    0  502 -0.44506405045E+02  0.35848358636E+02  0.70112109219E+02  0.90452378443E+02  0.00000000000E+00 0.  1.
         13    1    5    5    0    0  0.70674075335E+03  0.24701340195E+02  0.14136460116E+04  0.15806605249E+04  0.00000000000E+00 0. -1.
        -13    1    5    5    0    0  0.48787618061E+01  0.57706762042E+01  0.36113442306E+01  0.83752509077E+01  0.00000000000E+00 0.  1.
          4    1    6    6  503    0 -0.22395437213E+03 -0.95012864332E+02  0.22512928461E+03  0.33146070654E+03  0.00000000000E+00 0. -1.
         -4    1    6    6    0  503 -0.15107660972E+02  0.23384111422E+00  0.65362345015E+02  0.67086006346E+02  0.00000000000E+00 0.  1.
<mgrwt>
<rscale>  0 0.15283383E+04</rscale>
<asrwt>0</asrwt>
<pdfrwt beam="1">  1        2 0.37664539E+00 0.15283383E+04</pdfrwt>
<pdfrwt beam="2">  1       -1 0.36696074E-01 0.15283383E+04</pdfrwt>
<totfact> 0.29247608E+01</totfact>
</mgrwt>
</event>
<event>
12    7  0.1730932E-007  0.1115564E+04  0.7818608E-02  0.9190153E-01
         -1   -1    0    0    0  501 -0.00000000000E+00  0.00000000000E+00  0.10368974843E+04  0.10368974843E+04  0.00000000000E+00 0.  1.
          2   -1    0    0  501    0  0.00000000000E+00 -0.00000000000E+00 -0.30004980940E+03  0.30004980940E+03  0.00000000000E+00 0. -1.
         24    2    1    2    0    0  0.10299702976E+03  0.60840629098E+02 -0.65655392337E+02  0.15760929731E+03  0.78867545717E+02 0.  0.
        254    2    1    2    0    0 -0.10299702976E+03 -0.60840629098E+02  0.80250306727E+03  0.11793379964E+04  0.85587205033E+03 0.  0.
         23    2    4    4    0    0  0.12252921534E+03  0.21336717474E+03 -0.35446571083E+02  0.26467915220E+03  0.90882530456E+02 0.  0.
         23    2    4    4    0    0 -0.22552624510E+03 -0.27420780384E+03  0.83794963836E+03  0.91465884422E+03  0.91592565067E+02 0.  0.
          2    1    3    3  502    0  0.85815173828E+02  0.44758404626E+02 -0.10145235332E+02  0.97316415078E+02  0.00000000000E+00 0. -1.
         -1    1    3    3    0  502  0.17181855933E+02  0.16082224473E+02 -0.55510157005E+02  0.60292882233E+02  0.00000000000E+00 0.  1.
         13    1    5    5    0    0  0.56888002514E+02  0.32846889399E+02  0.12106691468E+02  0.66796219590E+02  0.00000000000E+00 0. -1.
        -13    1    5    5    0    0  0.65641212824E+02  0.18052028534E+03 -0.47553262552E+02  0.19788293261E+03  0.00000000000E+00 0.  1.
          2    1    6    6  503    0 -0.95244640514E+01 -0.52441619686E+02  0.82272245807E+02  0.98028369979E+02  0.00000000000E+00 0. -1.
         -2    1    6    6    0  503 -0.21600178105E+03 -0.22176618415E+03  0.75567739255E+03  0.81663047424E+03  0.00000000000E+00 0.  1.
<mgrwt>
<rscale>  0 0.11155642E+04</rscale>
<asrwt>0</asrwt>
<pdfrwt beam="1">  1        2 0.46161510E-01 0.11155642E+04</pdfrwt>
<pdfrwt beam="2">  1       -1 0.15952269E+00 0.11155642E+04</pdfrwt>
<totfact> 0.36774337E+01</totfact>
</mgrwt>
</event>
<event>
12    7  0.1730932E-007  0.4813342E+04  0.7818608E-02  0.7857964E-01
         -1   -1    0    0    0  501 -0.00000000000E+00  0.00000000000E+00  0.19617745442E+04  0.19617745442E+04  0.00000000000E+00 0.  1.
          2   -1    0    0  501    0  0.00000000000E+00 -0.00000000000E+00 -0.29524621027E+04  0.29524621027E+04  0.00000000000E+00 0. -1.
         24    2    1    2    0    0 -0.37417390052E+03 -0.80949723514E+03  0.16988920406E+04  0.19204101230E+04  0.80305624402E+02 0.  0.
        254    2    1    2    0    0  0.37417390052E+03  0.80949723514E+03 -0.26895795992E+04  0.29938265239E+04  0.96636791829E+03 0.  0.
         23    2    4    4    0    0  0.30069150152E+02  0.11833816075E+03 -0.18238438485E+04  0.18302056319E+04  0.91313729547E+02 0.  0.
         23    2    4    4    0    0  0.34410475036E+03  0.69115907440E+03 -0.86573575066E+03  0.11636208920E+04  0.91685576980E+02 0.  0.
          2    1    3    3  502    0 -0.27958745669E+00  0.19361264431E+01  0.32791408143E+01  0.38183136631E+01  0.00000000000E+00 0. -1.
         -1    1    3    3    0  502 -0.37389431306E+03 -0.81143336159E+03  0.16956128998E+04  0.19165918093E+04  0.00000000000E+00 0.  1.
         13    1    5    5    0    0  0.60131413327E+02  0.95666430667E+02 -0.12346357279E+04  0.12397956418E+04  0.00000000000E+00 0.  1.
        -13    1    5    5    0    0 -0.30062263175E+02  0.22671730078E+02 -0.58920812055E+03  0.59040999004E+03  0.00000000000E+00 0. -1.
          1    1    6    6  503    0  0.30927272393E+03  0.65007187157E+03 -0.77243578799E+03  0.10558883002E+04  0.00000000000E+00 0. -1.
         -1    1    6    6    0  503  0.34832026430E+02  0.41087202832E+02 -0.93299962669E+02  0.10773259180E+03  0.00000000000E+00 0.  1.
<mgrwt>
<rscale>  0 0.48133419E+04</rscale>
<asrwt>0</asrwt>
<pdfrwt beam="1">  1        2 0.45422494E+00 0.48133419E+04</pdfrwt>
<pdfrwt beam="2">  1       -1 0.30181147E+00 0.48133419E+04</pdfrwt>
<totfact> 0.50303438E-02</totfact>
</mgrwt>
</event>
<event>
12    7  0.1730932E-007  0.1420341E+04  0.7818608E-02  0.8939225E-01
          2   -1    0    0  501    0  0.00000000000E+00  0.00000000000E+00  0.16010150480E+04  0.16010150480E+04  0.00000000000E+00 0. -1.
         -1   -1    0    0    0  501 -0.00000000000E+00 -0.00000000000E+00 -0.31501416322E+03  0.31501416322E+03  0.00000000000E+00 0.  1.
         24    2    1    2    0    0  0.78770542388E+02  0.34154985426E+03  0.73055195820E+02  0.36686647520E+03  0.79955285608E+02 0.  0.
        254    2    1    2    0    0 -0.78770542388E+02 -0.34154985426E+03  0.12129456890E+04  0.15491627360E+04  0.89766744233E+03 0.  0.
         23    2    4    4    0    0  0.51032618141E+02  0.21516390865E+03  0.42221839760E+02  0.24316298036E+03  0.91900574320E+02 0.  0.
         23    2    4    4    0    0 -0.12980316053E+03 -0.55671376292E+03  0.11707238492E+04  0.13059997557E+04  0.90895304654E+02 0.  0.
          2    1    3    3  502    0  0.75356491174E+02  0.34328551267E+03  0.78587124475E+02  0.36013814031E+03  0.00000000000E+00 0. -1.
         -1    1    3    3    0  502  0.34140512141E+01 -0.17356584086E+01 -0.55319286550E+01  0.67283348941E+01  0.00000000000E+00 0.  1.
         13    1    5    5    0    0  0.46471119178E+02  0.22362750626E+03  0.34851801955E+02  0.23104864114E+03  0.00000000000E+00 0. -1.
        -13    1    5    5    0    0  0.45614989634E+01 -0.84635976083E+01  0.73700378044E+01  0.12114339211E+02  0.00000000000E+00 0.  1.
          2    1    6    6  503    0 -0.76998176422E+02 -0.47222169418E+03  0.94312599351E+03  0.10575484326E+04  0.00000000000E+00 0. -1.
         -2    1    6    6    0  503 -0.52804984108E+02 -0.84492068735E+02  0.22759785571E+03  0.24845132310E+03  0.00000000000E+00 0.  1.
<mgrwt>
<rscale>  0 0.14203414E+04</rscale>
<asrwt>0</asrwt>
<pdfrwt beam="1">  1        2 0.24631000E+00 0.14203414E+04</pdfrwt>
<pdfrwt beam="2">  1       -1 0.48463718E-01 0.14203414E+04</pdfrwt>
<totfact> 0.52521919E+01</totfact>
</mgrwt>
</event>
<event>
12    7  0.1730932E-007  0.2400753E+04  0.7818608E-02  0.8439222E-01
         -3   -1    0    0    0  501 -0.00000000000E+00  0.00000000000E+00  0.14836973476E+04  0.14836973476E+04  0.00000000000E+00 0.  1.
          4   -1    0    0  501    0  0.00000000000E+00 -0.00000000000E+00 -0.97115716313E+03  0.97115716313E+03  0.00000000000E+00 0. -1.
         24    2    1    2    0    0  0.36613494465E+03 -0.15359425584E+03 -0.75201354581E+03  0.85392861545E+03  0.77612589723E+02 0.  0.
        254    2    1    2    0    0 -0.36613494465E+03  0.15359425584E+03  0.12645537302E+04  0.16009258952E+04  0.89789843092E+03 0.  0.
         23    2    4    4    0    0  0.59059176996E+02  0.44420610299E+03  0.62133918589E+03  0.77185583407E+03  0.94297382466E+02 0.  0.
         23    2    4    4    0    0 -0.42519412164E+03 -0.29061184715E+03  0.64321454435E+03  0.82907006117E+03  0.91580180546E+02 0.  0.
          4    1    3    3  502    0  0.34163052532E+03 -0.13134847652E+03 -0.64155063927E+03  0.73861428422E+03  0.00000000000E+00 0. -1.
         -3    1    3    3    0  502  0.24504419324E+02 -0.22245779317E+02 -0.11046290655E+03  0.11531433123E+03  0.00000000000E+00 0.  1.
         13    1    5    5    0    0  0.71812589214E+02  0.43498032224E+03  0.58737121032E+03  0.73441804677E+03  0.00000000000E+00 0.  1.
        -13    1    5    5    0    0 -0.12753412218E+02  0.92257807548E+01  0.33967975570E+02  0.37437787302E+02  0.00000000000E+00 0. -1.
          3    1    6    6  503    0 -0.78287909044E+02 -0.96060321971E+02  0.12753068787E+03  0.17782198544E+03  0.00000000000E+00 0. -1.
         -3    1    6    6    0  503 -0.34690621260E+03 -0.19455152518E+03  0.51568385649E+03  0.65124807572E+03  0.00000000000E+00 0.  1.
<mgrwt>
<rscale>  0 0.24007526E+04</rscale>
<asrwt>0</asrwt>
<pdfrwt beam="1">  1        4 0.14940879E+00 0.24007526E+04</pdfrwt>
<pdfrwt beam="2">  1       -3 0.22826113E+00 0.24007526E+04</pdfrwt>
<totfact> 0.60643743E-02</totfact>
</mgrwt>
</event>
<event>
12    7  0.1730932E-007  0.1819511E+04  0.7818608E-02  0.8695992E-01
         -1   -1    0    0    0  501 -0.00000000000E+00  0.00000000000E+00  0.27510649356E+03  0.27510649356E+03  0.00000000000E+00 0.  1.
          2   -1    0    0  501    0  0.00000000000E+00 -0.00000000000E+00 -0.30084888864E+04  0.30084888864E+04  0.00000000000E+00 0. -1.
         24    2    1    2    0    0  0.61646297796E+03  0.28311780955E+03 -0.15831975585E+04  0.17242585680E+04  0.79817308048E+02 0.  0.
        254    2    1    2    0    0 -0.61646297796E+03 -0.28311780955E+03 -0.11501848343E+04  0.15593368120E+04  0.80524769035E+03 0.  0.
         23    2    4    4    0    0  0.15101300416E+01  0.54588956649E+02 -0.72250656477E+03  0.73028337812E+03  0.91191236093E+02 0.  0.
         23    2    4    4    0    0 -0.61797310801E+03 -0.33770676620E+03 -0.42767826952E+03  0.82905343384E+03  0.92110106894E+02 0.  0.
          2    1    3    3  502    0  0.54561039869E+03  0.24221932104E+03 -0.13216195923E+04  0.14501859375E+04  0.00000000000E+00 0. -1.
         -1    1    3    3    0  502  0.70852579272E+02  0.40898488513E+02 -0.26157796625E+03  0.27407263048E+03  0.00000000000E+00 0.  1.
         13    1    5    5    0    0  0.24457004561E+01  0.56219728672E+02 -0.72498883473E+03  0.72716947806E+03  0.00000000000E+00 0.  1.
        -13    1    5    5    0    0 -0.93557041450E+00 -0.16307720232E+01  0.24822699612E+01  0.31139000550E+01  0.00000000000E+00 0. -1.
          3    1    6    6  503    0 -0.76411117622E+02 -0.72871051305E+02 -0.43506569961E+02  0.11420013417E+03  0.00000000000E+00 0. -1.
         -3    1    6    6    0  503 -0.54156199038E+03 -0.26483571489E+03 -0.38417169956E+03  0.71485329968E+03  0.00000000000E+00 0.  1.
<mgrwt>
<rscale>  0 0.18195107E+04</rscale>
<asrwt>0</asrwt>
<pdfrwt beam="1">  1        2 0.46284446E+00 0.18195107E+04</pdfrwt>
<pdfrwt beam="2">  1       -1 0.42324074E-01 0.18195107E+04</pdfrwt>
<totfact> 0.10169040E+01</totfact>
</mgrwt>
</event>
<event>
12    7  0.1730932E-007  0.1922918E+04  0.7818608E-02  0.8643532E-01
          2   -1    0    0  501    0  0.00000000000E+00  0.00000000000E+00  0.15096384142E+04  0.15096384142E+04  0.00000000000E+00 0. -1.
         -1   -1    0    0    0  501 -0.00000000000E+00 -0.00000000000E+00 -0.61233449373E+03  0.61233449373E+03  0.00000000000E+00 0.  1.
         24    2    1    2    0    0 -0.61216014103E+01 -0.39389369065E+03  0.10551673873E+04  0.11288073929E+04  0.75087958907E+02 0.  0.
        254    2    1    2    0    0  0.61216014103E+01  0.39389369065E+03 -0.15786346682E+03  0.99316551502E+03  0.89792380107E+03 0.  0.
         23    2    4    4    0    0  0.10079314219E+03  0.59035436388E+03 -0.34061175049E+03  0.69492162079E+03  0.90676138027E+02 0.  0.
         23    2    4    4    0    0 -0.94671540782E+02 -0.19646067323E+03  0.18274828367E+03  0.29824389422E+03  0.89403515007E+02 0.  0.
          2    1    3    3  502    0 -0.39959733723E+02 -0.17243116828E+03  0.46580731835E+03  0.49830286568E+03  0.00000000000E+00 0. -1.
         -1    1    3    3    0  502  0.33838132312E+02 -0.22146252237E+03  0.58936006891E+03  0.63050452721E+03  0.00000000000E+00 0.  1.
         13    1    5    5    0    0  0.73047175591E+02  0.18347185991E+03 -0.12328415521E+03  0.23280205361E+03  0.00000000000E+00 0. -1.
        -13    1    5    5    0    0  0.27745966601E+02  0.40688250397E+03 -0.21732759529E+03  0.46211956718E+03  0.00000000000E+00 0.  1.
          3    1    6    6  503    0 -0.11045090670E+03 -0.15211134933E+03  0.15466200260E+03  0.24342884059E+03  0.00000000000E+00 0. -1.
         -3    1    6    6    0  503  0.15779365921E+02 -0.44349323907E+02  0.28086281075E+02  0.54815053631E+02  0.00000000000E+00 0.  1.
<mgrwt>
<rscale>  0 0.19229183E+04</rscale>
<asrwt>0</asrwt>
<pdfrwt beam="1">  1        2 0.23225206E+00 0.19229183E+04</pdfrwt>
<pdfrwt beam="2">  1       -1 0.94205307E-01 0.19229183E+04</pdfrwt>
<totfact> 0.14569707E+01</totfact>
</mgrwt>
</event>
<event>
12    7  0.1730932E-007  0.1795749E+04  0.7818608E-02  0.8708563E-01
         -1   -1    0    0    0  501 -0.00000000000E+00  0.00000000000E+00  0.34644862868E+03  0.34644862868E+03  0.00000000000E+00 0.  1.
          2   -1    0    0  501    0  0.00000000000E+00 -0.00000000000E+00 -0.23269795981E+04  0.23269795981E+04  0.00000000000E+00 0. -1.
         24    2    1    2    0    0 -0.16696703947E+03 -0.43217555477E+03 -0.37182827540E+02  0.47576682120E+03  0.10157658730E+03 0.  0.
        254    2    1    2    0    0  0.16696703947E+03  0.43217555477E+03 -0.19433481419E+04  0.21976614056E+04  0.91567458775E+03 0.  0.
         23    2    4    4    0    0 -0.24707100531E+03 -0.10082947309E+03 -0.26668734241E+03  0.38788684843E+03  0.90129929952E+02 0.  0.
         23    2    4    4    0    0  0.41403804478E+03  0.53300502786E+03 -0.16766607995E+04  0.18097745572E+04  0.92577799692E+02 0.  0.
          2    1    3    3  502    0 -0.53779288820E+01 -0.52720034870E+01 -0.17304271419E+02  0.18872041468E+02  0.00000000000E+00 0. -1.
         -1    1    3    3    0  502 -0.16158911058E+03 -0.42690355128E+03 -0.19878556121E+02  0.45689477973E+03  0.00000000000E+00 0.  1.
         13    1    5    5    0    0 -0.11658698802E+03 -0.58360876076E+02 -0.19076560966E+03  0.23106283877E+03  0.00000000000E+00 0. -1.
        -13    1    5    5    0    0 -0.13048401729E+03 -0.42468597016E+02 -0.75921732743E+02  0.15682400965E+03  0.00000000000E+00 0.  1.
          1    1    6    6  503    0  0.39733359011E+03  0.52936828707E+03 -0.16054615977E+04  0.17365516712E+04  0.00000000000E+00 0. -1.
         -1    1    6    6    0  503  0.16704454666E+02  0.36367407917E+01 -0.71199201794E+02  0.73222885940E+02  0.00000000000E+00 0.  1.
<mgrwt>
<rscale>  0 0.17957493E+04</rscale>
<asrwt>0</asrwt>
<pdfrwt beam="1">  1        2 0.35799686E+00 0.17957493E+04</pdfrwt>
<pdfrwt beam="2">  1       -1 0.53299790E-01 0.17957493E+04</pdfrwt>
<totfact> 0.16719717E+01</totfact>
</mgrwt>
</event>
<event>
12    7  0.1730932E-007  0.2284170E+04  0.7818608E-02  0.8484189E-01
          2   -1    0    0  501    0  0.00000000000E+00  0.00000000000E+00  0.12856248755E+04  0.12856248755E+04  0.00000000000E+00 0. -1.
         -1   -1    0    0    0  501 -0.00000000000E+00 -0.00000000000E+00 -0.10145714557E+04  0.10145714557E+04  0.00000000000E+00 0.  1.
         24    2    1    2    0    0  0.81085772154E+03  0.43070808552E+03 -0.16393293692E+03  0.93616710794E+03  0.80840253999E+02 0.  0.
        254    2    1    2    0    0 -0.81085772154E+03 -0.43070808552E+03  0.43498635679E+03  0.13640292233E+04  0.91014443460E+03 0.  0.
         23    2    4    4    0    0 -0.29149204232E+03 -0.23605270708E+03 -0.26332938386E+03  0.46760771373E+03  0.92876898525E+02 0.  0.
         23    2    4    4    0    0 -0.51936567921E+03 -0.19465537844E+03  0.69831574065E+03  0.89642150953E+03  0.91078120427E+02 0.  0.
          4    1    3    3  502    0  0.42065963140E+03  0.21392603745E+03 -0.44090207776E+02  0.47398609833E+03  0.00000000000E+00 0. -1.
         -3    1    3    3    0  502  0.39019809014E+03  0.21678204807E+03 -0.11984272915E+03  0.46218100961E+03  0.00000000000E+00 0.  1.
         13    1    5    5    0    0  0.12991293988E+01  0.57906486969E+01 -0.81439066210E+01  0.10076833063E+02  0.00000000000E+00 0.  1.
        -13    1    5    5    0    0 -0.29279117172E+03 -0.24184335577E+03 -0.25518547724E+03  0.45753088067E+03  0.00000000000E+00 0. -1.
          3    1    6    6  503    0 -0.33318065313E+03 -0.16178427876E+03  0.50222885407E+03  0.62403310996E+03  0.00000000000E+00 0. -1.
         -3    1    6    6    0  503 -0.18618502608E+03 -0.32871099679E+02  0.19608688658E+03  0.27238839957E+03  0.00000000000E+00 0.  1.
<mgrwt>
<rscale>  0 0.22841701E+04</rscale>
<asrwt>0</asrwt>
<pdfrwt beam="1">  1        2 0.19778844E+00 0.22841701E+04</pdfrwt>
<pdfrwt beam="2">  1       -1 0.15608792E+00 0.22841701E+04</pdfrwt>
<totfact> 0.54589429E+00</totfact>
</mgrwt>
</event>
<event>
12    7  0.1730932E-007  0.2360987E+04  0.7818608E-02  0.8454255E-01
          2   -1    0    0  501    0  0.00000000000E+00  0.00000000000E+00  0.18541791255E+04  0.18541791255E+04  0.00000000000E+00 0. -1.
         -1   -1    0    0    0  501 -0.00000000000E+00 -0.00000000000E+00 -0.75158060198E+03  0.75158060198E+03  0.00000000000E+00 0.  1.
         24    2    1    2    0    0 -0.91118086229E+03 -0.41752254391E+03  0.59673903836E+03  0.11692773817E+04  0.80848481038E+02 0.  0.
        254    2    1    2    0    0  0.91118086229E+03  0.41752254391E+03  0.50585948513E+03  0.14364823458E+04  0.89610940882E+03 0.  0.
         23    2    4    4    0    0  0.96187192175E+03  0.29616443272E+03  0.11826248568E+03  0.10175304578E+04  0.92039405010E+02 0.  0.
         23    2    4    4    0    0 -0.50691059457E+02  0.12135811119E+03  0.38759699945E+03  0.41895188794E+03  0.89397291676E+02 0.  0.
          2    1    3    3  502    0 -0.84332043912E+03 -0.37267065745E+03  0.52603980690E+03  0.10615039616E+04  0.00000000000E+00 0. -1.
         -1    1    3    3    0  502 -0.67860423173E+02 -0.44851886458E+02  0.70699231457E+02  0.10777342010E+03  0.00000000000E+00 0.  1.
         13    1    5    5    0    0  0.42705845801E+03  0.10786236041E+03  0.11800924626E+02  0.44062736771E+03  0.00000000000E+00 0.  1.
        -13    1    5    5    0    0  0.53481346373E+03  0.18830207231E+03  0.10646156105E+03  0.57690309014E+03  0.00000000000E+00 0. -1.
          3    1    6    6  503    0 -0.11330465007E+01 -0.56756903699E+01 -0.20455216596E+01  0.61385189100E+01  0.00000000000E+00 0. -1.
         -3    1    6    6    0  503 -0.49558012956E+02  0.12703380156E+03  0.38964252111E+03  0.41281336903E+03  0.00000000000E+00 0.  1.
<mgrwt>
<rscale>  0 0.23609871E+04</rscale>
<asrwt>0</asrwt>
<pdfrwt beam="1">  1        2 0.28525833E+00 0.23609871E+04</pdfrwt>
<pdfrwt beam="2">  1       -1 0.11562779E+00 0.23609871E+04</pdfrwt>
<totfact> 0.56010332E+00</totfact>
</mgrwt>
</event>
<event>
12    7  0.1730932E-007  0.1404695E+04  0.7818608E-02  0.8950427E-01
         -1   -1    0    0    0  501 -0.00000000000E+00  0.00000000000E+00  0.51087912668E+03  0.51087912668E+03  0.00000000000E+00 0.  1.
          2   -1    0    0  501    0  0.00000000000E+00 -0.00000000000E+00 -0.96557438454E+03  0.96557438454E+03  0.00000000000E+00 0. -1.
         24    2    1    2    0    0  0.11992022833E+03  0.39294203982E+03 -0.15560180366E+03  0.44667966519E+03  0.80786720306E+02 0.  0.
        254    2    1    2    0    0 -0.11992022833E+03 -0.39294203982E+03 -0.29909345420E+03  0.10297738460E+04  0.89565226053E+03 0.  0.
         23    2    4    4    0    0  0.14035584155E+03 -0.47413749299E+03  0.12447895058E+03  0.51817108221E+03  0.92196186424E+02 0.  0.
         23    2    4    4    0    0 -0.26027606988E+03  0.81195453170E+02 -0.42357240478E+03  0.51160276381E+03  0.89372656192E+02 0.  0.
          2    1    3    3  502    0  0.85617741642E+01  0.23690309155E+02 -0.33942105858E+02  0.42268206430E+02  0.00000000000E+00 0. -1.
         -3    1    3    3    0  502  0.11135845417E+03  0.36925173066E+03 -0.12165969780E+03  0.40441145876E+03  0.00000000000E+00 0.  1.
         13    1    5    5    0    0  0.53241936109E+02 -0.29901079328E+03  0.10609708278E+03  0.32171221493E+03  0.00000000000E+00 0.  1.
        -13    1    5    5    0    0  0.87113905444E+02 -0.17512669970E+03  0.18381867799E+02  0.19645886728E+03  0.00000000000E+00 0. -1.
          3    1    6    6  503    0 -0.13124685336E+03  0.19079034348E+02 -0.13389088270E+03  0.18845825676E+03  0.00000000000E+00 0. -1.
         -3    1    6    6    0  503 -0.12902921652E+03  0.62116418823E+02 -0.28968152208E+03  0.32314450705E+03  0.00000000000E+00 0.  1.
<mgrwt>
<rscale>  0 0.14046947E+04</rscale>
<asrwt>0</asrwt>
<pdfrwt beam="1">  1        2 0.14854990E+00 0.14046947E+04</pdfrwt>
<pdfrwt beam="2">  1       -1 0.78596790E-01 0.14046947E+04</pdfrwt>
<totfact> 0.47697742E+01</totfact>
</mgrwt>
</event>
<event>
12    7  0.1730932E-007  0.1477820E+04  0.7818608E-02  0.8899338E-01
          2   -1    0    0  501    0  0.00000000000E+00  0.00000000000E+00  0.55081080694E+03  0.55081080694E+03  0.00000000000E+00 0. -1.
         -1   -1    0    0    0  501 -0.00000000000E+00 -0.00000000000E+00 -0.99124403414E+03  0.99124403414E+03  0.00000000000E+00 0.  1.
         24    2    1    2    0    0 -0.36914917694E+02 -0.48954211741E+03 -0.14739276106E+03  0.51858952253E+03  0.78716395970E+02 0.  0.
        254    2    1    2    0    0  0.36914917694E+02  0.48954211741E+03 -0.29304046614E+03  0.10234653186E+04  0.84887828788E+03 0.  0.
         23    2    4    4    0    0  0.29244432245E+03  0.56950112464E+03 -0.48223491281E+02  0.64844137256E+03  0.91079612613E+02 0.  0.
         23    2    4    4    0    0 -0.25552940475E+03 -0.79959007233E+02 -0.24481697485E+03  0.37502394600E+03  0.94967833309E+02 0.  0.
          2    1    3    3  502    0  0.62004663852E+01 -0.33516616942E+02  0.77778153221E+01  0.34961461723E+02  0.00000000000E+00 0. -1.
         -1    1    3    3    0  502 -0.43115384080E+02 -0.45602550047E+03 -0.15517057639E+03  0.48362806081E+03  0.00000000000E+00 0.  1.
         13    1    5    5    0    0  0.62242852691E+02  0.10921477408E+03  0.26311055901E+02  0.12843018045E+03  0.00000000000E+00 0. -1.
        -13    1    5    5    0    0  0.23020146976E+03  0.46028635056E+03 -0.74534547182E+02  0.52001119211E+03  0.00000000000E+00 0.  1.
          4    1    6    6  503    0 -0.15836749915E+02  0.83962274271E+01  0.40550321824E+01  0.18377773774E+02  0.00000000000E+00 0. -1.
         -4    1    6    6    0  503 -0.23969265484E+03 -0.88355234660E+02 -0.24887200704E+03  0.35664617222E+03  0.00000000000E+00 0.  1.
<mgrwt>
<rscale>  0 0.14778199E+04</rscale>
<asrwt>0</asrwt>
<pdfrwt beam="1">  1        2 0.84740124E-01 0.14778199E+04</pdfrwt>
<pdfrwt beam="2">  1       -1 0.15249908E+00 0.14778199E+04</pdfrwt>
<totfact> 0.20281923E+01</totfact>
</mgrwt>
</event>
<event>
12    7  0.1730932E-007  0.2158212E+04  0.7818608E-02  0.8536025E-01
          2   -1    0    0  501    0  0.00000000000E+00  0.00000000000E+00  0.30481454186E+04  0.30481454186E+04  0.00000000000E+00 0. -1.
         -1   -1    0    0    0  501 -0.00000000000E+00 -0.00000000000E+00 -0.38202561344E+03  0.38202561344E+03  0.00000000000E+00 0.  1.
         24    2    1    2    0    0 -0.66828220036E+03  0.56994041260E+03  0.10554672227E+04  0.13754254683E+04  0.79693083108E+02 0.  0.
        254    2    1    2    0    0  0.66828220036E+03 -0.56994041260E+03  0.16106525825E+04  0.20547455637E+04  0.92538879233E+03 0.  0.
         23    2    4    4    0    0  0.79647948888E+03 -0.66178376649E+03  0.15432548442E+04  0.18606361080E+04  0.89408514727E+02 0.  0.
         23    2    4    4    0    0 -0.12819728853E+03  0.91843353891E+02  0.67397738230E+02  0.19410945567E+03  0.90919080625E+02 0.  0.
          2    1    3    3  502    0 -0.42571819268E+03  0.37973823843E+03  0.74001479516E+03  0.93437626594E+03  0.00000000000E+00 0. -1.
         -1    1    3    3    0  502 -0.24256400767E+03  0.19020217417E+03  0.31545242752E+03  0.44104920237E+03  0.00000000000E+00 0.  1.
         13    1    5    5    0    0  0.15793033795E+02 -0.95826033092E+01  0.54286528902E+02  0.57343468877E+02  0.00000000000E+00 0.  1.
        -13    1    5    5    0    0  0.78068645509E+03 -0.65220116318E+03  0.14889683153E+04  0.18032926392E+04  0.00000000000E+00 0. -1.
          1    1    6    6  503    0 -0.14110840246E+03  0.84579401331E+02  0.51519347519E+02  0.17239344403E+03  0.00000000000E+00 0. -1.
         -1    1    6    6    0  503  0.12911113938E+02  0.72639525596E+01  0.15878390712E+02  0.21716011639E+02  0.00000000000E+00 0.  1.
<mgrwt>
<rscale>  0 0.21582119E+04</rscale>
<asrwt>0</asrwt>
<pdfrwt beam="1">  1        2 0.46894543E+00 0.21582119E+04</pdfrwt>
<pdfrwt beam="2">  1       -1 0.58773173E-01 0.21582119E+04</pdfrwt>
<totfact> 0.49801346E+00</totfact>
</mgrwt>
</event>
<event>
12    7  0.1730932E-007  0.2374276E+04  0.7818608E-02  0.8449197E-01
          2   -1    0    0  501    0  0.00000000000E+00  0.00000000000E+00  0.26951438484E+04  0.26951438484E+04  0.00000000000E+00 0. -1.
         -1   -1    0    0    0  501 -0.00000000000E+00 -0.00000000000E+00 -0.52290220800E+03  0.52290220800E+03  0.00000000000E+00 0.  1.
         24    2    1    2    0    0 -0.32040931411E+03  0.22883819195E+03  0.21979895521E+04  0.22343919668E+04  0.79500586323E+02 0.  0.
        254    2    1    2    0    0  0.32040931411E+03 -0.22883819195E+03 -0.25747911721E+02  0.98365408963E+03  0.90104570718E+03 0.  0.
         23    2    4    4    0    0  0.32182510003E+03 -0.55144960179E+03  0.25689152083E+02  0.64458090331E+03  0.84596395036E+02 0.  0.
         23    2    4    4    0    0 -0.14157859191E+01  0.32261140984E+03 -0.51437063804E+02  0.33907318633E+03  0.90800484271E+02 0.  0.
          2    1    3    3  502    0 -0.30567786556E+03  0.19633348059E+03  0.20641030057E+04  0.20958308642E+04  0.00000000000E+00 0. -1.
         -1    1    3    3    0  502 -0.14731448545E+02  0.32504711355E+02  0.13388654644E+03  0.13856110260E+03  0.00000000000E+00 0.  1.
         13    1    5    5    0    0  0.15073366306E+03 -0.19660040762E+03  0.36968216399E+02  0.25047755684E+03  0.00000000000E+00 0. -1.
        -13    1    5    5    0    0  0.17109143696E+03 -0.35484919417E+03 -0.11279064316E+02  0.39410334647E+03  0.00000000000E+00 0.  1.
          3    1    6    6  503    0 -0.17574721031E+02  0.36179669449E+02 -0.32232573612E+02  0.51543943412E+02  0.00000000000E+00 0. -1.
         -3    1    6    6    0  503  0.16158935112E+02  0.28643174039E+03 -0.19204490192E+02  0.28752924291E+03  0.00000000000E+00 0.  1.
<mgrwt>
<rscale>  0 0.23742760E+04</rscale>
<asrwt>0</asrwt>
<pdfrwt beam="1">  1        2 0.41463751E+00 0.23742760E+04</pdfrwt>
<pdfrwt beam="2">  1       -1 0.80446495E-01 0.23742760E+04</pdfrwt>
<totfact> 0.42244116E+00</totfact>
</mgrwt>
</event>
<event>
12    7  0.1730932E-007  0.2231226E+04  0.7818608E-02  0.8505543E-01
          2   -1    0    0  501    0  0.00000000000E+00  0.00000000000E+00  0.25141766541E+04  0.25141766541E+04  0.00000000000E+00 0. -1.
         -1   -1    0    0    0  501 -0.00000000000E+00 -0.00000000000E+00 -0.49502966706E+03  0.49502966706E+03  0.00000000000E+00 0.  1.
         24    2    1    2    0    0 -0.92772185002E+03 -0.33851646494E+02  0.93503625496E+03  0.13197068384E+04  0.74293849981E+02 0.  0.
        254    2    1    2    0    0  0.92772185002E+03  0.33851646494E+02  0.10841107321E+04  0.16894994828E+04  0.90404571678E+03 0.  0.
         23    2    4    4    0    0  0.94954354359E+03  0.27825625150E+03  0.66756354413E+03  0.11970125348E+04  0.90213304801E+02 0.  0.
         23    2    4    4    0    0 -0.21821693569E+02 -0.24440460501E+03  0.41654718798E+03  0.49248694802E+03  0.93925698810E+02 0.  0.
          4    1    3    3  502    0 -0.65237223077E+03 -0.41745453324E+02  0.69779634882E+03  0.95616523404E+03  0.00000000000E+00 0. -1.
         -3    1    3    3    0  502 -0.27534961925E+03  0.78938068300E+01  0.23723990613E+03  0.36354160432E+03  0.00000000000E+00 0.  1.
         13    1    5    5    0    0  0.41178978882E+03  0.13798523382E+03  0.24304368728E+03  0.49767558596E+03  0.00000000000E+00 0. -1.
        -13    1    5    5    0    0  0.53775375477E+03  0.14027101768E+03  0.42451985685E+03  0.69933694885E+03  0.00000000000E+00 0.  1.
          4    1    6    6  503    0  0.63414567158E+01 -0.73904278973E+01 -0.26586144437E+01  0.10094589073E+02  0.00000000000E+00 0. -1.
         -4    1    6    6    0  503 -0.28163150285E+02 -0.23701417711E+03  0.41920580242E+03  0.48239235895E+03  0.00000000000E+00 0.  1.
<mgrwt>
<rscale>  0 0.22312257E+04</rscale>
<asrwt>0</asrwt>
<pdfrwt beam="1">  1        2 0.38679640E+00 0.22312257E+04</pdfrwt>
<pdfrwt beam="2">  1       -1 0.76158412E-01 0.22312257E+04</pdfrwt>
<totfact> 0.61354232E+00</totfact>
</mgrwt>
</event>
<event>
12    7  0.1730932E-007  0.1575473E+04  0.7818608E-02  0.8835759E-01
          2   -1    0    0  501    0  0.00000000000E+00  0.00000000000E+00  0.11406654414E+04  0.11406654414E+04  0.00000000000E+00 0. -1.
         -1   -1    0    0    0  501 -0.00000000000E+00 -0.00000000000E+00 -0.54400594963E+03  0.54400594963E+03  0.00000000000E+00 0.  1.
         24    2    1    2    0    0 -0.35912073394E+03  0.23979959556E+03 -0.70717817273E+01  0.44008758656E+03  0.84590343243E+02 0.  0.
        254    2    1    2    0    0  0.35912073394E+03 -0.23979959556E+03  0.60373127346E+03  0.12445838044E+04  0.99901243642E+03 0.  0.
         23    2    4    4    0    0 -0.66865692123E+02 -0.13867466172E+03  0.75227197178E+03  0.77335100122E+03  0.91961779970E+02 0.  0.
         23    2    4    4    0    0  0.42598642606E+03 -0.10112493385E+03 -0.14854069832E+03  0.47123280321E+03  0.91133574134E+02 0.  0.
          2    1    3    3  502    0 -0.34713133255E+03  0.20564340101E+03 -0.15847322956E+01  0.40347475979E+03  0.00000000000E+00 0. -1.
         -1    1    3    3    0  502 -0.11989401390E+02  0.34156194557E+02 -0.54870494316E+01  0.36612826766E+02  0.00000000000E+00 0.  1.
         13    1    5    5    0    0  0.17912124089E+02 -0.24295380421E+02  0.67597775979E+02  0.74030865296E+02  0.00000000000E+00 0. -1.
        -13    1    5    5    0    0 -0.84777816213E+02 -0.11437928130E+03  0.68467419580E+03  0.69932013592E+03  0.00000000000E+00 0.  1.
          2    1    6    6  503    0  0.15371953490E+02  0.18543879216E+01 -0.26448632034E+02  0.30647444349E+02  0.00000000000E+00 0. -1.
         -2    1    6    6    0  503  0.41061447257E+03 -0.10297932177E+03 -0.12209206629E+03  0.44058535886E+03  0.00000000000E+00 0.  1.
<mgrwt>
<rscale>  0 0.15754730E+04</rscale>
<asrwt>0</asrwt>
<pdfrwt beam="1">  1        2 0.17548699E+00 0.15754730E+04</pdfrwt>
<pdfrwt beam="2">  1       -1 0.83693223E-01 0.15754730E+04</pdfrwt>
<totfact> 0.31913953E+01</totfact>
</mgrwt>
</event>
<event>
12    7  0.1730932E-007  0.1424619E+04  0.7818608E-02  0.8936188E-01
         -1   -1    0    0    0  501 -0.00000000000E+00  0.00000000000E+00  0.10569336617E+04  0.10569336617E+04  0.00000000000E+00 0.  1.
          2   -1    0    0  501    0  0.00000000000E+00 -0.00000000000E+00 -0.48005394595E+03  0.48005394595E+03  0.00000000000E+00 0. -1.
         24    2    1    2    0    0 -0.23738103684E+03  0.33943167108E+03  0.11973916376E+03  0.43871912481E+03  0.81076427863E+02 0.  0.
        254    2    1    2    0    0  0.23738103684E+03 -0.33943167108E+03  0.45714055194E+03  0.10982684828E+04  0.90865425772E+03 0.  0.
         23    2    4    4    0    0 -0.13283742619E+03 -0.47882767632E+03  0.25400535629E+02  0.50552632300E+03  0.89386523747E+02 0.  0.
         23    2    4    4    0    0  0.37021846303E+03  0.13939600524E+03  0.43174001631E+03  0.59274215979E+03  0.91928611765E+02 0.  0.
          4    1    3    3  502    0 -0.10813666298E+03  0.12197927702E+03  0.83571688048E+02  0.18318490371E+03  0.00000000000E+00 0. -1.
         -3    1    3    3    0  502 -0.12924437386E+03  0.21745239406E+03  0.36167475710E+02  0.25553422110E+03  0.00000000000E+00 0.  1.
         13    1    5    5    0    0 -0.65250980670E+02 -0.26936428344E+03  0.57626270322E+02  0.28308231083E+03  0.00000000000E+00 0. -1.
        -13    1    5    5    0    0 -0.67586445522E+02 -0.20946339288E+03 -0.32225734693E+02  0.22244401218E+03  0.00000000000E+00 0.  1.
          4    1    6    6  503    0  0.37084406280E+03  0.14567988386E+03  0.41720760023E+03  0.57689698315E+03  0.00000000000E+00 0. -1.
         -4    1    6    6    0  503 -0.62559976917E+00 -0.62838786228E+01  0.14532416079E+02  0.15845176639E+02  0.00000000000E+00 0.  1.
<mgrwt>
<rscale>  0 0.14246195E+04</rscale>
<asrwt>0</asrwt>
<pdfrwt beam="1">  1        2 0.73854454E-01 0.14246195E+04</pdfrwt>
<pdfrwt beam="2">  1       -1 0.16260518E+00 0.14246195E+04</pdfrwt>
<totfact> 0.20032719E+01</totfact>
</mgrwt>
</event>
<event>
12    7  0.1730932E-007  0.3170362E+04  0.7818608E-02  0.8196689E-01
         -1   -1    0    0    0  501 -0.00000000000E+00  0.00000000000E+00  0.13620896618E+04  0.13620896618E+04  0.00000000000E+00 0.  1.
          2   -1    0    0  501    0  0.00000000000E+00 -0.00000000000E+00 -0.18448121304E+04  0.18448121304E+04  0.00000000000E+00 0. -1.
         24    2    1    2    0    0  0.72622121280E+03  0.81192648020E+03  0.77398941942E+03  0.13387047595E+04  0.80305370488E+02 0.  0.
        254    2    1    2    0    0 -0.72622121280E+03 -0.81192648020E+03 -0.12567118880E+04  0.18681970328E+04  0.85100735868E+03 0.  0.
         23    2    4    4    0    0 -0.49029637669E+03 -0.93371324151E+03 -0.11621642077E+04  0.15719995145E+04  0.91355752499E+02 0.  0.
         23    2    4    4    0    0 -0.23592483610E+03  0.12178676130E+03 -0.94547680281E+02  0.29619751824E+03  0.91110715317E+02 0.  0.
          4    1    3    3  502    0  0.10330219953E+03  0.15347749457E+03  0.15155265696E+03  0.23915453915E+03  0.00000000000E+00 0. -1.
         -3    1    3    3    0  502  0.62291901327E+03  0.65844898564E+03  0.62243676246E+03  0.10995502203E+04  0.00000000000E+00 0.  1.
         13    1    5    5    0    0 -0.24998470269E+03 -0.55910980196E+03 -0.63825697311E+03  0.88457226158E+03  0.00000000000E+00 0.  1.
        -13    1    5    5    0    0 -0.24031167401E+03 -0.37460343955E+03 -0.52390723464E+03  0.68742725294E+03  0.00000000000E+00 0. -1.
          4    1    6    6  503    0 -0.20028789238E+03  0.86054191116E+02 -0.39543086168E+02  0.22154958656E+03  0.00000000000E+00 0. -1.
         -4    1    6    6    0  503 -0.35636943725E+02  0.35732570189E+02 -0.55004594113E+02  0.74647931678E+02  0.00000000000E+00 0.  1.
<mgrwt>
<rscale>  0 0.31703625E+04</rscale>
<asrwt>0</asrwt>
<pdfrwt beam="1">  1        2 0.28381725E+00 0.31703625E+04</pdfrwt>
<pdfrwt beam="2">  1       -1 0.20955226E+00 0.31703625E+04</pdfrwt>
<totfact> 0.10132324E+00</totfact>
</mgrwt>
</event>
<event>
12    7  0.1730932E-007  0.1622958E+04  0.7818608E-02  0.8806567E-01
         -1   -1    0    0    0  501 -0.00000000000E+00  0.00000000000E+00  0.10430521330E+04  0.10430521330E+04  0.00000000000E+00 0.  1.
          2   -1    0    0  501    0  0.00000000000E+00 -0.00000000000E+00 -0.63131894324E+03  0.63131894324E+03  0.00000000000E+00 0. -1.
         24    2    1    2    0    0 -0.16885456910E+03  0.43292427903E+03 -0.18395085699E+03  0.50614806229E+03  0.80079000309E+02 0.  0.
        254    2    1    2    0    0  0.16885456910E+03 -0.43292427903E+03  0.59568404677E+03  0.11682230140E+04  0.89105007149E+03 0.  0.
         23    2    4    4    0    0  0.43457330290E+03 -0.62927373077E+01  0.96304614079E+02  0.45419831475E+03  0.90155289842E+02 0.  0.
         23    2    4    4    0    0 -0.26571873380E+03 -0.42663154172E+03  0.49937943270E+03  0.71402469923E+03  0.88490312586E+02 0.  0.
          4    1    3    3  502    0 -0.13981502937E+03  0.37685573598E+03 -0.12817051194E+03  0.42189592118E+03  0.00000000000E+00 0. -1.
         -3    1    3    3    0  502 -0.29039539732E+02  0.56068543051E+02 -0.55780345042E+02  0.84252141105E+02  0.00000000000E+00 0.  1.
         13    1    5    5    0    0  0.13089024101E+03 -0.37696277393E+02  0.82903627907E+01  0.13646242940E+03  0.00000000000E+00 0. -1.
        -13    1    5    5    0    0  0.30368306189E+03  0.31403540085E+02  0.88014251288E+02  0.31773588535E+03  0.00000000000E+00 0.  1.
          3    1    6    6  503    0 -0.21306864069E+01 -0.70109110189E+01 -0.34084807187E+01  0.80814874057E+01  0.00000000000E+00 0. -1.
         -3    1    6    6    0  503 -0.26358804739E+03 -0.41962063071E+03  0.50278791341E+03  0.70594321182E+03  0.00000000000E+00 0.  1.
<mgrwt>
<rscale>  0 0.16229585E+04</rscale>
<asrwt>0</asrwt>
<pdfrwt beam="1">  1        2 0.97125991E-01 0.16229585E+04</pdfrwt>
<pdfrwt beam="2">  1       -1 0.16046956E+00 0.16229585E+04</pdfrwt>
<totfact> 0.14773711E+01</totfact>
</mgrwt>
</event>
<event>
12    7  0.1730932E-007  0.1727902E+04  0.7818608E-02  0.8745609E-01
         -1   -1    0    0    0  501 -0.00000000000E+00  0.00000000000E+00  0.59657444496E+03  0.59657444496E+03  0.00000000000E+00 0.  1.
          2   -1    0    0  501    0  0.00000000000E+00 -0.00000000000E+00 -0.12511625896E+04  0.12511625896E+04  0.00000000000E+00 0. -1.
         24    2    1    2    0    0 -0.20563483393E+03  0.14026342215E+03 -0.85481993621E+03  0.89403577084E+03  0.81383804734E+02 0.  0.
        254    2    1    2    0    0  0.20563483393E+03 -0.14026342215E+03  0.20023179153E+03  0.95370126376E+03  0.89860659781E+03 0.  0.
         23    2    4    4    0    0  0.39285345707E+03 -0.41815587225E+03  0.78794711769E+02  0.58607835048E+03  0.89950286642E+02 0.  0.
         23    2    4    4    0    0 -0.18721862314E+03  0.27789245010E+03  0.12143707976E+03  0.36762291328E+03  0.90136648237E+02 0.  0.
          4    1    3    3  502    0 -0.17435264307E+03  0.12628796745E+03 -0.80690974316E+03  0.83513521569E+03  0.00000000000E+00 0. -1.
         -3    1    3    3    0  502 -0.31282190863E+02  0.13975454698E+02 -0.47910193050E+02  0.58900555152E+02  0.00000000000E+00 0.  1.
         13    1    5    5    0    0  0.23754453513E+03 -0.21045324529E+03  0.77674618869E+02  0.32672820668E+03  0.00000000000E+00 0. -1.
        -13    1    5    5    0    0  0.15530892194E+03 -0.20770262696E+03  0.11200929001E+01  0.25935014379E+03  0.00000000000E+00 0.  1.
          2    1    6    6  503    0 -0.15139567846E+02  0.71276363743E+01 -0.11550384264E+02  0.20332759072E+02  0.00000000000E+00 0. -1.
         -2    1    6    6    0  503 -0.17207905529E+03  0.27076481372E+03  0.13298746403E+03  0.34729015421E+03  0.00000000000E+00 0.  1.
<mgrwt>
<rscale>  0 0.17279023E+04</rscale>
<asrwt>0</asrwt>
<pdfrwt beam="1">  1        2 0.19248655E+00 0.17279023E+04</pdfrwt>
<pdfrwt beam="2">  1       -1 0.91780685E-01 0.17279023E+04</pdfrwt>
<totfact> 0.22112600E+01</totfact>
</mgrwt>
</event>
<event>
12    7  0.1730932E-007  0.1708109E+04  0.7818608E-02  0.8756753E-01
          2   -1    0    0  501    0  0.00000000000E+00  0.00000000000E+00  0.17671659039E+04  0.17671659039E+04  0.00000000000E+00 0. -1.
         -1   -1    0    0    0  501 -0.00000000000E+00 -0.00000000000E+00 -0.41275653513E+03  0.41275653513E+03  0.00000000000E+00 0.  1.
         24    2    1    2    0    0 -0.23702403523E+03 -0.52229589807E+03  0.22464553760E+03  0.62113211377E+03  0.79787760790E+02 0.  0.
        254    2    1    2    0    0  0.23702403523E+03  0.52229589807E+03  0.11297638311E+04  0.15587903252E+04  0.90801297649E+03 0.  0.
         23    2    4    4    0    0  0.38808291693E+03 -0.10648240350E+03  0.34304567472E+03  0.53640733552E+03  0.90031338891E+02 0.  0.
         23    2    4    4    0    0 -0.15105888170E+03  0.62877830158E+03  0.78671815642E+03  0.10223829897E+04  0.90335938310E+02 0.  0.
          2    1    3    3  502    0 -0.23615117723E+03 -0.46491034851E+03  0.19690479816E+03  0.55738721747E+03  0.00000000000E+00 0. -1.
         -1    1    3    3    0  502 -0.87285799749E+00 -0.57385549562E+02  0.27740739433E+02  0.63744896297E+02  0.00000000000E+00 0.  1.
         13    1    5    5    0    0  0.17599191384E+03 -0.48388210068E+01  0.12738915528E+03  0.21731213682E+03  0.00000000000E+00 0. -1.
        -13    1    5    5    0    0  0.21209100309E+03 -0.10164358250E+03  0.21565651944E+03  0.31909519870E+03  0.00000000000E+00 0.  1.
          3    1    6    6  503    0 -0.10485104712E+03  0.49738976118E+03  0.55998818275E+03  0.75629166426E+03  0.00000000000E+00 0.  1.
         -3    1    6    6    0  503 -0.46207834582E+02  0.13138854040E+03  0.22672997367E+03  0.26609132546E+03  0.00000000000E+00 0. -1.
<mgrwt>
<rscale>  0 0.17081092E+04</rscale>
<asrwt>0</asrwt>
<pdfrwt beam="1">  1        2 0.27187167E+00 0.17081092E+04</pdfrwt>
<pdfrwt beam="2">  1       -1 0.63501006E-01 0.17081092E+04</pdfrwt>
<totfact> 0.24515926E+01</totfact>
</mgrwt>
</event>
<event>
12    7  0.1730932E-007  0.1523175E+04  0.7818608E-02  0.8869186E-01
         -1   -1    0    0    0  501 -0.00000000000E+00  0.00000000000E+00  0.10351156458E+04  0.10351156458E+04  0.00000000000E+00 0.  1.
          2   -1    0    0  501    0  0.00000000000E+00 -0.00000000000E+00 -0.56033890456E+03  0.56033890456E+03  0.00000000000E+00 0. -1.
         24    2    1    2    0    0 -0.43954398571E+03  0.79114092822E+02 -0.75021004546E+02  0.46005667071E+03  0.81031068642E+02 0.  0.
        254    2    1    2    0    0  0.43954398571E+03 -0.79114092822E+02  0.54979774582E+03  0.11353978797E+04  0.88735158128E+03 0.  0.
         23    2    4    4    0    0  0.10202803973E+03  0.11691642000E+03  0.68837424337E+03  0.71152847687E+03  0.91293506357E+02 0.  0.
         23    2    4    4    0    0  0.33751594598E+03 -0.19603051283E+03 -0.13857649755E+03  0.42386940280E+03  0.90093558077E+02 0.  0.
          4    1    3    3  502    0 -0.39357131394E+03  0.86769739684E+02 -0.47196566766E+02  0.40577688795E+03  0.00000000000E+00 0. -1.
         -3    1    3    3    0  502 -0.45972671770E+02 -0.76556468622E+01 -0.27824437780E+02  0.54279782759E+02  0.00000000000E+00 0.  1.
         13    1    5    5    0    0  0.10363780739E+03  0.56099829554E+02  0.41106534370E+03  0.42762448806E+03  0.00000000000E+00 0.  1.
        -13    1    5    5    0    0 -0.16097676618E+01  0.60816590450E+02  0.27730889968E+03  0.28390398882E+03  0.00000000000E+00 0. -1.
          1    1    6    6  503    0  0.26225150566E+03 -0.12918652967E+03 -0.65807584145E+02  0.29965922279E+03  0.00000000000E+00 0. -1.
         -1    1    6    6    0  503  0.75264440318E+02 -0.66843983158E+02 -0.72768913407E+02  0.12421018001E+03  0.00000000000E+00 0.  1.
<mgrwt>
<rscale>  0 0.15231751E+04</rscale>
<asrwt>0</asrwt>
<pdfrwt beam="1">  1        2 0.86205986E-01 0.15231751E+04</pdfrwt>
<pdfrwt beam="2">  1       -1 0.15924856E+00 0.15231751E+04</pdfrwt>
<totfact> 0.17575003E+01</totfact>
</mgrwt>
</event>
<event>
12    7  0.1730932E-007  0.1734365E+04  0.7818608E-02  0.8742004E-01
          2   -1    0    0  501    0  0.00000000000E+00  0.00000000000E+00  0.12504970009E+04  0.12504970009E+04  0.00000000000E+00 0. -1.
         -1   -1    0    0    0  501 -0.00000000000E+00 -0.00000000000E+00 -0.60136528198E+03  0.60136528198E+03  0.00000000000E+00 0.  1.
         24    2    1    2    0    0 -0.29759093902E+03 -0.52047128436E+03  0.22395498884E+02  0.60499645305E+03  0.77900096268E+02 0.  0.
        254    2    1    2    0    0  0.29759093902E+03  0.52047128436E+03  0.62673622001E+03  0.12468658298E+04  0.89578199536E+03 0.  0.
         23    2    4    4    0    0  0.95416668576E+02  0.42141037951E+03 -0.12365731802E+03  0.45837472162E+03  0.90139916357E+02 0.  0.
         23    2    4    4    0    0  0.20217427044E+03  0.99060904854E+02  0.75039353803E+03  0.78849110817E+03  0.89108177274E+02 0.  0.
          4    1    3    3  502    0 -0.31656528844E+02 -0.31858586461E+02  0.18805713744E+02  0.48690453060E+02  0.00000000000E+00 0. -1.
         -3    1    3    3    0  502 -0.26593441017E+03 -0.48861269790E+03  0.35897851400E+01  0.55630599999E+03  0.00000000000E+00 0.  1.
         13    1    5    5    0    0  0.66985616618E+02  0.37220454824E+03 -0.79606340017E+02  0.38647182036E+03  0.00000000000E+00 0. -1.
        -13    1    5    5    0    0  0.28431051958E+02  0.49205831272E+02 -0.44050978003E+02  0.71902901260E+02  0.00000000000E+00 0.  1.
          4    1    6    6  503    0  0.59880213019E+02 -0.10858626645E+02  0.15422009044E+03  0.16579320245E+03  0.00000000000E+00 0. -1.
         -4    1    6    6    0  503  0.14229405742E+03  0.10991953150E+03  0.59617344759E+03  0.62269790573E+03  0.00000000000E+00 0.  1.
<mgrwt>
<rscale>  0 0.17343650E+04</rscale>
<asrwt>0</asrwt>
<pdfrwt beam="1">  1        2 0.19238415E+00 0.17343650E+04</pdfrwt>
<pdfrwt beam="2">  1       -1 0.92517736E-01 0.17343650E+04</pdfrwt>
<totfact> 0.21730830E+01</totfact>
</mgrwt>
</event>
<event>
12    7  0.1730932E-007  0.2021589E+04  0.7818608E-02  0.8596593E-01
          2   -1    0    0  501    0  0.00000000000E+00  0.00000000000E+00  0.63243518424E+03  0.63243518424E+03  0.00000000000E+00 0. -1.
         -1   -1    0    0    0  501 -0.00000000000E+00 -0.00000000000E+00 -0.16155095366E+04  0.16155095366E+04  0.00000000000E+00 0.  1.
         24    2    1    2    0    0  0.31284774999E+03 -0.33635048020E+02  0.43285535467E+03  0.54067793679E+03  0.77225916213E+02 0.  0.
        254    2    1    2    0    0 -0.31284774999E+03  0.33635048020E+02 -0.14159297070E+04  0.17072667841E+04  0.90049869825E+03 0.  0.
         23    2    4    4    0    0 -0.44493373425E+03 -0.18261767235E+03 -0.33529564557E+03  0.59367373355E+03  0.93327862140E+02 0.  0.
         23    2    4    4    0    0  0.13208598426E+03  0.21625272037E+03 -0.10806340615E+04  0.11135930505E+04  0.90041995859E+02 0.  0.
          4    1    3    3  502    0  0.30806995727E+03 -0.29721952314E+02  0.39247023619E+03  0.49982334811E+03  0.00000000000E+00 0. -1.
         -3    1    3    3    0  502  0.47777927167E+01 -0.39130957064E+01  0.40385118482E+02  0.40854588678E+02  0.00000000000E+00 0.  1.
         13    1    5    5    0    0 -0.46667201784E+02 -0.43480582691E+02 -0.72865157243E+02  0.96838628313E+02  0.00000000000E+00 0.  1.
        -13    1    5    5    0    0 -0.39826653246E+03 -0.13913708965E+03 -0.26243048832E+03  0.49683510524E+03  0.00000000000E+00 0. -1.
          1    1    6    6  503    0 -0.60074877919E-01  0.12795563065E+02 -0.19234450015E+03  0.19276964694E+03  0.00000000000E+00 0. -1.
         -1    1    6    6    0  503  0.13214605914E+03  0.20345715730E+03 -0.88828956133E+03  0.92082340358E+03  0.00000000000E+00 0.  1.
<mgrwt>
<rscale>  0 0.20215886E+04</rscale>
<asrwt>0</asrwt>
<pdfrwt beam="1">  1        2 0.97297721E-01 0.20215886E+04</pdfrwt>
<pdfrwt beam="2">  1       -1 0.24853993E+00 0.20215886E+04</pdfrwt>
<totfact> 0.35099529E+00</totfact>
</mgrwt>
</event>
<event>
12    7  0.1730932E-007  0.2199049E+04  0.7818608E-02  0.8518824E-01
         -1   -1    0    0    0  501 -0.00000000000E+00  0.00000000000E+00  0.29784586099E+03  0.29784586099E+03  0.00000000000E+00 0.  1.
          2   -1    0    0  501    0  0.00000000000E+00 -0.00000000000E+00 -0.40589919526E+04  0.40589919526E+04  0.00000000000E+00 0. -1.
         24    2    1    2    0    0 -0.28998754270E+03  0.56856269495E+03 -0.28642152195E+04  0.29356105236E+04  0.82000058115E+02 0.  0.
        254    2    1    2    0    0  0.28998754270E+03 -0.56856269495E+03 -0.89693087203E+03  0.14212272899E+04  0.89891362624E+03 0.  0.
         23    2    4    4    0    0 -0.22838488159E+03 -0.21950550038E+03 -0.69013322370E+01  0.32962800755E+03  0.90910264235E+02 0.  0.
         23    2    4    4    0    0  0.51837242429E+03 -0.34905719458E+03 -0.89002953979E+03  0.10915992824E+04  0.94263016260E+02 0.  0.
          2    1    3    3  502    0 -0.28348019559E+03  0.55008016978E+03 -0.28222193341E+04  0.28892682784E+04  0.00000000000E+00 0. -1.
         -1    1    3    3    0  502 -0.65073471054E+01  0.18482525178E+02 -0.41995885427E+02  0.46342245264E+02  0.00000000000E+00 0.  1.
         13    1    5    5    0    0 -0.86352884054E+01 -0.21016630783E+02 -0.23954282129E+02  0.33016277919E+02  0.00000000000E+00 0. -1.
        -13    1    5    5    0    0 -0.21974959318E+03 -0.19848886959E+03  0.17052949892E+02  0.29661172964E+03  0.00000000000E+00 0.  1.
          4    1    6    6  503    0  0.17259540434E+03 -0.17143649245E+03 -0.34577632922E+03  0.42277761813E+03  0.00000000000E+00 0. -1.
         -4    1    6    6    0  503  0.34577701994E+03 -0.17762070213E+03 -0.54425321057E+03  0.66882166425E+03  0.00000000000E+00 0.  1.
<mgrwt>
<rscale>  0 0.21990488E+04</rscale>
<asrwt>0</asrwt>
<pdfrwt beam="1">  1        2 0.62446028E+00 0.21990488E+04</pdfrwt>
<pdfrwt beam="2">  1       -1 0.45822442E-01 0.21990488E+04</pdfrwt>
<totfact> 0.15190578E+00</totfact>
</mgrwt>
</event>
<event>
12    7  0.1730932E-007  0.1803845E+04  0.7818608E-02  0.8704257E-01
          2   -1    0    0  501    0  0.00000000000E+00  0.00000000000E+00  0.15731517024E+04  0.15731517024E+04  0.00000000000E+00 0. -1.
         -1   -1    0    0    0  501 -0.00000000000E+00 -0.00000000000E+00 -0.51709220747E+03  0.51709220747E+03  0.00000000000E+00 0.  1.
         24    2    1    2    0    0 -0.21679585065E+01 -0.47615254365E+03  0.92918368479E+03  0.10471171270E+04  0.79661865305E+02 0.  0.
        254    2    1    2    0    0  0.21679585065E+01  0.47615254365E+03  0.12687581012E+03  0.10431267828E+04  0.91939657873E+03 0.  0.
         23    2    4    4    0    0  0.40436466955E+03  0.43321173783E+03 -0.26819740759E+02  0.60078870352E+03  0.95102954733E+02 0.  0.
         23    2    4    4    0    0 -0.40219671105E+03  0.42940805813E+02  0.15369555088E+03  0.44233807930E+03  0.91839789073E+02 0.  0.
          4    1    3    3  502    0 -0.44552675687E+00 -0.88201683165E+02  0.11236233423E+03  0.14284617447E+03  0.00000000000E+00 0. -1.
         -3    1    3    3    0  502 -0.17224317496E+01 -0.38795086048E+03  0.81682135057E+03  0.90427095257E+03  0.00000000000E+00 0.  1.
         13    1    5    5    0    0  0.20143187059E+03  0.27614988501E+03 -0.38112610385E+02  0.34392750479E+03  0.00000000000E+00 0. -1.
        -13    1    5    5    0    0  0.20293279896E+03  0.15706185283E+03  0.11292869625E+02  0.25686119873E+03  0.00000000000E+00 0.  1.
          3    1    6    6  503    0 -0.92255960023E+02 -0.15309397098E+02  0.67718284740E+02  0.11546127441E+03  0.00000000000E+00 0. -1.
         -3    1    6    6    0  503 -0.30994075102E+03  0.58250202911E+02  0.85977266142E+02  0.32687680489E+03  0.00000000000E+00 0.  1.
<mgrwt>
<rscale>  0 0.18038453E+04</rscale>
<asrwt>0</asrwt>
<pdfrwt beam="1">  1        2 0.24202334E+00 0.18038453E+04</pdfrwt>
<pdfrwt beam="2">  1       -1 0.79552648E-01 0.18038453E+04</pdfrwt>
<totfact> 0.19597030E+01</totfact>
</mgrwt>
</event>
<event>
12    7  0.1730932E-007  0.1391771E+04  0.7818608E-02  0.8959797E-01
         -1   -1    0    0    0  501 -0.00000000000E+00  0.00000000000E+00  0.48693850421E+03  0.48693850421E+03  0.00000000000E+00 0.  1.
          2   -1    0    0  501    0  0.00000000000E+00 -0.00000000000E+00 -0.99449270914E+03  0.99449270914E+03  0.00000000000E+00 0. -1.
         24    2    1    2    0    0 -0.35887412555E+02 -0.27485369527E+02 -0.57715801070E+03  0.58443338526E+03  0.80047864272E+02 0.  0.
        254    2    1    2    0    0  0.35887412555E+02  0.27485369527E+02  0.69603805771E+02  0.89699782809E+03  0.89315007804E+03 0.  0.
         23    2    4    4    0    0 -0.14979965720E+03 -0.32640089864E+03  0.25213806063E+03  0.44857819753E+03  0.93119889143E+02 0.  0.
         23    2    4    4    0    0  0.18568706976E+03  0.35388626816E+03 -0.18253425485E+03  0.44841963056E+03  0.89700792685E+02 0.  0.
          4    1    3    3  502    0 -0.32326692705E+02 -0.39048107889E+02 -0.56504086671E+03  0.56731027740E+03  0.00000000000E+00 0. -1.
         -3    1    3    3    0  502 -0.35607198502E+01  0.11562738362E+02 -0.12117143983E+02  0.17123107854E+02  0.00000000000E+00 0.  1.
         13    1    5    5    0    0 -0.14516385113E+03 -0.26272059349E+03  0.23828958492E+03  0.38324480453E+03  0.00000000000E+00 0.  1.
        -13    1    5    5    0    0 -0.46358060682E+01 -0.63680305143E+02  0.13848475709E+02  0.65333392997E+02  0.00000000000E+00 0. -1.
          3    1    6    6  503    0  0.47916858679E+02  0.30124219943E+02 -0.14114208511E+02  0.58332708276E+02  0.00000000000E+00 0. -1.
         -3    1    6    6    0  503  0.13777021108E+03  0.32376204822E+03 -0.16842004634E+03  0.39008692229E+03  0.00000000000E+00 0.  1.
<mgrwt>
<rscale>  0 0.13917712E+04</rscale>
<asrwt>0</asrwt>
<pdfrwt beam="1">  1        2 0.15299888E+00 0.13917712E+04</pdfrwt>
<pdfrwt beam="2">  1       -1 0.74913617E-01 0.13917712E+04</pdfrwt>
<totfact> 0.50581906E+01</totfact>
</mgrwt>
</event>
<event>
12    7  0.2183614E-007  0.1982709E+04  0.7818608E-02  0.8614748E-01
          2   -1    0    0  501    0  0.00000000000E+00  0.00000000000E+00  0.16900119181E+04  0.16900119181E+04  0.00000000000E+00 0. -1.
         -1   -1    0    0    0  501 -0.00000000000E+00 -0.00000000000E+00 -0.58152450481E+03  0.58152450481E+03  0.00000000000E+00 0.  1.
         24    2    1    2    0    0  0.13237693938E+03 -0.50319049841E+03 -0.23509834436E+03  0.57637065455E+03  0.78788121772E+02 0.  0.
        254    2    1    2    0    0 -0.13237693938E+03  0.50319049841E+03  0.13435857577E+04  0.16951657684E+04  0.89310691537E+03 0.  0.
         23    2    4    4    0    0 -0.16059805657E+03 -0.12245621537E+03  0.88914468985E+03  0.91595766668E+03  0.87251975391E+02 0.  0.
         23    2    4    4    0    0  0.28221117189E+02  0.62564671378E+03  0.45444106783E+03  0.77920810170E+03  0.91751510621E+02 0.  0.
          2    1    3    3  502    0  0.42080794739E+02 -0.11123421183E+03 -0.88586084479E+02  0.14829476569E+03  0.00000000000E+00 0. -1.
         -1    1    3    3    0  502  0.90296144642E+02 -0.39195628658E+03 -0.14651225988E+03  0.42807588886E+03  0.00000000000E+00 0.  1.
         13    1    5    5    0    0  0.55721396745E+01  0.72112425171E+01  0.43104752092E+02  0.44057580643E+02  0.00000000000E+00 0.  1.
        -13    1    5    5    0    0 -0.16617019624E+03 -0.12966745788E+03  0.84603993775E+03  0.87190008604E+03  0.00000000000E+00 0. -1.
          1    1    6    6  503    0 -0.18141138691E+02  0.46524806484E+03  0.32211764697E+03  0.56616661968E+03  0.00000000000E+00 0. -1.
         -1    1    6    6    0  503  0.46362255880E+02  0.16039864894E+03  0.13232342086E+03  0.21304148202E+03  0.00000000000E+00 0.  1.
<mgrwt>
<rscale>  0 0.19827086E+04</rscale>
<asrwt>0</asrwt>
<pdfrwt beam="1">  1        2 0.26000183E+00 0.19827086E+04</pdfrwt>
<pdfrwt beam="2">  1       -1 0.89465309E-01 0.19827086E+04</pdfrwt>
<totfact> 0.12882765E+01</totfact>
</mgrwt>
</event>
<event>
12    7  0.1730932E-007  0.1760097E+04  0.7818608E-02  0.8727812E-01
         -1   -1    0    0    0  501 -0.00000000000E+00  0.00000000000E+00  0.83959563641E+03  0.83959563641E+03  0.00000000000E+00 0.  1.
          2   -1    0    0  501    0  0.00000000000E+00 -0.00000000000E+00 -0.92245086623E+03  0.92245086623E+03  0.00000000000E+00 0. -1.
         24    2    1    2    0    0  0.26279724137E+03  0.20909085481E+03  0.52263697583E+03  0.62621782652E+03  0.78854182511E+02 0.  0.
        254    2    1    2    0    0 -0.26279724137E+03 -0.20909085481E+03 -0.60549220565E+03  0.11358286761E+04  0.90039135645E+03 0.  0.
         23    2    4    4    0    0 -0.45556028876E+03 -0.56915453211E+01 -0.26825881125E+01  0.46484439463E+03  0.92225509217E+02 0.  0.
         23    2    4    4    0    0  0.19276304739E+03 -0.20339930949E+03 -0.60280961754E+03  0.67098428150E+03  0.91167973991E+02 0.  0.
          4    1    3    3  502    0  0.95945352642E+02  0.42706335328E+02  0.11795374062E+03  0.15793171530E+03  0.00000000000E+00 0. -1.
         -3    1    3    3    0  502  0.16685188873E+03  0.16638451949E+03  0.40468323521E+03  0.46828611122E+03  0.00000000000E+00 0.  1.
         13    1    5    5    0    0 -0.43511000500E+03  0.14685986514E+02  0.32574575415E+01  0.43536996415E+03  0.00000000000E+00 0. -1.
        -13    1    5    5    0    0 -0.20450283759E+02 -0.20377531835E+02 -0.59400456540E+01  0.29474430476E+02  0.00000000000E+00 0.  1.
          2    1    6    6  503    0  0.18966143396E+03 -0.20911937623E+03 -0.60134032478E+03  0.66431360008E+03  0.00000000000E+00 0. -1.
         -2    1    6    6    0  503  0.31016134365E+01  0.57200667381E+01 -0.14692927586E+01  0.66706814201E+01  0.00000000000E+00 0.  1.
<mgrwt>
<rscale>  0 0.17600974E+04</rscale>
<asrwt>0</asrwt>
<pdfrwt beam="1">  1        2 0.14191552E+00 0.17600974E+04</pdfrwt>
<pdfrwt beam="2">  1       -1 0.12916856E+00 0.17600974E+04</pdfrwt>
<totfact> 0.15776696E+01</totfact>
</mgrwt>
</event>
<event>
12    7  0.1730932E-007  0.2001593E+04  0.7818608E-02  0.8605876E-01
         -1   -1    0    0    0  501 -0.00000000000E+00  0.00000000000E+00  0.13406072493E+04  0.13406072493E+04  0.00000000000E+00 0.  1.
          2   -1    0    0  501    0  0.00000000000E+00 -0.00000000000E+00 -0.74711941908E+03  0.74711941908E+03  0.00000000000E+00 0. -1.
         24    2    1    2    0    0  0.33839217405E+03  0.18276152503E+03  0.95396964272E+03  0.10318041600E+04  0.81551865581E+02 0.  0.
        254    2    1    2    0    0 -0.33839217405E+03 -0.18276152503E+03 -0.36048181250E+03  0.10559225084E+04  0.91493943416E+03 0.  0.
         23    2    4    4    0    0 -0.23640331194E+03 -0.16640362981E+03  0.27290305493E+03  0.40761652427E+03  0.89991441573E+02 0.  0.
         23    2    4    4    0    0 -0.10198886212E+03 -0.16357895218E+02 -0.63338486742E+03  0.64830598417E+03  0.91950802583E+02 0.  0.
          4    1    3    3  502    0  0.30941372337E+02  0.26592762933E+02  0.51546013293E+02  0.65738383376E+02  0.00000000000E+00 0. -1.
         -3    1    3    3    0  502  0.30745080172E+03  0.15616876210E+03  0.90242362943E+03  0.96606577658E+03  0.00000000000E+00 0.  1.
         13    1    5    5    0    0 -0.86940221812E+02 -0.55893241802E+02  0.15891080383E+03  0.18956608405E+03  0.00000000000E+00 0.  1.
        -13    1    5    5    0    0 -0.14946309012E+03 -0.11051038801E+03  0.11399225109E+03  0.21805044021E+03  0.00000000000E+00 0. -1.
          1    1    6    6  503    0 -0.10499269992E+03  0.67505158031E+01 -0.58746594861E+03  0.59681259812E+03  0.00000000000E+00 0. -1.
         -1    1    6    6    0  503  0.30038378086E+01 -0.23108411021E+02 -0.45918918813E+02  0.51493386045E+02  0.00000000000E+00 0.  1.
<mgrwt>
<rscale>  0 0.20015931E+04</rscale>
<asrwt>0</asrwt>
<pdfrwt beam="1">  1        2 0.11494145E+00 0.20015931E+04</pdfrwt>
<pdfrwt beam="2">  1       -1 0.20624727E+00 0.20015931E+04</pdfrwt>
<totfact> 0.54479726E+00</totfact>
</mgrwt>
</event>
<event>
12    7  0.1730932E-007  0.1695819E+04  0.7818608E-02  0.8763752E-01
          4   -1    0    0  501    0  0.00000000000E+00  0.00000000000E+00  0.75177210403E+03  0.75177210403E+03  0.00000000000E+00 0. -1.
         -1   -1    0    0    0  501 -0.00000000000E+00 -0.00000000000E+00 -0.95634118142E+03  0.95634118142E+03  0.00000000000E+00 0.  1.
         24    2    1    2    0    0 -0.37549021881E+03  0.13583174644E+03  0.34112739563E+03  0.53105026254E+03  0.78761116862E+02 0.  0.
        254    2    1    2    0    0  0.37549021881E+03 -0.13583174644E+03 -0.54569647303E+03  0.11770630229E+04  0.96345708335E+03 0.  0.
         23    2    4    4    0    0 -0.22022069475E+03 -0.31187795407E+03 -0.32689718729E+03  0.51155714800E+03  0.95204684631E+02 0.  0.
         23    2    4    4    0    0  0.59571091355E+03  0.17604620764E+03 -0.21879928573E+03  0.66550587491E+03  0.95714065567E+02 0.  0.
          4    1    3    3  502    0 -0.33623701098E+03  0.14580611679E+03  0.30807431477E+03  0.47877399121E+03  0.00000000000E+00 0. -1.
         -3    1    3    3    0  502 -0.39253207831E+02 -0.99743703487E+01  0.33053080869E+02  0.52276271326E+02  0.00000000000E+00 0.  1.
         13    1    5    5    0    0 -0.30152418018E+02 -0.95469613129E+01 -0.52121090105E+02  0.60966554900E+02  0.00000000000E+00 0. -1.
        -13    1    5    5    0    0 -0.19006827673E+03 -0.30233099276E+03 -0.27477609719E+03  0.45059059310E+03  0.00000000000E+00 0.  1.
          1    1    6    6  503    0  0.32652392751E+03  0.49398725186E+02 -0.13163318803E+03  0.35550725095E+03  0.00000000000E+00 0. -1.
         -1    1    6    6    0  503  0.26918698605E+03  0.12664748245E+03 -0.87166097698E+02  0.30999862396E+03  0.00000000000E+00 0.  1.
<mgrwt>
<rscale>  0 0.16958191E+04</rscale>
<asrwt>0</asrwt>
<pdfrwt beam="1">  1        4 0.11565725E+00 0.16958191E+04</pdfrwt>
<pdfrwt beam="2">  1       -1 0.14712941E+00 0.16958191E+04</pdfrwt>
<totfact> 0.84150631E-01</totfact>
</mgrwt>
</event>
<event>
12    7  0.1730932E-007  0.2425114E+04  0.7818608E-02  0.8430161E-01
          2   -1    0    0  501    0  0.00000000000E+00  0.00000000000E+00  0.87196334586E+03  0.87196334586E+03  0.00000000000E+00 0. -1.
         -1   -1    0    0    0  501 -0.00000000000E+00 -0.00000000000E+00 -0.16861884674E+04  0.16861884674E+04  0.00000000000E+00 0.  1.
         24    2    1    2    0    0 -0.52533429140E+03  0.61582743687E+03  0.34187920744E+03  0.88237571512E+03  0.80535460696E+02 0.  0.
        254    2    1    2    0    0  0.52533429140E+03 -0.61582743687E+03 -0.11561043290E+04  0.16757760982E+04  0.90356447579E+03 0.  0.
         23    2    4    4    0    0  0.74133669276E+03 -0.38015858441E+03 -0.10069571769E+04  0.13099957036E+04  0.89584294477E+02 0.  0.
         23    2    4    4    0    0 -0.21600240136E+03 -0.23566885246E+03 -0.14914715207E+03  0.36578039461E+03  0.96713901255E+02 0.  0.
          4    1    3    3  502    0 -0.82047043878E+02  0.11357485894E+03  0.29298764145E+02  0.14314113166E+03  0.00000000000E+00 0. -1.
         -3    1    3    3    0  502 -0.44328724752E+03  0.50225257794E+03  0.31258044329E+03  0.73923458346E+03  0.00000000000E+00 0.  1.
         13    1    5    5    0    0  0.65448883212E+02 -0.38645659896E+02 -0.13654817862E+03  0.15627683266E+03  0.00000000000E+00 0.  1.
        -13    1    5    5    0    0  0.67588780955E+03 -0.34151292452E+03 -0.87040899832E+03  0.11537188709E+04  0.00000000000E+00 0. -1.
          2    1    6    6  503    0 -0.14458616922E+03 -0.10076775802E+03 -0.11157182912E+03  0.20858469369E+03  0.00000000000E+00 0. -1.
         -2    1    6    6    0  503 -0.71416232142E+02 -0.13490109444E+03 -0.37575322946E+02  0.15719570092E+03  0.00000000000E+00 0.  1.
<mgrwt>
<rscale>  0 0.24251140E+04</rscale>
<asrwt>0</asrwt>
<pdfrwt beam="1">  1        2 0.13414821E+00 0.24251140E+04</pdfrwt>
<pdfrwt beam="2">  1       -1 0.25941361E+00 0.24251140E+04</pdfrwt>
<totfact> 0.18983539E+00</totfact>
</mgrwt>
</event>
<event>
12    7  0.1730932E-007  0.2270884E+04  0.7818608E-02  0.8489490E-01
         -1   -1    0    0    0  501 -0.00000000000E+00  0.00000000000E+00  0.75240221521E+03  0.75240221521E+03  0.00000000000E+00 0.  1.
          2   -1    0    0  501    0  0.00000000000E+00 -0.00000000000E+00 -0.17134839110E+04  0.17134839110E+04  0.00000000000E+00 0. -1.
         24    2    1    2    0    0 -0.83026654969E+03 -0.40027163638E+03 -0.23242580861E+03  0.95357433683E+03  0.75646103218E+02 0.  0.
        254    2    1    2    0    0  0.83026654969E+03  0.40027163638E+03 -0.72865588719E+03  0.15123117894E+04  0.95214894842E+03 0.  0.
         23    2    4    4    0    0  0.24364283545E+03  0.12997766475E+02  0.21087642031E+03  0.33524519164E+03  0.91595309237E+02 0.  0.
         23    2    4    4    0    0  0.58662371424E+03  0.38727386990E+03 -0.93953230750E+03  0.11770665978E+04  0.93039702812E+02 0.  0.
          2    1    3    3  502    0 -0.20008883037E+03 -0.78848023248E+02 -0.25838310666E+02  0.21661063941E+03  0.00000000000E+00 0. -1.
         -1    1    3    3    0  502 -0.63017771932E+03 -0.32142361313E+03 -0.20658749795E+03  0.73696369742E+03  0.00000000000E+00 0.  1.
         13    1    5    5    0    0  0.13686760940E+03 -0.38128577575E+02  0.12071776811E+03  0.18643848977E+03  0.00000000000E+00 0. -1.
        -13    1    5    5    0    0  0.10677522605E+03  0.51126344050E+02  0.90158652200E+02  0.14880670187E+03  0.00000000000E+00 0.  1.
          2    1    6    6  503    0  0.31240190022E+03  0.23614783141E+03 -0.58606108270E+03  0.70486050974E+03  0.00000000000E+00 0. -1.
         -2    1    6    6    0  503  0.27422181402E+03  0.15112603849E+03 -0.35347122480E+03  0.47220608801E+03  0.00000000000E+00 0.  1.
<mgrwt>
<rscale>  0 0.22708845E+04</rscale>
<asrwt>0</asrwt>
<pdfrwt beam="1">  1        2 0.26361291E+00 0.22708845E+04</pdfrwt>
<pdfrwt beam="2">  1       -1 0.11575419E+00 0.22708845E+04</pdfrwt>
<totfact> 0.67394364E+00</totfact>
</mgrwt>
</event>
<event>
12    7  0.1730932E-007  0.2751698E+04  0.7818608E-02  0.8318423E-01
         -1   -1    0    0    0  501 -0.00000000000E+00  0.00000000000E+00  0.79025161265E+03  0.79025161265E+03  0.00000000000E+00 0.  1.
          2   -1    0    0  501    0  0.00000000000E+00 -0.00000000000E+00 -0.23953891638E+04  0.23953891638E+04  0.00000000000E+00 0. -1.
         24    2    1    2    0    0 -0.55272951201E+03 -0.86469193753E+03 -0.14853954073E+04  0.18071052193E+04  0.77638247358E+02 0.  0.
        254    2    1    2    0    0  0.55272951201E+03  0.86469193753E+03 -0.11974214393E+03  0.13785355572E+04  0.91258974415E+03 0.  0.
         23    2    4    4    0    0  0.29453936425E+03 -0.11027050123E+03  0.99660269197E+02  0.34230362510E+03  0.91250106659E+02 0.  0.
         23    2    4    4    0    0  0.25819014776E+03  0.97496243876E+03 -0.21940241313E+03  0.10362319321E+04  0.91789371981E+02 0.  0.
          2    1    3    3  502    0 -0.39185494353E+03 -0.59144146830E+03 -0.10847464603E+04  0.12961590143E+04  0.00000000000E+00 0. -1.
         -1    1    3    3    0  502 -0.16087456848E+03 -0.27325046923E+03 -0.40064894696E+03  0.51094620502E+03  0.00000000000E+00 0.  1.
         13    1    5    5    0    0  0.12849511665E+03 -0.49991245325E+02 -0.31557046865E+01  0.13791329916E+03  0.00000000000E+00 0.  1.
        -13    1    5    5    0    0  0.16604424760E+03 -0.60279255901E+02  0.10281597388E+03  0.20439032594E+03  0.00000000000E+00 0. -1.
          1    1    6    6  503    0  0.14517152450E+03  0.68039913685E+03 -0.12449098982E+03  0.70676429133E+03  0.00000000000E+00 0. -1.
         -1    1    6    6    0  503  0.11301862326E+03  0.29456330191E+03 -0.94911423311E+02  0.32946764077E+03  0.00000000000E+00 0.  1.
<mgrwt>
<rscale>  0 0.27516978E+04</rscale>
<asrwt>0</asrwt>
<pdfrwt beam="1">  1        2 0.36852141E+00 0.27516978E+04</pdfrwt>
<pdfrwt beam="2">  1       -1 0.12157717E+00 0.27516978E+04</pdfrwt>
<totfact> 0.23813926E+00</totfact>
</mgrwt>
</event>
<event>
12    7  0.1730932E-007  0.1326029E+04  0.7818608E-02  0.9009175E-01
         -1   -1    0    0    0  501 -0.00000000000E+00  0.00000000000E+00  0.19266141681E+03  0.19266141681E+03  0.00000000000E+00 0.  1.
          2   -1    0    0  501    0  0.00000000000E+00 -0.00000000000E+00 -0.22816624299E+04  0.22816624299E+04  0.00000000000E+00 0. -1.
         24    2    1    2    0    0  0.34277502506E+03 -0.50179533893E+02 -0.68176584451E+03  0.76999265329E+03  0.89840502899E+02 0.  0.
        254    2    1    2    0    0 -0.34277502506E+03  0.50179533893E+02 -0.14072351686E+04  0.17043311934E+04  0.89689536387E+03 0.  0.
         23    2    4    4    0    0  0.10714437745E+03 -0.33222304982E+03 -0.48225405096E+03  0.60316234238E+03  0.96869856777E+02 0.  0.
         23    2    4    4    0    0 -0.44991940252E+03  0.38240258371E+03 -0.92498111766E+03  0.11011688511E+04  0.91233577923E+02 0.  0.
          4    1    3    3  502    0  0.19464548330E+03 -0.26873753672E+02 -0.28803157388E+03  0.34867069042E+03  0.00000000000E+00 0. -1.
         -3    1    3    3    0  502  0.14812954177E+03 -0.23305780221E+02 -0.39373427063E+03  0.42132196288E+03  0.00000000000E+00 0.  1.
         13    1    5    5    0    0 -0.78939273580E+01  0.91714097171E-01 -0.24123549448E+01  0.82548141705E+01  0.00000000000E+00 0. -1.
        -13    1    5    5    0    0  0.11503830481E+03 -0.33231476391E+03 -0.47984169601E+03  0.59490752821E+03  0.00000000000E+00 0.  1.
          2    1    6    6  503    0 -0.20932025588E+03  0.19229453322E+03 -0.36379307888E+03  0.46166823723E+03  0.00000000000E+00 0. -1.
         -2    1    6    6    0  503 -0.24059914664E+03  0.19010805049E+03 -0.56118803878E+03  0.63950061383E+03  0.00000000000E+00 0.  1.
<mgrwt>
<rscale>  0 0.13260291E+04</rscale>
<asrwt>0</asrwt>
<pdfrwt beam="1">  1        2 0.35102499E+00 0.13260291E+04</pdfrwt>
<pdfrwt beam="2">  1       -1 0.29640218E-01 0.13260291E+04</pdfrwt>
<totfact> 0.54071331E+01</totfact>
</mgrwt>
</event>
<event>
12    7  0.1730932E-007  0.1243469E+04  0.7818608E-02  0.9075636E-01
         -1   -1    0    0    0  501 -0.00000000000E+00  0.00000000000E+00  0.56757375444E+03  0.56757375444E+03  0.00000000000E+00 0.  1.
          2   -1    0    0  501    0  0.00000000000E+00 -0.00000000000E+00 -0.68106386141E+03  0.68106386141E+03  0.00000000000E+00 0. -1.
         24    2    1    2    0    0  0.25796225728E+03  0.97891762682E+02 -0.11077338558E+03  0.30804437331E+03  0.80580826470E+02 0.  0.
        254    2    1    2    0    0 -0.25796225728E+03 -0.97891762682E+02 -0.27167214003E+01  0.94059324254E+03  0.89921128994E+03 0.  0.
         23    2    4    4    0    0 -0.16943938496E+03  0.37979088148E+03 -0.98837030183E+02  0.43700966544E+03  0.90872824986E+02 0.  0.
         23    2    4    4    0    0 -0.88522872314E+02 -0.47768264416E+03  0.96120308782E+02  0.50358357710E+03  0.91325231495E+02 0.  0.
          2    1    3    3  502    0  0.10796183545E+03  0.52261024715E+02 -0.72531417175E+01  0.12016480634E+03  0.00000000000E+00 0. -1.
         -1    1    3    3    0  502  0.15000042183E+03  0.45630737967E+02 -0.10352024386E+03  0.18787956697E+03  0.00000000000E+00 0.  1.
         13    1    5    5    0    0 -0.11182232582E+03  0.16419215370E+03 -0.75937670177E+02  0.21267304869E+03  0.00000000000E+00 0.  1.
        -13    1    5    5    0    0 -0.57617059141E+02  0.21559872778E+03 -0.22899360006E+02  0.22433661675E+03  0.00000000000E+00 0. -1.
          1    1    6    6  503    0 -0.36255289438E+02 -0.35894064221E+03  0.97973950630E+02  0.37383382089E+03  0.00000000000E+00 0. -1.
         -1    1    6    6    0  503 -0.52267582876E+02 -0.11874200195E+03 -0.18536418477E+01  0.12974975621E+03  0.00000000000E+00 0.  1.
<mgrwt>
<rscale>  0 0.12434693E+04</rscale>
<asrwt>0</asrwt>
<pdfrwt beam="1">  1        2 0.10477906E+00 0.12434693E+04</pdfrwt>
<pdfrwt beam="2">  1       -1 0.87319039E-01 0.12434693E+04</pdfrwt>
<totfact> 0.61582735E+01</totfact>
</mgrwt>
</event>
<event>
12    7  0.1730932E-007  0.2111859E+04  0.7818608E-02  0.8556037E-01
         -1   -1    0    0    0  501 -0.00000000000E+00  0.00000000000E+00  0.12777827528E+04  0.12777827528E+04  0.00000000000E+00 0.  1.
          2   -1    0    0  501    0  0.00000000000E+00 -0.00000000000E+00 -0.87259499887E+03  0.87259499887E+03  0.00000000000E+00 0. -1.
         24    2    1    2    0    0 -0.26794944015E+03 -0.52575488282E+03  0.81085602460E+03  0.10059303720E+04  0.78697657666E+02 0.  0.
        254    2    1    2    0    0  0.26794944015E+03  0.52575488282E+03 -0.40566827066E+03  0.11444473797E+04  0.89273622075E+03 0.  0.
         23    2    4    4    0    0  0.14249640915E+03  0.67886878884E+03 -0.54221051018E+03  0.88578583740E+03  0.97243268678E+02 0.  0.
         23    2    4    4    0    0  0.12545303101E+03 -0.15311390602E+03  0.13654223952E+03  0.25866154232E+03  0.95287350152E+02 0.  0.
          2    1    3    3  502    0 -0.18718021940E+03 -0.29338573813E+03  0.44195229732E+03  0.56252418524E+03  0.00000000000E+00 0. -1.
         -1    1    3    3    0  502 -0.80769220757E+02 -0.23236914469E+03  0.36890372728E+03  0.44340618673E+03  0.00000000000E+00 0.  1.
         13    1    5    5    0    0  0.90928391864E+02  0.57408775628E+03 -0.47777791968E+03  0.75240711379E+03  0.00000000000E+00 0. -1.
        -13    1    5    5    0    0  0.51568017285E+02  0.10478103257E+03 -0.64432590502E+02  0.13337872361E+03  0.00000000000E+00 0.  1.
          3    1    6    6  503    0  0.53813144105E+02 -0.74565776538E+01  0.53836891549E+02  0.76484416194E+02  0.00000000000E+00 0. -1.
         -3    1    6    6    0  503  0.71639886901E+02 -0.14565732837E+03  0.82705347968E+02  0.18217712613E+03  0.00000000000E+00 0.  1.
<mgrwt>
<rscale>  0 0.21118587E+04</rscale>
<asrwt>0</asrwt>
<pdfrwt beam="1">  1        2 0.13424538E+00 0.21118587E+04</pdfrwt>
<pdfrwt beam="2">  1       -1 0.19658196E+00 0.21118587E+04</pdfrwt>
<totfact> 0.51103754E+00</totfact>
</mgrwt>
</event>
<event>
12    7  0.1730932E-007  0.1383405E+04  0.7818608E-02  0.8965919E-01
          2   -1    0    0  501    0  0.00000000000E+00  0.00000000000E+00  0.11488492720E+04  0.11488492720E+04  0.00000000000E+00 0. -1.
         -1   -1    0    0    0  501 -0.00000000000E+00 -0.00000000000E+00 -0.41646242081E+03  0.41646242081E+03  0.00000000000E+00 0.  1.
         24    2    1    2    0    0  0.14366740247E+03 -0.27366533757E+03  0.51432183659E+03  0.60529326632E+03  0.79498095178E+02 0.  0.
        254    2    1    2    0    0 -0.14366740247E+03  0.27366533757E+03  0.21806501457E+03  0.96001842646E+03  0.88235479771E+03 0.  0.
         23    2    4    4    0    0 -0.50060214272E+03  0.21819392420E+03  0.18402616147E+03  0.58377411535E+03  0.93356819728E+02 0.  0.
         23    2    4    4    0    0  0.35693474026E+03  0.55471413371E+02  0.34038853104E+02  0.37624431111E+03  0.99607487768E+02 0.  0.
          2    1    3    3  502    0  0.96822296685E+02 -0.22615610858E+03  0.44866857694E+03  0.51168802460E+03  0.00000000000E+00 0. -1.
         -1    1    3    3    0  502  0.46845105781E+02 -0.47509228987E+02  0.65653259655E+02  0.93605241722E+02  0.00000000000E+00 0.  1.
         13    1    5    5    0    0 -0.79052360076E+02  0.19639388971E+01  0.39851514914E+02  0.88550979275E+02  0.00000000000E+00 0. -1.
        -13    1    5    5    0    0 -0.42154978265E+03  0.21622998530E+03  0.14417464655E+03  0.49522313607E+03  0.00000000000E+00 0.  1.
          4    1    6    6  503    0  0.13398799977E+03  0.70081186923E+02  0.10236311975E+02  0.15155506896E+03  0.00000000000E+00 0. -1.
         -4    1    6    6    0  503  0.22294674048E+03 -0.14609773553E+02  0.23802541129E+02  0.22468924215E+03  0.00000000000E+00 0.  1.
<mgrwt>
<rscale>  0 0.13834053E+04</rscale>
<asrwt>0</asrwt>
<pdfrwt beam="1">  1        2 0.17674604E+00 0.13834053E+04</pdfrwt>
<pdfrwt beam="2">  1       -1 0.64071142E-01 0.13834053E+04</pdfrwt>
<totfact> 0.55825107E+01</totfact>
</mgrwt>
</event>
<event>
12    7  0.1730932E-007  0.1358897E+04  0.7818608E-02  0.8984121E-01
          2   -1    0    0  501    0  0.00000000000E+00  0.00000000000E+00  0.28603331440E+04  0.28603331440E+04  0.00000000000E+00 0. -1.
         -1   -1    0    0    0  501 -0.00000000000E+00 -0.00000000000E+00 -0.16139732247E+03  0.16139732247E+03  0.00000000000E+00 0.  1.
         24    2    1    2    0    0  0.21316654329E+02 -0.24834388033E+03  0.17251653463E+03  0.31421160703E+03  0.82691575281E+02 0.  0.
        254    2    1    2    0    0 -0.21316654329E+02  0.24834388033E+03  0.25264192869E+04  0.27075188594E+04  0.94113488849E+03 0.  0.
         23    2    4    4    0    0  0.31862925154E+03 -0.16078066732E+03  0.57216050535E+03  0.68012225303E+03  0.88451185805E+02 0.  0.
         23    2    4    4    0    0 -0.33994590587E+03  0.40912454764E+03  0.19542587815E+04  0.20273966064E+04  0.90903795178E+02 0.  0.
          2    1    3    3  502    0  0.35441312478E+02 -0.40177753289E+02  0.42355695266E+02  0.68295998499E+02  0.00000000000E+00 0. -1.
         -1    1    3    3    0  502 -0.14124658149E+02 -0.20816612704E+03  0.13016083936E+03  0.24591560853E+03  0.00000000000E+00 0.  1.
         13    1    5    5    0    0  0.27341610578E+03 -0.14933301006E+03  0.54015279044E+03  0.62355573272E+03  0.00000000000E+00 0.  1.
        -13    1    5    5    0    0  0.45213145761E+02 -0.11447657258E+02  0.32007714910E+02  0.56566520310E+02  0.00000000000E+00 0. -1.
          1    1    6    6  503    0 -0.10700840870E+03  0.14870262671E+03  0.83536045790E+03  0.85521363726E+03  0.00000000000E+00 0. -1.
         -1    1    6    6    0  503 -0.23293749717E+03  0.26042192093E+03  0.11188983236E+04  0.11721829691E+04  0.00000000000E+00 0.  1.
<mgrwt>
<rscale>  0 0.13588968E+04</rscale>
<asrwt>0</asrwt>
<pdfrwt beam="1">  1        2 0.44005121E+00 0.13588968E+04</pdfrwt>
<pdfrwt beam="2">  1       -1 0.24830360E-01 0.13588968E+04</pdfrwt>
<totfact> 0.33751431E+01</totfact>
</mgrwt>
</event>
<event>
12    7  0.1730932E-007  0.9858628E+03  0.7818608E-02  0.9324188E-01
         -1   -1    0    0    0  501 -0.00000000000E+00  0.00000000000E+00  0.13922448772E+03  0.13922448772E+03  0.00000000000E+00 0.  1.
          2   -1    0    0  501    0  0.00000000000E+00 -0.00000000000E+00 -0.17452487737E+04  0.17452487737E+04  0.00000000000E+00 0. -1.
         24    2    1    2    0    0 -0.56498578194E+01 -0.42535756953E+01 -0.21960851178E+03  0.23258214334E+03  0.76266251739E+02 0.  0.
        254    2    1    2    0    0  0.56498578194E+01  0.42535756953E+01 -0.13864157742E+04  0.16518911181E+04  0.89807881238E+03 0.  0.
         23    2    4    4    0    0  0.40444625603E+03  0.76275970801E+02 -0.39783373386E+03  0.57963658607E+03  0.91170688111E+02 0.  0.
         23    2    4    4    0    0 -0.39879639821E+03 -0.72022395106E+02 -0.98858204033E+03  0.10722545320E+04  0.90606502600E+02 0.  0.
          4    1    3    3  502    0  0.65495088912E+01  0.34128417436E+02 -0.12539920297E+03  0.13012534361E+03  0.00000000000E+00 0. -1.
         -3    1    3    3    0  502 -0.12199366711E+02 -0.38381993131E+02 -0.94209308816E+02  0.10245679974E+03  0.00000000000E+00 0.  1.
         13    1    5    5    0    0  0.36161810980E+03  0.42422608821E+02 -0.36686344740E+03  0.51687147737E+03  0.00000000000E+00 0. -1.
        -13    1    5    5    0    0  0.42828146231E+02  0.33853361980E+02 -0.30970286459E+02  0.62765108702E+02  0.00000000000E+00 0.  1.
          1    1    6    6  503    0 -0.20188006171E+03 -0.31887436263E+02 -0.38186425423E+03  0.43311970235E+03  0.00000000000E+00 0. -1.
         -1    1    6    6    0  503 -0.19691633651E+03 -0.40134958843E+02 -0.60671778610E+03  0.63913482965E+03  0.00000000000E+00 0.  1.
<mgrwt>
<rscale>  0 0.98586280E+03</rscale>
<asrwt>0</asrwt>
<pdfrwt beam="1">  1        2 0.26849980E+00 0.98586280E+03</pdfrwt>
<pdfrwt beam="2">  1       -1 0.21419153E-01 0.98586280E+03</pdfrwt>
<totfact> 0.19218790E+02</totfact>
</mgrwt>
</event>
<event>
12    7  0.1730932E-007  0.1248133E+04  0.7818608E-02  0.9071739E-01
          2   -1    0    0  501    0  0.00000000000E+00  0.00000000000E+00  0.76472835733E+03  0.76472835733E+03  0.00000000000E+00 0. -1.
         -1   -1    0    0    0  501 -0.00000000000E+00 -0.00000000000E+00 -0.50927718381E+03  0.50927718381E+03  0.00000000000E+00 0.  1.
         24    2    1    2    0    0 -0.21062652300E+03  0.16341417750E+03 -0.86811443592E+02  0.29168970917E+03  0.80491826293E+02 0.  0.
        254    2    1    2    0    0  0.21062652300E+03 -0.16341417750E+03  0.34226261711E+03  0.98231583198E+03  0.88132455377E+03 0.  0.
         23    2    4    4    0    0 -0.92079323452E+02 -0.15182774586E+03 -0.24478205463E+03  0.31597591856E+03  0.91609282396E+02 0.  0.
         23    2    4    4    0    0  0.30270584645E+03 -0.11586431643E+02  0.58704467174E+03  0.66633991342E+03  0.87306120784E+02 0.  0.
          4    1    3    3  502    0 -0.14745755958E+03  0.82992923004E+02 -0.22037088225E+02  0.17063759962E+03  0.00000000000E+00 0. -1.
         -3    1    3    3    0  502 -0.63168963416E+02  0.80421254494E+02 -0.64774355367E+02  0.12105210955E+03  0.00000000000E+00 0.  1.
         13    1    5    5    0    0 -0.72960739880E+02 -0.15946068672E+03 -0.19581897941E+03  0.26286128066E+03  0.00000000000E+00 0. -1.
        -13    1    5    5    0    0 -0.19118583573E+02  0.76329408654E+01 -0.48963075219E+02  0.53114637897E+02  0.00000000000E+00 0.  1.
          4    1    6    6  503    0  0.14380285866E+03  0.35367679173E+02  0.24507167522E+03  0.28633941553E+03  0.00000000000E+00 0.  1.
         -4    1    6    6    0  503  0.15890298779E+03 -0.46954110816E+02  0.34197299651E+03  0.38000049789E+03  0.00000000000E+00 0. -1.
<mgrwt>
<rscale>  0 0.12481325E+04</rscale>
<asrwt>0</asrwt>
<pdfrwt beam="1">  1        2 0.11765052E+00 0.12481325E+04</pdfrwt>
<pdfrwt beam="2">  1       -1 0.78350336E-01 0.12481325E+04</pdfrwt>
<totfact> 0.66985147E+01</totfact>
</mgrwt>
</event>
<event>
12    7  0.1730932E-007  0.2887920E+04  0.7818608E-02  0.8276481E-01
          2   -1    0    0  501    0  0.00000000000E+00  0.00000000000E+00  0.15443739670E+04  0.15443739670E+04  0.00000000000E+00 0. -1.
         -1   -1    0    0    0  501 -0.00000000000E+00 -0.00000000000E+00 -0.13500751714E+04  0.13500751714E+04  0.00000000000E+00 0.  1.
         24    2    1    2    0    0 -0.60696742664E+03 -0.10620002324E+04  0.53269076253E+03  0.13366827345E+04  0.81898312135E+02 0.  0.
        254    2    1    2    0    0  0.60696742664E+03  0.10620002324E+04 -0.33839196691E+03  0.15577664040E+04  0.90325693758E+03 0.  0.
         23    2    4    4    0    0  0.92011753435E+02  0.53451031334E+03 -0.55781916957E+03  0.78324478920E+03  0.90237110024E+02 0.  0.
         23    2    4    4    0    0  0.51495567321E+03  0.52748991911E+03  0.21942720266E+03  0.77452161475E+03  0.91161802999E+02 0.  0.
          4    1    3    3  502    0 -0.36759161450E+03 -0.70375102063E+03  0.31788813556E+03  0.85524380197E+03  0.00000000000E+00 0. -1.
         -3    1    3    3    0  502 -0.23937581215E+03 -0.35824921182E+03  0.21480262697E+03  0.48143893254E+03  0.00000000000E+00 0.  1.
         13    1    5    5    0    0  0.20250772410E+02  0.25554602995E+03 -0.20815760931E+03  0.33021728834E+03  0.00000000000E+00 0.  1.
        -13    1    5    5    0    0  0.71760981025E+02  0.27896428339E+03 -0.34966156027E+03  0.45302750086E+03  0.00000000000E+00 0. -1.
          1    1    6    6  503    0  0.36921070274E+03  0.43235169209E+03  0.16045929457E+03  0.59075520639E+03  0.00000000000E+00 0. -1.
         -1    1    6    6    0  503  0.14574497047E+03  0.95138227022E+02  0.58967908095E+02  0.18376640836E+03  0.00000000000E+00 0.  1.
<mgrwt>
<rscale>  0 0.28879203E+04</rscale>
<asrwt>0</asrwt>
<pdfrwt beam="1">  1        2 0.23759599E+00 0.28879203E+04</pdfrwt>
<pdfrwt beam="2">  1       -1 0.20770387E+00 0.28879203E+04</pdfrwt>
<totfact> 0.15709109E+00</totfact>
</mgrwt>
</event>
<event>
12    7  0.1730932E-007  0.1624113E+04  0.7818608E-02  0.8805870E-01
         -1   -1    0    0    0  501 -0.00000000000E+00  0.00000000000E+00  0.58058071777E+03  0.58058071777E+03  0.00000000000E+00 0.  1.
          2   -1    0    0  501    0  0.00000000000E+00 -0.00000000000E+00 -0.11358212108E+04  0.11358212108E+04  0.00000000000E+00 0. -1.
         24    2    1    2    0    0 -0.22424090388E+03 -0.45917493343E+03  0.45240075505E+02  0.52009811087E+03  0.85614122846E+02 0.  0.
        254    2    1    2    0    0  0.22424090388E+03  0.45917493343E+03 -0.60048056852E+03  0.11963038177E+04  0.89968900660E+03 0.  0.
         23    2    4    4    0    0  0.38359800437E+03  0.32198697657E+03 -0.76207161546E+03  0.91599918713E+03  0.86477290110E+02 0.  0.
         23    2    4    4    0    0 -0.15935710049E+03  0.13718795686E+03  0.16159104693E+03  0.28030463057E+03  0.90795365983E+02 0.  0.
          4    1    3    3  502    0 -0.26311511632E+02 -0.11740872980E+02  0.75644448354E+00  0.28822143414E+02  0.00000000000E+00 0. -1.
         -3    1    3    3    0  502 -0.19792939224E+03 -0.44743406045E+03  0.44483631021E+02  0.49127596745E+03  0.00000000000E+00 0.  1.
         13    1    5    5    0    0  0.12276778043E+02 -0.38390988975E+01 -0.32081885567E+02  0.34564509848E+02  0.00000000000E+00 0. -1.
        -13    1    5    5    0    0  0.37132122632E+03  0.32582607547E+03 -0.72998972989E+03  0.88143467728E+03  0.00000000000E+00 0.  1.
          1    1    6    6  503    0 -0.90734515326E+02  0.81845389508E+02  0.36990066448E+02  0.12767021998E+03  0.00000000000E+00 0. -1.
         -1    1    6    6    0  503 -0.68622585163E+02  0.55342567356E+02  0.12460098049E+03  0.15263441058E+03  0.00000000000E+00 0.  1.
<mgrwt>
<rscale>  0 0.16241132E+04</rscale>
<asrwt>0</asrwt>
<pdfrwt beam="1">  1        2 0.17474172E+00 0.16241132E+04</pdfrwt>
<pdfrwt beam="2">  1       -1 0.89320111E-01 0.16241132E+04</pdfrwt>
<totfact> 0.27773955E+01</totfact>
</mgrwt>
</event>
<event>
12    7  0.1730932E-007  0.2130454E+04  0.7818608E-02  0.8547946E-01
          2   -1    0    0  501    0  0.00000000000E+00  0.00000000000E+00  0.16857273537E+04  0.16857273537E+04  0.00000000000E+00 0. -1.
         -1   -1    0    0    0  501 -0.00000000000E+00 -0.00000000000E+00 -0.67312703072E+03  0.67312703072E+03  0.00000000000E+00 0.  1.
         24    2    1    2    0    0  0.56539830911E+03  0.31853373981E+03  0.10697042157E+04  0.12536100246E+04  0.78307046446E+02 0.  0.
        254    2    1    2    0    0 -0.56539830911E+03 -0.31853373981E+03 -0.57103892727E+02  0.11052443597E+04  0.89284111063E+03 0.  0.
         23    2    4    4    0    0 -0.23425142404E+03 -0.59987269040E+03 -0.10555613118E+03  0.65856679608E+03  0.88584161734E+02 0.  0.
         23    2    4    4    0    0 -0.33114688508E+03  0.28133895059E+03  0.48452238449E+02  0.44667756367E+03  0.91451418026E+02 0.  0.
          2    1    3    3  502    0  0.27858883195E+03  0.16368882353E+03  0.45831978848E+03  0.56076982510E+03  0.00000000000E+00 0. -1.
         -1    1    3    3    0  502  0.28680947716E+03  0.15484491628E+03  0.61138442719E+03  0.69284019954E+03  0.00000000000E+00 0.  1.
         13    1    5    5    0    0 -0.18323495476E+03 -0.54368946500E+03 -0.10084086978E+03  0.58253082666E+03  0.00000000000E+00 0. -1.
        -13    1    5    5    0    0 -0.51016469277E+02 -0.56183225407E+02 -0.47152613938E+01  0.76035969414E+02  0.00000000000E+00 0.  1.
          1    1    6    6  503    0 -0.32296020053E+03  0.28137091542E+03  0.33518223225E+02  0.42964677871E+03  0.00000000000E+00 0. -1.
         -1    1    6    6    0  503 -0.81866845446E+01 -0.31964822970E-01  0.14934015224E+02  0.17030784958E+02  0.00000000000E+00 0.  1.
<mgrwt>
<rscale>  0 0.21304541E+04</rscale>
<asrwt>0</asrwt>
<pdfrwt beam="1">  1        2 0.25934267E+00 0.21304541E+04</pdfrwt>
<pdfrwt beam="2">  1       -1 0.10355801E+00 0.21304541E+04</pdfrwt>
<totfact> 0.91933310E+00</totfact>
</mgrwt>
</event>
<event>
12    7  0.1730932E-007  0.1321171E+04  0.7818608E-02  0.9012943E-01
          2   -1    0    0  501    0  0.00000000000E+00  0.00000000000E+00  0.86030279047E+03  0.86030279047E+03  0.00000000000E+00 0. -1.
         -1   -1    0    0    0  501 -0.00000000000E+00 -0.00000000000E+00 -0.50723235572E+03  0.50723235572E+03  0.00000000000E+00 0.  1.
         24    2    1    2    0    0 -0.31840537133E+03  0.48208978195E+02 -0.84586502220E+02  0.34210583118E+03  0.78583950629E+02 0.  0.
        254    2    1    2    0    0  0.31840537133E+03 -0.48208978195E+02  0.43765693698E+03  0.10254293150E+04  0.86962957604E+03 0.  0.
         23    2    4    4    0    0  0.18580950377E+03  0.23872608810E+02 -0.24429821763E+03  0.32064832839E+03  0.89658564669E+02 0.  0.
         23    2    4    4    0    0  0.13259586757E+03 -0.72081587006E+02  0.68195515461E+03  0.70478098662E+03  0.94212456308E+02 0.  0.
          4    1    3    3  502    0  0.15652026910E+01 -0.50661342265E+01  0.30282318404E+01  0.61062069687E+01  0.00000000000E+00 0. -1.
         -3    1    3    3    0  502 -0.31997057403E+03  0.53275112422E+02 -0.87614734061E+02  0.33599962421E+03  0.00000000000E+00 0.  1.
         13    1    5    5    0    0  0.56622846061E+02 -0.89190770485E+01 -0.14040911947E+03  0.15165888520E+03  0.00000000000E+00 0. -1.
        -13    1    5    5    0    0  0.12918665771E+03  0.32791685859E+02 -0.10388909817E+03  0.16898944319E+03  0.00000000000E+00 0.  1.
          4    1    6    6  503    0  0.10889242505E+03 -0.98893126807E+01  0.37068310742E+03  0.38647292902E+03  0.00000000000E+00 0. -1.
         -4    1    6    6    0  503  0.23703442519E+02 -0.62192274325E+02  0.31127204719E+03  0.31830805760E+03  0.00000000000E+00 0.  1.
<mgrwt>
<rscale>  0 0.13211713E+04</rscale>
<asrwt>0</asrwt>
<pdfrwt beam="1">  1        2 0.13235428E+00 0.13211713E+04</pdfrwt>
<pdfrwt beam="2">  1       -1 0.78035747E-01 0.13211713E+04</pdfrwt>
<totfact> 0.57375173E+01</totfact>
</mgrwt>
</event>
<event>
12    7  0.1730932E-007  0.2862897E+04  0.7818608E-02  0.8284003E-01
         -1   -1    0    0    0  501 -0.00000000000E+00  0.00000000000E+00  0.73411128366E+03  0.73411128366E+03  0.00000000000E+00 0.  1.
          2   -1    0    0  501    0  0.00000000000E+00 -0.00000000000E+00 -0.27911918115E+04  0.27911918115E+04  0.00000000000E+00 0. -1.
         24    2    1    2    0    0  0.54681126987E+03 -0.11340011622E+04 -0.59537925621E+03  0.13946350331E+04  0.74627180704E+02 0.  0.
        254    2    1    2    0    0 -0.54681126987E+03  0.11340011622E+04 -0.14617012717E+04  0.21306680621E+04  0.90455214476E+03 0.  0.
         23    2    4    4    0    0 -0.74584308851E+03  0.87698997073E+03 -0.13470647877E+04  0.17743208222E+04  0.90760765278E+02 0.  0.
         23    2    4    4    0    0  0.19903181864E+03  0.25701119146E+03 -0.11463648403E+03  0.35634723991E+03  0.90406938665E+02 0.  0.
          2    1    3    3  502    0  0.10361836594E+03 -0.16887525053E+03 -0.11427828344E+03  0.22872503594E+03  0.00000000000E+00 0. -1.
         -1    1    3    3    0  502  0.44319290393E+03 -0.96512591166E+03 -0.48110097277E+03  0.11659099972E+04  0.00000000000E+00 0.  1.
         13    1    5    5    0    0 -0.41429357594E+03  0.53906379714E+03 -0.74868160860E+03  0.10113125607E+04  0.00000000000E+00 0.  1.
        -13    1    5    5    0    0 -0.33154951258E+03  0.33792617359E+03 -0.59838317905E+03  0.76300826146E+03  0.00000000000E+00 0. -1.
          1    1    6    6  503    0  0.10670569132E+03  0.18733154216E+03 -0.10631506185E+03  0.24037908317E+03  0.00000000000E+00 0. -1.
         -1    1    6    6    0  503  0.92326127319E+02  0.69679649297E+02 -0.83214221733E+01  0.11596815674E+03  0.00000000000E+00 0.  1.
<mgrwt>
<rscale>  0 0.28628974E+04</rscale>
<asrwt>0</asrwt>
<pdfrwt beam="1">  1        2 0.42941413E+00 0.28628974E+04</pdfrwt>
<pdfrwt beam="2">  1       -1 0.11294020E+00 0.28628974E+04</pdfrwt>
<totfact> 0.16502358E+00</totfact>
</mgrwt>
</event>
<event>
12    7  0.1730932E-007  0.2227534E+04  0.7818608E-02  0.8507054E-01
          2   -1    0    0  501    0  0.00000000000E+00  0.00000000000E+00  0.27363473550E+04  0.27363473550E+04  0.00000000000E+00 0. -1.
         -1   -1    0    0    0  501 -0.00000000000E+00 -0.00000000000E+00 -0.45333323782E+03  0.45333323782E+03  0.00000000000E+00 0.  1.
         24    2    1    2    0    0 -0.51692445938E+03 -0.13506535607E+03 -0.13051949679E+03  0.55588151116E+03  0.80717831342E+02 0.  0.
        254    2    1    2    0    0  0.51692445938E+03  0.13506535607E+03  0.24135336140E+04  0.26337990817E+04  0.90901020330E+03 0.  0.
         23    2    4    4    0    0  0.53010803024E+02  0.21256481664E+03  0.77967265838E+02  0.24961247627E+03  0.90738896066E+02 0.  0.
         23    2    4    4    0    0  0.46391365635E+03 -0.77499460569E+02  0.23355663482E+04  0.23841866054E+04  0.90849082900E+02 0.  0.
          4    1    3    3  502    0 -0.37089882656E+03 -0.77488132510E+02 -0.59322570562E+02  0.38352251251E+03  0.00000000000E+00 0. -1.
         -3    1    3    3    0  502 -0.14602563282E+03 -0.57577223557E+02 -0.71196926225E+02  0.17235899865E+03  0.00000000000E+00 0.  1.
         13    1    5    5    0    0  0.16844723021E+02 -0.41926901830E+01  0.63299703576E+01  0.18476792724E+02  0.00000000000E+00 0. -1.
        -13    1    5    5    0    0  0.36166080003E+02  0.21675750682E+03  0.71637295480E+02  0.23113568355E+03  0.00000000000E+00 0.  1.
          3    1    6    6  503    0  0.36901907264E+02  0.80865654213E+01  0.10718425474E+03  0.11364685550E+03  0.00000000000E+00 0. -1.
         -3    1    6    6    0  503  0.42701174909E+03 -0.85586025991E+02  0.22283820934E+04  0.22705397499E+04  0.00000000000E+00 0.  1.
<mgrwt>
<rscale>  0 0.22275342E+04</rscale>
<asrwt>0</asrwt>
<pdfrwt beam="1">  1        2 0.42097651E+00 0.22275342E+04</pdfrwt>
<pdfrwt beam="2">  1       -1 0.69743577E-01 0.22275342E+04</pdfrwt>
<totfact> 0.54512685E+00</totfact>
</mgrwt>
</event>
<event>
12    7  0.1730932E-007  0.1656134E+04  0.7818608E-02  0.8786786E-01
         -1   -1    0    0    0  501 -0.00000000000E+00  0.00000000000E+00  0.52358755964E+03  0.52358755964E+03  0.00000000000E+00 0.  1.
          2   -1    0    0  501    0  0.00000000000E+00 -0.00000000000E+00 -0.13096087734E+04  0.13096087734E+04  0.00000000000E+00 0. -1.
         24    2    1    2    0    0  0.57626944759E+03  0.89289302859E+02 -0.33341402903E+03  0.67652685875E+03  0.80402860788E+02 0.  0.
        254    2    1    2    0    0 -0.57626944759E+03 -0.89289302859E+02 -0.45260718471E+03  0.11566694743E+04  0.89048972663E+03 0.  0.
         23    2    4    4    0    0 -0.63711314238E+03  0.16728768984E+03 -0.54700327430E+03  0.86114587436E+03  0.91985365497E+02 0.  0.
         23    2    4    4    0    0  0.60843694797E+02 -0.25657699270E+03  0.94396089590E+02  0.29552359991E+03  0.94286096506E+02 0.  0.
          4    1    3    3  502    0  0.34268213420E+03  0.79969246532E+02 -0.16657281742E+03  0.38932329624E+03  0.00000000000E+00 0. -1.
         -3    1    3    3    0  502  0.23358731339E+03  0.93200563271E+01 -0.16684121161E+03  0.28720356251E+03  0.00000000000E+00 0.  1.
         13    1    5    5    0    0 -0.44261811531E+03  0.15016577476E+03 -0.35126714977E+03  0.58467868647E+03  0.00000000000E+00 0. -1.
        -13    1    5    5    0    0 -0.19449502708E+03  0.17121915081E+02 -0.19573612453E+03  0.27646718789E+03  0.00000000000E+00 0.  1.
          2    1    6    6  503    0  0.25417073934E+02 -0.12377347906E+03 -0.41086498949E+01  0.12642303101E+03  0.00000000000E+00 0. -1.
         -2    1    6    6    0  503  0.35426620863E+02 -0.13280351364E+03  0.98504739485E+02  0.16910056890E+03  0.00000000000E+00 0.  1.
<mgrwt>
<rscale>  0 0.16561339E+04</rscale>
<asrwt>0</asrwt>
<pdfrwt beam="1">  1        2 0.20147827E+00 0.16561339E+04</pdfrwt>
<pdfrwt beam="2">  1       -1 0.80551933E-01 0.16561339E+04</pdfrwt>
<totfact> 0.27306019E+01</totfact>
</mgrwt>
</event>
<event>
12    7  0.1730932E-007  0.1673937E+04  0.7818608E-02  0.8776370E-01
         -1   -1    0    0    0  501 -0.00000000000E+00  0.00000000000E+00  0.41683072208E+03  0.41683072208E+03  0.00000000000E+00 0.  1.
          2   -1    0    0  501    0  0.00000000000E+00 -0.00000000000E+00 -0.16805767095E+04  0.16805767095E+04  0.00000000000E+00 0. -1.
         24    2    1    2    0    0  0.66726628904E+02  0.14245861275E+03 -0.11527309549E+04  0.11661736416E+04  0.80158645574E+02 0.  0.
        254    2    1    2    0    0 -0.66726628904E+02 -0.14245861275E+03 -0.11101503247E+03  0.93123379000E+03  0.91111203200E+03 0.  0.
         23    2    4    4    0    0 -0.70699987390E+02 -0.47731383793E+03  0.12819966470E+03  0.50960546641E+03  0.10215473198E+03 0.  0.
         23    2    4    4    0    0  0.39733584855E+01  0.33485522518E+03 -0.23921469717E+03  0.42162832359E+03  0.91667674297E+02 0.  0.
          2    1    3    3  502    0  0.78799095798E+02  0.85461688270E+02 -0.67977302407E+03  0.68964074844E+03  0.00000000000E+00 0. -1.
         -1    1    3    3    0  502 -0.12072466893E+02  0.56996924485E+02 -0.47295793088E+03  0.47653289314E+03  0.00000000000E+00 0.  1.
         13    1    5    5    0    0 -0.83655596527E+02 -0.24514722582E+03  0.88395398283E+02  0.27369539198E+03  0.00000000000E+00 0. -1.
        -13    1    5    5    0    0  0.12955609137E+02 -0.23216661212E+03  0.39804266413E+02  0.23591007442E+03  0.00000000000E+00 0.  1.
          4    1    6    6  503    0 -0.18121841384E+02  0.49036821539E+02 -0.74479155399E+02  0.90995360270E+02  0.00000000000E+00 0. -1.
         -4    1    6    6    0  503  0.22095199870E+02  0.28581840364E+03 -0.16473554177E+03  0.33063296332E+03  0.00000000000E+00 0.  1.
<mgrwt>
<rscale>  0 0.16739367E+04</rscale>
<asrwt>0</asrwt>
<pdfrwt beam="1">  1        2 0.25855027E+00 0.16739367E+04</pdfrwt>
<pdfrwt beam="2">  1       -1 0.64127802E-01 0.16739367E+04</pdfrwt>
<totfact> 0.26929933E+01</totfact>
</mgrwt>
</event>
<event>
12    7  0.1730932E-007  0.1581914E+04  0.7818608E-02  0.8831737E-01
         -1   -1    0    0    0  501 -0.00000000000E+00  0.00000000000E+00  0.12482862415E+04  0.12482862415E+04  0.00000000000E+00 0.  1.
          2   -1    0    0  501    0  0.00000000000E+00 -0.00000000000E+00 -0.50117736612E+03  0.50117736612E+03  0.00000000000E+00 0. -1.
         24    2    1    2    0    0 -0.74830248458E+02  0.48705736679E+03  0.47850375762E+03  0.69135874080E+03  0.78655055821E+02 0.  0.
        254    2    1    2    0    0  0.74830248458E+02 -0.48705736679E+03  0.26860511774E+03  0.10581048668E+04  0.89700209321E+03 0.  0.
         23    2    4    4    0    0  0.12236619100E+03 -0.60210445689E+03  0.48865800472E+03  0.79022169884E+03  0.90335076480E+02 0.  0.
         23    2    4    4    0    0 -0.47535942542E+02  0.11504709010E+03 -0.22005288697E+03  0.26788316794E+03  0.88558567217E+02 0.  0.
          4    1    3    3  502    0 -0.43114592979E+02  0.23484004885E+03  0.28554136742E+03  0.37221309646E+03  0.00000000000E+00 0. -1.
         -3    1    3    3    0  502 -0.31715655480E+02  0.25221731794E+03  0.19296239020E+03  0.31914564434E+03  0.00000000000E+00 0.  1.
         13    1    5    5    0    0  0.53716453347E+01 -0.10186682939E+03  0.45252376348E+02  0.11159517494E+03  0.00000000000E+00 0.  1.
        -13    1    5    5    0    0  0.11699454567E+03 -0.50023762749E+03  0.44340562837E+03  0.67862652390E+03  0.00000000000E+00 0. -1.
          3    1    6    6  503    0 -0.42495792599E+02  0.91487003120E+02 -0.22186613561E+03  0.24372186250E+03  0.00000000000E+00 0. -1.
         -3    1    6    6    0  503 -0.50401499428E+01  0.23560086983E+02  0.18132486399E+01  0.24161305443E+02  0.00000000000E+00 0.  1.
<mgrwt>
<rscale>  0 0.15819138E+04</rscale>
<asrwt>0</asrwt>
<pdfrwt beam="1">  1        2 0.77104211E-01 0.15819138E+04</pdfrwt>
<pdfrwt beam="2">  1       -1 0.19204404E+00 0.15819138E+04</pdfrwt>
<totfact> 0.11522802E+01</totfact>
</mgrwt>
</event>
<event>
12    7  0.1730932E-007  0.1328702E+04  0.7818608E-02  0.9007109E-01
         -1   -1    0    0    0  501 -0.00000000000E+00  0.00000000000E+00  0.39923674921E+03  0.39923674921E+03  0.00000000000E+00 0.  1.
          2   -1    0    0  501    0  0.00000000000E+00 -0.00000000000E+00 -0.11055145745E+04  0.11055145745E+04  0.00000000000E+00 0. -1.
         24    2    1    2    0    0  0.46149447227E+02  0.32637288403E+03 -0.26454183347E+02  0.34011475892E+03  0.79556234856E+02 0.  0.
        254    2    1    2    0    0 -0.46149447227E+02 -0.32637288403E+03 -0.67982364197E+03  0.11646365648E+04  0.88632336821E+03 0.  0.
         23    2    4    4    0    0 -0.90250972104E+02  0.22337560196E+03 -0.52228645126E+03  0.58218722878E+03  0.90094032364E+02 0.  0.
         23    2    4    4    0    0  0.44101524877E+02 -0.54974848600E+03 -0.15753719072E+03  0.58244933605E+03  0.10129620058E+03 0.  0.
          2    1    3    3  502    0 -0.89853248137E+01  0.97203366026E+02 -0.36433292486E+02  0.10419508256E+03  0.00000000000E+00 0. -1.
         -1    1    3    3    0  502  0.55134772040E+02  0.22916951801E+03  0.99791091392E+01  0.23591967636E+03  0.00000000000E+00 0.  1.
         13    1    5    5    0    0  0.16574217647E+02  0.43779281007E+02 -0.12128167950E+03  0.13000221505E+03  0.00000000000E+00 0. -1.
        -13    1    5    5    0    0 -0.10682518975E+03  0.17959632096E+03 -0.40100477175E+03  0.45218501372E+03  0.00000000000E+00 0.  1.
          4    1    6    6  503    0 -0.20855338223E+02 -0.13802133407E+03 -0.87201814506E+01  0.13986019933E+03  0.00000000000E+00 0. -1.
         -4    1    6    6    0  503  0.64956863100E+02 -0.41172715192E+03 -0.14881700927E+03  0.44258913672E+03  0.00000000000E+00 0.  1.
<mgrwt>
<rscale>  0 0.13287017E+04</rscale>
<asrwt>0</asrwt>
<pdfrwt beam="1">  1        2 0.17007916E+00 0.13287017E+04</pdfrwt>
<pdfrwt beam="2">  1       -1 0.61421040E-01 0.13287017E+04</pdfrwt>
<totfact> 0.64834560E+01</totfact>
</mgrwt>
</event>
<event>
12    7  0.1730932E-007  0.1837909E+04  0.7818608E-02  0.8686396E-01
          2   -1    0    0  501    0  0.00000000000E+00  0.00000000000E+00  0.81188357227E+03  0.81188357227E+03  0.00000000000E+00 0. -1.
         -1   -1    0    0    0  501 -0.00000000000E+00 -0.00000000000E+00 -0.10401459196E+04  0.10401459196E+04  0.00000000000E+00 0.  1.
         24    2    1    2    0    0 -0.19185831812E+03  0.54929190934E+03  0.30438841497E+03  0.66149684009E+03  0.79965907572E+02 0.  0.
        254    2    1    2    0    0  0.19185831812E+03 -0.54929190934E+03 -0.53265076232E+03  0.11905326518E+04  0.89169498400E+03 0.  0.
         23    2    4    4    0    0  0.46887954140E+03 -0.17392259559E+03 -0.50222557860E+03  0.71453711609E+03  0.90750564096E+02 0.  0.
         23    2    4    4    0    0 -0.27702122328E+03 -0.37536931375E+03 -0.30425183720E+02  0.47599553570E+03  0.89460484844E+02 0.  0.
          4    1    3    3  502    0 -0.17940908801E+03  0.47543147771E+03  0.29045657465E+03  0.58530994577E+03  0.00000000000E+00 0. -1.
         -3    1    3    3    0  502 -0.12449230114E+02  0.73860431629E+02  0.13931840324E+02  0.76186894317E+02  0.00000000000E+00 0.  1.
         13    1    5    5    0    0  0.81185922369E+02 -0.22280824749E+02 -0.42400202386E+02  0.94262220984E+02  0.00000000000E+00 0. -1.
        -13    1    5    5    0    0  0.38769361903E+03 -0.15164177084E+03 -0.45982537621E+03  0.62027489511E+03  0.00000000000E+00 0.  1.
          1    1    6    6  503    0 -0.68301037379E+02 -0.76179893322E+02 -0.42990267379E+02  0.11098004750E+03  0.00000000000E+00 0. -1.
         -1    1    6    6    0  503 -0.20872018590E+03 -0.29918942043E+03  0.12565083659E+02  0.36501548820E+03  0.00000000000E+00 0.  1.
<mgrwt>
<rscale>  0 0.18379090E+04</rscale>
<asrwt>0</asrwt>
<pdfrwt beam="1">  1        2 0.12490517E+00 0.18379090E+04</pdfrwt>
<pdfrwt beam="2">  1       -1 0.16002245E+00 0.18379090E+04</pdfrwt>
<totfact> 0.10599466E+01</totfact>
</mgrwt>
</event>
<event>
12    7  0.1730932E-007  0.1880826E+04  0.7818608E-02  0.8664460E-01
          2   -1    0    0  501    0  0.00000000000E+00  0.00000000000E+00  0.39169726927E+04  0.39169726927E+04  0.00000000000E+00 0. -1.
         -1   -1    0    0    0  501 -0.00000000000E+00 -0.00000000000E+00 -0.22578061147E+03  0.22578061147E+03  0.00000000000E+00 0.  1.
         24    2    1    2    0    0  0.13286062380E+02  0.40859994909E+03  0.11457072228E+03  0.43209430324E+03  0.80303167041E+02 0.  0.
        254    2    1    2    0    0 -0.13286062380E+02 -0.40859994909E+03  0.35766213589E+04  0.37106590009E+04  0.89979966551E+03 0.  0.
         23    2    4    4    0    0 -0.21194747641E+03  0.18406336304E+03  0.60542030150E+03  0.67302006856E+03  0.87299580999E+02 0.  0.
         23    2    4    4    0    0  0.19866141403E+03 -0.59266331213E+03  0.29712010574E+04  0.30376389324E+04  0.92186770882E+02 0.  0.
          2    1    3    3  502    0 -0.80796967446E+01  0.10223043981E+03 -0.46431626320E+01  0.10265429013E+03  0.00000000000E+00 0. -1.
         -1    1    3    3    0  502  0.21365759124E+02  0.30636950928E+03  0.11921388491E+03  0.32944001310E+03  0.00000000000E+00 0.  1.
         13    1    5    5    0    0 -0.21406954682E+03  0.18383915269E+03  0.55554734569E+03  0.62310148310E+03  0.00000000000E+00 0.  1.
        -13    1    5    5    0    0  0.21220704079E+01  0.22421035292E+00  0.49872955808E+02  0.49918585458E+02  0.00000000000E+00 0. -1.
          1    1    6    6  503    0  0.84365822663E+01 -0.46861577831E+02  0.36632287451E+03  0.36940442849E+03  0.00000000000E+00 0. -1.
         -1    1    6    6    0  503  0.19022483176E+03 -0.54580173430E+03  0.26048781829E+04  0.26682345039E+04  0.00000000000E+00 0.  1.
<mgrwt>
<rscale>  0 0.18808259E+04</rscale>
<asrwt>0</asrwt>
<pdfrwt beam="1">  1        2 0.60261113E+00 0.18808259E+04</pdfrwt>
<pdfrwt beam="2">  1       -1 0.34735481E-01 0.18808259E+04</pdfrwt>
<totfact> 0.33876628E+00</totfact>
</mgrwt>
</event>
<event>
12    7  0.1730932E-007  0.2717622E+04  0.7818608E-02  0.8329310E-01
          2   -1    0    0  501    0  0.00000000000E+00  0.00000000000E+00  0.32058224071E+04  0.32058224071E+04  0.00000000000E+00 0. -1.
         -1   -1    0    0    0  501 -0.00000000000E+00 -0.00000000000E+00 -0.57594179251E+03  0.57594179251E+03  0.00000000000E+00 0.  1.
         24    2    1    2    0    0 -0.62321613772E+02  0.19152508751E+03  0.28331964450E+04  0.28414169494E+04  0.77989368099E+02 0.  0.
        254    2    1    2    0    0  0.62321613772E+02 -0.19152508751E+03 -0.20331583042E+03  0.94034725022E+03  0.89573979560E+03 0.  0.
         23    2    4    4    0    0  0.13983919909E+03 -0.53118437120E+03 -0.14138110503E+03  0.57442861037E+03  0.90927299188E+02 0.  0.
         23    2    4    4    0    0 -0.77517585315E+02  0.33965928369E+03 -0.61934725387E+02  0.36591863986E+03  0.93183344851E+02 0.  0.
          2    1    3    3  502    0  0.10863185563E+02  0.63131409636E+02  0.11330148751E+04  0.11348243436E+04  0.00000000000E+00 0. -1.
         -1    1    3    3    0  502 -0.73184799335E+02  0.12839367788E+03  0.17001815700E+04  0.17065926058E+04  0.00000000000E+00 0.  1.
         13    1    5    5    0    0  0.15281929607E+03 -0.47855689529E+03 -0.13201016325E+03  0.51941998660E+03  0.00000000000E+00 0. -1.
        -13    1    5    5    0    0 -0.12980096983E+02 -0.52627475912E+02 -0.93709417773E+01  0.55008623763E+02  0.00000000000E+00 0.  1.
          2    1    6    6  503    0 -0.47144147670E+02  0.27045914521E+03 -0.10949382408E+02  0.27475554382E+03  0.00000000000E+00 0. -1.
         -2    1    6    6    0  503 -0.30373437645E+02  0.69200138482E+02 -0.50985342979E+02  0.91163096037E+02  0.00000000000E+00 0.  1.
<mgrwt>
<rscale>  0 0.27176218E+04</rscale>
<asrwt>0</asrwt>
<pdfrwt beam="1">  1        2 0.49320344E+00 0.27176218E+04</pdfrwt>
<pdfrwt beam="2">  1       -1 0.88606432E-01 0.27176218E+04</pdfrwt>
<totfact> 0.16000305E+00</totfact>
</mgrwt>
</event>
<event>
12    7  0.1730932E-007  0.2489821E+04  0.7818608E-02  0.8406621E-01
         -1   -1    0    0    0  501 -0.00000000000E+00  0.00000000000E+00  0.14920859203E+04  0.14920859203E+04  0.00000000000E+00 0.  1.
          2   -1    0    0  501    0  0.00000000000E+00 -0.00000000000E+00 -0.10386812490E+04  0.10386812490E+04  0.00000000000E+00 0. -1.
         24    2    1    2    0    0 -0.39838586676E+03 -0.98738584109E+03  0.37211416106E+03  0.11308116449E+04  0.81387525609E+02 0.  0.
        254    2    1    2    0    0  0.39838586676E+03  0.98738584109E+03  0.81290510254E+02  0.13999555244E+04  0.90533155540E+03 0.  0.
         23    2    4    4    0    0  0.57017355040E+03  0.42160268162E+03 -0.19542736926E+03  0.74077062639E+03  0.87764261144E+02 0.  0.
         23    2    4    4    0    0 -0.17178768364E+03  0.56578315947E+03  0.27671787952E+03  0.65918489801E+03  0.91270768225E+02 0.  0.
          4    1    3    3  502    0 -0.35585907085E+03 -0.86655651458E+03  0.35403551704E+03  0.10014474617E+04  0.00000000000E+00 0. -1.
         -3    1    3    3    0  502 -0.42526795908E+02 -0.12082932651E+03  0.18078644021E+02  0.12936418316E+03  0.00000000000E+00 0.  1.
         13    1    5    5    0    0  0.19446565344E+03  0.18024445736E+03 -0.41191600334E+02  0.26833133010E+03  0.00000000000E+00 0. -1.
        -13    1    5    5    0    0  0.37570789696E+03  0.24135822427E+03 -0.15423576893E+03  0.47243929629E+03  0.00000000000E+00 0.  1.
          1    1    6    6  503    0 -0.77803778576E+01  0.55880917262E+01  0.18661471003E+02  0.20976452244E+02  0.00000000000E+00 0. -1.
         -1    1    6    6    0  503 -0.16400730578E+03  0.56019506774E+03  0.25805640851E+03  0.63820844577E+03  0.00000000000E+00 0.  1.
<mgrwt>
<rscale>  0 0.24898206E+04</rscale>
<asrwt>0</asrwt>
<pdfrwt beam="1">  1        2 0.15979712E+00 0.24898206E+04</pdfrwt>
<pdfrwt beam="2">  1       -1 0.22955168E+00 0.24898206E+04</pdfrwt>
<totfact> 0.23014500E+00</totfact>
</mgrwt>
</event>
<event>
12    7  0.1730932E-007  0.1557981E+04  0.7818608E-02  0.8846786E-01
         -1   -1    0    0    0  501 -0.00000000000E+00  0.00000000000E+00  0.22676707540E+04  0.22676707540E+04  0.00000000000E+00 0.  1.
          2   -1    0    0  501    0  0.00000000000E+00 -0.00000000000E+00 -0.26759873002E+03  0.26759873002E+03  0.00000000000E+00 0. -1.
         24    2    1    2    0    0  0.10725653433E+03 -0.16386757447E+03  0.14292602775E+04  0.14448952371E+04  0.81121878156E+02 0.  0.
        254    2    1    2    0    0 -0.10725653433E+03  0.16386757447E+03  0.57081174647E+03  0.10903742470E+04  0.90814833722E+03 0.  0.
         23    2    4    4    0    0  0.65215576689E+02 -0.22033687169E+03 -0.12276978631E+03  0.27376796678E+03  0.84113439677E+02 0.  0.
         23    2    4    4    0    0 -0.17247211102E+03  0.38420444616E+03  0.69358153278E+03  0.81660628018E+03  0.91819326352E+02 0.  0.
          2    1    3    3  502    0  0.74575944345E+02 -0.80024833076E+02  0.53171430639E+03  0.54284956388E+03  0.00000000000E+00 0. -1.
         -1    1    3    3    0  502  0.32680589988E+02 -0.83842741395E+02  0.89754597111E+03  0.90204567318E+03  0.00000000000E+00 0.  1.
         13    1    5    5    0    0  0.78206530420E+02 -0.21329522297E+03 -0.12421333105E+03  0.25892096314E+03  0.00000000000E+00 0. -1.
        -13    1    5    5    0    0 -0.12990953731E+02 -0.70416487122E+01  0.14435447429E+01  0.14847003632E+02  0.00000000000E+00 0.  1.
          3    1    6    6  503    0 -0.93420390019E+02  0.28863702630E+03  0.44179213658E+03  0.53592816138E+03  0.00000000000E+00 0. -1.
         -3    1    6    6    0  503 -0.79051721003E+02  0.95567419856E+02  0.25178939621E+03  0.28067811880E+03  0.00000000000E+00 0.  1.
<mgrwt>
<rscale>  0 0.15579805E+04</rscale>
<asrwt>0</asrwt>
<pdfrwt beam="1">  1        2 0.41169037E-01 0.15579805E+04</pdfrwt>
<pdfrwt beam="2">  1       -1 0.34887241E+00 0.15579805E+04</pdfrwt>
<totfact> 0.21818085E+00</totfact>
</mgrwt>
</event>
<event>
12    7  0.1730932E-007  0.2288431E+04  0.7818608E-02  0.8482497E-01
          2   -1    0    0  501    0  0.00000000000E+00  0.00000000000E+00  0.17926713964E+04  0.17926713964E+04  0.00000000000E+00 0. -1.
         -1   -1    0    0    0  501 -0.00000000000E+00 -0.00000000000E+00 -0.73032293304E+03  0.73032293304E+03  0.00000000000E+00 0.  1.
         24    2    1    2    0    0  0.19786042360E+03  0.45293671615E+03 -0.46728615898E+03  0.68467357148E+03  0.78237644635E+02 0.  0.
        254    2    1    2    0    0 -0.19786042360E+03 -0.45293671615E+03  0.15296346223E+04  0.18383207579E+04  0.89181876813E+03 0.  0.
         23    2    4    4    0    0 -0.23955167939E+03 -0.69229915152E+02  0.79995999834E+01  0.26582027849E+03  0.91753139505E+02 0.  0.
         23    2    4    4    0    0  0.41691255782E+02 -0.38370680100E+03  0.15216350223E+04  0.15725004794E+04  0.91736288899E+02 0.  0.
          4    1    3    3  502    0 -0.54024939801E+01  0.68137859891E+01 -0.23200216889E+01  0.89998400735E+01  0.00000000000E+00 0. -1.
         -3    1    3    3    0  502  0.20326291758E+03  0.44612293016E+03 -0.46496613729E+03  0.67567373140E+03  0.00000000000E+00 0.  1.
         13    1    5    5    0    0 -0.19354098992E+03 -0.17332198218E+02  0.20329591809E+02  0.19537607883E+03  0.00000000000E+00 0. -1.
        -13    1    5    5    0    0 -0.46010689464E+02 -0.51897716934E+02 -0.12329991826E+02  0.70444199664E+02  0.00000000000E+00 0.  1.
          3    1    6    6  503    0  0.41376171690E+02 -0.38112911184E+03  0.15222909855E+04  0.15698220383E+04  0.00000000000E+00 0. -1.
         -3    1    6    6    0  503  0.31508409181E+00 -0.25776891577E+01 -0.65596312707E+00  0.26784411516E+01  0.00000000000E+00 0.  1.
<mgrwt>
<rscale>  0 0.22884309E+04</rscale>
<asrwt>0</asrwt>
<pdfrwt beam="1">  1        2 0.27579560E+00 0.22884309E+04</pdfrwt>
<pdfrwt beam="2">  1       -1 0.11235738E+00 0.22884309E+04</pdfrwt>
<totfact> 0.65299785E+00</totfact>
</mgrwt>
</event>
<event>
12    7  0.1730932E-007  0.1663150E+04  0.7818608E-02  0.8782665E-01
          2   -1    0    0  501    0  0.00000000000E+00  0.00000000000E+00  0.85110142130E+03  0.85110142130E+03  0.00000000000E+00 0. -1.
         -1   -1    0    0    0  501 -0.00000000000E+00 -0.00000000000E+00 -0.81249639410E+03  0.81249639410E+03  0.00000000000E+00 0.  1.
         24    2    1    2    0    0  0.22711372771E+03 -0.45884907571E+03 -0.28400942650E+03  0.59104595211E+03  0.80937281721E+02 0.  0.
        254    2    1    2    0    0 -0.22711372771E+03  0.45884907571E+03  0.32261445369E+03  0.10725518633E+04  0.88553051563E+03 0.  0.
         23    2    4    4    0    0  0.54454613511E+02  0.34366873920E+03 -0.23476543151E+03  0.43079877787E+03  0.96949842439E+02 0.  0.
         23    2    4    4    0    0 -0.28156834122E+03  0.11518033651E+03  0.55737988520E+03  0.64175308541E+03  0.92884043353E+02 0.  0.
          4    1    3    3  502    0  0.39686845955E+02 -0.35031013580E+02 -0.14184696145E+02  0.54803496777E+02  0.00000000000E+00 0. -1.
         -3    1    3    3    0  502  0.18742688176E+03 -0.42381806213E+03 -0.26982473035E+03  0.53624245534E+03  0.00000000000E+00 0.  1.
         13    1    5    5    0    0  0.67386590920E+01  0.41760667619E+02  0.46281046418E+01  0.42553287051E+02  0.00000000000E+00 0.  1.
        -13    1    5    5    0    0  0.47715954419E+02  0.30190807158E+03 -0.23939353615E+03  0.38824549082E+03  0.00000000000E+00 0. -1.
          4    1    6    6  503    0 -0.26008590656E+03  0.13075480002E+03  0.51955795715E+03  0.59555181752E+03  0.00000000000E+00 0. -1.
         -4    1    6    6    0  503 -0.21482434657E+02 -0.15574463512E+02  0.37821928057E+02  0.46201267888E+02  0.00000000000E+00 0.  1.
<mgrwt>
<rscale>  0 0.16631498E+04</rscale>
<asrwt>0</asrwt>
<pdfrwt beam="1">  1        2 0.13093868E+00 0.16631498E+04</pdfrwt>
<pdfrwt beam="2">  1       -1 0.12499944E+00 0.16631498E+04</pdfrwt>
<totfact> 0.19316990E+01</totfact>
</mgrwt>
</event>
<event>
12    7  0.1730932E-007  0.2728703E+04  0.7818608E-02  0.8325751E-01
         -1   -1    0    0    0  501 -0.00000000000E+00  0.00000000000E+00  0.54238076065E+03  0.54238076065E+03  0.00000000000E+00 0.  1.
          2   -1    0    0  501    0  0.00000000000E+00 -0.00000000000E+00 -0.34320083595E+04  0.34320083595E+04  0.00000000000E+00 0. -1.
         24    2    1    2    0    0  0.38079892394E+03  0.11184387357E+02 -0.29642888283E+04  0.29898280278E+04  0.83249427188E+02 0.  0.
        254    2    1    2    0    0 -0.38079892394E+03 -0.11184387357E+02  0.74661229455E+02  0.98456109237E+03  0.90479463660E+03 0.  0.
         23    2    4    4    0    0 -0.31540528678E+03  0.32082997495E+02 -0.38658068011E+03  0.50794607031E+03  0.89748395306E+02 0.  0.
         23    2    4    4    0    0 -0.65393637160E+02 -0.43267384852E+02  0.46124190956E+03  0.47661502205E+03  0.90936162980E+02 0.  0.
          4    1    3    3  502    0  0.21137876449E+03 -0.21932839346E+02 -0.18647922894E+04  0.18768623589E+04  0.00000000000E+00 0. -1.
         -1    1    3    3    0  502  0.16942015945E+03  0.33117226703E+02 -0.10994965389E+04  0.11129656689E+04  0.00000000000E+00 0.  1.
         13    1    5    5    0    0 -0.13110289056E+03  0.22700590373E+01 -0.22787896404E+03  0.26291052343E+03  0.00000000000E+00 0. -1.
        -13    1    5    5    0    0 -0.18430239622E+03  0.29812938457E+02 -0.15870171607E+03  0.24503554688E+03  0.00000000000E+00 0.  1.
          4    1    6    6  503    0 -0.41808251361E+02 -0.68350954116E+02  0.24829580130E+03  0.26090340695E+03  0.00000000000E+00 0.  1.
         -4    1    6    6    0  503 -0.23585385799E+02  0.25083569264E+02  0.21294610826E+03  0.21571161511E+03  0.00000000000E+00 0. -1.
<mgrwt>
<rscale>  0 0.27287032E+04</rscale>
<asrwt>0</asrwt>
<pdfrwt beam="1">  1        2 0.52800128E+00 0.27287032E+04</pdfrwt>
<pdfrwt beam="2">  1       -1 0.83443196E-01 0.27287032E+04</pdfrwt>
<totfact> 0.12849833E+00</totfact>
</mgrwt>
</event>
<event>
12    7  0.1730932E-007  0.1136719E+04  0.7818608E-02  0.9170124E-01
         -1   -1    0    0    0  501 -0.00000000000E+00  0.00000000000E+00  0.11638138401E+03  0.11638138401E+03  0.00000000000E+00 0.  1.
          2   -1    0    0  501    0  0.00000000000E+00 -0.00000000000E+00 -0.27756365808E+04  0.27756365808E+04  0.00000000000E+00 0. -1.
         24    2    1    2    0    0  0.55966802009E+02 -0.18524863682E+03 -0.35401314673E+03  0.41131677313E+03  0.80042735049E+02 0.  0.
        254    2    1    2    0    0 -0.55966802009E+02  0.18524863682E+03 -0.23052420500E+04  0.24807011916E+04  0.89570539388E+03 0.  0.
         23    2    4    4    0    0 -0.16006348091E+03  0.25664697722E+03 -0.23026082407E+04  0.23237842462E+04  0.80501701892E+02 0.  0.
         23    2    4    4    0    0  0.10409667890E+03 -0.71398340403E+02 -0.26338093126E+01  0.15691694541E+03  0.93178051239E+02 0.  0.
          4    1    3    3  502    0 -0.58318183608E+00  0.51575750545E+01  0.22170066309E+00  0.51951739798E+01  0.00000000000E+00 0. -1.
         -3    1    3    3    0  502  0.56549983845E+02 -0.19040621187E+03 -0.35423484739E+03  0.40612159915E+03  0.00000000000E+00 0.  1.
         13    1    5    5    0    0 -0.10715361854E+03  0.12749730504E+03 -0.14898299114E+04  0.14991099445E+04  0.00000000000E+00 0. -1.
        -13    1    5    5    0    0 -0.52909862369E+02  0.12914967218E+03 -0.81277832932E+03  0.82467430176E+03  0.00000000000E+00 0.  1.
          4    1    6    6  503    0  0.88141190128E+02 -0.65183596022E+02  0.35405622015E+02  0.11520125285E+03  0.00000000000E+00 0. -1.
         -4    1    6    6    0  503  0.15955488776E+02 -0.62147443819E+01 -0.38039431328E+02  0.41715692558E+02  0.00000000000E+00 0.  1.
<mgrwt>
<rscale>  0 0.11367188E+04</rscale>
<asrwt>0</asrwt>
<pdfrwt beam="1">  1        2 0.42702097E+00 0.11367188E+04</pdfrwt>
<pdfrwt beam="2">  1       -1 0.17904830E-01 0.11367188E+04</pdfrwt>
<totfact> 0.67235996E+01</totfact>
</mgrwt>
</event>
<event>
12    7  0.1730932E-007  0.3469549E+04  0.7818608E-02  0.8121045E-01
         -1   -1    0    0    0  501 -0.00000000000E+00  0.00000000000E+00  0.93724331897E+03  0.93724331897E+03  0.00000000000E+00 0.  1.
          2   -1    0    0  501    0  0.00000000000E+00 -0.00000000000E+00 -0.32109504432E+04  0.32109504432E+04  0.00000000000E+00 0. -1.
         24    2    1    2    0    0  0.70668665377E+03  0.14350536026E+04 -0.78057891049E+03  0.17817169862E+04  0.80169285470E+02 0.  0.
        254    2    1    2    0    0 -0.70668665377E+03 -0.14350536026E+04 -0.14931282138E+04  0.23664767760E+04  0.90110798437E+03 0.  0.
         23    2    4    4    0    0 -0.58586022001E+03 -0.27996214370E+03 -0.68707241762E+03  0.94973014185E+03  0.91147331195E+02 0.  0.
         23    2    4    4    0    0 -0.12082643376E+03 -0.11550914589E+04 -0.80605579614E+03  0.14167466341E+04  0.92788863831E+02 0.  0.
          2    1    3    3  502    0  0.11274596271E+03  0.19963533035E+03 -0.84645458063E+02  0.24439879460E+03  0.00000000000E+00 0. -1.
         -1    1    3    3    0  502  0.59394069106E+03  0.12354182723E+04 -0.69593345243E+03  0.15373181916E+04  0.00000000000E+00 0.  1.
         13    1    5    5    0    0 -0.58699208040E+03 -0.27702841077E+03 -0.67181452523E+03  0.93415159323E+03  0.00000000000E+00 0.  1.
        -13    1    5    5    0    0  0.11318603882E+01 -0.29337329350E+01 -0.15257892392E+02  0.15578548620E+02  0.00000000000E+00 0. -1.
          3    1    6    6  503    0 -0.45931588315E+02 -0.18666717455E+03 -0.16098720927E+03  0.25074135361E+03  0.00000000000E+00 0. -1.
         -3    1    6    6    0  503 -0.74894845447E+02 -0.96842428439E+03 -0.64506858686E+03  0.11660052805E+04  0.00000000000E+00 0.  1.
<mgrwt>
<rscale>  0 0.34695486E+04</rscale>
<asrwt>0</asrwt>
<pdfrwt beam="1">  1        2 0.49399238E+00 0.34695486E+04</pdfrwt>
<pdfrwt beam="2">  1       -1 0.14419128E+00 0.34695486E+04</pdfrwt>
<totfact> 0.46217128E-01</totfact>
</mgrwt>
</event>
<event>
12    7  0.1730932E-007  0.2392665E+04  0.7818608E-02  0.8442255E-01
         -1   -1    0    0    0  501 -0.00000000000E+00  0.00000000000E+00  0.79258534214E+03  0.79258534214E+03  0.00000000000E+00 0.  1.
          2   -1    0    0  501    0  0.00000000000E+00 -0.00000000000E+00 -0.18057499430E+04  0.18057499430E+04  0.00000000000E+00 0. -1.
         24    2    1    2    0    0 -0.94980682133E+03 -0.38183833403E+03 -0.37878452259E+03  0.10944429283E+04  0.79963100788E+02 0.  0.
        254    2    1    2    0    0  0.94980682133E+03  0.38183833403E+03 -0.63438007823E+03  0.15038923568E+04  0.90073338238E+03 0.  0.
         23    2    4    4    0    0  0.99017541822E+03  0.48334290118E+03 -0.30694676802E+03  0.11470219757E+04  0.85880005193E+02 0.  0.
         23    2    4    4    0    0 -0.40368596891E+02 -0.10150456715E+03 -0.32743331021E+03  0.35687038118E+03  0.90615095668E+02 0.  0.
          2    1    3    3  502    0 -0.70459398820E+03 -0.28270361084E+03 -0.24302233118E+03  0.79714106233E+03  0.00000000000E+00 0. -1.
         -3    1    3    3    0  502 -0.24521283313E+03 -0.99134723183E+02 -0.13576219141E+03  0.29730186593E+03  0.00000000000E+00 0.  1.
         13    1    5    5    0    0  0.17591170595E+02 -0.22089866948E+01 -0.10959812047E+01  0.17763166382E+02  0.00000000000E+00 0. -1.
        -13    1    5    5    0    0  0.97258424763E+03  0.48555188787E+03 -0.30585078682E+03  0.11292588093E+04  0.00000000000E+00 0.  1.
          3    1    6    6  503    0  0.79293712493E+01 -0.53219757638E+02 -0.58850894810E+02  0.79741114561E+02  0.00000000000E+00 0. -1.
         -3    1    6    6    0  503 -0.48297968140E+02 -0.48284809511E+02 -0.26858241540E+03  0.27712926662E+03  0.00000000000E+00 0.  1.
<mgrwt>
<rscale>  0 0.23926646E+04</rscale>
<asrwt>0</asrwt>
<pdfrwt beam="1">  1        2 0.27780768E+00 0.23926646E+04</pdfrwt>
<pdfrwt beam="2">  1       -1 0.12193621E+00 0.23926646E+04</pdfrwt>
<totfact> 0.52215777E+00</totfact>
</mgrwt>
</event>
<event>
12    7  0.1730932E-007  0.2015514E+04  0.7818608E-02  0.8599401E-01
          2   -1    0    0  501    0  0.00000000000E+00  0.00000000000E+00  0.12663351196E+04  0.12663351196E+04  0.00000000000E+00 0. -1.
         -1   -1    0    0    0  501 -0.00000000000E+00 -0.00000000000E+00 -0.80197921477E+03  0.80197921477E+03  0.00000000000E+00 0.  1.
         24    2    1    2    0    0 -0.63991827574E+03  0.44502678402E+03 -0.23305244239E+02  0.78405643749E+03  0.81591204410E+02 0.  0.
        254    2    1    2    0    0  0.63991827574E+03 -0.44502678402E+03  0.48766114905E+03  0.12842578969E+04  0.89663856221E+03 0.  0.
         23    2    4    4    0    0 -0.19450303086E+03 -0.18582739704E+03  0.24066544142E+03  0.37164364642E+03  0.88520589313E+02 0.  0.
         23    2    4    4    0    0  0.83442130659E+03 -0.25919938698E+03  0.24699570764E+03  0.91261425044E+03  0.91731409001E+02 0.  0.
          4    1    3    3  502    0 -0.31942423536E+03  0.24850167714E+03 -0.46643470177E+02  0.40738254625E+03  0.00000000000E+00 0. -1.
         -3    1    3    3    0  502 -0.32049404038E+03  0.19652510688E+03  0.23338225938E+02  0.37667389124E+03  0.00000000000E+00 0.  1.
         13    1    5    5    0    0  0.73144597270E+01 -0.19113221761E+02  0.26142727012E+02  0.33200282270E+02  0.00000000000E+00 0. -1.
        -13    1    5    5    0    0 -0.20181749059E+03 -0.16671417528E+03  0.21452271440E+03  0.33844336415E+03  0.00000000000E+00 0.  1.
          1    1    6    6  503    0  0.76708909341E+02  0.26243111461E+01  0.26004057153E+02  0.81039217480E+02  0.00000000000E+00 0. -1.
         -1    1    6    6    0  503  0.75771239725E+03 -0.26182369813E+03  0.22099165048E+03  0.83157503296E+03  0.00000000000E+00 0.  1.
<mgrwt>
<rscale>  0 0.20155143E+04</rscale>
<asrwt>0</asrwt>
<pdfrwt beam="1">  1        2 0.19482079E+00 0.20155143E+04</pdfrwt>
<pdfrwt beam="2">  1       -1 0.12338142E+00 0.20155143E+04</pdfrwt>
<totfact> 0.10578883E+01</totfact>
</mgrwt>
</event>
<event>
12    7  0.1730932E-007  0.2576231E+04  0.7818608E-02  0.8376320E-01
         -1   -1    0    0    0  501 -0.00000000000E+00  0.00000000000E+00  0.13293069064E+04  0.13293069064E+04  0.00000000000E+00 0.  1.
          2   -1    0    0  501    0  0.00000000000E+00 -0.00000000000E+00 -0.12482007775E+04  0.12482007775E+04  0.00000000000E+00 0. -1.
         24    2    1    2    0    0  0.50123213998E+02 -0.25128036265E+03 -0.10617630516E+04  0.10953080593E+04  0.81882902466E+02 0.  0.
        254    2    1    2    0    0 -0.50123213998E+02  0.25128036265E+03  0.11428691806E+04  0.14821996246E+04  0.90835654120E+03 0.  0.
         23    2    4    4    0    0 -0.11370108950E+03 -0.12007804239E+03 -0.76451302541E+02  0.20331220807E+03  0.90246209197E+02 0.  0.
         23    2    4    4    0    0  0.63577875501E+02  0.37135840504E+03  0.12193204831E+04  0.12788874165E+04  0.82833400784E+02 0.  0.
          2    1    3    3  502    0  0.32130905087E+02 -0.18194702688E+03 -0.59338452351E+03  0.62148395667E+03  0.00000000000E+00 0. -1.
         -1    1    3    3    0  502  0.17992308911E+02 -0.69333335771E+02 -0.46837852811E+03  0.47382410262E+03  0.00000000000E+00 0.  1.
         13    1    5    5    0    0  0.10837424146E+02 -0.33205651406E+02 -0.25128256171E+02  0.43028993779E+02  0.00000000000E+00 0.  1.
        -13    1    5    5    0    0 -0.12453851365E+03 -0.86872390985E+02 -0.51323046369E+02  0.16028321430E+03  0.00000000000E+00 0. -1.
          4    1    6    6  503    0 -0.24255576202E+01  0.18257432498E+03  0.50054111213E+03  0.53280453490E+03  0.00000000000E+00 0.  1.
         -4    1    6    6    0  503  0.66003433121E+02  0.18878408006E+03  0.71877937100E+03  0.74608288162E+03  0.00000000000E+00 0. -1.
<mgrwt>
<rscale>  0 0.25762313E+04</rscale>
<asrwt>0</asrwt>
<pdfrwt beam="1">  1        2 0.19203089E+00 0.25762313E+04</pdfrwt>
<pdfrwt beam="2">  1       -1 0.20450875E+00 0.25762313E+04</pdfrwt>
<totfact> 0.25094529E+00</totfact>
</mgrwt>
</event>
<event>
12    7  0.1730932E-007  0.2049672E+04  0.7818608E-02  0.8583743E-01
          2   -1    0    0  501    0  0.00000000000E+00  0.00000000000E+00  0.27339600614E+04  0.27339600614E+04  0.00000000000E+00 0. -1.
         -3   -1    0    0    0  501 -0.00000000000E+00 -0.00000000000E+00 -0.38416392845E+03  0.38416392845E+03  0.00000000000E+00 0.  1.
         24    2    1    2    0    0 -0.58428486106E+01 -0.70536213220E+03  0.15999169540E+04  0.17504270041E+04  0.81795846461E+02 0.  0.
        254    2    1    2    0    0  0.58428486106E+01  0.70536213220E+03  0.74987917899E+03  0.13676969858E+04  0.90039235085E+03 0.  0.
         23    2    4    4    0    0 -0.25386237670E+03  0.61238750521E+01 -0.45494995426E+02  0.27347875291E+03  0.90759162249E+02 0.  0.
         23    2    4    4    0    0  0.25970522531E+03  0.69923825714E+03  0.79537417442E+03  0.10942182329E+04  0.91173019922E+02 0.  0.
          4    1    3    3  502    0  0.12041676130E+01 -0.10017753222E+03  0.16409666529E+03  0.19226206995E+03  0.00000000000E+00 0. -1.
         -3    1    3    3    0  502 -0.70470162236E+01 -0.60518459997E+03  0.14358202887E+04  0.15581649341E+04  0.00000000000E+00 0.  1.
         13    1    5    5    0    0 -0.23211336966E+03 -0.19318155096E+02 -0.53679413788E+02  0.23902151986E+03  0.00000000000E+00 0.  1.
        -13    1    5    5    0    0 -0.21749007041E+02  0.25442030148E+02  0.81844183616E+01  0.34457233047E+02  0.00000000000E+00 0. -1.
          4    1    6    6  503    0  0.90757195136E+02  0.15829046638E+03  0.15834338975E+03  0.24158925741E+03  0.00000000000E+00 0. -1.
         -4    1    6    6    0  503  0.16894803018E+03  0.54094779077E+03  0.63703078466E+03  0.85262897549E+03  0.00000000000E+00 0.  1.
<mgrwt>
<rscale>  0 0.20496720E+04</rscale>
<asrwt>0</asrwt>
<pdfrwt beam="1">  1        2 0.42060923E+00 0.20496720E+04</pdfrwt>
<pdfrwt beam="2">  1       -3 0.59102145E-01 0.20496720E+04</pdfrwt>
<totfact> 0.42339653E+00</totfact>
</mgrwt>
</event>
<event>
12    7  0.1730932E-007  0.1261831E+04  0.7818608E-02  0.9060394E-01
          2   -1    0    0  501    0  0.00000000000E+00  0.00000000000E+00  0.14603465548E+04  0.14603465548E+04  0.00000000000E+00 0. -1.
         -1   -1    0    0    0  501 -0.00000000000E+00 -0.00000000000E+00 -0.27257523883E+03  0.27257523883E+03  0.00000000000E+00 0.  1.
         24    2    1    2    0    0 -0.19982867834E+03 -0.16225029738E+03  0.59353070807E+02  0.27598845138E+03  0.79938592634E+02 0.  0.
        254    2    1    2    0    0  0.19982867834E+03  0.16225029738E+03  0.11284182452E+04  0.14569333423E+04  0.88491263303E+03 0.  0.
         23    2    4    4    0    0 -0.52518243748E+02  0.40876375510E+03  0.21677583825E+03  0.47444751140E+03  0.90899414810E+02 0.  0.
         23    2    4    4    0    0  0.25234692209E+03 -0.24651345772E+03  0.91164240696E+03  0.98248583090E+03  0.98684729472E+02 0.  0.
          2    1    3    3  502    0  0.39646929221E+01 -0.20709156394E+02  0.10781707647E+01  0.21112801821E+02  0.00000000000E+00 0. -1.
         -1    1    3    3    0  502 -0.20379337126E+03 -0.14154114099E+03  0.58274900042E+02  0.25487564955E+03  0.00000000000E+00 0.  1.
         13    1    5    5    0    0 -0.30002036178E+02  0.32757254334E+03  0.13058427950E+03  0.35391545230E+03  0.00000000000E+00 0. -1.
        -13    1    5    5    0    0 -0.22516207569E+02  0.81191211764E+02  0.86191558752E+02  0.12053205910E+03  0.00000000000E+00 0.  1.
          1    1    6    6  503    0  0.22362103049E+03 -0.24142430765E+03  0.87965091431E+03  0.93918996622E+03  0.00000000000E+00 0. -1.
         -1    1    6    6    0  503  0.28725891598E+02 -0.50891500737E+01  0.31991492645E+02  0.43295864678E+02  0.00000000000E+00 0.  1.
<mgrwt>
<rscale>  0 0.12618309E+04</rscale>
<asrwt>0</asrwt>
<pdfrwt beam="1">  1        2 0.22466870E+00 0.12618309E+04</pdfrwt>
<pdfrwt beam="2">  1       -1 0.41934653E-01 0.12618309E+04</pdfrwt>
<totfact> 0.83553998E+01</totfact>
</mgrwt>
</event>
<event>
12    7  0.1730932E-007  0.1191932E+04  0.7818608E-02  0.9119948E-01
         -1   -1    0    0    0  501 -0.00000000000E+00  0.00000000000E+00  0.12212239208E+04  0.12212239208E+04  0.00000000000E+00 0.  1.
          2   -1    0    0  501    0  0.00000000000E+00 -0.00000000000E+00 -0.29083575348E+03  0.29083575348E+03  0.00000000000E+00 0. -1.
         24    2    1    2    0    0 -0.28353074702E+02 -0.79205012455E+01 -0.10429224505E+03  0.13459071277E+03  0.79819523942E+02 0.  0.
        254    2    1    2    0    0  0.28353074702E+02  0.79205012455E+01  0.10346804124E+04  0.13774689615E+04  0.90884022414E+03 0.  0.
         23    2    4    4    0    0 -0.99016823835E+02 -0.36118047338E+02  0.11612357869E+04  0.11695769450E+04  0.91284352202E+02 0.  0.
         23    2    4    4    0    0  0.12736989854E+03  0.44038548583E+02 -0.12655537448E+03  0.20789201648E+03  0.95080717772E+02 0.  0.
          2    1    3    3  502    0 -0.10898613883E+02  0.19577721466E+02 -0.99109530256E+02  0.10161085547E+03  0.00000000000E+00 0. -1.
         -1    1    3    3    0  502 -0.17454460819E+02 -0.27498222712E+02 -0.51827147906E+01  0.32979857298E+02  0.00000000000E+00 0.  1.
         13    1    5    5    0    0 -0.11281216048E+03 -0.25540491030E+02  0.10952119020E+04  0.11013028696E+04  0.00000000000E+00 0. -1.
        -13    1    5    5    0    0  0.13795336647E+02 -0.10577556307E+02  0.66023884840E+02  0.68274075460E+02  0.00000000000E+00 0.  1.
          4    1    6    6  503    0  0.13729940479E+03  0.49978901465E+02 -0.13025605030E+03  0.19574385249E+03  0.00000000000E+00 0. -1.
         -4    1    6    6    0  503 -0.99295062491E+01 -0.59403528822E+01  0.37006758293E+01  0.12148163989E+02  0.00000000000E+00 0.  1.
<mgrwt>
<rscale>  0 0.11919322E+04</rscale>
<asrwt>0</asrwt>
<pdfrwt beam="1">  1        2 0.44743963E-01 0.11919322E+04</pdfrwt>
<pdfrwt beam="2">  1       -1 0.18788060E+00 0.11919322E+04</pdfrwt>
<totfact> 0.23518911E+01</totfact>
</mgrwt>
</event>
<event>
12    7  0.1730932E-007  0.2444064E+04  0.7818608E-02  0.8423188E-01
          2   -1    0    0  501    0  0.00000000000E+00  0.00000000000E+00  0.31009452729E+04  0.31009452729E+04  0.00000000000E+00 0. -1.
         -1   -1    0    0    0  501 -0.00000000000E+00 -0.00000000000E+00 -0.48158303860E+03  0.48158303860E+03  0.00000000000E+00 0.  1.
         24    2    1    2    0    0 -0.46450050768E+02 -0.84837484057E+03  0.23738473803E+03  0.88585928732E+03  0.80608223899E+02 0.  0.
        254    2    1    2    0    0  0.46450050768E+02  0.84837484057E+03  0.23819774963E+04  0.26966690242E+04  0.93611407207E+03 0.  0.
         23    2    4    4    0    0 -0.37687343434E+03  0.16289333576E+03  0.54165802305E+03  0.68553834830E+03  0.89451599809E+02 0.  0.
         23    2    4    4    0    0  0.42332348511E+03  0.68548150481E+03  0.18403194732E+04  0.20111306759E+04  0.93718543917E+02 0.  0.
          2    1    3    3  502    0 -0.64472366983E+01 -0.35731080040E+02  0.27639227983E+02  0.45631172080E+02  0.00000000000E+00 0. -1.
         -1    1    3    3    0  502 -0.40002814070E+02 -0.81264376053E+03  0.20974551005E+03  0.84022811524E+03  0.00000000000E+00 0.  1.
         13    1    5    5    0    0 -0.35720584341E+03  0.17268574793E+03  0.49857000025E+03  0.63717221161E+03  0.00000000000E+00 0.  1.
        -13    1    5    5    0    0 -0.19667590934E+02 -0.97924121691E+01  0.43088022802E+02  0.48366136689E+02  0.00000000000E+00 0. -1.
          3    1    6    6  503    0  0.10539792429E+03  0.24493129880E+03  0.55625034196E+03  0.61685857901E+03  0.00000000000E+00 0. -1.
         -3    1    6    6    0  503  0.31792556082E+03  0.44055020601E+03  0.12840691313E+04  0.13942720969E+04  0.00000000000E+00 0.  1.
<mgrwt>
<rscale>  0 0.24440644E+04</rscale>
<asrwt>0</asrwt>
<pdfrwt beam="1">  1        2 0.47706849E+00 0.24440644E+04</pdfrwt>
<pdfrwt beam="2">  1       -1 0.74089700E-01 0.24440644E+04</pdfrwt>
<totfact> 0.28102786E+00</totfact>
</mgrwt>
</event>
<event>
12    7  0.1730932E-007  0.1509842E+04  0.7818608E-02  0.8877934E-01
         -1   -1    0    0    0  501 -0.00000000000E+00  0.00000000000E+00  0.47856313503E+03  0.47856313503E+03  0.00000000000E+00 0.  1.
          2   -1    0    0  501    0  0.00000000000E+00 -0.00000000000E+00 -0.11908690331E+04  0.11908690331E+04  0.00000000000E+00 0. -1.
         24    2    1    2    0    0  0.42133492013E+02  0.71117556808E+02  0.30131444679E+03  0.32237774806E+03  0.79398227723E+02 0.  0.
        254    2    1    2    0    0 -0.42133492013E+02 -0.71117556808E+02 -0.10136203448E+04  0.13470544200E+04  0.88334391326E+03 0.  0.
         23    2    4    4    0    0  0.92552311064E+02 -0.13356897556E+03  0.10526426913E+03  0.21460705085E+03  0.92568992688E+02 0.  0.
         23    2    4    4    0    0 -0.13468580308E+03  0.62451418747E+02 -0.11188846140E+04  0.11324473692E+04  0.92161919474E+02 0.  0.
          4    1    3    3  502    0  0.95321267625E+01  0.14897572599E+02  0.41187599366E+01  0.18159385821E+02  0.00000000000E+00 0. -1.
         -3    1    3    3    0  502  0.32601365251E+02  0.56219984209E+02  0.29719568685E+03  0.30421836224E+03  0.00000000000E+00 0.  1.
         13    1    5    5    0    0  0.90990470902E+02 -0.14728766030E+03  0.99128331733E+02  0.19949773639E+03  0.00000000000E+00 0.  1.
        -13    1    5    5    0    0  0.15618401621E+01  0.13718684747E+02  0.61359373934E+01  0.15109314464E+02  0.00000000000E+00 0. -1.
          3    1    6    6  503    0 -0.79534293106E+01  0.21280265276E+02 -0.44130778763E+03  0.44189214764E+03  0.00000000000E+00 0. -1.
         -3    1    6    6    0  503 -0.12673237377E+03  0.41171153471E+02 -0.67757682632E+03  0.69055522155E+03  0.00000000000E+00 0.  1.
<mgrwt>
<rscale>  0 0.15098424E+04</rscale>
<asrwt>0</asrwt>
<pdfrwt beam="1">  1        2 0.18321062E+00 0.15098424E+04</pdfrwt>
<pdfrwt beam="2">  1       -1 0.73625099E-01 0.15098424E+04</pdfrwt>
<totfact> 0.39247026E+01</totfact>
</mgrwt>
</event>
<event>
12    7  0.1730932E-007  0.1382803E+04  0.7818608E-02  0.8966362E-01
          2   -1    0    0  501    0  0.00000000000E+00  0.00000000000E+00  0.99659026529E+03  0.99659026529E+03  0.00000000000E+00 0. -1.
         -1   -1    0    0    0  501 -0.00000000000E+00 -0.00000000000E+00 -0.47967126325E+03  0.47967126325E+03  0.00000000000E+00 0.  1.
         24    2    1    2    0    0  0.10582586113E+03 -0.32578565212E+03 -0.59682660959E+02  0.35612556841E+03  0.76993483148E+02 0.  0.
        254    2    1    2    0    0 -0.10582586113E+03  0.32578565212E+03  0.57660166300E+03  0.11201359601E+04  0.89716201848E+03 0.  0.
         23    2    4    4    0    0  0.32975748691E+02 -0.12668971787E+03 -0.16777231314E+03  0.23343970567E+03  0.95962818375E+02 0.  0.
         23    2    4    4    0    0 -0.13880160982E+03  0.45247536999E+03  0.74437397613E+03  0.88669625446E+03  0.90209666869E+02 0.  0.
          4    1    3    3  502    0  0.10267755836E+03 -0.20177550425E+03 -0.48811051992E+02  0.23159998684E+03  0.00000000000E+00 0. -1.
         -3    1    3    3    0  502  0.31483027650E+01 -0.12401014787E+03 -0.10871608967E+02  0.12452558157E+03  0.00000000000E+00 0.  1.
         13    1    5    5    0    0 -0.25008897497E+02 -0.84260311022E+02 -0.11264243841E+03  0.14287604383E+03  0.00000000000E+00 0. -1.
        -13    1    5    5    0    0  0.57984646188E+02 -0.42429406848E+02 -0.55129874727E+02  0.90563661843E+02  0.00000000000E+00 0.  1.
          4    1    6    6  503    0 -0.69262152014E+02  0.32286915861E+03  0.56829743936E+03  0.65726989803E+03  0.00000000000E+00 0. -1.
         -4    1    6    6    0  503 -0.69539457805E+02  0.12960621138E+03  0.17607653678E+03  0.22942635643E+03  0.00000000000E+00 0.  1.
<mgrwt>
<rscale>  0 0.13828025E+04</rscale>
<asrwt>0</asrwt>
<pdfrwt beam="1">  1        2 0.15332158E+00 0.13828025E+04</pdfrwt>
<pdfrwt beam="2">  1       -1 0.73795579E-01 0.13828025E+04</pdfrwt>
<totfact> 0.52066938E+01</totfact>
</mgrwt>
</event>
<event>
12    7  0.1730932E-007  0.2623661E+04  0.7818608E-02  0.8360208E-01
         -1   -1    0    0    0  501 -0.00000000000E+00  0.00000000000E+00  0.10857371602E+04  0.10857371602E+04  0.00000000000E+00 0.  1.
          2   -1    0    0  501    0  0.00000000000E+00 -0.00000000000E+00 -0.15850052470E+04  0.15850052470E+04  0.00000000000E+00 0. -1.
         24    2    1    2    0    0 -0.29623251534E+03 -0.34117882157E+03 -0.13045662819E+04  0.13826989604E+04  0.76200655922E+02 0.  0.
        254    2    1    2    0    0  0.29623251534E+03  0.34117882157E+03  0.80529819509E+03  0.12880434467E+04  0.89799445774E+03 0.  0.
         23    2    4    4    0    0 -0.23733626907E+03  0.22900533749E+03  0.61604442215E+03  0.70458242724E+03  0.90297937411E+02 0.  0.
         23    2    4    4    0    0  0.53356878441E+03  0.11217348407E+03  0.18925377294E+03  0.58346101945E+03  0.85622616325E+02 0.  0.
          2    1    3    3  502    0 -0.18795777909E+03 -0.20755541744E+03 -0.91430143286E+03  0.95621884951E+03  0.00000000000E+00 0. -1.
         -1    1    3    3    0  502 -0.10827473625E+03 -0.13362340413E+03 -0.39026484901E+03  0.42648011093E+03  0.00000000000E+00 0.  1.
         13    1    5    5    0    0 -0.37968277307E+01  0.39513087911E+02  0.52590358244E+02  0.65889648635E+02  0.00000000000E+00 0.  1.
        -13    1    5    5    0    0 -0.23353944134E+03  0.18949224958E+03  0.56345406391E+03  0.63869277861E+03  0.00000000000E+00 0. -1.
          2    1    6    6  503    0  0.28023262494E+03  0.99108984997E+02  0.11957913782E+03  0.32039364099E+03  0.00000000000E+00 0. -1.
         -2    1    6    6    0  503  0.25333615947E+03  0.13064499074E+02  0.69674635116E+02  0.26306737846E+03  0.00000000000E+00 0.  1.
<mgrwt>
<rscale>  0 0.26236609E+04</rscale>
<asrwt>0</asrwt>
<pdfrwt beam="1">  1        2 0.24384696E+00 0.26236609E+04</pdfrwt>
<pdfrwt beam="2">  1       -1 0.16703649E+00 0.26236609E+04</pdfrwt>
<totfact> 0.29580580E+00</totfact>
</mgrwt>
</event>
<event>
12    7  0.1730932E-007  0.2461863E+04  0.7818608E-02  0.8416699E-01
         -1   -1    0    0    0  501 -0.00000000000E+00  0.00000000000E+00  0.52635503698E+03  0.52635503698E+03  0.00000000000E+00 0.  1.
          2   -1    0    0  501    0  0.00000000000E+00 -0.00000000000E+00 -0.28786500690E+04  0.28786500690E+04  0.00000000000E+00 0. -1.
         24    2    1    2    0    0 -0.52577689255E+03 -0.75712809709E+03 -0.17204790622E+04  0.19536211014E+04  0.83083741641E+02 0.  0.
        254    2    1    2    0    0  0.52577689255E+03  0.75712809709E+03 -0.63181596988E+03  0.14513840047E+04  0.92608844776E+03 0.  0.
         23    2    4    4    0    0  0.22770173123E+03 -0.57976638923E+02  0.13773025496E+03  0.28694972648E+03  0.90339101891E+02 0.  0.
         23    2    4    4    0    0  0.29807516131E+03  0.81510473602E+03 -0.76954622484E+03  0.11644342782E+04  0.10228031862E+03 0.  0.
          2    1    3    3  502    0 -0.44399180408E+03 -0.66940587896E+03 -0.15404240168E+04  0.17372792246E+04  0.00000000000E+00 0. -1.
         -3    1    3    3    0  502 -0.81785088467E+02 -0.87722218138E+02 -0.18005504540E+03  0.21634187673E+03  0.00000000000E+00 0.  1.
         13    1    5    5    0    0  0.87520146547E+01  0.10136188175E+02 -0.76734113682E+01  0.15434419757E+02  0.00000000000E+00 0. -1.
        -13    1    5    5    0    0  0.21894971658E+03 -0.68112827097E+02  0.14540366633E+03  0.27151530673E+03  0.00000000000E+00 0.  1.
          3    1    6    6  503    0  0.14016316422E+03  0.48898125465E+03 -0.40237721272E+03  0.64857983419E+03  0.00000000000E+00 0. -1.
         -3    1    6    6    0  503  0.15791199710E+03  0.32612348136E+03 -0.36716901212E+03  0.51585444399E+03  0.00000000000E+00 0.  1.
<mgrwt>
<rscale>  0 0.24618627E+04</rscale>
<asrwt>0</asrwt>
<pdfrwt beam="1">  1        2 0.44286924E+00 0.24618627E+04</pdfrwt>
<pdfrwt beam="2">  1       -1 0.80977698E-01 0.24618627E+04</pdfrwt>
<totfact> 0.32029140E+00</totfact>
</mgrwt>
</event>
<event>
12    7  0.1730932E-007  0.1308350E+04  0.7818608E-02  0.9022970E-01
         -1   -1    0    0    0  501 -0.00000000000E+00  0.00000000000E+00  0.25894925868E+04  0.25894925868E+04  0.00000000000E+00 0.  1.
          2   -1    0    0  501    0  0.00000000000E+00 -0.00000000000E+00 -0.16526196591E+03  0.16526196591E+03  0.00000000000E+00 0. -1.
         24    2    1    2    0    0 -0.22114973551E+03 -0.11538729341E+03  0.16234910239E+03  0.31123118523E+03  0.91028493430E+02 0.  0.
        254    2    1    2    0    0  0.22114973551E+03  0.11538729341E+03  0.22618815184E+04  0.24435233674E+04  0.89021177856E+03 0.  0.
         23    2    4    4    0    0 -0.31530831884E+03  0.17951987689E+03  0.83707152577E+03  0.91703794297E+03  0.92860796125E+02 0.  0.
         23    2    4    4    0    0  0.53645805435E+03 -0.64132583477E+02  0.14248099927E+04  0.15264854245E+04  0.90410195948E+02 0.  0.
          4    1    3    3  502    0 -0.11569110311E+03 -0.83403067543E+02  0.13782416342E+03  0.19833306088E+03  0.00000000000E+00 0. -1.
         -3    1    3    3    0  502 -0.10545863240E+03 -0.31984225869E+02  0.24524938977E+02  0.11289812436E+03  0.00000000000E+00 0.  1.
         13    1    5    5    0    0 -0.30321544523E+03  0.14359461724E+03  0.77163417672E+03  0.84141447754E+03  0.00000000000E+00 0. -1.
        -13    1    5    5    0    0 -0.12092873613E+02  0.35925259648E+02  0.65437349049E+02  0.75623465430E+02  0.00000000000E+00 0.  1.
          1    1    6    6  503    0  0.50207019641E+03 -0.63050813476E+02  0.12539966931E+04  0.13522416920E+04  0.00000000000E+00 0. -1.
         -1    1    6    6    0  503  0.34387857936E+02 -0.10817700009E+01  0.17081329959E+03  0.17424373250E+03  0.00000000000E+00 0.  1.
<mgrwt>
<rscale>  0 0.13083495E+04</rscale>
<asrwt>0</asrwt>
<pdfrwt beam="1">  1        2 0.25424920E-01 0.13083495E+04</pdfrwt>
<pdfrwt beam="2">  1       -1 0.39838345E+00 0.13083495E+04</pdfrwt>
<totfact> 0.17953622E+00</totfact>
</mgrwt>
</event>
<event>
12    7  0.1730932E-007  0.1323843E+04  0.7818608E-02  0.9010868E-01
          2   -1    0    0  501    0  0.00000000000E+00  0.00000000000E+00  0.10919710292E+04  0.10919710292E+04  0.00000000000E+00 0. -1.
         -1   -1    0    0    0  501 -0.00000000000E+00 -0.00000000000E+00 -0.40123768596E+03  0.40123768596E+03  0.00000000000E+00 0.  1.
         24    2    1    2    0    0 -0.14940490745E+03 -0.11459114928E+03 -0.11836514209E+03  0.23639127966E+03  0.80109752035E+02 0.  0.
        254    2    1    2    0    0  0.14940490745E+03  0.11459114928E+03  0.80909848532E+03  0.12568174355E+04  0.94313135316E+03 0.  0.
         23    2    4    4    0    0 -0.28308405938E+03 -0.24937473327E+03  0.35602956482E+03  0.52666342085E+03  0.91065721115E+02 0.  0.
         23    2    4    4    0    0  0.43248896683E+03  0.36396588256E+03  0.45306892049E+03  0.73015401463E+03  0.91299333297E+02 0.  0.
          4    1    3    3  502    0 -0.11072504102E+03 -0.67729421675E+02 -0.37240972072E+02  0.13503406707E+03  0.00000000000E+00 0. -1.
         -3    1    3    3    0  502 -0.38679866432E+02 -0.46861727608E+02 -0.81124170022E+02  0.10135721259E+03  0.00000000000E+00 0.  1.
         13    1    5    5    0    0 -0.15365529317E+03 -0.14735174762E+03  0.13939601264E+03  0.25446755193E+03  0.00000000000E+00 0. -1.
        -13    1    5    5    0    0 -0.12942876621E+03 -0.10202298566E+03  0.21663355219E+03  0.27219586892E+03  0.00000000000E+00 0.  1.
          3    1    6    6  503    0  0.32684958481E+03  0.31906151407E+03  0.37919651798E+03  0.59365048648E+03  0.00000000000E+00 0. -1.
         -3    1    6    6    0  503  0.10563938202E+03  0.44904368491E+02  0.73872402515E+02  0.13650352815E+03  0.00000000000E+00 0.  1.
<mgrwt>
<rscale>  0 0.13238428E+04</rscale>
<asrwt>0</asrwt>
<pdfrwt beam="1">  1        2 0.16799554E+00 0.13238428E+04</pdfrwt>
<pdfrwt beam="2">  1       -1 0.61728875E-01 0.13238428E+04</pdfrwt>
<totfact> 0.65466139E+01</totfact>
</mgrwt>
</event>
<event>
12    7  0.1730932E-007  0.1934820E+04  0.7818608E-02  0.8637716E-01
          2   -1    0    0  501    0  0.00000000000E+00  0.00000000000E+00  0.51704887876E+03  0.51704887876E+03  0.00000000000E+00 0. -1.
         -1   -1    0    0    0  501 -0.00000000000E+00 -0.00000000000E+00 -0.18100455527E+04  0.18100455527E+04  0.00000000000E+00 0.  1.
         24    2    1    2    0    0 -0.93275019126E+02  0.56637349470E+03 -0.11046584553E+04  0.12475537099E+04  0.81491051109E+02 0.  0.
        254    2    1    2    0    0  0.93275019126E+02 -0.56637349470E+03 -0.18833821861E+03  0.10795407216E+04  0.89468302782E+03 0.  0.
         23    2    4    4    0    0  0.15476130323E+03 -0.74729133150E+02 -0.46634782433E+03  0.50414673793E+03  0.84546648639E+02 0.  0.
         23    2    4    4    0    0 -0.61486284102E+02 -0.49164436155E+03  0.27800960572E+03  0.57539398365E+03  0.91072246976E+02 0.  0.
          4    1    3    3  502    0 -0.37337500579E+02  0.27046814097E+03 -0.43957567009E+03  0.51746871786E+03  0.00000000000E+00 0. -1.
         -3    1    3    3    0  502 -0.55937518548E+02  0.29590535372E+03 -0.66508278526E+03  0.73008499203E+03  0.00000000000E+00 0.  1.
         13    1    5    5    0    0 -0.70931503422E+00 -0.44701560784E+01 -0.99110511680E+02  0.99213804224E+02  0.00000000000E+00 0.  1.
        -13    1    5    5    0    0  0.15547061826E+03 -0.70258977071E+02 -0.36723731265E+03  0.40493293371E+03  0.00000000000E+00 0. -1.
          3    1    6    6  503    0 -0.85227453394E+02 -0.39874997852E+03  0.21974646677E+03  0.46319949681E+03  0.00000000000E+00 0. -1.
         -3    1    6    6    0  503  0.23741169292E+02 -0.92894383027E+02  0.58263138944E+02  0.11219448684E+03  0.00000000000E+00 0.  1.
<mgrwt>
<rscale>  0 0.19348199E+04</rscale>
<asrwt>0</asrwt>
<pdfrwt beam="1">  1        2 0.79545982E-01 0.19348199E+04</pdfrwt>
<pdfrwt beam="2">  1       -1 0.27846855E+00 0.19348199E+04</pdfrwt>
<totfact> 0.28780459E+00</totfact>
</mgrwt>
</event>
<event>
12    7  0.1730932E-007  0.3047972E+04  0.7818608E-02  0.8230163E-01
         -1   -1    0    0    0  501 -0.00000000000E+00  0.00000000000E+00  0.87499051265E+03  0.87499051265E+03  0.00000000000E+00 0.  1.
          2   -1    0    0  501    0  0.00000000000E+00 -0.00000000000E+00 -0.26543521795E+04  0.26543521795E+04  0.00000000000E+00 0. -1.
         24    2    1    2    0    0 -0.51968501614E+03  0.89718312746E+03  0.25799405282E+03  0.10716034229E+04  0.82236758317E+02 0.  0.
        254    2    1    2    0    0  0.51968501614E+03 -0.89718312746E+03 -0.20373557197E+04  0.24577392693E+04  0.90258180082E+03 0.  0.
         23    2    4    4    0    0  0.10602785179E+03 -0.93722630974E+03 -0.13401403400E+04  0.16414343704E+04  0.93250202936E+02 0.  0.
         23    2    4    4    0    0  0.41365716435E+03  0.40043182281E+02 -0.69721537973E+03  0.81630489897E+03  0.86768060246E+02 0.  0.
          2    1    3    3  502    0 -0.12307753413E+03  0.14887556572E+03  0.49437230682E+02  0.19938920045E+03  0.00000000000E+00 0. -1.
         -1    1    3    3    0  502 -0.39660748200E+03  0.74830756173E+03  0.20855682214E+03  0.87221422242E+03  0.00000000000E+00 0.  1.
         13    1    5    5    0    0  0.11625058820E+03 -0.84709446643E+03 -0.12412273573E+04  0.15072254599E+04  0.00000000000E+00 0.  1.
        -13    1    5    5    0    0 -0.10222736407E+02 -0.90131843309E+02 -0.98912982658E+02  0.13420891050E+03  0.00000000000E+00 0. -1.
          1    1    6    6  503    0  0.16004584819E+02  0.11567565800E+02 -0.73139027781E+02  0.75757987688E+02  0.00000000000E+00 0. -1.
         -1    1    6    6    0  503  0.39765257953E+03  0.28475616481E+02 -0.62407635195E+03  0.74054691128E+03  0.00000000000E+00 0.  1.
<mgrwt>
<rscale>  0 0.30479718E+04</rscale>
<asrwt>0</asrwt>
<pdfrwt beam="1">  1        2 0.40836187E+00 0.30479718E+04</pdfrwt>
<pdfrwt beam="2">  1       -1 0.13461393E+00 0.30479718E+04</pdfrwt>
<totfact> 0.12705059E+00</totfact>
</mgrwt>
</event>
<event>
12    7  0.1861692E-007  0.1883585E+04  0.7818608E-02  0.8663070E-01
         -1   -1    0    0    0  501 -0.00000000000E+00  0.00000000000E+00  0.92214424521E+03  0.92214424521E+03  0.00000000000E+00 0.  1.
          2   -1    0    0  501    0  0.00000000000E+00 -0.00000000000E+00 -0.96185990667E+03  0.96185990667E+03  0.00000000000E+00 0. -1.
         24    2    1    2    0    0  0.28718587745E+03 -0.15772832277E+03 -0.66312500588E+03  0.74398333961E+03  0.80140402902E+02 0.  0.
        254    2    1    2    0    0 -0.28718587745E+03  0.15772832277E+03  0.62340934442E+03  0.11400208123E+04  0.89646767354E+03 0.  0.
         23    2    4    4    0    0  0.25217192262E+03 -0.16750579905E+03  0.17348567146E+03  0.36070220939E+03  0.91432676783E+02 0.  0.
         23    2    4    4    0    0 -0.53935780007E+03  0.32523412182E+03  0.44992367297E+03  0.77931860289E+03  0.90675811640E+02 0.  0.
          2    1    3    3  502    0  0.26746987692E+03 -0.16436059788E+03 -0.64018948607E+03  0.71301971871E+03  0.00000000000E+00 0. -1.
         -1    1    3    3    0  502  0.19716000528E+02  0.66322751117E+01 -0.22935519814E+02  0.30963620898E+02  0.00000000000E+00 0.  1.
         13    1    5    5    0    0  0.21716898621E+03 -0.16654055424E+03  0.12494034611E+03  0.30084583238E+03  0.00000000000E+00 0. -1.
        -13    1    5    5    0    0  0.35002936416E+02 -0.96524480780E+00  0.48545325345E+02  0.59856377005E+02  0.00000000000E+00 0.  1.
          4    1    6    6  503    0 -0.37199945995E+03  0.26482803126E+03  0.34925210261E+03  0.57488652404E+03  0.00000000000E+00 0. -1.
         -4    1    6    6    0  503 -0.16735834012E+03  0.60406090566E+02  0.10067157036E+03  0.20443207885E+03  0.00000000000E+00 0.  1.
<mgrwt>
<rscale>  0 0.18835855E+04</rscale>
<asrwt>0</asrwt>
<pdfrwt beam="1">  1        2 0.14797845E+00 0.18835855E+04</pdfrwt>
<pdfrwt beam="2">  1       -1 0.14186835E+00 0.18835855E+04</pdfrwt>
<totfact> 0.11551091E+01</totfact>
</mgrwt>
</event>
<event>
12    7  0.1730932E-007  0.1301473E+04  0.7818608E-02  0.9028398E-01
          2   -1    0    0  501    0  0.00000000000E+00  0.00000000000E+00  0.10768065164E+04  0.10768065164E+04  0.00000000000E+00 0. -1.
         -1   -1    0    0    0  501 -0.00000000000E+00 -0.00000000000E+00 -0.39325368108E+03  0.39325368108E+03  0.00000000000E+00 0.  1.
         24    2    1    2    0    0 -0.34350676841E+03 -0.11158430292E+03  0.18282729374E+03  0.41239802702E+03  0.78729643431E+02 0.  0.
        254    2    1    2    0    0  0.34350676841E+03  0.11158430292E+03  0.50072554157E+03  0.10576621704E+04  0.85876378720E+03 0.  0.
         23    2    4    4    0    0  0.40363231516E+03 -0.27291785924E+03  0.41919546590E+03  0.64904162355E+03  0.90149801613E+02 0.  0.
         23    2    4    4    0    0 -0.60125546751E+02  0.38450216217E+03  0.81530075672E+02  0.40862054690E+03  0.94162646660E+02 0.  0.
          4    1    3    3  502    0 -0.18348301504E+03 -0.76851709551E+02  0.13964823314E+03  0.24305108740E+03  0.00000000000E+00 0. -1.
         -3    1    3    3    0  502 -0.16002375337E+03 -0.34732593374E+02  0.43179060603E+02  0.16934693962E+03  0.00000000000E+00 0.  1.
         13    1    5    5    0    0  0.25782068574E+03 -0.18196202647E+03  0.21350335513E+03  0.38100573188E+03  0.00000000000E+00 0.  1.
        -13    1    5    5    0    0  0.14581162942E+03 -0.90955832778E+02  0.20569211077E+03  0.26803589167E+03  0.00000000000E+00 0. -1.
          4    1    6    6  503    0 -0.27698678322E+02  0.81622506896E+02 -0.18209312936E+02  0.88096705332E+02  0.00000000000E+00 0. -1.
         -4    1    6    6    0  503 -0.32426868430E+02  0.30287965527E+03  0.99739388608E+02  0.32052384157E+03  0.00000000000E+00 0.  1.
<mgrwt>
<rscale>  0 0.13014732E+04</rscale>
<asrwt>0</asrwt>
<pdfrwt beam="1">  1        2 0.16566254E+00 0.13014732E+04</pdfrwt>
<pdfrwt beam="2">  1       -1 0.60500567E-01 0.13014732E+04</pdfrwt>
<totfact> 0.69742016E+01</totfact>
</mgrwt>
</event>
<event>
12    7  0.1730932E-007  0.1612974E+04  0.7818608E-02  0.8812617E-01
         -1   -1    0    0    0  501 -0.00000000000E+00  0.00000000000E+00  0.26113093885E+03  0.26113093885E+03  0.00000000000E+00 0.  1.
          2   -1    0    0  501    0  0.00000000000E+00 -0.00000000000E+00 -0.24907866728E+04  0.24907866728E+04  0.00000000000E+00 0. -1.
         24    2    1    2    0    0 -0.26990031889E+03  0.34391231620E+03 -0.19234420989E+03  0.48425605644E+03  0.79911011414E+02 0.  0.
        254    2    1    2    0    0  0.26990031889E+03 -0.34391231620E+03 -0.20373115241E+04  0.22676615552E+04  0.89472276129E+03 0.  0.
         23    2    4    4    0    0 -0.45952799059E+02  0.91866962507E+02 -0.14825457089E+04  0.14893058520E+04  0.97667514463E+02 0.  0.
         23    2    4    4    0    0  0.31585311795E+03 -0.43577927871E+03 -0.55476581520E+03  0.77835570322E+03  0.91682709124E+02 0.  0.
          4    1    3    3  502    0 -0.83845178594E+02  0.15692398328E+03 -0.51475899683E+02  0.18521587067E+03  0.00000000000E+00 0. -1.
         -3    1    3    3    0  502 -0.18605514030E+03  0.18698833292E+03 -0.14086831021E+03  0.29904018576E+03  0.00000000000E+00 0.  1.
         13    1    5    5    0    0 -0.61862100469E+02  0.10348810167E+03 -0.13384604928E+04  0.13438799044E+04  0.00000000000E+00 0.  1.
        -13    1    5    5    0    0  0.15909301410E+02 -0.11621139160E+02 -0.14408521609E+03  0.14542594762E+03  0.00000000000E+00 0. -1.
          3    1    6    6  503    0  0.10022371541E+03 -0.10358728729E+03 -0.20088366218E+03  0.24724353369E+03  0.00000000000E+00 0. -1.
         -3    1    6    6    0  503  0.21562940254E+03 -0.33219199141E+03 -0.35388215302E+03  0.53111216953E+03  0.00000000000E+00 0.  1.
<mgrwt>
<rscale>  0 0.16129742E+04</rscale>
<asrwt>0</asrwt>
<pdfrwt beam="1">  1        2 0.38319794E+00 0.16129742E+04</pdfrwt>
<pdfrwt beam="2">  1       -1 0.40173992E-01 0.16129742E+04</pdfrwt>
<totfact> 0.23279182E+01</totfact>
</mgrwt>
</event>
<event>
12    7  0.1730932E-007  0.1527400E+04  0.7818608E-02  0.8866434E-01
         -1   -1    0    0    0  501 -0.00000000000E+00  0.00000000000E+00  0.50880306709E+03  0.50880306709E+03  0.00000000000E+00 0.  1.
          2   -1    0    0  501    0  0.00000000000E+00 -0.00000000000E+00 -0.11462935418E+04  0.11462935418E+04  0.00000000000E+00 0. -1.
         24    2    1    2    0    0  0.97458462399E+02  0.43981667732E+03  0.89029489114E+01  0.45785385685E+03  0.81326688048E+02 0.  0.
        254    2    1    2    0    0 -0.97458462399E+02 -0.43981667732E+03 -0.64639342358E+03  0.11972427520E+04  0.90145931002E+03 0.  0.
         23    2    4    4    0    0  0.27369945502E+03 -0.71314094986E+02 -0.59316709506E+03  0.66350343377E+03  0.91610655182E+02 0.  0.
         23    2    4    4    0    0 -0.37115791742E+03 -0.36850258234E+03 -0.53226328524E+02  0.53373931823E+03  0.92153485690E+02 0.  0.
          4    1    3    3  502    0  0.35995576111E+02  0.30869228938E+03  0.26800965526E+02  0.31193733790E+03  0.00000000000E+00 0. -1.
         -3    1    3    3    0  502  0.61462886287E+02  0.13112438794E+03 -0.17898016614E+02  0.14591651895E+03  0.00000000000E+00 0.  1.
         13    1    5    5    0    0  0.47499242951E+02  0.11086184367E+02 -0.16769762304E+03  0.17464699922E+03  0.00000000000E+00 0. -1.
        -13    1    5    5    0    0  0.22620021207E+03 -0.82400279352E+02 -0.42546947202E+03  0.48885643454E+03  0.00000000000E+00 0.  1.
          3    1    6    6  503    0 -0.12031488578E+03 -0.17192682946E+03  0.43475529860E+01  0.20988903650E+03  0.00000000000E+00 0. -1.
         -3    1    6    6    0  503 -0.25084303164E+03 -0.19657575288E+03 -0.57573881510E+02  0.32385028173E+03  0.00000000000E+00 0.  1.
<mgrwt>
<rscale>  0 0.15274000E+04</rscale>
<asrwt>0</asrwt>
<pdfrwt beam="1">  1        2 0.17635285E+00 0.15274000E+04</pdfrwt>
<pdfrwt beam="2">  1       -1 0.78277396E-01 0.15274000E+04</pdfrwt>
<totfact> 0.36668792E+01</totfact>
</mgrwt>
</event>
<event>
12    7  0.1730932E-007  0.1467852E+04  0.7818608E-02  0.8906117E-01
          2   -1    0    0  501    0  0.00000000000E+00  0.00000000000E+00  0.14689017577E+04  0.14689017577E+04  0.00000000000E+00 0. -1.
         -1   -1    0    0    0  501 -0.00000000000E+00 -0.00000000000E+00 -0.36670057649E+03  0.36670057649E+03  0.00000000000E+00 0.  1.
         24    2    1    2    0    0  0.15186925588E+03  0.42749034304E+02  0.86482191802E+03  0.88284744153E+03  0.81307467793E+02 0.  0.
        254    2    1    2    0    0 -0.15186925588E+03 -0.42749034304E+02  0.23737926320E+03  0.95275489266E+03  0.90912112508E+03 0.  0.
         23    2    4    4    0    0 -0.48860511838E+02  0.41027803299E+03 -0.60376369438E+00  0.42303785580E+03  0.90803353131E+02 0.  0.
         23    2    4    4    0    0 -0.10300874405E+03 -0.45302706729E+03  0.23798302689E+03  0.52971703686E+03  0.90110448887E+02 0.  0.
          2    1    3    3  502    0  0.13701193052E+03  0.59500480280E+01  0.63707525939E+03  0.65166905581E+03  0.00000000000E+00 0. -1.
         -1    1    3    3    0  502  0.14857325365E+02  0.36798986276E+02  0.22774665863E+03  0.23117838572E+03  0.00000000000E+00 0.  1.
         13    1    5    5    0    0 -0.24451190949E+01  0.22060235040E+03 -0.38972577574E+02  0.22403177768E+03  0.00000000000E+00 0.  1.
        -13    1    5    5    0    0 -0.46415392743E+02  0.18967568259E+03  0.38368813880E+02  0.19900607812E+03  0.00000000000E+00 0. -1.
          1    1    6    6  503    0 -0.33898781792E+02 -0.74388825525E+02  0.77699337966E+02  0.11278303015E+03  0.00000000000E+00 0. -1.
         -1    1    6    6    0  503 -0.69109962253E+02 -0.37863824177E+03  0.16028368893E+03  0.41693400670E+03  0.00000000000E+00 0.  1.
<mgrwt>
<rscale>  0 0.14678517E+04</rscale>
<asrwt>0</asrwt>
<pdfrwt beam="1">  1        2 0.22598488E+00 0.14678517E+04</pdfrwt>
<pdfrwt beam="2">  1       -1 0.56415474E-01 0.14678517E+04</pdfrwt>
<totfact> 0.46386454E+01</totfact>
</mgrwt>
</event>
<event>
12    7  0.1730932E-007  0.1756035E+04  0.7818608E-02  0.8730035E-01
          2   -1    0    0  501    0  0.00000000000E+00  0.00000000000E+00  0.15629012387E+04  0.15629012387E+04  0.00000000000E+00 0. -1.
         -1   -1    0    0    0  501 -0.00000000000E+00 -0.00000000000E+00 -0.49325872424E+03  0.49325872424E+03  0.00000000000E+00 0.  1.
         24    2    1    2    0    0  0.45425898913E+03 -0.33180404327E+03  0.75829316496E+03  0.94878212828E+03  0.93455072479E+02 0.  0.
        254    2    1    2    0    0 -0.45425898913E+03  0.33180404327E+03  0.31134934947E+03  0.11073778346E+04  0.90161083562E+03 0.  0.
         23    2    4    4    0    0 -0.11554483522E+03  0.15833226027E+02 -0.30048016114E+03  0.33458045150E+03  0.89746594889E+02 0.  0.
         23    2    4    4    0    0 -0.33871415391E+03  0.31597081725E+03  0.61182951061E+03  0.77279738315E+03  0.91189966229E+02 0.  0.
          4    1    3    3  502    0  0.32237561938E+03 -0.24371905246E+03  0.60953464337E+03  0.73133952304E+03  0.00000000000E+00 0. -1.
         -3    1    3    3    0  502  0.13188336975E+03 -0.88084990818E+02  0.14875852159E+03  0.21744260523E+03  0.00000000000E+00 0.  1.
         13    1    5    5    0    0 -0.69595529245E+02  0.38346548538E+02 -0.25147634074E+03  0.26373157837E+03  0.00000000000E+00 0.  1.
        -13    1    5    5    0    0 -0.45949305976E+02 -0.22513322512E+02 -0.49003820393E+02  0.70848873126E+02  0.00000000000E+00 0. -1.
          3    1    6    6  503    0 -0.26257433372E+03  0.28661581326E+03  0.52970140524E+03  0.65702167685E+03  0.00000000000E+00 0. -1.
         -3    1    6    6    0  503 -0.76139820186E+02  0.29355003986E+02  0.82128105369E+02  0.11577570630E+03  0.00000000000E+00 0.  1.
<mgrwt>
<rscale>  0 0.17560349E+04</rscale>
<asrwt>0</asrwt>
<pdfrwt beam="1">  1        2 0.24044634E+00 0.17560349E+04</pdfrwt>
<pdfrwt beam="2">  1       -1 0.75885958E-01 0.17560349E+04</pdfrwt>
<totfact> 0.22027494E+01</totfact>
</mgrwt>
</event>
<event>
12    7  0.1730932E-007  0.1539706E+04  0.7818608E-02  0.8858470E-01
          2   -1    0    0  501    0  0.00000000000E+00  0.00000000000E+00  0.11942669389E+04  0.11942669389E+04  0.00000000000E+00 0. -1.
         -1   -1    0    0    0  501 -0.00000000000E+00 -0.00000000000E+00 -0.49626544609E+03  0.49626544609E+03  0.00000000000E+00 0.  1.
         24    2    1    2    0    0  0.19136086590E+03 -0.13574891037E+03  0.72764471222E+03  0.76853854268E+03  0.78344857463E+02 0.  0.
        254    2    1    2    0    0 -0.19136086590E+03  0.13574891037E+03 -0.29643219438E+02  0.92199384229E+03  0.89114935734E+03 0.  0.
         23    2    4    4    0    0 -0.45673218038E+03  0.30573095890E+03 -0.14085851339E+03  0.57510310525E+03  0.93950822538E+02 0.  0.
         23    2    4    4    0    0  0.26537131447E+03 -0.16998204853E+03  0.11121529395E+03  0.34689073704E+03  0.92997368077E+02 0.  0.
          4    1    3    3  502    0  0.10941027396E+03 -0.11886275229E+03  0.52516078175E+03  0.54944773056E+03  0.00000000000E+00 0. -1.
         -3    1    3    3    0  502  0.81950591947E+02 -0.16886158081E+02  0.20248393047E+03  0.21909081212E+03  0.00000000000E+00 0.  1.
         13    1    5    5    0    0 -0.12372007765E+03  0.40735415925E+02 -0.52557459094E+02  0.14045753177E+03  0.00000000000E+00 0. -1.
        -13    1    5    5    0    0 -0.33301210272E+03  0.26499554297E+03 -0.88301054295E+02  0.43464557348E+03  0.00000000000E+00 0.  1.
          3    1    6    6  503    0  0.14586966265E+03 -0.41168266484E+02  0.66925207800E+02  0.16568575101E+03  0.00000000000E+00 0. -1.
         -3    1    6    6    0  503  0.11950165182E+03 -0.12881378204E+03  0.44290086151E+02  0.18120498603E+03  0.00000000000E+00 0.  1.
<mgrwt>
<rscale>  0 0.15397057E+04</rscale>
<asrwt>0</asrwt>
<pdfrwt beam="1">  1        2 0.18373337E+00 0.15397057E+04</pdfrwt>
<pdfrwt beam="2">  1       -1 0.76348531E-01 0.15397057E+04</pdfrwt>
<totfact> 0.36120270E+01</totfact>
</mgrwt>
</event>
<event>
12    7  0.1730932E-007  0.1921036E+04  0.7818608E-02  0.8644456E-01
          2   -1    0    0  501    0  0.00000000000E+00  0.00000000000E+00  0.69322527730E+03  0.69322527730E+03  0.00000000000E+00 0. -1.
         -1   -1    0    0    0  501 -0.00000000000E+00 -0.00000000000E+00 -0.13308726308E+04  0.13308726308E+04  0.00000000000E+00 0.  1.
         24    2    1    2    0    0  0.21286270651E+03  0.55968947944E+03  0.19534035721E+03  0.63499172869E+03  0.80584087266E+02 0.  0.
        254    2    1    2    0    0 -0.21286270651E+03 -0.55968947944E+03 -0.83298771070E+03  0.13891061794E+04  0.93658133990E+03 0.  0.
         23    2    4    4    0    0  0.25419390264E+03 -0.43405252392E+02 -0.58329374578E+03  0.64434909705E+03  0.91954385069E+02 0.  0.
         23    2    4    4    0    0 -0.46705660916E+03 -0.51628422705E+03 -0.24969396492E+03  0.74475708235E+03  0.87319850758E+02 0.  0.
          4    1    3    3  502    0  0.18695290941E+03  0.49403800894E+03  0.14335858644E+03  0.54733593790E+03  0.00000000000E+00 0. -1.
         -3    1    3    3    0  502  0.25909797104E+02  0.65651470504E+02  0.51981770773E+02  0.87655790784E+02  0.00000000000E+00 0.  1.
         13    1    5    5    0    0  0.12968497248E+03  0.24374186703E+02 -0.28792699800E+03  0.31672424795E+03  0.00000000000E+00 0. -1.
        -13    1    5    5    0    0  0.12450893016E+03 -0.67779439095E+02 -0.29536674778E+03  0.32762484910E+03  0.00000000000E+00 0.  1.
          3    1    6    6  503    0 -0.26999431322E+01 -0.17097681752E+02  0.31786768796E+01  0.17598988633E+02  0.00000000000E+00 0. -1.
         -3    1    6    6    0  503 -0.46435666602E+03 -0.49918654530E+03 -0.25287264180E+03  0.72715809372E+03  0.00000000000E+00 0.  1.
<mgrwt>
<rscale>  0 0.19210357E+04</rscale>
<asrwt>0</asrwt>
<pdfrwt beam="1">  1        2 0.10665004E+00 0.19210357E+04</pdfrwt>
<pdfrwt beam="2">  1       -1 0.20474963E+00 0.19210357E+04</pdfrwt>
<totfact> 0.61807435E+00</totfact>
</mgrwt>
</event>
<event>
12    7  0.1730932E-007  0.2082066E+04  0.7818608E-02  0.8569185E-01
          2   -1    0    0  501    0  0.00000000000E+00  0.00000000000E+00  0.28750000780E+04  0.28750000780E+04  0.00000000000E+00 0. -1.
         -1   -1    0    0    0  501 -0.00000000000E+00 -0.00000000000E+00 -0.37695650749E+03  0.37695650749E+03  0.00000000000E+00 0.  1.
         24    2    1    2    0    0  0.30574941246E+03  0.17030377934E+03  0.22114515735E+04  0.22404332123E+04  0.80850704418E+02 0.  0.
        254    2    1    2    0    0 -0.30574941246E+03 -0.17030377934E+03  0.28659199701E+03  0.10115233732E+04  0.90474221813E+03 0.  0.
         23    2    4    4    0    0 -0.50344614410E+03  0.55022646094E+02 -0.88126801216E+02  0.52310535431E+03  0.96888425677E+02 0.  0.
         23    2    4    4    0    0  0.19769673163E+03 -0.22532642543E+03  0.37471879822E+03  0.48841801887E+03  0.91005426854E+02 0.  0.
          4    1    3    3  502    0  0.27800829989E+03  0.14540140394E+03  0.20891573658E+04  0.21125834143E+04  0.00000000000E+00 0. -1.
         -1    1    3    3    0  502  0.27741112576E+02  0.24902375399E+02  0.12229420767E+03  0.12784979803E+03  0.00000000000E+00 0.  1.
         13    1    5    5    0    0 -0.19679899358E+03  0.66918350022E+02 -0.20578216419E+02  0.20888124002E+03  0.00000000000E+00 0. -1.
        -13    1    5    5    0    0 -0.30664715052E+03 -0.11895703928E+02 -0.67548584798E+02  0.31422411429E+03  0.00000000000E+00 0.  1.
          2    1    6    6  503    0  0.20340614982E+03 -0.19794171969E+03  0.35331163698E+03  0.45319322480E+03  0.00000000000E+00 0.  1.
         -2    1    6    6    0  503 -0.57094181886E+01 -0.27384705744E+02  0.21407161244E+02  0.35224794070E+02  0.00000000000E+00 0. -1.
<mgrwt>
<rscale>  0 0.20820663E+04</rscale>
<asrwt>0</asrwt>
<pdfrwt beam="1">  1        2 0.44230769E+00 0.20820663E+04</pdfrwt>
<pdfrwt beam="2">  1       -1 0.57993311E-01 0.20820663E+04</pdfrwt>
<totfact> 0.65946416E+00</totfact>
</mgrwt>
</event>
<event>
12    7  0.1730932E-007  0.1560153E+04  0.7818608E-02  0.8845409E-01
          2   -1    0    0  501    0  0.00000000000E+00  0.00000000000E+00  0.22657552578E+04  0.22657552578E+04  0.00000000000E+00 0. -1.
         -1   -1    0    0    0  501 -0.00000000000E+00 -0.00000000000E+00 -0.26857224334E+03  0.26857224334E+03  0.00000000000E+00 0.  1.
         24    2    1    2    0    0 -0.38347809432E+03  0.30192626710E+03  0.44188419200E+03  0.66342269739E+03  0.81566639497E+02 0.  0.
        254    2    1    2    0    0  0.38347809432E+03 -0.30192626710E+03  0.15552988224E+04  0.18709048037E+04  0.91821317673E+03 0.  0.
         23    2    4    4    0    0 -0.23378718633E+03 -0.32595935313E+03  0.54427535966E+03  0.68256966785E+03  0.93593461020E+02 0.  0.
         23    2    4    4    0    0  0.61726528065E+03  0.24033086029E+02  0.10110234628E+04  0.11883351359E+04  0.91531070956E+02 0.  0.
          2    1    3    3  502    0 -0.75081978417E+02  0.57630863920E+02  0.45804240919E+02  0.10515059888E+03  0.00000000000E+00 0. -1.
         -1    1    3    3    0  502 -0.30839611591E+03  0.24429540318E+03  0.39607995108E+03  0.55827209851E+03  0.00000000000E+00 0.  1.
         13    1    5    5    0    0 -0.22598042856E+03 -0.25973334116E+03  0.43809066648E+03  0.55718219162E+03  0.00000000000E+00 0. -1.
        -13    1    5    5    0    0 -0.78067577682E+01 -0.66226011969E+02  0.10618469319E+03  0.12538747623E+03  0.00000000000E+00 0.  1.
          2    1    6    6  503    0  0.55235759351E+03  0.30578300955E+02  0.94813195974E+03  0.10977195255E+04  0.00000000000E+00 0. -1.
         -2    1    6    6    0  503  0.64907687138E+02 -0.65452149259E+01  0.62891503033E+02  0.90615610365E+02  0.00000000000E+00 0.  1.
<mgrwt>
<rscale>  0 0.15601525E+04</rscale>
<asrwt>0</asrwt>
<pdfrwt beam="1">  1        2 0.34857772E+00 0.15601525E+04</pdfrwt>
<pdfrwt beam="2">  1       -1 0.41318808E-01 0.15601525E+04</pdfrwt>
<totfact> 0.29835290E+01</totfact>
</mgrwt>
</event>
<event>
12    7  0.1730932E-007  0.1625470E+04  0.7818608E-02  0.8805052E-01
         -1   -1    0    0    0  501 -0.00000000000E+00  0.00000000000E+00  0.25436055677E+03  0.25436055677E+03  0.00000000000E+00 0.  1.
          2   -1    0    0  501    0  0.00000000000E+00 -0.00000000000E+00 -0.25968585359E+04  0.25968585359E+04  0.00000000000E+00 0. -1.
         24    2    1    2    0    0 -0.22389672208E+03  0.43785747690E+03 -0.13016897750E+04  0.13937657306E+04  0.79609855572E+02 0.  0.
        254    2    1    2    0    0  0.22389672208E+03 -0.43785747690E+03 -0.10408082041E+04  0.14574533621E+04  0.89389019053E+03 0.  0.
         23    2    4    4    0    0  0.11143139774E+03 -0.11327403319E+03  0.13645780474E+03  0.22765650944E+03  0.89212055319E+02 0.  0.
         23    2    4    4    0    0  0.11246532433E+03 -0.32458344371E+03 -0.11772660089E+04  0.12297968527E+04  0.91881348038E+02 0.  0.
          2    1    3    3  502    0 -0.18181841789E+03  0.28212056069E+03 -0.92382735442E+03  0.98290738558E+03  0.00000000000E+00 0. -1.
         -1    1    3    3    0  502 -0.42078304187E+02  0.15573691621E+03 -0.37786242062E+03  0.41085834501E+03  0.00000000000E+00 0.  1.
         13    1    5    5    0    0  0.12580821927E+03 -0.97239394326E+02  0.10908939632E+03  0.19283076579E+03  0.00000000000E+00 0.  1.
        -13    1    5    5    0    0 -0.14376821529E+02 -0.16034638867E+02  0.27368408423E+02  0.34825743646E+02  0.00000000000E+00 0. -1.
          4    1    6    6  503    0  0.93597823967E+02 -0.13061151840E+03 -0.52586928359E+03  0.54987128023E+03  0.00000000000E+00 0. -1.
         -4    1    6    6    0  503  0.18867500364E+02 -0.19397192531E+03 -0.65139672527E+03  0.67992557244E+03  0.00000000000E+00 0.  1.
<mgrwt>
<rscale>  0 0.16254702E+04</rscale>
<asrwt>0</asrwt>
<pdfrwt beam="1">  1        2 0.39951666E+00 0.16254702E+04</pdfrwt>
<pdfrwt beam="2">  1       -1 0.39132397E-01 0.16254702E+04</pdfrwt>
<totfact> 0.21172715E+01</totfact>
</mgrwt>
</event>
<event>
12    7  0.1730932E-007  0.1363460E+04  0.7818608E-02  0.8980701E-01
         -1   -1    0    0    0  501 -0.00000000000E+00  0.00000000000E+00  0.17386297426E+03  0.17386297426E+03  0.00000000000E+00 0.  1.
          2   -1    0    0  501    0  0.00000000000E+00 -0.00000000000E+00 -0.26731140933E+04  0.26731140933E+04  0.00000000000E+00 0. -1.
         24    2    1    2    0    0 -0.70701219812E+01  0.39539808340E+03 -0.90599296052E+03  0.99187767506E+03  0.81292353751E+02 0.  0.
        254    2    1    2    0    0  0.70701219812E+01 -0.39539808340E+03 -0.15932581585E+04  0.18550993925E+04  0.86402116027E+03 0.  0.
         23    2    4    4    0    0 -0.32317908725E+03 -0.37051884311E+02 -0.24118170895E+03  0.41496832381E+03  0.90623001878E+02 0.  0.
         23    2    4    4    0    0  0.33024920923E+03 -0.35834619909E+03 -0.13520764495E+04  0.14401310687E+04  0.91598203761E+02 0.  0.
          4    1    3    3  502    0  0.64817809460E+01  0.10201396899E+03 -0.32779486560E+03  0.34336327303E+03  0.00000000000E+00 0. -1.
         -3    1    3    3    0  502 -0.13551902927E+02  0.29338411442E+03 -0.57819809493E+03  0.64851440203E+03  0.00000000000E+00 0.  1.
         13    1    5    5    0    0 -0.13246519668E+03 -0.51924112196E+02 -0.71360794832E+02  0.15917130645E+03  0.00000000000E+00 0. -1.
        -13    1    5    5    0    0 -0.19071389057E+03  0.14872227885E+02 -0.16982091412E+03  0.25579701736E+03  0.00000000000E+00 0.  1.
          3    1    6    6  503    0  0.32339027125E+03 -0.35199495292E+03 -0.13474089225E+04  0.14296826637E+04  0.00000000000E+00 0. -1.
         -3    1    6    6    0  503  0.68589379857E+01 -0.63512461673E+01 -0.46675270686E+01  0.10448405003E+02  0.00000000000E+00 0.  1.
<mgrwt>
<rscale>  0 0.13634597E+04</rscale>
<asrwt>0</asrwt>
<pdfrwt beam="1">  1        2 0.41124828E+00 0.13634597E+04</pdfrwt>
<pdfrwt beam="2">  1       -1 0.26748153E-01 0.13634597E+04</pdfrwt>
<totfact> 0.38392392E+01</totfact>
</mgrwt>
</event>
<event>
12    7  0.1730932E-007  0.1101901E+04  0.7818608E-02  0.9203341E-01
         -1   -1    0    0    0  501 -0.00000000000E+00  0.00000000000E+00  0.43791474115E+03  0.43791474115E+03  0.00000000000E+00 0.  1.
          2   -1    0    0  501    0  0.00000000000E+00 -0.00000000000E+00 -0.69316364357E+03  0.69316364357E+03  0.00000000000E+00 0. -1.
         24    2    1    2    0    0  0.27977045553E+02  0.31004694403E+01 -0.22259878761E+03  0.23693203277E+03  0.76119904879E+02 0.  0.
        254    2    1    2    0    0 -0.27977045553E+02 -0.31004694403E+01 -0.32650114813E+02  0.89414635196E+03  0.89310656740E+03 0.  0.
         23    2    4    4    0    0 -0.25425490002E+03 -0.29119954155E+03 -0.23763090158E+03  0.46275727462E+03  0.90736556255E+02 0.  0.
         23    2    4    4    0    0  0.22627785447E+03  0.28809907211E+03  0.20498078676E+03  0.43138907734E+03  0.99381438563E+02 0.  0.
          4    1    3    3  502    0  0.53323606830E+02  0.23159121066E+01 -0.17554796526E+03  0.18348258392E+03  0.00000000000E+00 0. -1.
         -3    1    3    3    0  502 -0.25346561278E+02  0.78455733376E+00 -0.47050822347E+02  0.53449448850E+02  0.00000000000E+00 0.  1.
         13    1    5    5    0    0 -0.17972657939E+03 -0.24127275241E+03 -0.14558699655E+03  0.33423009733E+03  0.00000000000E+00 0.  1.
        -13    1    5    5    0    0 -0.74528320629E+02 -0.49926789147E+02 -0.92043905022E+02  0.12852717729E+03  0.00000000000E+00 0. -1.
          3    1    6    6  503    0  0.13843360810E+03  0.97112094290E+02  0.83489575220E+02  0.18858719967E+03  0.00000000000E+00 0.  1.
         -3    1    6    6    0  503  0.87844246371E+02  0.19098697782E+03  0.12149121154E+03  0.24280187767E+03  0.00000000000E+00 0. -1.
<mgrwt>
<rscale>  0 0.11019012E+04</rscale>
<asrwt>0</asrwt>
<pdfrwt beam="1">  1        2 0.10664056E+00 0.11019012E+04</pdfrwt>
<pdfrwt beam="2">  1       -1 0.67371499E-01 0.11019012E+04</pdfrwt>
<totfact> 0.10499780E+02</totfact>
</mgrwt>
</event>
<event>
12    7  0.1730932E-007  0.1701862E+04  0.7818608E-02  0.8760303E-01
         -1   -1    0    0    0  501 -0.00000000000E+00  0.00000000000E+00  0.86911132082E+03  0.86911132082E+03  0.00000000000E+00 0.  1.
          2   -1    0    0  501    0  0.00000000000E+00 -0.00000000000E+00 -0.83313119524E+03  0.83313119524E+03  0.00000000000E+00 0. -1.
         24    2    1    2    0    0 -0.20707422932E+03  0.50753739411E+03 -0.17092092285E+03  0.57965577443E+03  0.79453836250E+02 0.  0.
        254    2    1    2    0    0  0.20707422932E+03 -0.50753739411E+03  0.20690104844E+03  0.11225867416E+04  0.95755887849E+03 0.  0.
         23    2    4    4    0    0  0.10236288860E+03  0.36566486787E+02 -0.32124509428E+03  0.35136765961E+03  0.91899688256E+02 0.  0.
         23    2    4    4    0    0  0.10471134072E+03 -0.54410388090E+03  0.52814614272E+03  0.77121908202E+03  0.93952255594E+02 0.  0.
          4    1    3    3  502    0 -0.14884762497E+03  0.30490686932E+03 -0.13791583396E+03  0.36625754828E+03  0.00000000000E+00 0. -1.
         -3    1    3    3    0  502 -0.58226604356E+02  0.20263052479E+03 -0.33005088896E+02  0.21339822615E+03  0.00000000000E+00 0.  1.
         13    1    5    5    0    0 -0.45323688949E+01 -0.18564391543E+02 -0.73891442051E+02  0.76322501332E+02  0.00000000000E+00 0.  1.
        -13    1    5    5    0    0  0.10689525750E+03  0.55130878330E+02 -0.24735365223E+03  0.27504515828E+03  0.00000000000E+00 0. -1.
          2    1    6    6  503    0  0.89613345688E+02 -0.41021257148E+03  0.34266337576E+03  0.54196226309E+03  0.00000000000E+00 0. -1.
         -2    1    6    6    0  503  0.15097995032E+02 -0.13389130942E+03  0.18548276695E+03  0.22925681894E+03  0.00000000000E+00 0.  1.
<mgrwt>
<rscale>  0 0.17018622E+04</rscale>
<asrwt>0</asrwt>
<pdfrwt beam="1">  1        2 0.12817403E+00 0.17018622E+04</pdfrwt>
<pdfrwt beam="2">  1       -1 0.13370943E+00 0.17018622E+04</pdfrwt>
<totfact> 0.16726275E+01</totfact>
</mgrwt>
</event>
<event>
12    7  0.1730932E-007  0.2054745E+04  0.7818608E-02  0.8581445E-01
          2   -1    0    0  501    0  0.00000000000E+00  0.00000000000E+00  0.23020834879E+04  0.23020834879E+04  0.00000000000E+00 0. -1.
         -1   -1    0    0    0  501 -0.00000000000E+00 -0.00000000000E+00 -0.45849529801E+03  0.45849529801E+03  0.00000000000E+00 0.  1.
         24    2    1    2    0    0 -0.79875079421E+03  0.85912770908E+02  0.10144413394E+04  0.12966359280E+04  0.82399412629E+02 0.  0.
        254    2    1    2    0    0  0.79875079421E+03 -0.85912770908E+02  0.82914685042E+03  0.14639428579E+04  0.90014463066E+03 0.  0.
         23    2    4    4    0    0  0.48365113870E+03  0.43864043526E+02  0.96606131080E+03  0.10850716904E+04  0.90904559251E+02 0.  0.
         23    2    4    4    0    0  0.31509965551E+03 -0.12977681443E+03 -0.13691446037E+03  0.37887116744E+03  0.93101974134E+02 0.  0.
          4    1    3    3  502    0 -0.47030311110E+03  0.10106413943E+02  0.58203326160E+03  0.74836479976E+03  0.00000000000E+00 0. -1.
         -3    1    3    3    0  502 -0.32844768310E+03  0.75806356965E+02  0.43240807782E+03  0.54827112824E+03  0.00000000000E+00 0.  1.
         13    1    5    5    0    0  0.43422014193E+03  0.13407424100E+02  0.87792431336E+03  0.97952947412E+03  0.00000000000E+00 0. -1.
        -13    1    5    5    0    0  0.49430996762E+02  0.30456619426E+02  0.88136997435E+02  0.10554221631E+03  0.00000000000E+00 0.  1.
          2    1    6    6  503    0  0.10822178259E+03 -0.92817304369E+02 -0.65668418951E+02  0.15696925643E+03  0.00000000000E+00 0. -1.
         -2    1    6    6    0  503  0.20687787293E+03 -0.36959510064E+02 -0.71246041423E+02  0.22190191101E+03  0.00000000000E+00 0.  1.
<mgrwt>
<rscale>  0 0.20547452E+04</rscale>
<asrwt>0</asrwt>
<pdfrwt beam="1">  1        2 0.35416668E+00 0.20547452E+04</pdfrwt>
<pdfrwt beam="2">  1       -1 0.70537739E-01 0.20547452E+04</pdfrwt>
<totfact> 0.96689731E+00</totfact>
</mgrwt>
</event>
<event>
12    7  0.1730932E-007  0.1888459E+04  0.7818608E-02  0.8660622E-01
          2   -1    0    0  501    0  0.00000000000E+00  0.00000000000E+00  0.19964448966E+04  0.19964448966E+04  0.00000000000E+00 0. -1.
         -1   -1    0    0    0  501 -0.00000000000E+00 -0.00000000000E+00 -0.44657870487E+03  0.44657870487E+03  0.00000000000E+00 0.  1.
         24    2    1    2    0    0  0.70064205896E+03  0.19575924053E+03  0.51871429148E+03  0.89700281925E+03  0.79552287901E+02 0.  0.
        254    2    1    2    0    0 -0.70064205896E+03 -0.19575924053E+03  0.10311519002E+04  0.15460207822E+04  0.89313215294E+03 0.  0.
         23    2    4    4    0    0 -0.30020610480E+03  0.37683586150E+02 -0.91271050907E+02  0.32815235900E+03  0.88373117826E+02 0.  0.
         23    2    4    4    0    0 -0.40043595416E+03 -0.23344282668E+03  0.11224229511E+04  0.12178684232E+04  0.92334762144E+02 0.  0.
          2    1    3    3  502    0  0.70121366974E+03  0.19488976335E+03  0.52061834207E+03  0.89483299481E+03  0.00000000000E+00 0. -1.
         -1    1    3    3    0  502 -0.57161077660E+00  0.86947717927E+00 -0.19040505935E+01  0.21698244417E+01  0.00000000000E+00 0.  1.
         13    1    5    5    0    0 -0.67398906541E+02 -0.13389420196E+02  0.95222967612E+01  0.69372640946E+02  0.00000000000E+00 0. -1.
        -13    1    5    5    0    0 -0.23280719826E+03  0.51073006346E+02 -0.10079334767E+03  0.25877971805E+03  0.00000000000E+00 0.  1.
          4    1    6    6  503    0 -0.21496190096E+02 -0.65408985137E+01  0.19340144074E+02  0.29646428365E+02  0.00000000000E+00 0. -1.
         -4    1    6    6    0  503 -0.37893976406E+03 -0.22690192817E+03  0.11030828071E+04  0.11882219948E+04  0.00000000000E+00 0.  1.
<mgrwt>
<rscale>  0 0.18884595E+04</rscale>
<asrwt>0</asrwt>
<pdfrwt beam="1">  1        2 0.30714536E+00 0.18884595E+04</pdfrwt>
<pdfrwt beam="2">  1       -1 0.68704417E-01 0.18884595E+04</pdfrwt>
<totfact> 0.15359547E+01</totfact>
</mgrwt>
</event>
<event>
12    7  0.1730932E-007  0.4065411E+04  0.7818608E-02  0.7991480E-01
         -1   -1    0    0    0  501 -0.00000000000E+00  0.00000000000E+00  0.25179829361E+04  0.25179829361E+04  0.00000000000E+00 0.  1.
          2   -1    0    0  501    0  0.00000000000E+00 -0.00000000000E+00 -0.16409530976E+04  0.16409530976E+04  0.00000000000E+00 0. -1.
         24    2    1    2    0    0 -0.70498147255E+03  0.22295554413E+03 -0.13930433798E+04  0.15792753597E+04  0.82660464297E+02 0.  0.
        254    2    1    2    0    0  0.70498147255E+03 -0.22295554413E+03  0.22700732182E+04  0.25796606741E+04  0.97709197421E+03 0.  0.
         23    2    4    4    0    0  0.67235319484E+03 -0.27653648208E+03  0.72597306555E+03  0.10315693671E+04  0.92559293293E+02 0.  0.
         23    2    4    4    0    0  0.32628277708E+02  0.53580937949E+02  0.15441001527E+04  0.15480913070E+04  0.91683650453E+02 0.  0.
          2    1    3    3  502    0 -0.57769802576E+03  0.14863167076E+03 -0.11270856356E+04  0.12752052433E+04  0.00000000000E+00 0. -1.
         -1    1    3    3    0  502 -0.12728344679E+03  0.74323873372E+02 -0.26595774419E+03  0.30407011638E+03  0.00000000000E+00 0.  1.
         13    1    5    5    0    0  0.87520293769E+01  0.56605128268E+01  0.40282327028E+01  0.11174349305E+02  0.00000000000E+00 0. -1.
        -13    1    5    5    0    0  0.66360116547E+03 -0.28219699491E+03  0.72194483285E+03  0.10203950178E+04  0.00000000000E+00 0.  1.
          2    1    6    6  503    0  0.32568283911E+02 -0.19383713175E+02  0.48192389533E+03  0.48341189719E+03  0.00000000000E+00 0. -1.
         -2    1    6    6    0  503  0.59993797097E-01  0.72964651124E+02  0.10621762574E+04  0.10646794098E+04  0.00000000000E+00 0.  1.
<mgrwt>
<rscale>  0 0.40654111E+04</rscale>
<asrwt>0</asrwt>
<pdfrwt beam="1">  1        2 0.25245432E+00 0.40654111E+04</pdfrwt>
<pdfrwt beam="2">  1       -1 0.38738199E+00 0.40654111E+04</pdfrwt>
<totfact> 0.82382954E-02</totfact>
</mgrwt>
</event>
<event>
12    7  0.2299381E-007  0.1744773E+04  0.7818608E-02  0.8736233E-01
         -1   -1    0    0    0  501 -0.00000000000E+00  0.00000000000E+00  0.65868445836E+03  0.65868445836E+03  0.00000000000E+00 0.  1.
          2   -1    0    0  501    0  0.00000000000E+00 -0.00000000000E+00 -0.11554212055E+04  0.11554212055E+04  0.00000000000E+00 0. -1.
         24    2    1    2    0    0  0.10903913822E+03 -0.24880609946E+03 -0.72129335698E+03  0.77492030199E+03  0.80270535133E+02 0.  0.
        254    2    1    2    0    0 -0.10903913822E+03  0.24880609946E+03  0.22455660985E+03  0.10391853619E+04  0.97759221380E+03 0.  0.
         23    2    4    4    0    0  0.71078605086E+02 -0.16985288006E+02  0.55656947713E+03  0.56888791102E+03  0.92321201890E+02 0.  0.
         23    2    4    4    0    0 -0.18011774331E+03  0.26579138746E+03 -0.33201286728E+03  0.47029745084E+03  0.88654865193E+02 0.  0.
          4    1    3    3  502    0  0.99651954559E+02 -0.25358138691E+03 -0.70026042893E+03  0.75139783082E+03  0.00000000000E+00 0. -1.
         -3    1    3    3    0  502  0.93871836651E+01  0.47752874487E+01 -0.21032928056E+02  0.23522471171E+02  0.00000000000E+00 0.  1.
         13    1    5    5    0    0  0.89828911124E+01  0.19622998993E+02  0.27631315640E+02  0.35060576524E+02  0.00000000000E+00 0.  1.
        -13    1    5    5    0    0  0.62095713973E+02 -0.36608286999E+02  0.52893816149E+03  0.53382733450E+03  0.00000000000E+00 0. -1.
          3    1    6    6  503    0 -0.84944123228E+02  0.14867678181E+03 -0.11612697403E+03  0.20689553793E+03  0.00000000000E+00 0. -1.
         -3    1    6    6    0  503 -0.95173620082E+02  0.11711460566E+03 -0.21588589326E+03  0.26340191291E+03  0.00000000000E+00 0.  1.
<mgrwt>
<rscale>  0 0.17447728E+04</rscale>
<asrwt>0</asrwt>
<pdfrwt beam="1">  1        2 0.17775711E+00 0.17447728E+04</pdfrwt>
<pdfrwt beam="2">  1       -1 0.10133607E+00 0.17447728E+04</pdfrwt>
<totfact> 0.20145001E+01</totfact>
</mgrwt>
</event>
<event>
12    7  0.1730932E-007  0.1872264E+04  0.7818608E-02  0.8668787E-01
         -1   -1    0    0    0  501 -0.00000000000E+00  0.00000000000E+00  0.92213398704E+03  0.92213398704E+03  0.00000000000E+00 0.  1.
          2   -1    0    0  501    0  0.00000000000E+00 -0.00000000000E+00 -0.95034245213E+03  0.95034245213E+03  0.00000000000E+00 0. -1.
         24    2    1    2    0    0 -0.48425688694E+03  0.28798695591E+03  0.43547446609E+03  0.71637287399E+03  0.78172019557E+02 0.  0.
        254    2    1    2    0    0  0.48425688694E+03 -0.28798695591E+03 -0.46368293118E+03  0.11561035652E+04  0.89673428253E+03 0.  0.
         23    2    4    4    0    0  0.33333567916E+03 -0.38601058990E+03 -0.68343876822E+03  0.85752805245E+03  0.90271591975E+02 0.  0.
         23    2    4    4    0    0  0.15092120778E+03  0.98023633990E+02  0.21975583704E+03  0.29857551274E+03  0.92026437060E+02 0.  0.
          2    1    3    3  502    0 -0.40368695488E+02  0.21157451881E+02  0.65870243104E+02  0.80100925538E+02  0.00000000000E+00 0. -1.
         -1    1    3    3    0  502 -0.44388819145E+03  0.26682950403E+03  0.36960422299E+03  0.63627194845E+03  0.00000000000E+00 0.  1.
         13    1    5    5    0    0  0.11609354613E+03 -0.20306396329E+03 -0.31268457834E+03  0.39049242012E+03  0.00000000000E+00 0.  1.
        -13    1    5    5    0    0  0.21724213303E+03 -0.18294662661E+03 -0.37075418988E+03  0.46703563233E+03  0.00000000000E+00 0. -1.
          1    1    6    6  503    0  0.15835949075E+02 -0.11567980984E+02  0.17687097171E+01  0.19690703421E+02  0.00000000000E+00 0. -1.
         -1    1    6    6    0  503  0.13508525871E+03  0.10959161497E+03  0.21798712732E+03  0.27888480932E+03  0.00000000000E+00 0.  1.
<mgrwt>
<rscale>  0 0.18722639E+04</rscale>
<asrwt>0</asrwt>
<pdfrwt beam="1">  1        2 0.14620653E+00 0.18722639E+04</pdfrwt>
<pdfrwt beam="2">  1       -1 0.14186677E+00 0.18722639E+04</pdfrwt>
<totfact> 0.11765664E+01</totfact>
</mgrwt>
</event>
<event>
12    7  0.1730932E-007  0.2286489E+04  0.7818608E-02  0.8483267E-01
         -1   -1    0    0    0  501 -0.00000000000E+00  0.00000000000E+00  0.53044590021E+03  0.53044590021E+03  0.00000000000E+00 0.  1.
          2   -1    0    0  501    0  0.00000000000E+00 -0.00000000000E+00 -0.24639796584E+04  0.24639796584E+04  0.00000000000E+00 0. -1.
         24    2    1    2    0    0 -0.26133377505E+03 -0.88934794210E+02 -0.20333216230E+04  0.20541759920E+04  0.95065470143E+02 0.  0.
        254    2    1    2    0    0  0.26133377505E+03  0.88934794210E+02  0.99787864893E+02  0.94024956660E+03  0.89325634053E+03 0.  0.
         23    2    4    4    0    0  0.52782994148E+03 -0.11014884131E+02 -0.14302773837E+03  0.55422997770E+03  0.89376503887E+02 0.  0.
         23    2    4    4    0    0 -0.26649616642E+03  0.99949678341E+02  0.24281560327E+03  0.38601958890E+03  0.95087122700E+02 0.  0.
          2    1    3    3  502    0 -0.16751809936E+03 -0.79279803298E+01 -0.11222700243E+04  0.11347313224E+04  0.00000000000E+00 0. -1.
         -1    1    3    3    0  502 -0.93815675689E+02 -0.81006813880E+02 -0.91105159872E+03  0.91944466959E+03  0.00000000000E+00 0.  1.
         13    1    5    5    0    0  0.47315813388E+03 -0.98687556944E+01 -0.15547942344E+03  0.49814642738E+03  0.00000000000E+00 0. -1.
        -13    1    5    5    0    0  0.54671807597E+02 -0.11461284370E+01  0.12451685061E+02  0.56083550326E+02  0.00000000000E+00 0.  1.
          3    1    6    6  503    0 -0.20073053198E+03  0.10704659632E+03  0.21883674371E+03  0.31566000800E+03  0.00000000000E+00 0. -1.
         -3    1    6    6    0  503 -0.65765634442E+02 -0.70969179801E+01  0.23978859560E+02  0.70359580898E+02  0.00000000000E+00 0.  1.
<mgrwt>
<rscale>  0 0.22864889E+04</rscale>
<asrwt>0</asrwt>
<pdfrwt beam="1">  1        2 0.37907379E+00 0.22864889E+04</pdfrwt>
<pdfrwt beam="2">  1       -1 0.81607062E-01 0.22864889E+04</pdfrwt>
<totfact> 0.56382188E+00</totfact>
</mgrwt>
</event>
<event>
12    7  0.1730932E-007  0.1760515E+04  0.7818608E-02  0.8727584E-01
          2   -1    0    0  501    0  0.00000000000E+00  0.00000000000E+00  0.31217893601E+04  0.31217893601E+04  0.00000000000E+00 0. -1.
         -1   -1    0    0    0  501 -0.00000000000E+00 -0.00000000000E+00 -0.24820793676E+03  0.24820793676E+03  0.00000000000E+00 0.  1.
         24    2    1    2    0    0  0.38148290988E+03  0.51771494899E+03  0.91297839836E+03  0.11195014695E+04  0.78714709315E+02 0.  0.
        254    2    1    2    0    0 -0.38148290988E+03 -0.51771494899E+03  0.19606030250E+04  0.22504958273E+04  0.89844825577E+03 0.  0.
         23    2    4    4    0    0 -0.31109542459E+03 -0.70275719590E+03  0.18513036099E+04  0.20064371325E+04  0.88413069451E+02 0.  0.
         23    2    4    4    0    0 -0.70387485289E+02  0.18504224690E+03  0.10929941500E+03  0.24405869481E+03  0.91778282654E+02 0.  0.
          4    1    3    3  502    0  0.89734196834E+02  0.11398757931E+03  0.26600713549E+03  0.30299371355E+03  0.00000000000E+00 0. -1.
         -3    1    3    3    0  502  0.29174871304E+03  0.40372736968E+03  0.64697126287E+03  0.81650775597E+03  0.00000000000E+00 0.  1.
         13    1    5    5    0    0 -0.30392497664E+03 -0.62021714359E+03  0.16614378103E+04  0.17992818829E+04  0.00000000000E+00 0.  1.
        -13    1    5    5    0    0 -0.71704479488E+01 -0.82540052306E+02  0.18986579969E+03  0.20715524964E+03  0.00000000000E+00 0. -1.
          4    1    6    6  503    0  0.12130013332E+02  0.16595516401E+02  0.38358628012E+02  0.43519337438E+02  0.00000000000E+00 0. -1.
         -4    1    6    6    0  503 -0.82517498620E+02  0.16844673050E+03  0.70940786991E+02  0.20053935737E+03  0.00000000000E+00 0.  1.
<mgrwt>
<rscale>  0 0.17605146E+04</rscale>
<asrwt>0</asrwt>
<pdfrwt beam="1">  1        2 0.48027526E+00 0.17605146E+04</pdfrwt>
<pdfrwt beam="2">  1       -1 0.38185839E-01 0.17605146E+04</pdfrwt>
<totfact> 0.10470658E+01</totfact>
</mgrwt>
</event>
<event>
12    7  0.1730932E-007  0.1778098E+04  0.7818608E-02  0.8718034E-01
         -1   -1    0    0    0  501 -0.00000000000E+00  0.00000000000E+00  0.74877076203E+03  0.74877076203E+03  0.00000000000E+00 0.  1.
          2   -1    0    0  501    0  0.00000000000E+00 -0.00000000000E+00 -0.10556077259E+04  0.10556077259E+04  0.00000000000E+00 0. -1.
         24    2    1    2    0    0 -0.10240421331E+03 -0.37564922605E+03  0.40980232977E+03  0.57068338259E+03  0.78374802974E+02 0.  0.
        254    2    1    2    0    0  0.10240421331E+03  0.37564922605E+03 -0.71663929366E+03  0.12336951054E+04  0.92565261943E+03 0.  0.
         23    2    4    4    0    0 -0.35661091797E+03 -0.28830295632E+02 -0.16472747067E+03  0.40466002456E+03  0.92801202155E+02 0.  0.
         23    2    4    4    0    0  0.45901513128E+03  0.40447952168E+03 -0.55191182300E+03  0.82903508081E+03  0.91618396872E+02 0.  0.
          2    1    3    3  502    0 -0.31834241254E+02 -0.36205896686E+02  0.71810377216E+02  0.86492867607E+02  0.00000000000E+00 0. -1.
         -1    1    3    3    0  502 -0.70569972056E+02 -0.33944332936E+03  0.33799195256E+03  0.48419051498E+03  0.00000000000E+00 0.  1.
         13    1    5    5    0    0 -0.16377389192E+03 -0.50734514860E+02 -0.10731882502E+03  0.20227013837E+03  0.00000000000E+00 0. -1.
        -13    1    5    5    0    0 -0.19283702605E+03  0.21904219229E+02 -0.57408645646E+02  0.20238988619E+03  0.00000000000E+00 0.  1.
          1    1    6    6  503    0  0.24493302288E+03  0.27416745907E+03 -0.34193902555E+03  0.50207796058E+03  0.00000000000E+00 0. -1.
         -1    1    6    6    0  503  0.21408210840E+03  0.13031206262E+03 -0.20997279745E+03  0.32695712023E+03  0.00000000000E+00 0.  1.
<mgrwt>
<rscale>  0 0.17780981E+04</rscale>
<asrwt>0</asrwt>
<pdfrwt beam="1">  1        2 0.16240119E+00 0.17780981E+04</pdfrwt>
<pdfrwt beam="2">  1       -1 0.11519550E+00 0.17780981E+04</pdfrwt>
<totfact> 0.17125462E+01</totfact>
</mgrwt>
</event>
<event>
12    7  0.1730932E-007  0.1417705E+04  0.7818608E-02  0.8941101E-01
          2   -1    0    0  501    0  0.00000000000E+00  0.00000000000E+00  0.42140060648E+04  0.42140060648E+04  0.00000000000E+00 0. -1.
         -1   -1    0    0    0  501 -0.00000000000E+00 -0.00000000000E+00 -0.11923856973E+03  0.11923856973E+03  0.00000000000E+00 0.  1.
         24    2    1    2    0    0 -0.31176978919E+03  0.88643657214E+02  0.20319238228E+04  0.20591641211E+04  0.79902170006E+02 0.  0.
        254    2    1    2    0    0  0.31176978919E+03 -0.88643657214E+02  0.20628436723E+04  0.22740805134E+04  0.90058873279E+03 0.  0.
         23    2    4    4    0    0  0.34728347489E+03 -0.31574814922E+03  0.19401125453E+04  0.19981695908E+04  0.91336299552E+02 0.  0.
         23    2    4    4    0    0 -0.35513685700E+02  0.22710449201E+03  0.12273112695E+03  0.27591092252E+03  0.90698596904E+02 0.  0.
          4    1    3    3  502    0 -0.16924478610E+03  0.70578854479E+01  0.10685177055E+04  0.10818612196E+04  0.00000000000E+00 0. -1.
         -3    1    3    3    0  502 -0.14252500308E+03  0.81585771766E+02  0.96340611726E+03  0.97730290158E+03  0.00000000000E+00 0.  1.
         13    1    5    5    0    0  0.33430219479E+03 -0.31955542081E+03  0.19094407723E+04  0.19646469626E+04  0.00000000000E+00 0. -1.
        -13    1    5    5    0    0  0.12981280095E+02  0.38072715816E+01  0.30671772964E+02  0.33522628277E+02  0.00000000000E+00 0.  1.
          4    1    6    6  503    0 -0.45956531900E+02  0.18305439961E+03  0.13119647716E+03  0.22985524067E+03  0.00000000000E+00 0. -1.
         -4    1    6    6    0  503  0.10442846200E+02  0.44050092397E+02 -0.84653502096E+01  0.46055681855E+02  0.00000000000E+00 0.  1.
<mgrwt>
<rscale>  0 0.14177053E+04</rscale>
<asrwt>0</asrwt>
<pdfrwt beam="1">  1        2 0.64830851E+00 0.14177053E+04</pdfrwt>
<pdfrwt beam="2">  1       -1 0.18344399E-01 0.14177053E+04</pdfrwt>
<totfact> 0.61103922E+00</totfact>
</mgrwt>
</event>
<event>
12    7  0.1730932E-007  0.1449478E+04  0.7818608E-02  0.8918762E-01
          2   -1    0    0  501    0  0.00000000000E+00  0.00000000000E+00  0.12224129892E+04  0.12224129892E+04  0.00000000000E+00 0. -1.
         -1   -1    0    0    0  501 -0.00000000000E+00 -0.00000000000E+00 -0.42968037040E+03  0.42968037040E+03  0.00000000000E+00 0.  1.
         24    2    1    2    0    0 -0.19796064905E+03 -0.13523088150E+03  0.62772636194E+03  0.67617972327E+03  0.75517036550E+02 0.  0.
        254    2    1    2    0    0  0.19796064905E+03  0.13523088150E+03  0.16500625690E+03  0.97591363637E+03  0.93150660274E+03 0.  0.
         23    2    4    4    0    0  0.24546487923E+03 -0.17790393803E+02 -0.34517666930E+03  0.43360416034E+03  0.91083092734E+02 0.  0.
         23    2    4    4    0    0 -0.47504230178E+02  0.15302127531E+03  0.51018292621E+03  0.54230947604E+03  0.90226310035E+02 0.  0.
          4    1    3    3  502    0 -0.15963079889E+03 -0.95116126364E+02  0.38917659183E+03  0.43126266831E+03  0.00000000000E+00 0. -1.
         -3    1    3    3    0  502 -0.38329850158E+02 -0.40114755139E+02  0.23854977011E+03  0.24491705497E+03  0.00000000000E+00 0.  1.
         13    1    5    5    0    0  0.93869823425E+02 -0.14816744482E+01 -0.20923568559E+03  0.22933231616E+03  0.00000000000E+00 0.  1.
        -13    1    5    5    0    0  0.15159505580E+03 -0.16308719355E+02 -0.13594098371E+03  0.20427184418E+03  0.00000000000E+00 0. -1.
          3    1    6    6  503    0 -0.51568011970E+02  0.10621716923E+03  0.23338424276E+03  0.26155219683E+03  0.00000000000E+00 0. -1.
         -3    1    6    6    0  503  0.40637817917E+01  0.46804106072E+02  0.27679868344E+03  0.28075727920E+03  0.00000000000E+00 0.  1.
<mgrwt>
<rscale>  0 0.14494783E+04</rscale>
<asrwt>0</asrwt>
<pdfrwt beam="1">  1        2 0.18806353E+00 0.14494783E+04</pdfrwt>
<pdfrwt beam="2">  1       -1 0.66104673E-01 0.14494783E+04</pdfrwt>
<totfact> 0.47101842E+01</totfact>
</mgrwt>
</event>
<event>
12    7  0.1730932E-007  0.1387102E+04  0.7818608E-02  0.8963208E-01
          2   -1    0    0  501    0  0.00000000000E+00  0.00000000000E+00  0.10803562825E+04  0.10803562825E+04  0.00000000000E+00 0. -1.
         -1   -1    0    0    0  501 -0.00000000000E+00 -0.00000000000E+00 -0.44523561615E+03  0.44523561615E+03  0.00000000000E+00 0.  1.
         24    2    1    2    0    0  0.11167523963E+03 -0.12266331563E+03  0.57933340987E+03  0.60817378014E+03  0.82039617903E+02 0.  0.
        254    2    1    2    0    0 -0.11167523963E+03  0.12266331563E+03  0.55787256456E+02  0.91741811848E+03  0.90056989623E+03 0.  0.
         23    2    4    4    0    0  0.18330047211E+03 -0.31749812458E+03  0.32134525027E+02  0.37924625263E+03  0.91602239327E+02 0.  0.
         23    2    4    4    0    0 -0.29497571174E+03  0.44016144021E+03  0.23652731429E+02  0.53817186585E+03  0.91196170537E+02 0.  0.
          2    1    3    3  502    0  0.56094700172E+02 -0.88068470383E+02  0.46353851292E+03  0.47515326351E+03  0.00000000000E+00 0. -1.
         -1    1    3    3    0  502  0.55580539460E+02 -0.34594845246E+02  0.11579489695E+03  0.13302051663E+03  0.00000000000E+00 0.  1.
         13    1    5    5    0    0  0.98719712441E+02 -0.23992837532E+03  0.46525371117E+02  0.26358265699E+03  0.00000000000E+00 0. -1.
        -13    1    5    5    0    0  0.84580759665E+02 -0.77569749269E+02 -0.14390846091E+02  0.11566359565E+03  0.00000000000E+00 0.  1.
          3    1    6    6  503    0 -0.13712864864E+03  0.26395622733E+03 -0.17874165612E+02  0.29798765414E+03  0.00000000000E+00 0. -1.
         -3    1    6    6    0  503 -0.15784706309E+03  0.17620521288E+03  0.41526897041E+02  0.24018421171E+03  0.00000000000E+00 0.  1.
<mgrwt>
<rscale>  0 0.13871022E+04</rscale>
<asrwt>0</asrwt>
<pdfrwt beam="1">  1        2 0.16620866E+00 0.13871022E+04</pdfrwt>
<pdfrwt beam="2">  1       -1 0.68497788E-01 0.13871022E+04</pdfrwt>
<totfact> 0.53712355E+01</totfact>
</mgrwt>
</event>
<event>
12    7  0.1730932E-007  0.1542396E+04  0.7818608E-02  0.8856740E-01
         -1   -1    0    0    0  501 -0.00000000000E+00  0.00000000000E+00  0.23122897093E+03  0.23122897093E+03  0.00000000000E+00 0.  1.
          2   -1    0    0  501    0  0.00000000000E+00 -0.00000000000E+00 -0.25721090438E+04  0.25721090438E+04  0.00000000000E+00 0. -1.
         24    2    1    2    0    0 -0.19951300940E+03  0.31605669287E+03 -0.15569733063E+03  0.41247420085E+03  0.78714887913E+02 0.  0.
        254    2    1    2    0    0  0.19951300940E+03 -0.31605669287E+03 -0.21851827422E+04  0.23908638139E+04  0.89527028625E+03 0.  0.
         23    2    4    4    0    0  0.20026980878E+03 -0.21964203459E+03 -0.13900359435E+03  0.34040145415E+03  0.90556783737E+02 0.  0.
         23    2    4    4    0    0 -0.75679937730E+00 -0.96414658282E+02 -0.20461791479E+04  0.20504623597E+04  0.90831846139E+02 0.  0.
          4    1    3    3  502    0 -0.36077608743E+02  0.33200775567E+02 -0.47707339754E+02  0.68409616410E+02  0.00000000000E+00 0. -1.
         -3    1    3    3    0  502 -0.16343540066E+03  0.28285591730E+03 -0.10798999087E+03  0.34406458444E+03  0.00000000000E+00 0.  1.
         13    1    5    5    0    0 -0.34833718962E+01  0.54319269559E+01 -0.64541158973E+01  0.91266271008E+01  0.00000000000E+00 0.  1.
        -13    1    5    5    0    0  0.20375318067E+03 -0.22507396154E+03 -0.13254947845E+03  0.33127482705E+03  0.00000000000E+00 0. -1.
          4    1    6    6  503    0  0.59844981500E+00 -0.53110663222E+02 -0.17790427277E+04  0.17798354216E+04  0.00000000000E+00 0. -1.
         -4    1    6    6    0  503 -0.13552491923E+01 -0.43303995060E+02 -0.26713642013E+03  0.27062693815E+03  0.00000000000E+00 0.  1.
<mgrwt>
<rscale>  0 0.15423957E+04</rscale>
<asrwt>0</asrwt>
<pdfrwt beam="1">  1        2 0.39570906E+00 0.15423957E+04</pdfrwt>
<pdfrwt beam="2">  1       -1 0.35573690E-01 0.15423957E+04</pdfrwt>
<totfact> 0.26198638E+01</totfact>
</mgrwt>
</event>
<event>
12    7  0.1730932E-007  0.1329093E+04  0.7818608E-02  0.9006807E-01
         -1   -1    0    0    0  501 -0.00000000000E+00  0.00000000000E+00  0.11374443356E+04  0.11374443356E+04  0.00000000000E+00 0.  1.
          2   -1    0    0  501    0  0.00000000000E+00 -0.00000000000E+00 -0.38825803178E+03  0.38825803178E+03  0.00000000000E+00 0. -1.
         24    2    1    2    0    0  0.58344260241E+02 -0.10537916109E+03 -0.18671879304E+03  0.23550325642E+03  0.78032402337E+02 0.  0.
        254    2    1    2    0    0 -0.58344260241E+02  0.10537916109E+03  0.93590509685E+03  0.12901991109E+04  0.87987872760E+03 0.  0.
         23    2    4    4    0    0  0.53407507487E+02 -0.30031870164E+03  0.74445715728E+02  0.32718031500E+03  0.91984289553E+02 0.  0.
         23    2    4    4    0    0 -0.11175176773E+03  0.40569786273E+03  0.86145938112E+03  0.96301879595E+03  0.90629590102E+02 0.  0.
          4    1    3    3  502    0  0.58854187620E+02 -0.87635435934E+02 -0.94790430330E+02  0.14187674480E+03  0.00000000000E+00 0. -1.
         -3    1    3    3    0  502 -0.50992737911E+00 -0.17743725160E+02 -0.91928362710E+02  0.93626511624E+02  0.00000000000E+00 0.  1.
         13    1    5    5    0    0  0.25851041773E+02 -0.11750610969E+02  0.10897717107E+02  0.30415677816E+02  0.00000000000E+00 0.  1.
        -13    1    5    5    0    0  0.27556465714E+02 -0.28856809067E+03  0.63547998621E+02  0.29676463718E+03  0.00000000000E+00 0. -1.
          3    1    6    6  503    0 -0.96561219995E+02  0.31556544276E+03  0.58274655923E+03  0.66970080645E+03  0.00000000000E+00 0. -1.
         -3    1    6    6    0  503 -0.15190547733E+02  0.90132419968E+02  0.27871282190E+03  0.29331798949E+03  0.00000000000E+00 0.  1.
<mgrwt>
<rscale>  0 0.13290928E+04</rscale>
<asrwt>0</asrwt>
<pdfrwt beam="1">  1        2 0.59732005E-01 0.13290928E+04</pdfrwt>
<pdfrwt beam="2">  1       -1 0.17499144E+00 0.13290928E+04</pdfrwt>
<totfact> 0.20826305E+01</totfact>
</mgrwt>
</event>
<event>
12    7  0.1730932E-007  0.1613326E+04  0.7818608E-02  0.8812403E-01
          2   -1    0    0  501    0  0.00000000000E+00  0.00000000000E+00  0.14483474343E+04  0.14483474343E+04  0.00000000000E+00 0. -1.
         -1   -1    0    0    0  501 -0.00000000000E+00 -0.00000000000E+00 -0.44927418522E+03  0.44927418522E+03  0.00000000000E+00 0.  1.
         24    2    1    2    0    0 -0.17419604942E+03  0.47352089184E+03  0.59247706394E+03  0.78222995108E+03  0.79298968647E+02 0.  0.
        254    2    1    2    0    0  0.17419604942E+03 -0.47352089184E+03  0.40659618515E+03  0.11153916684E+04  0.90786112242E+03 0.  0.
         23    2    4    4    0    0  0.11339321169E+03  0.20023293920E+03  0.35314775037E+03  0.43124704696E+03  0.91156083312E+02 0.  0.
         23    2    4    4    0    0  0.60802837729E+02 -0.67375383104E+03  0.53448434787E+02  0.68414462148E+03  0.86924783630E+02 0.  0.
          4    1    3    3  502    0 -0.78197678286E+02  0.27251483240E+03  0.38245677855E+03  0.47608024347E+03  0.00000000000E+00 0. -1.
         -3    1    3    3    0  502 -0.95998371129E+02  0.20100605944E+03  0.21002028539E+03  0.30614970761E+03  0.00000000000E+00 0.  1.
         13    1    5    5    0    0  0.17476585067E+01  0.59804629917E+02  0.45707829934E+02  0.75291790967E+02  0.00000000000E+00 0. -1.
        -13    1    5    5    0    0  0.11164555318E+03  0.14042830928E+03  0.30743992043E+03  0.35595525599E+03  0.00000000000E+00 0.  1.
          3    1    6    6  503    0 -0.18087928632E+01 -0.27712298764E+02  0.19983940007E+02  0.34214048176E+02  0.00000000000E+00 0. -1.
         -3    1    6    6    0  503  0.62611630592E+02 -0.64604153228E+03  0.33464494780E+02  0.64993057331E+03  0.00000000000E+00 0.  1.
<mgrwt>
<rscale>  0 0.16133259E+04</rscale>
<asrwt>0</asrwt>
<pdfrwt beam="1">  1        2 0.22282268E+00 0.16133259E+04</pdfrwt>
<pdfrwt beam="2">  1       -1 0.69119106E-01 0.16133259E+04</pdfrwt>
<totfact> 0.31392802E+01</totfact>
</mgrwt>
</event>
<event>
12    7  0.1730932E-007  0.3125269E+04  0.7818608E-02  0.8208837E-01
          2   -1    0    0  501    0  0.00000000000E+00  0.00000000000E+00  0.17476768475E+04  0.17476768475E+04  0.00000000000E+00 0. -1.
         -1   -1    0    0    0  501 -0.00000000000E+00 -0.00000000000E+00 -0.13971842999E+04  0.13971842999E+04  0.00000000000E+00 0.  1.
         24    2    1    2    0    0 -0.46580128799E+02 -0.91179939890E+02  0.15953021865E+04  0.16005634021E+04  0.79565368370E+02 0.  0.
        254    2    1    2    0    0  0.46580128799E+02  0.91179939890E+02 -0.12448096390E+04  0.15442977454E+04  0.90819656422E+03 0.  0.
         23    2    4    4    0    0 -0.34800270190E+03  0.28437075852E+03 -0.72016068226E+03  0.85400181736E+03  0.93354629981E+02 0.  0.
         23    2    4    4    0    0  0.39458283070E+03 -0.19319081863E+03 -0.52464895672E+03  0.69029592802E+03  0.90739394829E+02 0.  0.
          4    1    3    3  502    0 -0.87941374270E+01 -0.80078346593E+02  0.13203069100E+04  0.13227623426E+04  0.00000000000E+00 0. -1.
         -3    1    3    3    0  502 -0.37785991372E+02 -0.11101593296E+02  0.27499527655E+03  0.27780105947E+03  0.00000000000E+00 0.  1.
         13    1    5    5    0    0 -0.75526156397E+02  0.71992830422E+02 -0.24708643080E+03  0.26821422822E+03  0.00000000000E+00 0.  1.
        -13    1    5    5    0    0 -0.27247654551E+03  0.21237792810E+03 -0.47307425146E+03  0.58578758914E+03  0.00000000000E+00 0. -1.
          3    1    6    6  503    0  0.23939115276E+03 -0.13562249012E+03 -0.38800216861E+03  0.47565456657E+03  0.00000000000E+00 0. -1.
         -3    1    6    6    0  503  0.15519167794E+03 -0.57568328514E+02 -0.13664678810E+03  0.21464136146E+03  0.00000000000E+00 0.  1.
<mgrwt>
<rscale>  0 0.31252690E+04</rscale>
<asrwt>0</asrwt>
<pdfrwt beam="1">  1        2 0.26887336E+00 0.31252690E+04</pdfrwt>
<pdfrwt beam="2">  1       -1 0.21495143E+00 0.31252690E+04</pdfrwt>
<totfact> 0.10586688E+00</totfact>
</mgrwt>
</event>
<event>
12    7  0.1730932E-007  0.3336988E+04  0.7818608E-02  0.8153547E-01
          2   -1    0    0  501    0  0.00000000000E+00  0.00000000000E+00  0.19341990918E+04  0.19341990918E+04  0.00000000000E+00 0. -1.
         -1   -1    0    0    0  501 -0.00000000000E+00 -0.00000000000E+00 -0.14392892195E+04  0.14392892195E+04  0.00000000000E+00 0.  1.
         24    2    1    2    0    0  0.11543124827E+04 -0.15846794385E+03  0.12564729627E+04  0.17153935469E+04  0.79380840631E+02 0.  0.
        254    2    1    2    0    0 -0.11543124827E+04  0.15846794385E+03 -0.76156309047E+03  0.16580947644E+04  0.90097198067E+03 0.  0.
         23    2    4    4    0    0 -0.11385119331E+04 -0.14693459303E+03 -0.62275267455E+03  0.13091947865E+04  0.91492616812E+02 0.  0.
         23    2    4    4    0    0 -0.15800549519E+02  0.30540253688E+03 -0.13881041592E+03  0.34889997781E+03  0.94564771697E+02 0.  0.
          4    1    3    3  502    0  0.11179440669E+04 -0.15935128075E+03  0.11964010855E+04  0.16451648321E+04  0.00000000000E+00 0. -1.
         -3    1    3    3    0  502  0.36368415757E+02  0.88333690078E+00  0.60071877285E+02  0.70228714849E+02  0.00000000000E+00 0.  1.
         13    1    5    5    0    0 -0.97220578657E+03 -0.15657892550E+03 -0.54260783035E+03  0.11243328284E+04  0.00000000000E+00 0. -1.
        -13    1    5    5    0    0 -0.16630614657E+03  0.96443324763E+01 -0.80144844204E+02  0.18486195820E+03  0.00000000000E+00 0.  1.
          2    1    6    6  503    0 -0.15373418706E+02  0.31180835264E+03 -0.14037027655E+03  0.34229315698E+03  0.00000000000E+00 0. -1.
         -2    1    6    6    0  503 -0.42713081354E+00 -0.64058157582E+01  0.15598606230E+01  0.66068208257E+01  0.00000000000E+00 0.  1.
<mgrwt>
<rscale>  0 0.33369878E+04</rscale>
<asrwt>0</asrwt>
<pdfrwt beam="1">  1        2 0.29756909E+00 0.33369878E+04</pdfrwt>
<pdfrwt beam="2">  1       -1 0.22142911E+00 0.33369878E+04</pdfrwt>
<totfact> 0.74122747E-01</totfact>
</mgrwt>
</event>
<event>
12    7  0.1730932E-007  0.1904529E+04  0.7818608E-02  0.8652605E-01
          4   -1    0    0  501    0  0.00000000000E+00  0.00000000000E+00  0.52362268108E+03  0.52362268108E+03  0.00000000000E+00 0. -1.
         -3   -1    0    0    0  501 -0.00000000000E+00 -0.00000000000E+00 -0.17317965239E+04  0.17317965239E+04  0.00000000000E+00 0.  1.
         24    2    1    2    0    0 -0.13213557691E+03 -0.19068756591E+03 -0.12864189479E+04  0.13096182156E+04  0.80028761673E+02 0.  0.
        254    2    1    2    0    0  0.13213557691E+03  0.19068756591E+03  0.78245105033E+02  0.94580098940E+03  0.91356207048E+03 0.  0.
         23    2    4    4    0    0 -0.56254238600E+01 -0.32608151702E+03  0.19477916878E+03  0.39075995561E+03  0.91616686157E+02 0.  0.
         23    2    4    4    0    0  0.13776100077E+03  0.51676908292E+03 -0.11653406375E+03  0.55504103380E+03  0.91989036227E+02 0.  0.
          2    1    3    3  502    0 -0.19464168042E+02 -0.52538847549E+02 -0.16840427243E+03  0.17748009272E+03  0.00000000000E+00 0. -1.
         -1    1    3    3    0  502 -0.11267140887E+03 -0.13814871836E+03 -0.11180146754E+04  0.11321381229E+04  0.00000000000E+00 0.  1.
         13    1    5    5    0    0 -0.44434942832E+02 -0.23571466099E+03  0.12799332291E+03  0.27187893677E+03  0.00000000000E+00 0.  1.
        -13    1    5    5    0    0  0.38809518972E+02 -0.90366856026E+02  0.66785845877E+02  0.11888101884E+03  0.00000000000E+00 0. -1.
          3    1    6    6  503    0  0.42512114319E+02  0.51064355270E+02 -0.24820240879E+02  0.70928785414E+02  0.00000000000E+00 0. -1.
         -3    1    6    6    0  503  0.95248886448E+02  0.46570472765E+03 -0.91713822871E+02  0.48411224838E+03  0.00000000000E+00 0.  1.
<mgrwt>
<rscale>  0 0.19045293E+04</rscale>
<asrwt>0</asrwt>
<pdfrwt beam="1">  1        4 0.80557336E-01 0.19045293E+04</pdfrwt>
<pdfrwt beam="2">  1       -3 0.26643023E+00 0.19045293E+04</pdfrwt>
<totfact> 0.17236854E-01</totfact>
</mgrwt>
</event>
<event>
12    7  0.3012018E-007  0.2757257E+04  0.7818608E-02  0.8316663E-01
         -1   -1    0    0    0  501 -0.00000000000E+00  0.00000000000E+00  0.86534849663E+03  0.86534849663E+03  0.00000000000E+00 0.  1.
          2   -1    0    0  501    0  0.00000000000E+00 -0.00000000000E+00 -0.21963591264E+04  0.21963591264E+04  0.00000000000E+00 0. -1.
         24    2    1    2    0    0  0.41988816672E+02  0.87458849610E+03 -0.15509618682E+04  0.17828478972E+04  0.79973804807E+02 0.  0.
        254    2    1    2    0    0 -0.41988816672E+02 -0.87458849610E+03  0.21995123846E+03  0.12788597259E+04  0.90577897576E+03 0.  0.
         23    2    4    4    0    0 -0.13907791993E+03 -0.68210823769E+03  0.53780507513E+03  0.88453310523E+03  0.92467289746E+02 0.  0.
         23    2    4    4    0    0  0.97089103261E+02 -0.19248025841E+03 -0.31785383667E+03  0.39432662065E+03  0.89372693905E+02 0.  0.
          2    1    3    3  502    0  0.21874456214E+02  0.82574976487E+03 -0.14696719382E+04  0.16859053271E+04  0.00000000000E+00 0. -1.
         -1    1    3    3    0  502  0.20114360458E+02  0.48838731229E+02 -0.81289930072E+02  0.96942570091E+02  0.00000000000E+00 0.  1.
         13    1    5    5    0    0 -0.28298174338E+01 -0.22269433078E+03  0.15769536221E+03  0.27288935503E+03  0.00000000000E+00 0.  1.
        -13    1    5    5    0    0 -0.13624810250E+03 -0.45941390691E+03  0.38010971292E+03  0.61164375020E+03  0.00000000000E+00 0. -1.
          3    1    6    6  503    0 -0.12024429069E+02 -0.31637779863E+00 -0.11961611039E+02  0.16963700303E+02  0.00000000000E+00 0.  1.
         -3    1    6    6    0  503  0.10911353233E+03 -0.19216388061E+03 -0.30589222563E+03  0.37736292034E+03  0.00000000000E+00 0. -1.
<mgrwt>
<rscale>  0 0.27572567E+04</rscale>
<asrwt>0</asrwt>
<pdfrwt beam="1">  1        2 0.33790140E+00 0.27572567E+04</pdfrwt>
<pdfrwt beam="2">  1       -1 0.13313054E+00 0.27572567E+04</pdfrwt>
<totfact> 0.24594181E+00</totfact>
</mgrwt>
</event>
<event>
12    7  0.1730932E-007  0.2160332E+04  0.7818608E-02  0.8535123E-01
         -1   -1    0    0    0  501 -0.00000000000E+00  0.00000000000E+00  0.35548291969E+03  0.35548291969E+03  0.00000000000E+00 0.  1.
          2   -1    0    0  501    0  0.00000000000E+00 -0.00000000000E+00 -0.32821775206E+04  0.32821775206E+04  0.00000000000E+00 0. -1.
         24    2    1    2    0    0  0.58824169947E+03 -0.19208583173E+03 -0.22884083930E+04  0.23719525003E+04  0.80127567200E+02 0.  0.
        254    2    1    2    0    0 -0.58824169947E+03  0.19208583173E+03 -0.63828620791E+03  0.12657079399E+04  0.90093398330E+03 0.  0.
         23    2    4    4    0    0 -0.64414604772E+03  0.10102475261E+03 -0.49035714328E+02  0.66020575834E+03  0.91307232054E+02 0.  0.
         23    2    4    4    0    0  0.55904348249E+02  0.91061079117E+02 -0.58925049358E+03  0.60550218160E+03  0.89438981757E+02 0.  0.
          4    1    3    3  502    0  0.20772502141E+03 -0.10287595552E+03 -0.92825661438E+03  0.95676198132E+03  0.00000000000E+00 0. -1.
         -3    1    3    3    0  502  0.38051667807E+03 -0.89209876207E+02 -0.13601517786E+04  0.14151905190E+04  0.00000000000E+00 0.  1.
         13    1    5    5    0    0 -0.64502038251E+03  0.94749487118E+02 -0.47405745358E+02  0.65366357085E+03  0.00000000000E+00 0.  1.
        -13    1    5    5    0    0  0.87433478367E+00  0.62752654940E+01 -0.16299689707E+01  0.65421874919E+01  0.00000000000E+00 0. -1.
          3    1    6    6  503    0  0.26284419326E+02  0.10381450631E+03 -0.45499515804E+03  0.46742797975E+03  0.00000000000E+00 0.  1.
         -3    1    6    6    0  503  0.29619928924E+02 -0.12753427189E+02 -0.13425533554E+03  0.13807420185E+03  0.00000000000E+00 0. -1.
<mgrwt>
<rscale>  0 0.21603315E+04</rscale>
<asrwt>0</asrwt>
<pdfrwt beam="1">  1        2 0.50495039E+00 0.21603315E+04</pdfrwt>
<pdfrwt beam="2">  1       -1 0.54689680E-01 0.21603315E+04</pdfrwt>
<totfact> 0.40459385E+00</totfact>
</mgrwt>
</event>
<event>
12    7  0.1730932E-007  0.1622018E+04  0.7818608E-02  0.8807135E-01
         -1   -1    0    0    0  501 -0.00000000000E+00  0.00000000000E+00  0.52401477496E+03  0.52401477496E+03  0.00000000000E+00 0.  1.
          2   -1    0    0  501    0  0.00000000000E+00 -0.00000000000E+00 -0.12551844759E+04  0.12551844759E+04  0.00000000000E+00 0. -1.
         24    2    1    2    0    0  0.27877698814E+03  0.40169961115E+02 -0.75807932731E+03  0.81249836095E+03  0.78352314331E+02 0.  0.
        254    2    1    2    0    0 -0.27877698814E+03 -0.40169961115E+02  0.26909626358E+02  0.96670088992E+03  0.92436802611E+03 0.  0.
         23    2    4    4    0    0 -0.52584758106E+03 -0.28090890723E+03 -0.42583300058E+02  0.60453510476E+03  0.90685515827E+02 0.  0.
         23    2    4    4    0    0  0.24707059292E+03  0.24073894612E+03  0.69492926416E+02  0.36216578516E+03  0.85648532108E+02 0.  0.
          4    1    3    3  502    0  0.26331737291E+03  0.20144922855E+02 -0.65218956624E+03  0.70362851499E+03  0.00000000000E+00 0. -1.
         -3    1    3    3    0  502  0.15459615228E+02  0.20025038260E+02 -0.10588976106E+03  0.10886984596E+03  0.00000000000E+00 0.  1.
         13    1    5    5    0    0 -0.11869366070E+03 -0.95613271786E+02 -0.38413749666E+02  0.15718046633E+03  0.00000000000E+00 0. -1.
        -13    1    5    5    0    0 -0.40715392036E+03 -0.18529563545E+03 -0.41695503919E+01  0.44735463844E+03  0.00000000000E+00 0.  1.
          4    1    6    6  503    0  0.20897208529E+03  0.19207201156E+03  0.22880624293E+02  0.28475342495E+03  0.00000000000E+00 0. -1.
         -4    1    6    6    0  503  0.38098507632E+02  0.48666934554E+02  0.46612302123E+02  0.77412360201E+02  0.00000000000E+00 0.  1.
<mgrwt>
<rscale>  0 0.16220175E+04</rscale>
<asrwt>0</asrwt>
<pdfrwt beam="1">  1        2 0.19310530E+00 0.16220175E+04</pdfrwt>
<pdfrwt beam="2">  1       -1 0.80617659E-01 0.16220175E+04</pdfrwt>
<totfact> 0.29418246E+01</totfact>
</mgrwt>
</event>
<event>
12    7  0.1730932E-007  0.1982666E+04  0.7818608E-02  0.8614768E-01
         -1   -1    0    0    0  501 -0.00000000000E+00  0.00000000000E+00  0.14204981673E+04  0.14204981673E+04  0.00000000000E+00 0.  1.
          2   -1    0    0  501    0  0.00000000000E+00 -0.00000000000E+00 -0.69182859805E+03  0.69182859805E+03  0.00000000000E+00 0. -1.
         24    2    1    2    0    0  0.26468050798E+03 -0.72450889532E+03  0.12385680936E+03  0.78542355329E+03  0.81121748869E+02 0.  0.
        254    2    1    2    0    0 -0.26468050798E+03  0.72450889532E+03  0.60481275993E+03  0.13269032121E+04  0.89437394248E+03 0.  0.
         23    2    4    4    0    0 -0.30624575034E+02  0.81486094303E+03  0.20505071972E+03  0.84568085658E+03  0.90521226526E+02 0.  0.
         23    2    4    4    0    0 -0.23405593295E+03 -0.90352047715E+02  0.39976204021E+03  0.48122235551E+03  0.93912695485E+02 0.  0.
          4    1    3    3  502    0  0.12384197698E+03 -0.38059106456E+03  0.10261792226E+03  0.41317893419E+03  0.00000000000E+00 0. -1.
         -3    1    3    3    0  502  0.14083853100E+03 -0.34391783076E+03  0.21238887096E+02  0.37224461911E+03  0.00000000000E+00 0.  1.
         13    1    5    5    0    0 -0.37584374630E+02  0.17992169985E+03  0.68730905557E+02  0.19623542155E+03  0.00000000000E+00 0.  1.
        -13    1    5    5    0    0  0.69597995964E+01  0.63493924319E+03  0.13631981416E+03  0.64944543503E+03  0.00000000000E+00 0. -1.
          3    1    6    6  503    0 -0.19149586869E+03 -0.32858327465E+02  0.26427877473E+03  0.32801464629E+03  0.00000000000E+00 0. -1.
         -3    1    6    6    0  503 -0.42560064256E+02 -0.57493720250E+02  0.13548326548E+03  0.15320770922E+03  0.00000000000E+00 0.  1.
<mgrwt>
<rscale>  0 0.19826661E+04</rscale>
<asrwt>0</asrwt>
<pdfrwt beam="1">  1        2 0.10643517E+00 0.19826661E+04</pdfrwt>
<pdfrwt beam="2">  1       -1 0.21853818E+00 0.19826661E+04</pdfrwt>
<totfact> 0.49713855E+00</totfact>
</mgrwt>
</event>
<event>
12    7  0.1730932E-007  0.1928471E+04  0.7818608E-02  0.8640813E-01
          2   -1    0    0  501    0  0.00000000000E+00  0.00000000000E+00  0.38664751605E+04  0.38664751605E+04  0.00000000000E+00 0. -1.
         -1   -1    0    0    0  501 -0.00000000000E+00 -0.00000000000E+00 -0.24046458787E+03  0.24046458787E+03  0.00000000000E+00 0.  1.
         24    2    1    2    0    0  0.27437697700E+03  0.40333256385E+03  0.26297808335E+04  0.26758591936E+04  0.80717467481E+02 0.  0.
        254    2    1    2    0    0 -0.27437697700E+03 -0.40333256385E+03  0.99622973915E+03  0.14310805547E+04  0.90418912755E+03 0.  0.
         23    2    4    4    0    0  0.87079448765E+02 -0.43994673664E+03  0.11305080979E+03  0.47148240345E+03  0.91538023192E+02 0.  0.
         23    2    4    4    0    0 -0.36145642576E+03  0.36614172786E+02  0.88317892936E+03  0.95959815128E+03  0.93980026052E+02 0.  0.
          2    1    3    3  502    0  0.27753821342E+03  0.37817251197E+03  0.24943700466E+04  0.25380945290E+04  0.00000000000E+00 0. -1.
         -1    1    3    3    0  502 -0.31612364210E+01  0.25160051887E+02  0.13541078688E+03  0.13776466466E+03  0.00000000000E+00 0.  1.
         13    1    5    5    0    0  0.10109619470E+03 -0.40735778100E+03  0.90241230757E+02  0.42930674588E+03  0.00000000000E+00 0.  1.
        -13    1    5    5    0    0 -0.14016745932E+02 -0.32588955636E+02  0.22809579033E+02  0.42175657571E+02  0.00000000000E+00 0. -1.
          4    1    6    6  503    0 -0.19579129093E+03 -0.24514144808E+02  0.50667529707E+03  0.54374169379E+03  0.00000000000E+00 0. -1.
         -4    1    6    6    0  503 -0.16566513483E+03  0.61128317593E+02  0.37650363229E+03  0.41585645749E+03  0.00000000000E+00 0.  1.
<mgrwt>
<rscale>  0 0.19284713E+04</rscale>
<asrwt>0</asrwt>
<pdfrwt beam="1">  1        2 0.59484229E+00 0.19284713E+04</pdfrwt>
<pdfrwt beam="2">  1       -1 0.36994555E-01 0.19284713E+04</pdfrwt>
<totfact> 0.32946199E+00</totfact>
</mgrwt>
</event>
<event>
12    7  0.1730932E-007  0.2651520E+04  0.7818608E-02  0.8350908E-01
         -1   -1    0    0    0  501 -0.00000000000E+00  0.00000000000E+00  0.94796821924E+03  0.94796821924E+03  0.00000000000E+00 0.  1.
          2   -1    0    0  501    0  0.00000000000E+00 -0.00000000000E+00 -0.18541130077E+04  0.18541130077E+04  0.00000000000E+00 0. -1.
         24    2    1    2    0    0 -0.21758995602E+03  0.82395088486E+02 -0.16170628109E+04  0.16355198441E+04  0.76802907692E+02 0.  0.
        254    2    1    2    0    0  0.21758995602E+03 -0.82395088486E+02  0.71091802241E+03  0.11665613828E+04  0.89516852366E+03 0.  0.
         23    2    4    4    0    0  0.47925925419E+03  0.20172540661E+03  0.39872767874E+03  0.66171526542E+03  0.92199556884E+02 0.  0.
         23    2    4    4    0    0 -0.26166929818E+03 -0.28412049510E+03  0.31219034367E+03  0.50484611741E+03  0.90617405827E+02 0.  0.
          2    1    3    3  502    0 -0.17250537002E+03  0.68988877939E+02 -0.14535817259E+04  0.14654069066E+04  0.00000000000E+00 0. -1.
         -1    1    3    3    0  502 -0.45084585998E+02  0.13406210547E+02 -0.16348108497E+03  0.17011293754E+03  0.00000000000E+00 0.  1.
         13    1    5    5    0    0  0.41947179334E+02  0.49300738378E+02  0.55697257999E+02  0.85395042053E+02  0.00000000000E+00 0. -1.
        -13    1    5    5    0    0  0.43731207486E+03  0.15242466823E+03  0.34303042074E+03  0.57632022337E+03  0.00000000000E+00 0.  1.
          4    1    6    6  503    0 -0.14452583015E+03 -0.90934650518E+02  0.12990952259E+03  0.21455374689E+03  0.00000000000E+00 0. -1.
         -4    1    6    6    0  503 -0.11714346803E+03 -0.19318584458E+03  0.18228082107E+03  0.29029237051E+03  0.00000000000E+00 0.  1.
<mgrwt>
<rscale>  0 0.26515205E+04</rscale>
<asrwt>0</asrwt>
<pdfrwt beam="1">  1        2 0.28524815E+00 0.26515205E+04</pdfrwt>
<pdfrwt beam="2">  1       -1 0.14584126E+00 0.26515205E+04</pdfrwt>
<totfact> 0.30368131E+00</totfact>
</mgrwt>
</event>
<event>
12    7  0.1730932E-007  0.1493213E+04  0.7818608E-02  0.8888979E-01
          2   -1    0    0  501    0  0.00000000000E+00  0.00000000000E+00  0.28618974788E+03  0.28618974788E+03  0.00000000000E+00 0. -1.
         -1   -1    0    0    0  501 -0.00000000000E+00 -0.00000000000E+00 -0.19477329546E+04  0.19477329546E+04  0.00000000000E+00 0.  1.
         24    2    1    2    0    0  0.12385427929E+02 -0.12330357052E+03  0.14469525371E+03  0.20608360677E+03  0.78591139489E+02 0.  0.
        254    2    1    2    0    0 -0.12385427929E+02  0.12330357052E+03 -0.18062384605E+04  0.20278390958E+04  0.91338756991E+03 0.  0.
         23    2    4    4    0    0 -0.14392716782E+02 -0.37883616561E+03 -0.57435111593E+03  0.69432635261E+03  0.92118884508E+02 0.  0.
         23    2    4    4    0    0  0.20072888538E+01  0.50213973614E+03 -0.12318873445E+04  0.13335127431E+04  0.92528172353E+02 0.  0.
          4    1    3    3  502    0  0.42574813283E+02 -0.50804794486E+02  0.49810000903E+02  0.82914281392E+02  0.00000000000E+00 0. -1.
         -1    1    3    3    0  502 -0.30189385354E+02 -0.72498776038E+02  0.94885252803E+02  0.12316932538E+03  0.00000000000E+00 0.  1.
         13    1    5    5    0    0 -0.67110942577E+00 -0.37037945850E+03 -0.52568102618E+03  0.64305671207E+03  0.00000000000E+00 0.  1.
        -13    1    5    5    0    0 -0.13721607357E+02 -0.84567071182E+01 -0.48670089755E+02  0.51269640534E+02  0.00000000000E+00 0. -1.
          4    1    6    6  503    0 -0.17621085892E+02  0.13521507298E+03 -0.43751983310E+03  0.45827636093E+03  0.00000000000E+00 0. -1.
         -4    1    6    6    0  503  0.19628374746E+02  0.36692466316E+03 -0.79436751144E+03  0.87523638221E+03  0.00000000000E+00 0.  1.
<mgrwt>
<rscale>  0 0.14932129E+04</rscale>
<asrwt>0</asrwt>
<pdfrwt beam="1">  1        2 0.44029190E-01 0.14932129E+04</pdfrwt>
<pdfrwt beam="2">  1       -1 0.29965124E+00 0.14932129E+04</pdfrwt>
<totfact> 0.42642035E+00</totfact>
</mgrwt>
</event>
<event>
12    7  0.1730932E-007  0.1290690E+04  0.7818608E-02  0.9036981E-01
         -1   -1    0    0    0  501 -0.00000000000E+00  0.00000000000E+00  0.39887055879E+03  0.39887055879E+03  0.00000000000E+00 0.  1.
          2   -1    0    0  501    0  0.00000000000E+00 -0.00000000000E+00 -0.10441240102E+04  0.10441240102E+04  0.00000000000E+00 0. -1.
         24    2    1    2    0    0  0.20427266197E+03  0.19336729669E+02 -0.47122087856E+03  0.51944235838E+03  0.75299520197E+02 0.  0.
        254    2    1    2    0    0 -0.20427266197E+03 -0.19336729669E+02 -0.17403257286E+03  0.92355221061E+03  0.88349313510E+03 0.  0.
         23    2    4    4    0    0 -0.52886884411E+03 -0.12387518666E+03 -0.67692079009E+02  0.55496283457E+03  0.91401389759E+02 0.  0.
         23    2    4    4    0    0  0.32459618214E+03  0.10453845699E+03 -0.10634049385E+03  0.36858937605E+03  0.90878254009E+02 0.  0.
          4    1    3    3  502    0  0.18498241023E+03  0.61726579708E+01 -0.45443744403E+03  0.49068318122E+03  0.00000000000E+00 0. -1.
         -3    1    3    3    0  502  0.19290251740E+02  0.13164071698E+02 -0.16783434535E+02  0.28759177155E+02  0.00000000000E+00 0.  1.
         13    1    5    5    0    0 -0.91070935806E+02 -0.45666262844E+02  0.13863814274E+02  0.10281793743E+03  0.00000000000E+00 0.  1.
        -13    1    5    5    0    0 -0.43779790831E+03 -0.78208923817E+02 -0.81555893283E+02  0.45214489714E+03  0.00000000000E+00 0. -1.
          4    1    6    6  503    0  0.26704482855E+03  0.12050661100E+03 -0.93116001005E+02  0.30741726269E+03  0.00000000000E+00 0. -1.
         -4    1    6    6    0  503  0.57551353584E+02 -0.15968154013E+02 -0.13224492846E+02  0.61172113360E+02  0.00000000000E+00 0.  1.
<mgrwt>
<rscale>  0 0.12906902E+04</rscale>
<asrwt>0</asrwt>
<pdfrwt beam="1">  1        2 0.16063446E+00 0.12906902E+04</pdfrwt>
<pdfrwt beam="2">  1       -1 0.61364702E-01 0.12906902E+04</pdfrwt>
<totfact> 0.71140208E+01</totfact>
</mgrwt>
</event>
<event>
12    7  0.1730932E-007  0.1559770E+04  0.7818608E-02  0.8845651E-01
         -1   -1    0    0    0  501 -0.00000000000E+00  0.00000000000E+00  0.64496163623E+03  0.64496163623E+03  0.00000000000E+00 0.  1.
          2   -1    0    0  501    0  0.00000000000E+00 -0.00000000000E+00 -0.94303398144E+03  0.94303398144E+03  0.00000000000E+00 0. -1.
         24    2    1    2    0    0 -0.29619679834E+03 -0.17835949777E+03  0.27756365639E+03  0.45060477730E+03  0.80364346466E+02 0.  0.
        254    2    1    2    0    0  0.29619679834E+03  0.17835949777E+03 -0.57563600161E+03  0.11373908404E+04  0.91801768154E+03 0.  0.
         23    2    4    4    0    0  0.12208953663E+03 -0.11238977775E+03 -0.73004240221E+03  0.75413482875E+03  0.90664843280E+02 0.  0.
         23    2    4    4    0    0  0.17410726171E+03  0.29074927552E+03  0.15440640060E+03  0.38325601162E+03  0.90528195069E+02 0.  0.
          4    1    3    3  502    0  0.21993350311E+01 -0.11932951028E+02  0.17148259159E+02  0.21007027086E+02  0.00000000000E+00 0. -1.
         -3    1    3    3    0  502 -0.29839613337E+03 -0.16642654674E+03  0.26041539723E+03  0.42959775021E+03  0.00000000000E+00 0.  1.
         13    1    5    5    0    0  0.73975690069E+01 -0.44099957371E+02 -0.31493462527E+03  0.31809330150E+03  0.00000000000E+00 0. -1.
        -13    1    5    5    0    0  0.11469196762E+03 -0.68289820383E+02 -0.41510777694E+03  0.43604152725E+03  0.00000000000E+00 0.  1.
          1    1    6    6  503    0  0.10857626377E+03  0.13501043962E+03  0.12019362318E+03  0.21086282488E+03  0.00000000000E+00 0. -1.
         -1    1    6    6    0  503  0.65530997940E+02  0.15573883590E+03  0.34212777422E+02  0.17239318675E+03  0.00000000000E+00 0.  1.
<mgrwt>
<rscale>  0 0.15597702E+04</rscale>
<asrwt>0</asrwt>
<pdfrwt beam="1">  1        2 0.14508215E+00 0.15597702E+04</pdfrwt>
<pdfrwt beam="2">  1       -1 0.99224867E-01 0.15597702E+04</pdfrwt>
<totfact> 0.29228861E+01</totfact>
</mgrwt>
</event>
<event>
12    7  0.1730932E-007  0.1320034E+04  0.7818608E-02  0.9013827E-01
         -1   -1    0    0    0  501 -0.00000000000E+00  0.00000000000E+00  0.31311472067E+03  0.31311472067E+03  0.00000000000E+00 0.  1.
          2   -1    0    0  501    0  0.00000000000E+00 -0.00000000000E+00 -0.13912560168E+04  0.13912560168E+04  0.00000000000E+00 0. -1.
         24    2    1    2    0    0  0.33613217789E+03 -0.28121717815E+02 -0.25633560131E+03  0.43098230844E+03  0.79133669579E+02 0.  0.
        254    2    1    2    0    0 -0.33613217789E+03  0.28121717815E+02 -0.82180569485E+03  0.12733884291E+04  0.91234742239E+03 0.  0.
         23    2    4    4    0    0 -0.44732914105E+03 -0.20734618653E+03 -0.85827463440E+03  0.99439593913E+03  0.95352683297E+02 0.  0.
         23    2    4    4    0    0  0.11119696316E+03  0.23546790435E+03  0.36468939549E+02  0.27899248993E+03  0.93257317619E+02 0.  0.
          2    1    3    3  502    0  0.21718901123E+02 -0.12816618328E+02 -0.30283059521E+00  0.25220390119E+02  0.00000000000E+00 0. -1.
         -1    1    3    3    0  502  0.31441327677E+03 -0.15305099486E+02 -0.25603277072E+03  0.40576191832E+03  0.00000000000E+00 0.  1.
         13    1    5    5    0    0 -0.95440466779E+02 -0.18946220737E+02 -0.11427958044E+03  0.15009218662E+03  0.00000000000E+00 0.  1.
        -13    1    5    5    0    0 -0.35188867427E+03 -0.18839996579E+03 -0.74399505396E+03  0.84430375251E+03  0.00000000000E+00 0. -1.
          2    1    6    6  503    0  0.57325548230E+02  0.33058356660E+02  0.18797083685E+02  0.68792468919E+02  0.00000000000E+00 0.  1.
         -2    1    6    6    0  503  0.53871414930E+02  0.20240954769E+03  0.17671855864E+02  0.21020002101E+03  0.00000000000E+00 0. -1.
<mgrwt>
<rscale>  0 0.13200345E+04</rscale>
<asrwt>0</asrwt>
<pdfrwt beam="1">  1        2 0.21403939E+00 0.13200345E+04</pdfrwt>
<pdfrwt beam="2">  1       -1 0.48171494E-01 0.13200345E+04</pdfrwt>
<totfact> 0.70337148E+01</totfact>
</mgrwt>
</event>
<event>
12    7  0.1730932E-007  0.2246143E+04  0.7818608E-02  0.8499464E-01
         -1   -1    0    0    0  501 -0.00000000000E+00  0.00000000000E+00  0.93023120460E+03  0.93023120460E+03  0.00000000000E+00 0.  1.
          2   -1    0    0  501    0  0.00000000000E+00 -0.00000000000E+00 -0.13558879650E+04  0.13558879650E+04  0.00000000000E+00 0. -1.
         24    2    1    2    0    0 -0.85337786752E+03 -0.37278957408E+03 -0.19252519396E+03  0.95434658169E+03  0.80533200265E+02 0.  0.
        254    2    1    2    0    0  0.85337786752E+03  0.37278957408E+03 -0.23313156640E+03  0.13317725879E+04  0.92306123698E+03 0.  0.
         23    2    4    4    0    0  0.50694057174E+03  0.10764362557E+03  0.32472930025E+03  0.61751716086E+03  0.85454269121E+02 0.  0.
         23    2    4    4    0    0  0.34643729579E+03  0.26514594851E+03 -0.55786086665E+03  0.71425542701E+03  0.92902607893E+02 0.  0.
          2    1    3    3  502    0 -0.75028201300E+03 -0.34334052138E+03 -0.14813675210E+03  0.83830203982E+03  0.00000000000E+00 0. -1.
         -1    1    3    3    0  502 -0.10309585453E+03 -0.29449052705E+02 -0.44388441864E+02  0.11604454187E+03  0.00000000000E+00 0.  1.
         13    1    5    5    0    0  0.12208811990E+03  0.27210811606E+02  0.12376835307E+03  0.17596744730E+03  0.00000000000E+00 0. -1.
        -13    1    5    5    0    0  0.38485245183E+03  0.80432813966E+02  0.20096094719E+03  0.44154971355E+03  0.00000000000E+00 0.  1.
          4    1    6    6  503    0  0.90796327905E+02  0.22726172010E+02 -0.10998835111E+03  0.14442260708E+03  0.00000000000E+00 0. -1.
         -4    1    6    6    0  503  0.25564096788E+03  0.24241977650E+03 -0.44787251554E+03  0.56983281994E+03  0.00000000000E+00 0.  1.
<mgrwt>
<rscale>  0 0.22461427E+04</rscale>
<asrwt>0</asrwt>
<pdfrwt beam="1">  1        2 0.20859815E+00 0.22461427E+04</pdfrwt>
<pdfrwt beam="2">  1       -1 0.14311249E+00 0.22461427E+04</pdfrwt>
<totfact> 0.62978726E+00</totfact>
</mgrwt>
</event>
<event>
12    7  0.1730932E-007  0.1621680E+04  0.7818608E-02  0.8807339E-01
          2   -1    0    0  501    0  0.00000000000E+00  0.00000000000E+00  0.13620769261E+04  0.13620769261E+04  0.00000000000E+00 0. -1.
         -1   -1    0    0    0  501 -0.00000000000E+00 -0.00000000000E+00 -0.48269053069E+03  0.48269053069E+03  0.00000000000E+00 0.  1.
         24    2    1    2    0    0 -0.22192558073E+03  0.48816320737E+03  0.32172653791E+02  0.54305198408E+03  0.79473878419E+02 0.  0.
        254    2    1    2    0    0  0.22192558073E+03 -0.48816320737E+03  0.84721374159E+03  0.13017154727E+04  0.83014322105E+03 0.  0.
         23    2    4    4    0    0 -0.24130077741E+02 -0.21125235236E+03 -0.12095195864E+03  0.26125677538E+03  0.91738265497E+02 0.  0.
         23    2    4    4    0    0  0.24605565847E+03 -0.27691085501E+03  0.96816570023E+03  0.10404586973E+04  0.89367046443E+02 0.  0.
          2    1    3    3  502    0 -0.15607626926E+03  0.30554020590E+03  0.55384250414E+02  0.34753709794E+03  0.00000000000E+00 0. -1.
         -1    1    3    3    0  502 -0.65849311471E+02  0.18262300147E+03 -0.23211596623E+02  0.19551488615E+03  0.00000000000E+00 0.  1.
         13    1    5    5    0    0  0.21781218132E+02 -0.16436112828E+03 -0.90847686872E+02  0.18905635182E+03  0.00000000000E+00 0. -1.
        -13    1    5    5    0    0 -0.45911295874E+02 -0.46891224079E+02 -0.30104271765E+02  0.72200423564E+02  0.00000000000E+00 0.  1.
          3    1    6    6  503    0  0.19058922987E+03 -0.19913051787E+03  0.81072491225E+03  0.85630140782E+03  0.00000000000E+00 0. -1.
         -3    1    6    6    0  503  0.55466428603E+02 -0.77780337146E+02  0.15744078797E+03  0.18415728947E+03  0.00000000000E+00 0.  1.
<mgrwt>
<rscale>  0 0.16216802E+04</rscale>
<asrwt>0</asrwt>
<pdfrwt beam="1">  1        2 0.20955029E+00 0.16216802E+04</pdfrwt>
<pdfrwt beam="2">  1       -1 0.74260082E-01 0.16216802E+04</pdfrwt>
<totfact> 0.30308250E+01</totfact>
</mgrwt>
</event>
<event>
12    7  0.1730932E-007  0.1532514E+04  0.7818608E-02  0.8863115E-01
         -3   -1    0    0    0  501 -0.00000000000E+00  0.00000000000E+00  0.26649180768E+03  0.26649180768E+03  0.00000000000E+00 0.  1.
          2   -1    0    0  501    0  0.00000000000E+00 -0.00000000000E+00 -0.22032556077E+04  0.22032556077E+04  0.00000000000E+00 0. -1.
         24    2    1    2    0    0 -0.32321301506E+03  0.36339517017E+03 -0.51057807279E+03  0.70990680897E+03  0.82188844781E+02 0.  0.
        254    2    1    2    0    0  0.32321301506E+03 -0.36339517017E+03 -0.14261857272E+04  0.17598406064E+04  0.90912624458E+03 0.  0.
         23    2    4    4    0    0  0.10862135141E+03 -0.15105352827E+03 -0.14291697350E+04  0.14441431904E+04  0.91693274090E+02 0.  0.
         23    2    4    4    0    0  0.21459166366E+03 -0.21234164190E+03  0.29840077736E+01  0.31569741601E+03  0.92289756639E+02 0.  0.
          4    1    3    3  502    0 -0.11527622979E+03  0.16878460288E+03 -0.16929179637E+03  0.26539887649E+03  0.00000000000E+00 0. -1.
         -3    1    3    3    0  502 -0.20793678527E+03  0.19461056729E+03 -0.34128627642E+03  0.44450793248E+03  0.00000000000E+00 0.  1.
         13    1    5    5    0    0  0.84833554589E+02 -0.16049143775E+03 -0.12764864316E+04  0.12893299979E+04  0.00000000000E+00 0.  1.
        -13    1    5    5    0    0  0.23787796817E+02  0.94379094771E+01 -0.15268330344E+03  0.15481319247E+03  0.00000000000E+00 0. -1.
          3    1    6    6  503    0  0.18053117347E+02 -0.40825879433E+02  0.29488480322E+02  0.53499887374E+02  0.00000000000E+00 0. -1.
         -3    1    6    6    0  503  0.19653854631E+03 -0.17151576247E+03 -0.26504472548E+02  0.26219752864E+03  0.00000000000E+00 0.  1.
<mgrwt>
<rscale>  0 0.15325137E+04</rscale>
<asrwt>0</asrwt>
<pdfrwt beam="1">  1        2 0.33896239E+00 0.15325137E+04</pdfrwt>
<pdfrwt beam="2">  1       -3 0.40998741E-01 0.15325137E+04</pdfrwt>
<totfact> 0.18934136E+01</totfact>
</mgrwt>
</event>
<event>
12    7  0.1730932E-007  0.1752748E+04  0.7818608E-02  0.8731839E-01
          2   -1    0    0  501    0  0.00000000000E+00  0.00000000000E+00  0.24315155533E+04  0.24315155533E+04  0.00000000000E+00 0. -1.
         -1   -1    0    0    0  501 -0.00000000000E+00 -0.00000000000E+00 -0.31586542674E+03  0.31586542674E+03  0.00000000000E+00 0.  1.
         24    2    1    2    0    0 -0.19991291998E+03  0.47384967085E+03  0.14324475487E+04  0.15240243614E+04  0.79029035545E+02 0.  0.
        254    2    1    2    0    0  0.19991291998E+03 -0.47384967085E+03  0.68320257793E+03  0.12233566186E+04  0.87483539463E+03 0.  0.
         23    2    4    4    0    0  0.42858096366E+03 -0.49129682774E+03  0.71851830664E+03  0.97445702558E+03  0.90794946781E+02 0.  0.
         23    2    4    4    0    0 -0.22866804368E+03  0.17447156893E+02 -0.35315728714E+02  0.24889959304E+03  0.90057366383E+02 0.  0.
          4    1    3    3  502    0 -0.20425166697E+03  0.46605759411E+03  0.13800386403E+04  0.14708620171E+04  0.00000000000E+00 0. -1.
         -3    1    3    3    0  502  0.43387469889E+01  0.77920767431E+01  0.52408908343E+02  0.53162344372E+02  0.00000000000E+00 0.  1.
         13    1    5    5    0    0  0.18616731353E+03 -0.20163322857E+03  0.23803804143E+03  0.36328547543E+03  0.00000000000E+00 0. -1.
        -13    1    5    5    0    0  0.24241365013E+03 -0.28966359918E+03  0.48048026521E+03  0.61117155015E+03  0.00000000000E+00 0.  1.
          1    1    6    6  503    0  0.82032777649E+01 -0.11117650452E+01  0.16580984997E+01  0.84426937786E+01  0.00000000000E+00 0. -1.
         -1    1    6    6    0  503 -0.23687132144E+03  0.18558921938E+02 -0.36973827213E+02  0.24045689927E+03  0.00000000000E+00 0.  1.
<mgrwt>
<rscale>  0 0.17527484E+04</rscale>
<asrwt>0</asrwt>
<pdfrwt beam="1">  1        2 0.37407930E+00 0.17527484E+04</pdfrwt>
<pdfrwt beam="2">  1       -1 0.48594683E-01 0.17527484E+04</pdfrwt>
<totfact> 0.17454674E+01</totfact>
</mgrwt>
</event>
<event>
12    7  0.1730932E-007  0.1936805E+04  0.7818608E-02  0.8636750E-01
          2   -1    0    0  501    0  0.00000000000E+00  0.00000000000E+00  0.72006052247E+03  0.72006052247E+03  0.00000000000E+00 0. -1.
         -1   -1    0    0    0  501 -0.00000000000E+00 -0.00000000000E+00 -0.13023946749E+04  0.13023946749E+04  0.00000000000E+00 0.  1.
         24    2    1    2    0    0 -0.97376597287E+02 -0.16537064187E+03 -0.99932408440E+03  0.10205032791E+04  0.77127595830E+02 0.  0.
        254    2    1    2    0    0  0.97376597287E+02  0.16537064187E+03  0.41698993192E+03  0.10019519183E+04  0.89061629923E+03 0.  0.
         23    2    4    4    0    0 -0.98735872312E+02  0.34968647631E+03 -0.12128166193E+03  0.39317880679E+03  0.88605464788E+02 0.  0.
         23    2    4    4    0    0  0.19611246960E+03 -0.18431583445E+03  0.53827159386E+03  0.60877311155E+03  0.91847509684E+02 0.  0.
          4    1    3    3  502    0  0.68011653789E+01 -0.52728369188E+02 -0.27885449268E+03  0.28387737645E+03  0.00000000000E+00 0. -1.
         -3    1    3    3    0  502 -0.10417776267E+03 -0.11264227268E+03 -0.72046959172E+03  0.73662590262E+03  0.00000000000E+00 0.  1.
         13    1    5    5    0    0 -0.23472836753E+02  0.11859249973E+02  0.40265060985E+00  0.26301673001E+02  0.00000000000E+00 0.  1.
        -13    1    5    5    0    0 -0.75263035559E+02  0.33782722634E+03 -0.12168431254E+03  0.36687713379E+03  0.00000000000E+00 0. -1.
          2    1    6    6  503    0  0.11897682715E+03 -0.16459765671E+03  0.41491638764E+03  0.46195614806E+03  0.00000000000E+00 0. -1.
         -2    1    6    6    0  503  0.77135642453E+02 -0.19718177736E+02  0.12335520622E+03  0.14681696350E+03  0.00000000000E+00 0.  1.
<mgrwt>
<rscale>  0 0.19368046E+04</rscale>
<asrwt>0</asrwt>
<pdfrwt beam="1">  1        2 0.11077854E+00 0.19368046E+04</pdfrwt>
<pdfrwt beam="2">  1       -1 0.20036841E+00 0.19368046E+04</pdfrwt>
<totfact> 0.63033708E+00</totfact>
</mgrwt>
</event>
<event>
12    7  0.1730932E-007  0.1649798E+04  0.7818608E-02  0.8790526E-01
          2   -1    0    0  501    0  0.00000000000E+00  0.00000000000E+00  0.61428987273E+03  0.61428987273E+03  0.00000000000E+00 0. -1.
         -3   -1    0    0    0  501 -0.00000000000E+00 -0.00000000000E+00 -0.11077153454E+04  0.11077153454E+04  0.00000000000E+00 0.  1.
         24    2    1    2    0    0 -0.43377127414E+03  0.35884430389E+03 -0.24209823828E+03  0.61768381491E+03  0.77427291871E+02 0.  0.
        254    2    1    2    0    0  0.43377127414E+03 -0.35884430389E+03 -0.25132723443E+03  0.11043214033E+04  0.91620610684E+03 0.  0.
         23    2    4    4    0    0 -0.24839996171E+03 -0.42585894916E+02 -0.21915603808E+03  0.34607422801E+03  0.90674708967E+02 0.  0.
         23    2    4    4    0    0  0.68217123584E+03 -0.31625840897E+03 -0.32171196350E+02  0.75824717524E+03  0.92340763657E+02 0.  0.
          4    1    3    3  502    0 -0.37831874396E+03  0.32546621271E+03 -0.18786160373E+03  0.53324038651E+03  0.00000000000E+00 0. -1.
         -3    1    3    3    0  502 -0.55452530178E+02  0.33378091180E+02 -0.54236634541E+02  0.84443428402E+02  0.00000000000E+00 0.  1.
         13    1    5    5    0    0 -0.19531799172E+03 -0.69821733241E+02 -0.18069058917E+03  0.27508777025E+03  0.00000000000E+00 0.  1.
        -13    1    5    5    0    0 -0.53081969981E+02  0.27235838325E+02 -0.38465448904E+02  0.70986457763E+02  0.00000000000E+00 0. -1.
          4    1    6    6  503    0  0.37423541574E+02 -0.16804005072E+02 -0.23544058894E+02  0.47299246925E+02  0.00000000000E+00 0. -1.
         -4    1    6    6    0  503  0.64474769427E+03 -0.29945440390E+03 -0.86271374559E+01  0.71094792832E+03  0.00000000000E+00 0.  1.
<mgrwt>
<rscale>  0 0.16497979E+04</rscale>
<asrwt>0</asrwt>
<pdfrwt beam="1">  1        2 0.94506135E-01 0.16497979E+04</pdfrwt>
<pdfrwt beam="2">  1       -3 0.17041774E+00 0.16497979E+04</pdfrwt>
<totfact> 0.66411578E+00</totfact>
</mgrwt>
</event>
<event>
12    7  0.1730932E-007  0.1707011E+04  0.7818608E-02  0.8757376E-01
          2   -1    0    0  501    0  0.00000000000E+00  0.00000000000E+00  0.30268541789E+04  0.30268541789E+04  0.00000000000E+00 0. -1.
         -1   -1    0    0    0  501 -0.00000000000E+00 -0.00000000000E+00 -0.24066950574E+03  0.24066950574E+03  0.00000000000E+00 0.  1.
         24    2    1    2    0    0 -0.63508064535E+02  0.13155649103E+03  0.21464270200E+04  0.21528074016E+04  0.78040832077E+02 0.  0.
        254    2    1    2    0    0  0.63508064535E+02 -0.13155649103E+03  0.63975765308E+03  0.11147162830E+04  0.90108942524E+03 0.  0.
         23    2    4    4    0    0 -0.22748315614E+03  0.72767212862E+02  0.69776050976E+03  0.74303240745E+03  0.90464224655E+02 0.  0.
         23    2    4    4    0    0  0.29099122068E+03 -0.20432370389E+03 -0.58002856680E+02  0.37168387554E+03  0.91435799708E+02 0.  0.
          4    1    3    3  502    0 -0.86077476630E+01  0.77530892838E+02  0.14578963319E+04  0.14599817969E+04  0.00000000000E+00 0. -1.
         -3    1    3    3    0  502 -0.54900316872E+02  0.54025598190E+02  0.68853068817E+03  0.69282560475E+03  0.00000000000E+00 0.  1.
         13    1    5    5    0    0 -0.13374186978E+03 -0.40682420971E+01  0.38645429475E+03  0.40896254138E+03  0.00000000000E+00 0.  1.
        -13    1    5    5    0    0 -0.93741286367E+02  0.76835454959E+02  0.31130621501E+03  0.33406986606E+03  0.00000000000E+00 0. -1.
          3    1    6    6  503    0  0.11344810451E+03 -0.13424451204E+03 -0.18166107802E+02  0.17669767657E+03  0.00000000000E+00 0. -1.
         -3    1    6    6    0  503  0.17754311617E+03 -0.70079191846E+02 -0.39836748878E+02  0.19498619897E+03  0.00000000000E+00 0.  1.
<mgrwt>
<rscale>  0 0.17070108E+04</rscale>
<asrwt>0</asrwt>
<pdfrwt beam="1">  1        2 0.46566985E+00 0.17070108E+04</pdfrwt>
<pdfrwt beam="2">  1       -1 0.37026080E-01 0.17070108E+04</pdfrwt>
<totfact> 0.12778122E+01</totfact>
</mgrwt>
</event>
<event>
12    7  0.1730932E-007  0.2477890E+04  0.7818608E-02  0.8410905E-01
          2   -1    0    0  501    0  0.00000000000E+00  0.00000000000E+00  0.10996991607E+04  0.10996991607E+04  0.00000000000E+00 0. -1.
         -1   -1    0    0    0  501 -0.00000000000E+00 -0.00000000000E+00 -0.13958222727E+04  0.13958222727E+04  0.00000000000E+00 0.  1.
         24    2    1    2    0    0  0.29184243621E+03 -0.88940827340E+03  0.40471988329E+03  0.10223447778E+04  0.71913673004E+02 0.  0.
        254    2    1    2    0    0 -0.29184243621E+03  0.88940827340E+03 -0.70084299525E+03  0.14731766556E+04  0.89601867735E+03 0.  0.
         23    2    4    4    0    0 -0.33264751596E+03  0.77793884844E+03 -0.10269090878E+03  0.85677923304E+03  0.87647074302E+02 0.  0.
         23    2    4    4    0    0  0.40805079751E+02  0.11146942496E+03 -0.59815208647E+03  0.61639742253E+03  0.89829709549E+02 0.  0.
          2    1    3    3  502    0  0.29017793069E+03 -0.82813489207E+03  0.37641998347E+03  0.95483120753E+03  0.00000000000E+00 0. -1.
         -1    1    3    3    0  502  0.16645055227E+01 -0.61273381329E+02  0.28299899814E+02  0.67513570247E+02  0.00000000000E+00 0.  1.
         13    1    5    5    0    0 -0.10946037765E+02  0.92076173973E+02 -0.18521073303E+02  0.94556161684E+02  0.00000000000E+00 0.  1.
        -13    1    5    5    0    0 -0.32170147819E+03  0.68586267447E+03 -0.84169835480E+02  0.76222307135E+03  0.00000000000E+00 0. -1.
          2    1    6    6  503    0  0.32030770263E+02  0.18947881898E+02 -0.33991018268E+03  0.34194140545E+03  0.00000000000E+00 0. -1.
         -2    1    6    6    0  503  0.87743094876E+01  0.92521543062E+02 -0.25824190379E+03  0.27445601708E+03  0.00000000000E+00 0.  1.
<mgrwt>
<rscale>  0 0.24778899E+04</rscale>
<asrwt>0</asrwt>
<pdfrwt beam="1">  1        2 0.16918449E+00 0.24778899E+04</pdfrwt>
<pdfrwt beam="2">  1       -1 0.21474189E+00 0.24778899E+04</pdfrwt>
<totfact> 0.26503385E+00</totfact>
</mgrwt>
</event>
<event>
12    7  0.1730932E-007  0.3405387E+04  0.7818608E-02  0.8136585E-01
         -1   -1    0    0    0  501 -0.00000000000E+00  0.00000000000E+00  0.21392901586E+04  0.21392901586E+04  0.00000000000E+00 0.  1.
          2   -1    0    0  501    0  0.00000000000E+00 -0.00000000000E+00 -0.13551998458E+04  0.13551998458E+04  0.00000000000E+00 0. -1.
         24    2    1    2    0    0  0.15555556820E+04 -0.27848153635E+03  0.41714822187E+03  0.16364069929E+04  0.80683092728E+02 0.  0.
        254    2    1    2    0    0 -0.15555556820E+04  0.27848153635E+03  0.36694209096E+03  0.18580830116E+04  0.90582588504E+03 0.  0.
         23    2    4    4    0    0 -0.52976802783E+02 -0.47258196768E+02 -0.19014041306E+03  0.22026726101E+03  0.85582771628E+02 0.  0.
         23    2    4    4    0    0 -0.15025788792E+04  0.32573973312E+03  0.55708250401E+03  0.16378157506E+04  0.90828710353E+02 0.  0.
          4    1    3    3  502    0  0.15311554301E+03 -0.35571230239E+02  0.18277344735E+02  0.15825215089E+03  0.00000000000E+00 0. -1.
         -3    1    3    3    0  502  0.14024401390E+04 -0.24291030611E+03  0.39887087714E+03  0.14781548420E+04  0.00000000000E+00 0.  1.
         13    1    5    5    0    0  0.10930607851E+02 -0.45542847749E+02 -0.70969860053E+02  0.85031465970E+02  0.00000000000E+00 0. -1.
        -13    1    5    5    0    0 -0.63907410634E+02 -0.17153490190E+01 -0.11917055301E+03  0.13523579504E+03  0.00000000000E+00 0.  1.
          2    1    6    6  503    0 -0.10611756292E+04  0.18770444628E+03  0.39451340298E+03  0.11475920444E+04  0.00000000000E+00 0. -1.
         -2    1    6    6    0  503 -0.44140324995E+03  0.13803528684E+03  0.16256910103E+03  0.49022370617E+03  0.00000000000E+00 0.  1.
<mgrwt>
<rscale>  0 0.34053873E+04</rscale>
<asrwt>0</asrwt>
<pdfrwt beam="1">  1        2 0.20849228E+00 0.34053873E+04</pdfrwt>
<pdfrwt beam="2">  1       -1 0.32912156E+00 0.34053873E+04</pdfrwt>
<totfact> 0.30882125E-01</totfact>
</mgrwt>
</event>
<event>
12    7  0.1730932E-007  0.1978784E+04  0.7818608E-02  0.8616605E-01
          2   -1    0    0  501    0  0.00000000000E+00  0.00000000000E+00  0.29369628416E+04  0.29369628416E+04  0.00000000000E+00 0. -1.
         -1   -1    0    0    0  501 -0.00000000000E+00 -0.00000000000E+00 -0.33330233730E+03  0.33330233730E+03  0.00000000000E+00 0.  1.
         24    2    1    2    0    0 -0.66828084429E+01 -0.97593839867E+02 -0.22780950601E+03  0.26058570833E+03  0.80240406576E+02 0.  0.
        254    2    1    2    0    0  0.66828084429E+01  0.97593839867E+02  0.28314700103E+04  0.30096794706E+04  0.10155682541E+04 0.  0.
         23    2    4    4    0    0 -0.25069719452E+03 -0.37746220896E+03  0.15267643776E+04  0.15951588624E+04  0.90529160831E+02 0.  0.
         23    2    4    4    0    0  0.25738000297E+03  0.47505604883E+03  0.13047056327E+04  0.14145206082E+04  0.81786597605E+02 0.  0.
          2    1    3    3  502    0 -0.29648595248E+02 -0.13883266529E+02 -0.10650085565E+03  0.11141910313E+03  0.00000000000E+00 0. -1.
         -1    1    3    3    0  502  0.22965786805E+02 -0.83710573338E+02 -0.12130865036E+03  0.14916660519E+03  0.00000000000E+00 0.  1.
         13    1    5    5    0    0 -0.32942645238E+02 -0.91075911606E+01  0.11172745466E+03  0.11683830800E+03  0.00000000000E+00 0.  1.
        -13    1    5    5    0    0 -0.21775454929E+03 -0.36835461780E+03  0.14150369229E+04  0.14783205544E+04  0.00000000000E+00 0. -1.
          2    1    6    6  503    0  0.16947188599E+03  0.37964464434E+03  0.10290050061E+04  0.11098207417E+04  0.00000000000E+00 0. -1.
         -2    1    6    6    0  503  0.87908116973E+02  0.95411404490E+02  0.27570062661E+03  0.30469986651E+03  0.00000000000E+00 0.  1.
<mgrwt>
<rscale>  0 0.19787841E+04</rscale>
<asrwt>0</asrwt>
<pdfrwt beam="1">  1        2 0.45184042E+00 0.19787841E+04</pdfrwt>
<pdfrwt beam="2">  1       -1 0.51277285E-01 0.19787841E+04</pdfrwt>
<totfact> 0.77404440E+00</totfact>
</mgrwt>
</event>
<event>
12    7  0.1730932E-007  0.1298158E+04  0.7818608E-02  0.9031028E-01
          2   -1    0    0  501    0  0.00000000000E+00  0.00000000000E+00  0.50567174239E+03  0.50567174239E+03  0.00000000000E+00 0. -1.
         -1   -1    0    0    0  501 -0.00000000000E+00 -0.00000000000E+00 -0.83315559817E+03  0.83315559817E+03  0.00000000000E+00 0.  1.
         24    2    1    2    0    0  0.14488247387E+03  0.10487959012E+03 -0.36902284314E+03  0.41770001056E+03  0.79402647343E+02 0.  0.
        254    2    1    2    0    0 -0.14488247387E+03 -0.10487959012E+03  0.41538987364E+02  0.92112732999E+03  0.90264024446E+03 0.  0.
         23    2    4    4    0    0 -0.23082280150E+03 -0.35754299366E+03 -0.26117401216E+03  0.50712845643E+03  0.88607272192E+02 0.  0.
         23    2    4    4    0    0  0.85940327629E+02  0.25266340354E+03  0.30271299952E+03  0.41399887356E+03  0.92387076103E+02 0.  0.
          2    1    3    3  502    0  0.62689239487E+02  0.39704886575E+02 -0.24113860600E+03  0.25229793116E+03  0.00000000000E+00 0. -1.
         -1    1    3    3    0  502  0.82193234385E+02  0.65174703543E+02 -0.12788423714E+03  0.16540207940E+03  0.00000000000E+00 0.  1.
         13    1    5    5    0    0  0.67855502015E+01 -0.17065810422E+02 -0.41728835565E+01  0.18833441907E+02  0.00000000000E+00 0. -1.
        -13    1    5    5    0    0 -0.23760835170E+03 -0.34047718323E+03 -0.25700112860E+03  0.48829501452E+03  0.00000000000E+00 0.  1.
          3    1    6    6  503    0  0.94953527449E+01 -0.41375183932E+01  0.29777800142E+02  0.31527736415E+02  0.00000000000E+00 0. -1.
         -3    1    6    6    0  503  0.76444974884E+02  0.25680092193E+03  0.27293519938E+03  0.38247113715E+03  0.00000000000E+00 0.  1.
<mgrwt>
<rscale>  0 0.12981575E+04</rscale>
<asrwt>0</asrwt>
<pdfrwt beam="1">  1        2 0.77795653E-01 0.12981575E+04</pdfrwt>
<pdfrwt beam="2">  1       -1 0.12817778E+00 0.12981575E+04</pdfrwt>
<totfact> 0.35813551E+01</totfact>
</mgrwt>
</event>
<event>
12    7  0.1730932E-007  0.1894772E+04  0.7818608E-02  0.8657463E-01
          4   -1    0    0  501    0  0.00000000000E+00  0.00000000000E+00  0.49711154022E+03  0.49711154022E+03  0.00000000000E+00 0. -1.
         -3   -1    0    0    0  501 -0.00000000000E+00 -0.00000000000E+00 -0.18055114975E+04  0.18055114975E+04  0.00000000000E+00 0.  1.
         24    2    1    2    0    0 -0.16058279735E+03 -0.61210058312E+03 -0.94316439325E+03  0.11384394855E+04  0.77662286832E+02 0.  0.
        254    2    1    2    0    0  0.16058279735E+03  0.61210058312E+03 -0.36523556400E+03  0.11641835522E+04  0.90635112805E+03 0.  0.
         23    2    4    4    0    0  0.43965985472E+03  0.39257221014E+03  0.62959035685E+02  0.60031196291E+03  0.94851908829E+02 0.  0.
         23    2    4    4    0    0 -0.27907705736E+03  0.21952837297E+03 -0.42819459969E+03  0.56387158929E+03  0.92324663637E+02 0.  0.
          2    1    3    3  502    0 -0.95292844534E+02 -0.39083975446E+03 -0.53199878665E+03  0.66697762247E+03  0.00000000000E+00 0. -1.
         -1    1    3    3    0  502 -0.65289952819E+02 -0.22126082866E+03 -0.41116560660E+03  0.47146186303E+03  0.00000000000E+00 0.  1.
         13    1    5    5    0    0  0.21931961673E+03  0.24759650144E+03  0.78409990618E+01  0.33085737573E+03  0.00000000000E+00 0.  1.
        -13    1    5    5    0    0  0.22034023799E+03  0.14497570870E+03  0.55118036623E+02  0.26945458718E+03  0.00000000000E+00 0. -1.
          2    1    6    6  503    0 -0.19026000945E+03  0.19715154372E+03 -0.34074999734E+03  0.43723925153E+03  0.00000000000E+00 0. -1.
         -2    1    6    6    0  503 -0.88817047912E+02  0.22376829257E+02 -0.87444602346E+02  0.12663233776E+03  0.00000000000E+00 0.  1.
<mgrwt>
<rscale>  0 0.18947724E+04</rscale>
<asrwt>0</asrwt>
<pdfrwt beam="1">  1        4 0.76478698E-01 0.18947724E+04</pdfrwt>
<pdfrwt beam="2">  1       -3 0.27777100E+00 0.18947724E+04</pdfrwt>
<totfact> 0.16732561E-01</totfact>
</mgrwt>
</event>
<event>
12    7  0.1730932E-007  0.2115651E+04  0.7818608E-02  0.8554380E-01
          2   -1    0    0  501    0  0.00000000000E+00  0.00000000000E+00  0.81178283559E+03  0.81178283559E+03  0.00000000000E+00 0. -1.
         -1   -1    0    0    0  501 -0.00000000000E+00 -0.00000000000E+00 -0.13784415558E+04  0.13784415558E+04  0.00000000000E+00 0.  1.
         24    2    1    2    0    0  0.73130199452E+03 -0.29244844500E+03 -0.57297547768E+03  0.97890170341E+03  0.98076229298E+02 0.  0.
        254    2    1    2    0    0 -0.73130199452E+03  0.29244844500E+03  0.63167574580E+01  0.12113226880E+04  0.92029020033E+03 0.  0.
         23    2    4    4    0    0 -0.63859150291E+03  0.57796994285E+03  0.12557053498E+03  0.87527887880E+03  0.92178055910E+02 0.  0.
         23    2    4    4    0    0 -0.92710491606E+02 -0.28552149785E+03 -0.11925377752E+03  0.33604380918E+03  0.92661843534E+02 0.  0.
          2    1    3    3  502    0  0.18397901812E+03 -0.79612093868E+02 -0.20028402909E+03  0.28337264672E+03  0.00000000000E+00 0. -1.
         -1    1    3    3    0  502  0.54732297640E+03 -0.21283635113E+03 -0.37269144859E+03  0.69552905670E+03  0.00000000000E+00 0.  1.
         13    1    5    5    0    0 -0.39642330966E+03  0.29745219850E+03  0.75230629494E+02  0.50128724146E+03  0.00000000000E+00 0. -1.
        -13    1    5    5    0    0 -0.24216819325E+03  0.28051774435E+03  0.50339905481E+02  0.37399163734E+03  0.00000000000E+00 0.  1.
          1    1    6    6  503    0 -0.10720310797E+03 -0.26697366327E+03 -0.12170667640E+03  0.31237790946E+03  0.00000000000E+00 0. -1.
         -1    1    6    6    0  503  0.14492616361E+02 -0.18547834583E+02  0.24528988848E+01  0.23665899721E+02  0.00000000000E+00 0.  1.
<mgrwt>
<rscale>  0 0.21156514E+04</rscale>
<asrwt>0</asrwt>
<pdfrwt beam="1">  1        2 0.12488967E+00 0.21156514E+04</pdfrwt>
<pdfrwt beam="2">  1       -1 0.21206793E+00 0.21156514E+04</pdfrwt>
<totfact> 0.44151610E+00</totfact>
</mgrwt>
</event>
<event>
12    7  0.1730932E-007  0.1459547E+04  0.7818608E-02  0.8911809E-01
          2   -1    0    0  501    0  0.00000000000E+00  0.00000000000E+00  0.17865409329E+04  0.17865409329E+04  0.00000000000E+00 0. -1.
         -1   -1    0    0    0  501 -0.00000000000E+00 -0.00000000000E+00 -0.29810071666E+03  0.29810071666E+03  0.00000000000E+00 0.  1.
         24    2    1    2    0    0 -0.41980927871E+02  0.20145708269E+02  0.10919622955E+04  0.10958710813E+04  0.79896958946E+02 0.  0.
        254    2    1    2    0    0  0.41980927871E+02 -0.20145708269E+02  0.39647792070E+03  0.98877056829E+03  0.90460170641E+03 0.  0.
         23    2    4    4    0    0  0.43939014246E+03  0.32567328275E+01  0.47280040247E+02  0.45147062878E+03  0.92282299758E+02 0.  0.
         23    2    4    4    0    0 -0.39740921458E+03 -0.23402441097E+02  0.34919788046E+03  0.53729993951E+03  0.90941229352E+02 0.  0.
          4    1    3    3  502    0  0.15514930632E+00  0.12975611445E+02  0.85413579430E+03  0.85423436226E+03  0.00000000000E+00 0. -1.
         -1    1    3    3    0  502 -0.42136077177E+02  0.71700968237E+01  0.23782650124E+03  0.24163671903E+03  0.00000000000E+00 0.  1.
         13    1    5    5    0    0 -0.37540945598E+01 -0.42509059774E+01  0.17247212705E+01  0.59277391182E+01  0.00000000000E+00 0. -1.
        -13    1    5    5    0    0  0.44314423701E+03  0.75076388049E+01  0.45555318977E+02  0.44554288966E+03  0.00000000000E+00 0.  1.
          1    1    6    6  503    0 -0.52384534586E+02 -0.30598903629E+02  0.32092849853E+02  0.68632232797E+02  0.00000000000E+00 0. -1.
         -1    1    6    6    0  503 -0.34502468000E+03  0.71964625323E+01  0.31710503060E+03  0.46866770671E+03  0.00000000000E+00 0.  1.
<mgrwt>
<rscale>  0 0.14595467E+04</rscale>
<asrwt>0</asrwt>
<pdfrwt beam="1">  1        2 0.27485244E+00 0.14595467E+04</pdfrwt>
<pdfrwt beam="2">  1       -1 0.45861650E-01 0.14595467E+04</pdfrwt>
<totfact> 0.45808183E+01</totfact>
</mgrwt>
</event>
<event>
12    7  0.1730932E-007  0.2310340E+04  0.7818608E-02  0.8473855E-01
         -1   -1    0    0    0  501 -0.00000000000E+00  0.00000000000E+00  0.10052216123E+04  0.10052216123E+04  0.00000000000E+00 0.  1.
          2   -1    0    0  501    0  0.00000000000E+00 -0.00000000000E+00 -0.13274858469E+04  0.13274858469E+04  0.00000000000E+00 0. -1.
         24    2    1    2    0    0  0.34369163412E+03 -0.78133539950E+03 -0.62017166597E+03  0.10580821792E+04  0.79473623850E+02 0.  0.
        254    2    1    2    0    0 -0.34369163412E+03  0.78133539950E+03  0.29790743135E+03  0.12746252800E+04  0.89850532598E+03 0.  0.
         23    2    4    4    0    0  0.10772392406E+02  0.56768025015E+03  0.53801039679E+03  0.78748763894E+03  0.91130036681E+02 0.  0.
         23    2    4    4    0    0 -0.35446402653E+03  0.21365514936E+03 -0.24010296544E+03  0.48713764103E+03  0.91435104592E+02 0.  0.
          4    1    3    3  502    0  0.33072725509E+03 -0.72404217648E+03 -0.59671695189E+03  0.99483099633E+03  0.00000000000E+00 0. -1.
         -3    1    3    3    0  502  0.12964379027E+02 -0.57293223026E+02 -0.23454714078E+02  0.63251182920E+02  0.00000000000E+00 0.  1.
         13    1    5    5    0    0  0.14895278584E+01 -0.16209452639E+01  0.12408435741E+02  0.12602199583E+02  0.00000000000E+00 0.  1.
        -13    1    5    5    0    0  0.92828645477E+01  0.56930119541E+03  0.52560196105E+03  0.77488543936E+03  0.00000000000E+00 0. -1.
          4    1    6    6  503    0 -0.29274692705E+03  0.20947760611E+03 -0.18719039173E+03  0.40573621174E+03  0.00000000000E+00 0. -1.
         -4    1    6    6    0  503 -0.61717099476E+02  0.41775432503E+01 -0.52912573709E+02  0.81401429299E+02  0.00000000000E+00 0.  1.
<mgrwt>
<rscale>  0 0.23103398E+04</rscale>
<asrwt>0</asrwt>
<pdfrwt beam="1">  1        2 0.20422859E+00 0.23103398E+04</pdfrwt>
<pdfrwt beam="2">  1       -1 0.15464948E+00 0.23103398E+04</pdfrwt>
<totfact> 0.52818190E+00</totfact>
</mgrwt>
</event>
<event>
12    7  0.1730932E-007  0.1908968E+04  0.7818608E-02  0.8650405E-01
          2   -1    0    0  501    0  0.00000000000E+00  0.00000000000E+00  0.14921490260E+04  0.14921490260E+04  0.00000000000E+00 0. -1.
         -1   -1    0    0    0  501 -0.00000000000E+00 -0.00000000000E+00 -0.61055573556E+03  0.61055573556E+03  0.00000000000E+00 0.  1.
         24    2    1    2    0    0 -0.35443119746E+03  0.45670329652E+03  0.82396739997E+03  0.10096720942E+04  0.79473812647E+02 0.  0.
        254    2    1    2    0    0  0.35443119746E+03 -0.45670329652E+03  0.57625890447E+02  0.10930326673E+04  0.92585111855E+03 0.  0.
         23    2    4    4    0    0  0.25756759909E+03  0.23000923839E+03 -0.10931976665E+03  0.37354115313E+03  0.91306428327E+02 0.  0.
         23    2    4    4    0    0  0.96863598372E+02 -0.68671253491E+03  0.16694565709E+03  0.71949151416E+03  0.94024062001E+02 0.  0.
          4    1    3    3  502    0 -0.26076232709E+03  0.34886536961E+03  0.67470200867E+03  0.80307337015E+03  0.00000000000E+00 0. -1.
         -3    1    3    3    0  502 -0.93668870370E+02  0.10783792691E+03  0.14926539130E+03  0.20659872409E+03  0.00000000000E+00 0.  1.
         13    1    5    5    0    0  0.25291386896E+03  0.20494689585E+03 -0.81031054762E+02  0.33546190106E+03  0.00000000000E+00 0. -1.
        -13    1    5    5    0    0  0.46537301354E+01  0.25062342540E+02 -0.28288711884E+02  0.38079252065E+02  0.00000000000E+00 0.  1.
          1    1    6    6  503    0  0.26990078466E+02 -0.49236331621E+03  0.10933293572E+03  0.50507800419E+03  0.00000000000E+00 0. -1.
         -1    1    6    6    0  503  0.69873519906E+02 -0.19434921870E+03  0.57612721371E+02  0.21441350997E+03  0.00000000000E+00 0.  1.
<mgrwt>
<rscale>  0 0.19089685E+04</rscale>
<asrwt>0</asrwt>
<pdfrwt beam="1">  1        2 0.22956139E+00 0.19089685E+04</pdfrwt>
<pdfrwt beam="2">  1       -1 0.93931652E-01 0.19089685E+04</pdfrwt>
<totfact> 0.15020128E+01</totfact>
</mgrwt>
</event>
<event>
12    7  0.1730932E-007  0.2054295E+04  0.7818608E-02  0.8581648E-01
          2   -1    0    0  501    0  0.00000000000E+00  0.00000000000E+00  0.10677794980E+04  0.10677794980E+04  0.00000000000E+00 0. -1.
         -1   -1    0    0    0  501 -0.00000000000E+00 -0.00000000000E+00 -0.98806162842E+03  0.98806162842E+03  0.00000000000E+00 0.  1.
         24    2    1    2    0    0 -0.11103912026E+03 -0.41551459508E+03  0.74091938234E+03  0.86047058567E+03  0.80411645396E+02 0.  0.
        254    2    1    2    0    0  0.11103912026E+03  0.41551459508E+03 -0.66120151273E+03  0.11953705408E+04  0.89818774452E+03 0.  0.
         23    2    4    4    0    0  0.20296104276E+03  0.18273106829E+03 -0.83131209385E+03  0.87969799854E+03  0.90581140777E+02 0.  0.
         23    2    4    4    0    0 -0.91921922501E+02  0.23278352679E+03  0.17011058112E+03  0.31567254225E+03  0.89853958951E+02 0.  0.
          2    1    3    3  502    0 -0.20813345309E+02 -0.21179900283E+03  0.40236416476E+03  0.45518011163E+03  0.00000000000E+00 0. -1.
         -3    1    3    3    0  502 -0.90225774949E+02 -0.20371559225E+03  0.33855521758E+03  0.40529047404E+03  0.00000000000E+00 0.  1.
         13    1    5    5    0    0  0.19268711358E+03  0.13913670937E+03 -0.75137702944E+03  0.78807029383E+03  0.00000000000E+00 0. -1.
        -13    1    5    5    0    0  0.10273929177E+02  0.43594358918E+02 -0.79935064405E+02  0.91627704717E+02  0.00000000000E+00 0.  1.
          4    1    6    6  503    0 -0.94145605221E+02  0.18701221982E+03  0.17023654181E+03  0.26984707801E+03  0.00000000000E+00 0. -1.
         -4    1    6    6    0  503  0.22236827199E+01  0.45771306968E+02 -0.12596068602E+00  0.45825464236E+02  0.00000000000E+00 0.  1.
<mgrwt>
<rscale>  0 0.20542950E+04</rscale>
<asrwt>0</asrwt>
<pdfrwt beam="1">  1        2 0.16427377E+00 0.20542950E+04</pdfrwt>
<pdfrwt beam="2">  1       -1 0.15200948E+00 0.20542950E+04</pdfrwt>
<totfact> 0.81003363E+00</totfact>
</mgrwt>
</event>
<event>
12    7  0.1730932E-007  0.1109068E+04  0.7818608E-02  0.9196398E-01
         -3   -1    0    0    0  501 -0.00000000000E+00  0.00000000000E+00  0.16499109547E+03  0.16499109547E+03  0.00000000000E+00 0.  1.
          4   -1    0    0  501    0  0.00000000000E+00 -0.00000000000E+00 -0.18637863208E+04  0.18637863208E+04  0.00000000000E+00 0. -1.
         24    2    1    2    0    0  0.13769789946E+03  0.35913801224E+02 -0.15434258726E+03  0.23258732322E+03  0.10012350398E+03 0.  0.
        254    2    1    2    0    0 -0.13769789946E+03 -0.35913801224E+02 -0.15444526380E+04  0.17961900930E+04  0.90593288186E+03 0.  0.
         23    2    4    4    0    0  0.29216230591E+03 -0.27295726395E+03 -0.58780611301E+03  0.71778746230E+03  0.99188374309E+02 0.  0.
         23    2    4    4    0    0 -0.42986020537E+03  0.23704346272E+03 -0.95664652501E+03  0.10784026307E+04  0.82524303701E+02 0.  0.
          2    1    3    3  502    0  0.28918045709E+02  0.24742943130E+02 -0.10674267911E+03  0.11332460521E+03  0.00000000000E+00 0. -1.
         -1    1    3    3    0  502  0.10877985375E+03  0.11170858093E+02 -0.47599908146E+02  0.11926271801E+03  0.00000000000E+00 0.  1.
         13    1    5    5    0    0  0.61437807246E+02 -0.12087194295E+03 -0.19682944980E+03  0.23901142872E+03  0.00000000000E+00 0.  1.
        -13    1    5    5    0    0  0.23072449866E+03 -0.15208532100E+03 -0.39097666322E+03  0.47877603358E+03  0.00000000000E+00 0. -1.
          3    1    6    6  503    0 -0.34916376220E+03  0.21264829862E+03 -0.73148894076E+03  0.83798013234E+03  0.00000000000E+00 0. -1.
         -3    1    6    6    0  503 -0.80696443164E+02  0.24395164105E+02 -0.22515758425E+03  0.24042249836E+03  0.00000000000E+00 0.  1.
<mgrwt>
<rscale>  0 0.11090683E+04</rscale>
<asrwt>0</asrwt>
<pdfrwt beam="1">  1        4 0.28673637E+00 0.11090683E+04</pdfrwt>
<pdfrwt beam="2">  1       -3 0.25383244E-01 0.11090683E+04</pdfrwt>
<totfact> 0.12731697E+00</totfact>
</mgrwt>
</event>
<event>
12    7  0.3117153E-007  0.2329519E+04  0.7818608E-02  0.8466372E-01
          2   -1    0    0  501    0  0.00000000000E+00  0.00000000000E+00  0.25007154521E+04  0.25007154521E+04  0.00000000000E+00 0. -1.
         -1   -1    0    0    0  501 -0.00000000000E+00 -0.00000000000E+00 -0.54251048954E+03  0.54251048954E+03  0.00000000000E+00 0.  1.
         24    2    1    2    0    0 -0.77419043630E+03  0.52156893352E+03  0.12435178614E+04  0.15573565650E+04  0.87280094587E+02 0.  0.
        254    2    1    2    0    0  0.77419043630E+03 -0.52156893352E+03  0.71468710108E+03  0.14858693766E+04  0.90863918452E+03 0.  0.
         23    2    4    4    0    0  0.17393393999E+03 -0.60473849934E+03  0.57462439177E+03  0.85715111581E+03  0.92483380432E+02 0.  0.
         23    2    4    4    0    0  0.60025649631E+03  0.83169565827E+02  0.14006270931E+03  0.62871826074E+03  0.91891516489E+02 0.  0.
          4    1    3    3  502    0 -0.62089545983E+03  0.42185212151E+03  0.93918727198E+03  0.12023074134E+04  0.00000000000E+00 0. -1.
         -3    1    3    3    0  502 -0.15329497647E+03  0.99716812011E+02  0.30433058946E+03  0.35504915166E+03  0.00000000000E+00 0.  1.
         13    1    5    5    0    0  0.14183036162E+03 -0.53781846461E+03  0.54011313596E+03  0.77529784727E+03  0.00000000000E+00 0.  1.
        -13    1    5    5    0    0  0.32103578370E+02 -0.66920034734E+02  0.34511255808E+02  0.81853268538E+02  0.00000000000E+00 0. -1.
          4    1    6    6  503    0  0.12150586728E+03  0.60741203472E+01 -0.73759212254E+01  0.12188098677E+03  0.00000000000E+00 0. -1.
         -4    1    6    6    0  503  0.47875062903E+03  0.77095445479E+02  0.14743863054E+03  0.50683727397E+03  0.00000000000E+00 0.  1.
<mgrwt>
<rscale>  0 0.23295187E+04</rscale>
<asrwt>0</asrwt>
<pdfrwt beam="1">  1        2 0.38472545E+00 0.23295187E+04</pdfrwt>
<pdfrwt beam="2">  1       -1 0.83463154E-01 0.23295187E+04</pdfrwt>
<totfact> 0.50966423E+00</totfact>
</mgrwt>
</event>
<event>
12    7  0.1730932E-007  0.1338138E+04  0.7818608E-02  0.8999856E-01
         -1   -1    0    0    0  501 -0.00000000000E+00  0.00000000000E+00  0.31302357045E+03  0.31302357045E+03  0.00000000000E+00 0.  1.
          2   -1    0    0  501    0  0.00000000000E+00 -0.00000000000E+00 -0.14300946708E+04  0.14300946708E+04  0.00000000000E+00 0. -1.
         24    2    1    2    0    0  0.24210809428E+03  0.61296057028E+02 -0.77459443104E+01  0.26267177270E+03  0.81011879353E+02 0.  0.
        254    2    1    2    0    0 -0.24210809428E+03 -0.61296057028E+02 -0.11093251560E+04  0.14804464686E+04  0.94802210339E+03 0.  0.
         23    2    4    4    0    0 -0.40230891101E+03 -0.41258909342E+03 -0.65574641455E+03  0.87778190986E+03  0.91736040897E+02 0.  0.
         23    2    4    4    0    0  0.16020081673E+03  0.35129303639E+03 -0.45357874148E+03  0.60266455869E+03  0.91650403620E+02 0.  0.
          2    1    3    3  502    0  0.78899513420E+02  0.41210724256E+02 -0.35638617778E+02  0.95883095949E+02  0.00000000000E+00 0. -1.
         -1    1    3    3    0  502  0.16320858086E+03  0.20085332772E+02  0.27892673467E+02  0.16678867675E+03  0.00000000000E+00 0.  1.
         13    1    5    5    0    0 -0.30364057668E+01 -0.74025966078E+01 -0.34598241133E+02  0.35511357141E+02  0.00000000000E+00 0. -1.
        -13    1    5    5    0    0 -0.39927250524E+03 -0.40518649681E+03 -0.62114817342E+03  0.84227055272E+03  0.00000000000E+00 0.  1.
          1    1    6    6  503    0  0.85874774074E+01  0.65310038380E+02 -0.38505231378E+02  0.76300712480E+02  0.00000000000E+00 0. -1.
         -1    1    6    6    0  503  0.15161333932E+03  0.28598299801E+03 -0.41507351010E+03  0.52636384621E+03  0.00000000000E+00 0.  1.
<mgrwt>
<rscale>  0 0.13381380E+04</rscale>
<asrwt>0</asrwt>
<pdfrwt beam="1">  1        2 0.22001456E+00 0.13381380E+04</pdfrwt>
<pdfrwt beam="2">  1       -1 0.48157473E-01 0.13381380E+04</pdfrwt>
<totfact> 0.66779318E+01</totfact>
</mgrwt>
</event>
<event>
12    7  0.1730932E-007  0.1351879E+04  0.7818608E-02  0.8989407E-01
         -1   -1    0    0    0  501 -0.00000000000E+00  0.00000000000E+00  0.65672952376E+03  0.65672952376E+03  0.00000000000E+00 0.  1.
          2   -1    0    0  501    0  0.00000000000E+00 -0.00000000000E+00 -0.69571115111E+03  0.69571115111E+03  0.00000000000E+00 0. -1.
         24    2    1    2    0    0 -0.32737412750E+03 -0.11456567161E+03  0.11159592702E+03  0.37293140134E+03  0.79530288012E+02 0.  0.
        254    2    1    2    0    0  0.32737412750E+03  0.11456567161E+03 -0.15057755437E+03  0.97950927353E+03  0.90358491830E+03 0.  0.
         23    2    4    4    0    0  0.20294683540E+03  0.20639441665E+03 -0.50088850136E+03  0.58566838608E+03  0.91280306967E+02 0.  0.
         23    2    4    4    0    0  0.12442729210E+03 -0.91828745042E+02  0.35031094699E+03  0.39384088745E+03  0.92077226344E+02 0.  0.
          4    1    3    3  502    0 -0.15926347137E+03 -0.42744930085E+02  0.13465242991E+02  0.16544876890E+03  0.00000000000E+00 0. -1.
         -3    1    3    3    0  502 -0.16811065612E+03 -0.71820741521E+02  0.98130684029E+02  0.20748263244E+03  0.00000000000E+00 0.  1.
         13    1    5    5    0    0  0.67571719593E+02  0.36932361554E+02 -0.73797169861E+02  0.10665814033E+03  0.00000000000E+00 0. -1.
        -13    1    5    5    0    0  0.13537511581E+03  0.16946205509E+03 -0.42709133150E+03  0.47901024576E+03  0.00000000000E+00 0.  1.
          2    1    6    6  503    0  0.72796531570E+01 -0.15680673372E+02  0.65304034129E+00  0.17300385232E+02  0.00000000000E+00 0. -1.
         -2    1    6    6    0  503  0.11714763894E+03 -0.76148071670E+02  0.34965790665E+03  0.37654050221E+03  0.00000000000E+00 0.  1.
<mgrwt>
<rscale>  0 0.13518788E+04</rscale>
<asrwt>0</asrwt>
<pdfrwt beam="1">  1        2 0.10703248E+00 0.13518788E+04</pdfrwt>
<pdfrwt beam="2">  1       -1 0.10103531E+00 0.13518788E+04</pdfrwt>
<totfact> 0.42899075E+01</totfact>
</mgrwt>
</event>
<event>
12    7  0.1730932E-007  0.2515926E+04  0.7818608E-02  0.8397334E-01
          2   -1    0    0  501    0  0.00000000000E+00  0.00000000000E+00  0.14601674736E+04  0.14601674736E+04  0.00000000000E+00 0. -1.
         -1   -1    0    0    0  501 -0.00000000000E+00 -0.00000000000E+00 -0.10837597995E+04  0.10837597995E+04  0.00000000000E+00 0.  1.
         24    2    1    2    0    0  0.20248277074E+03  0.10773030480E+04  0.18135372221E+03  0.11141631539E+04  0.83001392777E+02 0.  0.
        254    2    1    2    0    0 -0.20248277074E+03 -0.10773030480E+04  0.19505395186E+03  0.14297641193E+04  0.89699401499E+03 0.  0.
         23    2    4    4    0    0 -0.46710511270E+03 -0.10271655921E+04  0.13074267706E+03  0.11392617689E+04  0.86990750213E+02 0.  0.
         23    2    4    4    0    0  0.26462234196E+03 -0.50137455879E+02  0.64311274795E+02  0.29050235033E+03  0.87846042212E+02 0.  0.
          4    1    3    3  502    0  0.12553190037E+03  0.69250651143E+03  0.76213862494E+02  0.70790682947E+03  0.00000000000E+00 0. -1.
         -3    1    3    3    0  502  0.76950870369E+02  0.38479653656E+03  0.10513985972E+03  0.40625632438E+03  0.00000000000E+00 0.  1.
         13    1    5    5    0    0 -0.21914365976E+02 -0.10280762988E+03  0.10865518235E+01  0.10512292230E+03  0.00000000000E+00 0.  1.
        -13    1    5    5    0    0 -0.44519074673E+03 -0.92435796222E+03  0.12965612524E+03  0.10341388466E+04  0.00000000000E+00 0. -1.
          1    1    6    6  503    0  0.14523149172E+03 -0.69700654062E+02  0.23357885850E+02  0.16277579118E+03  0.00000000000E+00 0. -1.
         -1    1    6    6    0  503  0.11939085024E+03  0.19563198183E+02  0.40953388945E+02  0.12772655914E+03  0.00000000000E+00 0.  1.
<mgrwt>
<rscale>  0 0.25159259E+04</rscale>
<asrwt>0</asrwt>
<pdfrwt beam="1">  1        2 0.22464115E+00 0.25159259E+04</pdfrwt>
<pdfrwt beam="2">  1       -1 0.16673228E+00 0.25159259E+04</pdfrwt>
<totfact> 0.35292456E+00</totfact>
</mgrwt>
</event>
<event>
12    7  0.2106603E-007  0.2751798E+04  0.7818608E-02  0.8318391E-01
          2   -1    0    0  501    0  0.00000000000E+00  0.00000000000E+00  0.17533023783E+04  0.17533023783E+04  0.00000000000E+00 0. -1.
         -3   -1    0    0    0  501 -0.00000000000E+00 -0.00000000000E+00 -0.10797327896E+04  0.10797327896E+04  0.00000000000E+00 0.  1.
         24    2    1    2    0    0  0.27462114691E+03  0.65074231857E+03 -0.72998008953E+03  0.10188760781E+04  0.79719457861E+02 0.  0.
        254    2    1    2    0    0 -0.27462114691E+03 -0.65074231857E+03  0.14035496783E+04  0.18141590898E+04  0.90682918127E+03 0.  0.
         23    2    4    4    0    0  0.18891249822E+03 -0.18980908911E+03  0.23328728814E+02  0.28390362315E+03  0.91332444176E+02 0.  0.
         23    2    4    4    0    0 -0.46353364513E+03 -0.46093322946E+03  0.13802209495E+04  0.15302554666E+04  0.96690441642E+02 0.  0.
          4    1    3    3  502    0  0.46595272244E+00  0.38858480005E+02 -0.26421134151E+02  0.46992285645E+02  0.00000000000E+00 0. -1.
         -3    1    3    3    0  502  0.27415519419E+03  0.61188383856E+03 -0.70355895537E+03  0.97188379248E+03  0.00000000000E+00 0.  1.
         13    1    5    5    0    0  0.15998849734E+03 -0.10137339334E+03  0.77254815525E+01  0.18955887535E+03  0.00000000000E+00 0. -1.
        -13    1    5    5    0    0  0.28924000875E+02 -0.88435695765E+02  0.15603247261E+02  0.94344747798E+02  0.00000000000E+00 0.  1.
          1    1    6    6  503    0 -0.29555742189E+03 -0.30691664640E+03  0.79031765315E+03  0.89786079676E+03  0.00000000000E+00 0. -1.
         -1    1    6    6    0  503 -0.16797622324E+03 -0.15401658306E+03  0.58990329635E+03  0.63239466987E+03  0.00000000000E+00 0.  1.
<mgrwt>
<rscale>  0 0.27517980E+04</rscale>
<asrwt>0</asrwt>
<pdfrwt beam="1">  1        2 0.26973883E+00 0.27517980E+04</pdfrwt>
<pdfrwt beam="2">  1       -3 0.16611274E+00 0.27517980E+04</pdfrwt>
<totfact> 0.12484040E+00</totfact>
</mgrwt>
</event>
<event>
12    7  0.1730932E-007  0.2301391E+04  0.7818608E-02  0.8477373E-01
         -1   -1    0    0    0  501 -0.00000000000E+00  0.00000000000E+00  0.86154792984E+03  0.86154792984E+03  0.00000000000E+00 0.  1.
          2   -1    0    0  501    0  0.00000000000E+00 -0.00000000000E+00 -0.15368844290E+04  0.15368844290E+04  0.00000000000E+00 0. -1.
         24    2    1    2    0    0  0.10122813039E+03 -0.52929198569E+03 -0.11250574943E+04  0.12499203152E+04  0.78417398746E+02 0.  0.
        254    2    1    2    0    0 -0.10122813039E+03  0.52929198569E+03  0.44972099515E+03  0.11485120436E+04  0.90908404471E+03 0.  0.
         23    2    4    4    0    0  0.15450828452E+03  0.70445839784E+03  0.35857024597E+03  0.81042900190E+03  0.89933873192E+02 0.  0.
         23    2    4    4    0    0 -0.25573641491E+03 -0.17516641216E+03  0.91150749180E+02  0.33808304172E+03  0.99535411601E+02 0.  0.
          2    1    3    3  502    0  0.88898550215E+02 -0.26389572028E+03 -0.60000060947E+03  0.66147156763E+03  0.00000000000E+00 0. -1.
         -1    1    3    3    0  502  0.12329580174E+02 -0.26539626540E+03 -0.52505688485E+03  0.58844874761E+03  0.00000000000E+00 0.  1.
         13    1    5    5    0    0  0.50643224720E+02  0.38780385589E+03  0.22656911270E+03  0.45198465647E+03  0.00000000000E+00 0. -1.
        -13    1    5    5    0    0  0.10386505980E+03  0.31665454195E+03  0.13200113327E+03  0.35844434543E+03  0.00000000000E+00 0.  1.
          4    1    6    6  503    0 -0.55298878876E+02  0.36436200234E+01  0.34586476031E+01  0.55526608171E+02  0.00000000000E+00 0. -1.
         -4    1    6    6    0  503 -0.20043753603E+03 -0.17881003218E+03  0.87692101576E+02  0.28255643354E+03  0.00000000000E+00 0.  1.
<mgrwt>
<rscale>  0 0.23013905E+04</rscale>
<asrwt>0</asrwt>
<pdfrwt beam="1">  1        2 0.23644376E+00 0.23013905E+04</pdfrwt>
<pdfrwt beam="2">  1       -1 0.13254584E+00 0.23013905E+04</pdfrwt>
<totfact> 0.60320039E+00</totfact>
</mgrwt>
</event>
<event>
12    7  0.1730932E-007  0.2146856E+04  0.7818608E-02  0.8540879E-01
          2   -1    0    0  501    0  0.00000000000E+00  0.00000000000E+00  0.10606415017E+04  0.10606415017E+04  0.00000000000E+00 0. -1.
         -1   -1    0    0    0  501 -0.00000000000E+00 -0.00000000000E+00 -0.10863685226E+04  0.10863685226E+04  0.00000000000E+00 0.  1.
         24    2    1    2    0    0  0.24351375635E+03  0.62357265132E+03  0.55924962598E+03  0.87611232325E+03  0.81675319347E+02 0.  0.
        254    2    1    2    0    0 -0.24351375635E+03 -0.62357265132E+03 -0.58497664683E+03  0.12708977010E+04  0.90820784410E+03 0.  0.
         23    2    4    4    0    0 -0.25958937436E+03 -0.64607803402E+02  0.16725523622E+03  0.32913441690E+03  0.93778136065E+02 0.  0.
         23    2    4    4    0    0  0.16075618006E+02 -0.55896484792E+03 -0.75223188305E+03  0.94176328411E+03  0.91461197819E+02 0.  0.
          4    1    3    3  502    0  0.14119246179E+03  0.38014238293E+03  0.38897980034E+03  0.56191532070E+03  0.00000000000E+00 0. -1.
         -3    1    3    3    0  502  0.10232129456E+03  0.24343026839E+03  0.17026982564E+03  0.31419700256E+03  0.00000000000E+00 0.  1.
         13    1    5    5    0    0 -0.16101142290E+03 -0.85279684385E+02  0.97836107908E+02  0.20680717319E+03  0.00000000000E+00 0.  1.
        -13    1    5    5    0    0 -0.98577951463E+02  0.20671880983E+02  0.69419128315E+02  0.12232724371E+03  0.00000000000E+00 0. -1.
          1    1    6    6  503    0 -0.75414558910E+01 -0.44834356612E+03 -0.54583233980E+03  0.70640057334E+03  0.00000000000E+00 0. -1.
         -1    1    6    6    0  503  0.23617073897E+02 -0.11062128180E+03 -0.20639954325E+03  0.23536271077E+03  0.00000000000E+00 0.  1.
<mgrwt>
<rscale>  0 0.21468559E+04</rscale>
<asrwt>0</asrwt>
<pdfrwt beam="1">  1        2 0.16317561E+00 0.21468559E+04</pdfrwt>
<pdfrwt beam="2">  1       -1 0.16713362E+00 0.21468559E+04</pdfrwt>
<totfact> 0.62349432E+00</totfact>
</mgrwt>
</event>
<event>
12    7  0.1730932E-007  0.1152727E+04  0.7818608E-02  0.9155272E-01
         -1   -1    0    0    0  501 -0.00000000000E+00  0.00000000000E+00  0.31100485341E+03  0.31100485341E+03  0.00000000000E+00 0.  1.
          2   -1    0    0  501    0  0.00000000000E+00 -0.00000000000E+00 -0.10681332471E+04  0.10681332471E+04  0.00000000000E+00 0. -1.
         24    2    1    2    0    0 -0.20198892658E+01  0.17981153950E+03 -0.28488018510E+03  0.34624044057E+03  0.79934054922E+02 0.  0.
        254    2    1    2    0    0  0.20198892658E+01 -0.17981153950E+03 -0.47224820864E+03  0.10328976600E+04  0.90084567810E+03 0.  0.
         23    2    4    4    0    0 -0.11592598588E+03 -0.19543727656E+03 -0.71080167292E+03  0.75060772069E+03  0.80860180939E+02 0.  0.
         23    2    4    4    0    0  0.11794587514E+03  0.15625737064E+02  0.23855346428E+03  0.28228993930E+03  0.92867978270E+02 0.  0.
          4    1    3    3  502    0  0.12755034277E+02  0.14612720291E+03 -0.16466043732E+03  0.22051963620E+03  0.00000000000E+00 0. -1.
         -3    1    3    3    0  502 -0.14774923543E+02  0.33684336587E+02 -0.12021974777E+03  0.12572080437E+03  0.00000000000E+00 0.  1.
         13    1    5    5    0    0 -0.10621104195E+03 -0.19858648293E+03 -0.70161056546E+03  0.73686821223E+03  0.00000000000E+00 0. -1.
        -13    1    5    5    0    0 -0.97149439326E+01  0.31492063644E+01 -0.91911074605E+01  0.13739508459E+02  0.00000000000E+00 0.  1.
          4    1    6    6  503    0 -0.36888208222E+01  0.44961203979E+01  0.89029592514E+02  0.89219341181E+02  0.00000000000E+00 0.  1.
         -4    1    6    6    0  503  0.12163469597E+03  0.11129616666E+02  0.14952387177E+03  0.19307059812E+03  0.00000000000E+00 0. -1.
<mgrwt>
<rscale>  0 0.11527265E+04</rscale>
<asrwt>0</asrwt>
<pdfrwt beam="1">  1        2 0.16432819E+00 0.11527265E+04</pdfrwt>
<pdfrwt beam="2">  1       -1 0.47846901E-01 0.11527265E+04</pdfrwt>
<totfact> 0.11225835E+02</totfact>
</mgrwt>
</event>
<event>
12    7  0.1730932E-007  0.2079331E+04  0.7818608E-02  0.8570403E-01
         -1   -1    0    0    0  501 -0.00000000000E+00  0.00000000000E+00  0.56803388602E+03  0.56803388602E+03  0.00000000000E+00 0.  1.
          2   -1    0    0  501    0  0.00000000000E+00 -0.00000000000E+00 -0.19028872665E+04  0.19028872665E+04  0.00000000000E+00 0. -1.
         24    2    1    2    0    0 -0.70024970894E+03  0.23843966148E+03 -0.59920005583E+02  0.74606412653E+03  0.76276777505E+02 0.  0.
        254    2    1    2    0    0  0.70024970894E+03 -0.23843966148E+03 -0.12749333749E+04  0.17248570260E+04  0.89580886501E+03 0.  0.
         23    2    4    4    0    0  0.89294833303E+03 -0.12677316522E+03 -0.11084890525E+04  0.14320408504E+04  0.92546511390E+02 0.  0.
         23    2    4    4    0    0 -0.19269862408E+03 -0.11166649626E+03 -0.16644432237E+03  0.29281617559E+03  0.91844619473E+02 0.  0.
          2    1    3    3  502    0 -0.29029370242E+03  0.81021337151E+02 -0.58005217069E+02  0.30691936392E+03  0.00000000000E+00 0. -1.
         -1    1    3    3    0  502 -0.40995600652E+03  0.15741832433E+03 -0.19147885144E+01  0.43914476262E+03  0.00000000000E+00 0.  1.
         13    1    5    5    0    0  0.72109562244E+03 -0.12156037903E+03 -0.84586424742E+03  0.11181422752E+04  0.00000000000E+00 0. -1.
        -13    1    5    5    0    0  0.17185271059E+03 -0.52127861861E+01 -0.26262480513E+03  0.31389857525E+03  0.00000000000E+00 0.  1.
          4    1    6    6  503    0 -0.17107416907E+03 -0.55629770433E+02 -0.11316157922E+03  0.21252431788E+03  0.00000000000E+00 0. -1.
         -4    1    6    6    0  503 -0.21624455018E+02 -0.56036725826E+02 -0.53282743152E+02  0.80291857706E+02  0.00000000000E+00 0.  1.
<mgrwt>
<rscale>  0 0.20793311E+04</rscale>
<asrwt>0</asrwt>
<pdfrwt beam="1">  1        2 0.29275189E+00 0.20793311E+04</pdfrwt>
<pdfrwt beam="2">  1       -1 0.87389827E-01 0.20793311E+04</pdfrwt>
<totfact> 0.10246625E+01</totfact>
</mgrwt>
</event>
<event>
12    7  0.1730932E-007  0.3080872E+04  0.7818608E-02  0.8221007E-01
         -1   -1    0    0    0  501 -0.00000000000E+00  0.00000000000E+00  0.14156826026E+04  0.14156826026E+04  0.00000000000E+00 0.  1.
          2   -1    0    0  501    0  0.00000000000E+00 -0.00000000000E+00 -0.16761827708E+04  0.16761827708E+04  0.00000000000E+00 0. -1.
         24    2    1    2    0    0 -0.11275723350E+04  0.63073315862E+03  0.44662756011E+03  0.13692513160E+04  0.78289850545E+02 0.  0.
        254    2    1    2    0    0  0.11275723350E+04 -0.63073315862E+03 -0.70712772836E+03  0.17226140574E+04  0.89337891090E+03 0.  0.
         23    2    4    4    0    0  0.12965900655E+03  0.57249955215E+02 -0.44924615906E+03  0.47998147805E+03  0.92038538080E+02 0.  0.
         23    2    4    4    0    0  0.99791332848E+03 -0.68798311383E+03 -0.25788156930E+03  0.12426325794E+04  0.92092602336E+02 0.  0.
          4    1    3    3  502    0 -0.68170528211E+02  0.56098691471E+02  0.18099636947E+02  0.90121478899E+02  0.00000000000E+00 0. -1.
         -3    1    3    3    0  502 -0.10594018068E+04  0.57463446715E+03  0.42852792317E+03  0.12791298371E+04  0.00000000000E+00 0.  1.
         13    1    5    5    0    0  0.88848420765E+02  0.81316219989E+02 -0.29556646541E+03  0.31916438551E+03  0.00000000000E+00 0. -1.
        -13    1    5    5    0    0  0.40810585789E+02 -0.24066264773E+02 -0.15367969365E+03  0.16081709254E+03  0.00000000000E+00 0.  1.
          3    1    6    6  503    0  0.47771083034E+03 -0.35813033166E+03 -0.16728916438E+03  0.62004083446E+03  0.00000000000E+00 0. -1.
         -3    1    6    6    0  503  0.52020249814E+03 -0.32985278217E+03 -0.90592404922E+02  0.62259174489E+03  0.00000000000E+00 0.  1.
<mgrwt>
<rscale>  0 0.30808718E+04</rscale>
<asrwt>0</asrwt>
<pdfrwt beam="1">  1        2 0.25787427E+00 0.30808718E+04</pdfrwt>
<pdfrwt beam="2">  1       -1 0.21779732E+00 0.30808718E+04</pdfrwt>
<totfact> 0.11143448E+00</totfact>
</mgrwt>
</event>
<event>
12    7  0.1730932E-007  0.1582340E+04  0.7818608E-02  0.8831471E-01
          2   -1    0    0  501    0  0.00000000000E+00  0.00000000000E+00  0.15806862872E+04  0.15806862872E+04  0.00000000000E+00 0. -1.
         -1   -1    0    0    0  501 -0.00000000000E+00 -0.00000000000E+00 -0.39599903810E+03  0.39599903810E+03  0.00000000000E+00 0.  1.
         24    2    1    2    0    0 -0.42525654739E+03 -0.24296551067E+03  0.25758343002E+03  0.55943709735E+03  0.82129604886E+02 0.  0.
        254    2    1    2    0    0  0.42525654739E+03  0.24296551067E+03  0.92710381908E+03  0.14172482279E+04  0.95351752882E+03 0.  0.
         23    2    4    4    0    0 -0.14802295106E+03  0.29397881969E+03  0.22453921855E+02  0.34174344452E+03  0.89163124647E+02 0.  0.
         23    2    4    4    0    0  0.57327949846E+03 -0.51013309017E+02  0.90464989723E+03  0.10755047834E+04  0.84067601184E+02 0.  0.
          2    1    3    3  502    0 -0.70790835625E+02 -0.20373382958E+02  0.13452299359E+02  0.74882451213E+02  0.00000000000E+00 0. -1.
         -1    1    3    3    0  502 -0.35446571177E+03 -0.22259212771E+03  0.24413113066E+03  0.48455464614E+03  0.00000000000E+00 0.  1.
         13    1    5    5    0    0  0.58197651456E+01  0.43685679237E+02  0.18836570389E+02  0.47928327957E+02  0.00000000000E+00 0.  1.
        -13    1    5    5    0    0 -0.15384271621E+03  0.25029314045E+03  0.36173514664E+01  0.29381511656E+03  0.00000000000E+00 0. -1.
          1    1    6    6  503    0  0.42270026553E+03 -0.74211048671E+02  0.67758292606E+03  0.80206073081E+03  0.00000000000E+00 0. -1.
         -1    1    6    6    0  503  0.15057923293E+03  0.23197739654E+02  0.22706697117E+03  0.27344405262E+03  0.00000000000E+00 0.  1.
<mgrwt>
<rscale>  0 0.15823404E+04</rscale>
<asrwt>0</asrwt>
<pdfrwt beam="1">  1        2 0.24318250E+00 0.15823404E+04</pdfrwt>
<pdfrwt beam="2">  1       -1 0.60922930E-01 0.15823404E+04</pdfrwt>
<totfact> 0.34177261E+01</totfact>
</mgrwt>
</event>
<event>
12    7  0.1730932E-007  0.1174354E+04  0.7818608E-02  0.9135605E-01
         -1   -1    0    0    0  501 -0.00000000000E+00  0.00000000000E+00  0.68356010581E+03  0.68356010581E+03  0.00000000000E+00 0.  1.
          2   -1    0    0  501    0  0.00000000000E+00 -0.00000000000E+00 -0.50438437303E+03  0.50438437303E+03  0.00000000000E+00 0. -1.
         24    2    1    2    0    0  0.38689088471E+02  0.80964836876E+02  0.25381999580E+03  0.28078371798E+03  0.79766883106E+02 0.  0.
        254    2    1    2    0    0 -0.38689088471E+02 -0.80964836876E+02 -0.74644263018E+02  0.90716076085E+03  0.89962032528E+03 0.  0.
         23    2    4    4    0    0 -0.35489646966E+03  0.14481602693E+03 -0.25442368938E+03  0.46928708885E+03  0.92605465320E+02 0.  0.
         23    2    4    4    0    0  0.31620738119E+03 -0.22578086380E+03  0.17977942636E+03  0.43787367201E+03  0.91916288612E+02 0.  0.
          2    1    3    3  502    0 -0.18530124950E+02  0.65151904182E+01  0.88549208694E+02  0.90701574392E+02  0.00000000000E+00 0. -1.
         -1    1    3    3    0  502  0.57219213421E+02  0.74449646457E+02  0.16527078710E+03  0.19008214359E+03  0.00000000000E+00 0.  1.
         13    1    5    5    0    0 -0.10619421544E+02 -0.11994741641E+02 -0.10861091152E+02  0.19354824772E+02  0.00000000000E+00 0.  1.
        -13    1    5    5    0    0 -0.34427704812E+03  0.15681076857E+03 -0.24356259823E+03  0.44993226408E+03  0.00000000000E+00 0. -1.
          1    1    6    6  503    0  0.30245233586E+03 -0.19049216435E+03  0.17953794705E+03  0.39999819321E+03  0.00000000000E+00 0. -1.
         -1    1    6    6    0  503  0.13755045335E+02 -0.35288699456E+02  0.24147931318E+00  0.37875478792E+02  0.00000000000E+00 0.  1.
<mgrwt>
<rscale>  0 0.11743544E+04</rscale>
<asrwt>0</asrwt>
<pdfrwt beam="1">  1        2 0.77597596E-01 0.11743544E+04</pdfrwt>
<pdfrwt beam="2">  1       -1 0.10516309E+00 0.11743544E+04</pdfrwt>
<totfact> 0.58475484E+01</totfact>
</mgrwt>
</event>
<event>
12    7  0.1730932E-007  0.1307540E+04  0.7818608E-02  0.9023607E-01
         -1   -1    0    0    0  501 -0.00000000000E+00  0.00000000000E+00  0.31487989887E+03  0.31487989887E+03  0.00000000000E+00 0.  1.
          2   -1    0    0  501    0  0.00000000000E+00 -0.00000000000E+00 -0.13573908293E+04  0.13573908293E+04  0.00000000000E+00 0. -1.
         24    2    1    2    0    0 -0.42912651129E+02  0.10853292180E+03  0.12398656373E+03  0.18690966706E+03  0.77082195829E+02 0.  0.
        254    2    1    2    0    0  0.42912651129E+02 -0.10853292180E+03 -0.11664974941E+04  0.14853610611E+04  0.91211851599E+03 0.  0.
         23    2    4    4    0    0 -0.41489818007E+03  0.25041399530E+02 -0.45303783046E+03  0.62156645322E+03  0.91290790453E+02 0.  0.
         23    2    4    4    0    0  0.45781083120E+03 -0.13357432133E+03 -0.71345966366E+03  0.86379460785E+03  0.98405164489E+02 0.  0.
          2    1    3    3  502    0 -0.14701092858E+02  0.15040793772E+01  0.53928349396E+02  0.55916466757E+02  0.00000000000E+00 0. -1.
         -1    1    3    3    0  502 -0.28211558272E+02  0.10702884242E+03  0.70058214336E+02  0.13099320030E+03  0.00000000000E+00 0.  1.
         13    1    5    5    0    0 -0.63115453041E+01  0.90542505440E+01 -0.35413046426E+02  0.37093111412E+02  0.00000000000E+00 0. -1.
        -13    1    5    5    0    0 -0.40858663477E+03  0.15987148986E+02 -0.41762478404E+03  0.58447334181E+03  0.00000000000E+00 0.  1.
          2    1    6    6  503    0  0.60964812744E+02 -0.41196629086E+02 -0.66268053740E+02  0.99021843991E+02  0.00000000000E+00 0. -1.
         -2    1    6    6    0  503  0.39684601846E+03 -0.92377692241E+02 -0.64719160992E+03  0.76477276386E+03  0.00000000000E+00 0.  1.
<mgrwt>
<rscale>  0 0.13075398E+04</rscale>
<asrwt>0</asrwt>
<pdfrwt beam="1">  1        2 0.20882936E+00 0.13075398E+04</pdfrwt>
<pdfrwt beam="2">  1       -1 0.48443061E-01 0.13075398E+04</pdfrwt>
<totfact> 0.72852388E+01</totfact>
</mgrwt>
</event>
<event>
12    7  0.1730932E-007  0.2661089E+04  0.7818608E-02  0.8347742E-01
          2   -1    0    0  501    0  0.00000000000E+00  0.00000000000E+00  0.23806836401E+04  0.23806836401E+04  0.00000000000E+00 0. -1.
         -1   -1    0    0    0  501 -0.00000000000E+00 -0.00000000000E+00 -0.74363028571E+03  0.74363028571E+03  0.00000000000E+00 0.  1.
         24    2    1    2    0    0  0.97313054201E+03 -0.43209259399E+03  0.13572226427E+03  0.10760891126E+04  0.76551837097E+02 0.  0.
        254    2    1    2    0    0 -0.97313054201E+03  0.43209259399E+03  0.15013310901E+04  0.20482248131E+04  0.89863384173E+03 0.  0.
         23    2    4    4    0    0  0.32744445833E+02 -0.17811503810E+03  0.31828363011E+03  0.37739601551E+03  0.91247563227E+02 0.  0.
         23    2    4    4    0    0 -0.10058749878E+04  0.61020763209E+03  0.11830474600E+04  0.16708287976E+04  0.89049048258E+02 0.  0.
          2    1    3    3  502    0  0.19127655881E+03 -0.58817395315E+02  0.74335745617E+01  0.20025350427E+03  0.00000000000E+00 0. -1.
         -1    1    3    3    0  502  0.78185398320E+03 -0.37327519867E+03  0.12828868971E+03  0.87583560838E+03  0.00000000000E+00 0.  1.
         13    1    5    5    0    0  0.61834908114E+02 -0.94085084729E+02  0.15657067379E+03  0.19284692095E+03  0.00000000000E+00 0. -1.
        -13    1    5    5    0    0 -0.29090462281E+02 -0.84029953372E+02  0.16171295632E+03  0.18454909456E+03  0.00000000000E+00 0.  1.
          2    1    6    6  503    0 -0.24658045633E+03  0.10892859002E+03  0.29002990202E+03  0.39596048191E+03  0.00000000000E+00 0.  1.
         -2    1    6    6    0  503 -0.75929453151E+03  0.50127904207E+03  0.89301755796E+03  0.12748683157E+04  0.00000000000E+00 0. -1.
<mgrwt>
<rscale>  0 0.26610888E+04</rscale>
<asrwt>0</asrwt>
<pdfrwt beam="1">  1        2 0.36625902E+00 0.26610888E+04</pdfrwt>
<pdfrwt beam="2">  1       -1 0.11440466E+00 0.26610888E+04</pdfrwt>
<totfact> 0.28361077E+00</totfact>
</mgrwt>
</event>
<event>
12    7  0.1730932E-007  0.2218458E+04  0.7818608E-02  0.8510785E-01
         -3   -1    0    0    0  501 -0.00000000000E+00  0.00000000000E+00  0.38764904169E+03  0.38764904169E+03  0.00000000000E+00 0.  1.
          2   -1    0    0  501    0  0.00000000000E+00 -0.00000000000E+00 -0.31739759576E+04  0.31739759576E+04  0.00000000000E+00 0. -1.
         24    2    1    2    0    0 -0.58035668211E+03 -0.65892864052E+03 -0.97144571477E+03  0.13119558316E+04  0.80749585632E+02 0.  0.
        254    2    1    2    0    0  0.58035668211E+03  0.65892864052E+03 -0.18148812011E+04  0.22496691677E+04  0.99810658648E+03 0.  0.
         23    2    4    4    0    0  0.43797973875E+03  0.88537623491E+03 -0.10994251027E+04  0.14808001863E+04  0.91193785463E+02 0.  0.
         23    2    4    4    0    0  0.14237694336E+03 -0.22644759438E+03 -0.71545609845E+03  0.76886898135E+03  0.87933922199E+02 0.  0.
          2    1    3    3  502    0 -0.20828063762E+03 -0.21628496565E+03 -0.38659551180E+03  0.48950597557E+03  0.00000000000E+00 0. -1.
         -1    1    3    3    0  502 -0.37207604448E+03 -0.44264367488E+03 -0.58485020297E+03  0.82244985604E+03  0.00000000000E+00 0.  1.
         13    1    5    5    0    0  0.36346837799E+03  0.74801855630E+03 -0.87337601624E+03  0.12059961393E+04  0.00000000000E+00 0.  1.
        -13    1    5    5    0    0  0.74511360756E+02  0.13735767860E+03 -0.22604908642E+03  0.27480404696E+03  0.00000000000E+00 0. -1.
          2    1    6    6  503    0 -0.10081009119E+02 -0.83559933163E+01 -0.60904902543E+02  0.62296520953E+02  0.00000000000E+00 0. -1.
         -2    1    6    6    0  503  0.15245795248E+03 -0.21809160107E+03 -0.65455119590E+03  0.70657246040E+03  0.00000000000E+00 0.  1.
<mgrwt>
<rscale>  0 0.22184578E+04</rscale>
<asrwt>0</asrwt>
<pdfrwt beam="1">  1        2 0.48830399E+00 0.22184578E+04</pdfrwt>
<pdfrwt beam="2">  1       -3 0.59638314E-01 0.22184578E+04</pdfrwt>
<totfact> 0.21845802E+00</totfact>
</mgrwt>
</event>
<event>
12    7  0.1730932E-007  0.3734748E+04  0.7818608E-02  0.8060305E-01
          2   -1    0    0  501    0  0.00000000000E+00  0.00000000000E+00  0.20508406738E+04  0.20508406738E+04  0.00000000000E+00 0. -1.
         -1   -1    0    0    0  501 -0.00000000000E+00 -0.00000000000E+00 -0.17003202851E+04  0.17003202851E+04  0.00000000000E+00 0.  1.
         24    2    1    2    0    0 -0.95209479403E+03 -0.14708546143E+04  0.31884038644E+03  0.17826591589E+04  0.79477614988E+02 0.  0.
        254    2    1    2    0    0  0.95209479403E+03  0.14708546143E+04  0.31680002265E+02  0.19685018001E+04  0.89671507241E+03 0.  0.
         23    2    4    4    0    0  0.86795928331E+03  0.13968922560E+04 -0.23622783566E+03  0.16639228524E+04  0.90412256486E+02 0.  0.
         23    2    4    4    0    0  0.84135510724E+02  0.73962358305E+02  0.26790783792E+03  0.30457894765E+03  0.91894021120E+02 0.  0.
          4    1    3    3  502    0 -0.95252219872E+03 -0.14612087862E+04  0.31731028662E+03  0.17728833785E+04  0.00000000000E+00 0. -1.
         -3    1    3    3    0  502  0.42740468930E+00 -0.96458281353E+01  0.15300998181E+01  0.97757803084E+01  0.00000000000E+00 0.  1.
         13    1    5    5    0    0  0.47323606928E+03  0.83354696131E+03 -0.11387640112E+03  0.96525683044E+03  0.00000000000E+00 0. -1.
        -13    1    5    5    0    0  0.39472321404E+03  0.56334529471E+03 -0.12235143454E+03  0.69866602201E+03  0.00000000000E+00 0.  1.
          3    1    6    6  503    0  0.32527237338E+01 -0.17034368775E+02  0.70879603690E+02  0.72970323766E+02  0.00000000000E+00 0. -1.
         -3    1    6    6    0  503  0.80882786990E+02  0.90996727080E+02  0.19702823423E+03  0.23160862388E+03  0.00000000000E+00 0.  1.
<mgrwt>
<rscale>  0 0.37347482E+04</rscale>
<asrwt>0</asrwt>
<pdfrwt beam="1">  1        2 0.31551395E+00 0.37347482E+04</pdfrwt>
<pdfrwt beam="2">  1       -1 0.26158773E+00 0.37347482E+04</pdfrwt>
<totfact> 0.33628246E-01</totfact>
</mgrwt>
</event>
<event>
12    7  0.1730932E-007  0.1565937E+04  0.7818608E-02  0.8841752E-01
          2   -1    0    0  501    0  0.00000000000E+00  0.00000000000E+00  0.52073820802E+03  0.52073820802E+03  0.00000000000E+00 0. -1.
         -1   -1    0    0    0  501 -0.00000000000E+00 -0.00000000000E+00 -0.11772517901E+04  0.11772517901E+04  0.00000000000E+00 0.  1.
         24    2    1    2    0    0 -0.38762159527E+03 -0.16093069669E+03  0.11212154636E+03  0.44167519739E+03  0.79727966085E+02 0.  0.
        254    2    1    2    0    0  0.38762159527E+03  0.16093069669E+03 -0.76863512841E+03  0.12563148007E+04  0.90076507900E+03 0.  0.
         23    2    4    4    0    0  0.58413461014E+03  0.34387304886E+03 -0.66804543278E+03  0.95619062985E+03  0.92487317258E+02 0.  0.
         23    2    4    4    0    0 -0.19651301487E+03 -0.18294235217E+03 -0.10058969563E+03  0.30012417084E+03  0.88718441288E+02 0.  0.
          4    1    3    3  502    0 -0.32373679199E+03 -0.99963304559E+02  0.85462572857E+02  0.34943100049E+03  0.00000000000E+00 0. -1.
         -3    1    3    3    0  502 -0.63884803281E+02 -0.60967392128E+02  0.26658973506E+02  0.92244196899E+02  0.00000000000E+00 0.  1.
         13    1    5    5    0    0  0.46111323514E+03  0.31033839765E+03 -0.52502707150E+03  0.76458404541E+03  0.00000000000E+00 0.  1.
        -13    1    5    5    0    0  0.12302137500E+03  0.33534651205E+02 -0.14301836128E+03  0.19160658444E+03  0.00000000000E+00 0. -1.
          1    1    6    6  503    0 -0.20420618503E+03 -0.16496422879E+03 -0.88016615318E+02  0.27687594218E+03  0.00000000000E+00 0. -1.
         -1    1    6    6    0  503  0.76931701615E+01 -0.17978123377E+02 -0.12573080308E+02  0.23248228657E+02  0.00000000000E+00 0.  1.
<mgrwt>
<rscale>  0 0.15659374E+04</rscale>
<asrwt>0</asrwt>
<pdfrwt beam="1">  1        2 0.80113572E-01 0.15659374E+04</pdfrwt>
<pdfrwt beam="2">  1       -1 0.18111566E+00 0.15659374E+04</pdfrwt>
<totfact> 0.13182423E+01</totfact>
</mgrwt>
</event>
<event>
12    7  0.1730932E-007  0.3195444E+04  0.7818608E-02  0.8190021E-01
         -1   -1    0    0    0  501 -0.00000000000E+00  0.00000000000E+00  0.99156241040E+03  0.99156241040E+03  0.00000000000E+00 0.  1.
          2   -1    0    0  501    0  0.00000000000E+00 -0.00000000000E+00 -0.25744381248E+04  0.25744381248E+04  0.00000000000E+00 0. -1.
         24    2    1    2    0    0  0.77952366476E+03  0.27735796553E+03  0.62624204866E+03  0.10417234215E+04  0.91782342557E+02 0.  0.
        254    2    1    2    0    0 -0.77952366476E+03 -0.27735796553E+03 -0.22091177631E+04  0.25242771137E+04  0.89843701549E+03 0.  0.
         23    2    4    4    0    0  0.46064609031E+02 -0.18913874663E+03 -0.66727876449E+02  0.22500825618E+03  0.90998308618E+02 0.  0.
         23    2    4    4    0    0 -0.82558827379E+03 -0.88219218899E+02 -0.21423898866E+04  0.22992688576E+04  0.86163940199E+02 0.  0.
          4    1    3    3  502    0  0.33247418081E+03  0.12743802020E+03  0.21410839913E+03  0.41547796148E+03  0.00000000000E+00 0. -1.
         -3    1    3    3    0  502  0.44704948395E+03  0.14991994533E+03  0.41213364952E+03  0.62624546000E+03  0.00000000000E+00 0.  1.
         13    1    5    5    0    0  0.33657774271E+02 -0.17920672899E+03 -0.29738481034E+02  0.18474922121E+03  0.00000000000E+00 0. -1.
        -13    1    5    5    0    0  0.12406834760E+02 -0.99320176362E+01 -0.36989395414E+02  0.40259034963E+02  0.00000000000E+00 0.  1.
          3    1    6    6  503    0 -0.82676604962E+03 -0.90801645995E+02 -0.21319132131E+04  0.22884145140E+04  0.00000000000E+00 0. -1.
         -3    1    6    6    0  503  0.11777758363E+01  0.25824270961E+01 -0.10476673518E+02  0.10854343537E+02  0.00000000000E+00 0.  1.
<mgrwt>
<rscale>  0 0.31954443E+04</rscale>
<asrwt>0</asrwt>
<pdfrwt beam="1">  1        2 0.39606740E+00 0.31954443E+04</pdfrwt>
<pdfrwt beam="2">  1       -1 0.15254806E+00 0.31954443E+04</pdfrwt>
<totfact> 0.10048753E+00</totfact>
</mgrwt>
</event>
<event>
12    7  0.1730932E-007  0.3143545E+04  0.7818608E-02  0.8203888E-01
         -1   -1    0    0    0  501 -0.00000000000E+00  0.00000000000E+00  0.11521221867E+04  0.11521221867E+04  0.00000000000E+00 0.  1.
          2   -1    0    0  501    0  0.00000000000E+00 -0.00000000000E+00 -0.21442765198E+04  0.21442765198E+04  0.00000000000E+00 0. -1.
         24    2    1    2    0    0  0.81039800690E+03 -0.10857889111E+04  0.64498802202E+02  0.13587905671E+04  0.80431465282E+02 0.  0.
        254    2    1    2    0    0 -0.81039800690E+03  0.10857889111E+04 -0.10566531353E+04  0.19376081394E+04  0.89561541097E+03 0.  0.
         23    2    4    4    0    0 -0.77072766623E+03  0.11950906509E+04 -0.78072863928E+03  0.16248409726E+04  0.91149211305E+02 0.  0.
         23    2    4    4    0    0 -0.39670340670E+02 -0.10930173984E+03 -0.27592449601E+03  0.31276716673E+03  0.90379017606E+02 0.  0.
          2    1    3    3  502    0  0.94450942359E+02 -0.17388629020E+03  0.10443430460E+02  0.19815773432E+03  0.00000000000E+00 0. -1.
         -1    1    3    3    0  502  0.71594706454E+03 -0.91190262091E+03  0.54055371741E+02  0.11606328327E+04  0.00000000000E+00 0.  1.
         13    1    5    5    0    0 -0.43265151560E+03  0.71114133255E+03 -0.41181801650E+03  0.92871061560E+03  0.00000000000E+00 0.  1.
        -13    1    5    5    0    0 -0.33807615063E+03  0.48394931839E+03 -0.36891062278E+03  0.69613035704E+03  0.00000000000E+00 0. -1.
          1    1    6    6  503    0  0.24359081659E+02 -0.60846995349E+02 -0.14592627162E+03  0.15996936723E+03  0.00000000000E+00 0. -1.
         -1    1    6    6    0  503 -0.64029422329E+02 -0.48454744492E+02 -0.12999822439E+03  0.15279779950E+03  0.00000000000E+00 0.  1.
<mgrwt>
<rscale>  0 0.31435448E+04</rscale>
<asrwt>0</asrwt>
<pdfrwt beam="1">  1        2 0.32988870E+00 0.31435448E+04</pdfrwt>
<pdfrwt beam="2">  1       -1 0.17724957E+00 0.31435448E+04</pdfrwt>
<totfact> 0.11630213E+00</totfact>
</mgrwt>
</event>
<event>
12    7  0.1730932E-007  0.2842811E+04  0.7818608E-02  0.8290099E-01
          2   -1    0    0  501    0  0.00000000000E+00  0.00000000000E+00  0.11406382039E+04  0.11406382039E+04  0.00000000000E+00 0. -1.
         -1   -1    0    0    0  501 -0.00000000000E+00 -0.00000000000E+00 -0.17712834008E+04  0.17712834008E+04  0.00000000000E+00 0.  1.
         24    2    1    2    0    0 -0.77404866369E+02  0.19470577430E+03  0.10049228508E+04  0.10296625340E+04  0.80206894431E+02 0.  0.
        254    2    1    2    0    0  0.77404866369E+02 -0.19470577430E+03 -0.16355680477E+04  0.18822590707E+04  0.90769737186E+03 0.  0.
         23    2    4    4    0    0 -0.14137437292E+03  0.18651206997E+03 -0.12942666876E+04  0.13184520154E+04  0.91738720099E+02 0.  0.
         23    2    4    4    0    0  0.21877923929E+03 -0.38121784427E+03 -0.34130136012E+03  0.56380705536E+03  0.90555932518E+02 0.  0.
          2    1    3    3  502    0 -0.86760462488E+02  0.18556418369E+03  0.85611194414E+03  0.88027785671E+03  0.00000000000E+00 0. -1.
         -1    1    3    3    0  502  0.93555961196E+01  0.91415906132E+01  0.14881090669E+03  0.14938467728E+03  0.00000000000E+00 0.  1.
         13    1    5    5    0    0 -0.11605374217E+03  0.18056457251E+03 -0.12379337705E+04  0.12564044158E+04  0.00000000000E+00 0. -1.
        -13    1    5    5    0    0 -0.25320630752E+02  0.59474974543E+01 -0.56332917034E+02  0.62047599544E+02  0.00000000000E+00 0.  1.
          4    1    6    6  503    0  0.24956469348E+02 -0.51614993971E+01 -0.23586499011E+02  0.34724478022E+02  0.00000000000E+00 0.  1.
         -4    1    6    6    0  503  0.19382276994E+03 -0.37605634487E+03 -0.31771486111E+03  0.52908257733E+03  0.00000000000E+00 0. -1.
<mgrwt>
<rscale>  0 0.28428109E+04</rscale>
<asrwt>0</asrwt>
<pdfrwt beam="1">  1        2 0.17548280E+00 0.28428109E+04</pdfrwt>
<pdfrwt beam="2">  1       -1 0.27250514E+00 0.28428109E+04</pdfrwt>
<totfact> 0.10115556E+00</totfact>
</mgrwt>
</event>
<event>
12    7  0.1730932E-007  0.1417214E+04  0.7818608E-02  0.8941451E-01
          2   -1    0    0  501    0  0.00000000000E+00  0.00000000000E+00  0.23754560610E+04  0.23754560610E+04  0.00000000000E+00 0. -1.
         -1   -1    0    0    0  501 -0.00000000000E+00 -0.00000000000E+00 -0.21138012606E+03  0.21138012606E+03  0.00000000000E+00 0.  1.
         24    2    1    2    0    0  0.14999222726E+03  0.13975682363E+03 -0.15792231632E+02  0.22082403229E+03  0.80524658742E+02 0.  0.
        254    2    1    2    0    0 -0.14999222726E+03 -0.13975682363E+03  0.21798681666E+04  0.23660121548E+04  0.89674893641E+03 0.  0.
         23    2    4    4    0    0  0.18962321753E+02  0.18480738112E+03  0.61892626391E+02  0.21469739680E+03  0.88039407234E+02 0.  0.
         23    2    4    4    0    0 -0.16895454901E+03 -0.32456420475E+03  0.21179755402E+04  0.21513147580E+04  0.91908848694E+02 0.  0.
          4    1    3    3  502    0  0.28176601755E+02 -0.71228367489E+01 -0.64756789313E+01  0.29775663006E+02  0.00000000000E+00 0. -1.
         -3    1    3    3    0  502  0.12181562551E+03  0.14687966038E+03 -0.93165527011E+01  0.19104836928E+03  0.00000000000E+00 0.  1.
         13    1    5    5    0    0  0.19432558382E+02  0.11108785554E+03  0.80628338338E+02  0.13863284213E+03  0.00000000000E+00 0. -1.
        -13    1    5    5    0    0 -0.47023662859E+00  0.73719525583E+02 -0.18735711947E+02  0.76064554668E+02  0.00000000000E+00 0.  1.
          1    1    6    6  503    0 -0.15470265304E+03 -0.20821463874E+03  0.13985679356E+04  0.14224199510E+04  0.00000000000E+00 0. -1.
         -1    1    6    6    0  503 -0.14251895974E+02 -0.11634956602E+03  0.71940760467E+03  0.72889480703E+03  0.00000000000E+00 0.  1.
<mgrwt>
<rscale>  0 0.14172145E+04</rscale>
<asrwt>0</asrwt>
<pdfrwt beam="1">  1        2 0.36545476E+00 0.14172145E+04</pdfrwt>
<pdfrwt beam="2">  1       -1 0.32520021E-01 0.14172145E+04</pdfrwt>
<totfact> 0.40329679E+01</totfact>
</mgrwt>
</event>
<event>
12    7  0.1730932E-007  0.1597881E+04  0.7818608E-02  0.8821851E-01
          2   -1    0    0  501    0  0.00000000000E+00  0.00000000000E+00  0.11213937303E+04  0.11213937303E+04  0.00000000000E+00 0. -1.
         -1   -1    0    0    0  501 -0.00000000000E+00 -0.00000000000E+00 -0.56920738187E+03  0.56920738187E+03  0.00000000000E+00 0.  1.
         24    2    1    2    0    0 -0.48320645323E+03 -0.22171371324E+03  0.13622911174E+03  0.55466153664E+03  0.80284508194E+02 0.  0.
        254    2    1    2    0    0  0.48320645323E+03  0.22171371324E+03  0.41595723667E+03  0.11359395755E+04  0.91361526334E+03 0.  0.
         23    2    4    4    0    0  0.44918520540E+03  0.53465533964E+03  0.16679984245E+03  0.72398537759E+03  0.93321801193E+02 0.  0.
         23    2    4    4    0    0  0.34021247838E+02 -0.31294162640E+03  0.24915739423E+03  0.41195419793E+03  0.92395601927E+02 0.  0.
          2    1    3    3  502    0 -0.17650370155E+03 -0.10250699684E+03  0.87269594355E+02  0.22198473632E+03  0.00000000000E+00 0. -1.
         -1    1    3    3    0  502 -0.30670275169E+03 -0.11920671640E+03  0.48959517389E+02  0.33267680032E+03  0.00000000000E+00 0.  1.
         13    1    5    5    0    0  0.14376530300E+03  0.16937098873E+03  0.88865172527E+01  0.22233750102E+03  0.00000000000E+00 0. -1.
        -13    1    5    5    0    0  0.30541990239E+03  0.36528435091E+03  0.15791332520E+03  0.50164787657E+03  0.00000000000E+00 0.  1.
          1    1    6    6  503    0  0.64306561004E+02 -0.23483650503E+03  0.19772836318E+03  0.31365589981E+03  0.00000000000E+00 0. -1.
         -1    1    6    6    0  503 -0.30285313167E+02 -0.78105121368E+02  0.51429031048E+02  0.98298298114E+02  0.00000000000E+00 0.  1.
<mgrwt>
<rscale>  0 0.15978806E+04</rscale>
<asrwt>0</asrwt>
<pdfrwt beam="1">  1        2 0.17252211E+00 0.15978806E+04</pdfrwt>
<pdfrwt beam="2">  1       -1 0.87570366E-01 0.15978806E+04</pdfrwt>
<totfact> 0.29665138E+01</totfact>
</mgrwt>
</event>
<event>
12    7  0.1730932E-007  0.2001771E+04  0.7818608E-02  0.8605793E-01
         -1   -1    0    0    0  501 -0.00000000000E+00  0.00000000000E+00  0.15596169031E+04  0.15596169031E+04  0.00000000000E+00 0.  1.
          2   -1    0    0  501    0  0.00000000000E+00 -0.00000000000E+00 -0.64231923534E+03  0.64231923534E+03  0.00000000000E+00 0. -1.
         24    2    1    2    0    0  0.27210451115E+03 -0.55071738918E+03 -0.19371455224E+03  0.64897271915E+03  0.79433964525E+02 0.  0.
        254    2    1    2    0    0 -0.27210451115E+03  0.55071738918E+03  0.11110122200E+04  0.15529634193E+04  0.89443653823E+03 0.  0.
         23    2    4    4    0    0 -0.56007835427E+03  0.29200253619E+03  0.90042810929E+03  0.11034272254E+04  0.88473825034E+02 0.  0.
         23    2    4    4    0    0  0.28797384313E+03  0.25871485299E+03  0.21058411069E+03  0.44953619385E+03  0.88740139890E+02 0.  0.
          4    1    3    3  502    0  0.20088679340E+03 -0.46747649594E+03 -0.17346014844E+03  0.53756692710E+03  0.00000000000E+00 0. -1.
         -3    1    3    3    0  502  0.71217717743E+02 -0.83240893242E+02 -0.20254403798E+02  0.11140579205E+03  0.00000000000E+00 0.  1.
         13    1    5    5    0    0 -0.35916393561E+03  0.23245774902E+03  0.62289206056E+03  0.75566517508E+03  0.00000000000E+00 0.  1.
        -13    1    5    5    0    0 -0.20091441867E+03  0.59544787171E+02  0.27753604874E+03  0.34776205034E+03  0.00000000000E+00 0. -1.
          3    1    6    6  503    0  0.34568511296E+02  0.68366994891E+02  0.66261484161E+02  0.10128974404E+03  0.00000000000E+00 0. -1.
         -3    1    6    6    0  503  0.25340533183E+03  0.19034785809E+03  0.14432262653E+03  0.34824644982E+03  0.00000000000E+00 0.  1.
<mgrwt>
<rscale>  0 0.20017712E+04</rscale>
<asrwt>0</asrwt>
<pdfrwt beam="1">  1        2 0.98818345E-01 0.20017712E+04</pdfrwt>
<pdfrwt beam="2">  1       -1 0.23994106E+00 0.20017712E+04</pdfrwt>
<totfact> 0.39268356E+00</totfact>
</mgrwt>
</event>
<event>
12    7  0.1730932E-007  0.1487555E+04  0.7818608E-02  0.8892771E-01
         -1   -1    0    0    0  501 -0.00000000000E+00  0.00000000000E+00  0.63522825816E+03  0.63522825816E+03  0.00000000000E+00 0.  1.
          2   -1    0    0  501    0  0.00000000000E+00 -0.00000000000E+00 -0.87087567548E+03  0.87087567548E+03  0.00000000000E+00 0. -1.
         24    2    1    2    0    0 -0.30603479818E+03 -0.20534130760E+03 -0.35966656915E+03  0.52019210011E+03  0.73603191136E+02 0.  0.
        254    2    1    2    0    0  0.30603479818E+03  0.20534130760E+03  0.12401915183E+03  0.98591183353E+03  0.90599064188E+03 0.  0.
         23    2    4    4    0    0  0.69965569167E+02 -0.17061763852E+03 -0.29951626808E+03  0.36557689434E+03  0.99653958228E+02 0.  0.
         23    2    4    4    0    0  0.23606922901E+03  0.37595894612E+03  0.42353541991E+03  0.62033493919E+03  0.91429616672E+02 0.  0.
          4    1    3    3  502    0 -0.25558910014E+03 -0.18560222831E+03 -0.33574317882E+03  0.46097446501E+03  0.00000000000E+00 0. -1.
         -3    1    3    3    0  502 -0.50445698038E+02 -0.19739079287E+02 -0.23923390329E+02  0.59217635097E+02  0.00000000000E+00 0.  1.
         13    1    5    5    0    0  0.56987670324E+02 -0.18284135622E+03 -0.27884380619E+03  0.33827861943E+03  0.00000000000E+00 0. -1.
        -13    1    5    5    0    0  0.12977898843E+02  0.12223717697E+02 -0.20672461887E+02  0.27298274912E+02  0.00000000000E+00 0.  1.
          3    1    6    6  503    0  0.21280928507E+03  0.37348089030E+03  0.40183054567E+03  0.58842463805E+03  0.00000000000E+00 0. -1.
         -3    1    6    6    0  503  0.23259943938E+02  0.24780558149E+01  0.21704874241E+02  0.31910301133E+02  0.00000000000E+00 0.  1.
<mgrwt>
<rscale>  0 0.14875548E+04</rscale>
<asrwt>0</asrwt>
<pdfrwt beam="1">  1        2 0.13398087E+00 0.14875548E+04</pdfrwt>
<pdfrwt beam="2">  1       -1 0.97727425E-01 0.14875548E+04</pdfrwt>
<totfact> 0.34045736E+01</totfact>
</mgrwt>
</event>
<event>
12    7  0.1730932E-007  0.1495140E+04  0.7818608E-02  0.8887691E-01
         -1   -1    0    0    0  501 -0.00000000000E+00  0.00000000000E+00  0.15241589933E+03  0.15241589933E+03  0.00000000000E+00 0.  1.
          2   -1    0    0  501    0  0.00000000000E+00 -0.00000000000E+00 -0.36666833531E+04  0.36666833531E+04  0.00000000000E+00 0. -1.
         24    2    1    2    0    0 -0.19192581261E+03 -0.11907093723E+03 -0.22133816929E+04  0.22263256084E+04  0.80335489412E+02 0.  0.
        254    2    1    2    0    0  0.19192581261E+03  0.11907093723E+03 -0.13008857609E+04  0.15927736440E+04  0.89084831055E+03 0.  0.
         23    2    4    4    0    0  0.52563527083E+03  0.17886658113E+03 -0.85932852629E+03  0.10271268848E+04  0.90875902487E+02 0.  0.
         23    2    4    4    0    0 -0.33370945822E+03 -0.59795643897E+02 -0.44155723458E+03  0.56564675913E+03  0.10022945263E+03 0.  0.
          4    1    3    3  502    0 -0.17252324537E+03 -0.80803508604E+02 -0.19700867466E+04  0.19792764502E+04  0.00000000000E+00 0. -1.
         -3    1    3    3    0  502 -0.19402567245E+02 -0.38267428626E+02 -0.24329494623E+03  0.24704915821E+03  0.00000000000E+00 0.  1.
         13    1    5    5    0    0  0.52196705113E+03  0.16669284212E+03 -0.82373642810E+03  0.98933200143E+03  0.00000000000E+00 0. -1.
        -13    1    5    5    0    0  0.36682197003E+01  0.12173739008E+02 -0.35592098192E+02  0.37794883396E+02  0.00000000000E+00 0.  1.
          1    1    6    6  503    0 -0.21739011643E+03  0.87207724400E+01 -0.29251764488E+03  0.36455601374E+03  0.00000000000E+00 0. -1.
         -1    1    6    6    0  503 -0.11631934179E+03 -0.68516416337E+02 -0.14903958970E+03  0.20109074539E+03  0.00000000000E+00 0.  1.
<mgrwt>
<rscale>  0 0.14951399E+04</rscale>
<asrwt>0</asrwt>
<pdfrwt beam="1">  1        2 0.56410514E+00 0.14951399E+04</pdfrwt>
<pdfrwt beam="2">  1       -1 0.23448600E-01 0.14951399E+04</pdfrwt>
<totfact> 0.10809575E+01</totfact>
</mgrwt>
</event>
<event>
12    7  0.1730932E-007  0.1952253E+04  0.7818608E-02  0.8629275E-01
         -1   -1    0    0    0  501 -0.00000000000E+00  0.00000000000E+00  0.37919835186E+03  0.37919835186E+03  0.00000000000E+00 0.  1.
          2   -1    0    0  501    0  0.00000000000E+00 -0.00000000000E+00 -0.25127289812E+04  0.25127289812E+04  0.00000000000E+00 0. -1.
         24    2    1    2    0    0  0.36020234542E+02 -0.73864136385E+03 -0.11419368036E+04  0.13627907147E+04  0.79311707600E+02 0.  0.
        254    2    1    2    0    0 -0.36020234542E+02  0.73864136385E+03 -0.99159382573E+03  0.15291366184E+04  0.89895047732E+03 0.  0.
         23    2    4    4    0    0 -0.10662172127E+03 -0.10243224788E+03 -0.54093506774E+03  0.56794429806E+03  0.89941210451E+02 0.  0.
         23    2    4    4    0    0  0.70601486726E+02  0.84107361174E+03 -0.45065875800E+03  0.96119232030E+03  0.91694984367E+02 0.  0.
          2    1    3    3  502    0  0.41686920119E+02 -0.21968136411E+03 -0.37958345106E+03  0.44054658932E+03  0.00000000000E+00 0. -1.
         -1    1    3    3    0  502 -0.56666855762E+01 -0.51895999975E+03 -0.76235335251E+03  0.92224412535E+03  0.00000000000E+00 0.  1.
         13    1    5    5    0    0 -0.27090630430E+02 -0.52186982557E+02 -0.35207924663E+03  0.35695543043E+03  0.00000000000E+00 0. -1.
        -13    1    5    5    0    0 -0.79531090838E+02 -0.50245265325E+02 -0.18885582111E+03  0.21098886763E+03  0.00000000000E+00 0.  1.
          2    1    6    6  503    0  0.27803182976E+02  0.65606611889E+02 -0.24770637115E+02  0.75437583274E+02  0.00000000000E+00 0. -1.
         -2    1    6    6    0  503  0.42798303749E+02  0.77546699985E+03 -0.42588812088E+03  0.88575473703E+03  0.00000000000E+00 0.  1.
<mgrwt>
<rscale>  0 0.19522527E+04</rscale>
<asrwt>0</asrwt>
<pdfrwt beam="1">  1        2 0.38657369E+00 0.19522527E+04</pdfrwt>
<pdfrwt beam="2">  1       -1 0.58338207E-01 0.19522527E+04</pdfrwt>
<totfact> 0.10826070E+01</totfact>
</mgrwt>
</event>
<event>
12    7  0.1730932E-007  0.1376992E+04  0.7818608E-02  0.8970643E-01
         -1   -1    0    0    0  501 -0.00000000000E+00  0.00000000000E+00  0.21834547909E+03  0.21834547909E+03  0.00000000000E+00 0.  1.
          2   -1    0    0  501    0  0.00000000000E+00 -0.00000000000E+00 -0.21709938126E+04  0.21709938126E+04  0.00000000000E+00 0. -1.
         24    2    1    2    0    0  0.32824252784E+03  0.13422681030E+03 -0.27726205267E+03  0.45666171201E+03  0.76848420184E+02 0.  0.
        254    2    1    2    0    0 -0.32824252784E+03 -0.13422681030E+03 -0.16753862809E+04  0.19326775797E+04  0.89585905326E+03 0.  0.
         23    2    4    4    0    0 -0.27696865897E+03 -0.49689039753E+03 -0.11417831929E+04  0.12790473364E+04  0.93174694950E+02 0.  0.
         23    2    4    4    0    0 -0.51273868871E+02  0.36266358723E+03 -0.53360308794E+03  0.65363024335E+03  0.91358373654E+02 0.  0.
          4    1    3    3  502    0  0.89410322316E+02  0.75217070664E+02 -0.90072984905E+02  0.14752950914E+03  0.00000000000E+00 0. -1.
         -3    1    3    3    0  502  0.23883220552E+03  0.59009739633E+02 -0.18718906776E+03  0.30913220288E+03  0.00000000000E+00 0.  1.
         13    1    5    5    0    0 -0.12151057029E+03 -0.15179246898E+03 -0.32289273364E+03  0.37691575952E+03  0.00000000000E+00 0. -1.
        -13    1    5    5    0    0 -0.15545808867E+03 -0.34509792855E+03 -0.81889045929E+03  0.90213157684E+03  0.00000000000E+00 0.  1.
          3    1    6    6  503    0  0.18133322541E+02  0.17248904696E+03 -0.27643405831E+03  0.32633889947E+03  0.00000000000E+00 0. -1.
         -3    1    6    6    0  503 -0.69407191412E+02  0.19017454027E+03 -0.25716902962E+03  0.32729134389E+03  0.00000000000E+00 0.  1.
<mgrwt>
<rscale>  0 0.13769919E+04</rscale>
<asrwt>0</asrwt>
<pdfrwt beam="1">  1        2 0.33399904E+00 0.13769919E+04</pdfrwt>
<pdfrwt beam="2">  1       -1 0.33591613E-01 0.13769919E+04</pdfrwt>
<totfact> 0.49798298E+01</totfact>
</mgrwt>
</event>
<event>
12    7  0.1730932E-007  0.1513748E+04  0.7818608E-02  0.8875361E-01
         -1   -1    0    0    0  501 -0.00000000000E+00  0.00000000000E+00  0.11677491249E+04  0.11677491249E+04  0.00000000000E+00 0.  1.
          2   -1    0    0  501    0  0.00000000000E+00 -0.00000000000E+00 -0.49056649553E+03  0.49056649553E+03  0.00000000000E+00 0. -1.
         24    2    1    2    0    0  0.37416280271E+02  0.12598588227E+03  0.69799220269E+03  0.71443767443E+03  0.77172890832E+02 0.  0.
        254    2    1    2    0    0 -0.37416280271E+02 -0.12598588227E+03 -0.20809573299E+02  0.94387794601E+03  0.93445177407E+03 0.  0.
         23    2    4    4    0    0 -0.27070215304E+03  0.15335788121E+03  0.30622134166E+03  0.44578520168E+03  0.90303048467E+02 0.  0.
         23    2    4    4    0    0  0.23328587277E+03 -0.27934376348E+03 -0.32703091495E+03  0.49809274433E+03  0.93230499228E+02 0.  0.
          2    1    3    3  502    0  0.13005389539E+02  0.23186905396E+02  0.40080595468E+02  0.48096017215E+02  0.00000000000E+00 0. -1.
         -1    1    3    3    0  502  0.24410890732E+02  0.10279897687E+03  0.65791160722E+03  0.66634165722E+03  0.00000000000E+00 0.  1.
         13    1    5    5    0    0 -0.16426395646E+03  0.12112645249E+03  0.24487571628E+03  0.31877638135E+03  0.00000000000E+00 0.  1.
        -13    1    5    5    0    0 -0.10643819658E+03  0.32231428724E+02  0.61345625373E+02  0.12700882033E+03  0.00000000000E+00 0. -1.
          2    1    6    6  503    0  0.66992030390E+02 -0.66209755384E+02 -0.14238144397E+03  0.17071654703E+03  0.00000000000E+00 0.  1.
         -2    1    6    6    0  503  0.16629384238E+03 -0.21313400810E+03 -0.18464947099E+03  0.32737619730E+03  0.00000000000E+00 0. -1.
<mgrwt>
<rscale>  0 0.15137485E+04</rscale>
<asrwt>0</asrwt>
<pdfrwt beam="1">  1        2 0.75471769E-01 0.15137485E+04</pdfrwt>
<pdfrwt beam="2">  1       -1 0.17965371E+00 0.15137485E+04</pdfrwt>
<totfact> 0.14540142E+01</totfact>
</mgrwt>
</event>
<event>
12    7  0.1730932E-007  0.2161821E+04  0.7818608E-02  0.8534489E-01
         -1   -1    0    0    0  501 -0.00000000000E+00  0.00000000000E+00  0.56763586671E+03  0.56763586671E+03  0.00000000000E+00 0.  1.
          2   -1    0    0  501    0  0.00000000000E+00 -0.00000000000E+00 -0.20583048252E+04  0.20583048252E+04  0.00000000000E+00 0. -1.
         24    2    1    2    0    0 -0.64748596801E+02 -0.57502746080E+03 -0.15119844579E+04  0.16208014783E+04  0.77791192357E+02 0.  0.
        254    2    1    2    0    0  0.64748596801E+02  0.57502746080E+03  0.21315499417E+02  0.10051392136E+04  0.82158476544E+03 0.  0.
         23    2    4    4    0    0 -0.23819807336E+03  0.63233373375E+03  0.45896829808E+02  0.68378455556E+03  0.94183472240E+02 0.  0.
         23    2    4    4    0    0  0.30294667017E+03 -0.57306272958E+02 -0.24581330391E+02  0.32135465806E+03  0.87200232632E+02 0.  0.
          4    1    3    3  502    0 -0.27342435788E+02 -0.36662300084E+03 -0.10529837153E+04  0.11153182228E+04  0.00000000000E+00 0. -1.
         -3    1    3    3    0  502 -0.37406161013E+02 -0.20840445996E+03 -0.45900074263E+03  0.50548325545E+03  0.00000000000E+00 0.  1.
         13    1    5    5    0    0 -0.17581841433E+03  0.38075847997E+03  0.62673942180E+02  0.42404853250E+03  0.00000000000E+00 0. -1.
        -13    1    5    5    0    0 -0.62379659036E+02  0.25157525378E+03 -0.16777112373E+02  0.25973602307E+03  0.00000000000E+00 0.  1.
          1    1    6    6  503    0  0.25124599693E+03 -0.78983349050E+02 -0.29810381509E+02  0.26505014478E+03  0.00000000000E+00 0. -1.
         -1    1    6    6    0  503  0.51700673234E+02  0.21677076092E+02  0.52290511185E+01  0.56304513286E+02  0.00000000000E+00 0.  1.
<mgrwt>
<rscale>  0 0.21618211E+04</rscale>
<asrwt>0</asrwt>
<pdfrwt beam="1">  1        2 0.31666227E+00 0.21618211E+04</pdfrwt>
<pdfrwt beam="2">  1       -1 0.87328597E-01 0.21618211E+04</pdfrwt>
<totfact> 0.83508096E+00</totfact>
</mgrwt>
</event>
<event>
12    7  0.1730932E-007  0.1327210E+04  0.7818608E-02  0.9008262E-01
         -1   -1    0    0    0  501 -0.00000000000E+00  0.00000000000E+00  0.98354528013E+03  0.98354528013E+03  0.00000000000E+00 0.  1.
          2   -1    0    0  501    0  0.00000000000E+00 -0.00000000000E+00 -0.44773887035E+03  0.44773887035E+03  0.00000000000E+00 0. -1.
         24    2    1    2    0    0  0.66122712815E+02 -0.21889476745E+03 -0.14432958118E+03  0.28213157742E+03  0.80498860907E+02 0.  0.
        254    2    1    2    0    0 -0.66122712815E+02  0.21889476745E+03  0.68013599096E+03  0.11491525731E+04  0.89759653386E+03 0.  0.
         23    2    4    4    0    0  0.16998716188E+03  0.47406758380E+03  0.19636337919E+03  0.54654222281E+03  0.80710070041E+02 0.  0.
         23    2    4    4    0    0 -0.23610987469E+03 -0.25517281635E+03  0.48377261177E+03  0.60261035026E+03  0.90786866879E+02 0.  0.
          4    1    3    3  502    0  0.58964999959E+01 -0.12652513278E+03 -0.10671099958E+03  0.16562190485E+03  0.00000000000E+00 0. -1.
         -3    1    3    3    0  502  0.60226212819E+02 -0.92369634670E+02 -0.37618581605E+02  0.11650967257E+03  0.00000000000E+00 0.  1.
         13    1    5    5    0    0  0.10345448239E+02  0.72547160466E+02  0.55980961093E+02  0.92217063475E+02  0.00000000000E+00 0. -1.
        -13    1    5    5    0    0  0.15964171364E+03  0.40152042334E+03  0.14038241810E+03  0.45432515933E+03  0.00000000000E+00 0.  1.
          4    1    6    6  503    0 -0.95582326900E+02 -0.12749880434E+03  0.29258791153E+03  0.33316604313E+03  0.00000000000E+00 0.  1.
         -4    1    6    6    0  503 -0.14052754779E+03 -0.12767401202E+03  0.19118470025E+03  0.26944430712E+03  0.00000000000E+00 0. -1.
<mgrwt>
<rscale>  0 0.13272098E+04</rscale>
<asrwt>0</asrwt>
<pdfrwt beam="1">  1        2 0.68882903E-01 0.13272098E+04</pdfrwt>
<pdfrwt beam="2">  1       -1 0.15131466E+00 0.13272098E+04</pdfrwt>
<totfact> 0.26678154E+01</totfact>
</mgrwt>
</event>
<event>
12    7  0.1730932E-007  0.1272404E+04  0.7818608E-02  0.9051740E-01
         -1   -1    0    0    0  501 -0.00000000000E+00  0.00000000000E+00  0.54007182468E+03  0.54007182468E+03  0.00000000000E+00 0.  1.
          2   -1    0    0  501    0  0.00000000000E+00 -0.00000000000E+00 -0.74944285369E+03  0.74944285369E+03  0.00000000000E+00 0. -1.
         24    2    1    2    0    0 -0.13308051756E+03 -0.16899044216E+03  0.17271973716E+03  0.28745829395E+03  0.80820600463E+02 0.  0.
        254    2    1    2    0    0  0.13308051756E+03  0.16899044216E+03 -0.38209076618E+03  0.10020563844E+04  0.90103021607E+03 0.  0.
         23    2    4    4    0    0 -0.29079111919E+03  0.32311120243E+03 -0.30057000785E+03  0.53490192686E+03  0.82567654730E+02 0.  0.
         23    2    4    4    0    0  0.42387163674E+03 -0.15412076027E+03 -0.81520758327E+02  0.46715445756E+03  0.90373004807E+02 0.  0.
          4    1    3    3  502    0  0.98902284159E+01 -0.23976947335E+01  0.92204922792E+01  0.13732553878E+02  0.00000000000E+00 0. -1.
         -3    1    3    3    0  502 -0.14297074597E+03 -0.16659274743E+03  0.16349924488E+03  0.27372574007E+03  0.00000000000E+00 0.  1.
         13    1    5    5    0    0 -0.10082274207E+03  0.99695144761E+02 -0.53884962359E+02  0.15168367208E+03  0.00000000000E+00 0.  1.
        -13    1    5    5    0    0 -0.18996837712E+03  0.22341605767E+03 -0.24668504549E+03  0.38321825478E+03  0.00000000000E+00 0. -1.
          2    1    6    6  503    0  0.20140841341E+03 -0.62971556149E+02 -0.82941821808E+02  0.22673798023E+03  0.00000000000E+00 0.  1.
         -2    1    6    6    0  503  0.22246322334E+03 -0.91149204124E+02  0.14210634801E+01  0.24041647733E+03  0.00000000000E+00 0. -1.
<mgrwt>
<rscale>  0 0.12724040E+04</rscale>
<asrwt>0</asrwt>
<pdfrwt beam="1">  1        2 0.11529890E+00 0.12724040E+04</pdfrwt>
<pdfrwt beam="2">  1       -1 0.83087973E-01 0.12724040E+04</pdfrwt>
<totfact> 0.60566672E+01</totfact>
</mgrwt>
</event>
<event>
12    7  0.1730932E-007  0.1676226E+04  0.7818608E-02  0.8775041E-01
         -1   -1    0    0    0  501 -0.00000000000E+00  0.00000000000E+00  0.20596589535E+03  0.20596589535E+03  0.00000000000E+00 0.  1.
          2   -1    0    0  501    0  0.00000000000E+00 -0.00000000000E+00 -0.34104337513E+04  0.34104337513E+04  0.00000000000E+00 0. -1.
         24    2    1    2    0    0  0.49789765985E+03  0.22656988429E+03 -0.66186935934E+03  0.86236549966E+03  0.79794824472E+02 0.  0.
        254    2    1    2    0    0 -0.49789765985E+03 -0.22656988429E+03 -0.25425984966E+04  0.27540341470E+04  0.90590340304E+03 0.  0.
         23    2    4    4    0    0 -0.60241668043E+03  0.89509608120E+02 -0.10097738948E+04  0.11828060812E+04  0.92027605548E+02 0.  0.
         23    2    4    4    0    0  0.10451902057E+03 -0.31607949241E+03 -0.15328246018E+04  0.15712280658E+04  0.91519963859E+02 0.  0.
          2    1    3    3  502    0  0.90548533349E+02  0.64348657274E+02 -0.98394419608E+02  0.14839558078E+03  0.00000000000E+00 0. -1.
         -1    1    3    3    0  502  0.40734912650E+03  0.16222122702E+03 -0.56347493974E+03  0.71396991888E+03  0.00000000000E+00 0.  1.
         13    1    5    5    0    0 -0.58623313421E+03  0.96784451685E+02 -0.95047980104E+03  0.11209140779E+04  0.00000000000E+00 0. -1.
        -13    1    5    5    0    0 -0.16183546211E+02 -0.72748435651E+01 -0.59294093807E+02  0.61892003339E+02  0.00000000000E+00 0.  1.
          4    1    6    6  503    0  0.85436333884E+02 -0.12089826128E+03 -0.72241068361E+03  0.73742318415E+03  0.00000000000E+00 0.  1.
         -4    1    6    6    0  503  0.19082686689E+02 -0.19518123113E+03 -0.81041391817E+03  0.83380488167E+03  0.00000000000E+00 0. -1.
<mgrwt>
<rscale>  0 0.16762256E+04</rscale>
<asrwt>0</asrwt>
<pdfrwt beam="1">  1        2 0.52468212E+00 0.16762256E+04</pdfrwt>
<pdfrwt beam="2">  1       -1 0.31687060E-01 0.16762256E+04</pdfrwt>
<totfact> 0.95193807E+00</totfact>
</mgrwt>
</event>
<event>
12    7  0.1730932E-007  0.1257164E+04  0.7818608E-02  0.9064242E-01
         -1   -1    0    0    0  501 -0.00000000000E+00  0.00000000000E+00  0.71794925182E+03  0.71794925182E+03  0.00000000000E+00 0.  1.
          2   -1    0    0  501    0  0.00000000000E+00 -0.00000000000E+00 -0.55033864769E+03  0.55033864769E+03  0.00000000000E+00 0. -1.
         24    2    1    2    0    0  0.80219933143E+02 -0.12990205044E+03 -0.20177855689E+03  0.26544545347E+03  0.80230432902E+02 0.  0.
        254    2    1    2    0    0 -0.80219933143E+02  0.12990205044E+03  0.36938916102E+03  0.10028424460E+04  0.91974716032E+03 0.  0.
         23    2    4    4    0    0 -0.20962071611E+03 -0.25702597900E+03  0.45879895415E+03  0.57475918241E+03  0.99239301336E+02 0.  0.
         23    2    4    4    0    0  0.12940078297E+03  0.38692802944E+03 -0.89409793131E+02  0.42808326363E+03  0.93825939334E+02 0.  0.
          2    1    3    3  502    0  0.73331630369E+02 -0.12377780821E+03 -0.20900360535E+03  0.25373407510E+03  0.00000000000E+00 0. -1.
         -1    1    3    3    0  502  0.68883027744E+01 -0.61242422357E+01  0.72250484595E+01  0.11711378370E+02  0.00000000000E+00 0.  1.
         13    1    5    5    0    0 -0.28271620151E+02 -0.10748215407E+03  0.14836181242E+03  0.18537239636E+03  0.00000000000E+00 0.  1.
        -13    1    5    5    0    0 -0.18134909596E+03 -0.14954382493E+03  0.31043714173E+03  0.38938678604E+03  0.00000000000E+00 0. -1.
          1    1    6    6  503    0  0.35088034628E+02  0.43972987379E+02  0.13411351856E+02  0.57833019563E+02  0.00000000000E+00 0. -1.
         -1    1    6    6    0  503  0.94312748338E+02  0.34295504206E+03 -0.10282114499E+03  0.37025024407E+03  0.00000000000E+00 0.  1.
<mgrwt>
<rscale>  0 0.12571638E+04</rscale>
<asrwt>0</asrwt>
<pdfrwt beam="1">  1        2 0.84667484E-01 0.12571638E+04</pdfrwt>
<pdfrwt beam="2">  1       -1 0.11045373E+00 0.12571638E+04</pdfrwt>
<totfact> 0.46745009E+01</totfact>
</mgrwt>
</event>
<event>
12    7  0.1730932E-007  0.2087515E+04  0.7818608E-02  0.8566763E-01
          2   -1    0    0  501    0  0.00000000000E+00  0.00000000000E+00  0.26773349673E+04  0.26773349673E+04  0.00000000000E+00 0. -1.
         -1   -1    0    0    0  501 -0.00000000000E+00 -0.00000000000E+00 -0.40690815235E+03  0.40690815235E+03  0.00000000000E+00 0.  1.
         24    2    1    2    0    0 -0.19042035610E+03  0.16973629549E+03 -0.27064072536E+03  0.38055997839E+03  0.80679445375E+02 0.  0.
        254    2    1    2    0    0  0.19042035610E+03 -0.16973629549E+03  0.25410675403E+04  0.27036831413E+04  0.88758546742E+03 0.  0.
         23    2    4    4    0    0  0.52667755869E+03 -0.16282976335E+03  0.13156777090E+04  0.14294749049E+04  0.92129728784E+02 0.  0.
         23    2    4    4    0    0 -0.33625720259E+03 -0.69065321456E+01  0.12253898313E+04  0.12742082364E+04  0.94391655683E+02 0.  0.
          4    1    3    3  502    0 -0.14331624429E+02 -0.87390492729E+01 -0.15475778162E+02  0.22831253813E+02  0.00000000000E+00 0. -1.
         -3    1    3    3    0  502 -0.17608873167E+03  0.17847534476E+03 -0.25516494719E+03  0.35772872457E+03  0.00000000000E+00 0.  1.
         13    1    5    5    0    0  0.37465265580E+03 -0.15825157897E+03  0.94418861142E+03  0.10280565688E+04  0.00000000000E+00 0.  1.
        -13    1    5    5    0    0  0.15202490289E+03 -0.45781843730E+01  0.37148909762E+03  0.40141833605E+03  0.00000000000E+00 0. -1.
          1    1    6    6  503    0 -0.55857761070E+02 -0.36817852114E+02  0.26086870906E+03  0.26931046596E+03  0.00000000000E+00 0. -1.
         -1    1    6    6    0  503 -0.28039944152E+03  0.29911319968E+02  0.96452112225E+03  0.10048977705E+04  0.00000000000E+00 0.  1.
<mgrwt>
<rscale>  0 0.20875147E+04</rscale>
<asrwt>0</asrwt>
<pdfrwt beam="1">  1        2 0.41189768E+00 0.20875147E+04</pdfrwt>
<pdfrwt beam="2">  1       -1 0.62601256E-01 0.20875147E+04</pdfrwt>
<totfact> 0.74491358E+00</totfact>
</mgrwt>
</event>
<event>
12    7  0.1730932E-007  0.2950501E+04  0.7818608E-02  0.8258009E-01
         -3   -1    0    0    0  501 -0.00000000000E+00  0.00000000000E+00  0.12542466592E+04  0.12542466592E+04  0.00000000000E+00 0.  1.
          2   -1    0    0  501    0  0.00000000000E+00 -0.00000000000E+00 -0.17351958960E+04  0.17351958960E+04  0.00000000000E+00 0. -1.
         24    2    1    2    0    0 -0.29888965219E+03 -0.19389520702E+03 -0.15252751308E+04  0.15686518959E+04  0.85288746275E+02 0.  0.
        254    2    1    2    0    0  0.29888965219E+03  0.19389520702E+03  0.10443258941E+04  0.14207906593E+04  0.89504142309E+03 0.  0.
         23    2    4    4    0    0  0.41362406731E+02 -0.33398718350E+03  0.25406874592E+03  0.43193261288E+03  0.93576530065E+02 0.  0.
         23    2    4    4    0    0  0.25752724546E+03  0.52788239052E+03  0.79025714814E+03  0.98885804642E+03  0.91398990169E+02 0.  0.
          4    1    3    3  502    0 -0.16965918252E+03 -0.11572567303E+03 -0.10521161728E+04  0.10719725326E+04  0.00000000000E+00 0. -1.
         -3    1    3    3    0  502 -0.12923046967E+03 -0.78169533993E+02 -0.47315895806E+03  0.49667936330E+03  0.00000000000E+00 0.  1.
         13    1    5    5    0    0 -0.15393625867E+02 -0.23066325699E+03  0.17584151612E+03  0.29045264784E+03  0.00000000000E+00 0. -1.
        -13    1    5    5    0    0  0.56756032598E+02 -0.10332392651E+03  0.78227229793E+02  0.14147996504E+03  0.00000000000E+00 0.  1.
          3    1    6    6  503    0  0.21383325745E+03  0.47302583879E+03  0.73364430336E+03  0.89872802895E+03  0.00000000000E+00 0. -1.
         -3    1    6    6    0  503  0.43693988008E+02  0.54856551732E+02  0.56612844777E+02  0.90130017473E+02  0.00000000000E+00 0.  1.
<mgrwt>
<rscale>  0 0.29505007E+04</rscale>
<asrwt>0</asrwt>
<pdfrwt beam="1">  1        2 0.26695321E+00 0.29505007E+04</pdfrwt>
<pdfrwt beam="2">  1       -3 0.19296103E+00 0.29505007E+04</pdfrwt>
<totfact> 0.82756470E-01</totfact>
</mgrwt>
</event>
<event>
12    7  0.1730932E-007  0.2275484E+04  0.7818608E-02  0.8487651E-01
         -1   -1    0    0    0  501 -0.00000000000E+00  0.00000000000E+00  0.39405380563E+03  0.39405380563E+03  0.00000000000E+00 0.  1.
          2   -1    0    0  501    0  0.00000000000E+00 -0.00000000000E+00 -0.32849753485E+04  0.32849753485E+04  0.00000000000E+00 0. -1.
         24    2    1    2    0    0 -0.51824839979E+03 -0.18569051378E+03 -0.24861860577E+04  0.25476633421E+04  0.80031371096E+02 0.  0.
        254    2    1    2    0    0  0.51824839979E+03  0.18569051378E+03 -0.40473548510E+03  0.11313658120E+04  0.90172912606E+03 0.  0.
         23    2    4    4    0    0  0.34102996156E+03  0.97955705463E+02 -0.68491213707E+03  0.77638399505E+03  0.88151672398E+02 0.  0.
         23    2    4    4    0    0  0.17721843823E+03  0.87734808321E+02  0.28017665197E+03  0.35498181691E+03  0.91702576803E+02 0.  0.
          4    1    3    3  502    0 -0.50765486816E+03 -0.17164819543E+03 -0.23488774586E+04  0.24092326338E+04  0.00000000000E+00 0. -1.
         -1    1    3    3    0  502 -0.10593531628E+02 -0.14042318351E+02 -0.13730859912E+03  0.13843070833E+03  0.00000000000E+00 0.  1.
         13    1    5    5    0    0  0.84288574264E+02 -0.12291287498E+02 -0.18551192609E+03  0.20413307968E+03  0.00000000000E+00 0.  1.
        -13    1    5    5    0    0  0.25674138730E+03  0.11024699296E+03 -0.49940021098E+03  0.57225091537E+03  0.00000000000E+00 0. -1.
          2    1    6    6  503    0  0.96558568755E+02  0.19781984200E+01  0.15898999601E+03  0.18602496956E+03  0.00000000000E+00 0. -1.
         -2    1    6    6    0  503  0.80659869472E+02  0.85756609901E+02  0.12118665596E+03  0.16895684735E+03  0.00000000000E+00 0.  1.
<mgrwt>
<rscale>  0 0.22754842E+04</rscale>
<asrwt>0</asrwt>
<pdfrwt beam="1">  1        2 0.50538083E+00 0.22754842E+04</pdfrwt>
<pdfrwt beam="2">  1       -1 0.60623661E-01 0.22754842E+04</pdfrwt>
<totfact> 0.32567335E+00</totfact>
</mgrwt>
</event>
<event>
12    7  0.1730932E-007  0.1729715E+04  0.7818608E-02  0.8744596E-01
          2   -1    0    0  501    0  0.00000000000E+00  0.00000000000E+00  0.10370900114E+04  0.10370900114E+04  0.00000000000E+00 0. -1.
         -1   -1    0    0    0  501 -0.00000000000E+00 -0.00000000000E+00 -0.72122801081E+03  0.72122801081E+03  0.00000000000E+00 0.  1.
         24    2    1    2    0    0  0.37438406450E+03 -0.13095280128E+03 -0.37867507270E+03  0.55433505772E+03  0.81120167790E+02 0.  0.
        254    2    1    2    0    0 -0.37438406450E+03  0.13095280128E+03  0.69453707329E+03  0.12039829645E+04  0.89993398019E+03 0.  0.
         23    2    4    4    0    0  0.18070323513E+03 -0.20592460222E+03  0.67295464828E+02  0.29653499593E+03  0.91354930019E+02 0.  0.
         23    2    4    4    0    0 -0.55508729963E+03  0.33687740350E+03  0.62724160846E+03  0.90744796856E+03  0.91768649692E+02 0.  0.
          4    1    3    3  502    0  0.26884905646E+02 -0.28417945501E+02 -0.17850865636E+02  0.43000362580E+02  0.00000000000E+00 0. -1.
         -3    1    3    3    0  502  0.34749915885E+03 -0.10253485577E+03 -0.36082420706E+03  0.51133469514E+03  0.00000000000E+00 0.  1.
         13    1    5    5    0    0  0.15751986274E+03 -0.20966493101E+03  0.49037879652E+02  0.26678943775E+03  0.00000000000E+00 0. -1.
        -13    1    5    5    0    0  0.23183372394E+02  0.37403287943E+01  0.18257585176E+02  0.29745558181E+02  0.00000000000E+00 0.  1.
          1    1    6    6  503    0 -0.23894600722E+03  0.15440147800E+03  0.33750015665E+03  0.44140838972E+03  0.00000000000E+00 0. -1.
         -1    1    6    6    0  503 -0.31614129241E+03  0.18247592550E+03  0.28974145182E+03  0.46603957885E+03  0.00000000000E+00 0.  1.
<mgrwt>
<rscale>  0 0.17297149E+04</rscale>
<asrwt>0</asrwt>
<pdfrwt beam="1">  1        2 0.15955231E+00 0.17297149E+04</pdfrwt>
<pdfrwt beam="2">  1       -1 0.11095816E+00 0.17297149E+04</pdfrwt>
<totfact> 0.19315784E+01</totfact>
</mgrwt>
</event>
<event>
12    7  0.1730932E-007  0.1336163E+04  0.7818608E-02  0.9001369E-01
          2   -1    0    0  501    0  0.00000000000E+00  0.00000000000E+00  0.24974613350E+03  0.24974613350E+03  0.00000000000E+00 0. -1.
         -1   -1    0    0    0  501 -0.00000000000E+00 -0.00000000000E+00 -0.17871454993E+04  0.17871454993E+04  0.00000000000E+00 0.  1.
         24    2    1    2    0    0 -0.30601300505E+02 -0.35527925247E+03 -0.36623583242E+03  0.51739981198E+03  0.80088036958E+02 0.  0.
        254    2    1    2    0    0  0.30601300505E+02  0.35527925247E+03 -0.11711635334E+04  0.15194918208E+04  0.90003976845E+03 0.  0.
         23    2    4    4    0    0 -0.18598991236E+03  0.52917127003E+03 -0.10678626898E+04  0.12096300070E+04  0.90882061135E+02 0.  0.
         23    2    4    4    0    0  0.21659121287E+03 -0.17389201756E+03 -0.10330084355E+03  0.30986181379E+03  0.90515700870E+02 0.  0.
          4    1    3    3  502    0 -0.42214671575E+02 -0.34707476818E+03 -0.34074388393E+03  0.48821037232E+03  0.00000000000E+00 0. -1.
         -3    1    3    3    0  502  0.11613371070E+02 -0.82044842874E+01 -0.25491948490E+02  0.29189439663E+02  0.00000000000E+00 0.  1.
         13    1    5    5    0    0 -0.68008465581E+00 -0.23923484644E+01 -0.17122524624E-01  0.24871951060E+01  0.00000000000E+00 0. -1.
        -13    1    5    5    0    0 -0.18530982771E+03  0.53156361850E+03 -0.10678455673E+04  0.12071428119E+04  0.00000000000E+00 0.  1.
          3    1    6    6  503    0  0.10401105402E+03 -0.13460679910E+03 -0.39530103213E+02  0.17464225944E+03  0.00000000000E+00 0. -1.
         -3    1    6    6    0  503  0.11258015885E+03 -0.39285218465E+02 -0.63770740333E+02  0.13521955435E+03  0.00000000000E+00 0.  1.
<mgrwt>
<rscale>  0 0.13361627E+04</rscale>
<asrwt>0</asrwt>
<pdfrwt beam="1">  1        2 0.38422481E-01 0.13361627E+04</pdfrwt>
<pdfrwt beam="2">  1       -1 0.27494547E+00 0.13361627E+04</pdfrwt>
<totfact> 0.72658776E+00</totfact>
</mgrwt>
</event>
<event>
12    7  0.1730932E-007  0.2108913E+04  0.7818608E-02  0.8557327E-01
         -1   -1    0    0    0  501 -0.00000000000E+00  0.00000000000E+00  0.41816697832E+03  0.41816697832E+03  0.00000000000E+00 0.  1.
          2   -1    0    0  501    0  0.00000000000E+00 -0.00000000000E+00 -0.26589348100E+04  0.26589348100E+04  0.00000000000E+00 0. -1.
         24    2    1    2    0    0  0.47047027337E+02 -0.53041478648E+03  0.70671641963E+02  0.54300645860E+03  0.79424584384E+02 0.  0.
        254    2    1    2    0    0 -0.47047027337E+02  0.53041478648E+03 -0.23114394736E+04  0.25340953297E+04  0.89181468443E+03 0.  0.
         23    2    4    4    0    0  0.23062356644E+03 -0.15561708203E+03 -0.61668051087E+03  0.68278957947E+03  0.92210908957E+02 0.  0.
         23    2    4    4    0    0 -0.27767059378E+03  0.68603186851E+03 -0.16947589628E+04  0.18513057502E+04  0.85932274477E+02 0.  0.
          2    1    3    3  502    0  0.15089614123E+02 -0.72749986618E+02  0.36977799426E+02  0.82991654145E+02  0.00000000000E+00 0. -1.
         -1    1    3    3    0  502  0.31957413214E+02 -0.45766479986E+03  0.33693842536E+02  0.46001480445E+03  0.00000000000E+00 0.  1.
         13    1    5    5    0    0  0.17046621690E+03 -0.11563794312E+03 -0.34634762679E+03  0.40297337824E+03  0.00000000000E+00 0.  1.
        -13    1    5    5    0    0  0.60157349535E+02 -0.39979138915E+02 -0.27033288409E+03  0.27981620123E+03  0.00000000000E+00 0. -1.
          3    1    6    6  503    0 -0.22371320075E+03  0.52610675695E+03 -0.12165104930E+04  0.13441479441E+04  0.00000000000E+00 0. -1.
         -3    1    6    6    0  503 -0.53957393023E+02  0.15992511155E+03 -0.47824846972E+03  0.50715780617E+03  0.00000000000E+00 0.  1.
<mgrwt>
<rscale>  0 0.21089132E+04</rscale>
<asrwt>0</asrwt>
<pdfrwt beam="1">  1        2 0.40906689E+00 0.21089132E+04</pdfrwt>
<pdfrwt beam="2">  1       -1 0.64333382E-01 0.21089132E+04</pdfrwt>
<totfact> 0.72176505E+00</totfact>
</mgrwt>
</event>
<event>
12    7  0.1730932E-007  0.1126595E+04  0.7818608E-02  0.9179652E-01
          2   -1    0    0  501    0  0.00000000000E+00  0.00000000000E+00  0.15485047609E+04  0.15485047609E+04  0.00000000000E+00 0. -1.
         -1   -1    0    0    0  501 -0.00000000000E+00 -0.00000000000E+00 -0.20490989611E+03  0.20490989611E+03  0.00000000000E+00 0.  1.
         24    2    1    2    0    0 -0.12083750270E+03  0.95616596407E+02  0.45789280275E+03  0.48959653489E+03  0.79339224812E+02 0.  0.
        254    2    1    2    0    0  0.12083750270E+03 -0.95616596407E+02  0.88570206204E+03  0.12638181221E+04  0.88827015459E+03 0.  0.
         23    2    4    4    0    0 -0.24406830228E+03 -0.34024195224E+03  0.28484924632E+03  0.51386347990E+03  0.87078473853E+02 0.  0.
         23    2    4    4    0    0  0.36490580498E+03  0.24462535583E+03  0.60085281573E+03  0.74995464222E+03  0.91706313837E+02 0.  0.
          4    1    3    3  502    0 -0.61058603674E+02  0.43977082025E+02  0.33616274548E+03  0.34448153546E+03  0.00000000000E+00 0. -1.
         -3    1    3    3    0  502 -0.59778899027E+02  0.51639514382E+02  0.12173005727E+03  0.14511499942E+03  0.00000000000E+00 0.  1.
         13    1    5    5    0    0 -0.19012816859E+03 -0.22562083707E+03  0.23700553446E+03  0.37845092942E+03  0.00000000000E+00 0. -1.
        -13    1    5    5    0    0 -0.53940133686E+02 -0.11462111517E+03  0.47843711860E+02  0.13541255048E+03  0.00000000000E+00 0.  1.
          3    1    6    6  503    0  0.23795354462E+03  0.12285642841E+03  0.30619205448E+03  0.40677901326E+03  0.00000000000E+00 0. -1.
         -3    1    6    6    0  503  0.12695226036E+03  0.12176892743E+03  0.29466076125E+03  0.34317562896E+03  0.00000000000E+00 0.  1.
<mgrwt>
<rscale>  0 0.11265948E+04</rscale>
<asrwt>0</asrwt>
<pdfrwt beam="1">  1        2 0.23823149E+00 0.11265948E+04</pdfrwt>
<pdfrwt beam="2">  1       -1 0.31524600E-01 0.11265948E+04</pdfrwt>
<totfact> 0.12579403E+02</totfact>
</mgrwt>
</event>
<event>
12    7  0.1730932E-007  0.1680446E+04  0.7818608E-02  0.8772596E-01
          2   -1    0    0  501    0  0.00000000000E+00  0.00000000000E+00  0.37280505854E+04  0.37280505854E+04  0.00000000000E+00 0. -1.
         -1   -1    0    0    0  501 -0.00000000000E+00 -0.00000000000E+00 -0.18936822529E+03  0.18936822529E+03  0.00000000000E+00 0.  1.
         24    2    1    2    0    0 -0.36591217093E+03 -0.36998093305E+03  0.19443390236E+04  0.20143573746E+04  0.80023660814E+02 0.  0.
        254    2    1    2    0    0  0.36591217093E+03  0.36998093305E+03  0.15943433365E+04  0.19030614361E+04  0.89940788698E+03 0.  0.
         23    2    4    4    0    0  0.17618956454E+03 -0.57162332496E+02  0.13541978938E+04  0.13698428089E+04  0.91143243037E+02 0.  0.
         23    2    4    4    0    0  0.18972260639E+03  0.42714326554E+03  0.24014544272E+03  0.53321862714E+03  0.90588266326E+02 0.  0.
          2    1    3    3  502    0 -0.22168994695E+03 -0.27622821287E+03  0.12777401210E+04  0.13259216700E+04  0.00000000000E+00 0. -1.
         -1    1    3    3    0  502 -0.14422222398E+03 -0.93752720180E+02  0.66659890266E+03  0.68843570466E+03  0.00000000000E+00 0.  1.
         13    1    5    5    0    0  0.13098667443E+03 -0.46412205329E+02  0.12187504433E+04  0.12266475634E+04  0.00000000000E+00 0.  1.
        -13    1    5    5    0    0  0.45202890111E+02 -0.10750127167E+02  0.13544745043E+03  0.14319524551E+03  0.00000000000E+00 0. -1.
          2    1    6    6  503    0  0.72899891630E+02  0.18544600202E+03  0.15217540429E+03  0.25072288993E+03  0.00000000000E+00 0. -1.
         -2    1    6    6    0  503  0.11682271476E+03  0.24169726352E+03  0.87970038423E+02  0.28249573721E+03  0.00000000000E+00 0.  1.
<mgrwt>
<rscale>  0 0.16804456E+04</rscale>
<asrwt>0</asrwt>
<pdfrwt beam="1">  1        2 0.57354619E+00 0.16804456E+04</pdfrwt>
<pdfrwt beam="2">  1       -1 0.29133576E-01 0.16804456E+04</pdfrwt>
<totfact> 0.65727954E+00</totfact>
</mgrwt>
</event>
<event>
12    7  0.1730932E-007  0.3639391E+04  0.7818608E-02  0.8081528E-01
         -1   -1    0    0    0  501 -0.00000000000E+00  0.00000000000E+00  0.89515935052E+03  0.89515935052E+03  0.00000000000E+00 0.  1.
          2   -1    0    0  501    0  0.00000000000E+00 -0.00000000000E+00 -0.36991080077E+04  0.36991080077E+04  0.00000000000E+00 0. -1.
         24    2    1    2    0    0 -0.19555993013E+03  0.28431222735E+03  0.79774758950E+03  0.87273086627E+03  0.78618188050E+02 0.  0.
        254    2    1    2    0    0  0.19555993013E+03 -0.28431222735E+03 -0.36016962467E+04  0.37215364920E+04  0.87094252322E+03 0.  0.
         23    2    4    4    0    0  0.29229264624E+03 -0.13290485784E+03 -0.43477731360E+03  0.54821691125E+03  0.91715740627E+02 0.  0.
         23    2    4    4    0    0 -0.96732716109E+02 -0.15140736951E+03 -0.31669189331E+04  0.31733195807E+04  0.91105558010E+02 0.  0.
          4    1    3    3  502    0 -0.27274502860E+02  0.54401463536E+01  0.52414524647E+02  0.59336128055E+02  0.00000000000E+00 0. -1.
         -3    1    3    3    0  502 -0.16828542727E+03  0.27887208100E+03  0.74533306485E+03  0.81339473821E+03  0.00000000000E+00 0.  1.
         13    1    5    5    0    0  0.15501254857E+03 -0.36453475942E+02 -0.15647224044E+03  0.22325166999E+03  0.00000000000E+00 0.  1.
        -13    1    5    5    0    0  0.13728009767E+03 -0.96451381895E+02 -0.27830507316E+03  0.32496524126E+03  0.00000000000E+00 0. -1.
          2    1    6    6  503    0 -0.10729101967E+03 -0.10584773201E+03 -0.21160676431E+04  0.21214281452E+04  0.00000000000E+00 0.  1.
         -2    1    6    6    0  503  0.10558303565E+02 -0.45559637500E+02 -0.10508512900E+04  0.10518914355E+04  0.00000000000E+00 0. -1.
<mgrwt>
<rscale>  0 0.36393907E+04</rscale>
<asrwt>0</asrwt>
<pdfrwt beam="1">  1        2 0.56909355E+00 0.36393907E+04</pdfrwt>
<pdfrwt beam="2">  1       -1 0.13771682E+00 0.36393907E+04</pdfrwt>
<totfact> 0.23531329E-01</totfact>
</mgrwt>
</event>
<event>
12    7  0.1730932E-007  0.1612825E+04  0.7818608E-02  0.8812708E-01
         -1   -1    0    0    0  501 -0.00000000000E+00  0.00000000000E+00  0.37965791299E+03  0.37965791299E+03  0.00000000000E+00 0.  1.
          2   -1    0    0  501    0  0.00000000000E+00 -0.00000000000E+00 -0.17128606911E+04  0.17128606911E+04  0.00000000000E+00 0. -1.
         24    2    1    2    0    0 -0.35079169013E+03 -0.16016202573E+03  0.57878213909E+02  0.39934419591E+03  0.86134864078E+02 0.  0.
        254    2    1    2    0    0  0.35079169013E+03  0.16016202573E+03 -0.13910809920E+04  0.16931744081E+04  0.88488788318E+03 0.  0.
         23    2    4    4    0    0  0.13171030981E+03 -0.78948638731E+01  0.90092543696E+02  0.18364428715E+03  0.90546248897E+02 0.  0.
         23    2    4    4    0    0  0.21908138032E+03  0.16805688961E+03 -0.14811735357E+04  0.15095301210E+04  0.92554708422E+02 0.  0.
          2    1    3    3  502    0 -0.19707719921E+03 -0.10747313013E+03  0.73247298837E+02  0.23612510018E+03  0.00000000000E+00 0. -1.
         -1    1    3    3    0  502 -0.15371449092E+03 -0.52688895599E+02 -0.15369084927E+02  0.16321909573E+03  0.00000000000E+00 0.  1.
         13    1    5    5    0    0  0.43795968474E+02  0.40343194958E+02  0.38060130139E+02  0.70669892742E+02  0.00000000000E+00 0. -1.
        -13    1    5    5    0    0  0.87914341335E+02 -0.48238058831E+02  0.52032413557E+02  0.11297439441E+03  0.00000000000E+00 0.  1.
          1    1    6    6  503    0 -0.62972906341E+01  0.18471516013E+02 -0.70252063829E+02  0.72912312029E+02  0.00000000000E+00 0. -1.
         -1    1    6    6    0  503  0.22537867095E+03  0.14958537359E+03 -0.14109214718E+04  0.14366178090E+04  0.00000000000E+00 0.  1.
<mgrwt>
<rscale>  0 0.16128250E+04</rscale>
<asrwt>0</asrwt>
<pdfrwt beam="1">  1        2 0.26351702E+00 0.16128250E+04</pdfrwt>
<pdfrwt beam="2">  1       -1 0.58408911E-01 0.16128250E+04</pdfrwt>
<totfact> 0.31268378E+01</totfact>
</mgrwt>
</event>
<event>
12    7  0.1730932E-007  0.1462319E+04  0.7818608E-02  0.8909904E-01
          2   -1    0    0  501    0  0.00000000000E+00  0.00000000000E+00  0.14222815473E+04  0.14222815473E+04  0.00000000000E+00 0. -1.
         -1   -1    0    0    0  501 -0.00000000000E+00 -0.00000000000E+00 -0.37587076725E+03  0.37587076725E+03  0.00000000000E+00 0.  1.
         24    2    1    2    0    0 -0.20609256316E+03 -0.40074961903E+03  0.27892391515E+03  0.53627869719E+03  0.81987126282E+02 0.  0.
        254    2    1    2    0    0  0.20609256316E+03  0.40074961903E+03  0.76748686485E+03  0.12618736173E+04  0.89454711257E+03 0.  0.
         23    2    4    4    0    0  0.37353711033E+03  0.24990211684E+03  0.17547733166E+01  0.45819597834E+03  0.89215663109E+02 0.  0.
         23    2    4    4    0    0 -0.16744454717E+03  0.15084750218E+03  0.76573209153E+03  0.80367763898E+03  0.93592019383E+02 0.  0.
          4    1    3    3  502    0 -0.20298470233E+03 -0.35430240362E+03  0.22958945004E+03  0.46844882128E+03  0.00000000000E+00 0. -1.
         -3    1    3    3    0  502 -0.31078608334E+01 -0.46447215407E+02  0.49334465111E+02  0.67829875909E+02  0.00000000000E+00 0.  1.
         13    1    5    5    0    0  0.30130752939E+03  0.21925562285E+03  0.32216019819E+02  0.37402824406E+03  0.00000000000E+00 0. -1.
        -13    1    5    5    0    0  0.72229580933E+02  0.30646493998E+02 -0.30461246502E+02  0.84167734284E+02  0.00000000000E+00 0.  1.
          1    1    6    6  503    0 -0.12515956792E+03  0.12960306574E+03  0.69915026257E+03  0.72199235574E+03  0.00000000000E+00 0. -1.
         -1    1    6    6    0  503 -0.42284979241E+02  0.21244436444E+02  0.66581828963E+02  0.81685283236E+02  0.00000000000E+00 0.  1.
<mgrwt>
<rscale>  0 0.14623188E+04</rscale>
<asrwt>0</asrwt>
<pdfrwt beam="1">  1        2 0.21881254E+00 0.14623188E+04</pdfrwt>
<pdfrwt beam="2">  1       -1 0.57826273E-01 0.14623188E+04</pdfrwt>
<totfact> 0.47002388E+01</totfact>
</mgrwt>
</event>
<event>
12    7  0.1730932E-007  0.1453543E+04  0.7818608E-02  0.8915948E-01
         -1   -1    0    0    0  501 -0.00000000000E+00  0.00000000000E+00  0.25133429112E+03  0.25133429112E+03  0.00000000000E+00 0.  1.
          2   -1    0    0  501    0  0.00000000000E+00 -0.00000000000E+00 -0.21015720532E+04  0.21015720532E+04  0.00000000000E+00 0. -1.
         24    2    1    2    0    0 -0.10674498045E+03 -0.14978582484E+03 -0.12227587102E+04  0.12391973656E+04  0.81492105720E+02 0.  0.
        254    2    1    2    0    0  0.10674498045E+03  0.14978582484E+03 -0.62747905180E+03  0.11137089787E+04  0.90154725031E+03 0.  0.
         23    2    4    4    0    0 -0.20229318537E+03  0.40385393813E+03 -0.50901741430E+03  0.68663736632E+03  0.91387135660E+02 0.  0.
         23    2    4    4    0    0  0.30903816582E+03 -0.25406811329E+03 -0.11846163750E+03  0.42707161235E+03  0.91114260111E+02 0.  0.
          2    1    3    3  502    0 -0.58466633535E+02 -0.10009145379E+03 -0.97721461976E+03  0.98406557680E+03  0.00000000000E+00 0. -1.
         -1    1    3    3    0  502 -0.48278346916E+02 -0.49694371054E+02 -0.24554409048E+03  0.25513178882E+03  0.00000000000E+00 0.  1.
         13    1    5    5    0    0 -0.79257484779E+02  0.78564628427E+02 -0.10103428677E+03  0.15053928669E+03  0.00000000000E+00 0. -1.
        -13    1    5    5    0    0 -0.12303570059E+03  0.32528930970E+03 -0.40798312753E+03  0.53609807963E+03  0.00000000000E+00 0.  1.
          1    1    6    6  503    0  0.51868875889E+02 -0.17171327287E+02  0.80693169613E+01  0.55229961461E+02  0.00000000000E+00 0. -1.
         -1    1    6    6    0  503  0.25716928993E+03 -0.23689678600E+03 -0.12653095446E+03  0.37184165089E+03  0.00000000000E+00 0.  1.
<mgrwt>
<rscale>  0 0.14535434E+04</rscale>
<asrwt>0</asrwt>
<pdfrwt beam="1">  1        2 0.32331878E+00 0.14535434E+04</pdfrwt>
<pdfrwt beam="2">  1       -1 0.38666814E-01 0.14535434E+04</pdfrwt>
<totfact> 0.42000302E+01</totfact>
</mgrwt>
</event>
<event>
12    7  0.1730932E-007  0.1541979E+04  0.7818608E-02  0.8857008E-01
         -1   -1    0    0    0  501 -0.00000000000E+00  0.00000000000E+00  0.60082473206E+03  0.60082473206E+03  0.00000000000E+00 0.  1.
          2   -1    0    0  501    0  0.00000000000E+00 -0.00000000000E+00 -0.98934753630E+03  0.98934753630E+03  0.00000000000E+00 0. -1.
         24    2    1    2    0    0 -0.41724847484E+02  0.49578631321E+03 -0.19500758163E+03  0.54032049424E+03  0.79832627032E+02 0.  0.
        254    2    1    2    0    0  0.41724847484E+02 -0.49578631321E+03 -0.19351522260E+03  0.10498517741E+04  0.90398870290E+03 0.  0.
         23    2    4    4    0    0 -0.40215000655E+03 -0.27239987816E+03 -0.22696592426E+03  0.54366344177E+03  0.90166988115E+02 0.  0.
         23    2    4    4    0    0  0.44387485404E+03 -0.22338643504E+03  0.33450701654E+02  0.50618833235E+03  0.90450500048E+02 0.  0.
          4    1    3    3  502    0 -0.46765587284E+02  0.40266306464E+03 -0.18786992951E+03  0.44678817597E+03  0.00000000000E+00 0. -1.
         -3    1    3    3    0  502  0.50407397998E+01  0.93123248570E+02 -0.71376521237E+01  0.93532318264E+02  0.00000000000E+00 0.  1.
         13    1    5    5    0    0 -0.31597513110E+03 -0.16955135890E+03 -0.18212148259E+03  0.40218923556E+03  0.00000000000E+00 0. -1.
        -13    1    5    5    0    0 -0.86174875455E+02 -0.10284851926E+03 -0.44844441661E+02  0.14147420621E+03  0.00000000000E+00 0.  1.
          4    1    6    6  503    0  0.38209639458E+03 -0.22453227293E+03  0.25914946595E+02  0.44394141595E+03  0.00000000000E+00 0. -1.
         -4    1    6    6    0  503  0.61778459459E+02  0.11458378831E+01  0.75357550585E+01  0.62246916404E+02  0.00000000000E+00 0.  1.
<mgrwt>
<rscale>  0 0.15419786E+04</rscale>
<asrwt>0</asrwt>
<pdfrwt beam="1">  1        2 0.15220731E+00 0.15419786E+04</pdfrwt>
<pdfrwt beam="2">  1       -1 0.92434575E-01 0.15419786E+04</pdfrwt>
<totfact> 0.32023151E+01</totfact>
</mgrwt>
</event>
<event>
12    7  0.1730932E-007  0.2392407E+04  0.7818608E-02  0.8442352E-01
          2   -1    0    0  501    0  0.00000000000E+00  0.00000000000E+00  0.26030305367E+04  0.26030305367E+04  0.00000000000E+00 0. -1.
         -1   -1    0    0    0  501 -0.00000000000E+00 -0.00000000000E+00 -0.54970669018E+03  0.54970669018E+03  0.00000000000E+00 0.  1.
         24    2    1    2    0    0 -0.27153163811E+03 -0.70111947865E+03  0.18119557982E+04  0.19633594607E+04  0.79363741450E+02 0.  0.
        254    2    1    2    0    0  0.27153163811E+03  0.70111947865E+03  0.24136804831E+03  0.11893777662E+04  0.88941721485E+03 0.  0.
         23    2    4    4    0    0 -0.71953901419E+02 -0.17645249773E+03 -0.44673846787E+01  0.21128034104E+03  0.91140425166E+02 0.  0.
         23    2    4    4    0    0  0.34348553953E+03  0.87757197638E+03  0.24583543299E+03  0.97809742513E+03  0.90136692490E+02 0.  0.
          4    1    3    3  502    0 -0.36583770214E+02 -0.14038820551E+03  0.42256367635E+03  0.44677430663E+03  0.00000000000E+00 0. -1.
         -3    1    3    3    0  502 -0.23494786790E+03 -0.56073127315E+03  0.13893921219E+04  0.15165851541E+04  0.00000000000E+00 0.  1.
         13    1    5    5    0    0 -0.54522678497E+02 -0.15010800544E+03  0.32163507849E+02  0.16290987387E+03  0.00000000000E+00 0. -1.
        -13    1    5    5    0    0 -0.17431222923E+02 -0.26344492287E+02 -0.36630892528E+02  0.48370467165E+02  0.00000000000E+00 0.  1.
          2    1    6    6  503    0  0.84557457557E+02  0.25955835182E+03  0.32604692886E+02  0.27492465809E+03  0.00000000000E+00 0. -1.
         -2    1    6    6    0  503  0.25892808197E+03  0.61801362456E+03  0.21323074010E+03  0.70317276703E+03  0.00000000000E+00 0.  1.
<mgrwt>
<rscale>  0 0.23924074E+04</rscale>
<asrwt>0</asrwt>
<pdfrwt beam="1">  1        2 0.40046623E+00 0.23924074E+04</pdfrwt>
<pdfrwt beam="2">  1       -1 0.84570262E-01 0.23924074E+04</pdfrwt>
<totfact> 0.42939248E+00</totfact>
</mgrwt>
</event>
<event>
12    7  0.2301048E-007  0.2939212E+04  0.7818608E-02  0.8261305E-01
         -1   -1    0    0    0  501 -0.00000000000E+00  0.00000000000E+00  0.10322499327E+04  0.10322499327E+04  0.00000000000E+00 0.  1.
          2   -1    0    0  501    0  0.00000000000E+00 -0.00000000000E+00 -0.20922666283E+04  0.20922666283E+04  0.00000000000E+00 0. -1.
         24    2    1    2    0    0  0.92518669638E+03  0.50007335302E+02  0.52728858103E+03  0.10690029994E+04  0.79139170720E+02 0.  0.
        254    2    1    2    0    0 -0.92518669638E+03 -0.50007335302E+02 -0.15873052767E+04  0.20555135615E+04  0.92039491716E+03 0.  0.
         23    2    4    4    0    0 -0.18752664003E+03 -0.38671438339E+03 -0.84206058261E+03  0.94983239110E+03  0.91658558548E+02 0.  0.
         23    2    4    4    0    0 -0.73766005635E+03  0.33670704808E+03 -0.74524469406E+03  0.11056811704E+04  0.98118304371E+02 0.  0.
          4    1    3    3  502    0  0.86033423638E+02  0.24024748153E+02  0.66041724927E+02  0.11108756878E+03  0.00000000000E+00 0. -1.
         -3    1    3    3    0  502  0.83915327274E+03  0.25982587149E+02  0.46124685610E+03  0.95791543063E+03  0.00000000000E+00 0.  1.
         13    1    5    5    0    0 -0.16972766138E+03 -0.36712259011E+03 -0.82362503439E+03  0.91757543149E+03  0.00000000000E+00 0.  1.
        -13    1    5    5    0    0 -0.17798978649E+02 -0.19591793278E+02 -0.18435548220E+02  0.32256959606E+02  0.00000000000E+00 0. -1.
          2    1    6    6  503    0 -0.15808561687E+02 -0.24658471522E+01 -0.31730697767E+02  0.35536294201E+02  0.00000000000E+00 0. -1.
         -2    1    6    6    0  503 -0.72185149466E+03  0.33917289524E+03 -0.71351399629E+03  0.10701448762E+04  0.00000000000E+00 0.  1.
<mgrwt>
<rscale>  0 0.29392122E+04</rscale>
<asrwt>0</asrwt>
<pdfrwt beam="1">  1        2 0.32188717E+00 0.29392122E+04</pdfrwt>
<pdfrwt beam="2">  1       -1 0.15880769E+00 0.29392122E+04</pdfrwt>
<totfact> 0.17327158E+00</totfact>
</mgrwt>
</event>
<event>
12    7  0.1730932E-007  0.1001038E+04  0.7818608E-02  0.9307407E-01
          2   -1    0    0  501    0  0.00000000000E+00  0.00000000000E+00  0.47656504131E+03  0.47656504131E+03  0.00000000000E+00 0. -1.
         -1   -1    0    0    0  501 -0.00000000000E+00 -0.00000000000E+00 -0.52567659283E+03  0.52567659283E+03  0.00000000000E+00 0.  1.
         24    2    1    2    0    0  0.72190921393E+01  0.27821375472E+02  0.59064815250E+02  0.10043906757E+03  0.75981640349E+02 0.  0.
        254    2    1    2    0    0 -0.72190921393E+01 -0.27821375472E+02 -0.10817636677E+03  0.90180256657E+03  0.89482936838E+03 0.  0.
         23    2    4    4    0    0 -0.43136696055E+03  0.73716948645E+02 -0.14401435077E+02  0.44642025809E+03  0.87017253076E+02 0.  0.
         23    2    4    4    0    0  0.42414786841E+03 -0.10153832412E+03 -0.93774931690E+02  0.45538230847E+03  0.91476026981E+02 0.  0.
          2    1    3    3  502    0  0.41142551632E+02  0.79731646338E+01  0.29232312556E+02  0.51096076233E+02  0.00000000000E+00 0. -1.
         -1    1    3    3    0  502 -0.33923459493E+02  0.19848210838E+02  0.29832502694E+02  0.49342991341E+02  0.00000000000E+00 0.  1.
         13    1    5    5    0    0 -0.43904222675E+02  0.28028336125E+02  0.17554339574E+02  0.54966564678E+02  0.00000000000E+00 0. -1.
        -13    1    5    5    0    0 -0.38746273788E+03  0.45688612520E+02 -0.31955774650E+02  0.39145369342E+03  0.00000000000E+00 0.  1.
          2    1    6    6  503    0  0.41124204524E+03 -0.10137316648E+03 -0.71366609654E+02  0.42952267883E+03  0.00000000000E+00 0.  1.
         -2    1    6    6    0  503  0.12905823174E+02 -0.16515763670E+00 -0.22408322036E+02  0.25859629643E+02  0.00000000000E+00 0. -1.
<mgrwt>
<rscale>  0 0.10010376E+04</rscale>
<asrwt>0</asrwt>
<pdfrwt beam="1">  1        2 0.73317699E-01 0.10010376E+04</pdfrwt>
<pdfrwt beam="2">  1       -1 0.80873322E-01 0.10010376E+04</pdfrwt>
<totfact> 0.11337778E+02</totfact>
</mgrwt>
</event>
<event>
12    7  0.1730932E-007  0.1926078E+04  0.7818608E-02  0.8641983E-01
          2   -1    0    0  501    0  0.00000000000E+00  0.00000000000E+00  0.32615651535E+04  0.32615651535E+04  0.00000000000E+00 0. -1.
         -1   -1    0    0    0  501 -0.00000000000E+00 -0.00000000000E+00 -0.28435561884E+03  0.28435561884E+03  0.00000000000E+00 0.  1.
         24    2    1    2    0    0  0.64203797494E+03  0.19785549486E+03  0.17894946057E+04  0.19130901941E+04  0.79142838311E+02 0.  0.
        254    2    1    2    0    0 -0.64203797494E+03 -0.19785549486E+03  0.11877149290E+04  0.16328305782E+04  0.89672146546E+03 0.  0.
         23    2    4    4    0    0 -0.68883013630E+03  0.18758907897E+03  0.80308933412E+03  0.10784425983E+04  0.91702453264E+02 0.  0.
         23    2    4    4    0    0  0.46792161359E+02 -0.38544457383E+03  0.38462559484E+03  0.55438797997E+03  0.93016978397E+02 0.  0.
          4    1    3    3  502    0  0.62114564749E+03  0.20187807314E+03  0.17546417253E+04  0.18722564611E+04  0.00000000000E+00 0. -1.
         -3    1    3    3    0  502  0.20892327446E+02 -0.40225782728E+01  0.34852880315E+02  0.40833732971E+02  0.00000000000E+00 0.  1.
         13    1    5    5    0    0 -0.58560240712E+03  0.18157727223E+03  0.72086236870E+03  0.94633135826E+03  0.00000000000E+00 0. -1.
        -13    1    5    5    0    0 -0.10322772918E+03  0.60118067383E+01  0.82226965423E+02  0.13211124000E+03  0.00000000000E+00 0.  1.
          4    1    6    6  503    0  0.36650803858E+02 -0.27496763952E+03  0.21177508603E+03  0.34899738003E+03  0.00000000000E+00 0. -1.
         -4    1    6    6    0  503  0.10141357501E+02 -0.11047693431E+03  0.17285050881E+03  0.20539059994E+03  0.00000000000E+00 0.  1.
<mgrwt>
<rscale>  0 0.19260783E+04</rscale>
<asrwt>0</asrwt>
<pdfrwt beam="1">  1        2 0.50177923E+00 0.19260783E+04</pdfrwt>
<pdfrwt beam="2">  1       -1 0.43747021E-01 0.19260783E+04</pdfrwt>
<totfact> 0.65178967E+00</totfact>
</mgrwt>
</event>
<event>
12    7  0.1730932E-007  0.2714462E+04  0.7818608E-02  0.8330328E-01
         -1   -1    0    0    0  501 -0.00000000000E+00  0.00000000000E+00  0.13505971284E+04  0.13505971284E+04  0.00000000000E+00 0.  1.
          2   -1    0    0  501    0  0.00000000000E+00 -0.00000000000E+00 -0.13638969959E+04  0.13638969959E+04  0.00000000000E+00 0. -1.
         24    2    1    2    0    0  0.33699161466E+03 -0.99118359539E+03 -0.60449478596E+03  0.12115479322E+04  0.80163443898E+02 0.  0.
        254    2    1    2    0    0 -0.33699161466E+03  0.99118359539E+03  0.59119491848E+03  0.15029461921E+04  0.90184674782E+03 0.  0.
         23    2    4    4    0    0 -0.12635342916E+03 -0.94073565095E+02  0.30739547588E+03  0.35808014644E+03  0.94416036610E+02 0.  0.
         23    2    4    4    0    0 -0.21063818550E+03  0.10852571605E+04  0.28379944260E+03  0.11448660457E+04  0.89580071989E+02 0.  0.
          2    1    3    3  502    0  0.18727450277E+03 -0.66523113857E+03 -0.40876726365E+03  0.80292894016E+03  0.00000000000E+00 0. -1.
         -1    1    3    3    0  502  0.14971711189E+03 -0.32595245682E+03 -0.19572752231E+03  0.40861899208E+03  0.00000000000E+00 0.  1.
         13    1    5    5    0    0 -0.12372790846E+03 -0.11054351242E+03  0.28907045334E+03  0.33330195088E+03  0.00000000000E+00 0. -1.
        -13    1    5    5    0    0 -0.26255207021E+01  0.16469947321E+02  0.18325022548E+02  0.24778195558E+02  0.00000000000E+00 0.  1.
          3    1    6    6  503    0 -0.76445290646E+02  0.48166683440E+03  0.16777339890E+03  0.51574677430E+03  0.00000000000E+00 0. -1.
         -3    1    6    6    0  503 -0.13419289485E+03  0.60359032609E+03  0.11602604370E+03  0.62911927136E+03  0.00000000000E+00 0.  1.
<mgrwt>
<rscale>  0 0.27144615E+04</rscale>
<asrwt>0</asrwt>
<pdfrwt beam="1">  1        2 0.20983031E+00 0.27144615E+04</pdfrwt>
<pdfrwt beam="2">  1       -1 0.20778417E+00 0.27144615E+04</pdfrwt>
<totfact> 0.20166447E+00</totfact>
</mgrwt>
</event>
<event>
12    7  0.1730932E-007  0.1889378E+04  0.7818608E-02  0.8660162E-01
         -1   -1    0    0    0  501 -0.00000000000E+00  0.00000000000E+00  0.30678279810E+03  0.30678279810E+03  0.00000000000E+00 0.  1.
          2   -1    0    0  501    0  0.00000000000E+00 -0.00000000000E+00 -0.29090196784E+04  0.29090196784E+04  0.00000000000E+00 0. -1.
         24    2    1    2    0    0  0.46340734457E+03 -0.27212252129E+03 -0.17798771799E+03  0.57176627828E+03  0.80249707938E+02 0.  0.
        254    2    1    2    0    0 -0.46340734457E+03  0.27212252129E+03 -0.24242491623E+04  0.26440361982E+04  0.90837568380E+03 0.  0.
         23    2    4    4    0    0 -0.93463396343E+00  0.49118097768E+03 -0.15281410048E+04  0.16080210584E+04  0.96214173831E+02 0.  0.
         23    2    4    4    0    0 -0.46247271061E+03 -0.21905845638E+03 -0.89610815750E+03  0.10360151398E+04  0.91923471729E+02 0.  0.
          4    1    3    3  502    0  0.19367318025E+03 -0.78740026027E+02 -0.42841725099E+02  0.21341205649E+03  0.00000000000E+00 0. -1.
         -3    1    3    3    0  502  0.26973416432E+03 -0.19338249527E+03 -0.13514599289E+03  0.35835422179E+03  0.00000000000E+00 0.  1.
         13    1    5    5    0    0  0.18762829985E+02  0.43847451567E+03 -0.12661223011E+04  0.13400289646E+04  0.00000000000E+00 0. -1.
        -13    1    5    5    0    0 -0.19697463948E+02  0.52706462007E+02 -0.26201870378E+03  0.26799209383E+03  0.00000000000E+00 0.  1.
          1    1    6    6  503    0 -0.25304796854E+03 -0.14585234800E+03 -0.58560540621E+03  0.65440039241E+03  0.00000000000E+00 0. -1.
         -1    1    6    6    0  503 -0.20942474207E+03 -0.73206108385E+02 -0.31050275129E+03  0.38161474743E+03  0.00000000000E+00 0.  1.
<mgrwt>
<rscale>  0 0.18893779E+04</rscale>
<asrwt>0</asrwt>
<pdfrwt beam="1">  1        2 0.44754149E+00 0.18893779E+04</pdfrwt>
<pdfrwt beam="2">  1       -1 0.47197354E-01 0.18893779E+04</pdfrwt>
<totfact> 0.95026326E+00</totfact>
</mgrwt>
</event>
<event>
12    7  0.1730932E-007  0.1230967E+04  0.7818608E-02  0.9086175E-01
         -1   -1    0    0    0  501 -0.00000000000E+00  0.00000000000E+00  0.23247931037E+03  0.23247931037E+03  0.00000000000E+00 0.  1.
          2   -1    0    0  501    0  0.00000000000E+00 -0.00000000000E+00 -0.16294783783E+04  0.16294783783E+04  0.00000000000E+00 0. -1.
         24    2    1    2    0    0 -0.12041722617E+02  0.16776820333E+03 -0.26236144660E+01  0.18614341942E+03  0.79695144823E+02 0.  0.
        254    2    1    2    0    0  0.12041722617E+02 -0.16776820333E+03 -0.13943754535E+04  0.16758142693E+04  0.91420970606E+03 0.  0.
         23    2    4    4    0    0 -0.23523292949E+03  0.28628077699E+03 -0.40577074180E+03  0.55647800611E+03  0.87901433414E+02 0.  0.
         23    2    4    4    0    0  0.24727465211E+03 -0.45404898032E+03 -0.98860471167E+03  0.11193362631E+04  0.90934943460E+02 0.  0.
          2    1    3    3  502    0 -0.29977471493E+02  0.58897441581E+02 -0.29818670478E+02  0.72503176006E+02  0.00000000000E+00 0. -1.
         -1    1    3    3    0  502  0.17935748876E+02  0.10887076175E+03  0.27195056012E+02  0.11364024342E+03  0.00000000000E+00 0.  1.
         13    1    5    5    0    0 -0.22548960902E+03  0.23673486644E+03 -0.37429385402E+03  0.49697570355E+03  0.00000000000E+00 0.  1.
        -13    1    5    5    0    0 -0.97433204760E+01  0.49545910548E+02 -0.31476887783E+02  0.59502302564E+02  0.00000000000E+00 0. -1.
          2    1    6    6  503    0  0.10183976082E+03 -0.22645214575E+03 -0.56214733848E+03  0.61454173280E+03  0.00000000000E+00 0. -1.
         -2    1    6    6    0  503  0.14543489129E+03 -0.22759683457E+03 -0.42645737319E+03  0.50479453034E+03  0.00000000000E+00 0.  1.
<mgrwt>
<rscale>  0 0.12309671E+04</rscale>
<asrwt>0</asrwt>
<pdfrwt beam="1">  1        2 0.25068898E+00 0.12309671E+04</pdfrwt>
<pdfrwt beam="2">  1       -1 0.35766049E-01 0.12309671E+04</pdfrwt>
<totfact> 0.89878397E+01</totfact>
</mgrwt>
</event>
<event>
12    7  0.1730932E-007  0.1189321E+04  0.7818608E-02  0.9122255E-01
          2   -1    0    0  501    0  0.00000000000E+00  0.00000000000E+00  0.70630370166E+03  0.70630370166E+03  0.00000000000E+00 0. -1.
         -1   -1    0    0    0  501 -0.00000000000E+00 -0.00000000000E+00 -0.50066468672E+03  0.50066468672E+03  0.00000000000E+00 0.  1.
         24    2    1    2    0    0  0.10385750887E+03 -0.17451057035E+03  0.18970929794E+03  0.28954948437E+03  0.81295540230E+02 0.  0.
        254    2    1    2    0    0 -0.10385750887E+03  0.17451057035E+03  0.15929716996E+02  0.91741890401E+03  0.89451851196E+03 0.  0.
         23    2    4    4    0    0  0.30064945109E+03 -0.18818725079E+03  0.30781956652E+02  0.36635436095E+03  0.86391290818E+02 0.  0.
         23    2    4    4    0    0 -0.40450695997E+03  0.36269782114E+03 -0.14852239656E+02  0.55106454306E+03  0.90972256606E+02 0.  0.
          2    1    3    3  502    0  0.93391372316E+02 -0.17832334540E+03  0.19199494914E+03  0.27817840397E+03  0.00000000000E+00 0. -1.
         -1    1    3    3    0  502  0.10466136558E+02  0.38127750525E+01 -0.22856512042E+01  0.11371080401E+02  0.00000000000E+00 0.  1.
         13    1    5    5    0    0  0.24117317380E+03 -0.15736147417E+03  0.58506538398E+02  0.29385395752E+03  0.00000000000E+00 0. -1.
        -13    1    5    5    0    0  0.59476277290E+02 -0.30825776623E+02 -0.27724581746E+02  0.72500403431E+02  0.00000000000E+00 0.  1.
          3    1    6    6  503    0 -0.35409385459E+03  0.31351258456E+03 -0.43697136949E+02  0.47495477501E+03  0.00000000000E+00 0. -1.
         -3    1    6    6    0  503 -0.50413105380E+02  0.49185236586E+02  0.28844897294E+02  0.76109768046E+02  0.00000000000E+00 0.  1.
<mgrwt>
<rscale>  0 0.11893214E+04</rscale>
<asrwt>0</asrwt>
<pdfrwt beam="1">  1        2 0.10866211E+00 0.11893214E+04</pdfrwt>
<pdfrwt beam="2">  1       -1 0.77025337E-01 0.11893214E+04</pdfrwt>
<totfact> 0.77265291E+01</totfact>
</mgrwt>
</event>
<event>
12    7  0.1730932E-007  0.1536882E+04  0.7818608E-02  0.8860290E-01
         -1   -1    0    0    0  501 -0.00000000000E+00  0.00000000000E+00  0.12336225302E+04  0.12336225302E+04  0.00000000000E+00 0.  1.
          2   -1    0    0  501    0  0.00000000000E+00 -0.00000000000E+00 -0.47867295759E+03  0.47867295759E+03  0.00000000000E+00 0. -1.
         24    2    1    2    0    0 -0.15070130676E+03 -0.16075414783E+03 -0.24333660582E+03  0.33877128311E+03  0.83668982450E+02 0.  0.
        254    2    1    2    0    0  0.15070130676E+03  0.16075414783E+03  0.99828617838E+03  0.13735242046E+04  0.91730075050E+03 0.  0.
         23    2    4    4    0    0  0.20885125600E+03  0.34062198596E+03  0.62440133048E+02  0.41462667256E+03  0.91511326794E+02 0.  0.
         23    2    4    4    0    0 -0.58149949245E+02 -0.17986783813E+03  0.93584604534E+03  0.95889753208E+03  0.89122391497E+02 0.  0.
          4    1    3    3  502    0 -0.83156467701E+02 -0.86947322005E+02 -0.71565571860E+02  0.13998737800E+03  0.00000000000E+00 0. -1.
         -3    1    3    3    0  502 -0.67544839057E+02 -0.73806825823E+02 -0.17177103396E+03  0.19878390511E+03  0.00000000000E+00 0.  1.
         13    1    5    5    0    0  0.15605284415E+02 -0.19631225010E+01  0.76793207986E+01  0.17502877465E+02  0.00000000000E+00 0. -1.
        -13    1    5    5    0    0  0.19324597159E+03  0.34258510846E+03  0.54760812250E+02  0.39712379509E+03  0.00000000000E+00 0.  1.
          2    1    6    6  503    0 -0.11692185028E+02 -0.68890496309E+02  0.17227642837E+03  0.18590797575E+03  0.00000000000E+00 0. -1.
         -2    1    6    6    0  503 -0.46457764218E+02 -0.11097734182E+03  0.76356961696E+03  0.77298955633E+03  0.00000000000E+00 0.  1.
<mgrwt>
<rscale>  0 0.15368822E+04</rscale>
<asrwt>0</asrwt>
<pdfrwt beam="1">  1        2 0.73641994E-01 0.15368822E+04</pdfrwt>
<pdfrwt beam="2">  1       -1 0.18978808E+00 0.15368822E+04</pdfrwt>
<totfact> 0.12650453E+01</totfact>
</mgrwt>
</event>
<event>
12    7  0.1730932E-007  0.1664650E+04  0.7818608E-02  0.8781787E-01
         -1   -1    0    0    0  501 -0.00000000000E+00  0.00000000000E+00  0.84397443082E+03  0.84397443082E+03  0.00000000000E+00 0.  1.
          2   -1    0    0  501    0  0.00000000000E+00 -0.00000000000E+00 -0.82083620983E+03  0.82083620983E+03  0.00000000000E+00 0. -1.
         24    2    1    2    0    0  0.43172017831E+03  0.39111186182E+03 -0.88896931599E+02  0.59528861614E+03  0.84350881720E+02 0.  0.
        254    2    1    2    0    0 -0.43172017831E+03 -0.39111186182E+03  0.11203515259E+03  0.10695220245E+04  0.88992959534E+03 0.  0.
         23    2    4    4    0    0 -0.42280251261E+03  0.16139896327E+03  0.19873786273E+03  0.50282231415E+03  0.92314416626E+02 0.  0.
         23    2    4    4    0    0 -0.89176657019E+01 -0.55251082508E+03 -0.86702710140E+02  0.56669971035E+03  0.91013543893E+02 0.  0.
          2    1    3    3  502    0  0.23606315849E+03  0.19332023028E+03 -0.86193167836E+02  0.31706117456E+03  0.00000000000E+00 0. -1.
         -3    1    3    3    0  502  0.19565701983E+03  0.19779163154E+03 -0.27037637627E+01  0.27822744159E+03  0.00000000000E+00 0.  1.
         13    1    5    5    0    0 -0.35659571106E+03  0.15475204600E+03  0.13731549769E+03  0.41226719830E+03  0.00000000000E+00 0. -1.
        -13    1    5    5    0    0 -0.66206801548E+02  0.66469172614E+01  0.61422365034E+02  0.90555115850E+02  0.00000000000E+00 0.  1.
          2    1    6    6  503    0 -0.70348337047E+01 -0.36321493545E+03 -0.10039429799E+03  0.37689997783E+03  0.00000000000E+00 0.  1.
         -2    1    6    6    0  503 -0.18828319972E+01 -0.18929588963E+03  0.13691587845E+02  0.18979973252E+03  0.00000000000E+00 0. -1.
<mgrwt>
<rscale>  0 0.16646498E+04</rscale>
<asrwt>0</asrwt>
<pdfrwt beam="1">  1        2 0.12628249E+00 0.16646498E+04</pdfrwt>
<pdfrwt beam="2">  1       -1 0.12984222E+00 0.16646498E+04</pdfrwt>
<totfact> 0.18443284E+01</totfact>
</mgrwt>
</event>
<event>
12    7  0.1730932E-007  0.1065801E+04  0.7818608E-02  0.9239181E-01
         -1   -1    0    0    0  501 -0.00000000000E+00  0.00000000000E+00  0.48497252196E+03  0.48497252196E+03  0.00000000000E+00 0.  1.
          2   -1    0    0  501    0  0.00000000000E+00 -0.00000000000E+00 -0.58556474841E+03  0.58556474841E+03  0.00000000000E+00 0. -1.
         24    2    1    2    0    0  0.10837553278E+03  0.15748266790E+02  0.15034315473E+02  0.13606286727E+03  0.79333531340E+02 0.  0.
        254    2    1    2    0    0 -0.10837553278E+03 -0.15748266790E+02 -0.11562654192E+03  0.93447440310E+03  0.92080380583E+03 0.  0.
         23    2    4    4    0    0 -0.87166368558E+02 -0.44063455104E+03  0.65558361620E+02  0.46306673856E+03  0.91521157166E+02 0.  0.
         23    2    4    4    0    0 -0.21209164222E+02  0.42488628425E+03 -0.18118490354E+03  0.47140766454E+03  0.91755292648E+02 0.  0.
          4    1    3    3  502    0  0.26765562695E+02 -0.69316933400E+01 -0.29445368545E+02  0.40391502172E+02  0.00000000000E+00 0. -1.
         -3    1    3    3    0  502  0.81609970085E+02  0.22679960130E+02  0.44479684018E+02  0.95671365095E+02  0.00000000000E+00 0.  1.
         13    1    5    5    0    0 -0.34365844699E+02 -0.32940091067E+03  0.20044413982E+02  0.33179474041E+03  0.00000000000E+00 0. -1.
        -13    1    5    5    0    0 -0.52800523859E+02 -0.11123364036E+03  0.45513947637E+02  0.13127199815E+03  0.00000000000E+00 0.  1.
          4    1    6    6  503    0  0.26153021112E+02  0.21115812168E+03 -0.59437686509E+02  0.22091756708E+03  0.00000000000E+00 0. -1.
         -4    1    6    6    0  503 -0.47362185334E+02  0.21372816256E+03 -0.12174721703E+03  0.25049009746E+03  0.00000000000E+00 0.  1.
<mgrwt>
<rscale>  0 0.10658008E+04</rscale>
<asrwt>0</asrwt>
<pdfrwt beam="1">  1        2 0.90086885E-01 0.10658008E+04</pdfrwt>
<pdfrwt beam="2">  1       -1 0.74611157E-01 0.10658008E+04</pdfrwt>
<totfact> 0.10501802E+02</totfact>
</mgrwt>
</event>
<event>
12    7  0.1730932E-007  0.1472635E+04  0.7818608E-02  0.8902857E-01
         -1   -1    0    0    0  501 -0.00000000000E+00  0.00000000000E+00  0.77340480143E+03  0.77340480143E+03  0.00000000000E+00 0.  1.
          2   -1    0    0  501    0  0.00000000000E+00 -0.00000000000E+00 -0.70100862020E+03  0.70100862020E+03  0.00000000000E+00 0. -1.
         24    2    1    2    0    0 -0.30111179781E+03 -0.30166981636E+03 -0.14785818528E+03  0.45781614019E+03  0.77849742333E+02 0.  0.
        254    2    1    2    0    0  0.30111179781E+03  0.30166981636E+03  0.22025436651E+03  0.10165972814E+04  0.89626171054E+03 0.  0.
         23    2    4    4    0    0  0.79368784150E+02  0.48859455735E+03 -0.15994813730E+03  0.52809480277E+03  0.90976198620E+02 0.  0.
         23    2    4    4    0    0  0.22174301366E+03 -0.18692474099E+03  0.38020250381E+03  0.48850247867E+03  0.99849410901E+02 0.  0.
          4    1    3    3  502    0 -0.24149488377E+03 -0.27355614707E+03 -0.14231163651E+03  0.39166994571E+03  0.00000000000E+00 0. -1.
         -3    1    3    3    0  502 -0.59616914041E+02 -0.28113669288E+02 -0.55465487670E+01  0.66146194477E+02  0.00000000000E+00 0.  1.
         13    1    5    5    0    0 -0.14135036853E+02  0.26409821881E+02  0.61253727390E+00  0.29960860477E+02  0.00000000000E+00 0. -1.
        -13    1    5    5    0    0  0.93503821002E+02  0.46218473547E+03 -0.16056067457E+03  0.49813394229E+03  0.00000000000E+00 0.  1.
          1    1    6    6  503    0  0.33329078972E+02 -0.84762659228E+02  0.93337697955E+02  0.13041265952E+03  0.00000000000E+00 0. -1.
         -1    1    6    6    0  503  0.18841393469E+03 -0.10216208176E+03  0.28686480586E+03  0.35808981914E+03  0.00000000000E+00 0.  1.
<mgrwt>
<rscale>  0 0.14726350E+04</rscale>
<asrwt>0</asrwt>
<pdfrwt beam="1">  1        2 0.10784748E+00 0.14726350E+04</pdfrwt>
<pdfrwt beam="2">  1       -1 0.11898535E+00 0.14726350E+04</pdfrwt>
<totfact> 0.28596266E+01</totfact>
</mgrwt>
</event>
<event>
12    7  0.1730932E-007  0.2381086E+04  0.7818608E-02  0.8446619E-01
          2   -1    0    0  501    0  0.00000000000E+00  0.00000000000E+00  0.10731544702E+04  0.10731544702E+04  0.00000000000E+00 0. -1.
         -1   -1    0    0    0  501 -0.00000000000E+00 -0.00000000000E+00 -0.13207722782E+04  0.13207722782E+04  0.00000000000E+00 0.  1.
         24    2    1    2    0    0 -0.39105601596E+03 -0.66915593791E+03 -0.77201820962E+03  0.10969693742E+04  0.81456830141E+02 0.  0.
        254    2    1    2    0    0  0.39105601596E+03  0.66915593791E+03  0.52440040157E+03  0.12969573742E+04  0.89800232316E+03 0.  0.
         23    2    4    4    0    0  0.39012690068E+03  0.59258777388E+03 -0.43329212520E+02  0.71645989613E+03  0.89878215995E+02 0.  0.
         23    2    4    4    0    0  0.92911528014E+00  0.76568164033E+02  0.56772961409E+03  0.58049747805E+03  0.93791579071E+02 0.  0.
          2    1    3    3  502    0 -0.48879141003E+02 -0.41252440131E+02 -0.71497670161E+02  0.95931491599E+02  0.00000000000E+00 0. -1.
         -1    1    3    3    0  502 -0.34217687496E+03 -0.62790349778E+03 -0.70052053946E+03  0.10010378826E+04  0.00000000000E+00 0.  1.
         13    1    5    5    0    0  0.38183134615E+03  0.58558454096E+03 -0.30618863191E+02  0.69974420061E+03  0.00000000000E+00 0. -1.
        -13    1    5    5    0    0  0.82955545351E+01  0.70032329248E+01 -0.12710349329E+02  0.16715695514E+02  0.00000000000E+00 0.  1.
          1    1    6    6  503    0 -0.43659993121E+02  0.46217479769E+02  0.23612836585E+03  0.24453804529E+03  0.00000000000E+00 0. -1.
         -1    1    6    6    0  503  0.44589108401E+02  0.30350684264E+02  0.33160124824E+03  0.33595943276E+03  0.00000000000E+00 0.  1.
<mgrwt>
<rscale>  0 0.23810860E+04</rscale>
<asrwt>0</asrwt>
<pdfrwt beam="1">  1        2 0.16510069E+00 0.23810860E+04</pdfrwt>
<pdfrwt beam="2">  1       -1 0.20319573E+00 0.23810860E+04</pdfrwt>
<totfact> 0.33256253E+00</totfact>
</mgrwt>
</event>
<event>
12    7  0.1730932E-007  0.1875534E+04  0.7818608E-02  0.8667131E-01
         -1   -1    0    0    0  501 -0.00000000000E+00  0.00000000000E+00  0.36319017773E+03  0.36319017773E+03  0.00000000000E+00 0.  1.
          2   -1    0    0  501    0  0.00000000000E+00 -0.00000000000E+00 -0.24213412906E+04  0.24213412906E+04  0.00000000000E+00 0. -1.
         24    2    1    2    0    0 -0.59441692373E+03  0.12112416799E+03 -0.13737930897E+04  0.15038855219E+04  0.79760053599E+02 0.  0.
        254    2    1    2    0    0  0.59441692373E+03 -0.12112416799E+03 -0.68435802313E+03  0.12806459465E+04  0.89649628727E+03 0.  0.
         23    2    4    4    0    0 -0.23823403292E+02 -0.13202936684E+02  0.18318005636E+03  0.20622745373E+03  0.90735646481E+02 0.  0.
         23    2    4    4    0    0  0.61824032702E+03 -0.10792123130E+03 -0.86753807949E+03  0.10744184927E+04  0.88795743390E+02 0.  0.
          2    1    3    3  502    0 -0.52828469474E+03  0.86643611819E+02 -0.11632842287E+04  0.12805553603E+04  0.00000000000E+00 0. -1.
         -1    1    3    3    0  502 -0.66132228994E+02  0.34480556169E+02 -0.21050886108E+03  0.22333016155E+03  0.00000000000E+00 0.  1.
         13    1    5    5    0    0 -0.34973928406E+02  0.25852430028E+02  0.14148958851E+03  0.14802306395E+03  0.00000000000E+00 0.  1.
        -13    1    5    5    0    0  0.11150525114E+02 -0.39055366712E+02  0.41690467853E+02  0.58204389775E+02  0.00000000000E+00 0. -1.
          3    1    6    6  503    0  0.53760008777E+03 -0.66931068901E+02 -0.76884390265E+03  0.94053950954E+03  0.00000000000E+00 0. -1.
         -3    1    6    6    0  503  0.80640239254E+02 -0.40990162404E+02 -0.98694176836E+02  0.13387898320E+03  0.00000000000E+00 0.  1.
<mgrwt>
<rscale>  0 0.18755345E+04</rscale>
<asrwt>0</asrwt>
<pdfrwt beam="1">  1        2 0.37251405E+00 0.18755345E+04</pdfrwt>
<pdfrwt beam="2">  1       -1 0.55875412E-01 0.18755345E+04</pdfrwt>
<totfact> 0.13387303E+01</totfact>
</mgrwt>
</event>
<event>
12    7  0.1730932E-007  0.2516110E+04  0.7818608E-02  0.8397269E-01
         -1   -1    0    0    0  501 -0.00000000000E+00  0.00000000000E+00  0.10336895633E+04  0.10336895633E+04  0.00000000000E+00 0.  1.
          2   -1    0    0  501    0  0.00000000000E+00 -0.00000000000E+00 -0.15311197582E+04  0.15311197582E+04  0.00000000000E+00 0. -1.
         24    2    1    2    0    0  0.22167907190E+03  0.63114360704E+03  0.67030981983E+03  0.95034107986E+03  0.79680925557E+02 0.  0.
        254    2    1    2    0    0 -0.22167907190E+03 -0.63114360704E+03 -0.11677400147E+04  0.16144682416E+04  0.89185598474E+03 0.  0.
         23    2    4    4    0    0 -0.34393781507E+03  0.48067050273E+01 -0.77164424919E+03  0.84975606124E+03  0.91291791863E+02 0.  0.
         23    2    4    4    0    0  0.12225874316E+03 -0.63595031206E+03 -0.39609576553E+03  0.76471218035E+03  0.92265180949E+02 0.  0.
          2    1    3    3  502    0  0.15033707505E+02  0.16748223635E+02  0.41682235607E+02  0.47370076224E+02  0.00000000000E+00 0. -1.
         -1    1    3    3    0  502  0.20664536440E+03  0.61439538340E+03  0.62862758422E+03  0.90297100364E+03  0.00000000000E+00 0.  1.
         13    1    5    5    0    0 -0.36329402890E+02 -0.80354282629E+01 -0.33850551631E+02  0.50301624899E+02  0.00000000000E+00 0.  1.
        -13    1    5    5    0    0 -0.30760841218E+03  0.12842133290E+02 -0.73779369756E+03  0.79945443634E+03  0.00000000000E+00 0. -1.
          2    1    6    6  503    0  0.39164236390E+02 -0.43376634735E+03 -0.26582389027E+03  0.51024447292E+03  0.00000000000E+00 0. -1.
         -2    1    6    6    0  503  0.83094506775E+02 -0.20218396472E+03 -0.13027187526E+03  0.25446770744E+03  0.00000000000E+00 0.  1.
<mgrwt>
<rscale>  0 0.25161101E+04</rscale>
<asrwt>0</asrwt>
<pdfrwt beam="1">  1        2 0.23555688E+00 0.25161101E+04</pdfrwt>
<pdfrwt beam="2">  1       -1 0.15902917E+00 0.25161101E+04</pdfrwt>
<totfact> 0.36760629E+00</totfact>
</mgrwt>
</event>
<event>
12    7  0.1730932E-007  0.1776345E+04  0.7818608E-02  0.8718981E-01
          2   -1    0    0  501    0  0.00000000000E+00  0.00000000000E+00  0.19473416522E+04  0.19473416522E+04  0.00000000000E+00 0. -1.
         -1   -1    0    0    0  501 -0.00000000000E+00 -0.00000000000E+00 -0.40509105628E+03  0.40509105628E+03  0.00000000000E+00 0.  1.
         24    2    1    2    0    0  0.38062281374E+02  0.52398293386E+03  0.52050195795E+02  0.53409495967E+03  0.80878617854E+02 0.  0.
        254    2    1    2    0    0 -0.38062281374E+02 -0.52398293386E+03  0.14902004002E+04  0.18183377488E+04  0.89980446987E+03 0.  0.
         23    2    4    4    0    0  0.45332024041E+02 -0.74449742425E+03  0.13028520791E+04  0.15039010862E+04  0.89238612606E+02 0.  0.
         23    2    4    4    0    0 -0.83394305415E+02  0.22051449039E+03  0.18734832110E+03  0.31443666266E+03  0.90497352238E+02 0.  0.
          4    1    3    3  502    0  0.13486376945E+02  0.21358514301E+03 -0.18579825897E+02  0.21481551529E+03  0.00000000000E+00 0. -1.
         -3    1    3    3    0  502  0.24575904429E+02  0.31039779085E+03  0.70630021692E+02  0.31927944438E+03  0.00000000000E+00 0.  1.
         13    1    5    5    0    0  0.71770848987E+02 -0.53961417070E+03  0.96148824569E+03  0.11048955401E+04  0.00000000000E+00 0. -1.
        -13    1    5    5    0    0 -0.26438824946E+02 -0.20488325355E+03  0.34136383337E+03  0.39900554606E+03  0.00000000000E+00 0.  1.
          3    1    6    6  503    0 -0.95629522687E+02  0.21977374169E+03  0.18251974502E+03  0.30126227853E+03  0.00000000000E+00 0. -1.
         -3    1    6    6    0  503  0.12235217272E+02  0.74074870307E+00  0.48285760778E+01  0.13174384132E+02  0.00000000000E+00 0.  1.
<mgrwt>
<rscale>  0 0.17763453E+04</rscale>
<asrwt>0</asrwt>
<pdfrwt beam="1">  1        2 0.29959102E+00 0.17763453E+04</pdfrwt>
<pdfrwt beam="2">  1       -1 0.62321702E-01 0.17763453E+04</pdfrwt>
<totfact> 0.20106098E+01</totfact>
</mgrwt>
</event>
<event>
12    7  0.1730932E-007  0.2758588E+04  0.7818608E-02  0.8316242E-01
          2   -1    0    0  501    0  0.00000000000E+00  0.00000000000E+00  0.24161519955E+04  0.24161519955E+04  0.00000000000E+00 0. -1.
         -1   -1    0    0    0  501 -0.00000000000E+00 -0.00000000000E+00 -0.78738942387E+03  0.78738942387E+03  0.00000000000E+00 0.  1.
         24    2    1    2    0    0  0.85795914441E+03  0.47402241014E+03 -0.17145622317E+03  0.99807033018E+03  0.77175182064E+02 0.  0.
        254    2    1    2    0    0 -0.85795914441E+03 -0.47402241014E+03  0.18002187948E+04  0.22054710892E+04  0.81395569740E+03 0.  0.
         23    2    4    4    0    0 -0.45837619632E+03 -0.57992436895E+03  0.68425128443E+03  0.10115675090E+04  0.92994590754E+02 0.  0.
         23    2    4    4    0    0 -0.39958294809E+03  0.10590195881E+03  0.11159675104E+04  0.11939035802E+04  0.95606053054E+02 0.  0.
          4    1    3    3  502    0  0.15803361639E+02  0.41591346774E+00 -0.93662873546E+01  0.18375161548E+02  0.00000000000E+00 0. -1.
         -3    1    3    3    0  502  0.84215578277E+03  0.47360649667E+03 -0.16208993582E+03  0.97969516863E+03  0.00000000000E+00 0.  1.
         13    1    5    5    0    0 -0.22936693212E+03 -0.26418905095E+03  0.26468435592E+03  0.43870588377E+03  0.00000000000E+00 0. -1.
        -13    1    5    5    0    0 -0.22900926420E+03 -0.31573531800E+03  0.41956692851E+03  0.57286162520E+03  0.00000000000E+00 0.  1.
          3    1    6    6  503    0 -0.17915787986E+03 -0.11638722517E+01  0.48258384350E+03  0.51476797348E+03  0.00000000000E+00 0. -1.
         -3    1    6    6    0  503 -0.22042506822E+03  0.10706583106E+03  0.63338366686E+03  0.67913560673E+03  0.00000000000E+00 0.  1.
<mgrwt>
<rscale>  0 0.27585884E+04</rscale>
<asrwt>0</asrwt>
<pdfrwt beam="1">  1        2 0.37171569E+00 0.27585884E+04</pdfrwt>
<pdfrwt beam="2">  1       -1 0.12113684E+00 0.27585884E+04</pdfrwt>
<totfact> 0.23363615E+00</totfact>
</mgrwt>
</event>
<event>
12    7  0.1730932E-007  0.1234561E+04  0.7818608E-02  0.9083132E-01
          2   -1    0    0  501    0  0.00000000000E+00  0.00000000000E+00  0.48979019084E+03  0.48979019084E+03  0.00000000000E+00 0. -1.
         -1   -1    0    0    0  501 -0.00000000000E+00 -0.00000000000E+00 -0.77795597165E+03  0.77795597165E+03  0.00000000000E+00 0.  1.
         24    2    1    2    0    0  0.24452915961E+03 -0.79726496015E+02  0.34433530009E+02  0.27136602914E+03  0.79391622443E+02 0.  0.
        254    2    1    2    0    0 -0.24452915961E+03  0.79726496015E+02 -0.32259931082E+03  0.99638013335E+03  0.90694665264E+03 0.  0.
         23    2    4    4    0    0 -0.40543425840E+03 -0.21162039408E+03 -0.42975771047E+03  0.63496487655E+03  0.96584551921E+02 0.  0.
         23    2    4    4    0    0  0.16090509878E+03  0.29134689009E+03  0.10715839964E+03  0.36141525681E+03  0.91458209355E+02 0.  0.
          4    1    3    3  502    0  0.14984981724E+03 -0.60432350663E+02  0.58410332836E+02  0.17181037138E+03  0.00000000000E+00 0. -1.
         -3    1    3    3    0  502  0.94679342376E+02 -0.19294145353E+02 -0.23976802827E+02  0.99555657757E+02  0.00000000000E+00 0.  1.
         13    1    5    5    0    0 -0.30541932559E+02 -0.32885106245E+02 -0.81136566699E+02  0.92722070258E+02  0.00000000000E+00 0. -1.
        -13    1    5    5    0    0 -0.37489232584E+03 -0.17873528783E+03 -0.34862114377E+03  0.54224280629E+03  0.00000000000E+00 0.  1.
          1    1    6    6  503    0  0.12442640199E+03  0.27210794215E+03  0.73296438786E+02  0.30805361487E+03  0.00000000000E+00 0.  1.
         -1    1    6    6    0  503  0.36478696793E+02  0.19238947941E+02  0.33861960854E+02  0.53361641940E+02  0.00000000000E+00 0. -1.
<mgrwt>
<rscale>  0 0.12345610E+04</rscale>
<asrwt>0</asrwt>
<pdfrwt beam="1">  1        2 0.75352337E-01 0.12345610E+04</pdfrwt>
<pdfrwt beam="2">  1       -1 0.11968553E+00 0.12345610E+04</pdfrwt>
<totfact> 0.44268341E+01</totfact>
</mgrwt>
</event>
<event>
12    7  0.1730932E-007  0.1285431E+04  0.7818608E-02  0.9041199E-01
         -1   -1    0    0    0  501 -0.00000000000E+00  0.00000000000E+00  0.24173461365E+03  0.24173461365E+03  0.00000000000E+00 0.  1.
          2   -1    0    0  501    0  0.00000000000E+00 -0.00000000000E+00 -0.17088298393E+04  0.17088298393E+04  0.00000000000E+00 0. -1.
         24    2    1    2    0    0  0.13228051650E+03  0.26248035982E+03 -0.18897032505E+03  0.35795716221E+03  0.77649674114E+02 0.  0.
        254    2    1    2    0    0 -0.13228051650E+03 -0.26248035982E+03 -0.12781249006E+04  0.15926072907E+04  0.90354891769E+03 0.  0.
         23    2    4    4    0    0  0.31035175588E+03 -0.35631880964E+03 -0.74422870199E+03  0.88677006989E+03  0.95934819062E+02 0.  0.
         23    2    4    4    0    0 -0.44263227238E+03  0.93838449823E+02 -0.53389619858E+03  0.70583722083E+03  0.91826184893E+02 0.  0.
          4    1    3    3  502    0  0.60109797188E+02  0.11412581590E+03 -0.12897979630E+03  0.18241073824E+03  0.00000000000E+00 0. -1.
         -3    1    3    3    0  502  0.72170719311E+02  0.14835454392E+03 -0.59990528755E+02  0.17554642397E+03  0.00000000000E+00 0.  1.
         13    1    5    5    0    0  0.92737798278E+01 -0.28150561801E+02 -0.94650234461E+02  0.99182276671E+02  0.00000000000E+00 0.  1.
        -13    1    5    5    0    0  0.30107797605E+03 -0.32816824784E+03 -0.64957846753E+03  0.78758779322E+03  0.00000000000E+00 0. -1.
          2    1    6    6  503    0 -0.24061328484E+03  0.34269244503E+02 -0.35075683168E+03  0.42673116705E+03  0.00000000000E+00 0. -1.
         -2    1    6    6    0  503 -0.20201898753E+03  0.59569205320E+02 -0.18313936690E+03  0.27910605378E+03  0.00000000000E+00 0.  1.
<mgrwt>
<rscale>  0 0.12854312E+04</rscale>
<asrwt>0</asrwt>
<pdfrwt beam="1">  1        2 0.26289690E+00 0.12854312E+04</pdfrwt>
<pdfrwt beam="2">  1       -1 0.37189941E-01 0.12854312E+04</pdfrwt>
<totfact> 0.75380790E+01</totfact>
</mgrwt>
</event>
<event>
12    7  0.1730932E-007  0.3304418E+04  0.7818608E-02  0.8161772E-01
         -1   -1    0    0    0  501 -0.00000000000E+00  0.00000000000E+00  0.13724796405E+04  0.13724796405E+04  0.00000000000E+00 0.  1.
          2   -1    0    0  501    0  0.00000000000E+00 -0.00000000000E+00 -0.19889511775E+04  0.19889511775E+04  0.00000000000E+00 0. -1.
         24    2    1    2    0    0  0.67112745908E+03 -0.21466221997E+03  0.10947828087E+04  0.13042967811E+04  0.78414028917E+02 0.  0.
        254    2    1    2    0    0 -0.67112745908E+03  0.21466221997E+03 -0.17112543457E+04  0.20571340369E+04  0.89828563121E+03 0.  0.
         23    2    4    4    0    0 -0.44987243983E+02 -0.20160499805E+03 -0.97535157205E+03  0.10011961589E+04  0.91731304049E+02 0.  0.
         23    2    4    4    0    0 -0.62614021510E+03  0.41626721802E+03 -0.73590277362E+03  0.10559378780E+04  0.90121829975E+02 0.  0.
          4    1    3    3  502    0  0.47978208638E+03 -0.15642204142E+03  0.71623211449E+03  0.87615475076E+03  0.00000000000E+00 0. -1.
         -3    1    3    3    0  502  0.19134537271E+03 -0.58240178546E+02  0.37855069420E+03  0.42814203033E+03  0.00000000000E+00 0.  1.
         13    1    5    5    0    0  0.13683811489E+02 -0.18576233783E+02 -0.24123629797E+03  0.24233710945E+03  0.00000000000E+00 0. -1.
        -13    1    5    5    0    0 -0.58671055472E+02 -0.18302876427E+03 -0.73411527408E+03  0.75885904946E+03  0.00000000000E+00 0.  1.
          3    1    6    6  503    0 -0.92098936181E+02  0.10198000756E+03 -0.12444462027E+03  0.18538770051E+03  0.00000000000E+00 0. -1.
         -3    1    6    6    0  503 -0.53404127892E+03  0.31428721046E+03 -0.61145815335E+03  0.87055017750E+03  0.00000000000E+00 0.  1.
<mgrwt>
<rscale>  0 0.33044183E+04</rscale>
<asrwt>0</asrwt>
<pdfrwt beam="1">  1        2 0.30599249E+00 0.33044183E+04</pdfrwt>
<pdfrwt beam="2">  1       -1 0.21115071E+00 0.33044183E+04</pdfrwt>
<totfact> 0.81261631E-01</totfact>
</mgrwt>
</event>
<event>
12    7  0.1730932E-007  0.3208609E+04  0.7818608E-02  0.8186547E-01
         -1   -1    0    0    0  501 -0.00000000000E+00  0.00000000000E+00  0.20980017673E+04  0.20980017673E+04  0.00000000000E+00 0.  1.
          2   -1    0    0  501    0  0.00000000000E+00 -0.00000000000E+00 -0.12267829075E+04  0.12267829075E+04  0.00000000000E+00 0. -1.
         24    2    1    2    0    0  0.40598416935E+03 -0.96988740255E+03 -0.67190305912E+03  0.12503560265E+04  0.80198209324E+02 0.  0.
        254    2    1    2    0    0 -0.40598416935E+03  0.96988740255E+03  0.15431219189E+04  0.20744286482E+04  0.90361730869E+03 0.  0.
         23    2    4    4    0    0 -0.21599763867E+03  0.38936354135E+03  0.13550920088E+04  0.14292867090E+04  0.91253475851E+02 0.  0.
         23    2    4    4    0    0 -0.18998653068E+03  0.58052386120E+03  0.18802991007E+03  0.64514193923E+03  0.88034308142E+02 0.  0.
          2    1    3    3  502    0  0.38043107868E+03 -0.88844195055E+03 -0.64032833824E+03  0.11593434719E+04  0.00000000000E+00 0. -1.
         -1    1    3    3    0  502  0.25553090662E+02 -0.81445452005E+02 -0.31574720883E+02  0.91012554593E+02  0.00000000000E+00 0.  1.
         13    1    5    5    0    0 -0.14335809290E+03  0.17779826097E+03  0.75840153017E+03  0.79204586065E+03  0.00000000000E+00 0.  1.
        -13    1    5    5    0    0 -0.72639545767E+02  0.21156528038E+03  0.59669047865E+03  0.63724084834E+03  0.00000000000E+00 0. -1.
          3    1    6    6  503    0 -0.83140208913E+02  0.16770925145E+03  0.26025321691E+02  0.18898678454E+03  0.00000000000E+00 0. -1.
         -3    1    6    6    0  503 -0.10684632177E+03  0.41281460975E+03  0.16200458838E+03  0.45615515469E+03  0.00000000000E+00 0.  1.
<mgrwt>
<rscale>  0 0.32086089E+04</rscale>
<asrwt>0</asrwt>
<pdfrwt beam="1">  1        2 0.18873583E+00 0.32086089E+04</pdfrwt>
<pdfrwt beam="2">  1       -1 0.32276950E+00 0.32086089E+04</pdfrwt>
<totfact> 0.41073180E-01</totfact>
</mgrwt>
</event>
<event>
12    7  0.1730932E-007  0.3092644E+04  0.7818608E-02  0.8217759E-01
         -1   -1    0    0    0  501 -0.00000000000E+00  0.00000000000E+00  0.93419083693E+03  0.93419083693E+03  0.00000000000E+00 0.  1.
          2   -1    0    0  501    0  0.00000000000E+00 -0.00000000000E+00 -0.25595544595E+04  0.25595544595E+04  0.00000000000E+00 0. -1.
         24    2    1    2    0    0  0.54967397016E+03 -0.12447183603E+04 -0.32931616981E+03  0.14021982909E+04  0.79029345160E+02 0.  0.
        254    2    1    2    0    0 -0.54967397016E+03  0.12447183603E+04 -0.12960474527E+04  0.20915470055E+04  0.91834884797E+03 0.  0.
         23    2    4    4    0    0 -0.13034231012E+03 -0.97642115309E+02 -0.33815529754E+03  0.38740207055E+03  0.95959671355E+02 0.  0.
         23    2    4    4    0    0 -0.41933166004E+03  0.13423604756E+04 -0.95789215518E+03  0.17041449349E+04  0.93711742959E+02 0.  0.
          4    1    3    3  502    0  0.48862317972E+03 -0.10425206982E+04 -0.29076030049E+03  0.11874946612E+04  0.00000000000E+00 0. -1.
         -3    1    3    3    0  502  0.61050790443E+02 -0.20219766205E+03 -0.38555869319E+02  0.21470362971E+03  0.00000000000E+00 0.  1.
         13    1    5    5    0    0 -0.13897665935E+03 -0.67727577608E+02 -0.25034217069E+03  0.29423245749E+03  0.00000000000E+00 0. -1.
        -13    1    5    5    0    0  0.86343492263E+01 -0.29914537701E+02 -0.87813126847E+02  0.93169613067E+02  0.00000000000E+00 0.  1.
          2    1    6    6  503    0 -0.41759594195E+03  0.12880490349E+04 -0.90748791810E+03  0.16300279165E+04  0.00000000000E+00 0.  1.
         -2    1    6    6    0  503 -0.17357180836E+01  0.54311440693E+02 -0.50404237086E+02  0.74117018448E+02  0.00000000000E+00 0. -1.
<mgrwt>
<rscale>  0 0.30926444E+04</rscale>
<asrwt>0</asrwt>
<pdfrwt beam="1">  1        2 0.39377761E+00 0.30926444E+04</pdfrwt>
<pdfrwt beam="2">  1       -1 0.14372167E+00 0.30926444E+04</pdfrwt>
<totfact> 0.12134460E+00</totfact>
</mgrwt>
</event>
<event>
12    7  0.1730932E-007  0.1404216E+04  0.7818608E-02  0.8950773E-01
         -1   -1    0    0    0  501 -0.00000000000E+00  0.00000000000E+00  0.34941975004E+03  0.34941975004E+03  0.00000000000E+00 0.  1.
          2   -1    0    0  501    0  0.00000000000E+00 -0.00000000000E+00 -0.14107830813E+04  0.14107830813E+04  0.00000000000E+00 0. -1.
         24    2    1    2    0    0  0.14646427591E+03  0.26054439173E+03  0.61568741893E+02  0.31586010993E+03  0.81496839746E+02 0.  0.
        254    2    1    2    0    0 -0.14646427591E+03 -0.26054439173E+03 -0.11229320732E+04  0.14443427215E+04  0.85779618316E+03 0.  0.
         23    2    4    4    0    0 -0.32091048952E+03 -0.46197208266E+03 -0.49080477702E+03  0.75215743348E+03  0.91922402891E+02 0.  0.
         23    2    4    4    0    0  0.17444621362E+03  0.20142769093E+03 -0.63212729617E+03  0.69218528797E+03  0.92363186407E+02 0.  0.
          2    1    3    3  502    0 -0.26217281954E+01  0.15062766327E+02 -0.11935598747E+02  0.19396363205E+02  0.00000000000E+00 0. -1.
         -1    1    3    3    0  502  0.14908600410E+03  0.24548162540E+03  0.73504340640E+02  0.29646374672E+03  0.00000000000E+00 0.  1.
         13    1    5    5    0    0 -0.25375690217E+03 -0.40928745578E+03 -0.44294933960E+03  0.65430337330E+03  0.00000000000E+00 0. -1.
        -13    1    5    5    0    0 -0.67153587350E+02 -0.52684626877E+02 -0.47855437420E+02  0.97854060180E+02  0.00000000000E+00 0.  1.
          3    1    6    6  503    0  0.12901585603E+03  0.12069735099E+03 -0.50407288933E+03  0.53413707922E+03  0.00000000000E+00 0. -1.
         -3    1    6    6    0  503  0.45430357591E+02  0.80730339945E+02 -0.12805440684E+03  0.15804820875E+03  0.00000000000E+00 0.  1.
<mgrwt>
<rscale>  0 0.14042158E+04</rscale>
<asrwt>0</asrwt>
<pdfrwt beam="1">  1        2 0.21704355E+00 0.14042158E+04</pdfrwt>
<pdfrwt beam="2">  1       -1 0.53756885E-01 0.14042158E+04</pdfrwt>
<totfact> 0.55245267E+01</totfact>
</mgrwt>
</event>
<event>
12    7  0.1730932E-007  0.1271403E+04  0.7818608E-02  0.9052555E-01
         -1   -1    0    0    0  501 -0.00000000000E+00  0.00000000000E+00  0.23293773362E+03  0.23293773362E+03  0.00000000000E+00 0.  1.
          2   -1    0    0  501    0  0.00000000000E+00 -0.00000000000E+00 -0.17348692551E+04  0.17348692551E+04  0.00000000000E+00 0. -1.
         24    2    1    2    0    0  0.14797836559E+03 -0.16031296599E+03 -0.70714692660E+03  0.74439050952E+03  0.80390367023E+02 0.  0.
        254    2    1    2    0    0 -0.14797836559E+03  0.16031296599E+03 -0.79478459490E+03  0.12234164792E+04  0.90413908531E+03 0.  0.
         23    2    4    4    0    0 -0.12370947836E+03 -0.10711577279E+03  0.14749442058E+03  0.23939743633E+03  0.93694741599E+02 0.  0.
         23    2    4    4    0    0 -0.24268887230E+02  0.26742873878E+03 -0.94227901547E+03  0.98401904289E+03  0.91085808708E+02 0.  0.
          4    1    3    3  502    0  0.15182184076E+03 -0.13154238532E+03 -0.57458911588E+03  0.60869197675E+03  0.00000000000E+00 0. -1.
         -3    1    3    3    0  502 -0.38434751626E+01 -0.28770580671E+02 -0.13255781072E+03  0.13569853277E+03  0.00000000000E+00 0.  1.
         13    1    5    5    0    0 -0.19550519780E+02 -0.65396127178E+02  0.23537997700E+02  0.72200509758E+02  0.00000000000E+00 0.  1.
        -13    1    5    5    0    0 -0.10415895858E+03 -0.41719645613E+02  0.12395642288E+03  0.16719692657E+03  0.00000000000E+00 0. -1.
          1    1    6    6  503    0 -0.24589142321E+01  0.22658742398E+03 -0.86257744129E+03  0.89184513745E+03  0.00000000000E+00 0. -1.
         -1    1    6    6    0  503 -0.21809972997E+02  0.40841314795E+02 -0.79701574182E+02  0.92173905437E+02  0.00000000000E+00 0.  1.
<mgrwt>
<rscale>  0 0.12714032E+04</rscale>
<asrwt>0</asrwt>
<pdfrwt beam="1">  1        2 0.26690296E+00 0.12714032E+04</pdfrwt>
<pdfrwt beam="2">  1       -1 0.35836575E-01 0.12714032E+04</pdfrwt>
<totfact> 0.78034690E+01</totfact>
</mgrwt>
</event>
<event>
12    7  0.1730932E-007  0.1811510E+04  0.7818608E-02  0.8700202E-01
         -1   -1    0    0    0  501 -0.00000000000E+00  0.00000000000E+00  0.12021240723E+04  0.12021240723E+04  0.00000000000E+00 0.  1.
          2   -1    0    0  501    0  0.00000000000E+00 -0.00000000000E+00 -0.68245210626E+03  0.68245210626E+03  0.00000000000E+00 0. -1.
         24    2    1    2    0    0 -0.52650009666E+03 -0.37452134266E+03  0.42050124048E+03  0.77526993298E+03  0.82180215676E+02 0.  0.
        254    2    1    2    0    0  0.52650009666E+03  0.37452134266E+03  0.99170725538E+02  0.11093062456E+04  0.89624601854E+03 0.  0.
         23    2    4    4    0    0  0.42908693711E+03  0.29070690777E+03  0.47037725861E+03  0.70602454482E+03  0.92681101835E+02 0.  0.
         23    2    4    4    0    0  0.97413159546E+02  0.83814434887E+02 -0.37120653308E+03  0.40328170074E+03  0.91255996016E+02 0.  0.
          2    1    3    3  502    0 -0.88263923279E+02 -0.53079706581E+02  0.10387436273E+03  0.14628006917E+03  0.00000000000E+00 0. -1.
         -1    1    3    3    0  502 -0.43823617338E+03 -0.32144163607E+03  0.31662687775E+03  0.62898986381E+03  0.00000000000E+00 0.  1.
         13    1    5    5    0    0  0.19637531767E+03  0.14491112264E+03  0.28236303972E+03  0.37321761086E+03  0.00000000000E+00 0.  1.
        -13    1    5    5    0    0  0.23271161944E+03  0.14579578513E+03  0.18801421889E+03  0.33280693396E+03  0.00000000000E+00 0. -1.
          3    1    6    6  503    0  0.88875568541E+02  0.10326333374E+03 -0.32650735098E+03  0.35379264128E+03  0.00000000000E+00 0. -1.
         -3    1    6    6    0  503  0.85375910056E+01 -0.19448898854E+02 -0.44699182094E+02  0.49489059464E+02  0.00000000000E+00 0.  1.
<mgrwt>
<rscale>  0 0.18115100E+04</rscale>
<asrwt>0</asrwt>
<pdfrwt beam="1">  1        2 0.10499263E+00 0.18115100E+04</pdfrwt>
<pdfrwt beam="2">  1       -1 0.18494216E+00 0.18115100E+04</pdfrwt>
<totfact> 0.87413665E+00</totfact>
</mgrwt>
</event>
<event>
12    7  0.1730932E-007  0.1031609E+04  0.7818608E-02  0.9274540E-01
          2   -1    0    0  501    0  0.00000000000E+00  0.00000000000E+00  0.36221136062E+03  0.36221136062E+03  0.00000000000E+00 0. -1.
         -1   -1    0    0    0  501 -0.00000000000E+00 -0.00000000000E+00 -0.73452739430E+03  0.73452739430E+03  0.00000000000E+00 0.  1.
         24    2    1    2    0    0  0.99344514254E+01  0.31902301870E+01  0.50983954566E+02  0.95268685450E+02  0.79799047052E+02 0.  0.
        254    2    1    2    0    0 -0.99344514254E+01 -0.31902301870E+01 -0.42329998825E+03  0.10014700695E+04  0.90755195393E+03 0.  0.
         23    2    4    4    0    0 -0.42095500543E+03 -0.15680432439E+03 -0.19370270744E+03  0.49789319115E+03  0.92661632757E+02 0.  0.
         23    2    4    4    0    0  0.41102055400E+03  0.15361409421E+03 -0.22959728081E+03  0.50357687831E+03  0.91321274994E+02 0.  0.
          2    1    3    3  502    0  0.17839459211E+00 -0.30115463034E+02  0.52506407907E+02  0.60530123159E+02  0.00000000000E+00 0. -1.
         -1    1    3    3    0  502  0.97560568332E+01  0.33305693221E+02 -0.15224533408E+01  0.34738562291E+02  0.00000000000E+00 0.  1.
         13    1    5    5    0    0 -0.28022594914E+03 -0.81009601950E+02 -0.82394700291E+02  0.30311388094E+03  0.00000000000E+00 0. -1.
        -13    1    5    5    0    0 -0.14072905628E+03 -0.75794722444E+02 -0.11130800715E+03  0.19477931022E+03  0.00000000000E+00 0.  1.
          3    1    6    6  503    0  0.33023308261E+03  0.15502931448E+03 -0.16626325482E+03  0.40091326631E+03  0.00000000000E+00 0. -1.
         -3    1    6    6    0  503  0.80787471388E+02 -0.14152202723E+01 -0.63334025986E+02  0.10266361200E+03  0.00000000000E+00 0.  1.
<mgrwt>
<rscale>  0 0.10316088E+04</rscale>
<asrwt>0</asrwt>
<pdfrwt beam="1">  1        2 0.55724824E-01 0.10316088E+04</pdfrwt>
<pdfrwt beam="2">  1       -1 0.11300422E+00 0.10316088E+04</pdfrwt>
<totfact> 0.72682713E+01</totfact>
</mgrwt>
</event>
<event>
12    7  0.1730932E-007  0.1339874E+04  0.7818608E-02  0.8998529E-01
         -1   -1    0    0    0  501 -0.00000000000E+00  0.00000000000E+00  0.55938914492E+03  0.55938914492E+03  0.00000000000E+00 0.  1.
          2   -1    0    0  501    0  0.00000000000E+00 -0.00000000000E+00 -0.80233126930E+03  0.80233126930E+03  0.00000000000E+00 0. -1.
         24    2    1    2    0    0  0.24121048888E+03  0.54531679411E+02  0.22010304193E+03  0.34289122771E+03  0.89290766422E+02 0.  0.
        254    2    1    2    0    0 -0.24121048888E+03 -0.54531679411E+02 -0.46304516630E+03  0.10188291865E+04  0.87318147097E+03 0.  0.
         23    2    4    4    0    0 -0.26928030587E+03 -0.38640648439E+03 -0.47242287455E+03  0.67333113417E+03  0.91485460840E+02 0.  0.
         23    2    4    4    0    0  0.28069816993E+02  0.33187480498E+03  0.93777082492E+01  0.34549805234E+03  0.91390163332E+02 0.  0.
          2    1    3    3  502    0  0.23594466935E+03  0.32631242481E+02  0.18687863790E+03  0.30275123498E+03  0.00000000000E+00 0. -1.
         -1    1    3    3    0  502  0.52658195326E+01  0.21900436930E+02  0.33224404030E+02  0.40139992728E+02  0.00000000000E+00 0.  1.
         13    1    5    5    0    0 -0.24319375731E+02 -0.46972985550E+02 -0.18933516105E+02  0.56181593423E+02  0.00000000000E+00 0.  1.
        -13    1    5    5    0    0 -0.24496093014E+03 -0.33943349884E+03 -0.45348935844E+03  0.61714954075E+03  0.00000000000E+00 0. -1.
          3    1    6    6  503    0  0.58488092061E+02  0.15914683864E+03 -0.40145779395E+01  0.16960156249E+03  0.00000000000E+00 0.  1.
         -3    1    6    6    0  503 -0.30418275068E+02  0.17272796634E+03  0.13392286189E+02  0.17589648985E+03  0.00000000000E+00 0. -1.
<mgrwt>
<rscale>  0 0.13398737E+04</rscale>
<asrwt>0</asrwt>
<pdfrwt beam="1">  1        2 0.12343558E+00 0.13398737E+04</pdfrwt>
<pdfrwt beam="2">  1       -1 0.86059868E-01 0.13398737E+04</pdfrwt>
<totfact> 0.51052502E+01</totfact>
</mgrwt>
</event>
<event>
12    7  0.1730932E-007  0.2403917E+04  0.7818608E-02  0.8438038E-01
          2   -1    0    0  501    0  0.00000000000E+00  0.00000000000E+00  0.10519767071E+04  0.10519767071E+04  0.00000000000E+00 0. -1.
         -1   -1    0    0    0  501 -0.00000000000E+00 -0.00000000000E+00 -0.13733236252E+04  0.13733236252E+04  0.00000000000E+00 0.  1.
         24    2    1    2    0    0  0.10176019988E+04 -0.74564863685E+02  0.17740291560E+02  0.10234616850E+04  0.78008690649E+02 0.  0.
        254    2    1    2    0    0 -0.10176019988E+04  0.74564863685E+02 -0.33908720967E+03  0.14018386472E+04  0.89949858825E+03 0.  0.
         23    2    4    4    0    0 -0.41332384960E+03  0.23755009550E+03  0.24308022610E+03  0.54235172903E+03  0.88265220456E+02 0.  0.
         23    2    4    4    0    0 -0.60427814920E+03 -0.16298523182E+03 -0.58216743577E+03  0.85948691820E+03  0.89903125077E+02 0.  0.
          4    1    3    3  502    0  0.88083672641E+03 -0.83900745352E+02 -0.29308145966E+01  0.88482838072E+03  0.00000000000E+00 0. -1.
         -3    1    3    3    0  502  0.13676527240E+03  0.93358816670E+01  0.20671106157E+02  0.13863330426E+03  0.00000000000E+00 0.  1.
         13    1    5    5    0    0 -0.16893996713E+03  0.12848076479E+03  0.69350013222E+02  0.22328780475E+03  0.00000000000E+00 0.  1.
        -13    1    5    5    0    0 -0.24438388248E+03  0.10906933071E+03  0.17373021288E+03  0.31906392429E+03  0.00000000000E+00 0. -1.
          4    1    6    6  503    0 -0.17806757281E+03 -0.93087713970E+01 -0.14394926001E+03  0.22916392205E+03  0.00000000000E+00 0. -1.
         -4    1    6    6    0  503 -0.42621057639E+03 -0.15367646042E+03 -0.43821817576E+03  0.63032299615E+03  0.00000000000E+00 0.  1.
<mgrwt>
<rscale>  0 0.24039172E+04</rscale>
<asrwt>0</asrwt>
<pdfrwt beam="1">  1        2 0.16184257E+00 0.24039172E+04</pdfrwt>
<pdfrwt beam="2">  1       -1 0.21128056E+00 0.24039172E+04</pdfrwt>
<totfact> 0.30143860E+00</totfact>
</mgrwt>
</event>
<event>
12    7  0.1730932E-007  0.2299456E+04  0.7818608E-02  0.8478135E-01
         -1   -1    0    0    0  501 -0.00000000000E+00  0.00000000000E+00  0.12520825774E+04  0.12520825774E+04  0.00000000000E+00 0.  1.
          2   -1    0    0  501    0  0.00000000000E+00 -0.00000000000E+00 -0.10557410604E+04  0.10557410604E+04  0.00000000000E+00 0. -1.
         24    2    1    2    0    0  0.56491463413E+03 -0.19219497081E+03  0.86227937973E+03  0.10515469143E+04  0.78471228334E+02 0.  0.
        254    2    1    2    0    0 -0.56491463413E+03  0.19219497081E+03 -0.66593786268E+03  0.12562767234E+04  0.88243442717E+03 0.  0.
         23    2    4    4    0    0 -0.37132870248E+03  0.53221391139E+03 -0.48298013715E+03  0.81394708889E+03  0.90018875072E+02 0.  0.
         23    2    4    4    0    0 -0.19358593164E+03 -0.34001894058E+03 -0.18295772553E+03  0.44232963455E+03  0.95360282006E+02 0.  0.
          4    1    3    3  502    0  0.13553584237E+03 -0.75898810569E+02  0.25855185119E+03  0.30162833714E+03  0.00000000000E+00 0. -1.
         -3    1    3    3    0  502  0.42937879176E+03 -0.11629616025E+03  0.60372752854E+03  0.74991857719E+03  0.00000000000E+00 0.  1.
         13    1    5    5    0    0 -0.11621419991E+03  0.21015214230E+03 -0.13476996398E+03  0.27537720742E+03  0.00000000000E+00 0.  1.
        -13    1    5    5    0    0 -0.25511450257E+03  0.32206176909E+03 -0.34821017317E+03  0.53856988147E+03  0.00000000000E+00 0. -1.
          4    1    6    6  503    0 -0.18254368943E+03 -0.30829164241E+03 -0.13309157513E+03  0.38220322173E+03  0.00000000000E+00 0. -1.
         -4    1    6    6    0  503 -0.11042242213E+02 -0.31727298166E+02 -0.49866150401E+02  0.60126412814E+02  0.00000000000E+00 0.  1.
<mgrwt>
<rscale>  0 0.22994564E+04</rscale>
<asrwt>0</asrwt>
<pdfrwt beam="1">  1        2 0.16242170E+00 0.22994564E+04</pdfrwt>
<pdfrwt beam="2">  1       -1 0.19262809E+00 0.22994564E+04</pdfrwt>
<totfact> 0.40643443E+00</totfact>
</mgrwt>
</event>
<event>
12    7  0.1730932E-007  0.1393397E+04  0.7818608E-02  0.8958612E-01
          2   -1    0    0  501    0  0.00000000000E+00  0.00000000000E+00  0.16724980257E+04  0.16724980257E+04  0.00000000000E+00 0. -1.
         -1   -1    0    0    0  501 -0.00000000000E+00 -0.00000000000E+00 -0.29021802986E+03  0.29021802986E+03  0.00000000000E+00 0.  1.
         24    2    1    2    0    0 -0.11874294695E+03 -0.15148794948E+03  0.90030256604E+03  0.92478358806E+03  0.87358388494E+02 0.  0.
        254    2    1    2    0    0  0.11874294695E+03  0.15148794948E+03  0.48197742978E+03  0.10379324675E+04  0.89886210174E+03 0.  0.
         23    2    4    4    0    0  0.67578400368E+01 -0.14674702648E+03 -0.20947447890E+03  0.27117953560E+03  0.89880059179E+02 0.  0.
         23    2    4    4    0    0  0.11198510691E+03  0.29823497596E+03  0.69145190868E+03  0.76675293188E+03  0.91211575351E+02 0.  0.
          2    1    3    3  502    0 -0.39510530590E+02 -0.40891647222E+00  0.21235583055E+03  0.21600057409E+03  0.00000000000E+00 0. -1.
         -1    1    3    3    0  502 -0.79232416356E+02 -0.15107903301E+03  0.68794673549E+03  0.70878301397E+03  0.00000000000E+00 0.  1.
         13    1    5    5    0    0 -0.28372508033E+02 -0.11518233772E+03 -0.17978734808E+03  0.21539605536E+03  0.00000000000E+00 0.  1.
        -13    1    5    5    0    0  0.35130348070E+02 -0.31564688754E+02 -0.29687130819E+02  0.55783480242E+02  0.00000000000E+00 0. -1.
          3    1    6    6  503    0 -0.15330030401E+02  0.42171419860E+02  0.79741896228E+02  0.91499773219E+02  0.00000000000E+00 0. -1.
         -3    1    6    6    0  503  0.12731513731E+03  0.25606355610E+03  0.61171001245E+03  0.67525315866E+03  0.00000000000E+00 0.  1.
<mgrwt>
<rscale>  0 0.13933974E+04</rscale>
<asrwt>0</asrwt>
<pdfrwt beam="1">  1        2 0.25730738E+00 0.13933974E+04</pdfrwt>
<pdfrwt beam="2">  1       -1 0.44648929E-01 0.13933974E+04</pdfrwt>
<totfact> 0.56006054E+01</totfact>
</mgrwt>
</event>
<event>
12    7  0.1730932E-007  0.1214347E+04  0.7818608E-02  0.9100390E-01
          2   -1    0    0  501    0  0.00000000000E+00  0.00000000000E+00  0.24382103372E+04  0.24382103372E+04  0.00000000000E+00 0. -1.
         -1   -1    0    0    0  501 -0.00000000000E+00 -0.00000000000E+00 -0.15120104123E+03  0.15120104123E+03  0.00000000000E+00 0.  1.
         24    2    1    2    0    0 -0.41376380792E+01  0.13796067145E+03  0.96622819039E+03  0.97928193788E+03  0.79661352265E+02 0.  0.
        254    2    1    2    0    0  0.41376380792E+01 -0.13796067145E+03  0.13207811056E+04  0.16101294405E+04  0.91049646871E+03 0.  0.
         23    2    4    4    0    0  0.31086383882E+03 -0.23483249520E+03  0.21440015193E+03  0.45433233212E+03  0.93101105128E+02 0.  0.
         23    2    4    4    0    0 -0.30672620074E+03  0.96871823751E+02  0.11063809536E+04  0.11557971084E+04  0.91230635161E+02 0.  0.
          4    1    3    3  502    0 -0.11017363627E+02 -0.60909579165E+01  0.13973100669E+03  0.14029695756E+03  0.00000000000E+00 0. -1.
         -3    1    3    3    0  502  0.68797255475E+01  0.14405162936E+03  0.82649718370E+03  0.83898498033E+03  0.00000000000E+00 0.  1.
         13    1    5    5    0    0  0.19926945575E+03 -0.17217472777E+03  0.18823104711E+03  0.32370261039E+03  0.00000000000E+00 0. -1.
        -13    1    5    5    0    0  0.11159438307E+03 -0.62657767428E+02  0.26169104816E+02  0.13062972173E+03  0.00000000000E+00 0.  1.
          3    1    6    6  503    0 -0.58965892421E+02  0.34502433892E+02  0.13398764735E+03  0.15039974752E+03  0.00000000000E+00 0. -1.
         -3    1    6    6    0  503 -0.24776030832E+03  0.62369389859E+02  0.97239330630E+03  0.10053973609E+04  0.00000000000E+00 0.  1.
<mgrwt>
<rscale>  0 0.12143475E+04</rscale>
<asrwt>0</asrwt>
<pdfrwt beam="1">  1        2 0.37510925E+00 0.12143475E+04</pdfrwt>
<pdfrwt beam="2">  1       -1 0.23261700E-01 0.12143475E+04</pdfrwt>
<totfact> 0.67607427E+01</totfact>
</mgrwt>
</event>
<event>
12    7  0.1730932E-007  0.1348268E+04  0.7818608E-02  0.8992141E-01
          2   -1    0    0  501    0  0.00000000000E+00  0.00000000000E+00  0.24023603684E+04  0.24023603684E+04  0.00000000000E+00 0. -1.
         -1   -1    0    0    0  501 -0.00000000000E+00 -0.00000000000E+00 -0.18917075500E+03  0.18917075500E+03  0.00000000000E+00 0.  1.
         24    2    1    2    0    0  0.13669704876E+03  0.31187276513E+03  0.33759951361E+03  0.48462805032E+03  0.70286633103E+02 0.  0.
        254    2    1    2    0    0 -0.13669704876E+03 -0.31187276513E+03  0.18755900998E+04  0.21069030731E+04  0.89735814043E+03 0.  0.
         23    2    4    4    0    0 -0.36236480191E+03  0.14077466802E+03  0.50911284047E+03  0.64698304822E+03  0.90914374743E+02 0.  0.
         23    2    4    4    0    0  0.22566775315E+03 -0.45264743315E+03  0.13664772593E+04  0.14599200249E+04  0.91053529473E+02 0.  0.
          2    1    3    3  502    0  0.82179678183E+02  0.10516725919E+03  0.14187998490E+03  0.19479112410E+03  0.00000000000E+00 0. -1.
         -1    1    3    3    0  502  0.54517370581E+02  0.20670550595E+03  0.19571952870E+03  0.28983692622E+03  0.00000000000E+00 0.  1.
         13    1    5    5    0    0 -0.10220236785E+03  0.39970559030E+02  0.21618089845E+03  0.24243999348E+03  0.00000000000E+00 0.  1.
        -13    1    5    5    0    0 -0.26016243406E+03  0.10080410899E+03  0.29293194202E+03  0.40454305474E+03  0.00000000000E+00 0. -1.
          4    1    6    6  503    0  0.23907482951E+01 -0.89180909164E+01  0.46734768940E+01  0.10348401291E+02  0.00000000000E+00 0.  1.
         -4    1    6    6    0  503  0.22327700485E+03 -0.44372934224E+03  0.13618037824E+04  0.14495716236E+04  0.00000000000E+00 0. -1.
<mgrwt>
<rscale>  0 0.13482675E+04</rscale>
<asrwt>0</asrwt>
<pdfrwt beam="1">  1        2 0.36959388E+00 0.13482675E+04</pdfrwt>
<pdfrwt beam="2">  1       -1 0.29103195E-01 0.13482675E+04</pdfrwt>
<totfact> 0.47613682E+01</totfact>
</mgrwt>
</event>
<event>
12    7  0.1730932E-007  0.2819047E+04  0.7818608E-02  0.8297379E-01
          2   -1    0    0  501    0  0.00000000000E+00  0.00000000000E+00  0.17963257989E+04  0.17963257989E+04  0.00000000000E+00 0. -1.
         -1   -1    0    0    0  501 -0.00000000000E+00 -0.00000000000E+00 -0.11060110718E+04  0.11060110718E+04  0.00000000000E+00 0.  1.
         24    2    1    2    0    0  0.76943888614E+02  0.93523064850E+03  0.11809589080E+04  0.15105728513E+04  0.81176774796E+02 0.  0.
        254    2    1    2    0    0 -0.76943888614E+02 -0.93523064850E+03 -0.49064418088E+03  0.13917640194E+04  0.90316036530E+03 0.  0.
         23    2    4    4    0    0 -0.35922528226E+03 -0.19536874853E+03 -0.41694540100E+03  0.59118473657E+03  0.91892186895E+02 0.  0.
         23    2    4    4    0    0  0.28228139365E+03 -0.73986189998E+03 -0.73698779879E+02  0.80057928279E+03  0.91745635559E+02 0.  0.
          2    1    3    3  502    0  0.66880321567E+02  0.89772256567E+03  0.11525988459E+04  0.14624851732E+04  0.00000000000E+00 0. -1.
         -1    1    3    3    0  502  0.10063567047E+02  0.37508082832E+02  0.28360062110E+02  0.48087678072E+02  0.00000000000E+00 0.  1.
         13    1    5    5    0    0 -0.77925618885E+02 -0.84133210060E+02 -0.14089117647E+03  0.18166211140E+03  0.00000000000E+00 0. -1.
        -13    1    5    5    0    0 -0.28129966338E+03 -0.11123553847E+03 -0.27605422454E+03  0.40952262516E+03  0.00000000000E+00 0.  1.
          4    1    6    6  503    0  0.11691602901E+03 -0.36802578714E+03 -0.76324905110E+02  0.39362142850E+03  0.00000000000E+00 0.  1.
         -4    1    6    6    0  503  0.16536536464E+03 -0.37183611284E+03  0.26261252315E+01  0.40695785429E+03  0.00000000000E+00 0. -1.
<mgrwt>
<rscale>  0 0.28190468E+04</rscale>
<asrwt>0</asrwt>
<pdfrwt beam="1">  1        2 0.27635782E+00 0.28190468E+04</pdfrwt>
<pdfrwt beam="2">  1       -1 0.17015555E+00 0.28190468E+04</pdfrwt>
<totfact> 0.21037751E+00</totfact>
</mgrwt>
</event>
<event>
12    7  0.1730932E-007  0.1505583E+04  0.7818608E-02  0.8880749E-01
          2   -1    0    0  501    0  0.00000000000E+00  0.00000000000E+00  0.87104059449E+03  0.87104059449E+03  0.00000000000E+00 0. -1.
         -1   -1    0    0    0  501 -0.00000000000E+00 -0.00000000000E+00 -0.65059526378E+03  0.65059526378E+03  0.00000000000E+00 0.  1.
         24    2    1    2    0    0  0.37526468704E+03 -0.12225525405E+03  0.33397911383E+03  0.52308225329E+03  0.79391830497E+02 0.  0.
        254    2    1    2    0    0 -0.37526468704E+03  0.12225525405E+03 -0.11353378312E+03  0.99855360498E+03  0.91019198504E+03 0.  0.
         23    2    4    4    0    0 -0.38305386827E+03 -0.24354920169E+03 -0.32640294293E+03  0.56582818132E+03  0.87041197034E+02 0.  0.
         23    2    4    4    0    0  0.77891812341E+01  0.36580445574E+03  0.21286915981E+03  0.43272542366E+03  0.89802237720E+02 0.  0.
          2    1    3    3  502    0  0.25782086782E+03 -0.59475823997E+02  0.25899209801E+03  0.37025110446E+03  0.00000000000E+00 0. -1.
         -1    1    3    3    0  502  0.11744381922E+03 -0.62779430050E+02  0.74987015824E+02  0.15283114883E+03  0.00000000000E+00 0.  1.
         13    1    5    5    0    0 -0.38094699295E+03 -0.22307070318E+03 -0.31477226562E+03  0.54218329858E+03  0.00000000000E+00 0.  1.
        -13    1    5    5    0    0 -0.21068753159E+01 -0.20478498516E+02 -0.11630677307E+02  0.23644882738E+02  0.00000000000E+00 0. -1.
          4    1    6    6  503    0 -0.92437222482E+01  0.10508905283E+03  0.18547529735E+02  0.10711286703E+03  0.00000000000E+00 0. -1.
         -4    1    6    6    0  503  0.17032903482E+02  0.26071540291E+03  0.19432163007E+03  0.32561255662E+03  0.00000000000E+00 0.  1.
<mgrwt>
<rscale>  0 0.15055828E+04</rscale>
<asrwt>0</asrwt>
<pdfrwt beam="1">  1        2 0.13400625E+00 0.15055828E+04</pdfrwt>
<pdfrwt beam="2">  1       -1 0.10009158E+00 0.15055828E+04</pdfrwt>
<totfact> 0.32187534E+01</totfact>
</mgrwt>
</event>
<event>
12    7  0.1730932E-007  0.2691715E+04  0.7818608E-02  0.8337698E-01
         -1   -1    0    0    0  501 -0.00000000000E+00  0.00000000000E+00  0.16080687612E+04  0.16080687612E+04  0.00000000000E+00 0.  1.
          2   -1    0    0  501    0  0.00000000000E+00 -0.00000000000E+00 -0.11264020218E+04  0.11264020218E+04  0.00000000000E+00 0. -1.
         24    2    1    2    0    0 -0.46533246664E+02 -0.88133352153E+03 -0.52402283464E+03  0.10316656505E+04  0.10401905576E+03 0.  0.
        254    2    1    2    0    0  0.46533246664E+02  0.88133352153E+03  0.10056895740E+04  0.17028051325E+04  0.10531949871E+04 0.  0.
         23    2    4    4    0    0  0.18285622661E+03  0.11391584243E+03  0.87617293879E+03  0.90675857382E+03  0.90104793233E+02 0.  0.
         23    2    4    4    0    0 -0.13632297994E+03  0.76741767910E+03  0.12951663522E+03  0.79604655868E+03  0.96962444958E+02 0.  0.
          2    1    3    3  502    0 -0.78880446721E+02 -0.70123091341E+03 -0.41257260903E+03  0.81741242743E+03  0.00000000000E+00 0. -1.
         -1    1    3    3    0  502  0.32347200057E+02 -0.18010260812E+03 -0.11145022561E+03  0.21425322306E+03  0.00000000000E+00 0.  1.
         13    1    5    5    0    0  0.19136640866E+02 -0.15591524263E+02  0.85264988531E+02  0.88766124854E+02  0.00000000000E+00 0. -1.
        -13    1    5    5    0    0  0.16371958574E+03  0.12950736669E+03  0.79090795025E+03  0.81799244896E+03  0.00000000000E+00 0.  1.
          1    1    6    6  503    0 -0.41384329974E+02  0.23738577227E+03 -0.50507350725E+01  0.24101903984E+03  0.00000000000E+00 0. -1.
         -1    1    6    6    0  503 -0.94938649969E+02  0.53003190684E+03  0.13456737029E+03  0.55502751884E+03  0.00000000000E+00 0.  1.
<mgrwt>
<rscale>  0 0.26917146E+04</rscale>
<asrwt>0</asrwt>
<pdfrwt beam="1">  1        2 0.17329262E+00 0.26917146E+04</pdfrwt>
<pdfrwt beam="2">  1       -1 0.24739519E+00 0.26917146E+04</pdfrwt>
<totfact> 0.15223966E+00</totfact>
</mgrwt>
</event>
<event>
12    7  0.1730932E-007  0.1175571E+04  0.7818608E-02  0.9134512E-01
          2   -1    0    0  501    0  0.00000000000E+00  0.00000000000E+00  0.90670805492E+03  0.90670805492E+03  0.00000000000E+00 0. -1.
         -1   -1    0    0    0  501 -0.00000000000E+00 -0.00000000000E+00 -0.38103943290E+03  0.38103943290E+03  0.00000000000E+00 0.  1.
         24    2    1    2    0    0  0.22103004786E+03 -0.61900171282E+02  0.87298844617E+02  0.25837113253E+03  0.80303428282E+02 0.  0.
        254    2    1    2    0    0 -0.22103004786E+03  0.61900171282E+02  0.43836977740E+03  0.10293763553E+04  0.90264151568E+03 0.  0.
         23    2    4    4    0    0  0.64636332999E+02  0.13259834673E+03  0.63859516206E+03  0.66182152249E+03  0.91889986043E+02 0.  0.
         23    2    4    4    0    0 -0.28566638086E+03 -0.70698175450E+02 -0.20022538465E+03  0.36755483279E+03  0.91666991249E+02 0.  0.
          4    1    3    3  502    0  0.19765267895E+03 -0.28961800404E+02  0.56566805625E+02  0.20761784817E+03  0.00000000000E+00 0. -1.
         -3    1    3    3    0  502  0.23377368905E+02 -0.32938370878E+02  0.30732038992E+02  0.50753284363E+02  0.00000000000E+00 0.  1.
         13    1    5    5    0    0 -0.18067877450E+02  0.26033080521E+02  0.61656424030E+02  0.69323041632E+02  0.00000000000E+00 0. -1.
        -13    1    5    5    0    0  0.82704210449E+02  0.10656526621E+03  0.57693873803E+03  0.59249848086E+03  0.00000000000E+00 0.  1.
          1    1    6    6  503    0 -0.58071575267E+02  0.22225216923E+02 -0.46055631571E+02  0.77378222522E+02  0.00000000000E+00 0. -1.
         -1    1    6    6    0  503 -0.22759480559E+03 -0.92923392373E+02 -0.15416975308E+03  0.29017661027E+03  0.00000000000E+00 0.  1.
<mgrwt>
<rscale>  0 0.11755705E+04</rscale>
<asrwt>0</asrwt>
<pdfrwt beam="1">  1        2 0.13949355E+00 0.11755705E+04</pdfrwt>
<pdfrwt beam="2">  1       -1 0.58621451E-01 0.11755705E+04</pdfrwt>
<totfact> 0.96497756E+01</totfact>
</mgrwt>
</event>
<event>
12    7  0.1730932E-007  0.1939396E+04  0.7818608E-02  0.8635491E-01
          2   -1    0    0  501    0  0.00000000000E+00  0.00000000000E+00  0.65835101405E+03  0.65835101405E+03  0.00000000000E+00 0. -1.
         -1   -1    0    0    0  501 -0.00000000000E+00 -0.00000000000E+00 -0.14282864817E+04  0.14282864817E+04  0.00000000000E+00 0.  1.
         24    2    1    2    0    0 -0.11383125397E+01  0.53465283520E+03 -0.87896753588E+03  0.10319073007E+04  0.79961229296E+02 0.  0.
        254    2    1    2    0    0  0.11383125397E+01 -0.53465283520E+03  0.10903206820E+03  0.10547301951E+04  0.90261444846E+03 0.  0.
         23    2    4    4    0    0 -0.19887291048E+02 -0.67764152959E+03 -0.18829970056E+03  0.70934845747E+03  0.90138282167E+02 0.  0.
         23    2    4    4    0    0  0.21025603588E+02  0.14298869439E+03  0.29733176877E+03  0.34538173760E+03  0.99972602363E+02 0.  0.
          2    1    3    3  502    0 -0.31897987577E+02  0.28166453037E+03 -0.41533567317E+03  0.50284799959E+03  0.00000000000E+00 0. -1.
         -1    1    3    3    0  502  0.30759675037E+02  0.25298830483E+03 -0.46363186270E+03  0.52905930112E+03  0.00000000000E+00 0.  1.
         13    1    5    5    0    0  0.19472990963E+02 -0.46637763153E+03 -0.10218873990E+03  0.47783870828E+03  0.00000000000E+00 0. -1.
        -13    1    5    5    0    0 -0.39360282010E+02 -0.21126389806E+03 -0.86110960661E+02  0.23150974919E+03  0.00000000000E+00 0.  1.
          2    1    6    6  503    0 -0.96332953396E+00  0.11293837994E+03  0.12246495621E+03  0.16659433113E+03  0.00000000000E+00 0. -1.
         -2    1    6    6    0  503  0.21988933121E+02  0.30050314455E+02  0.17486681256E+03  0.17878740647E+03  0.00000000000E+00 0.  1.
<mgrwt>
<rscale>  0 0.19393956E+04</rscale>
<asrwt>0</asrwt>
<pdfrwt beam="1">  1        2 0.10128477E+00 0.19393956E+04</pdfrwt>
<pdfrwt beam="2">  1       -1 0.21973638E+00 0.19393956E+04</pdfrwt>
<totfact> 0.52122473E+00</totfact>
</mgrwt>
</event>
<event>
12    7  0.1730932E-007  0.1693693E+04  0.7818608E-02  0.8764970E-01
          2   -1    0    0  501    0  0.00000000000E+00  0.00000000000E+00  0.63677371920E+03  0.63677371920E+03  0.00000000000E+00 0. -1.
         -1   -1    0    0    0  501 -0.00000000000E+00 -0.00000000000E+00 -0.11262220473E+04  0.11262220473E+04  0.00000000000E+00 0.  1.
         24    2    1    2    0    0 -0.20726300779E+02  0.30840972475E+03  0.35625456153E+03  0.47827849968E+03  0.79289802502E+02 0.  0.
        254    2    1    2    0    0  0.20726300779E+02 -0.30840972475E+03 -0.84570288960E+03  0.12847172668E+04  0.91637270816E+03 0.  0.
         23    2    4    4    0    0 -0.37669651077E+03 -0.65175052949E+02 -0.67286542565E+03  0.77940888089E+03  0.92640562438E+02 0.  0.
         23    2    4    4    0    0  0.39742281155E+03 -0.24323467180E+03 -0.17283746395E+03  0.50530838591E+03  0.91409951411E+02 0.  0.
          2    1    3    3  502    0  0.10925249306E+02  0.25245185175E+03  0.26029468786E+03  0.36277351482E+03  0.00000000000E+00 0. -1.
         -1    1    3    3    0  502 -0.31651550085E+02  0.55957872997E+02  0.95959873668E+02  0.11550498486E+03  0.00000000000E+00 0.  1.
         13    1    5    5    0    0 -0.21122599353E+02 -0.29098428024E+02 -0.62165079295E+02  0.71814899573E+02  0.00000000000E+00 0. -1.
        -13    1    5    5    0    0 -0.35557391142E+03 -0.36076624925E+02 -0.61070034636E+03  0.70759398131E+03  0.00000000000E+00 0.  1.
          1    1    6    6  503    0  0.59819347437E+02 -0.52726589760E+02 -0.65182587625E+02  0.10299134587E+03  0.00000000000E+00 0. -1.
         -1    1    6    6    0  503  0.33760346412E+03 -0.19050808204E+03 -0.10765487632E+03  0.40231704003E+03  0.00000000000E+00 0.  1.
<mgrwt>
<rscale>  0 0.16936925E+04</rscale>
<asrwt>0</asrwt>
<pdfrwt beam="1">  1        2 0.97965190E-01 0.16936925E+04</pdfrwt>
<pdfrwt beam="2">  1       -1 0.17326493E+00 0.16936925E+04</pdfrwt>
<totfact> 0.11678333E+01</totfact>
</mgrwt>
</event>
<event>
12    7  0.1730932E-007  0.1814528E+04  0.7818608E-02  0.8698611E-01
          2   -1    0    0  501    0  0.00000000000E+00  0.00000000000E+00  0.98795653184E+03  0.98795653184E+03  0.00000000000E+00 0. -1.
         -1   -1    0    0    0  501 -0.00000000000E+00 -0.00000000000E+00 -0.83316235918E+03  0.83316235918E+03  0.00000000000E+00 0.  1.
         24    2    1    2    0    0  0.20145880032E+03 -0.44890412229E+03  0.49729979073E+03  0.70421615908E+03  0.80701658034E+02 0.  0.
        254    2    1    2    0    0 -0.20145880032E+03  0.44890412229E+03 -0.34250561807E+03  0.11169027319E+04  0.94236991408E+03 0.  0.
         23    2    4    4    0    0 -0.30793419928E+03  0.69871724164E+03 -0.18899867599E+03  0.79173615417E+03  0.89979905732E+02 0.  0.
         23    2    4    4    0    0  0.10647539896E+03 -0.24981311935E+03 -0.15350694209E+03  0.32516657777E+03  0.91789524715E+02 0.  0.
          2    1    3    3  502    0  0.18639951145E+03 -0.33207825925E+03  0.38085722567E+03  0.53858423156E+03  0.00000000000E+00 0. -1.
         -1    1    3    3    0  502  0.15059288867E+02 -0.11682586304E+03  0.11644256506E+03  0.16563192752E+03  0.00000000000E+00 0.  1.
         13    1    5    5    0    0 -0.24937660352E+03  0.56047567858E+03 -0.18796053379E+03  0.64160021737E+03  0.00000000000E+00 0. -1.
        -13    1    5    5    0    0 -0.58557595760E+02  0.13824156306E+03 -0.10381421917E+01  0.15013593680E+03  0.00000000000E+00 0.  1.
          1    1    6    6  503    0  0.10457138889E+03 -0.16524149352E+03 -0.74026914628E+02  0.20909306695E+03  0.00000000000E+00 0. -1.
         -1    1    6    6    0  503  0.19040100616E+01 -0.84571625832E+02 -0.79480027458E+02  0.11607351082E+03  0.00000000000E+00 0.  1.
<mgrwt>
<rscale>  0 0.18145283E+04</rscale>
<asrwt>0</asrwt>
<pdfrwt beam="1">  1        2 0.15199331E+00 0.18145283E+04</pdfrwt>
<pdfrwt beam="2">  1       -1 0.12817882E+00 0.18145283E+04</pdfrwt>
<totfact> 0.14499745E+01</totfact>
</mgrwt>
</event>
<event>
12    7  0.1730932E-007  0.2170295E+04  0.7818608E-02  0.8530895E-01
          2   -1    0    0  501    0  0.00000000000E+00  0.00000000000E+00  0.21851966989E+04  0.21851966989E+04  0.00000000000E+00 0. -1.
         -1   -1    0    0    0  501 -0.00000000000E+00 -0.00000000000E+00 -0.53887360688E+03  0.53887360688E+03  0.00000000000E+00 0.  1.
         24    2    1    2    0    0 -0.70842542445E+03  0.11417559621E+03  0.61392668112E+01  0.72195804837E+03  0.79265908363E+02 0.  0.
        254    2    1    2    0    0  0.70842542445E+03 -0.11417559621E+03  0.16401838252E+04  0.20021122574E+04  0.89629674885E+03 0.  0.
         23    2    4    4    0    0  0.57932303432E+03  0.61260565268E+01  0.32190680570E+03  0.66893161851E+03  0.90514153664E+02 0.  0.
         23    2    4    4    0    0  0.12910239013E+03 -0.12030165273E+03  0.13182770195E+04  0.13331806389E+04  0.91522680221E+02 0.  0.
          4    1    3    3  502    0 -0.15367114396E+03  0.39073198915E+02  0.31121023375E+02  0.16158605588E+03  0.00000000000E+00 0. -1.
         -3    1    3    3    0  502 -0.55475428050E+03  0.75102397291E+02 -0.24981756564E+02  0.56037199249E+03  0.00000000000E+00 0.  1.
         13    1    5    5    0    0  0.46805915099E+03 -0.22202373204E+02  0.23068683402E+03  0.52229180502E+03  0.00000000000E+00 0. -1.
        -13    1    5    5    0    0  0.11126388334E+03  0.28328429731E+02  0.91219971683E+02  0.14663981349E+03  0.00000000000E+00 0.  1.
          4    1    6    6  503    0  0.10213540497E+03 -0.13366228065E+03  0.11491195702E+04  0.11613668812E+04  0.00000000000E+00 0. -1.
         -4    1    6    6    0  503  0.26966985155E+02  0.13360627920E+02  0.16915744936E+03  0.17181375771E+03  0.00000000000E+00 0.  1.
<mgrwt>
<rscale>  0 0.21702948E+04</rscale>
<asrwt>0</asrwt>
<pdfrwt beam="1">  1        2 0.33618410E+00 0.21702948E+04</pdfrwt>
<pdfrwt beam="2">  1       -1 0.82903633E-01 0.21702948E+04</pdfrwt>
<totfact> 0.79320608E+00</totfact>
</mgrwt>
</event>
<event>
12    7  0.1730932E-007  0.3122275E+04  0.7818608E-02  0.8209651E-01
          2   -1    0    0  501    0  0.00000000000E+00  0.00000000000E+00  0.18790802184E+04  0.18790802184E+04  0.00000000000E+00 0. -1.
         -1   -1    0    0    0  501 -0.00000000000E+00 -0.00000000000E+00 -0.12969911301E+04  0.12969911301E+04  0.00000000000E+00 0.  1.
         24    2    1    2    0    0  0.36158348311E+03  0.12485793656E+04 -0.33739580154E+03  0.13456227509E+04  0.84685377755E+02 0.  0.
        254    2    1    2    0    0 -0.36158348311E+03 -0.12485793656E+04  0.91948488986E+03  0.18304485977E+04  0.90299311102E+03 0.  0.
         23    2    4    4    0    0 -0.32854473210E+03 -0.11768592955E+04  0.10775689446E+04  0.16317087763E+04  0.91538287352E+02 0.  0.
         23    2    4    4    0    0 -0.33038751007E+02 -0.71720070108E+02 -0.15808405470E+03  0.19873982134E+03  0.90948450847E+02 0.  0.
          2    1    3    3  502    0  0.10156721714E+03  0.23105054806E+03 -0.68543484705E+02  0.26153100132E+03  0.00000000000E+00 0. -1.
         -1    1    3    3    0  502  0.26001626596E+03  0.10175288176E+04 -0.26885231684E+03  0.10840917495E+04  0.00000000000E+00 0.  1.
         13    1    5    5    0    0 -0.25974998624E+03 -0.98278297292E+03  0.93607128741E+03  0.13818689816E+04  0.00000000000E+00 0. -1.
        -13    1    5    5    0    0 -0.68794745857E+02 -0.19407632260E+03  0.14149765715E+03  0.24983979473E+03  0.00000000000E+00 0.  1.
          3    1    6    6  503    0 -0.57222480724E+02 -0.55023197402E+02 -0.69849154497E+02  0.10573962803E+03  0.00000000000E+00 0. -1.
         -3    1    6    6    0  503  0.24183729718E+02 -0.16696872706E+02 -0.88234900205E+02  0.93000193309E+02  0.00000000000E+00 0.  1.
<mgrwt>
<rscale>  0 0.31222751E+04</rscale>
<asrwt>0</asrwt>
<pdfrwt beam="1">  1        2 0.28908926E+00 0.31222751E+04</pdfrwt>
<pdfrwt beam="2">  1       -1 0.19953710E+00 0.31222751E+04</pdfrwt>
<totfact> 0.11402007E+00</totfact>
</mgrwt>
</event>
<event>
12    7  0.1730932E-007  0.4453759E+04  0.7818608E-02  0.7918783E-01
         -1   -1    0    0    0  501 -0.00000000000E+00  0.00000000000E+00  0.19786729211E+04  0.19786729211E+04  0.00000000000E+00 0.  1.
          2   -1    0    0  501    0  0.00000000000E+00 -0.00000000000E+00 -0.25062215257E+04  0.25062215257E+04  0.00000000000E+00 0. -1.
         24    2    1    2    0    0 -0.10442786219E+03  0.21273391511E+04 -0.39807436142E+03  0.21683101731E+04  0.81417243279E+02 0.  0.
        254    2    1    2    0    0  0.10442786219E+03 -0.21273391511E+04 -0.12947424318E+03  0.23165842738E+04  0.90184370914E+03 0.  0.
         23    2    4    4    0    0 -0.23173622780E+03 -0.17007961291E+04 -0.28906169670E+03  0.17431018315E+04  0.91859558268E+02 0.  0.
         23    2    4    4    0    0  0.33616408999E+03 -0.42654302199E+03  0.15958745352E+03  0.57348244228E+03  0.92025601217E+02 0.  0.
          4    1    3    3  502    0 -0.96280486608E+02  0.16641947754E+04 -0.34217083827E+03  0.17017329594E+04  0.00000000000E+00 0. -1.
         -3    1    3    3    0  502 -0.81473755793E+01  0.46314437565E+03 -0.55903523149E+02  0.46657721368E+03  0.00000000000E+00 0.  1.
         13    1    5    5    0    0 -0.25676151700E+02 -0.20611863630E+03 -0.65630119194E+02  0.21783358222E+03  0.00000000000E+00 0. -1.
        -13    1    5    5    0    0 -0.20606007610E+03 -0.14946774928E+04 -0.22343157750E+03  0.15252682492E+04  0.00000000000E+00 0.  1.
          1    1    6    6  503    0  0.14050482812E+03 -0.23445741656E+03  0.11104320680E+03  0.29502962678E+03  0.00000000000E+00 0. -1.
         -1    1    6    6    0  503  0.19565926187E+03 -0.19208560544E+03  0.48544246715E+02  0.27845281550E+03  0.00000000000E+00 0.  1.
<mgrwt>
<rscale>  0 0.44537592E+04</rscale>
<asrwt>0</asrwt>
<pdfrwt beam="1">  1        2 0.38557254E+00 0.44537592E+04</pdfrwt>
<pdfrwt beam="2">  1       -1 0.30441122E+00 0.44537592E+04</pdfrwt>
<totfact> 0.92302568E-02</totfact>
</mgrwt>
</event>
<event>
12    7  0.1730932E-007  0.2881845E+04  0.7818608E-02  0.8278300E-01
          2   -1    0    0  501    0  0.00000000000E+00  0.00000000000E+00  0.24328868457E+04  0.24328868457E+04  0.00000000000E+00 0. -1.
         -1   -1    0    0    0  501 -0.00000000000E+00 -0.00000000000E+00 -0.85341288162E+03  0.85341288162E+03  0.00000000000E+00 0.  1.
         24    2    1    2    0    0  0.66585476791E+03  0.10580500068E+04  0.30859408090E+03  0.12901186541E+04  0.79645753834E+02 0.  0.
        254    2    1    2    0    0 -0.66585476791E+03 -0.10580500068E+04  0.12708798832E+04  0.19961810732E+04  0.89820421433E+03 0.  0.
         23    2    4    4    0    0  0.20973449961E+03 -0.27679099262E+03  0.33716962157E+03  0.49301247396E+03  0.93681011161E+02 0.  0.
         23    2    4    4    0    0 -0.87558926751E+03 -0.78125901418E+03  0.93371026159E+03  0.15031685992E+04  0.10333814605E+03 0.  0.
          4    1    3    3  502    0  0.86687108656E+01  0.30346691059E+02 -0.10179019948E+01  0.31576958859E+02  0.00000000000E+00 0. -1.
         -3    1    3    3    0  502  0.65718605704E+03  0.10277033157E+04  0.30961198289E+03  0.12585416953E+04  0.00000000000E+00 0.  1.
         13    1    5    5    0    0  0.18802878477E+03 -0.23816354350E+03  0.24232055317E+03  0.38832453933E+03  0.00000000000E+00 0. -1.
        -13    1    5    5    0    0  0.21705714832E+02 -0.38627449122E+02  0.94849068396E+02  0.10468793463E+03  0.00000000000E+00 0.  1.
          1    1    6    6  503    0 -0.65508433564E+03 -0.53853250787E+03  0.71236136136E+03  0.11075249243E+04  0.00000000000E+00 0. -1.
         -1    1    6    6    0  503 -0.22050493187E+03 -0.24272650631E+03  0.22134890023E+03  0.39564367488E+03  0.00000000000E+00 0.  1.
<mgrwt>
<rscale>  0 0.28818445E+04</rscale>
<asrwt>0</asrwt>
<pdfrwt beam="1">  1        2 0.37429028E+00 0.28818445E+04</pdfrwt>
<pdfrwt beam="2">  1       -1 0.13129429E+00 0.28818445E+04</pdfrwt>
<totfact> 0.18493569E+00</totfact>
</mgrwt>
</event>
<event>
12    7  0.1730932E-007  0.1176729E+04  0.7818608E-02  0.9133473E-01
         -1   -1    0    0    0  501 -0.00000000000E+00  0.00000000000E+00  0.52851582298E+03  0.52851582298E+03  0.00000000000E+00 0.  1.
          2   -1    0    0  501    0  0.00000000000E+00 -0.00000000000E+00 -0.65499042640E+03  0.65499042640E+03  0.00000000000E+00 0. -1.
         24    2    1    2    0    0 -0.82337145943E+02 -0.21038367571E+03  0.22703774496E+02  0.24087969057E+03  0.80416834982E+02 0.  0.
        254    2    1    2    0    0  0.82337145943E+02  0.21038367571E+03 -0.14917837791E+03  0.94262655881E+03  0.90291192501E+03 0.  0.
         23    2    4    4    0    0  0.40286550666E+03 -0.14808810317E+03 -0.10548517184E+03  0.45130421100E+03  0.91201242496E+02 0.  0.
         23    2    4    4    0    0 -0.32052836071E+03  0.35847177887E+03 -0.43693206077E+02  0.49132234781E+03  0.90819089014E+02 0.  0.
          2    1    3    3  502    0 -0.16123631250E+02 -0.11942229012E+03 -0.16727533045E+02  0.12166127249E+03  0.00000000000E+00 0. -1.
         -1    1    3    3    0  502 -0.66213514694E+02 -0.90961385586E+02  0.39431307541E+02  0.11921841808E+03  0.00000000000E+00 0.  1.
         13    1    5    5    0    0  0.46535295754E+01  0.75909729691E+01  0.42783098658E+01  0.98783674479E+01  0.00000000000E+00 0. -1.
        -13    1    5    5    0    0  0.39821197708E+03 -0.15567907614E+03 -0.10976348170E+03  0.44142584355E+03  0.00000000000E+00 0.  1.
          1    1    6    6  503    0 -0.27627423886E+01  0.15246635256E+02  0.12915187854E+02  0.20171631303E+02  0.00000000000E+00 0. -1.
         -1    1    6    6    0  503 -0.31776561832E+03  0.34322514362E+03 -0.56608393931E+02  0.47115071651E+03  0.00000000000E+00 0.  1.
<mgrwt>
<rscale>  0 0.11767290E+04</rscale>
<asrwt>0</asrwt>
<pdfrwt beam="1">  1        2 0.10076776E+00 0.11767290E+04</pdfrwt>
<pdfrwt beam="2">  1       -1 0.81310127E-01 0.11767290E+04</pdfrwt>
<totfact> 0.75798236E+01</totfact>
</mgrwt>
</event>
<event>
12    7  0.1730932E-007  0.1345710E+04  0.7818608E-02  0.8994082E-01
         -1   -1    0    0    0  501 -0.00000000000E+00  0.00000000000E+00  0.15547212816E+03  0.15547212816E+03  0.00000000000E+00 0.  1.
          2   -1    0    0  501    0  0.00000000000E+00 -0.00000000000E+00 -0.29119941370E+04  0.29119941370E+04  0.00000000000E+00 0. -1.
         24    2    1    2    0    0  0.33470643930E+03  0.13651400669E+03 -0.87815423947E+03  0.95295470018E+03  0.79393436549E+02 0.  0.
        254    2    1    2    0    0 -0.33470643930E+03 -0.13651400669E+03 -0.18783677693E+04  0.21145115650E+04  0.90123759736E+03 0.  0.
         23    2    4    4    0    0  0.99629750486E+02 -0.21200500225E+03 -0.84719993783E+02  0.26517131798E+03  0.90918328031E+02 0.  0.
         23    2    4    4    0    0 -0.43433618978E+03  0.75490995556E+02 -0.17936477756E+04  0.18493402470E+04  0.92413149284E+02 0.  0.
          4    1    3    3  502    0  0.31317220745E+03  0.11901434544E+03 -0.84897498185E+03  0.91268820840E+03  0.00000000000E+00 0. -1.
         -3    1    3    3    0  502  0.21534231847E+02  0.17499661256E+02 -0.29179257618E+02  0.40266491782E+02  0.00000000000E+00 0.  1.
         13    1    5    5    0    0  0.46236862478E+02 -0.17432071725E+02 -0.13804074249E+02  0.51305721341E+02  0.00000000000E+00 0. -1.
        -13    1    5    5    0    0  0.53392888008E+02 -0.19457293052E+03 -0.70915919533E+02  0.21386559664E+03  0.00000000000E+00 0.  1.
          3    1    6    6  503    0 -0.28617947407E+03  0.77761877126E+01 -0.10756891567E+04  0.11131335600E+04  0.00000000000E+00 0. -1.
         -3    1    6    6    0  503 -0.14815671571E+03  0.67714807843E+02 -0.71795861882E+03  0.73620668698E+03  0.00000000000E+00 0.  1.
<mgrwt>
<rscale>  0 0.13457101E+04</rscale>
<asrwt>0</asrwt>
<pdfrwt beam="1">  1        2 0.44799913E+00 0.13457101E+04</pdfrwt>
<pdfrwt beam="2">  1       -1 0.23918787E-01 0.13457101E+04</pdfrwt>
<totfact> 0.33511208E+01</totfact>
</mgrwt>
</event>
<event>
12    7  0.1730932E-007  0.1551091E+04  0.7818608E-02  0.8851171E-01
          2   -1    0    0  501    0  0.00000000000E+00  0.00000000000E+00  0.13863804553E+04  0.13863804553E+04  0.00000000000E+00 0. -1.
         -3   -1    0    0    0  501 -0.00000000000E+00 -0.00000000000E+00 -0.43384250754E+03  0.43384250754E+03  0.00000000000E+00 0.  1.
         24    2    1    2    0    0 -0.38869691071E+03 -0.25531700851E+03  0.54922365011E+03  0.72417735195E+03  0.80710321589E+02 0.  0.
        254    2    1    2    0    0  0.38869691071E+03  0.25531700851E+03  0.40331429766E+03  0.10960456109E+04  0.90685252122E+03 0.  0.
         23    2    4    4    0    0  0.38404419975E+02  0.51426984922E+03  0.38644595198E+03  0.65091547996E+03  0.91663029421E+02 0.  0.
         23    2    4    4    0    0  0.35029249073E+03 -0.25895284072E+03  0.16868345681E+02  0.44513013094E+03  0.89971604432E+02 0.  0.
          4    1    3    3  502    0 -0.29797934122E+03 -0.18502118149E+03  0.46183529661E+03  0.57992789775E+03  0.00000000000E+00 0. -1.
         -3    1    3    3    0  502 -0.90717569490E+02 -0.70295827014E+02  0.87388353500E+02  0.14424945420E+03  0.00000000000E+00 0.  1.
         13    1    5    5    0    0 -0.23571143488E+02  0.12932315740E+03  0.71102075428E+02  0.14945093836E+03  0.00000000000E+00 0. -1.
        -13    1    5    5    0    0  0.61975563463E+02  0.38494669182E+03  0.31534387655E+03  0.50146454160E+03  0.00000000000E+00 0.  1.
          4    1    6    6  503    0  0.11113549846E+03 -0.44869078008E+02  0.31149172847E+02  0.12383296875E+03  0.00000000000E+00 0. -1.
         -4    1    6    6    0  503  0.23915699227E+03 -0.21408376271E+03 -0.14280827166E+02  0.32129716219E+03  0.00000000000E+00 0.  1.
<mgrwt>
<rscale>  0 0.15510909E+04</rscale>
<asrwt>0</asrwt>
<pdfrwt beam="1">  1        2 0.21328930E+00 0.15510909E+04</pdfrwt>
<pdfrwt beam="2">  1       -3 0.66745002E-01 0.15510909E+04</pdfrwt>
<totfact> 0.19573781E+01</totfact>
</mgrwt>
</event>
<event>
12    7  0.1730932E-007  0.1235881E+04  0.7818608E-02  0.9082017E-01
         -1   -1    0    0    0  501 -0.00000000000E+00  0.00000000000E+00  0.21173480618E+03  0.21173480618E+03  0.00000000000E+00 0.  1.
          2   -1    0    0  501    0  0.00000000000E+00 -0.00000000000E+00 -0.18034380491E+04  0.18034380491E+04  0.00000000000E+00 0. -1.
         24    2    1    2    0    0  0.16517872491E+03  0.33769145513E+01 -0.96673245346E+03  0.98404255498E+03  0.80453084008E+02 0.  0.
        254    2    1    2    0    0 -0.16517872491E+03 -0.33769145513E+01 -0.62497078947E+03  0.10311303003E+04  0.80333417318E+03 0.  0.
         23    2    4    4    0    0  0.63516411572E+02 -0.76072702849E+02 -0.73837003594E+03  0.75056995595E+03  0.91343079306E+02 0.  0.
         23    2    4    4    0    0 -0.22869513648E+03  0.72695788298E+02  0.11339924647E+03  0.28056034436E+03  0.90931703172E+02 0.  0.
          4    1    3    3  502    0  0.75239178606E+02  0.20505127484E+02 -0.63970164778E+03  0.64443742320E+03  0.00000000000E+00 0. -1.
         -3    1    3    3    0  502  0.89939546300E+02 -0.17128212933E+02 -0.32703080569E+03  0.33960513178E+03  0.00000000000E+00 0.  1.
         13    1    5    5    0    0 -0.70979077633E+01 -0.61325672052E+02 -0.29760345845E+03  0.30393919923E+03  0.00000000000E+00 0. -1.
        -13    1    5    5    0    0  0.70614319335E+02 -0.14747030797E+02 -0.44076657749E+03  0.44663075671E+03  0.00000000000E+00 0.  1.
          4    1    6    6  503    0 -0.20579606630E+03  0.31220641431E+02  0.81984459489E+02  0.22371455240E+03  0.00000000000E+00 0.  1.
         -4    1    6    6    0  503 -0.22899070174E+02  0.41475146867E+02  0.31414786979E+02  0.56845791958E+02  0.00000000000E+00 0. -1.
<mgrwt>
<rscale>  0 0.12358812E+04</rscale>
<asrwt>0</asrwt>
<pdfrwt beam="1">  1        2 0.27745201E+00 0.12358812E+04</pdfrwt>
<pdfrwt beam="2">  1       -1 0.32574585E-01 0.12358812E+04</pdfrwt>
<totfact> 0.85012266E+01</totfact>
</mgrwt>
</event>
<event>
12    7  0.1730932E-007  0.1286493E+04  0.7818608E-02  0.9040345E-01
         -1   -1    0    0    0  501 -0.00000000000E+00  0.00000000000E+00  0.93458609341E+03  0.93458609341E+03  0.00000000000E+00 0.  1.
          2   -1    0    0  501    0  0.00000000000E+00 -0.00000000000E+00 -0.44272651373E+03  0.44272651373E+03  0.00000000000E+00 0. -1.
         24    2    1    2    0    0  0.17152981994E+03  0.17359455718E+03 -0.95161412695E+02  0.27432917001E+03  0.81506132523E+02 0.  0.
        254    2    1    2    0    0 -0.17152981994E+03 -0.17359455718E+03  0.58702099238E+03  0.11029834371E+04  0.90134414497E+03 0.  0.
         23    2    4    4    0    0 -0.42903431849E+03 -0.17838895430E+03  0.20409570491E+02  0.47396153348E+03  0.91268390948E+02 0.  0.
         23    2    4    4    0    0  0.25750449855E+03  0.47943971149E+01  0.56661142189E+03  0.62902190366E+03  0.91041193089E+02 0.  0.
          2    1    3    3  502    0  0.16937011027E+03  0.15093246181E+03 -0.63961936318E+02  0.23570738550E+03  0.00000000000E+00 0. -1.
         -1    1    3    3    0  502  0.21597096710E+01  0.22662095378E+02 -0.31199476377E+02  0.38621784513E+02  0.00000000000E+00 0.  1.
         13    1    5    5    0    0 -0.52181710311E+02 -0.57365408633E+02  0.79793432741E+01  0.77957622576E+02  0.00000000000E+00 0. -1.
        -13    1    5    5    0    0 -0.37685260818E+03 -0.12102354567E+03  0.12430227216E+02  0.39600391090E+03  0.00000000000E+00 0.  1.
          2    1    6    6  503    0  0.12582428528E+00  0.12490745832E+02  0.11002671650E+02  0.16646121068E+02  0.00000000000E+00 0. -1.
         -2    1    6    6    0  503  0.25737867427E+03 -0.76963487171E+01  0.55560875024E+03  0.61237578259E+03  0.00000000000E+00 0.  1.
<mgrwt>
<rscale>  0 0.12864930E+04</rscale>
<asrwt>0</asrwt>
<pdfrwt beam="1">  1        2 0.68111771E-01 0.12864930E+04</pdfrwt>
<pdfrwt beam="2">  1       -1 0.14378248E+00 0.12864930E+04</pdfrwt>
<totfact> 0.31078533E+01</totfact>
</mgrwt>
</event>
<event>
12    7  0.1730932E-007  0.1404151E+04  0.7818608E-02  0.8950820E-01
         -1   -1    0    0    0  501 -0.00000000000E+00  0.00000000000E+00  0.19326692436E+03  0.19326692436E+03  0.00000000000E+00 0.  1.
          2   -1    0    0  501    0  0.00000000000E+00 -0.00000000000E+00 -0.25504092470E+04  0.25504092470E+04  0.00000000000E+00 0. -1.
         24    2    1    2    0    0  0.29323058082E+03 -0.27742178540E+03 -0.10168032095E+04  0.10968515127E+04  0.79040835684E+02 0.  0.
        254    2    1    2    0    0 -0.29323058082E+03  0.27742178540E+03 -0.13403391132E+04  0.16468246586E+04  0.86751109348E+03 0.  0.
         23    2    4    4    0    0  0.13728060870E+03 -0.18174683115E+03 -0.71008885148E+03  0.75153096706E+03  0.93245596636E+02 0.  0.
         23    2    4    4    0    0 -0.43051118952E+03  0.45916861655E+03 -0.63025026167E+03  0.89529369152E+03  0.90331052279E+02 0.  0.
          2    1    3    3  502    0  0.23516456109E+03 -0.20809055144E+03 -0.86398718271E+03  0.91928118673E+03  0.00000000000E+00 0. -1.
         -1    1    3    3    0  502  0.58066019726E+02 -0.69331233965E+02 -0.15281602675E+03  0.17757032602E+03  0.00000000000E+00 0.  1.
         13    1    5    5    0    0  0.44895658290E+02 -0.10781515853E+03 -0.24184319630E+03  0.26856630492E+03  0.00000000000E+00 0. -1.
        -13    1    5    5    0    0  0.92384950410E+02 -0.73931672623E+02 -0.46824565518E+03  0.48296466214E+03  0.00000000000E+00 0.  1.
          3    1    6    6  503    0 -0.49260725275E+02  0.56682575694E+02 -0.12157842451E+03  0.14290152815E+03  0.00000000000E+00 0. -1.
         -3    1    6    6    0  503 -0.38125046425E+03  0.40248604086E+03 -0.50867183717E+03  0.75239216337E+03  0.00000000000E+00 0.  1.
<mgrwt>
<rscale>  0 0.14041506E+04</rscale>
<asrwt>0</asrwt>
<pdfrwt beam="1">  1        2 0.39237061E+00 0.14041506E+04</pdfrwt>
<pdfrwt beam="2">  1       -1 0.29733376E-01 0.14041506E+04</pdfrwt>
<totfact> 0.37526072E+01</totfact>
</mgrwt>
</event>
<event>
12    7  0.1730932E-007  0.1580862E+04  0.7818608E-02  0.8832392E-01
         -1   -1    0    0    0  501 -0.00000000000E+00  0.00000000000E+00  0.10671272455E+04  0.10671272455E+04  0.00000000000E+00 0.  1.
          2   -1    0    0  501    0  0.00000000000E+00 -0.00000000000E+00 -0.58547925222E+03  0.58547925222E+03  0.00000000000E+00 0. -1.
         24    2    1    2    0    0  0.26768543616E+03  0.37896671437E+03 -0.11442036000E+03  0.48461511287E+03  0.80551384303E+02 0.  0.
        254    2    1    2    0    0 -0.26768543616E+03 -0.37896671437E+03  0.59606835324E+03  0.11679913848E+04  0.89086201509E+03 0.  0.
         23    2    4    4    0    0 -0.10097767844E+03 -0.62834190554E+03  0.55840468168E+03  0.85162373561E+03  0.91853996852E+02 0.  0.
         23    2    4    4    0    0 -0.16670775772E+03  0.24937519117E+03  0.37663671563E+02  0.31636764920E+03  0.93222716373E+02 0.  0.
          2    1    3    3  502    0  0.25853683420E+03  0.37985912496E+03 -0.11854681556E+03  0.47453935236E+03  0.00000000000E+00 0. -1.
         -1    1    3    3    0  502  0.91486019563E+01 -0.89241059432E+00  0.41264555657E+01  0.10075760515E+02  0.00000000000E+00 0.  1.
         13    1    5    5    0    0 -0.10138599595E+03 -0.44580317563E+03  0.35905595191E+03  0.58132673100E+03  0.00000000000E+00 0. -1.
        -13    1    5    5    0    0  0.40831751301E+00 -0.18253872991E+03  0.19934872977E+03  0.27029700461E+03  0.00000000000E+00 0.  1.
          1    1    6    6  503    0 -0.93027784240E+00  0.23905609356E+02  0.27330481491E+02  0.36322152938E+02  0.00000000000E+00 0. -1.
         -1    1    6    6    0  503 -0.16577747988E+03  0.22546958182E+03  0.10333190072E+02  0.28004549626E+03  0.00000000000E+00 0.  1.
<mgrwt>
<rscale>  0 0.15808616E+04</rscale>
<asrwt>0</asrwt>
<pdfrwt beam="1">  1        2 0.90073731E-01 0.15808616E+04</pdfrwt>
<pdfrwt beam="2">  1       -1 0.16417342E+00 0.15808616E+04</pdfrwt>
<totfact> 0.15237664E+01</totfact>
</mgrwt>
</event>
<event>
12    7  0.1730932E-007  0.1476270E+04  0.7818608E-02  0.8900388E-01
          2   -1    0    0  501    0  0.00000000000E+00  0.00000000000E+00  0.78781128109E+03  0.78781128109E+03  0.00000000000E+00 0. -1.
         -1   -1    0    0    0  501 -0.00000000000E+00 -0.00000000000E+00 -0.69159101412E+03  0.69159101412E+03  0.00000000000E+00 0.  1.
         24    2    1    2    0    0 -0.17077068302E+03  0.24580537269E+03  0.37403815257E+03  0.48577058256E+03  0.80533296700E+02 0.  0.
        254    2    1    2    0    0  0.17077068302E+03 -0.24580537269E+03 -0.27781788560E+03  0.99363171265E+03  0.90583568896E+03 0.  0.
         23    2    4    4    0    0  0.34124319719E+03  0.99352237147E+02 -0.43766619522E+03  0.56939250155E+03  0.79613665441E+02 0.  0.
         23    2    4    4    0    0 -0.17047251417E+03 -0.34515760984E+03  0.15984830962E+03  0.42423921110E+03  0.78947909572E+02 0.  0.
          2    1    3    3  502    0 -0.14509758429E+03  0.17217892123E+03  0.31844375435E+03  0.39000681349E+03  0.00000000000E+00 0. -1.
         -1    1    3    3    0  502 -0.25673098731E+02  0.73626451459E+02  0.55594398223E+02  0.95763769071E+02  0.00000000000E+00 0.  1.
         13    1    5    5    0    0  0.10230351051E+03  0.61614297258E+02 -0.11210194183E+03  0.16379613930E+03  0.00000000000E+00 0. -1.
        -13    1    5    5    0    0  0.23893968668E+03  0.37737939889E+02 -0.32556425339E+03  0.40559636225E+03  0.00000000000E+00 0.  1.
          1    1    6    6  503    0 -0.32409177815E+02 -0.19345784791E+02  0.53377901024E+01  0.38119630100E+02  0.00000000000E+00 0. -1.
         -1    1    6    6    0  503 -0.13806333636E+03 -0.32581182505E+03  0.15451051952E+03  0.38611958100E+03  0.00000000000E+00 0.  1.
<mgrwt>
<rscale>  0 0.14762699E+04</rscale>
<asrwt>0</asrwt>
<pdfrwt beam="1">  1        2 0.12120174E+00 0.14762699E+04</pdfrwt>
<pdfrwt beam="2">  1       -1 0.10639862E+00 0.14762699E+04</pdfrwt>
<totfact> 0.32081107E+01</totfact>
</mgrwt>
</event>
<event>
12    7  0.1730932E-007  0.1424374E+04  0.7818608E-02  0.8936362E-01
         -1   -1    0    0    0  501 -0.00000000000E+00  0.00000000000E+00  0.31667502085E+03  0.31667502085E+03  0.00000000000E+00 0.  1.
          2   -1    0    0  501    0  0.00000000000E+00 -0.00000000000E+00 -0.16016742675E+04  0.16016742675E+04  0.00000000000E+00 0. -1.
         24    2    1    2    0    0 -0.23369213946E+03  0.21999259647E+03 -0.65097904376E+02  0.33689895858E+03  0.79084844251E+02 0.  0.
        254    2    1    2    0    0  0.23369213946E+03 -0.21999259647E+03 -0.12199013422E+04  0.15814503297E+04  0.95384333204E+03 0.  0.
         23    2    4    4    0    0  0.85002841552E+02 -0.32495347929E+03 -0.35760887274E+01  0.34763762694E+03  0.89548224290E+02 0.  0.
         23    2    4    4    0    0  0.14868929791E+03  0.10496088283E+03 -0.12163252535E+04  0.12338127028E+04  0.98597003065E+02 0.  0.
          4    1    3    3  502    0 -0.76175372528E+02  0.12554792768E+03 -0.31487443634E+02  0.15018797765E+03  0.00000000000E+00 0. -1.
         -3    1    3    3    0  502 -0.15751676693E+03  0.94444668791E+02 -0.33610460741E+02  0.18671098093E+03  0.00000000000E+00 0.  1.
         13    1    5    5    0    0  0.36888141808E+01 -0.14140163846E+02  0.20822432794E+02  0.25438657415E+02  0.00000000000E+00 0. -1.
        -13    1    5    5    0    0  0.81314027371E+02 -0.31081331545E+03 -0.24398521521E+02  0.32219896952E+03  0.00000000000E+00 0.  1.
          1    1    6    6  503    0  0.68469533793E+02 -0.52809173504E+01 -0.49174285766E+03  0.49651485698E+03  0.00000000000E+00 0. -1.
         -1    1    6    6    0  503  0.80219764116E+02  0.11024180018E+03 -0.72458239586E+03  0.73729784582E+03  0.00000000000E+00 0.  1.
<mgrwt>
<rscale>  0 0.14243739E+04</rscale>
<asrwt>0</asrwt>
<pdfrwt beam="1">  1        2 0.24641143E+00 0.14243739E+04</pdfrwt>
<pdfrwt beam="2">  1       -1 0.48719234E-01 0.14243739E+04</pdfrwt>
<totfact> 0.51941431E+01</totfact>
</mgrwt>
</event>
<event>
12    7  0.1730932E-007  0.1384781E+04  0.7818608E-02  0.8964909E-01
         -1   -1    0    0    0  501 -0.00000000000E+00  0.00000000000E+00  0.40509930132E+03  0.40509930132E+03  0.00000000000E+00 0.  1.
          2   -1    0    0  501    0  0.00000000000E+00 -0.00000000000E+00 -0.11834245083E+04  0.11834245083E+04  0.00000000000E+00 0. -1.
         24    2    1    2    0    0  0.13752770876E+03  0.34725824040E+03 -0.34335926088E+03  0.51554299280E+03  0.91579687685E+02 0.  0.
        254    2    1    2    0    0 -0.13752770876E+03 -0.34725824040E+03 -0.43496594606E+03  0.10729808168E+04  0.90696764150E+03 0.  0.
         23    2    4    4    0    0  0.30187485178E+03 -0.87227751636E+02 -0.44755629635E+03  0.55438769940E+03  0.91115180163E+02 0.  0.
         23    2    4    4    0    0 -0.43940256054E+03 -0.26003048876E+03  0.12590350292E+02  0.51859311736E+03  0.89943533182E+02 0.  0.
          4    1    3    3  502    0  0.21556262533E+02  0.27859734727E+02 -0.42505933272E+01  0.35481048703E+02  0.00000000000E+00 0. -1.
         -3    1    3    3    0  502  0.11597144623E+03  0.31939850567E+03 -0.33910866755E+03  0.48006194410E+03  0.00000000000E+00 0.  1.
         13    1    5    5    0    0  0.10854627036E+02 -0.86483425937E+01 -0.69464584562E+02  0.70837456660E+02  0.00000000000E+00 0. -1.
        -13    1    5    5    0    0  0.29102022475E+03 -0.78579409042E+02 -0.37809171179E+03  0.48355024274E+03  0.00000000000E+00 0.  1.
          4    1    6    6  503    0 -0.31388348455E+03 -0.18085156998E+03  0.49613603737E+02  0.36563867672E+03  0.00000000000E+00 0. -1.
         -4    1    6    6    0  503 -0.12551907598E+03 -0.79178918784E+02 -0.37023253445E+02  0.15295444064E+03  0.00000000000E+00 0.  1.
<mgrwt>
<rscale>  0 0.13847808E+04</rscale>
<asrwt>0</asrwt>
<pdfrwt beam="1">  1        2 0.18206531E+00 0.13847808E+04</pdfrwt>
<pdfrwt beam="2">  1       -1 0.62322969E-01 0.13847808E+04</pdfrwt>
<totfact> 0.56225699E+01</totfact>
</mgrwt>
</event>
<event>
12    7  0.1730932E-007  0.1466495E+04  0.7818608E-02  0.8907044E-01
          2   -1    0    0  501    0  0.00000000000E+00  0.00000000000E+00  0.12547727277E+04  0.12547727277E+04  0.00000000000E+00 0. -1.
         -1   -1    0    0    0  501 -0.00000000000E+00 -0.00000000000E+00 -0.42848538758E+03  0.42848538758E+03  0.00000000000E+00 0.  1.
         24    2    1    2    0    0  0.21120626808E+03 -0.28387399536E+03 -0.35431033342E+02  0.36388883052E+03  0.77247588529E+02 0.  0.
        254    2    1    2    0    0 -0.21120626808E+03  0.28387399536E+03  0.86171837348E+03  0.13193692848E+04  0.93433624649E+03 0.  0.
         23    2    4    4    0    0 -0.39098690819E+03  0.53759833593E+03  0.52525082758E+03  0.85230888902E+03  0.93055237734E+02 0.  0.
         23    2    4    4    0    0  0.17978064011E+03 -0.25372434057E+03  0.33646754590E+03  0.46706039576E+03  0.90762791295E+02 0.  0.
          2    1    3    3  502    0  0.81289507346E+02 -0.95252327011E+02  0.23465848476E+02  0.12740343736E+03  0.00000000000E+00 0. -1.
         -1    1    3    3    0  502  0.12991676073E+03 -0.18862166835E+03 -0.58896881818E+02  0.23648539316E+03  0.00000000000E+00 0.  1.
         13    1    5    5    0    0 -0.35902829122E+03  0.52187083802E+03  0.48023902473E+03  0.79490880379E+03  0.00000000000E+00 0. -1.
        -13    1    5    5    0    0 -0.31958616968E+02  0.15727497908E+02  0.45011802847E+02  0.57400085230E+02  0.00000000000E+00 0.  1.
          1    1    6    6  503    0  0.18085435810E+03 -0.21218068140E+03  0.31365688802E+03  0.41965412402E+03  0.00000000000E+00 0. -1.
         -1    1    6    6    0  503 -0.10737179863E+01 -0.41543659166E+02  0.22810657885E+02  0.47406271741E+02  0.00000000000E+00 0.  1.
<mgrwt>
<rscale>  0 0.14664948E+04</rscale>
<asrwt>0</asrwt>
<pdfrwt beam="1">  1        2 0.19304196E+00 0.14664948E+04</pdfrwt>
<pdfrwt beam="2">  1       -1 0.65920829E-01 0.14664948E+04</pdfrwt>
<totfact> 0.45262313E+01</totfact>
</mgrwt>
</event>
<event>
12    7  0.1730932E-007  0.1512317E+04  0.7818608E-02  0.8876303E-01
          2   -1    0    0  501    0  0.00000000000E+00  0.00000000000E+00  0.93501484008E+03  0.93501484008E+03  0.00000000000E+00 0. -1.
         -1   -1    0    0    0  501 -0.00000000000E+00 -0.00000000000E+00 -0.61151533420E+03  0.61151533420E+03  0.00000000000E+00 0.  1.
         24    2    1    2    0    0  0.22251455440E+02 -0.42706801611E+03 -0.11955484004E+03  0.45105463779E+03  0.79213059813E+02 0.  0.
        254    2    1    2    0    0 -0.22251455440E+02  0.42706801611E+03  0.44305434592E+03  0.10954755365E+04  0.90602829974E+03 0.  0.
         23    2    4    4    0    0  0.19911797689E+03 -0.11958801571E+03  0.43176757906E+03  0.49783524635E+03  0.86414280987E+02 0.  0.
         23    2    4    4    0    0 -0.22136943233E+03  0.54665603182E+03  0.11286766861E+02  0.59764029013E+03  0.95965007107E+02 0.  0.
          2    1    3    3  502    0  0.23583406025E+02 -0.37195790061E+02 -0.30620451049E+01  0.44148385681E+02  0.00000000000E+00 0. -1.
         -1    1    3    3    0  502 -0.13319505845E+01 -0.38987222605E+03 -0.11649279494E+03  0.40690625211E+03  0.00000000000E+00 0.  1.
         13    1    5    5    0    0  0.19440620469E+03 -0.11134905631E+03  0.43370166435E+03  0.48814907398E+03  0.00000000000E+00 0.  1.
        -13    1    5    5    0    0  0.47117722028E+01 -0.82389593961E+01 -0.19340852966E+01  0.96861723687E+01  0.00000000000E+00 0. -1.
          4    1    6    6  503    0 -0.15866740271E+03  0.27835257130E+03  0.27870930166E+02  0.32160890438E+03  0.00000000000E+00 0. -1.
         -4    1    6    6    0  503 -0.62702029625E+02  0.26830346052E+03 -0.16584163304E+02  0.27603138575E+03  0.00000000000E+00 0.  1.
<mgrwt>
<rscale>  0 0.15123173E+04</rscale>
<asrwt>0</asrwt>
<pdfrwt beam="1">  1        2 0.14384844E+00 0.15123173E+04</pdfrwt>
<pdfrwt beam="2">  1       -1 0.94079282E-01 0.15123173E+04</pdfrwt>
<totfact> 0.33497731E+01</totfact>
</mgrwt>
</event>
<event>
12    7  0.1730932E-007  0.2520591E+04  0.7818608E-02  0.8395686E-01
          2   -1    0    0  501    0  0.00000000000E+00  0.00000000000E+00  0.28757038689E+04  0.28757038689E+04  0.00000000000E+00 0. -1.
         -1   -1    0    0    0  501 -0.00000000000E+00 -0.00000000000E+00 -0.55233247822E+03  0.55233247822E+03  0.00000000000E+00 0.  1.
         24    2    1    2    0    0 -0.61587346066E+03  0.19222940887E+03  0.22172236177E+04  0.23106509978E+04  0.82311587521E+02 0.  0.
        254    2    1    2    0    0  0.61587346066E+03 -0.19222940887E+03  0.10614777291E+03  0.11173853493E+04  0.90610728057E+03 0.  0.
         23    2    4    4    0    0  0.26640472136E+03 -0.35055139477E+03  0.41852800566E+03  0.61443227998E+03  0.92214853529E+02 0.  0.
         23    2    4    4    0    0  0.34946873930E+03  0.15832198590E+03 -0.31238023276E+03  0.50295306930E+03  0.90477229892E+02 0.  0.
          2    1    3    3  502    0 -0.49854483185E+03  0.18834934195E+03  0.18303471443E+04  0.19063559721E+04  0.00000000000E+00 0. -1.
         -1    1    3    3    0  502 -0.11732862881E+03  0.38800669234E+01  0.38687647349E+03  0.40429502569E+03  0.00000000000E+00 0.  1.
         13    1    5    5    0    0  0.40179192965E+02 -0.74698092479E+02  0.13181081871E+03  0.15674266967E+03  0.00000000000E+00 0. -1.
        -13    1    5    5    0    0  0.22622552840E+03 -0.27585330229E+03  0.28671718695E+03  0.45768961030E+03  0.00000000000E+00 0.  1.
          3    1    6    6  503    0  0.18587589738E+03  0.36093935829E+02 -0.13617730336E+03  0.23323138592E+03  0.00000000000E+00 0. -1.
         -3    1    6    6    0  503  0.16359284192E+03  0.12222805007E+03 -0.17620292940E+03  0.26972168338E+03  0.00000000000E+00 0.  1.
<mgrwt>
<rscale>  0 0.25205909E+04</rscale>
<asrwt>0</asrwt>
<pdfrwt beam="1">  1        2 0.44241597E+00 0.25205909E+04</pdfrwt>
<pdfrwt beam="2">  1       -1 0.84974229E-01 0.25205909E+04</pdfrwt>
<totfact> 0.28843288E+00</totfact>
</mgrwt>
</event>
<event>
12    7  0.1730932E-007  0.1591836E+04  0.7818608E-02  0.8825579E-01
         -1   -1    0    0    0  501 -0.00000000000E+00  0.00000000000E+00  0.29427454699E+03  0.29427454699E+03  0.00000000000E+00 0.  1.
          2   -1    0    0  501    0  0.00000000000E+00 -0.00000000000E+00 -0.21527020336E+04  0.21527020336E+04  0.00000000000E+00 0. -1.
         24    2    1    2    0    0 -0.27078752377E+03 -0.23569577629E+03 -0.12535688624E+04  0.13063556464E+04  0.79068324531E+02 0.  0.
        254    2    1    2    0    0  0.27078752377E+03  0.23569577629E+03 -0.60485862421E+03  0.11406209343E+04  0.89793305898E+03 0.  0.
         23    2    4    4    0    0  0.13406078213E+03 -0.23204465986E+03 -0.57820810729E+03  0.64397061332E+03  0.92501448677E+02 0.  0.
         23    2    4    4    0    0  0.13672674164E+03  0.46774043615E+03 -0.26650516918E+02  0.49665032094E+03  0.92065051708E+02 0.  0.
          2    1    3    3  502    0 -0.15893734881E+03 -0.14793531550E+03 -0.61660184027E+03  0.65371535690E+03  0.00000000000E+00 0. -1.
         -1    1    3    3    0  502 -0.11185017496E+03 -0.87760460789E+02 -0.63696702215E+03  0.65264028945E+03  0.00000000000E+00 0.  1.
         13    1    5    5    0    0  0.10694590231E+03 -0.13777340586E+03 -0.27837230845E+03  0.32849669632E+03  0.00000000000E+00 0.  1.
        -13    1    5    5    0    0  0.27114879817E+02 -0.94271254007E+02 -0.29983579884E+03  0.31547391700E+03  0.00000000000E+00 0. -1.
          2    1    6    6  503    0  0.66121757077E+02  0.15881732795E+03 -0.49289340889E+02  0.17895381958E+03  0.00000000000E+00 0. -1.
         -2    1    6    6    0  503  0.70604984560E+02  0.30892310821E+03  0.22638823972E+02  0.31769650136E+03  0.00000000000E+00 0.  1.
<mgrwt>
<rscale>  0 0.15918359E+04</rscale>
<asrwt>0</asrwt>
<pdfrwt beam="1">  1        2 0.33118494E+00 0.15918359E+04</pdfrwt>
<pdfrwt beam="2">  1       -1 0.45273006E-01 0.15918359E+04</pdfrwt>
<totfact> 0.29069803E+01</totfact>
</mgrwt>
</event>
<event>
12    7  0.1730932E-007  0.2313294E+04  0.7818608E-02  0.8472698E-01
         -1   -1    0    0    0  501 -0.00000000000E+00  0.00000000000E+00  0.14557260460E+04  0.14557260460E+04  0.00000000000E+00 0.  1.
          2   -1    0    0  501    0  0.00000000000E+00 -0.00000000000E+00 -0.91901370654E+03  0.91901370654E+03  0.00000000000E+00 0. -1.
         24    2    1    2    0    0 -0.69700539672E+03  0.69216835473E+03  0.12261450199E+03  0.99338147047E+03  0.82818327887E+02 0.  0.
        254    2    1    2    0    0  0.69700539672E+03 -0.69216835473E+03  0.41409783749E+03  0.13813582821E+04  0.87849879346E+03 0.  0.
         23    2    4    4    0    0  0.86585985831E+02  0.19784183661E+03  0.64603830927E+02  0.24343792428E+03  0.91923026222E+02 0.  0.
         23    2    4    4    0    0  0.61041941089E+03 -0.89001019134E+03  0.34949400656E+03  0.11379203578E+04  0.89368239255E+02 0.  0.
          4    1    3    3  502    0 -0.66118993920E+03  0.67554071731E+03  0.10861159315E+03  0.95148508901E+03  0.00000000000E+00 0. -1.
         -3    1    3    3    0  502 -0.35815457525E+02  0.16627637419E+02  0.14002908841E+02  0.41896381465E+02  0.00000000000E+00 0.  1.
         13    1    5    5    0    0 -0.12846548544E+02  0.70093812659E+02  0.69730100363E+01  0.71601670731E+02  0.00000000000E+00 0.  1.
        -13    1    5    5    0    0  0.99432534376E+02  0.12774802395E+03  0.57630820890E+02  0.17183625355E+03  0.00000000000E+00 0. -1.
          4    1    6    6  503    0  0.31261507737E+02 -0.41413904330E+02  0.38094076797E+02  0.64370428186E+02  0.00000000000E+00 0. -1.
         -4    1    6    6    0  503  0.57915790315E+03 -0.84859628701E+03  0.31139992977E+03  0.10735499296E+04  0.00000000000E+00 0.  1.
<mgrwt>
<rscale>  0 0.23132939E+04</rscale>
<asrwt>0</asrwt>
<pdfrwt beam="1">  1        2 0.14138672E+00 0.23132939E+04</pdfrwt>
<pdfrwt beam="2">  1       -1 0.22395785E+00 0.23132939E+04</pdfrwt>
<totfact> 0.30444950E+00</totfact>
</mgrwt>
</event>
<event>
12    7  0.1730932E-007  0.1117619E+04  0.7818608E-02  0.9188188E-01
         -1   -1    0    0    0  501 -0.00000000000E+00  0.00000000000E+00  0.15373760047E+03  0.15373760047E+03  0.00000000000E+00 0.  1.
          2   -1    0    0  501    0  0.00000000000E+00 -0.00000000000E+00 -0.20311737947E+04  0.20311737947E+04  0.00000000000E+00 0. -1.
         24    2    1    2    0    0 -0.73594770299E+02 -0.16078700735E+03 -0.27423467395E+03  0.33582224674E+03  0.79393155028E+02 0.  0.
        254    2    1    2    0    0  0.73594770299E+02  0.16078700735E+03 -0.16032015203E+04  0.18490891485E+04  0.90421618669E+03 0.  0.
         23    2    4    4    0    0  0.21781956369E+03 -0.32331870347E+03 -0.58605383470E+03  0.70972426662E+03  0.90934543028E+02 0.  0.
         23    2    4    4    0    0 -0.14422479339E+03  0.48410571082E+03 -0.10171476856E+04  0.11393648818E+04  0.91672184212E+02 0.  0.
          2    1    3    3  502    0 -0.69235412657E+02 -0.12166158893E+03 -0.14853591110E+03  0.20410291882E+03  0.00000000000E+00 0. -1.
         -3    1    3    3    0  502 -0.43593576415E+01 -0.39125418419E+02 -0.12569876285E+03  0.13171932792E+03  0.00000000000E+00 0.  1.
         13    1    5    5    0    0  0.14644215503E+03 -0.14208641010E+03 -0.26923872982E+03  0.33782147110E+03  0.00000000000E+00 0.  1.
        -13    1    5    5    0    0  0.71377408658E+02 -0.18123229337E+03 -0.31681510489E+03  0.37190279551E+03  0.00000000000E+00 0. -1.
          4    1    6    6  503    0 -0.23579275148E+02  0.16076820813E+03 -0.25000729084E+03  0.29817116634E+03  0.00000000000E+00 0. -1.
         -4    1    6    6    0  503 -0.12064551824E+03  0.32333750269E+03 -0.76714039476E+03  0.84119371549E+03  0.00000000000E+00 0.  1.
<mgrwt>
<rscale>  0 0.11176185E+04</rscale>
<asrwt>0</asrwt>
<pdfrwt beam="1">  1        2 0.31248828E+00 0.11176185E+04</pdfrwt>
<pdfrwt beam="2">  1       -1 0.23651939E-01 0.11176185E+04</pdfrwt>
<totfact> 0.11196584E+02</totfact>
</mgrwt>
</event>
<event>
12    7  0.1730932E-007  0.2049271E+04  0.7818608E-02  0.8583925E-01
          2   -1    0    0  501    0  0.00000000000E+00  0.00000000000E+00  0.29085837540E+04  0.29085837540E+04  0.00000000000E+00 0. -1.
         -1   -1    0    0    0  501 -0.00000000000E+00 -0.00000000000E+00 -0.36095854731E+03  0.36095854731E+03  0.00000000000E+00 0.  1.
         24    2    1    2    0    0  0.24063411721E+02  0.79408085696E+03  0.14616955828E+04  0.16654637138E+04  0.77922718247E+02 0.  0.
        254    2    1    2    0    0 -0.24063411721E+02 -0.79408085696E+03  0.10859296238E+04  0.16040785875E+04  0.87331638690E+03 0.  0.
         23    2    4    4    0    0 -0.19438904809E+02 -0.71608699106E+03  0.12240086870E+04  0.14211868892E+04  0.91741257675E+02 0.  0.
         23    2    4    4    0    0 -0.46245069117E+01 -0.77993865898E+02 -0.13807906314E+03  0.18289169828E+03  0.90989650182E+02 0.  0.
          4    1    3    3  502    0  0.45574201127E+02  0.66974264929E+03  0.12563384624E+04  0.14244362240E+04  0.00000000000E+00 0. -1.
         -3    1    3    3    0  502 -0.21510789406E+02  0.12433820767E+03  0.20535712044E+03  0.24102748985E+03  0.00000000000E+00 0.  1.
         13    1    5    5    0    0  0.17122493091E+02 -0.39723763732E+02  0.98434582206E+02  0.10751987792E+03  0.00000000000E+00 0. -1.
        -13    1    5    5    0    0 -0.36561397900E+02 -0.67636322733E+03  0.11255741048E+04  0.13136670113E+04  0.00000000000E+00 0.  1.
          1    1    6    6  503    0  0.36744996807E+02 -0.84180963239E+01 -0.56880396355E+02  0.68238102447E+02  0.00000000000E+00 0. -1.
         -1    1    6    6    0  503 -0.41369503719E+02 -0.69575769574E+02 -0.81198666789E+02  0.11465359584E+03  0.00000000000E+00 0.  1.
<mgrwt>
<rscale>  0 0.20492713E+04</rscale>
<asrwt>0</asrwt>
<pdfrwt beam="1">  1        2 0.44747441E+00 0.20492713E+04</pdfrwt>
<pdfrwt beam="2">  1       -1 0.55532086E-01 0.20492713E+04</pdfrwt>
<totfact> 0.68659419E+00</totfact>
</mgrwt>
</event>
<event>
12    7  0.1730932E-007  0.1236382E+04  0.7818608E-02  0.9081594E-01
          2   -1    0    0  501    0  0.00000000000E+00  0.00000000000E+00  0.51194271078E+03  0.51194271078E+03  0.00000000000E+00 0. -1.
         -3   -1    0    0    0  501 -0.00000000000E+00 -0.00000000000E+00 -0.74649008747E+03  0.74649008747E+03  0.00000000000E+00 0.  1.
         24    2    1    2    0    0  0.77610211430E+02 -0.24370657316E+03  0.90077250552E+02  0.28325653641E+03  0.81878664105E+02 0.  0.
        254    2    1    2    0    0 -0.77610211430E+02  0.24370657316E+03 -0.32462462724E+03  0.97517626183E+03  0.88327309158E+03 0.  0.
         23    2    4    4    0    0  0.35711878413E+03  0.29486845071E+03 -0.17525440864E+03  0.50362678193E+03  0.91894496755E+02 0.  0.
         23    2    4    4    0    0 -0.43472899556E+03 -0.51161877554E+02 -0.14937021860E+03  0.47154947990E+03  0.91872806048E+02 0.  0.
          4    1    3    3  502    0  0.90775508120E+02 -0.19611023625E+03  0.89415178363E+02  0.23386853520E+03  0.00000000000E+00 0. -1.
         -3    1    3    3    0  502 -0.13165296690E+02 -0.47596336908E+02  0.66207218845E+00  0.49388001210E+02  0.00000000000E+00 0.  1.
         13    1    5    5    0    0  0.36187566791E+03  0.28311755825E+03 -0.17012183979E+03  0.48994998846E+03  0.00000000000E+00 0. -1.
        -13    1    5    5    0    0 -0.47568837818E+01  0.11750892455E+02 -0.51325688479E+01  0.13676793476E+02  0.00000000000E+00 0.  1.
          2    1    6    6  503    0 -0.32854498492E+03 -0.13725030716E+01 -0.93180116080E+02  0.34150581973E+03  0.00000000000E+00 0. -1.
         -2    1    6    6    0  503 -0.10618401064E+03 -0.49789374482E+02 -0.56190102524E+02  0.13004366016E+03  0.00000000000E+00 0.  1.
<mgrwt>
<rscale>  0 0.12363821E+04</rscale>
<asrwt>0</asrwt>
<pdfrwt beam="1">  1        2 0.78760417E-01 0.12363821E+04</pdfrwt>
<pdfrwt beam="2">  1       -3 0.11484463E+00 0.12363821E+04</pdfrwt>
<totfact> 0.23326935E+01</totfact>
</mgrwt>
</event>
<event>
12    7  0.1730932E-007  0.2085229E+04  0.7818608E-02  0.8567778E-01
          2   -1    0    0  501    0  0.00000000000E+00  0.00000000000E+00  0.64065703280E+03  0.64065703280E+03  0.00000000000E+00 0. -1.
         -1   -1    0    0    0  501 -0.00000000000E+00 -0.00000000000E+00 -0.16967663273E+04  0.16967663273E+04  0.00000000000E+00 0.  1.
         24    2    1    2    0    0  0.72967302425E+03 -0.31818388819E+03 -0.97920827948E+02  0.80581052558E+03  0.77964129989E+02 0.  0.
        254    2    1    2    0    0 -0.72967302425E+03  0.31818388819E+03 -0.95818846652E+03  0.15316128345E+04  0.89109428702E+03 0.  0.
         23    2    4    4    0    0  0.19546262631E+03  0.19932373132E+02 -0.14680612083E+03  0.26186224212E+03  0.91743440923E+02 0.  0.
         23    2    4    4    0    0 -0.92513565056E+03  0.29825151506E+03 -0.81138234569E+03  0.12697505924E+04  0.95369375307E+02 0.  0.
          4    1    3    3  502    0  0.47297015713E+02 -0.34753265307E+02 -0.23323107263E+02  0.63156666135E+02  0.00000000000E+00 0. -1.
         -3    1    3    3    0  502  0.68237600854E+03 -0.28343062289E+03 -0.74597720684E+02  0.74265385944E+03  0.00000000000E+00 0.  1.
         13    1    5    5    0    0  0.76937141659E+02 -0.12575515389E+02 -0.11050229675E+02  0.78737379495E+02  0.00000000000E+00 0.  1.
        -13    1    5    5    0    0  0.11852548465E+03  0.32507888521E+02 -0.13575589116E+03  0.18312486262E+03  0.00000000000E+00 0. -1.
          2    1    6    6  503    0 -0.23600840730E+03  0.52238998189E+02 -0.15808702397E+03  0.28882587903E+03  0.00000000000E+00 0. -1.
         -2    1    6    6    0  503 -0.68912724326E+03  0.24601251687E+03 -0.65329532172E+03  0.98092471333E+03  0.00000000000E+00 0.  1.
<mgrwt>
<rscale>  0 0.20852293E+04</rscale>
<asrwt>0</asrwt>
<pdfrwt beam="1">  1        2 0.98562623E-01 0.20852293E+04</pdfrwt>
<pdfrwt beam="2">  1       -1 0.26104097E+00 0.20852293E+04</pdfrwt>
<totfact> 0.28485395E+00</totfact>
</mgrwt>
</event>
<event>
12    7  0.1730932E-007  0.2062665E+04  0.7818608E-02  0.8577871E-01
         -3   -1    0    0    0  501 -0.00000000000E+00  0.00000000000E+00  0.53313253776E+03  0.53313253776E+03  0.00000000000E+00 0.  1.
          2   -1    0    0  501    0  0.00000000000E+00 -0.00000000000E+00 -0.19950883836E+04  0.19950883836E+04  0.00000000000E+00 0. -1.
         24    2    1    2    0    0 -0.45875777349E+03 -0.22531653499E+03 -0.14115747731E+04  0.15043004877E+04  0.95657626663E+02 0.  0.
        254    2    1    2    0    0  0.45875777349E+03  0.22531653499E+03 -0.50381072654E+02  0.10239204336E+04  0.88580390954E+03 0.  0.
         23    2    4    4    0    0  0.22103585065E+03  0.51161163768E+02 -0.45462749231E+03  0.51624112007E+03  0.91347826152E+02 0.  0.
         23    2    4    4    0    0  0.23772192285E+03  0.17415537122E+03  0.40424641965E+03  0.50767931352E+03  0.86494575839E+02 0.  0.
          4    1    3    3  502    0 -0.35393195940E+03 -0.20954559825E+03 -0.10565610242E+04  0.11337982129E+04  0.00000000000E+00 0. -1.
         -3    1    3    3    0  502 -0.10482581410E+03 -0.15770936738E+02 -0.35501374892E+03  0.37050227485E+03  0.00000000000E+00 0.  1.
         13    1    5    5    0    0  0.20868657993E+03  0.19661584189E+02 -0.37266089999E+03  0.42756615034E+03  0.00000000000E+00 0.  1.
        -13    1    5    5    0    0  0.12349270718E+02  0.31499579579E+02 -0.81966592315E+02  0.88674969730E+02  0.00000000000E+00 0. -1.
          1    1    6    6  503    0  0.10549250103E+02 -0.55426991911E+01  0.21349399324E+01  0.12106451196E+02  0.00000000000E+00 0. -1.
         -1    1    6    6    0  503  0.22717267274E+03  0.17969807042E+03  0.40211147972E+03  0.49557286233E+03  0.00000000000E+00 0.  1.
<mgrwt>
<rscale>  0 0.20626648E+04</rscale>
<asrwt>0</asrwt>
<pdfrwt beam="1">  1        2 0.30693668E+00 0.20626648E+04</pdfrwt>
<pdfrwt beam="2">  1       -3 0.82020389E-01 0.20626648E+04</pdfrwt>
<totfact> 0.54626692E+00</totfact>
</mgrwt>
</event>
<event>
12    7  0.1730932E-007  0.1379490E+04  0.7818608E-02  0.8968800E-01
         -1   -1    0    0    0  501 -0.00000000000E+00  0.00000000000E+00  0.28146218766E+03  0.28146218766E+03  0.00000000000E+00 0.  1.
          2   -1    0    0  501    0  0.00000000000E+00 -0.00000000000E+00 -0.16902735830E+04  0.16902735830E+04  0.00000000000E+00 0. -1.
         24    2    1    2    0    0  0.24995495603E+03  0.11007383896E+03 -0.73789933616E+01  0.28501032109E+03  0.81133861731E+02 0.  0.
        254    2    1    2    0    0 -0.24995495603E+03 -0.11007383896E+03 -0.14014324019E+04  0.16867254495E+04  0.89801794794E+03 0.  0.
         23    2    4    4    0    0  0.30958807885E+03  0.57944040922E+02 -0.34405166063E+03  0.47523375584E+03  0.90957611329E+02 0.  0.
         23    2    4    4    0    0 -0.55954303488E+03 -0.16801787989E+03 -0.10573807413E+04  0.12114916937E+04  0.91321826248E+02 0.  0.
          4    1    3    3  502    0  0.32520310827E+02  0.48067898541E+02 -0.10008926342E+02  0.58892037602E+02  0.00000000000E+00 0. -1.
         -3    1    3    3    0  502  0.21743464520E+03  0.62005940424E+02  0.26299329805E+01  0.22611828349E+03  0.00000000000E+00 0.  1.
         13    1    5    5    0    0  0.26953013466E+03  0.75217714614E+02 -0.32116559933E+03  0.42597129044E+03  0.00000000000E+00 0. -1.
        -13    1    5    5    0    0  0.40057944192E+02 -0.17273673693E+02 -0.22886061303E+02  0.49262465404E+02  0.00000000000E+00 0.  1.
          3    1    6    6  503    0 -0.45642241216E+03 -0.13754616141E+03 -0.92787216439E+03  0.10431620767E+04  0.00000000000E+00 0. -1.
         -3    1    6    6    0  503 -0.10312062272E+03 -0.30471718475E+02 -0.12950857692E+03  0.16832961698E+03  0.00000000000E+00 0.  1.
<mgrwt>
<rscale>  0 0.13794899E+04</rscale>
<asrwt>0</asrwt>
<pdfrwt beam="1">  1        2 0.26004209E+00 0.13794899E+04</pdfrwt>
<pdfrwt beam="2">  1       -1 0.43301876E-01 0.13794899E+04</pdfrwt>
<totfact> 0.58015753E+01</totfact>
</mgrwt>
</event>
<event>
12    7  0.1730932E-007  0.1809718E+04  0.7818608E-02  0.8701149E-01
         -1   -1    0    0    0  501 -0.00000000000E+00  0.00000000000E+00  0.52701706047E+03  0.52701706047E+03  0.00000000000E+00 0.  1.
          2   -1    0    0  501    0  0.00000000000E+00 -0.00000000000E+00 -0.15535918408E+04  0.15535918408E+04  0.00000000000E+00 0. -1.
         24    2    1    2    0    0 -0.13951498737E+02 -0.64593679601E+03 -0.63165139511E+03  0.90710429052E+03  0.80160589853E+02 0.  0.
        254    2    1    2    0    0  0.13951498737E+02  0.64593679601E+03 -0.39492338526E+03  0.11735046108E+04  0.89650410069E+03 0.  0.
         23    2    4    4    0    0  0.29673457030E+02  0.70351180446E+03  0.53467380737E+02  0.71202305249E+03  0.91152034577E+02 0.  0.
         23    2    4    4    0    0 -0.15721958292E+02 -0.57575008447E+02 -0.44839076599E+03  0.46148155829E+03  0.91372249880E+02 0.  0.
          4    1    3    3  502    0  0.22258273180E+02 -0.16681515819E+03 -0.13177131740E+03  0.21374379013E+03  0.00000000000E+00 0. -1.
         -3    1    3    3    0  502 -0.36209771918E+02 -0.47912163782E+03 -0.49988007771E+03  0.69336050039E+03  0.00000000000E+00 0.  1.
         13    1    5    5    0    0  0.62496633742E+02  0.42999342560E+03  0.35358864945E+02  0.43594773152E+03  0.00000000000E+00 0. -1.
        -13    1    5    5    0    0 -0.32823176713E+02  0.27351837886E+03  0.18108515791E+02  0.27607532097E+03  0.00000000000E+00 0.  1.
          1    1    6    6  503    0 -0.30590943471E+02 -0.36181478785E+02 -0.86269133796E+02  0.98423923288E+02  0.00000000000E+00 0. -1.
         -1    1    6    6    0  503  0.14868985178E+02 -0.21393529662E+02 -0.36212163220E+03  0.36305763501E+03  0.00000000000E+00 0.  1.
<mgrwt>
<rscale>  0 0.18097176E+04</rscale>
<asrwt>0</asrwt>
<pdfrwt beam="1">  1        2 0.23901413E+00 0.18097176E+04</pdfrwt>
<pdfrwt beam="2">  1       -1 0.81079548E-01 0.18097176E+04</pdfrwt>
<totfact> 0.19291114E+01</totfact>
</mgrwt>
</event>
<event>
12    7  0.1730932E-007  0.1772691E+04  0.7818608E-02  0.8720958E-01
         -3   -1    0    0    0  501 -0.00000000000E+00  0.00000000000E+00  0.28266638425E+03  0.28266638425E+03  0.00000000000E+00 0.  1.
          2   -1    0    0  501    0  0.00000000000E+00 -0.00000000000E+00 -0.27792789528E+04  0.27792789528E+04  0.00000000000E+00 0. -1.
         24    2    1    2    0    0  0.44857292976E+03 -0.47850572149E+03 -0.92301758035E+03  0.11351776273E+04  0.80507099437E+02 0.  0.
        254    2    1    2    0    0 -0.44857292976E+03  0.47850572149E+03 -0.15735949882E+04  0.19267677098E+04  0.89780132641E+03 0.  0.
         23    2    4    4    0    0 -0.29131005485E+02 -0.18566579311E+03 -0.57590297726E+02  0.21681352295E+03  0.91493492275E+02 0.  0.
         23    2    4    4    0    0 -0.41944192427E+03  0.66417151460E+03 -0.15160046905E+04  0.17099541868E+04  0.92831949481E+02 0.  0.
          4    1    3    3  502    0  0.38838705314E+03 -0.36847483833E+03 -0.75164001436E+03  0.92281142208E+03  0.00000000000E+00 0. -1.
         -3    1    3    3    0  502  0.60185876619E+02 -0.11003088315E+03 -0.17137756599E+03  0.21236620521E+03  0.00000000000E+00 0.  1.
         13    1    5    5    0    0 -0.22505503014E+02 -0.43348167247E+02 -0.56034568417E+02  0.74333263935E+02  0.00000000000E+00 0. -1.
        -13    1    5    5    0    0 -0.66255024706E+01 -0.14231762586E+03 -0.15557293090E+01  0.14248025901E+03  0.00000000000E+00 0.  1.
          1    1    6    6  503    0 -0.24322871752E+03  0.30941330043E+03 -0.70630983383E+03  0.80856068472E+03  0.00000000000E+00 0. -1.
         -1    1    6    6    0  503 -0.17621320675E+03  0.35475821416E+03 -0.80969485666E+03  0.90139350212E+03  0.00000000000E+00 0.  1.
<mgrwt>
<rscale>  0 0.17726914E+04</rscale>
<asrwt>0</asrwt>
<pdfrwt beam="1">  1        2 0.42758139E+00 0.17726914E+04</pdfrwt>
<pdfrwt beam="2">  1       -3 0.43487135E-01 0.17726914E+04</pdfrwt>
<totfact> 0.76762944E+00</totfact>
</mgrwt>
</event>
<event>
12    7  0.1730932E-007  0.2026292E+04  0.7818608E-02  0.8594426E-01
          4   -1    0    0  501    0  0.00000000000E+00  0.00000000000E+00  0.21969899564E+04  0.21969899564E+04  0.00000000000E+00 0. -1.
         -3   -1    0    0    0  501 -0.00000000000E+00 -0.00000000000E+00 -0.46721401377E+03  0.46721401377E+03  0.00000000000E+00 0.  1.
         24    2    1    2    0    0  0.31068418855E+02 -0.76405876102E+03  0.10535358574E+04  0.13044865121E+04  0.83643413404E+02 0.  0.
        254    2    1    2    0    0 -0.31068418855E+02  0.76405876102E+03  0.67624008531E+03  0.13597174581E+04  0.89820926065E+03 0.  0.
         23    2    4    4    0    0 -0.34838897076E+03  0.30014955244E+03 -0.86476566313E+01  0.46866904567E+03  0.90062554007E+02 0.  0.
         23    2    4    4    0    0  0.31732055190E+03  0.46390920858E+03  0.68488774194E+03  0.89104841242E+03  0.94825986663E+02 0.  0.
          2    1    3    3  502    0  0.46121251593E+02 -0.72457031897E+03  0.97954528762E+03  0.12192777729E+04  0.00000000000E+00 0. -1.
         -1    1    3    3    0  502 -0.15052832739E+02 -0.39488442054E+02  0.73990569731E+02  0.85208739214E+02  0.00000000000E+00 0.  1.
         13    1    5    5    0    0 -0.11690187771E+03  0.76566143528E+02  0.34547628801E+02  0.14395124870E+03  0.00000000000E+00 0.  1.
        -13    1    5    5    0    0 -0.23148709304E+03  0.22358340891E+03 -0.43195285433E+02  0.32471779697E+03  0.00000000000E+00 0. -1.
          3    1    6    6  503    0  0.23518371535E+00  0.34664363121E+02  0.60006802418E+02  0.69299997968E+02  0.00000000000E+00 0.  1.
         -3    1    6    6    0  503  0.31708536819E+03  0.42924484546E+03  0.62488093952E+03  0.82174841445E+03  0.00000000000E+00 0. -1.
<mgrwt>
<rscale>  0 0.20262917E+04</rscale>
<asrwt>0</asrwt>
<pdfrwt beam="1">  1        4 0.33799845E+00 0.20262917E+04</pdfrwt>
<pdfrwt beam="2">  1       -3 0.71879080E-01 0.20262917E+04</pdfrwt>
<totfact> 0.69254003E-02</totfact>
</mgrwt>
</event>
<event>
12    7  0.1730932E-007  0.1293826E+04  0.7818608E-02  0.9034476E-01
         -1   -1    0    0    0  501 -0.00000000000E+00  0.00000000000E+00  0.27960859634E+03  0.27960859634E+03  0.00000000000E+00 0.  1.
          2   -1    0    0  501    0  0.00000000000E+00 -0.00000000000E+00 -0.14967216789E+04  0.14967216789E+04  0.00000000000E+00 0. -1.
         24    2    1    2    0    0 -0.29828598071E+03 -0.11886431456E+03 -0.34392418364E+03  0.47720080188E+03  0.79583350379E+02 0.  0.
        254    2    1    2    0    0  0.29828598071E+03  0.11886431456E+03 -0.87318889894E+03  0.12991294734E+04  0.90673881785E+03 0.  0.
         23    2    4    4    0    0 -0.28576070735E+03 -0.87450872329E+02 -0.43360565112E+03  0.53389881190E+03  0.87904742340E+02 0.  0.
         23    2    4    4    0    0  0.58404668807E+03  0.20631518689E+03 -0.43958324782E+03  0.76523066148E+03  0.93102327150E+02 0.  0.
          2    1    3    3  502    0 -0.51184461662E+02  0.99565474543E+01 -0.53381767099E+02  0.74623019313E+02  0.00000000000E+00 0. -1.
         -1    1    3    3    0  502 -0.24710151905E+03 -0.12882086202E+03 -0.29054241654E+03  0.40257778256E+03  0.00000000000E+00 0.  1.
         13    1    5    5    0    0 -0.19739230092E+03 -0.81719328583E+02 -0.36058225273E+03  0.41911970857E+03  0.00000000000E+00 0.  1.
        -13    1    5    5    0    0 -0.88368406429E+02 -0.57315437457E+01 -0.73023398389E+02  0.11477910333E+03  0.00000000000E+00 0. -1.
          3    1    6    6  503    0  0.14289223985E+03  0.40016289649E+02 -0.15480604665E+03  0.21443975314E+03  0.00000000000E+00 0. -1.
         -3    1    6    6    0  503  0.44115444822E+03  0.16629889724E+03 -0.28477720117E+03  0.55079090834E+03  0.00000000000E+00 0.  1.
<mgrwt>
<rscale>  0 0.12938257E+04</rscale>
<asrwt>0</asrwt>
<pdfrwt beam="1">  1        2 0.23026487E+00 0.12938257E+04</pdfrwt>
<pdfrwt beam="2">  1       -1 0.43016708E-01 0.12938257E+04</pdfrwt>
<totfact> 0.75847527E+01</totfact>
</mgrwt>
</event>
<event>
12    7  0.1730932E-007  0.1153548E+04  0.7818608E-02  0.9154517E-01
          2   -1    0    0  501    0  0.00000000000E+00  0.00000000000E+00  0.27080683760E+03  0.27080683760E+03  0.00000000000E+00 0. -1.
         -1   -1    0    0    0  501 -0.00000000000E+00 -0.00000000000E+00 -0.12284333944E+04  0.12284333944E+04  0.00000000000E+00 0.  1.
         24    2    1    2    0    0 -0.98222862451E+02  0.17455399194E+03 -0.29894999894E+03  0.36862449347E+03  0.79975549440E+02 0.  0.
        254    2    1    2    0    0  0.98222862451E+02 -0.17455399194E+03 -0.65867655783E+03  0.11306157385E+04  0.89683906778E+03 0.  0.
         23    2    4    4    0    0 -0.30691606166E+03 -0.41181065278E+02  0.20201778654E+02  0.32378155565E+03  0.92374427612E+02 0.  0.
         23    2    4    4    0    0  0.40513892411E+03 -0.13337292667E+03 -0.67887833649E+03  0.80683418285E+03  0.90441790454E+02 0.  0.
          4    1    3    3  502    0  0.19634745477E+01  0.17865862588E+02 -0.17875583670E+01  0.18062105171E+02  0.00000000000E+00 0. -1.
         -3    1    3    3    0  502 -0.10018633700E+03  0.15668812936E+03 -0.29716244057E+03  0.35056238830E+03  0.00000000000E+00 0.  1.
         13    1    5    5    0    0 -0.94011744442E+02  0.95925944918E+00 -0.34180743845E+02  0.10003725067E+03  0.00000000000E+00 0.  1.
        -13    1    5    5    0    0 -0.21290431722E+03 -0.42140324727E+02  0.54382522499E+02  0.22374430498E+03  0.00000000000E+00 0. -1.
          3    1    6    6  503    0  0.40515034983E+03 -0.13091729291E+03 -0.68128880218E+03  0.80339316373E+03  0.00000000000E+00 0. -1.
         -3    1    6    6    0  503 -0.11425716797E-01 -0.24556337551E+01  0.24104656958E+01  0.34410191160E+01  0.00000000000E+00 0.  1.
<mgrwt>
<rscale>  0 0.11535479E+04</rscale>
<asrwt>0</asrwt>
<pdfrwt beam="1">  1        2 0.41662590E-01 0.11535479E+04</pdfrwt>
<pdfrwt beam="2">  1       -1 0.18898976E+00 0.11535479E+04</pdfrwt>
<totfact> 0.25086969E+01</totfact>
</mgrwt>
</event>
<event>
12    7  0.1730932E-007  0.1211189E+04  0.7818608E-02  0.9103119E-01
         -1   -1    0    0    0  501 -0.00000000000E+00  0.00000000000E+00  0.29924227205E+03  0.29924227205E+03  0.00000000000E+00 0.  1.
          2   -1    0    0  501    0  0.00000000000E+00 -0.00000000000E+00 -0.12255779842E+04  0.12255779842E+04  0.00000000000E+00 0. -1.
         24    2    1    2    0    0  0.41330970259E+02  0.33624297041E+02 -0.35732010706E+03  0.36971714455E+03  0.78576495294E+02 0.  0.
        254    2    1    2    0    0 -0.41330970259E+02 -0.33624297041E+02 -0.56901560511E+03  0.11551031117E+04  0.10038155196E+04 0.  0.
         23    2    4    4    0    0  0.10755924869E+03 -0.12397727458E+03 -0.81716447831E+03  0.83821716566E+03  0.88943103187E+02 0.  0.
         23    2    4    4    0    0 -0.14889021895E+03  0.90352977538E+02  0.24814887321E+03  0.31688594606E+03  0.92232758216E+02 0.  0.
          2    1    3    3  502    0  0.14586594904E+02  0.57314653447E+02 -0.22945176575E+03  0.23695115753E+03  0.00000000000E+00 0. -1.
         -1    1    3    3    0  502  0.26744375355E+02 -0.23690356406E+02 -0.12786834131E+03  0.13276598702E+03  0.00000000000E+00 0.  1.
         13    1    5    5    0    0  0.91494280961E+02 -0.12723819740E+03 -0.58991824407E+03  0.61038045268E+03  0.00000000000E+00 0. -1.
        -13    1    5    5    0    0  0.16064967729E+02  0.32609228192E+01 -0.22724623425E+03  0.22783671299E+03  0.00000000000E+00 0.  1.
          4    1    6    6  503    0 -0.10401362227E+03  0.94407217311E+01  0.12627822343E+03  0.16387236057E+03  0.00000000000E+00 0.  1.
         -4    1    6    6    0  503 -0.44876596680E+02  0.80912255807E+02  0.12187064977E+03  0.15301358549E+03  0.00000000000E+00 0. -1.
<mgrwt>
<rscale>  0 0.12111891E+04</rscale>
<asrwt>0</asrwt>
<pdfrwt beam="1">  1        2 0.18855046E+00 0.12111891E+04</pdfrwt>
<pdfrwt beam="2">  1       -1 0.46037272E-01 0.12111891E+04</pdfrwt>
<totfact> 0.96417130E+01</totfact>
</mgrwt>
</event>
<event>
12    7  0.1730932E-007  0.1451244E+04  0.7818608E-02  0.8917539E-01
          2   -1    0    0  501    0  0.00000000000E+00  0.00000000000E+00  0.17172651161E+04  0.17172651161E+04  0.00000000000E+00 0. -1.
         -3   -1    0    0    0  501 -0.00000000000E+00 -0.00000000000E+00 -0.30660800856E+03  0.30660800856E+03  0.00000000000E+00 0.  1.
         24    2    1    2    0    0  0.23969483650E+02 -0.18685994047E+03  0.98499253322E+03  0.10058971200E+04  0.78278682389E+02 0.  0.
        254    2    1    2    0    0 -0.23969483650E+02  0.18685994047E+03  0.42566457433E+03  0.10179760046E+04  0.90531411269E+03 0.  0.
         23    2    4    4    0    0  0.11271125921E+03  0.66764859727E+02  0.67625229469E+03  0.69471326605E+03  0.90266170328E+02 0.  0.
         23    2    4    4    0    0 -0.13668074286E+03  0.12009508074E+03 -0.25058772037E+03  0.32326273856E+03  0.92736932537E+02 0.  0.
          4    1    3    3  502    0  0.44341717373E+02 -0.15462817311E+03  0.69295433535E+03  0.71138018717E+03  0.00000000000E+00 0. -1.
         -3    1    3    3    0  502 -0.20372233723E+02 -0.32231767356E+02  0.29203819788E+03  0.29451693288E+03  0.00000000000E+00 0.  1.
         13    1    5    5    0    0  0.20325357490E+02 -0.72996758931E+00  0.19869572769E+02  0.28433306733E+02  0.00000000000E+00 0. -1.
        -13    1    5    5    0    0  0.92385901725E+02  0.67494827317E+02  0.65638272192E+03  0.66627995932E+03  0.00000000000E+00 0.  1.
          3    1    6    6  503    0 -0.91985820435E+01  0.44719776334E+02 -0.10984313959E+03  0.11895372050E+03  0.00000000000E+00 0. -1.
         -3    1    6    6    0  503 -0.12748216082E+03  0.75375304410E+02 -0.14074458078E+03  0.20430901806E+03  0.00000000000E+00 0.  1.
<mgrwt>
<rscale>  0 0.14512439E+04</rscale>
<asrwt>0</asrwt>
<pdfrwt beam="1">  1        2 0.26419463E+00 0.14512439E+04</pdfrwt>
<pdfrwt beam="2">  1       -3 0.47170464E-01 0.14512439E+04</pdfrwt>
<totfact> 0.26672109E+01</totfact>
</mgrwt>
</event>
<event>
12    7  0.1730932E-007  0.1688413E+04  0.7818608E-02  0.8768000E-01
          2   -1    0    0  501    0  0.00000000000E+00  0.00000000000E+00  0.84852107886E+03  0.84852107886E+03  0.00000000000E+00 0. -1.
         -1   -1    0    0    0  501 -0.00000000000E+00 -0.00000000000E+00 -0.83991423665E+03  0.83991423665E+03  0.00000000000E+00 0.  1.
         24    2    1    2    0    0 -0.19626766695E+03  0.38094546713E+03 -0.41994597154E+03  0.60523495076E+03  0.79462447696E+02 0.  0.
        254    2    1    2    0    0  0.19626766695E+03 -0.38094546713E+03  0.42855281375E+03  0.10832003647E+04  0.89778898968E+03 0.  0.
         23    2    4    4    0    0 -0.24743590012E+03  0.75387105809E+02  0.33584965836E+03  0.43378938518E+03  0.92035304544E+02 0.  0.
         23    2    4    4    0    0  0.44370356707E+03 -0.45633257294E+03  0.92703155380E+02  0.64941097956E+03  0.89601745458E+02 0.  0.
          2    1    3    3  502    0 -0.82087166047E+02  0.12620337445E+03 -0.19719294142E+03  0.24809403600E+03  0.00000000000E+00 0. -1.
         -1    1    3    3    0  502 -0.11418050090E+03  0.25474209269E+03 -0.22275303012E+03  0.35714091476E+03  0.00000000000E+00 0.  1.
         13    1    5    5    0    0 -0.52499809284E+02  0.53167500744E+02  0.63069240205E+02  0.97779047705E+02  0.00000000000E+00 0.  1.
        -13    1    5    5    0    0 -0.19493609084E+03  0.22219605066E+02  0.27278041816E+03  0.33601033748E+03  0.00000000000E+00 0. -1.
          1    1    6    6  503    0  0.14988898871E+03 -0.10960134210E+03  0.53535536671E+02  0.19324910559E+03  0.00000000000E+00 0. -1.
         -1    1    6    6    0  503  0.29381457837E+03 -0.34673123085E+03  0.39167618710E+02  0.45616187397E+03  0.00000000000E+00 0.  1.
<mgrwt>
<rscale>  0 0.16884134E+04</rscale>
<asrwt>0</asrwt>
<pdfrwt beam="1">  1        2 0.13054170E+00 0.16884134E+04</pdfrwt>
<pdfrwt beam="2">  1       -1 0.12921758E+00 0.16884134E+04</pdfrwt>
<totfact> 0.17812624E+01</totfact>
</mgrwt>
</event>
<event>
12    7  0.1730932E-007  0.1381595E+04  0.7818608E-02  0.8967250E-01
         -1   -1    0    0    0  501 -0.00000000000E+00  0.00000000000E+00  0.13725652105E+03  0.13725652105E+03  0.00000000000E+00 0.  1.
          2   -1    0    0  501    0  0.00000000000E+00 -0.00000000000E+00 -0.34767093350E+04  0.34767093350E+04  0.00000000000E+00 0. -1.
         24    2    1    2    0    0 -0.33236224319E+03 -0.17511596250E+03 -0.58054198690E+03  0.69599545301E+03  0.79059541136E+02 0.  0.
        254    2    1    2    0    0  0.33236224319E+03  0.17511596250E+03 -0.27589108271E+04  0.29179704031E+04  0.87282991490E+03 0.  0.
         23    2    4    4    0    0  0.47379303531E+03 -0.21274177724E+03 -0.14779580961E+04  0.15692664574E+04  0.92185555281E+02 0.  0.
         23    2    4    4    0    0 -0.14143079212E+03  0.38785773974E+03 -0.12809527310E+04  0.13487039456E+04  0.87898456369E+02 0.  0.
          2    1    3    3  502    0 -0.12388448353E+03 -0.10473144064E+03 -0.27851948122E+03  0.32231838504E+03  0.00000000000E+00 0. -1.
         -1    1    3    3    0  502 -0.20847775966E+03 -0.70384521852E+02 -0.30202250568E+03  0.37367706797E+03  0.00000000000E+00 0.  1.
         13    1    5    5    0    0  0.26986005196E+03 -0.14731567794E+03 -0.98299690088E+03  0.10299559523E+04  0.00000000000E+00 0. -1.
        -13    1    5    5    0    0  0.20393298335E+03 -0.65426099298E+02 -0.49496119518E+03  0.53931050510E+03  0.00000000000E+00 0.  1.
          1    1    6    6  503    0 -0.14879133046E+03  0.35812981073E+03 -0.12249676688E+04  0.12848897272E+04  0.00000000000E+00 0. -1.
         -1    1    6    6    0  503  0.73605383438E+01  0.29727929007E+02 -0.55985062199E+02  0.63814218456E+02  0.00000000000E+00 0.  1.
<mgrwt>
<rscale>  0 0.13815948E+04</rscale>
<asrwt>0</asrwt>
<pdfrwt beam="1">  1        2 0.53487831E+00 0.13815948E+04</pdfrwt>
<pdfrwt beam="2">  1       -1 0.21116390E-01 0.13815948E+04</pdfrwt>
<totfact> 0.17795765E+01</totfact>
</mgrwt>
</event>
<event>
12    7  0.1730932E-007  0.1534639E+04  0.7818608E-02  0.8861740E-01
          2   -1    0    0  501    0  0.00000000000E+00  0.00000000000E+00  0.23712387472E+04  0.23712387472E+04  0.00000000000E+00 0. -1.
         -1   -1    0    0    0  501 -0.00000000000E+00 -0.00000000000E+00 -0.24830019737E+03  0.24830019737E+03  0.00000000000E+00 0.  1.
         24    2    1    2    0    0  0.77253090197E+02  0.46180472911E+03  0.39099606097E+03  0.61467529401E+03  0.75605222004E+02 0.  0.
        254    2    1    2    0    0 -0.77253090197E+02 -0.46180472911E+03  0.17319424889E+04  0.20048636506E+04  0.89477473415E+03 0.  0.
         23    2    4    4    0    0  0.47474989226E+02  0.13846021253E+03  0.11229616430E+04  0.11359886646E+04  0.89455516275E+02 0.  0.
         23    2    4    4    0    0 -0.12472807942E+03 -0.60026494164E+03  0.60898084586E+03  0.86887498597E+03  0.90614439579E+02 0.  0.
          4    1    3    3  502    0 -0.31191251519E+01  0.10777486565E+03  0.12214936057E+03  0.16292825689E+03  0.00000000000E+00 0. -1.
         -3    1    3    3    0  502  0.80372215349E+02  0.35402986346E+03  0.26884670040E+03  0.45174703712E+03  0.00000000000E+00 0.  1.
         13    1    5    5    0    0  0.47860609997E+02  0.84236004384E+02  0.42405478596E+03  0.43498138342E+03  0.00000000000E+00 0.  1.
        -13    1    5    5    0    0 -0.38562077086E+00  0.54224208147E+02  0.69890685703E+03  0.70100728117E+03  0.00000000000E+00 0. -1.
          3    1    6    6  503    0 -0.63288764286E+02 -0.19173230744E+03  0.25177488876E+03  0.32273416307E+03  0.00000000000E+00 0. -1.
         -3    1    6    6    0  503 -0.61439315138E+02 -0.40853263420E+03  0.35720595710E+03  0.54614082290E+03  0.00000000000E+00 0.  1.
<mgrwt>
<rscale>  0 0.15346388E+04</rscale>
<asrwt>0</asrwt>
<pdfrwt beam="1">  1        2 0.36480595E+00 0.15346388E+04</pdfrwt>
<pdfrwt beam="2">  1       -1 0.38200032E-01 0.15346388E+04</pdfrwt>
<totfact> 0.30077104E+01</totfact>
</mgrwt>
</event>
<event>
12    7  0.1730932E-007  0.1438088E+04  0.7818608E-02  0.8926700E-01
          2   -1    0    0  501    0  0.00000000000E+00  0.00000000000E+00  0.10481006532E+04  0.10481006532E+04  0.00000000000E+00 0. -1.
         -1   -1    0    0    0  501 -0.00000000000E+00 -0.00000000000E+00 -0.49329673225E+03  0.49329673225E+03  0.00000000000E+00 0.  1.
         24    2    1    2    0    0  0.22813463967E+03  0.10468189207E+03  0.54716486956E+03  0.60710911093E+03  0.78666166510E+02 0.  0.
        254    2    1    2    0    0 -0.22813463967E+03 -0.10468189207E+03  0.76390514142E+01  0.93428827454E+03  0.89990694657E+03 0.  0.
         23    2    4    4    0    0 -0.52426552152E+03 -0.11539111507E+03 -0.17732695713E+03  0.57335725030E+03  0.95520889142E+02 0.  0.
         23    2    4    4    0    0  0.29613088184E+03  0.10709223002E+02  0.18496600854E+03  0.36093102424E+03  0.90832776577E+02 0.  0.
          2    1    3    3  502    0  0.18344775729E+03  0.59791753140E+02  0.34542924098E+03  0.39566335933E+03  0.00000000000E+00 0. -1.
         -1    1    3    3    0  502  0.44686882386E+02  0.44890138925E+02  0.20173562858E+03  0.21144575160E+03  0.00000000000E+00 0.  1.
         13    1    5    5    0    0 -0.14183295632E+03 -0.61982332468E+02 -0.18736386367E+02  0.15591487809E+03  0.00000000000E+00 0. -1.
        -13    1    5    5    0    0 -0.38243256520E+03 -0.53408782600E+02 -0.15859057076E+03  0.41744237221E+03  0.00000000000E+00 0.  1.
          3    1    6    6  503    0  0.11235690712E+03  0.48346908203E+02  0.70647603399E+02  0.14125360872E+03  0.00000000000E+00 0. -1.
         -3    1    6    6    0  503  0.18377397473E+03 -0.37637685201E+02  0.11431840514E+03  0.21967741552E+03  0.00000000000E+00 0.  1.
<mgrwt>
<rscale>  0 0.14380885E+04</rscale>
<asrwt>0</asrwt>
<pdfrwt beam="1">  1        2 0.16124625E+00 0.14380885E+04</pdfrwt>
<pdfrwt beam="2">  1       -1 0.75891805E-01 0.14380885E+04</pdfrwt>
<totfact> 0.45337269E+01</totfact>
</mgrwt>
</event>
<event>
12    7  0.1730932E-007  0.3503382E+04  0.7818608E-02  0.8112989E-01
         -1   -1    0    0    0  501 -0.00000000000E+00  0.00000000000E+00  0.74065857095E+03  0.74065857095E+03  0.00000000000E+00 0.  1.
          2   -1    0    0  501    0  0.00000000000E+00 -0.00000000000E+00 -0.41428285142E+04  0.41428285142E+04  0.00000000000E+00 0. -1.
         24    2    1    2    0    0 -0.60339370490E+03 -0.49324685510E+03  0.41208429406E+03  0.88519141854E+03  0.79837076968E+02 0.  0.
        254    2    1    2    0    0  0.60339370490E+03  0.49324685510E+03 -0.38142542373E+04  0.39982956666E+04  0.91129382071E+03 0.  0.
         23    2    4    4    0    0  0.94681515220E+01  0.52945590863E+03 -0.24348030414E+04  0.24932920723E+04  0.88466390849E+02 0.  0.
         23    2    4    4    0    0  0.59392555338E+03 -0.36209053529E+02 -0.13794511959E+04  0.15050035943E+04  0.89953090479E+02 0.  0.
          2    1    3    3  502    0 -0.15658788481E+03 -0.15634126277E+03  0.14958764742E+03  0.26709328029E+03  0.00000000000E+00 0. -1.
         -1    1    3    3    0  502 -0.44680582009E+03 -0.33690559233E+03  0.26249664664E+03  0.61809813825E+03  0.00000000000E+00 0.  1.
         13    1    5    5    0    0  0.43519773120E+02  0.32215644272E+03 -0.13799746871E+04  0.14177478201E+04  0.00000000000E+00 0. -1.
        -13    1    5    5    0    0 -0.34051621598E+02  0.20729946591E+03 -0.10548283543E+04  0.10755442523E+04  0.00000000000E+00 0.  1.
          1    1    6    6  503    0  0.13817800366E+03 -0.46562448065E+02 -0.32200334677E+03  0.35347896344E+03  0.00000000000E+00 0. -1.
         -1    1    6    6    0  503  0.45574754972E+03  0.10353394536E+02 -0.10574478491E+04  0.11515246308E+04  0.00000000000E+00 0.  1.
<mgrwt>
<rscale>  0 0.35033820E+04</rscale>
<asrwt>0</asrwt>
<pdfrwt beam="1">  1        2 0.63735823E+00 0.35033820E+04</pdfrwt>
<pdfrwt beam="2">  1       -1 0.11394747E+00 0.35033820E+04</pdfrwt>
<totfact> 0.16981122E-01</totfact>
</mgrwt>
</event>
<event>
12    7  0.1730932E-007  0.1396848E+04  0.7818608E-02  0.8956104E-01
          2   -1    0    0  501    0  0.00000000000E+00  0.00000000000E+00  0.62417276730E+03  0.62417276730E+03  0.00000000000E+00 0. -1.
         -1   -1    0    0    0  501 -0.00000000000E+00 -0.00000000000E+00 -0.78150756416E+03  0.78150756416E+03  0.00000000000E+00 0.  1.
         24    2    1    2    0    0 -0.21970509192E+01 -0.39255191046E+03 -0.19133811220E+03  0.44373803548E+03  0.78685078118E+02 0.  0.
        254    2    1    2    0    0  0.21970509192E+01  0.39255191046E+03  0.34003315343E+02  0.96194229598E+03  0.87753913070E+03 0.  0.
         23    2    4    4    0    0 -0.37011305074E+03  0.29492535452E+03  0.21326529383E+03  0.52753078735E+03  0.94031967852E+02 0.  0.
         23    2    4    4    0    0  0.37231010166E+03  0.97626555934E+02 -0.17926197849E+03  0.43441150863E+03  0.91829982430E+02 0.  0.
          4    1    3    3  502    0  0.72036889886E+00 -0.59657455161E+02  0.20055946031E+00  0.59662141360E+02  0.00000000000E+00 0. -1.
         -3    1    3    3    0  502 -0.29174198181E+01 -0.33289445530E+03 -0.19153867166E+03  0.38407589412E+03  0.00000000000E+00 0.  1.
         13    1    5    5    0    0 -0.78782041714E+02  0.11484283799E+03  0.75003188888E+02  0.15818016904E+03  0.00000000000E+00 0.  1.
        -13    1    5    5    0    0 -0.29133100903E+03  0.18008251653E+03  0.13826210495E+03  0.36935061831E+03  0.00000000000E+00 0. -1.
          2    1    6    6  503    0  0.37213304811E+03  0.10578595480E+03 -0.17891091674E+03  0.42624264199E+03  0.00000000000E+00 0. -1.
         -2    1    6    6    0  503  0.17705355697E+00 -0.81593988620E+01 -0.35106174977E+00  0.81688666352E+01  0.00000000000E+00 0.  1.
<mgrwt>
<rscale>  0 0.13968475E+04</rscale>
<asrwt>0</asrwt>
<pdfrwt beam="1">  1        2 0.96026580E-01 0.13968475E+04</pdfrwt>
<pdfrwt beam="2">  1       -1 0.12023193E+00 0.13968475E+04</pdfrwt>
<totfact> 0.32407388E+01</totfact>
</mgrwt>
</event>
<event>
12    7  0.1730932E-007  0.1660177E+04  0.7818608E-02  0.8784409E-01
         -1   -1    0    0    0  501 -0.00000000000E+00  0.00000000000E+00  0.35035149939E+03  0.35035149939E+03  0.00000000000E+00 0.  1.
          2   -1    0    0  501    0  0.00000000000E+00 -0.00000000000E+00 -0.19667293216E+04  0.19667293216E+04  0.00000000000E+00 0. -1.
         24    2    1    2    0    0 -0.15967296021E+03 -0.52918117343E+03 -0.30467961775E+03  0.63616592846E+03  0.79682184504E+02 0.  0.
        254    2    1    2    0    0  0.15967296021E+03  0.52918117343E+03 -0.13116982045E+04  0.16809148926E+04  0.89408865772E+03 0.  0.
         23    2    4    4    0    0 -0.21505702365E+03 -0.14004299250E+03 -0.43032210024E+03  0.50890424802E+03  0.89133947099E+02 0.  0.
         23    2    4    4    0    0  0.37472998386E+03  0.66922416593E+03 -0.88137610425E+03  0.11720106446E+04  0.92203951836E+02 0.  0.
          4    1    3    3  502    0 -0.59110212307E+02 -0.13153321394E+03 -0.46538514676E+02  0.15152833701E+03  0.00000000000E+00 0. -1.
         -3    1    3    3    0  502 -0.10056274790E+03 -0.39764795949E+03 -0.25814110308E+03  0.48463759146E+03  0.00000000000E+00 0.  1.
         13    1    5    5    0    0  0.87376144426E+01 -0.31011593381E+01 -0.16189072524E+02  0.18656075808E+02  0.00000000000E+00 0.  1.
        -13    1    5    5    0    0 -0.22379463809E+03 -0.13694183316E+03 -0.41413302772E+03  0.49024817221E+03  0.00000000000E+00 0. -1.
          1    1    6    6  503    0  0.34798235876E+03  0.64863473029E+03 -0.81963012803E+03  0.11016407228E+04  0.00000000000E+00 0. -1.
         -1    1    6    6    0  503  0.26747625099E+02  0.20589435632E+02 -0.61745976221E+02  0.70369921753E+02  0.00000000000E+00 0.  1.
<mgrwt>
<rscale>  0 0.16601766E+04</rscale>
<asrwt>0</asrwt>
<pdfrwt beam="1">  1        2 0.30257374E+00 0.16601766E+04</pdfrwt>
<pdfrwt beam="2">  1       -1 0.53900231E-01 0.16601766E+04</pdfrwt>
<totfact> 0.26339956E+01</totfact>
</mgrwt>
</event>
<event>
12    7  0.1730932E-007  0.2523590E+04  0.7818608E-02  0.8394629E-01
          2   -1    0    0  501    0  0.00000000000E+00  0.00000000000E+00  0.15388762482E+04  0.15388762482E+04  0.00000000000E+00 0. -1.
         -1   -1    0    0    0  501 -0.00000000000E+00 -0.00000000000E+00 -0.10346034343E+04  0.10346034343E+04  0.00000000000E+00 0.  1.
         24    2    1    2    0    0  0.47240656955E+03  0.20327641314E+03 -0.77355779135E+03  0.93276664274E+03  0.84691712464E+02 0.  0.
        254    2    1    2    0    0 -0.47240656955E+03 -0.20327641314E+03  0.12778306052E+04  0.16407130398E+04  0.89140280249E+03 0.  0.
         23    2    4    4    0    0 -0.48664802608E+03 -0.21766615250E+03  0.22829363539E+03  0.58700259313E+03  0.90825134997E+02 0.  0.
         23    2    4    4    0    0  0.14241456534E+02  0.14389739366E+02  0.10495369698E+04  0.10537104467E+04  0.91476613043E+02 0.  0.
          2    1    3    3  502    0  0.86452179596E+02  0.63045958090E+02 -0.20730721364E+03  0.23329177657E+03  0.00000000000E+00 0. -1.
         -1    1    3    3    0  502  0.38595438995E+03  0.14023045505E+03 -0.56625057771E+03  0.69947486617E+03  0.00000000000E+00 0.  1.
         13    1    5    5    0    0 -0.12081546429E+02  0.53309379826E+01  0.17373912050E+02  0.21822820254E+02  0.00000000000E+00 0. -1.
        -13    1    5    5    0    0 -0.47456647965E+03 -0.22299709049E+03  0.21091972334E+03  0.56517977288E+03  0.00000000000E+00 0.  1.
          2    1    6    6  503    0 -0.22772311170E+02  0.34051547089E+02  0.76578260469E+03  0.76687748934E+03  0.00000000000E+00 0.  1.
         -2    1    6    6    0  503  0.37013767704E+02 -0.19661807722E+02  0.28375436512E+03  0.28683295733E+03  0.00000000000E+00 0. -1.
<mgrwt>
<rscale>  0 0.25235900E+04</rscale>
<asrwt>0</asrwt>
<pdfrwt beam="1">  1        2 0.23675019E+00 0.25235900E+04</pdfrwt>
<pdfrwt beam="2">  1       -1 0.15916976E+00 0.25235900E+04</pdfrwt>
<totfact> 0.36280115E+00</totfact>
</mgrwt>
</event>
<event>
12    7  0.1730932E-007  0.2214107E+04  0.7818608E-02  0.8512579E-01
         -1   -1    0    0    0  501 -0.00000000000E+00  0.00000000000E+00  0.21998486190E+04  0.21998486190E+04  0.00000000000E+00 0.  1.
          2   -1    0    0  501    0  0.00000000000E+00 -0.00000000000E+00 -0.55711467515E+03  0.55711467515E+03  0.00000000000E+00 0. -1.
         24    2    1    2    0    0 -0.10114333782E+03 -0.19469762258E+03  0.17994838473E+04  0.18145069088E+04  0.78460604701E+02 0.  0.
        254    2    1    2    0    0  0.10114333782E+03  0.19469762258E+03 -0.15674990337E+03  0.94245638539E+03  0.90305944828E+03 0.  0.
         23    2    4    4    0    0 -0.17493593856E+03  0.44544649131E+02  0.31066072292E+03  0.37067356837E+03  0.91115317916E+02 0.  0.
         23    2    4    4    0    0  0.27607927638E+03  0.15015297345E+03 -0.46741062629E+03  0.57178281701E+03  0.98474433124E+02 0.  0.
          4    1    3    3  502    0 -0.53830535164E+02 -0.11358456531E+03  0.71492150831E+03  0.72588700432E+03  0.00000000000E+00 0. -1.
         -3    1    3    3    0  502 -0.47312802660E+02 -0.81113057265E+02  0.10845623390E+04  0.10886199045E+04  0.00000000000E+00 0.  1.
         13    1    5    5    0    0 -0.11125780391E+03 -0.13823883181E+02  0.20980825886E+03  0.23788422428E+03  0.00000000000E+00 0. -1.
        -13    1    5    5    0    0 -0.63678134651E+02  0.58368532312E+02  0.10085246406E+03  0.13278934409E+03  0.00000000000E+00 0.  1.
          2    1    6    6  503    0  0.21088764974E+03  0.88621991319E+02 -0.39538017809E+03  0.45678544568E+03  0.00000000000E+00 0. -1.
         -2    1    6    6    0  503  0.65191626642E+02  0.61530982126E+02 -0.72030448205E+02  0.11499737134E+03  0.00000000000E+00 0.  1.
<mgrwt>
<rscale>  0 0.22141074E+04</rscale>
<asrwt>0</asrwt>
<pdfrwt beam="1">  1        2 0.85709951E-01 0.22141074E+04</pdfrwt>
<pdfrwt beam="2">  1       -1 0.33843824E+00 0.22141074E+04</pdfrwt>
<totfact> 0.10478618E+00</totfact>
</mgrwt>
</event>
<event>
12    7  0.1730932E-007  0.1623171E+04  0.7818608E-02  0.8806438E-01
         -1   -1    0    0    0  501 -0.00000000000E+00  0.00000000000E+00  0.39035187569E+03  0.39035187569E+03  0.00000000000E+00 0.  1.
          2   -1    0    0  501    0  0.00000000000E+00 -0.00000000000E+00 -0.16873779906E+04  0.16873779906E+04  0.00000000000E+00 0. -1.
         24    2    1    2    0    0  0.42091399803E+03  0.30388951719E+03 -0.71121425512E+03  0.88424525432E+03  0.80910572226E+02 0.  0.
        254    2    1    2    0    0 -0.42091399803E+03 -0.30388951719E+03 -0.58581185983E+03  0.11934846120E+04  0.90095091520E+03 0.  0.
         23    2    4    4    0    0 -0.18327066352E+03  0.31012174524E+03 -0.26454985134E+03  0.45527212629E+03  0.86732071088E+02 0.  0.
         23    2    4    4    0    0 -0.23764333451E+03 -0.61401126243E+03 -0.32126200848E+03  0.73821248572E+03  0.90907706804E+02 0.  0.
          2    1    3    3  502    0  0.35859243962E+03  0.22089938879E+03 -0.58499629097E+03  0.72083683187E+03  0.00000000000E+00 0. -1.
         -1    1    3    3    0  502  0.62321558410E+02  0.82990128400E+02 -0.12621796415E+03  0.16340842245E+03  0.00000000000E+00 0.  1.
         13    1    5    5    0    0 -0.34956240157E+02  0.16398165477E+02 -0.46936101816E+02  0.60776938148E+02  0.00000000000E+00 0. -1.
        -13    1    5    5    0    0 -0.14831442336E+03  0.29372357976E+03 -0.21761374953E+03  0.39449518814E+03  0.00000000000E+00 0.  1.
          3    1    6    6  503    0 -0.62405831258E+02 -0.97680990672E+02 -0.86165298501E+02  0.14443172221E+03  0.00000000000E+00 0. -1.
         -3    1    6    6    0  503 -0.17523750326E+03 -0.51633027175E+03 -0.23509670998E+03  0.59378076352E+03  0.00000000000E+00 0.  1.
<mgrwt>
<rscale>  0 0.16231712E+04</rscale>
<asrwt>0</asrwt>
<pdfrwt beam="1">  1        2 0.25959661E+00 0.16231712E+04</pdfrwt>
<pdfrwt beam="2">  1       -1 0.60054135E-01 0.16231712E+04</pdfrwt>
<totfact> 0.30556698E+01</totfact>
</mgrwt>
</event>
<event>
12    7  0.1730932E-007  0.2400052E+04  0.7818608E-02  0.8439484E-01
         -1   -1    0    0    0  501 -0.00000000000E+00  0.00000000000E+00  0.15417215967E+04  0.15417215967E+04  0.00000000000E+00 0.  1.
          2   -1    0    0  501    0  0.00000000000E+00 -0.00000000000E+00 -0.93406153901E+03  0.93406153901E+03  0.00000000000E+00 0. -1.
         24    2    1    2    0    0  0.70844366998E+03 -0.58519944178E+03 -0.21050384418E+03  0.94655013750E+03  0.85407694024E+02 0.  0.
        254    2    1    2    0    0 -0.70844366998E+03  0.58519944178E+03  0.81816390191E+03  0.15292329983E+04  0.90819082377E+03 0.  0.
         23    2    4    4    0    0 -0.82720081567E+02 -0.19013601870E+03 -0.16054652604E+02  0.22633440173E+03  0.89303930674E+02 0.  0.
         23    2    4    4    0    0 -0.62572358841E+03  0.77533546048E+03  0.83421855452E+03  0.13028985965E+04  0.94599528424E+02 0.  0.
          4    1    3    3  502    0  0.58988680386E+03 -0.51560011702E+03 -0.15704306212E+03  0.79904470801E+03  0.00000000000E+00 0. -1.
         -3    1    3    3    0  502  0.11855686612E+03 -0.69599324758E+02 -0.53460782061E+02  0.14750542949E+03  0.00000000000E+00 0.  1.
         13    1    5    5    0    0 -0.21774280305E+02  0.33832404024E+01  0.42149083080E+01  0.22435040683E+02  0.00000000000E+00 0. -1.
        -13    1    5    5    0    0 -0.60945801262E+02 -0.19351925910E+03 -0.20269560912E+02  0.20389936104E+03  0.00000000000E+00 0.  1.
          1    1    6    6  503    0 -0.10227706307E+03  0.14777404624E+03  0.10823238904E+03  0.20979041067E+03  0.00000000000E+00 0. -1.
         -1    1    6    6    0  503 -0.52344652534E+03  0.62756141424E+03  0.72598616548E+03  0.10931081859E+04  0.00000000000E+00 0.  1.
<mgrwt>
<rscale>  0 0.24000524E+04</rscale>
<asrwt>0</asrwt>
<pdfrwt beam="1">  1        2 0.14370178E+00 0.24000524E+04</pdfrwt>
<pdfrwt beam="2">  1       -1 0.23718794E+00 0.24000524E+04</pdfrwt>
<totfact> 0.24132860E+00</totfact>
</mgrwt>
</event>
<event>
12    7  0.1730932E-007  0.1441568E+04  0.7818608E-02  0.8924267E-01
         -1   -1    0    0    0  501 -0.00000000000E+00  0.00000000000E+00  0.17330038871E+03  0.17330038871E+03  0.00000000000E+00 0.  1.
          2   -1    0    0  501    0  0.00000000000E+00 -0.00000000000E+00 -0.29978573688E+04  0.29978573688E+04  0.00000000000E+00 0. -1.
         24    2    1    2    0    0  0.36092219628E+03  0.14475714395E+03 -0.43074618720E+03  0.58565898374E+03  0.78960147906E+02 0.  0.
        254    2    1    2    0    0 -0.36092219628E+03 -0.14475714395E+03 -0.23938107929E+04  0.25854987738E+04  0.89624457295E+03 0.  0.
         23    2    4    4    0    0 -0.14363643493E+03 -0.33386716183E+03 -0.21873953652E+04  0.22191787714E+04  0.89203299993E+02 0.  0.
         23    2    4    4    0    0 -0.21728576135E+03  0.18911001788E+03 -0.20641542772E+03  0.36632000236E+03  0.92775613058E+02 0.  0.
          2    1    3    3  502    0  0.57282848472E+02  0.35753286360E+02 -0.12019302997E+03  0.13786220174E+03  0.00000000000E+00 0. -1.
         -1    1    3    3    0  502  0.30363934781E+03  0.10900385759E+03 -0.31055315723E+03  0.44779678200E+03  0.00000000000E+00 0.  1.
         13    1    5    5    0    0 -0.16977076267E+02 -0.13062239102E+03 -0.91646778601E+03  0.92588532387E+03  0.00000000000E+00 0.  1.
        -13    1    5    5    0    0 -0.12665935866E+03 -0.20324477081E+03 -0.12709275792E+04  0.12932934476E+04  0.00000000000E+00 0. -1.
          3    1    6    6  503    0 -0.13640873368E+03  0.16461749257E+03 -0.11874694100E+03  0.24455489666E+03  0.00000000000E+00 0. -1.
         -3    1    6    6    0  503 -0.80877027677E+02  0.24492525306E+02 -0.87668486719E+02  0.12176510570E+03  0.00000000000E+00 0.  1.
<mgrwt>
<rscale>  0 0.14415684E+04</rscale>
<asrwt>0</asrwt>
<pdfrwt beam="1">  1        2 0.46120879E+00 0.14415684E+04</pdfrwt>
<pdfrwt beam="2">  1       -1 0.26661601E-01 0.14415684E+04</pdfrwt>
<totfact> 0.24397346E+01</totfact>
</mgrwt>
</event>
<event>
12    7  0.1730932E-007  0.3031270E+04  0.7818608E-02  0.8234857E-01
          2   -1    0    0  501    0  0.00000000000E+00  0.00000000000E+00  0.22187793122E+04  0.22187793122E+04  0.00000000000E+00 0. -1.
         -1   -1    0    0    0  501 -0.00000000000E+00 -0.00000000000E+00 -0.10353215177E+04  0.10353215177E+04  0.00000000000E+00 0.  1.
         24    2    1    2    0    0  0.11842590220E+04  0.48446124848E+03  0.65913756700E+01  0.12815451912E+04  0.71711216936E+02 0.  0.
        254    2    1    2    0    0 -0.11842590220E+04 -0.48446124848E+03  0.11768664189E+04  0.19725556386E+04  0.93208854047E+03 0.  0.
         23    2    4    4    0    0 -0.98913529033E+01 -0.11451938438E+03 -0.11276149716E+03  0.18714763571E+03  0.95375856742E+02 0.  0.
         23    2    4    4    0    0 -0.11743676690E+04 -0.36994186410E+03  0.12896279161E+04  0.17854080029E+04  0.92440089586E+02 0.  0.
          2    1    3    3  502    0  0.29179107990E+03  0.10255800049E+03  0.28069771788E+02  0.31056092778E+03  0.00000000000E+00 0. -1.
         -3    1    3    3    0  502  0.89246794205E+03  0.38190324799E+03 -0.21478396118E+02  0.97098426347E+03  0.00000000000E+00 0.  1.
         13    1    5    5    0    0 -0.27844653391E+02 -0.10915987339E+03 -0.12216920422E+03  0.16618218058E+03  0.00000000000E+00 0. -1.
        -13    1    5    5    0    0  0.17953300488E+02 -0.53595109834E+01  0.94077070668E+01  0.20965455126E+02  0.00000000000E+00 0.  1.
          3    1    6    6  503    0 -0.64722523304E+03 -0.17054236728E+03  0.74810369547E+03  0.10038148935E+04  0.00000000000E+00 0. -1.
         -3    1    6    6    0  503 -0.52714243601E+03 -0.19939949682E+03  0.54152422058E+03  0.78159310939E+03  0.00000000000E+00 0.  1.
<mgrwt>
<rscale>  0 0.30312703E+04</rscale>
<asrwt>0</asrwt>
<pdfrwt beam="1">  1        2 0.34135066E+00 0.30312703E+04</pdfrwt>
<pdfrwt beam="2">  1       -1 0.15928023E+00 0.30312703E+04</pdfrwt>
<totfact> 0.14478228E+00</totfact>
</mgrwt>
</event>
<event>
12    7  0.1730932E-007  0.1590746E+04  0.7818608E-02  0.8826254E-01
          2   -1    0    0  501    0  0.00000000000E+00  0.00000000000E+00  0.38849646564E+04  0.38849646564E+04  0.00000000000E+00 0. -1.
         -1   -1    0    0    0  501 -0.00000000000E+00 -0.00000000000E+00 -0.16283749818E+03  0.16283749818E+03  0.00000000000E+00 0.  1.
         24    2    1    2    0    0  0.47432172888E+03  0.16520384837E+03  0.82258665386E+03  0.96751839365E+03  0.84673637784E+02 0.  0.
        254    2    1    2    0    0 -0.47432172888E+03 -0.16520384837E+03  0.28995405044E+04  0.30802837609E+04  0.91024145005E+03 0.  0.
         23    2    4    4    0    0 -0.56891012716E+03 -0.38646694307E+03  0.14444051750E+04  0.16026167377E+04  0.95177032416E+02 0.  0.
         23    2    4    4    0    0  0.94588398279E+02  0.22126309471E+03  0.14551353294E+04  0.14776670233E+04  0.90425010977E+02 0.  0.
          2    1    3    3  502    0  0.16104510342E+03  0.66647384061E+02  0.36273365301E+03  0.40243397242E+03  0.00000000000E+00 0. -1.
         -3    1    3    3    0  502  0.31327662546E+03  0.98556464306E+02  0.45985300086E+03  0.56508442123E+03  0.00000000000E+00 0.  1.
         13    1    5    5    0    0 -0.48566636109E+03 -0.36720266131E+03  0.12634685462E+04  0.14025200091E+04  0.00000000000E+00 0.  1.
        -13    1    5    5    0    0 -0.83243766076E+02 -0.19264281761E+02  0.18093662881E+03  0.20009672858E+03  0.00000000000E+00 0. -1.
          4    1    6    6  503    0  0.99040555573E+02  0.11954476296E+03  0.87433777138E+03  0.88801268035E+03  0.00000000000E+00 0.  1.
         -4    1    6    6    0  503 -0.44521572938E+01  0.10171833175E+03  0.58079755802E+03  0.58965434291E+03  0.00000000000E+00 0. -1.
<mgrwt>
<rscale>  0 0.15907456E+04</rscale>
<asrwt>0</asrwt>
<pdfrwt beam="1">  1        2 0.59768680E+00 0.15907456E+04</pdfrwt>
<pdfrwt beam="2">  1       -1 0.25051926E-01 0.15907456E+04</pdfrwt>
<totfact> 0.65605668E+00</totfact>
</mgrwt>
</event>
<event>
12    7  0.1730932E-007  0.1740573E+04  0.7818608E-02  0.8738556E-01
          2   -1    0    0  501    0  0.00000000000E+00  0.00000000000E+00  0.28716168018E+03  0.28716168018E+03  0.00000000000E+00 0. -1.
         -1   -1    0    0    0  501 -0.00000000000E+00 -0.00000000000E+00 -0.26375342422E+04  0.26375342422E+04  0.00000000000E+00 0.  1.
         24    2    1    2    0    0 -0.45515729746E+03  0.25028014138E+03 -0.24949770220E+03  0.58175678537E+03  0.79897054560E+02 0.  0.
        254    2    1    2    0    0  0.45515729746E+03 -0.25028014138E+03 -0.21008748598E+04  0.23429391370E+04  0.89770836493E+03 0.  0.
         23    2    4    4    0    0  0.43639290074E+03 -0.40511601066E+03 -0.20765054700E+04  0.21621322552E+04  0.91559685294E+02 0.  0.
         23    2    4    4    0    0  0.18764396715E+02  0.15483586928E+03 -0.24369389768E+02  0.18080688179E+03  0.88153345616E+02 0.  0.
          2    1    3    3  502    0 -0.33427672155E+03  0.22059103013E+03 -0.20167591416E+03  0.44841331770E+03  0.00000000000E+00 0. -1.
         -3    1    3    3    0  502 -0.12088057591E+03  0.29689111255E+02 -0.47821788045E+02  0.13334346767E+03  0.00000000000E+00 0.  1.
         13    1    5    5    0    0  0.53137192647E+01  0.27297477487E+01 -0.54941333821E+02  0.55265154458E+02  0.00000000000E+00 0. -1.
        -13    1    5    5    0    0  0.43107918148E+03 -0.40784575841E+03 -0.20215641362E+04  0.21068671007E+04  0.00000000000E+00 0.  1.
          4    1    6    6  503    0  0.10548743697E+02  0.11966232063E+02  0.24802059575E+02  0.29489131261E+02  0.00000000000E+00 0. -1.
         -4    1    6    6    0  503  0.82156530181E+01  0.14286963722E+03 -0.49171449343E+02  0.15131775053E+03  0.00000000000E+00 0.  1.
<mgrwt>
<rscale>  0 0.17405732E+04</rscale>
<asrwt>0</asrwt>
<pdfrwt beam="1">  1        2 0.44178719E-01 0.17405732E+04</pdfrwt>
<pdfrwt beam="2">  1       -1 0.40577451E+00 0.17405732E+04</pdfrwt>
<totfact> 0.82041015E-01</totfact>
</mgrwt>
</event>
<event>
12    7  0.1730932E-007  0.1413004E+04  0.7818608E-02  0.8944459E-01
          2   -1    0    0  501    0  0.00000000000E+00  0.00000000000E+00  0.85722623745E+03  0.85722623745E+03  0.00000000000E+00 0. -1.
         -1   -1    0    0    0  501 -0.00000000000E+00 -0.00000000000E+00 -0.58227930774E+03  0.58227930774E+03  0.00000000000E+00 0.  1.
         24    2    1    2    0    0  0.21358454698E+03 -0.16724300936E+03  0.34793514523E+03  0.44841309355E+03  0.80167663655E+02 0.  0.
        254    2    1    2    0    0 -0.21358454698E+03  0.16724300936E+03 -0.72988215514E+02  0.99109245165E+03  0.95044641365E+03 0.  0.
         23    2    4    4    0    0 -0.50813688491E+03  0.31774985818E+03 -0.17931633224E+03  0.63218197721E+03  0.91277812904E+02 0.  0.
         23    2    4    4    0    0  0.29455233793E+03 -0.15050684882E+03  0.10632811673E+03  0.35891047443E+03  0.89987048691E+02 0.  0.
          2    1    3    3  502    0  0.15313207793E+03 -0.13042806159E+03  0.30584735746E+03  0.36606491037E+03  0.00000000000E+00 0. -1.
         -1    1    3    3    0  502  0.60452469055E+02 -0.36814947766E+02  0.42087787768E+02  0.82348183180E+02  0.00000000000E+00 0.  1.
         13    1    5    5    0    0 -0.13454193501E+03  0.70757479918E+02 -0.86170723069E+02  0.17473850965E+03  0.00000000000E+00 0.  1.
        -13    1    5    5    0    0 -0.37359494990E+03  0.24699237826E+03 -0.93145609172E+02  0.45744346756E+03  0.00000000000E+00 0. -1.
          2    1    6    6  503    0  0.22700199826E+03 -0.70107955299E+02  0.67953856112E+02  0.24710880027E+03  0.00000000000E+00 0. -1.
         -2    1    6    6    0  503  0.67550339669E+02 -0.80398893519E+02  0.38374260615E+02  0.11180167417E+03  0.00000000000E+00 0.  1.
<mgrwt>
<rscale>  0 0.14130040E+04</rscale>
<asrwt>0</asrwt>
<pdfrwt beam="1">  1        2 0.13188096E+00 0.14130040E+04</pdfrwt>
<pdfrwt beam="2">  1       -1 0.89581432E-01 0.14130040E+04</pdfrwt>
<totfact> 0.42514469E+01</totfact>
</mgrwt>
</event>
<event>
12    7  0.1730932E-007  0.1088309E+04  0.7818608E-02  0.9216663E-01
          2   -1    0    0  501    0  0.00000000000E+00  0.00000000000E+00  0.50916502960E+03  0.50916502960E+03  0.00000000000E+00 0. -1.
         -1   -1    0    0    0  501 -0.00000000000E+00 -0.00000000000E+00 -0.58154801204E+03  0.58154801204E+03  0.00000000000E+00 0.  1.
         24    2    1    2    0    0  0.61403275487E+02 -0.22044175715E+02 -0.15718479992E+03  0.19264142171E+03  0.90262661771E+02 0.  0.
        254    2    1    2    0    0 -0.61403275487E+02  0.22044175715E+02  0.84801817482E+02  0.89807161993E+03  0.89167537723E+03 0.  0.
         23    2    4    4    0    0  0.13744552398E+03  0.24768789107E+03  0.36878124075E+03  0.47385022290E+03  0.91070669057E+02 0.  0.
         23    2    4    4    0    0 -0.19884879947E+03 -0.22564371536E+03 -0.28397942327E+03  0.42422139703E+03  0.94146425994E+02 0.  0.
          4    1    3    3  502    0  0.12977375929E+02 -0.44824612139E+02 -0.32244069747E+02  0.56721584721E+02  0.00000000000E+00 0. -1.
         -3    1    3    3    0  502  0.48425899558E+02  0.22780436424E+02 -0.12494073017E+03  0.13591983699E+03  0.00000000000E+00 0.  1.
         13    1    5    5    0    0  0.14452929470E+03  0.18742125009E+03  0.28655876998E+03  0.37166028933E+03  0.00000000000E+00 0. -1.
        -13    1    5    5    0    0 -0.70837707155E+01  0.60266640985E+02  0.82222470774E+02  0.10218993357E+03  0.00000000000E+00 0.  1.
          4    1    6    6  503    0 -0.17344467053E+03 -0.13196117573E+03 -0.20239334350E+03  0.29742204210E+03  0.00000000000E+00 0. -1.
         -4    1    6    6    0  503 -0.25404128940E+02 -0.93682539626E+02 -0.81586079773E+02  0.12679935493E+03  0.00000000000E+00 0.  1.
<mgrwt>
<rscale>  0 0.10883086E+04</rscale>
<asrwt>0</asrwt>
<pdfrwt beam="1">  1        2 0.78333081E-01 0.10883086E+04</pdfrwt>
<pdfrwt beam="2">  1       -1 0.89468925E-01 0.10883086E+04</pdfrwt>
<totfact> 0.83879217E+01</totfact>
</mgrwt>
</event>
<event>
12    7  0.1730932E-007  0.3660182E+04  0.7818608E-02  0.8076844E-01
          2   -1    0    0  501    0  0.00000000000E+00  0.00000000000E+00  0.28816043301E+04  0.28816043301E+04  0.00000000000E+00 0. -1.
         -1   -1    0    0    0  501 -0.00000000000E+00 -0.00000000000E+00 -0.11622804217E+04  0.11622804217E+04  0.00000000000E+00 0.  1.
         24    2    1    2    0    0 -0.65544817647E+03 -0.11825244481E+04 -0.36162922351E+03  0.14018746751E+04  0.80625845073E+02 0.  0.
        254    2    1    2    0    0  0.65544817647E+03  0.11825244481E+04  0.20809531320E+04  0.26420100767E+04  0.90657317721E+03 0.  0.
         23    2    4    4    0    0 -0.70930498135E+02 -0.66103119434E+02  0.40787902993E+03  0.42973390551E+03  0.94367200485E+02 0.  0.
         23    2    4    4    0    0  0.72637867460E+03  0.12486275675E+04  0.16730741020E+04  0.22122761712E+04  0.91061108204E+02 0.  0.
          4    1    3    3  502    0 -0.36495151926E+03 -0.71779885224E+03 -0.24323829990E+03  0.84118349616E+03  0.00000000000E+00 0. -1.
         -3    1    3    3    0  502 -0.29049665721E+03 -0.46472559587E+03 -0.11839092361E+03  0.56069117891E+03  0.00000000000E+00 0.  1.
         13    1    5    5    0    0 -0.19150369625E+02 -0.76218561417E+02  0.29234433446E+03  0.30272300152E+03  0.00000000000E+00 0. -1.
        -13    1    5    5    0    0 -0.51780128510E+02  0.10115441983E+02  0.11553469547E+03  0.12701090399E+03  0.00000000000E+00 0.  1.
          1    1    6    6  503    0  0.68020564540E+03  0.12054262968E+04  0.15952724571E+04  0.21120195287E+04  0.00000000000E+00 0. -1.
         -1    1    6    6    0  503  0.46173029208E+02  0.43201270739E+02  0.77801644940E+02  0.10025664255E+03  0.00000000000E+00 0.  1.
<mgrwt>
<rscale>  0 0.36601816E+04</rscale>
<asrwt>0</asrwt>
<pdfrwt beam="1">  1        2 0.44332374E+00 0.36601816E+04</pdfrwt>
<pdfrwt beam="2">  1       -1 0.17881237E+00 0.36601816E+04</pdfrwt>
<totfact> 0.40296297E-01</totfact>
</mgrwt>
</event>
<event>
12    7  0.1730932E-007  0.1893357E+04  0.7818608E-02  0.8658170E-01
         -1   -1    0    0    0  501 -0.00000000000E+00  0.00000000000E+00  0.32828921317E+03  0.32828921317E+03  0.00000000000E+00 0.  1.
          2   -1    0    0  501    0  0.00000000000E+00 -0.00000000000E+00 -0.27299098614E+04  0.27299098614E+04  0.00000000000E+00 0. -1.
         24    2    1    2    0    0 -0.64619283929E+03 -0.27592274882E+03 -0.63664051572E+03  0.95147006481E+03  0.79281707218E+02 0.  0.
        254    2    1    2    0    0  0.64619283929E+03  0.27592274882E+03 -0.17649801325E+04  0.21067290098E+04  0.91074348943E+03 0.  0.
         23    2    4    4    0    0  0.81986065835E+03  0.31645358235E+03 -0.10918969687E+04  0.14045411529E+04  0.90457122855E+02 0.  0.
         23    2    4    4    0    0 -0.17366781905E+03 -0.40530833533E+02 -0.67308316382E+03  0.70218785686E+03  0.90683962529E+02 0.  0.
          4    1    3    3  502    0 -0.22337163563E+03 -0.10032588241E+03 -0.27353662377E+03  0.36712730058E+03  0.00000000000E+00 0. -1.
         -3    1    3    3    0  502 -0.42282120367E+03 -0.17559686641E+03 -0.36310389195E+03  0.58434276424E+03  0.00000000000E+00 0.  1.
         13    1    5    5    0    0  0.91507951932E+02  0.67271522005E+02 -0.14696832277E+03  0.18573866274E+03  0.00000000000E+00 0. -1.
        -13    1    5    5    0    0  0.72835270642E+03  0.24918206035E+03 -0.94492864594E+03  0.12188024902E+04  0.00000000000E+00 0.  1.
          2    1    6    6  503    0 -0.30168893965E+02 -0.40463655180E+02 -0.10868245122E+03  0.11983048342E+03  0.00000000000E+00 0. -1.
         -2    1    6    6    0  503 -0.14349892509E+03 -0.67178353381E-01 -0.56440071260E+03  0.58235737344E+03  0.00000000000E+00 0.  1.
<mgrwt>
<rscale>  0 0.18933568E+04</rscale>
<asrwt>0</asrwt>
<pdfrwt beam="1">  1        2 0.41998614E+00 0.18933568E+04</pdfrwt>
<pdfrwt beam="2">  1       -1 0.50506031E-01 0.18933568E+04</pdfrwt>
<totfact> 0.10722763E+01</totfact>
</mgrwt>
</event>
<event>
12    7  0.1730932E-007  0.1912033E+04  0.7818608E-02  0.8648890E-01
          2   -1    0    0  501    0  0.00000000000E+00  0.00000000000E+00  0.15955751367E+04  0.15955751367E+04  0.00000000000E+00 0. -1.
         -1   -1    0    0    0  501 -0.00000000000E+00 -0.00000000000E+00 -0.57281393415E+03  0.57281393415E+03  0.00000000000E+00 0.  1.
         24    2    1    2    0    0  0.24631657614E+03  0.14293172622E+03  0.11695029571E+04  0.12066159751E+04  0.84164188042E+02 0.  0.
        254    2    1    2    0    0 -0.24631657614E+03 -0.14293172622E+03 -0.14674175458E+03  0.96177309578E+03  0.90684784346E+03 0.  0.
         23    2    4    4    0    0  0.15711321501E+03 -0.76945491857E+02 -0.41848289258E+03  0.46235491153E+03  0.89660257552E+02 0.  0.
         23    2    4    4    0    0 -0.40342979115E+03 -0.65986234367E+02  0.27174113800E+03  0.49941818425E+03  0.92008136399E+02 0.  0.
          2    1    3    3  502    0  0.20415492625E+03  0.14625638259E+03  0.92517930216E+03  0.95865890936E+03  0.00000000000E+00 0. -1.
         -1    1    3    3    0  502  0.42161649891E+02 -0.33246563700E+01  0.24432365498E+03  0.24795706572E+03  0.00000000000E+00 0.  1.
         13    1    5    5    0    0  0.16724735099E+03 -0.76873696236E+02 -0.37543236764E+03  0.41812761719E+03  0.00000000000E+00 0.  1.
        -13    1    5    5    0    0 -0.10134135982E+02 -0.71795620748E-01 -0.43050524940E+02  0.44227294337E+02  0.00000000000E+00 0. -1.
          1    1    6    6  503    0 -0.23906275092E+03  0.65427136186E+01  0.14738709984E+03  0.28092127576E+03  0.00000000000E+00 0. -1.
         -1    1    6    6    0  503 -0.16436704023E+03 -0.72528947986E+02  0.12435403816E+03  0.21849690849E+03  0.00000000000E+00 0.  1.
<mgrwt>
<rscale>  0 0.19120331E+04</rscale>
<asrwt>0</asrwt>
<pdfrwt beam="1">  1        2 0.24547310E+00 0.19120331E+04</pdfrwt>
<pdfrwt beam="2">  1       -1 0.88125221E-01 0.19120331E+04</pdfrwt>
<totfact> 0.15126253E+01</totfact>
</mgrwt>
</event>
<event>
12    7  0.1730932E-007  0.2206573E+04  0.7818608E-02  0.8515697E-01
          2   -1    0    0  501    0  0.00000000000E+00  0.00000000000E+00  0.38343843829E+04  0.38343843829E+04  0.00000000000E+00 0. -1.
         -1   -1    0    0    0  501 -0.00000000000E+00 -0.00000000000E+00 -0.31745417410E+03  0.31745417410E+03  0.00000000000E+00 0.  1.
         24    2    1    2    0    0 -0.33061256207E+03  0.17867299260E+03  0.31564058833E+04  0.31796947929E+04  0.79574944919E+02 0.  0.
        254    2    1    2    0    0  0.33061256207E+03 -0.17867299260E+03  0.36052432559E+03  0.97214376411E+03  0.82088793649E+03 0.  0.
         23    2    4    4    0    0  0.30419409276E+02 -0.81025439018E+02  0.56849757210E+03  0.58242779793E+03  0.92423958447E+02 0.  0.
         23    2    4    4    0    0  0.30019315279E+03 -0.97647553580E+02 -0.20797324651E+03  0.38971596618E+03  0.94734836918E+02 0.  0.
          4    1    3    3  502    0 -0.14418178394E+03  0.33991909576E+02  0.12317353526E+04  0.12406110654E+04  0.00000000000E+00 0. -1.
         -3    1    3    3    0  502 -0.18643077812E+03  0.14468108302E+03  0.19246705306E+04  0.19390837275E+04  0.00000000000E+00 0.  1.
         13    1    5    5    0    0  0.46164816224E+02 -0.88225189584E+02  0.53983957583E+03  0.54894593720E+03  0.00000000000E+00 0.  1.
        -13    1    5    5    0    0 -0.15745406948E+02  0.71997505659E+01  0.28657996269E+02  0.33481860736E+02  0.00000000000E+00 0. -1.
          3    1    6    6  503    0  0.53349275554E+02 -0.38428874342E+02 -0.85529320155E+02  0.10788043470E+03  0.00000000000E+00 0. -1.
         -3    1    6    6    0  503  0.24684387724E+03 -0.59218679238E+02 -0.12244392636E+03  0.28183553147E+03  0.00000000000E+00 0.  1.
<mgrwt>
<rscale>  0 0.22065732E+04</rscale>
<asrwt>0</asrwt>
<pdfrwt beam="1">  1        2 0.58990526E+00 0.22065732E+04</pdfrwt>
<pdfrwt beam="2">  1       -1 0.48839106E-01 0.22065732E+04</pdfrwt>
<totfact> 0.20284372E+00</totfact>
</mgrwt>
</event>
<event>
12    7  0.1730932E-007  0.1574514E+04  0.7818608E-02  0.8836360E-01
          2   -1    0    0  501    0  0.00000000000E+00  0.00000000000E+00  0.63457593239E+03  0.63457593239E+03  0.00000000000E+00 0. -1.
         -1   -1    0    0    0  501 -0.00000000000E+00 -0.00000000000E+00 -0.97667371546E+03  0.97667371546E+03  0.00000000000E+00 0.  1.
         24    2    1    2    0    0  0.30792981377E+03  0.41322801885E+03 -0.22541274389E+03  0.56857716649E+03  0.83011585792E+02 0.  0.
        254    2    1    2    0    0 -0.30792981377E+03 -0.41322801885E+03 -0.11668503918E+03  0.10426724814E+04  0.89887281595E+03 0.  0.
         23    2    4    4    0    0 -0.21460556912E+03 -0.59472152077E+03  0.18626013028E+03  0.66534596786E+03  0.90791977879E+02 0.  0.
         23    2    4    4    0    0 -0.93324244641E+02  0.18149350192E+03 -0.30294516946E+03  0.37732651350E+03  0.94605582363E+02 0.  0.
          2    1    3    3  502    0  0.15403604070E+03  0.26590641902E+03 -0.11082289246E+03  0.32667267869E+03  0.00000000000E+00 0. -1.
         -1    1    3    3    0  502  0.15389377306E+03  0.14732159983E+03 -0.11458985143E+03  0.24190448779E+03  0.00000000000E+00 0.  1.
         13    1    5    5    0    0 -0.97666815046E+01 -0.38220041236E+02  0.36454971897E+02  0.53713355841E+02  0.00000000000E+00 0. -1.
        -13    1    5    5    0    0 -0.20483888762E+03 -0.55650147954E+03  0.14980515839E+03  0.61163261202E+03  0.00000000000E+00 0.  1.
          1    1    6    6  503    0 -0.28663561529E+02  0.13575274125E+02 -0.95030784890E+01  0.33108855732E+02  0.00000000000E+00 0. -1.
         -1    1    6    6    0  503 -0.64660683112E+02  0.16791822780E+03 -0.29344209097E+03  0.34421765777E+03  0.00000000000E+00 0.  1.
<mgrwt>
<rscale>  0 0.15745141E+04</rscale>
<asrwt>0</asrwt>
<pdfrwt beam="1">  1        2 0.97627067E-01 0.15745141E+04</pdfrwt>
<pdfrwt beam="2">  1       -1 0.15025749E+00 0.15745141E+04</pdfrwt>
<totfact> 0.17656463E+01</totfact>
</mgrwt>
</event>
<event>
12    7  0.1730932E-007  0.1348714E+04  0.7818608E-02  0.8991802E-01
         -1   -1    0    0    0  501 -0.00000000000E+00  0.00000000000E+00  0.23438865029E+03  0.23438865029E+03  0.00000000000E+00 0.  1.
          2   -1    0    0  501    0  0.00000000000E+00 -0.00000000000E+00 -0.19401856844E+04  0.19401856844E+04  0.00000000000E+00 0. -1.
         24    2    1    2    0    0  0.18842675271E+03 -0.51979268187E-01  0.27967354454E+02  0.20724850387E+03  0.81640220481E+02 0.  0.
        254    2    1    2    0    0 -0.18842675271E+03  0.51979268187E-01 -0.17337643886E+04  0.19673258308E+04  0.91045446109E+03 0.  0.
         23    2    4    4    0    0 -0.10319039041E+03  0.32208587713E+03 -0.21749616347E+03  0.41232152643E+03  0.91196990737E+02 0.  0.
         23    2    4    4    0    0 -0.85236362304E+02 -0.32203389786E+03 -0.15162682251E+04  0.15550043044E+04  0.89431467589E+02 0.  0.
          2    1    3    3  502    0  0.43531232969E+02  0.35024797870E+02  0.18903469708E+01  0.55904186975E+02  0.00000000000E+00 0. -1.
         -3    1    3    3    0  502  0.14489551974E+03 -0.35076777138E+02  0.26077007483E+02  0.15134431689E+03  0.00000000000E+00 0.  1.
         13    1    5    5    0    0 -0.84401539726E+02  0.31110236495E+03 -0.22021567043E+03  0.39038857935E+03  0.00000000000E+00 0. -1.
        -13    1    5    5    0    0 -0.18788850683E+02  0.10983512181E+02  0.27195069574E+01  0.21932947087E+02  0.00000000000E+00 0.  1.
          3    1    6    6  503    0 -0.29564138893E+02 -0.66486283249E+02 -0.19578060655E+03  0.20886481291E+03  0.00000000000E+00 0. -1.
         -3    1    6    6    0  503 -0.55672223411E+02 -0.25554761461E+03 -0.13204876186E+04  0.13461394915E+04  0.00000000000E+00 0.  1.
<mgrwt>
<rscale>  0 0.13487142E+04</rscale>
<asrwt>0</asrwt>
<pdfrwt beam="1">  1        2 0.29849010E+00 0.13487142E+04</pdfrwt>
<pdfrwt beam="2">  1       -1 0.36059792E-01 0.13487142E+04</pdfrwt>
<totfact> 0.59060689E+01</totfact>
</mgrwt>
</event>
<event>
12    7  0.1730932E-007  0.2601671E+04  0.7818608E-02  0.8367634E-01
         -1   -1    0    0    0  501 -0.00000000000E+00  0.00000000000E+00  0.75992206367E+03  0.75992206367E+03  0.00000000000E+00 0.  1.
          2   -1    0    0  501    0  0.00000000000E+00 -0.00000000000E+00 -0.22267718875E+04  0.22267718875E+04  0.00000000000E+00 0. -1.
         24    2    1    2    0    0 -0.61552066405E+03  0.92223203004E+03 -0.96510442236E+03  0.14721891055E+04  0.80849311120E+02 0.  0.
        254    2    1    2    0    0  0.61552066405E+03 -0.92223203004E+03 -0.50174540149E+03  0.15145048457E+04  0.90144266301E+03 0.  0.
         23    2    4    4    0    0  0.54529168910E+03 -0.10383467688E+04 -0.60448191576E+03  0.13221184223E+04  0.84212217074E+02 0.  0.
         23    2    4    4    0    0  0.70228974950E+02  0.11611473881E+03  0.10273651426E+03  0.19238642343E+03  0.89682791362E+02 0.  0.
          2    1    3    3  502    0 -0.18203212641E+03  0.32523291607E+03 -0.29160754858E+03  0.47323050106E+03  0.00000000000E+00 0. -1.
         -1    1    3    3    0  502 -0.43348853764E+03  0.59699911397E+03 -0.67349687378E+03  0.99895860442E+03  0.00000000000E+00 0.  1.
         13    1    5    5    0    0  0.11827674154E+03 -0.20847431060E+03 -0.16160081698E+03  0.28907741146E+03  0.00000000000E+00 0. -1.
        -13    1    5    5    0    0  0.42701494756E+03 -0.82987245825E+03 -0.44288109878E+03  0.10330410108E+04  0.00000000000E+00 0.  1.
          2    1    6    6  503    0  0.21376625699E+02  0.26475314054E+02  0.81214856729E+02  0.88055410590E+02  0.00000000000E+00 0. -1.
         -2    1    6    6    0  503  0.48852349251E+02  0.89639424753E+02  0.21521657535E+02  0.10433101284E+03  0.00000000000E+00 0.  1.
<mgrwt>
<rscale>  0 0.26016711E+04</rscale>
<asrwt>0</asrwt>
<pdfrwt beam="1">  1        2 0.34258029E+00 0.26016711E+04</pdfrwt>
<pdfrwt beam="2">  1       -1 0.11691109E+00 0.26016711E+04</pdfrwt>
<totfact> 0.33093918E+00</totfact>
</mgrwt>
</event>
<event>
12    7  0.1730932E-007  0.1860080E+04  0.7818608E-02  0.8674987E-01
         -1   -1    0    0    0  501 -0.00000000000E+00  0.00000000000E+00  0.80193218363E+03  0.80193218363E+03  0.00000000000E+00 0.  1.
          2   -1    0    0  501    0  0.00000000000E+00 -0.00000000000E+00 -0.10786124027E+04  0.10786124027E+04  0.00000000000E+00 0. -1.
         24    2    1    2    0    0 -0.13936956607E+02  0.68950217086E+03  0.60615198889E+02  0.69693011319E+03  0.80186644485E+02 0.  0.
        254    2    1    2    0    0  0.13936956607E+02 -0.68950217086E+03 -0.33729541793E+03  0.11836144731E+04  0.90087043440E+03 0.  0.
         23    2    4    4    0    0  0.34408158289E+02  0.15557274201E+03 -0.27668829354E+03  0.33126546548E+03  0.88281353765E+02 0.  0.
         23    2    4    4    0    0 -0.20471201682E+02 -0.84507491288E+03 -0.60607124382E+02  0.85234900761E+03  0.90856638597E+02 0.  0.
          2    1    3    3  502    0 -0.44468131491E+02  0.27003717690E+03  0.27569879922E+02  0.27505924799E+03  0.00000000000E+00 0. -1.
         -1    1    3    3    0  502  0.30531174884E+02  0.41946499397E+03  0.33045318968E+02  0.42187086520E+03  0.00000000000E+00 0.  1.
         13    1    5    5    0    0 -0.12173454441E+02  0.12494633464E+03 -0.20602290122E+03  0.24125757058E+03  0.00000000000E+00 0.  1.
        -13    1    5    5    0    0  0.46581612730E+02  0.30626407372E+02 -0.70665392320E+02  0.90007894902E+02  0.00000000000E+00 0. -1.
          1    1    6    6  503    0  0.23164907841E+01  0.15279950130E+01  0.15194968461E+01  0.31638218941E+01  0.00000000000E+00 0. -1.
         -1    1    6    6    0  503 -0.22787692466E+02 -0.84660290789E+03 -0.62126621228E+02  0.84918518572E+03  0.00000000000E+00 0.  1.
<mgrwt>
<rscale>  0 0.18600796E+04</rscale>
<asrwt>0</asrwt>
<pdfrwt beam="1">  1        2 0.16594037E+00 0.18600796E+04</pdfrwt>
<pdfrwt beam="2">  1       -1 0.12337418E+00 0.18600796E+04</pdfrwt>
<totfact> 0.13918275E+01</totfact>
</mgrwt>
</event>
<event>
12    7  0.1730932E-007  0.1539476E+04  0.7818608E-02  0.8858618E-01
         -1   -1    0    0    0  501 -0.00000000000E+00  0.00000000000E+00  0.55566653913E+03  0.55566653913E+03  0.00000000000E+00 0.  1.
          2   -1    0    0  501    0  0.00000000000E+00 -0.00000000000E+00 -0.10662803269E+04  0.10662803269E+04  0.00000000000E+00 0. -1.
         24    2    1    2    0    0 -0.46408741598E+03 -0.46356351632E+02 -0.37181674056E+03  0.60151369671E+03  0.77749583689E+02 0.  0.
        254    2    1    2    0    0  0.46408741598E+03  0.46356351632E+02 -0.13879704722E+03  0.10204331693E+04  0.89693544457E+03 0.  0.
         23    2    4    4    0    0  0.58585531685E+03  0.33777683903E+03 -0.81007839385E+02  0.68729100394E+03  0.92124962856E+02 0.  0.
         23    2    4    4    0    0 -0.12176790087E+03 -0.29142048740E+03 -0.57789207832E+02  0.33314216538E+03  0.88830105556E+02 0.  0.
          4    1    3    3  502    0 -0.24861754938E+03 -0.18387276452E+02 -0.24699239196E+03  0.35093306980E+03  0.00000000000E+00 0. -1.
         -3    1    3    3    0  502 -0.21546986660E+03 -0.27969075180E+02 -0.12482434860E+03  0.25058062691E+03  0.00000000000E+00 0.  1.
         13    1    5    5    0    0  0.26817319094E+03  0.18530065900E+03 -0.11067126126E+01  0.32596689920E+03  0.00000000000E+00 0.  1.
        -13    1    5    5    0    0  0.31768212592E+03  0.15247618004E+03 -0.79901126772E+02  0.36132410474E+03  0.00000000000E+00 0. -1.
          3    1    6    6  503    0 -0.11393737907E+03 -0.27728302577E+03 -0.75525917756E+02  0.30914683725E+03  0.00000000000E+00 0.  1.
         -3    1    6    6    0  503 -0.78305218076E+01 -0.14137461626E+02  0.17736709924E+02  0.23995328128E+02  0.00000000000E+00 0. -1.
<mgrwt>
<rscale>  0 0.15394756E+04</rscale>
<asrwt>0</asrwt>
<pdfrwt beam="1">  1        2 0.16404313E+00 0.15394756E+04</pdfrwt>
<pdfrwt beam="2">  1       -1 0.85487161E-01 0.15394756E+04</pdfrwt>
<totfact> 0.33979633E+01</totfact>
</mgrwt>
</event>
<event>
12    7  0.1730932E-007  0.1383801E+04  0.7818608E-02  0.8965628E-01
         -1   -1    0    0    0  501 -0.00000000000E+00  0.00000000000E+00  0.62764404985E+03  0.62764404985E+03  0.00000000000E+00 0.  1.
          2   -1    0    0  501    0  0.00000000000E+00 -0.00000000000E+00 -0.76273531145E+03  0.76273531145E+03  0.00000000000E+00 0. -1.
         24    2    1    2    0    0  0.25300021034E+03 -0.17880275936E+03 -0.28746109135E+03  0.42993492028E+03  0.78934298275E+02 0.  0.
        254    2    1    2    0    0 -0.25300021034E+03  0.17880275936E+03  0.15236982975E+03  0.96044444102E+03  0.89624629767E+03 0.  0.
         23    2    4    4    0    0 -0.48049112695E+03 -0.13359970881E+03  0.22596992103E+03  0.55634358994E+03  0.98667013704E+02 0.  0.
         23    2    4    4    0    0  0.22749091660E+03  0.31240246817E+03 -0.73600091274E+02  0.40410085108E+03  0.92374807977E+02 0.  0.
          4    1    3    3  502    0  0.10978582758E+03 -0.11125049901E+03 -0.18090695816E+03  0.23907515341E+03  0.00000000000E+00 0. -1.
         -3    1    3    3    0  502  0.14321438276E+03 -0.67552260352E+02 -0.10655413319E+03  0.19085976687E+03  0.00000000000E+00 0.  1.
         13    1    5    5    0    0 -0.35559256214E+03 -0.11709171228E+03  0.21027284094E+03  0.42938468414E+03  0.00000000000E+00 0. -1.
        -13    1    5    5    0    0 -0.12489856481E+03 -0.16507996526E+02  0.15697080087E+02  0.12695890581E+03  0.00000000000E+00 0.  1.
          4    1    6    6  503    0  0.13287752859E+03  0.17060732512E+03  0.51886859969E+01  0.21631047004E+03  0.00000000000E+00 0.  1.
         -4    1    6    6    0  503  0.94613388017E+02  0.14179514306E+03 -0.78788777271E+02  0.18779038104E+03  0.00000000000E+00 0. -1.
<mgrwt>
<rscale>  0 0.13838010E+04</rscale>
<asrwt>0</asrwt>
<pdfrwt beam="1">  1        2 0.11734389E+00 0.13838010E+04</pdfrwt>
<pdfrwt beam="2">  1       -1 0.96560623E-01 0.13838010E+04</pdfrwt>
<totfact> 0.42150315E+01</totfact>
</mgrwt>
</event>
<event>
12    7  0.1730932E-007  0.2961670E+04  0.7818608E-02  0.8254762E-01
         -1   -1    0    0    0  501 -0.00000000000E+00  0.00000000000E+00  0.22761664263E+04  0.22761664263E+04  0.00000000000E+00 0.  1.
          2   -1    0    0  501    0  0.00000000000E+00 -0.00000000000E+00 -0.96340574887E+03  0.96340574887E+03  0.00000000000E+00 0. -1.
         24    2    1    2    0    0  0.78199027933E+02 -0.18235868451E+03  0.20496114084E+04  0.20607114281E+04  0.79087841475E+02 0.  0.
        254    2    1    2    0    0 -0.78199027933E+02  0.18235868451E+03 -0.73685073101E+03  0.11788607470E+04  0.89855099092E+03 0.  0.
         23    2    4    4    0    0 -0.94042688989E+02  0.41420672447E+03 -0.80872166652E+03  0.91809358748E+03  0.91944894023E+02 0.  0.
         23    2    4    4    0    0  0.15843661055E+02 -0.23184803996E+03  0.71870935501E+02  0.26076715954E+03  0.93965658074E+02 0.  0.
          2    1    3    3  502    0  0.47994903210E+02 -0.36648356969E+02  0.41984562429E+03  0.42416619507E+03  0.00000000000E+00 0. -1.
         -1    1    3    3    0  502  0.30204124723E+02 -0.14571032754E+03  0.16297657841E+04  0.16365452331E+04  0.00000000000E+00 0.  1.
         13    1    5    5    0    0 -0.11244928562E+03  0.36965357861E+03 -0.71980137637E+03  0.81694714115E+03  0.00000000000E+00 0. -1.
        -13    1    5    5    0    0  0.18406596628E+02  0.44553145859E+02 -0.88920290147E+02  0.10114644633E+03  0.00000000000E+00 0.  1.
          3    1    6    6  503    0 -0.11615915703E+02 -0.20919033876E+03  0.79971758205E+02  0.22425657056E+03  0.00000000000E+00 0. -1.
         -3    1    6    6    0  503  0.27459576758E+02 -0.22657701195E+02 -0.81008227044E+01  0.36510588980E+02  0.00000000000E+00 0.  1.
<mgrwt>
<rscale>  0 0.29616697E+04</rscale>
<asrwt>0</asrwt>
<pdfrwt beam="1">  1        2 0.14821627E+00 0.29616697E+04</pdfrwt>
<pdfrwt beam="2">  1       -1 0.35017945E+00 0.29616697E+04</pdfrwt>
<totfact> 0.40336443E-01</totfact>
</mgrwt>
</event>
<event>
12    7  0.1730932E-007  0.1607106E+04  0.7818608E-02  0.8816195E-01
          2   -1    0    0  501    0  0.00000000000E+00  0.00000000000E+00  0.32742387231E+04  0.32742387231E+04  0.00000000000E+00 0. -1.
         -1   -1    0    0    0  501 -0.00000000000E+00 -0.00000000000E+00 -0.19720527808E+03  0.19720527808E+03  0.00000000000E+00 0.  1.
         24    2    1    2    0    0  0.74926426852E+02  0.29527688847E+03  0.73522760699E+02  0.32315674103E+03  0.78881383283E+02 0.  0.
        254    2    1    2    0    0 -0.74926426852E+02 -0.29527688847E+03  0.30035106843E+04  0.31482872602E+04  0.89321544507E+03 0.  0.
         23    2    4    4    0    0 -0.96026668772E+02 -0.40270756410E+03  0.29714316144E+04  0.30015604603E+04  0.92546500572E+02 0.  0.
         23    2    4    4    0    0  0.21100241920E+02  0.10743067563E+03  0.32079069930E+02  0.14672679981E+03  0.92266552877E+02 0.  0.
          2    1    3    3  502    0  0.43338312577E+02  0.12092932887E+03 -0.67446706567E+01  0.12863748482E+03  0.00000000000E+00 0. -1.
         -1    1    3    3    0  502  0.31588114275E+02  0.17434755960E+03  0.80267431356E+02  0.19451925621E+03  0.00000000000E+00 0.  1.
         13    1    5    5    0    0 -0.11074214642E+03 -0.37925349102E+03  0.28297948745E+04  0.28572427382E+04  0.00000000000E+00 0.  1.
        -13    1    5    5    0    0  0.14715477651E+02 -0.23454073079E+02  0.14163673989E+03  0.14431772211E+03  0.00000000000E+00 0. -1.
          3    1    6    6  503    0  0.18051015965E+02  0.13159539982E+02  0.46236243599E+02  0.51349809076E+02  0.00000000000E+00 0. -1.
         -3    1    6    6    0  503  0.30492259551E+01  0.94271135653E+02 -0.14157173669E+02  0.95376990739E+02  0.00000000000E+00 0.  1.
<mgrwt>
<rscale>  0 0.16071057E+04</rscale>
<asrwt>0</asrwt>
<pdfrwt beam="1">  1        2 0.50372899E+00 0.16071057E+04</pdfrwt>
<pdfrwt beam="2">  1       -1 0.30339276E-01 0.16071057E+04</pdfrwt>
<totfact> 0.12762117E+01</totfact>
</mgrwt>
</event>
<event>
12    7  0.1730932E-007  0.1766502E+04  0.7818608E-02  0.8724319E-01
         -1   -1    0    0    0  501 -0.00000000000E+00  0.00000000000E+00  0.14601314911E+04  0.14601314911E+04  0.00000000000E+00 0.  1.
          2   -1    0    0  501    0  0.00000000000E+00 -0.00000000000E+00 -0.53428882030E+03  0.53428882030E+03  0.00000000000E+00 0. -1.
         24    2    1    2    0    0 -0.12123573791E+03  0.38155642345E+03  0.92717561761E+03  0.10132709255E+04  0.82340355025E+02 0.  0.
        254    2    1    2    0    0  0.12123573791E+03 -0.38155642345E+03 -0.13329468201E+01  0.98114938593E+03  0.89575048554E+03 0.  0.
         23    2    4    4    0    0  0.40405403558E+03 -0.55602841391E+02  0.23647907980E+03  0.48019638812E+03  0.91185943790E+02 0.  0.
         23    2    4    4    0    0 -0.28281829767E+03 -0.32595358206E+03 -0.23781202662E+03  0.50095299781E+03  0.90373773057E+02 0.  0.
          4    1    3    3  502    0 -0.37471964048E+02  0.56647817262E+02  0.10262041336E+03  0.12306125519E+03  0.00000000000E+00 0. -1.
         -3    1    3    3    0  502 -0.83763773860E+02  0.32490860619E+03  0.82455520426E+03  0.89020967028E+03  0.00000000000E+00 0.  1.
         13    1    5    5    0    0  0.11781482543E+03 -0.59016237015E+01  0.11675331901E+03  0.16597138233E+03  0.00000000000E+00 0.  1.
        -13    1    5    5    0    0  0.28623921015E+03 -0.49701217690E+02  0.11972576078E+03  0.31422500579E+03  0.00000000000E+00 0. -1.
          1    1    6    6  503    0 -0.17420274550E+03 -0.19961070818E+03 -0.19489978041E+03  0.32890265393E+03  0.00000000000E+00 0. -1.
         -1    1    6    6    0  503 -0.10861555217E+03 -0.12634287388E+03 -0.42912246206E+02  0.17205034388E+03  0.00000000000E+00 0.  1.
<mgrwt>
<rscale>  0 0.17665016E+04</rscale>
<asrwt>0</asrwt>
<pdfrwt beam="1">  1        2 0.82198281E-01 0.17665016E+04</pdfrwt>
<pdfrwt beam="2">  1       -1 0.22463561E+00 0.17665016E+04</pdfrwt>
<totfact> 0.63137784E+00</totfact>
</mgrwt>
</event>
<event>
12    7  0.1730932E-007  0.1458814E+04  0.7818608E-02  0.8912313E-01
          2   -1    0    0  501    0  0.00000000000E+00  0.00000000000E+00  0.95916080536E+03  0.95916080536E+03  0.00000000000E+00 0. -1.
         -1   -1    0    0    0  501 -0.00000000000E+00 -0.00000000000E+00 -0.55468736754E+03  0.55468736754E+03  0.00000000000E+00 0.  1.
         24    2    1    2    0    0 -0.23806787543E+03  0.83234976920E+01 -0.25992722203E+03  0.36169734001E+03  0.80729245624E+02 0.  0.
        254    2    1    2    0    0  0.23806787543E+03 -0.83234976920E+01  0.66440065984E+03  0.11521508329E+04  0.91064686404E+03 0.  0.
         23    2    4    4    0    0  0.36195332758E+03 -0.22270859163E+03 -0.21872709613E+01  0.43521206824E+03  0.93783964826E+02 0.  0.
         23    2    4    4    0    0 -0.12388545215E+03  0.21438509393E+03  0.66658793081E+03  0.71693876464E+03  0.91395563321E+02 0.  0.
          4    1    3    3  502    0 -0.17088067264E+03  0.40506083263E+02 -0.19941586946E+03  0.26572097406E+03  0.00000000000E+00 0. -1.
         -3    1    3    3    0  502 -0.67187202782E+02 -0.32182585571E+02 -0.60511352569E+02  0.95976365952E+02  0.00000000000E+00 0.  1.
         13    1    5    5    0    0  0.34182859018E+03 -0.17862865068E+03 -0.11543681488E+02  0.38586038471E+03  0.00000000000E+00 0. -1.
        -13    1    5    5    0    0  0.20124737399E+02 -0.44079940944E+02  0.93564105268E+01  0.49351683527E+02  0.00000000000E+00 0.  1.
          3    1    6    6  503    0 -0.62844392776E+02  0.89757295334E+02  0.41922823624E+03  0.43331063203E+03  0.00000000000E+00 0. -1.
         -3    1    6    6    0  503 -0.61041059378E+02  0.12462779860E+03  0.24735969457E+03  0.28362813261E+03  0.00000000000E+00 0.  1.
<mgrwt>
<rscale>  0 0.14588137E+04</rscale>
<asrwt>0</asrwt>
<pdfrwt beam="1">  1        2 0.14756320E+00 0.14588137E+04</pdfrwt>
<pdfrwt beam="2">  1       -1 0.85336518E-01 0.14588137E+04</pdfrwt>
<totfact> 0.40203823E+01</totfact>
</mgrwt>
</event>
<event>
12    7  0.1730932E-007  0.1570106E+04  0.7818608E-02  0.8839127E-01
         -1   -1    0    0    0  501 -0.00000000000E+00  0.00000000000E+00  0.35460652666E+03  0.35460652666E+03  0.00000000000E+00 0.  1.
          2   -1    0    0  501    0  0.00000000000E+00 -0.00000000000E+00 -0.17380056008E+04  0.17380056008E+04  0.00000000000E+00 0. -1.
         24    2    1    2    0    0  0.20765669339E+03  0.44552394665E+03 -0.22184115199E+03  0.54502194516E+03  0.78883044077E+02 0.  0.
        254    2    1    2    0    0 -0.20765669339E+03 -0.44552394665E+03 -0.11615579221E+04  0.15475901823E+04  0.89677515379E+03 0.  0.
         23    2    4    4    0    0  0.32465299561E+03 -0.32363476908E+03 -0.57485604672E+03  0.74095031215E+03  0.91699832702E+02 0.  0.
         23    2    4    4    0    0 -0.53230968900E+03 -0.12188917757E+03 -0.58670187541E+03  0.80663987012E+03  0.90764601283E+02 0.  0.
          4    1    3    3  502    0  0.90364599288E+02  0.17750302808E+03 -0.13210071052E+03  0.23900561396E+03  0.00000000000E+00 0. -1.
         -3    1    3    3    0  502  0.11729209411E+03  0.26802091857E+03 -0.89740441472E+02  0.30601633121E+03  0.00000000000E+00 0.  1.
         13    1    5    5    0    0  0.24741776172E+03 -0.28397307280E+03 -0.50216355973E+03  0.62771370513E+03  0.00000000000E+00 0. -1.
        -13    1    5    5    0    0  0.77235233883E+02 -0.39661696277E+02 -0.72692486990E+02  0.11323660702E+03  0.00000000000E+00 0.  1.
          3    1    6    6  503    0 -0.47247693400E+03 -0.77300204253E+02 -0.50003197928E+03  0.69227289058E+03  0.00000000000E+00 0. -1.
         -3    1    6    6    0  503 -0.59832755005E+02 -0.44588973318E+02 -0.86669896135E+02  0.11436697954E+03  0.00000000000E+00 0.  1.
<mgrwt>
<rscale>  0 0.15701059E+04</rscale>
<asrwt>0</asrwt>
<pdfrwt beam="1">  1        2 0.26738548E+00 0.15701059E+04</pdfrwt>
<pdfrwt beam="2">  1       -1 0.54554850E-01 0.15701059E+04</pdfrwt>
<totfact> 0.34712826E+01</totfact>
</mgrwt>
</event>
<event>
12    7  0.1730932E-007  0.1388989E+04  0.7818608E-02  0.8961827E-01
          2   -1    0    0  501    0  0.00000000000E+00  0.00000000000E+00  0.21081869347E+04  0.21081869347E+04  0.00000000000E+00 0. -1.
         -1   -1    0    0    0  501 -0.00000000000E+00 -0.00000000000E+00 -0.22878556882E+03  0.22878556882E+03  0.00000000000E+00 0.  1.
         24    2    1    2    0    0 -0.24935649479E+03  0.23632662004E+03  0.28390553332E+03  0.45279513115E+03  0.79950898147E+02 0.  0.
        254    2    1    2    0    0  0.24935649479E+03 -0.23632662004E+03  0.15954958325E+04  0.18841773724E+04  0.94153517512E+03 0.  0.
         23    2    4    4    0    0 -0.37198354978E+02  0.31632761668E+02 -0.97972086582E+02  0.14345654734E+03  0.92719480166E+02 0.  0.
         23    2    4    4    0    0  0.28655484976E+03 -0.26795938171E+03  0.16934679191E+04  0.17407208250E+04  0.91430221229E+02 0.  0.
          4    1    3    3  502    0 -0.50099124958E+02  0.32657305886E+02  0.90321068220E+02  0.10832505395E+03  0.00000000000E+00 0. -1.
         -3    1    3    3    0  502 -0.19925736983E+03  0.20366931415E+03  0.19358446510E+03  0.34447007720E+03  0.00000000000E+00 0.  1.
         13    1    5    5    0    0 -0.62398243501E+02  0.17618547638E+02 -0.33833578925E+02  0.73134568268E+02  0.00000000000E+00 0.  1.
        -13    1    5    5    0    0  0.25199888523E+02  0.14014214030E+02 -0.64138507657E+02  0.70321979074E+02  0.00000000000E+00 0. -1.
          3    1    6    6  503    0  0.73201031146E+02 -0.71277875787E+02  0.63631705967E+03  0.64446747549E+03  0.00000000000E+00 0. -1.
         -3    1    6    6    0  503  0.21335381862E+03 -0.19668150592E+03  0.10571508595E+04  0.10962533495E+04  0.00000000000E+00 0.  1.
<mgrwt>
<rscale>  0 0.13889892E+04</rscale>
<asrwt>0</asrwt>
<pdfrwt beam="1">  1        2 0.32433644E+00 0.13889892E+04</pdfrwt>
<pdfrwt beam="2">  1       -1 0.35197781E-01 0.13889892E+04</pdfrwt>
<totfact> 0.49610140E+01</totfact>
</mgrwt>
</event>
<event>
12    7  0.1730932E-007  0.1584614E+04  0.7818608E-02  0.8830056E-01
         -1   -1    0    0    0  501 -0.00000000000E+00  0.00000000000E+00  0.68873745776E+03  0.68873745776E+03  0.00000000000E+00 0.  1.
          2   -1    0    0  501    0  0.00000000000E+00 -0.00000000000E+00 -0.91145118148E+03  0.91145118148E+03  0.00000000000E+00 0. -1.
         24    2    1    2    0    0  0.51546400933E+03 -0.13091966110E+03 -0.28347264567E+02  0.53854344182E+03  0.79889728617E+02 0.  0.
        254    2    1    2    0    0 -0.51546400933E+03  0.13091966110E+03 -0.19436645915E+03  0.10616451974E+04  0.89803624770E+03 0.  0.
         23    2    4    4    0    0 -0.31783896426E+03  0.47496286021E+03 -0.28497959296E+03  0.64484425664E+03  0.89439483083E+02 0.  0.
         23    2    4    4    0    0 -0.19762504506E+03 -0.34404319911E+03  0.90613133804E+02  0.41680094078E+03  0.89949446491E+02 0.  0.
          4    1    3    3  502    0  0.39895760753E+02 -0.65896432927E+01  0.19074715357E+02  0.44709505597E+02  0.00000000000E+00 0. -1.
         -3    1    3    3    0  502  0.47556824858E+03 -0.12433001781E+03 -0.47421979924E+02  0.49383393622E+03  0.00000000000E+00 0.  1.
         13    1    5    5    0    0  0.38809130846E+01 -0.39847466648E+00  0.20283948936E+00  0.39065857585E+01  0.00000000000E+00 0. -1.
        -13    1    5    5    0    0 -0.32171987735E+03  0.47536133488E+03 -0.28518243245E+03  0.64093767088E+03  0.00000000000E+00 0.  1.
          1    1    6    6  503    0  0.68788669398E+01 -0.34653348298E+02  0.14243674775E+01  0.35358198220E+02  0.00000000000E+00 0. -1.
         -1    1    6    6    0  503 -0.20450391200E+03 -0.30938985081E+03  0.89188766327E+02  0.38144274256E+03  0.00000000000E+00 0.  1.
<mgrwt>
<rscale>  0 0.15846142E+04</rscale>
<asrwt>0</asrwt>
<pdfrwt beam="1">  1        2 0.14022326E+00 0.15846142E+04</pdfrwt>
<pdfrwt beam="2">  1       -1 0.10595961E+00 0.15846142E+04</pdfrwt>
<totfact> 0.26310273E+01</totfact>
</mgrwt>
</event>
<event>
12    7  0.1730932E-007  0.2002141E+04  0.7818608E-02  0.8605620E-01
          2   -1    0    0  501    0  0.00000000000E+00  0.00000000000E+00  0.24510045498E+04  0.24510045498E+04  0.00000000000E+00 0. -1.
         -1   -1    0    0    0  501 -0.00000000000E+00 -0.00000000000E+00 -0.40886985484E+03  0.40886985484E+03  0.00000000000E+00 0.  1.
         24    2    1    2    0    0  0.17949722742E+03  0.39342942567E+03  0.17642457964E+04  0.18182614216E+04  0.80656058368E+02 0.  0.
        254    2    1    2    0    0 -0.17949722742E+03 -0.39342942567E+03  0.27788889865E+03  0.10416129831E+04  0.90594116743E+03 0.  0.
         23    2    4    4    0    0 -0.53269929812E+03 -0.33411547153E+03  0.19181936734E+03  0.66323788459E+03  0.87681989771E+02 0.  0.
         23    2    4    4    0    0  0.35320207070E+03 -0.59313954138E+02  0.86069531309E+02  0.37837509847E+03  0.86544225799E+02 0.  0.
          2    1    3    3  502    0  0.10920855359E+03  0.29884354854E+03  0.13876040223E+04  0.14236147292E+04  0.00000000000E+00 0. -1.
         -1    1    3    3    0  502  0.70288673821E+02  0.94585877134E+02  0.37664177408E+03  0.39464669238E+03  0.00000000000E+00 0.  1.
         13    1    5    5    0    0 -0.18728992726E+03 -0.10066921603E+03  0.10604091169E+03  0.23760572986E+03  0.00000000000E+00 0.  1.
        -13    1    5    5    0    0 -0.34540937085E+03 -0.23344625550E+03  0.85778455646E+02  0.42563215472E+03  0.00000000000E+00 0. -1.
          1    1    6    6  503    0  0.33829391982E+03 -0.66208931532E+02  0.97651757819E+02  0.35827679887E+03  0.00000000000E+00 0. -1.
         -1    1    6    6    0  503  0.14908150880E+02  0.68949773943E+01 -0.11582226510E+02  0.20098299601E+02  0.00000000000E+00 0.  1.
<mgrwt>
<rscale>  0 0.20021407E+04</rscale>
<asrwt>0</asrwt>
<pdfrwt beam="1">  1        2 0.37707762E+00 0.20021407E+04</pdfrwt>
<pdfrwt beam="2">  1       -1 0.62903056E-01 0.20021407E+04</pdfrwt>
<totfact> 0.10076189E+01</totfact>
</mgrwt>
</event>
<event>
12    7  0.1730932E-007  0.1332460E+04  0.7818608E-02  0.9004213E-01
         -1   -1    0    0    0  501 -0.00000000000E+00  0.00000000000E+00  0.16255331260E+03  0.16255331260E+03  0.00000000000E+00 0.  1.
          2   -1    0    0  501    0  0.00000000000E+00 -0.00000000000E+00 -0.27305664346E+04  0.27305664346E+04  0.00000000000E+00 0. -1.
         24    2    1    2    0    0 -0.26624023787E+03  0.22986171077E+03 -0.67431484190E+03  0.76466318312E+03  0.79303261422E+02 0.  0.
        254    2    1    2    0    0  0.26624023787E+03 -0.22986171077E+03 -0.18936982801E+04  0.21284565641E+04  0.90582222252E+03 0.  0.
         23    2    4    4    0    0 -0.12325037607E+03 -0.22845468338E+02  0.24038208986E+02  0.15853898759E+03  0.94043630681E+02 0.  0.
         23    2    4    4    0    0  0.38949061394E+03 -0.20701624243E+03 -0.19177364891E+04  0.19699175765E+04  0.91122739284E+02 0.  0.
          2    1    3    3  502    0 -0.61007175431E+02  0.47593813856E+02 -0.22722547744E+03  0.24003846394E+03  0.00000000000E+00 0. -1.
         -1    1    3    3    0  502 -0.20523306244E+03  0.18226789691E+03 -0.44708936446E+03  0.52462471918E+03  0.00000000000E+00 0.  1.
         13    1    5    5    0    0  0.82590192847E+01  0.28797937676E+01  0.22920188076E+02  0.24532420042E+02  0.00000000000E+00 0. -1.
        -13    1    5    5    0    0 -0.13150939535E+03 -0.25725262106E+02  0.11180209102E+01  0.13400656755E+03  0.00000000000E+00 0.  1.
          1    1    6    6  503    0  0.18118252766E+03 -0.53806626268E+02 -0.92029668372E+03  0.93950425620E+03  0.00000000000E+00 0. -1.
         -1    1    6    6    0  503  0.20830808628E+03 -0.15320961616E+03 -0.99743980539E+03  0.10304133203E+04  0.00000000000E+00 0.  1.
<mgrwt>
<rscale>  0 0.13324603E+04</rscale>
<asrwt>0</asrwt>
<pdfrwt beam="1">  1        2 0.42008713E+00 0.13324603E+04</pdfrwt>
<pdfrwt beam="2">  1       -1 0.25008202E-01 0.13324603E+04</pdfrwt>
<totfact> 0.39977715E+01</totfact>
</mgrwt>
</event>
<event>
12    7  0.1730932E-007  0.2265432E+04  0.7818608E-02  0.8491677E-01
          2   -1    0    0  501    0  0.00000000000E+00  0.00000000000E+00  0.30756020621E+04  0.30756020621E+04  0.00000000000E+00 0. -1.
         -1   -1    0    0    0  501 -0.00000000000E+00 -0.00000000000E+00 -0.41716884265E+03  0.41716884265E+03  0.00000000000E+00 0.  1.
         24    2    1    2    0    0 -0.35151920037E+03  0.69472266300E+03  0.27006907330E+03  0.82776890956E+03  0.77837886500E+02 0.  0.
        254    2    1    2    0    0  0.35151920037E+03 -0.69472266300E+03  0.23883641462E+04  0.26650019952E+04  0.88980167061E+03 0.  0.
         23    2    4    4    0    0  0.30550391531E+03  0.13264661910E+03  0.79551544129E+03  0.86733299296E+03  0.92162549415E+02 0.  0.
         23    2    4    4    0    0  0.46015285060E+02 -0.82736928210E+03  0.15928487049E+04  0.17976690022E+04  0.88258198385E+02 0.  0.
          2    1    3    3  502    0 -0.85004565910E+02  0.18648108087E+03  0.36446844866E+02  0.20815701345E+03  0.00000000000E+00 0. -1.
         -1    1    3    3    0  502 -0.26651463446E+03  0.50824158212E+03  0.23362222844E+03  0.61961189611E+03  0.00000000000E+00 0.  1.
         13    1    5    5    0    0  0.28455872226E+03  0.10977610327E+03  0.64264716809E+03  0.71135071654E+03  0.00000000000E+00 0. -1.
        -13    1    5    5    0    0  0.20945193046E+02  0.22870515827E+02  0.15286827320E+03  0.15598227642E+03  0.00000000000E+00 0.  1.
          1    1    6    6  503    0 -0.15407619991E+02 -0.50087904939E+03  0.95922817953E+03  0.10822365348E+04  0.00000000000E+00 0. -1.
         -1    1    6    6    0  503  0.61422905052E+02 -0.32649023271E+03  0.63362052535E+03  0.71543246744E+03  0.00000000000E+00 0.  1.
<mgrwt>
<rscale>  0 0.22654318E+04</rscale>
<asrwt>0</asrwt>
<pdfrwt beam="1">  1        2 0.47316953E+00 0.22654318E+04</pdfrwt>
<pdfrwt beam="2">  1       -1 0.64179824E-01 0.22654318E+04</pdfrwt>
<totfact> 0.39768240E+00</totfact>
</mgrwt>
</event>
<event>
12    7  0.1730932E-007  0.2186486E+04  0.7818608E-02  0.8524074E-01
         -1   -1    0    0    0  501 -0.00000000000E+00  0.00000000000E+00  0.11534577431E+04  0.11534577431E+04  0.00000000000E+00 0.  1.
          2   -1    0    0  501    0  0.00000000000E+00 -0.00000000000E+00 -0.10361712196E+04  0.10361712196E+04  0.00000000000E+00 0. -1.
         24    2    1    2    0    0  0.82397230300E+03 -0.36637727744E+03  0.10335015808E+03  0.91106126593E+03  0.78668351797E+02 0.  0.
        254    2    1    2    0    0 -0.82397230300E+03  0.36637727744E+03  0.13936365340E+02  0.12785676968E+04  0.90629932551E+03 0.  0.
         23    2    4    4    0    0 -0.29761944461E+03  0.36757925139E+03 -0.38088269722E+03  0.61432648431E+03  0.92916954473E+02 0.  0.
         23    2    4    4    0    0 -0.52635285840E+03 -0.12019739468E+01  0.39481906256E+03  0.66424121246E+03  0.91024831167E+02 0.  0.
          2    1    3    3  502    0  0.13840310192E+03 -0.67503044909E+02 -0.11472016432E+02  0.15441401120E+03  0.00000000000E+00 0. -1.
         -1    1    3    3    0  502  0.68556920108E+03 -0.29887423253E+03  0.11482217451E+03  0.75664725474E+03  0.00000000000E+00 0.  1.
         13    1    5    5    0    0 -0.22217949534E+03  0.32950966885E+03 -0.30971919644E+03  0.50385149663E+03  0.00000000000E+00 0. -1.
        -13    1    5    5    0    0 -0.75439949267E+02  0.38069582539E+02 -0.71163500782E+02  0.11047498768E+03  0.00000000000E+00 0.  1.
          4    1    6    6  503    0 -0.17379329774E+03 -0.79761603883E+01  0.79828856386E+02  0.19141675941E+03  0.00000000000E+00 0.  1.
         -4    1    6    6    0  503 -0.35255956066E+03  0.67741864415E+01  0.31499020618E+03  0.47282445305E+03  0.00000000000E+00 0. -1.
<mgrwt>
<rscale>  0 0.21864855E+04</rscale>
<asrwt>0</asrwt>
<pdfrwt beam="1">  1        2 0.15941096E+00 0.21864855E+04</pdfrwt>
<pdfrwt beam="2">  1       -1 0.17745504E+00 0.21864855E+04</pdfrwt>
<totfact> 0.54108198E+00</totfact>
</mgrwt>
</event>
<event>
12    7  0.1730932E-007  0.2485739E+04  0.7818608E-02  0.8408084E-01
         -1   -1    0    0    0  501 -0.00000000000E+00  0.00000000000E+00  0.90364312661E+03  0.90364312661E+03  0.00000000000E+00 0.  1.
          2   -1    0    0  501    0  0.00000000000E+00 -0.00000000000E+00 -0.17094406182E+04  0.17094406182E+04  0.00000000000E+00 0. -1.
         24    2    1    2    0    0  0.14040250640E+03  0.83450149126E+03 -0.10545047424E+04  0.13545271347E+04  0.81595980736E+02 0.  0.
        254    2    1    2    0    0 -0.14040250640E+03 -0.83450149126E+03  0.24870725083E+03  0.12585566101E+04  0.89777716700E+03 0.  0.
         23    2    4    4    0    0 -0.30373704896E+02 -0.10057222796E+04  0.22148305343E+03  0.10342538360E+04  0.90699441054E+02 0.  0.
         23    2    4    4    0    0 -0.11002880150E+03  0.17122078838E+03  0.27224197406E+02  0.22430277414E+03  0.90264511471E+02 0.  0.
          4    1    3    3  502    0  0.12967086041E+03  0.71079620327E+03 -0.94018235516E+03  0.11857439165E+04  0.00000000000E+00 0. -1.
         -3    1    3    3    0  502  0.10731645988E+02  0.12370528798E+03 -0.11432238729E+03  0.16878321817E+03  0.00000000000E+00 0.  1.
         13    1    5    5    0    0  0.88152311452E+01 -0.34758720242E+02  0.22508606587E+02  0.42338095180E+02  0.00000000000E+00 0.  1.
        -13    1    5    5    0    0 -0.39188936041E+02 -0.97096355939E+03  0.19897444684E+03  0.99191574081E+03  0.00000000000E+00 0. -1.
          2    1    6    6  503    0 -0.71291981321E+02  0.16352789309E+03  0.38979329019E+01  0.17843517674E+03  0.00000000000E+00 0. -1.
         -2    1    6    6    0  503 -0.38736820180E+02  0.76928952921E+01  0.23326264504E+02  0.45867597401E+02  0.00000000000E+00 0.  1.
<mgrwt>
<rscale>  0 0.24857387E+04</rscale>
<asrwt>0</asrwt>
<pdfrwt beam="1">  1        2 0.26299086E+00 0.24857387E+04</pdfrwt>
<pdfrwt beam="2">  1       -1 0.13902202E+00 0.24857387E+04</pdfrwt>
<totfact> 0.42051092E+00</totfact>
</mgrwt>
</event>
<event>
12    7  0.1730932E-007  0.1606161E+04  0.7818608E-02  0.8816772E-01
          2   -1    0    0  501    0  0.00000000000E+00  0.00000000000E+00  0.78076184515E+03  0.78076184515E+03  0.00000000000E+00 0. -1.
         -1   -1    0    0    0  501 -0.00000000000E+00 -0.00000000000E+00 -0.82603682506E+03  0.82603682506E+03  0.00000000000E+00 0.  1.
         24    2    1    2    0    0 -0.27013688479E+03 -0.41611175952E+03 -0.22088817685E+03  0.54914111210E+03  0.81495039055E+02 0.  0.
        254    2    1    2    0    0  0.27013688479E+03  0.41611175952E+03  0.17561319694E+03  0.10576575581E+04  0.91742933371E+03 0.  0.
         23    2    4    4    0    0 -0.85452917114E+02  0.59027490064E+03  0.23522483970E+03  0.64753275419E+03  0.90781513353E+02 0.  0.
         23    2    4    4    0    0  0.35558980191E+03 -0.17416314112E+03 -0.59611642764E+02  0.41012480392E+03  0.88723727904E+02 0.  0.
          2    1    3    3  502    0 -0.11719543276E+03 -0.24059893855E+03 -0.91702857674E+02  0.28289933332E+03  0.00000000000E+00 0. -1.
         -1    1    3    3    0  502 -0.15294145203E+03 -0.17551282098E+03 -0.12918531918E+03  0.26624177878E+03  0.00000000000E+00 0.  1.
         13    1    5    5    0    0 -0.48005416395E+02  0.35518030927E+03  0.18841088711E+03  0.40491509539E+03  0.00000000000E+00 0. -1.
        -13    1    5    5    0    0 -0.37447500719E+02  0.23509459137E+03  0.46813952587E+02  0.24261765879E+03  0.00000000000E+00 0.  1.
          4    1    6    6  503    0  0.29802869190E+03 -0.16120051516E+03 -0.20733988621E+02  0.33946517578E+03  0.00000000000E+00 0.  1.
         -4    1    6    6    0  503  0.57561110012E+02 -0.12962625952E+02 -0.38877654143E+02  0.70659628141E+02  0.00000000000E+00 0. -1.
<mgrwt>
<rscale>  0 0.16061607E+04</rscale>
<asrwt>0</asrwt>
<pdfrwt beam="1">  1        2 0.12011721E+00 0.16061607E+04</pdfrwt>
<pdfrwt beam="2">  1       -1 0.12708259E+00 0.16061607E+04</pdfrwt>
<totfact> 0.20910762E+01</totfact>
</mgrwt>
</event>
<event>
12    7  0.1730932E-007  0.2195724E+04  0.7818608E-02  0.8520210E-01
          2   -1    0    0  501    0  0.00000000000E+00  0.00000000000E+00  0.89753385881E+03  0.89753385881E+03  0.00000000000E+00 0. -1.
         -1   -1    0    0    0  501 -0.00000000000E+00 -0.00000000000E+00 -0.13429030133E+04  0.13429030133E+04  0.00000000000E+00 0.  1.
         24    2    1    2    0    0  0.35595096396E+02 -0.66816180187E+03 -0.81381815159E+03  0.10565756069E+04  0.79654408966E+02 0.  0.
        254    2    1    2    0    0 -0.35595096396E+02  0.66816180187E+03  0.36844899714E+03  0.11838612652E+04  0.90446980454E+03 0.  0.
         23    2    4    4    0    0 -0.40318208213E+03  0.34184580385E+03  0.41918982578E+03  0.68081532818E+03  0.91515332571E+02 0.  0.
         23    2    4    4    0    0  0.36758698574E+03  0.32631599802E+03 -0.50740828637E+02  0.50304593699E+03  0.94224521158E+02 0.  0.
          4    1    3    3  502    0  0.63514641601E+01 -0.88081406922E+02 -0.15411548260E+03  0.17762392103E+03  0.00000000000E+00 0. -1.
         -3    1    3    3    0  502  0.29243632236E+02 -0.58008039494E+03 -0.65970266899E+03  0.87895168587E+03  0.00000000000E+00 0.  1.
         13    1    5    5    0    0 -0.25769950857E+03  0.24901364321E+03  0.23569595347E+03  0.42891655798E+03  0.00000000000E+00 0. -1.
        -13    1    5    5    0    0 -0.14548257356E+03  0.92832160632E+02  0.18349387231E+03  0.25189877021E+03  0.00000000000E+00 0.  1.
          4    1    6    6  503    0  0.27462264623E+03  0.18426761497E+03 -0.33974181206E+02  0.33245510485E+03  0.00000000000E+00 0. -1.
         -4    1    6    6    0  503  0.92964339505E+02  0.14204838305E+03 -0.16766647431E+02  0.17059083214E+03  0.00000000000E+00 0.  1.
<mgrwt>
<rscale>  0 0.21957240E+04</rscale>
<asrwt>0</asrwt>
<pdfrwt beam="1">  1        2 0.13808213E+00 0.21957240E+04</pdfrwt>
<pdfrwt beam="2">  1       -1 0.20660046E+00 0.21957240E+04</pdfrwt>
<totfact> 0.41626373E+00</totfact>
</mgrwt>
</event>
<event>
12    7  0.1730932E-007  0.1197552E+04  0.7818608E-02  0.9115002E-01
          2   -1    0    0  501    0  0.00000000000E+00  0.00000000000E+00  0.36691814969E+03  0.36691814969E+03  0.00000000000E+00 0. -1.
         -1   -1    0    0    0  501 -0.00000000000E+00 -0.00000000000E+00 -0.97714654386E+03  0.97714654386E+03  0.00000000000E+00 0.  1.
         24    2    1    2    0    0 -0.97706593228E+02  0.20716128690E+03 -0.24670763300E+02  0.24615961838E+03  0.86738307611E+02 0.  0.
        254    2    1    2    0    0  0.97706593228E+02 -0.20716128690E+03 -0.58555763087E+03  0.10979050752E+04  0.90003079829E+03 0.  0.
         23    2    4    4    0    0 -0.20306556787E+03  0.17550732705E+03 -0.52779220694E+03  0.59909626003E+03  0.91177126384E+02 0.  0.
         23    2    4    4    0    0  0.30077216110E+03 -0.38266861395E+03 -0.57765423929E+02  0.49880881514E+03  0.92597132035E+02 0.  0.
          2    1    3    3  502    0 -0.16215226137E+02  0.12833525032E+03  0.32449657301E+01  0.12939628988E+03  0.00000000000E+00 0. -1.
         -1    1    3    3    0  502 -0.81491367091E+02  0.78826036583E+02 -0.27915729030E+02  0.11676332849E+03  0.00000000000E+00 0.  1.
         13    1    5    5    0    0 -0.16023740325E+03  0.16122255068E+03 -0.36355610761E+03  0.42876774555E+03  0.00000000000E+00 0. -1.
        -13    1    5    5    0    0 -0.42828164619E+02  0.14284776370E+02 -0.16423609933E+03  0.17032851448E+03  0.00000000000E+00 0.  1.
          3    1    6    6  503    0  0.10626777200E+03 -0.17212664103E+03 -0.63798015852E+02  0.21210989308E+03  0.00000000000E+00 0. -1.
         -3    1    6    6    0  503  0.19450438910E+03 -0.21054197293E+03  0.60325919230E+01  0.28669892205E+03  0.00000000000E+00 0.  1.
<mgrwt>
<rscale>  0 0.11975522E+04</rscale>
<asrwt>0</asrwt>
<pdfrwt beam="1">  1        2 0.56448946E-01 0.11975522E+04</pdfrwt>
<pdfrwt beam="2">  1       -1 0.15033024E+00 0.11975522E+04</pdfrwt>
<totfact> 0.34348433E+01</totfact>
</mgrwt>
</event>
<event>
12    7  0.1730932E-007  0.2910903E+04  0.7818608E-02  0.8269641E-01
         -1   -1    0    0    0  501 -0.00000000000E+00  0.00000000000E+00  0.17524593893E+04  0.17524593893E+04  0.00000000000E+00 0.  1.
          2   -1    0    0  501    0  0.00000000000E+00 -0.00000000000E+00 -0.12087803551E+04  0.12087803551E+04  0.00000000000E+00 0. -1.
         24    2    1    2    0    0  0.47282885340E+03 -0.42042632754E+03  0.14183919245E+04  0.15551960539E+04  0.80459262491E+02 0.  0.
        254    2    1    2    0    0 -0.47282885340E+03  0.42042632754E+03 -0.87471289034E+03  0.14060436905E+04  0.90083894091E+03 0.  0.
         23    2    4    4    0    0 -0.72016759560E+03  0.41669053250E+03 -0.68938259417E+03  0.10841265435E+04  0.88372141784E+02 0.  0.
         23    2    4    4    0    0  0.24733874220E+03  0.37357950412E+01 -0.18533029617E+03  0.32191714701E+03  0.89960665302E+02 0.  0.
          4    1    3    3  502    0  0.86925307460E+02 -0.69988274373E+02  0.18320716672E+03  0.21452093969E+03  0.00000000000E+00 0. -1.
         -3    1    3    3    0  502  0.38590354594E+03 -0.35043805317E+03  0.12351847578E+04  0.13406751142E+04  0.00000000000E+00 0.  1.
         13    1    5    5    0    0 -0.58890393156E+03  0.36047063653E+03 -0.53223803616E+03  0.87179369552E+03  0.00000000000E+00 0. -1.
        -13    1    5    5    0    0 -0.13126366404E+03  0.56219895973E+02 -0.15714455801E+03  0.21233284794E+03  0.00000000000E+00 0.  1.
          2    1    6    6  503    0  0.19932102253E+03  0.11926227575E+02 -0.99187585611E+02  0.22295578501E+03  0.00000000000E+00 0. -1.
         -2    1    6    6    0  503  0.48017719665E+02 -0.81904325341E+01 -0.86142710555E+02  0.98961361999E+02  0.00000000000E+00 0.  1.
<mgrwt>
<rscale>  0 0.29109026E+04</rscale>
<asrwt>0</asrwt>
<pdfrwt beam="1">  1        2 0.18596621E+00 0.29109026E+04</pdfrwt>
<pdfrwt beam="2">  1       -1 0.26960914E+00 0.29109026E+04</pdfrwt>
<totfact> 0.95540337E-01</totfact>
</mgrwt>
</event>
<event>
12    7  0.1730932E-007  0.1450357E+04  0.7818608E-02  0.8918153E-01
          4   -1    0    0  501    0  0.00000000000E+00  0.00000000000E+00  0.68859168159E+03  0.68859168159E+03  0.00000000000E+00 0. -1.
         -3   -1    0    0    0  501 -0.00000000000E+00 -0.00000000000E+00 -0.76370939232E+03  0.76370939232E+03  0.00000000000E+00 0.  1.
         24    2    1    2    0    0 -0.27315061784E+03 -0.31195049815E+03 -0.17378924030E+03  0.45657735653E+03  0.79597796052E+02 0.  0.
        254    2    1    2    0    0  0.27315061784E+03  0.31195049815E+03  0.98671529565E+02  0.99572371737E+03  0.89989181420E+03 0.  0.
         23    2    4    4    0    0  0.96661225819E+02 -0.23479235679E+03  0.27626642563E+03  0.38727314465E+03  0.95846268844E+02 0.  0.
         23    2    4    4    0    0  0.17648939202E+03  0.54674285494E+03 -0.17759489606E+03  0.60845057272E+03  0.92714062630E+02 0.  0.
          2    1    3    3  502    0 -0.77064285103E+02 -0.14162676914E+03 -0.83698047536E+02  0.18166565150E+03  0.00000000000E+00 0. -1.
         -1    1    3    3    0  502 -0.19608633274E+03 -0.17032372901E+03 -0.90091192760E+02  0.27491170503E+03  0.00000000000E+00 0.  1.
         13    1    5    5    0    0  0.11006775440E+03 -0.23109065271E+03  0.26991367902E+03  0.37198278784E+03  0.00000000000E+00 0. -1.
        -13    1    5    5    0    0 -0.13406528585E+02 -0.37017040833E+01  0.63527466141E+01  0.15290356810E+02  0.00000000000E+00 0.  1.
          3    1    6    6  503    0  0.12568516547E+03  0.47054417004E+03 -0.12494114105E+03  0.50281096398E+03  0.00000000000E+00 0. -1.
         -3    1    6    6    0  503  0.50804226553E+02  0.76198684904E+02 -0.52653755016E+02  0.10563960874E+03  0.00000000000E+00 0.  1.
<mgrwt>
<rscale>  0 0.14503571E+04</rscale>
<asrwt>0</asrwt>
<pdfrwt beam="1">  1        4 0.10593718E+00 0.14503571E+04</pdfrwt>
<pdfrwt beam="2">  1       -3 0.11749375E+00 0.14503571E+04</pdfrwt>
<totfact> 0.94889599E-01</totfact>
</mgrwt>
</event>
<event>
12    7  0.1730932E-007  0.1207788E+04  0.7818608E-02  0.9106067E-01
          2   -1    0    0  501    0  0.00000000000E+00  0.00000000000E+00  0.39400662743E+03  0.39400662743E+03  0.00000000000E+00 0. -1.
         -1   -1    0    0    0  501 -0.00000000000E+00 -0.00000000000E+00 -0.92558879025E+03  0.92558879025E+03  0.00000000000E+00 0.  1.
         24    2    1    2    0    0  0.24423923252E+03 -0.87374879791E+02 -0.69892263186E+02  0.28086746583E+03  0.81941641335E+02 0.  0.
        254    2    1    2    0    0 -0.24423923252E+03  0.87374879791E+02 -0.46168989963E+03  0.10387279518E+04  0.89359443944E+03 0.  0.
         23    2    4    4    0    0  0.31155887113E+03  0.15522713027E+03 -0.13760171559E+03  0.38513489678E+03  0.90720804859E+02 0.  0.
         23    2    4    4    0    0 -0.55579810366E+03 -0.67852250475E+02 -0.32408818405E+03  0.65359305506E+03  0.92926157068E+02 0.  0.
          4    1    3    3  502    0  0.19432846559E+03 -0.57399477383E+02 -0.18960741031E+02  0.20351354314E+03  0.00000000000E+00 0. -1.
         -3    1    3    3    0  502  0.49910766931E+02 -0.29975402408E+02 -0.50931522155E+02  0.77353922681E+02  0.00000000000E+00 0.  1.
         13    1    5    5    0    0  0.13397969996E+03  0.70224673816E+02 -0.12299662076E+02  0.15176740922E+03  0.00000000000E+00 0. -1.
        -13    1    5    5    0    0  0.17757917117E+03  0.85002456449E+02 -0.12530205351E+03  0.23336748756E+03  0.00000000000E+00 0.  1.
          3    1    6    6  503    0 -0.32840712351E+03 -0.44505819616E+02 -0.24338341143E+03  0.41117817515E+03  0.00000000000E+00 0. -1.
         -3    1    6    6    0  503 -0.22739098014E+03 -0.23346430859E+02 -0.80704772613E+02  0.24241487992E+03  0.00000000000E+00 0.  1.
<mgrwt>
<rscale>  0 0.12077883E+04</rscale>
<asrwt>0</asrwt>
<pdfrwt beam="1">  1        2 0.60616405E-01 0.12077883E+04</pdfrwt>
<pdfrwt beam="2">  1       -1 0.14239827E+00 0.12077883E+04</pdfrwt>
<totfact> 0.36607152E+01</totfact>
</mgrwt>
</event>
<event>
12    7  0.1730932E-007  0.1290625E+04  0.7818608E-02  0.9037033E-01
          2   -1    0    0  501    0  0.00000000000E+00  0.00000000000E+00  0.14826584116E+04  0.14826584116E+04  0.00000000000E+00 0. -1.
         -1   -1    0    0    0  501 -0.00000000000E+00 -0.00000000000E+00 -0.28086606950E+03  0.28086606950E+03  0.00000000000E+00 0.  1.
         24    2    1    2    0    0  0.78509554270E+02  0.17382656042E+02 -0.11982628014E+03  0.16627324686E+03  0.82598718922E+02 0.  0.
        254    2    1    2    0    0 -0.78509554270E+02 -0.17382656042E+02  0.13216186222E+04  0.15972512342E+04  0.89334753360E+03 0.  0.
         23    2    4    4    0    0 -0.40405446136E+03  0.20513061760E+03  0.49462842275E+03  0.67666986422E+03  0.88804563701E+02 0.  0.
         23    2    4    4    0    0  0.32554490709E+03 -0.22251327365E+03  0.82699019947E+03  0.92058137001E+03  0.89808826397E+02 0.  0.
          4    1    3    3  502    0  0.48507385666E+02  0.24851532920E+02 -0.14352015067E+02  0.56360850677E+02  0.00000000000E+00 0. -1.
         -3    1    3    3    0  502  0.30002168605E+02 -0.74688768779E+01 -0.10547426507E+03  0.10991239619E+03  0.00000000000E+00 0.  1.
         13    1    5    5    0    0 -0.15907699531E+03  0.12590369873E+03  0.19183355239E+03  0.27920842325E+03  0.00000000000E+00 0. -1.
        -13    1    5    5    0    0 -0.24497746605E+03  0.79226918878E+02  0.30279487036E+03  0.39746144098E+03  0.00000000000E+00 0.  1.
          2    1    6    6  503    0  0.18910699078E+03 -0.17701593409E+03  0.56965698885E+03  0.62578365257E+03  0.00000000000E+00 0. -1.
         -2    1    6    6    0  503  0.13643791631E+03 -0.45497339554E+02  0.25733321063E+03  0.29479771743E+03  0.00000000000E+00 0.  1.
<mgrwt>
<rscale>  0 0.12906253E+04</rscale>
<asrwt>0</asrwt>
<pdfrwt beam="1">  1        2 0.22810129E+00 0.12906253E+04</pdfrwt>
<pdfrwt beam="2">  1       -1 0.43210165E-01 0.12906253E+04</pdfrwt>
<totfact> 0.76626728E+01</totfact>
</mgrwt>
</event>
<event>
12    7  0.1730932E-007  0.1386021E+04  0.7818608E-02  0.8964000E-01
         -1   -1    0    0    0  501 -0.00000000000E+00  0.00000000000E+00  0.63387034043E+03  0.63387034043E+03  0.00000000000E+00 0.  1.
          2   -1    0    0  501    0  0.00000000000E+00 -0.00000000000E+00 -0.75766864867E+03  0.75766864867E+03  0.00000000000E+00 0. -1.
         24    2    1    2    0    0 -0.19886447409E+03 -0.63239955298E+02 -0.38217483349E+03  0.44269744713E+03  0.79856467099E+02 0.  0.
        254    2    1    2    0    0  0.19886447409E+03  0.63239955298E+02  0.25837652525E+03  0.94884154198E+03  0.88881689452E+03 0.  0.
         23    2    4    4    0    0  0.32344897888E+03 -0.31449299037E+03  0.28227907081E+03  0.54007275862E+03  0.92043619335E+02 0.  0.
         23    2    4    4    0    0 -0.12458450479E+03  0.37773294567E+03 -0.23902545551E+02  0.40876878336E+03  0.91198187955E+02 0.  0.
          2    1    3    3  502    0 -0.20601190365E+03 -0.56521585357E+02 -0.36570656448E+03  0.42352908444E+03  0.00000000000E+00 0. -1.
         -1    1    3    3    0  502  0.71474295652E+01 -0.67183699410E+01 -0.16468269006E+02  0.19168362688E+02  0.00000000000E+00 0.  1.
         13    1    5    5    0    0  0.32024088052E+03 -0.29898507429E+03  0.25077213164E+03  0.50480982381E+03  0.00000000000E+00 0.  1.
        -13    1    5    5    0    0  0.32080983616E+01 -0.15507916077E+02  0.31506939165E+02  0.35262934814E+02  0.00000000000E+00 0. -1.
          2    1    6    6  503    0 -0.94640566282E+01  0.48532436815E+02  0.26978891914E+02  0.56327847464E+02  0.00000000000E+00 0. -1.
         -2    1    6    6    0  503 -0.11512044816E+03  0.32920050885E+03 -0.50881437465E+02  0.35244093589E+03  0.00000000000E+00 0.  1.
<mgrwt>
<rscale>  0 0.13860212E+04</rscale>
<asrwt>0</asrwt>
<pdfrwt beam="1">  1        2 0.11656441E+00 0.13860212E+04</pdfrwt>
<pdfrwt beam="2">  1       -1 0.97518513E-01 0.13860212E+04</pdfrwt>
<totfact> 0.41572969E+01</totfact>
</mgrwt>
</event>
<event>
12    7  0.1730932E-007  0.1062910E+04  0.7818608E-02  0.9242116E-01
          2   -1    0    0  501    0  0.00000000000E+00  0.00000000000E+00  0.17611023673E+04  0.17611023673E+04  0.00000000000E+00 0. -1.
         -1   -1    0    0    0  501 -0.00000000000E+00 -0.00000000000E+00 -0.16037932621E+03  0.16037932621E+03  0.00000000000E+00 0.  1.
         24    2    1    2    0    0  0.97659323927E+02 -0.38587572322E+01  0.22991862567E+03  0.27180737169E+03  0.10707212204E+03 0.  0.
        254    2    1    2    0    0 -0.97659323927E+02  0.38587572322E+01  0.13708044154E+04  0.16496743218E+04  0.91256144407E+03 0.  0.
         23    2    4    4    0    0  0.26288206640E+03 -0.20453891917E+03  0.18658483208E+03  0.39179693458E+03  0.88021520635E+02 0.  0.
         23    2    4    4    0    0 -0.36054139032E+03  0.20839767640E+03  0.11842195833E+04  0.12578773872E+04  0.80372968888E+02 0.  0.
          4    1    3    3  502    0  0.42217917034E+02  0.84335353867E+00  0.20761087361E+03  0.21186160248E+03  0.00000000000E+00 0. -1.
         -1    1    3    3    0  502  0.55441406893E+02 -0.47021107708E+01  0.22307752056E+02  0.59945769207E+02  0.00000000000E+00 0.  1.
         13    1    5    5    0    0  0.59978033507E+02 -0.59028759680E+01  0.26558124827E+02  0.65860021579E+02  0.00000000000E+00 0.  1.
        -13    1    5    5    0    0  0.20290403289E+03 -0.19863604320E+03  0.16002670725E+03  0.32593691300E+03  0.00000000000E+00 0. -1.
          1    1    6    6  503    0 -0.23441520434E+03  0.16874714350E+03  0.73893683229E+03  0.79338120004E+03  0.00000000000E+00 0. -1.
         -1    1    6    6    0  503 -0.12612618598E+03  0.39650532899E+02  0.44528275103E+03  0.46449618720E+03  0.00000000000E+00 0.  1.
<mgrwt>
<rscale>  0 0.10629100E+04</rscale>
<asrwt>0</asrwt>
<pdfrwt beam="1">  1        2 0.27093881E+00 0.10629100E+04</pdfrwt>
<pdfrwt beam="2">  1       -1 0.24673744E-01 0.10629100E+04</pdfrwt>
<totfact> 0.14734988E+02</totfact>
</mgrwt>
</event>
<event>
12    7  0.1730932E-007  0.1226403E+04  0.7818608E-02  0.9090055E-01
          2   -1    0    0  501    0  0.00000000000E+00  0.00000000000E+00  0.11849831867E+04  0.11849831867E+04  0.00000000000E+00 0. -1.
         -1   -1    0    0    0  501 -0.00000000000E+00 -0.00000000000E+00 -0.31731752339E+03  0.31731752339E+03  0.00000000000E+00 0.  1.
         24    2    1    2    0    0  0.45550454231E+02  0.23480029829E+03  0.37829841709E+03  0.45502968247E+03  0.82074938940E+02 0.  0.
        254    2    1    2    0    0 -0.45550454231E+02 -0.23480029829E+03  0.48936724621E+03  0.10472710276E+04  0.89447765743E+03 0.  0.
         23    2    4    4    0    0 -0.24579598555E+03  0.13055852928E+03  0.54372235244E+03  0.61733943229E+03  0.89514144346E+02 0.  0.
         23    2    4    4    0    0  0.20024553132E+03 -0.36535882758E+03 -0.54355106228E+02  0.42993159531E+03  0.91111763101E+02 0.  0.
          4    1    3    3  502    0 -0.21447473743E+02  0.74677750800E+02  0.14151177621E+03  0.16143835790E+03  0.00000000000E+00 0. -1.
         -3    1    3    3    0  502  0.66997927974E+02  0.16012254749E+03  0.23678664088E+03  0.29359132458E+03  0.00000000000E+00 0.  1.
         13    1    5    5    0    0 -0.60730267187E+02 -0.31367236969E+01  0.15540782586E+03  0.16688198443E+03  0.00000000000E+00 0.  1.
        -13    1    5    5    0    0 -0.18506571836E+03  0.13369525298E+03  0.38831452658E+03  0.45045744786E+03  0.00000000000E+00 0. -1.
          1    1    6    6  503    0  0.19112485072E+03 -0.36542677163E+03 -0.63225633999E+02  0.41720847879E+03  0.00000000000E+00 0. -1.
         -1    1    6    6    0  503  0.91206806040E+01  0.67944050986E-01  0.88705277706E+01  0.12723116521E+02  0.00000000000E+00 0.  1.
<mgrwt>
<rscale>  0 0.12264028E+04</rscale>
<asrwt>0</asrwt>
<pdfrwt beam="1">  1        2 0.18230510E+00 0.12264028E+04</pdfrwt>
<pdfrwt beam="2">  1       -1 0.48818081E-01 0.12264028E+04</pdfrwt>
<totfact> 0.91198462E+01</totfact>
</mgrwt>
</event>
<event>
12    7  0.1730932E-007  0.1534650E+04  0.7818608E-02  0.8861733E-01
          2   -1    0    0  501    0  0.00000000000E+00  0.00000000000E+00  0.10949338947E+04  0.10949338947E+04  0.00000000000E+00 0. -1.
         -1   -1    0    0    0  501 -0.00000000000E+00 -0.00000000000E+00 -0.53773804551E+03  0.53773804551E+03  0.00000000000E+00 0.  1.
         24    2    1    2    0    0  0.18047756457E+03 -0.13670037078E+03 -0.28740736300E+03  0.37425499416E+03  0.78769700147E+02 0.  0.
        254    2    1    2    0    0 -0.18047756457E+03  0.13670037078E+03  0.84460321221E+03  0.12584169461E+04  0.90498590121E+03 0.  0.
         23    2    4    4    0    0 -0.39794933256E+03 -0.10649721198E+03  0.81579836497E+03  0.91850696056E+03  0.91775469846E+02 0.  0.
         23    2    4    4    0    0  0.21747176800E+03  0.24319758277E+03  0.28804847234E+02  0.33990998550E+03  0.90939787095E+02 0.  0.
          4    1    3    3  502    0  0.21603381075E+02  0.81707140803E+01 -0.16453514326E+02  0.28358151846E+02  0.00000000000E+00 0. -1.
         -3    1    3    3    0  502  0.15887418349E+03 -0.14487108486E+03 -0.27095384867E+03  0.34589684231E+03  0.00000000000E+00 0.  1.
         13    1    5    5    0    0 -0.20175036374E+03 -0.70381575549E+02  0.51498612767E+03  0.55755491849E+03  0.00000000000E+00 0. -1.
        -13    1    5    5    0    0 -0.19619896883E+03 -0.36115636433E+02  0.30081223730E+03  0.36095204207E+03  0.00000000000E+00 0.  1.
          2    1    6    6  503    0  0.45132599403E+02  0.11109313985E+03  0.26242209217E+02  0.12274889326E+03  0.00000000000E+00 0. -1.
         -2    1    6    6    0  503  0.17233916859E+03  0.13210444292E+03  0.25626380169E+01  0.21716109224E+03  0.00000000000E+00 0.  1.
<mgrwt>
<rscale>  0 0.15346499E+04</rscale>
<asrwt>0</asrwt>
<pdfrwt beam="1">  1        2 0.16845137E+00 0.15346499E+04</pdfrwt>
<pdfrwt beam="2">  1       -1 0.82728930E-01 0.15346499E+04</pdfrwt>
<totfact> 0.35021095E+01</totfact>
</mgrwt>
</event>
<event>
12    7  0.1730932E-007  0.2176299E+04  0.7818608E-02  0.8528358E-01
         -1   -1    0    0    0  501 -0.00000000000E+00  0.00000000000E+00  0.15116859866E+04  0.15116859866E+04  0.00000000000E+00 0.  1.
          2   -1    0    0  501    0  0.00000000000E+00 -0.00000000000E+00 -0.78327701910E+03  0.78327701910E+03  0.00000000000E+00 0. -1.
         24    2    1    2    0    0  0.39672995018E+03  0.18637152785E+03 -0.52621305449E+03  0.68943703436E+03  0.79336283460E+02 0.  0.
        254    2    1    2    0    0 -0.39672995018E+03 -0.18637152785E+03  0.12546220220E+04  0.16055259713E+04  0.90083751412E+03 0.  0.
         23    2    4    4    0    0 -0.12616251888E+03  0.32815665667E+03  0.25098695721E+03  0.44164507725E+03  0.91935570267E+02 0.  0.
         23    2    4    4    0    0 -0.27056743129E+03 -0.51452818452E+03  0.10036350648E+04  0.11638808941E+04  0.96898941404E+02 0.  0.
          2    1    3    3  502    0  0.22497941468E+03  0.14827847247E+03 -0.31215321485E+03  0.41236133666E+03  0.00000000000E+00 0. -1.
         -3    1    3    3    0  502  0.17175053550E+03  0.38093055375E+02 -0.21405983964E+03  0.27707569770E+03  0.00000000000E+00 0.  1.
         13    1    5    5    0    0 -0.14142706461E+02 -0.23617978174E+01  0.82496544210E+01  0.16542401066E+02  0.00000000000E+00 0. -1.
        -13    1    5    5    0    0 -0.11201981242E+03  0.33051845449E+03  0.24273730279E+03  0.42510267618E+03  0.00000000000E+00 0.  1.
          3    1    6    6  503    0 -0.80488247980E+02 -0.11388293033E+03  0.31935300753E+03  0.34847384881E+03  0.00000000000E+00 0. -1.
         -3    1    6    6    0  503 -0.19007918331E+03 -0.40064525419E+03  0.68428205724E+03  0.81540704528E+03  0.00000000000E+00 0.  1.
<mgrwt>
<rscale>  0 0.21762986E+04</rscale>
<asrwt>0</asrwt>
<pdfrwt beam="1">  1        2 0.12050416E+00 0.21762986E+04</pdfrwt>
<pdfrwt beam="2">  1       -1 0.23256707E+00 0.21762986E+04</pdfrwt>
<totfact> 0.33598279E+00</totfact>
</mgrwt>
</event>
<event>
12    7  0.1730932E-007  0.2371538E+04  0.7818608E-02  0.8450237E-01
          2   -1    0    0  501    0  0.00000000000E+00  0.00000000000E+00  0.17137198011E+04  0.17137198011E+04  0.00000000000E+00 0. -1.
         -1   -1    0    0    0  501 -0.00000000000E+00 -0.00000000000E+00 -0.82046553525E+03  0.82046553525E+03  0.00000000000E+00 0.  1.
         24    2    1    2    0    0  0.83081972305E+02  0.63207180052E+03  0.12268957161E+04  0.13849473237E+04  0.79928818671E+02 0.  0.
        254    2    1    2    0    0 -0.83081972305E+02 -0.63207180052E+03 -0.33364145019E+03  0.11492380127E+04  0.89611049400E+03 0.  0.
         23    2    4    4    0    0 -0.20981177356E+03 -0.77919992620E+03 -0.42303147860E+03  0.91560575353E+03  0.90580123142E+02 0.  0.
         23    2    4    4    0    0  0.12672980125E+03  0.14712812568E+03  0.89390028405E+02  0.23363225919E+03  0.94267319180E+02 0.  0.
          4    1    3    3  502    0  0.42935221701E+02  0.51419287272E+03  0.10292240525E+04  0.11513209343E+04  0.00000000000E+00 0. -1.
         -3    1    3    3    0  502  0.40146750604E+02  0.11787892780E+03  0.19767166357E+03  0.23362638931E+03  0.00000000000E+00 0.  1.
         13    1    5    5    0    0 -0.17840796495E+03 -0.74105690669E+03 -0.39036543579E+03  0.85637603561E+03  0.00000000000E+00 0.  1.
        -13    1    5    5    0    0 -0.31403808610E+02 -0.38143019505E+02 -0.32666042805E+02  0.59229717918E+02  0.00000000000E+00 0. -1.
          2    1    6    6  503    0  0.89855968793E+02  0.14476649940E+03  0.45691437910E+02  0.17640618462E+03  0.00000000000E+00 0.  1.
         -2    1    6    6    0  503  0.36873832459E+02  0.23616262798E+01  0.43698590496E+02  0.57226074566E+02  0.00000000000E+00 0. -1.
<mgrwt>
<rscale>  0 0.23715379E+04</rscale>
<asrwt>0</asrwt>
<pdfrwt beam="1">  1        2 0.26364920E+00 0.23715379E+04</pdfrwt>
<pdfrwt beam="2">  1       -1 0.12622547E+00 0.23715379E+04</pdfrwt>
<totfact> 0.54009033E+00</totfact>
</mgrwt>
</event>
<event>
12    7  0.1730932E-007  0.1249335E+04  0.7818608E-02  0.9070737E-01
         -1   -1    0    0    0  501 -0.00000000000E+00  0.00000000000E+00  0.36153949375E+03  0.36153949375E+03  0.00000000000E+00 0.  1.
          2   -1    0    0  501    0  0.00000000000E+00 -0.00000000000E+00 -0.10792994909E+04  0.10792994909E+04  0.00000000000E+00 0. -1.
         24    2    1    2    0    0  0.13901780755E+03 -0.18259515044E+03 -0.32624267535E+03  0.40678994427E+03  0.79855092233E+02 0.  0.
        254    2    1    2    0    0 -0.13901780755E+03  0.18259515044E+03 -0.39151732184E+03  0.10340490404E+04  0.92914189709E+03 0.  0.
         23    2    4    4    0    0  0.30239516339E+03 -0.13036943581E+03 -0.34376915844E+03  0.48333345617E+03  0.83635942757E+02 0.  0.
         23    2    4    4    0    0 -0.44141297094E+03  0.31296458626E+03 -0.47748163404E+02  0.55071558426E+03  0.90639530438E+02 0.  0.
          4    1    3    3  502    0  0.12380383889E+03 -0.18493058882E+03 -0.27773112482E+03  0.35589505602E+03  0.00000000000E+00 0. -1.
         -3    1    3    3    0  502  0.15213968650E+02  0.23354383781E+01 -0.48511550529E+02  0.50894888243E+02  0.00000000000E+00 0.  1.
         13    1    5    5    0    0  0.44128114534E+02 -0.31688417870E+02 -0.10415337885E+03  0.11747073102E+03  0.00000000000E+00 0. -1.
        -13    1    5    5    0    0  0.25826704886E+03 -0.98681017945E+02 -0.23961577959E+03  0.36586272515E+03  0.00000000000E+00 0.  1.
          4    1    6    6  503    0 -0.10903517362E+02 -0.22287192817E+01  0.87732024903E+01  0.14171201870E+02  0.00000000000E+00 0. -1.
         -4    1    6    6    0  503 -0.43050945357E+03  0.31519330554E+03 -0.56521365895E+02  0.53654438239E+03  0.00000000000E+00 0.  1.
<mgrwt>
<rscale>  0 0.12493348E+04</rscale>
<asrwt>0</asrwt>
<pdfrwt beam="1">  1        2 0.16604607E+00 0.12493348E+04</pdfrwt>
<pdfrwt beam="2">  1       -1 0.55621462E-01 0.12493348E+04</pdfrwt>
<totfact> 0.82268800E+01</totfact>
</mgrwt>
</event>
<event>
12    7  0.1730932E-007  0.1196709E+04  0.7818608E-02  0.9115742E-01
         -1   -1    0    0    0  501 -0.00000000000E+00  0.00000000000E+00  0.76929188262E+03  0.76929188262E+03  0.00000000000E+00 0.  1.
          2   -1    0    0  501    0  0.00000000000E+00 -0.00000000000E+00 -0.46539963286E+03  0.46539963286E+03  0.00000000000E+00 0. -1.
         24    2    1    2    0    0 -0.33977997939E+02 -0.47104125857E+02  0.31510475216E+03  0.33019164774E+03  0.79763502862E+02 0.  0.
        254    2    1    2    0    0  0.33977997939E+02  0.47104125857E+02 -0.11212502394E+02  0.90449986774E+03  0.90256356425E+03 0.  0.
         23    2    4    4    0    0  0.17457325481E+03 -0.33073511450E+03  0.20746706235E+03  0.43679402170E+03  0.88796949096E+02 0.  0.
         23    2    4    4    0    0 -0.14059525687E+03  0.37783924036E+03 -0.21867956474E+03  0.46770584604E+03  0.91643268041E+02 0.  0.
          4    1    3    3  502    0 -0.28273805372E+02  0.16072801362E+02  0.73045417272E+02  0.79958589271E+02  0.00000000000E+00 0. -1.
         -3    1    3    3    0  502 -0.57041925672E+01 -0.63176927219E+02  0.24205933489E+03  0.25023305847E+03  0.00000000000E+00 0.  1.
         13    1    5    5    0    0 -0.64821181264E+01 -0.38459243292E+02  0.98140696790E+01  0.40217498849E+02  0.00000000000E+00 0. -1.
        -13    1    5    5    0    0  0.18105537294E+03 -0.29227587121E+03  0.19765299267E+03  0.39657652285E+03  0.00000000000E+00 0.  1.
          4    1    6    6  503    0  0.11772773117E+02  0.12422665837E+02 -0.13425480805E+02  0.21752341212E+02  0.00000000000E+00 0. -1.
         -4    1    6    6    0  503 -0.15236802999E+03  0.36541657452E+03 -0.20525408394E+03  0.44595350483E+03  0.00000000000E+00 0.  1.
<mgrwt>
<rscale>  0 0.11967091E+04</rscale>
<asrwt>0</asrwt>
<pdfrwt beam="1">  1        2 0.71599943E-01 0.11967091E+04</pdfrwt>
<pdfrwt beam="2">  1       -1 0.11835260E+00 0.11967091E+04</pdfrwt>
<totfact> 0.48395800E+01</totfact>
</mgrwt>
</event>
<event>
12    7  0.1730932E-007  0.2970107E+04  0.7818608E-02  0.8252319E-01
         -1   -1    0    0    0  501 -0.00000000000E+00  0.00000000000E+00  0.13141268634E+04  0.13141268634E+04  0.00000000000E+00 0.  1.
          2   -1    0    0  501    0  0.00000000000E+00 -0.00000000000E+00 -0.16782126089E+04  0.16782126089E+04  0.00000000000E+00 0. -1.
         24    2    1    2    0    0 -0.12696271900E+04 -0.39826935496E+03  0.64291135699E+02  0.13346290179E+04  0.80805845154E+02 0.  0.
        254    2    1    2    0    0  0.12696271900E+04  0.39826935496E+03 -0.42837688120E+03  0.16577104545E+04  0.89102498169E+03 0.  0.
         23    2    4    4    0    0  0.22219133853E+03  0.46686458507E+03 -0.12381270659E+02  0.52501987529E+03  0.90338485032E+02 0.  0.
         23    2    4    4    0    0  0.10474358514E+04 -0.68595230106E+02 -0.41599561054E+03  0.11326905792E+04  0.90046830933E+02 0.  0.
          4    1    3    3  502    0 -0.26951150954E+03 -0.11892782664E+03  0.21001297433E+02  0.29533258577E+03  0.00000000000E+00 0. -1.
         -3    1    3    3    0  502 -0.10001156804E+04 -0.27934152832E+03  0.43289838266E+02  0.10392964321E+04  0.00000000000E+00 0.  1.
         13    1    5    5    0    0  0.55759231394E+02  0.15466325279E+03 -0.42902529750E+02  0.16991303866E+03  0.00000000000E+00 0.  1.
        -13    1    5    5    0    0  0.16643210713E+03  0.31220133228E+03  0.30521259091E+02  0.35510683663E+03  0.00000000000E+00 0. -1.
          1    1    6    6  503    0  0.94110697003E+03 -0.52841126425E+02 -0.40027309040E+03  0.10240571569E+04  0.00000000000E+00 0. -1.
         -1    1    6    6    0  503  0.10632888141E+03 -0.15754103682E+02 -0.15722520142E+02  0.10863342232E+03  0.00000000000E+00 0.  1.
<mgrwt>
<rscale>  0 0.29701073E+04</rscale>
<asrwt>0</asrwt>
<pdfrwt beam="1">  1        2 0.25818655E+00 0.29701073E+04</pdfrwt>
<pdfrwt beam="2">  1       -1 0.20217336E+00 0.29701073E+04</pdfrwt>
<totfact> 0.14323433E+00</totfact>
</mgrwt>
</event>
<event>
12    7  0.1730932E-007  0.1637028E+04  0.7818608E-02  0.8798118E-01
         -1   -1    0    0    0  501 -0.00000000000E+00  0.00000000000E+00  0.68728813162E+03  0.68728813162E+03  0.00000000000E+00 0.  1.
          2   -1    0    0  501    0  0.00000000000E+00 -0.00000000000E+00 -0.97479464336E+03  0.97479464336E+03  0.00000000000E+00 0. -1.
         24    2    1    2    0    0  0.15654300921E+03  0.20044310537E+03  0.40946114364E+03  0.48929155373E+03  0.84051437714E+02 0.  0.
        254    2    1    2    0    0 -0.15654300921E+03 -0.20044310537E+03 -0.69696765538E+03  0.11727912212E+04  0.90829080352E+03 0.  0.
         23    2    4    4    0    0 -0.54666625863E+02 -0.50197915053E+03 -0.66607413082E+03  0.84093797966E+03  0.92468536959E+02 0.  0.
         23    2    4    4    0    0 -0.10187638335E+03  0.30153604516E+03 -0.30893524556E+02  0.33185324159E+03  0.88709526418E+02 0.  0.
          2    1    3    3  502    0  0.57535736284E+02  0.13359240540E+03  0.18840744676E+03  0.23802238913E+03  0.00000000000E+00 0. -1.
         -1    1    3    3    0  502  0.99007272925E+02  0.66850699967E+02  0.22105369688E+03  0.25126916460E+03  0.00000000000E+00 0.  1.
         13    1    5    5    0    0  0.19126014837E+02 -0.13930859832E+03 -0.22291745795E+03  0.26356191505E+03  0.00000000000E+00 0. -1.
        -13    1    5    5    0    0 -0.73792640700E+02 -0.36267055221E+03 -0.44315667288E+03  0.57737606460E+03  0.00000000000E+00 0.  1.
          3    1    6    6  503    0  0.34856962820E+01 -0.32931252533E+01  0.54828011145E+01  0.72839453983E+01  0.00000000000E+00 0. -1.
         -3    1    6    6    0  503 -0.10536207963E+03  0.30482917042E+03 -0.36376325671E+02  0.32456929619E+03  0.00000000000E+00 0.  1.
<mgrwt>
<rscale>  0 0.16370275E+04</rscale>
<asrwt>0</asrwt>
<pdfrwt beam="1">  1        2 0.14996841E+00 0.16370275E+04</pdfrwt>
<pdfrwt beam="2">  1       -1 0.10573664E+00 0.16370275E+04</pdfrwt>
<totfact> 0.23904587E+01</totfact>
</mgrwt>
</event>
<event>
12    7  0.1730932E-007  0.1468705E+04  0.7818608E-02  0.8905535E-01
         -1   -1    0    0    0  501 -0.00000000000E+00  0.00000000000E+00  0.11644918538E+04  0.11644918538E+04  0.00000000000E+00 0.  1.
          2   -1    0    0  501    0  0.00000000000E+00 -0.00000000000E+00 -0.46309751422E+03  0.46309751422E+03  0.00000000000E+00 0. -1.
         24    2    1    2    0    0  0.18381162587E+03 -0.32282015589E+03 -0.52104599140E+02  0.38710804753E+03  0.95593851039E+02 0.  0.
        254    2    1    2    0    0 -0.18381162587E+03  0.32282015589E+03  0.75349893873E+03  0.12404813205E+04  0.91270679246E+03 0.  0.
         23    2    4    4    0    0 -0.31191868535E+03  0.47363086238E+03  0.82983402777E+03  0.10091870584E+04  0.90634127832E+02 0.  0.
         23    2    4    4    0    0  0.12810705948E+03 -0.15081070649E+03 -0.76335089043E+02  0.23129426211E+03  0.92275142819E+02 0.  0.
          2    1    3    3  502    0  0.16309644501E+03 -0.30359731168E+03 -0.21279548987E+02  0.34528915019E+03  0.00000000000E+00 0. -1.
         -1    1    3    3    0  502  0.20715180853E+02 -0.19222844207E+02 -0.30825050153E+02  0.41818897333E+02  0.00000000000E+00 0.  1.
         13    1    5    5    0    0 -0.25146795776E+03  0.41234296860E+03  0.74825261454E+03  0.89058679123E+03  0.00000000000E+00 0. -1.
        -13    1    5    5    0    0 -0.60450727586E+02  0.61287893776E+02  0.81581413228E+02  0.11860026717E+03  0.00000000000E+00 0.  1.
          1    1    6    6  503    0  0.93476816359E+01 -0.46309012875E+02 -0.53648573105E+02  0.71484776153E+02  0.00000000000E+00 0. -1.
         -1    1    6    6    0  503  0.11875937785E+03 -0.10450169362E+03 -0.22686515938E+02  0.15980948595E+03  0.00000000000E+00 0.  1.
<mgrwt>
<rscale>  0 0.14687046E+04</rscale>
<asrwt>0</asrwt>
<pdfrwt beam="1">  1        2 0.71245772E-01 0.14687046E+04</pdfrwt>
<pdfrwt beam="2">  1       -1 0.17915259E+00 0.14687046E+04</pdfrwt>
<totfact> 0.15727624E+01</totfact>
</mgrwt>
</event>
<event>
12    7  0.1730932E-007  0.1793393E+04  0.7818608E-02  0.8709821E-01
          2   -1    0    0  501    0  0.00000000000E+00  0.00000000000E+00  0.34194644498E+04  0.34194644498E+04  0.00000000000E+00 0. -1.
         -1   -1    0    0    0  501 -0.00000000000E+00 -0.00000000000E+00 -0.23514348722E+03  0.23514348722E+03  0.00000000000E+00 0.  1.
         24    2    1    2    0    0  0.58843423471E+03  0.10106054114E+02  0.54301157159E+03  0.80534428239E+03  0.85795485846E+02 0.  0.
        254    2    1    2    0    0 -0.58843423471E+03 -0.10106054114E+02  0.26413093910E+04  0.28492636546E+04  0.89186943759E+03 0.  0.
         23    2    4    4    0    0 -0.76108030967E+03 -0.16024337769E+03  0.16288943776E+04  0.18072437149E+04  0.88948153066E+02 0.  0.
         23    2    4    4    0    0  0.17264607496E+03  0.15013732358E+03  0.10124150134E+04  0.10420199397E+04  0.92051682389E+02 0.  0.
          2    1    3    3  502    0  0.42054333020E+03 -0.81022434482E+01  0.43376111580E+03  0.60421109267E+03  0.00000000000E+00 0. -1.
         -1    1    3    3    0  502  0.16789090451E+03  0.18208297563E+02  0.10925045579E+03  0.20113318972E+03  0.00000000000E+00 0.  1.
         13    1    5    5    0    0 -0.16982208998E+01 -0.43593713705E+01  0.29623797608E+02  0.29990956265E+02  0.00000000000E+00 0. -1.
        -13    1    5    5    0    0 -0.75938208877E+03 -0.15588400632E+03  0.15992705800E+04  0.17772527586E+04  0.00000000000E+00 0.  1.
          4    1    6    6  503    0  0.41596558796E+02  0.78782699401E+02  0.51704694856E+03  0.52466611711E+03  0.00000000000E+00 0. -1.
         -4    1    6    6    0  503  0.13104951616E+03  0.71354624175E+02  0.49536806487E+03  0.51735382261E+03  0.00000000000E+00 0.  1.
<mgrwt>
<rscale>  0 0.17933932E+04</rscale>
<asrwt>0</asrwt>
<pdfrwt beam="1">  1        2 0.52607142E+00 0.17933932E+04</pdfrwt>
<pdfrwt beam="2">  1       -1 0.36175924E-01 0.17933932E+04</pdfrwt>
<totfact> 0.73244287E+00</totfact>
</mgrwt>
</event>
<event>
12    7  0.1730932E-007  0.3174835E+04  0.7818608E-02  0.8195495E-01
         -1   -1    0    0    0  501 -0.00000000000E+00  0.00000000000E+00  0.92303218593E+03  0.92303218593E+03  0.00000000000E+00 0.  1.
          2   -1    0    0  501    0  0.00000000000E+00 -0.00000000000E+00 -0.27300178357E+04  0.27300178357E+04  0.00000000000E+00 0. -1.
         24    2    1    2    0    0  0.15110730833E+03 -0.84842002785E+03 -0.21909780536E+04  0.23557050967E+04  0.79446263569E+02 0.  0.
        254    2    1    2    0    0 -0.15110730833E+03  0.84842002785E+03  0.38399240383E+03  0.12973449250E+04  0.89050756644E+03 0.  0.
         23    2    4    4    0    0 -0.33824258216E+03  0.18443041766E+03 -0.14752691179E+03  0.42183083462E+03  0.88059298141E+02 0.  0.
         23    2    4    4    0    0  0.18713527383E+03  0.66398961019E+03  0.53151931562E+03  0.87551409036E+03  0.90057350551E+02 0.  0.
          4    1    3    3  502    0  0.14509347386E+03 -0.81857065778E+03 -0.21459331007E+04  0.23013341588E+04  0.00000000000E+00 0. -1.
         -3    1    3    3    0  502  0.60138344654E+01 -0.29849370068E+02 -0.45044952898E+02  0.54370937826E+02  0.00000000000E+00 0.  1.
         13    1    5    5    0    0 -0.28231816968E+03  0.18672134845E+03 -0.11736432671E+03  0.35824962817E+03  0.00000000000E+00 0. -1.
        -13    1    5    5    0    0 -0.55924412477E+02 -0.22909307890E+01 -0.30162585088E+02  0.63581206452E+02  0.00000000000E+00 0.  1.
          2    1    6    6  503    0  0.12622682600E+03  0.55437510927E+03  0.45851361672E+03  0.73041064484E+03  0.00000000000E+00 0. -1.
         -2    1    6    6    0  503  0.60908447835E+02  0.10961450092E+03  0.73005698904E+02  0.14510344552E+03  0.00000000000E+00 0.  1.
<mgrwt>
<rscale>  0 0.31748350E+04</rscale>
<asrwt>0</asrwt>
<pdfrwt beam="1">  1        2 0.42000274E+00 0.31748350E+04</pdfrwt>
<pdfrwt beam="2">  1       -1 0.14200495E+00 0.31748350E+04</pdfrwt>
<totfact> 0.98598970E-01</totfact>
</mgrwt>
</event>
<event>
12    7  0.1730932E-007  0.2326437E+04  0.7818608E-02  0.8467570E-01
         -1   -1    0    0    0  501 -0.00000000000E+00  0.00000000000E+00  0.64733657004E+03  0.64733657004E+03  0.00000000000E+00 0.  1.
          2   -1    0    0  501    0  0.00000000000E+00 -0.00000000000E+00 -0.20902215482E+04  0.20902215482E+04  0.00000000000E+00 0. -1.
         24    2    1    2    0    0 -0.65156028356E+02  0.45773170051E+02  0.55256005421E+03  0.56483089800E+03  0.85853588725E+02 0.  0.
        254    2    1    2    0    0  0.65156028356E+02 -0.45773170051E+02 -0.19954450324E+04  0.21727272203E+04  0.85592184528E+03 0.  0.
         23    2    4    4    0    0  0.43528213937E+03 -0.33864124847E+02 -0.13633912397E+04  0.14343952791E+04  0.89648336492E+02 0.  0.
         23    2    4    4    0    0 -0.37012611101E+03 -0.11909045204E+02 -0.63205379269E+03  0.73833194122E+03  0.92232831238E+02 0.  0.
          2    1    3    3  502    0 -0.49618241652E+02  0.42990401066E+01  0.11882268767E+03  0.12883820379E+03  0.00000000000E+00 0. -1.
         -1    1    3    3    0  502 -0.15537786704E+02  0.41474129944E+02  0.43373736654E+03  0.43599269421E+03  0.00000000000E+00 0.  1.
         13    1    5    5    0    0  0.14169354258E+03  0.30872544890E+02 -0.43390304137E+03  0.45749538068E+03  0.00000000000E+00 0. -1.
        -13    1    5    5    0    0  0.29358859678E+03 -0.64736669737E+02 -0.92948819835E+03  0.97689989837E+03  0.00000000000E+00 0.  1.
          4    1    6    6  503    0 -0.22574219872E+03 -0.51436655593E+02 -0.36709456021E+03  0.43400885470E+03  0.00000000000E+00 0. -1.
         -4    1    6    6    0  503 -0.14438391229E+03  0.39527610389E+02 -0.26495923247E+03  0.30432308651E+03  0.00000000000E+00 0.  1.
<mgrwt>
<rscale>  0 0.23264366E+04</rscale>
<asrwt>0</asrwt>
<pdfrwt beam="1">  1        2 0.32157254E+00 0.23264366E+04</pdfrwt>
<pdfrwt beam="2">  1       -1 0.99590243E-01 0.23264366E+04</pdfrwt>
<totfact> 0.58930973E+00</totfact>
</mgrwt>
</event>
<event>
12    7  0.1730932E-007  0.2748823E+04  0.7818608E-02  0.8319335E-01
         -1   -1    0    0    0  501 -0.00000000000E+00  0.00000000000E+00  0.97498371435E+03  0.97498371435E+03  0.00000000000E+00 0.  1.
          2   -1    0    0  501    0  0.00000000000E+00 -0.00000000000E+00 -0.19374749968E+04  0.19374749968E+04  0.00000000000E+00 0. -1.
         24    2    1    2    0    0  0.61435224376E+03  0.10019191099E+04 -0.77095388793E+03  0.14078738903E+04  0.80426435538E+02 0.  0.
        254    2    1    2    0    0 -0.61435224376E+03 -0.10019191099E+04 -0.19153739454E+03  0.15045848208E+04  0.91968381918E+03 0.  0.
         23    2    4    4    0    0  0.45268355479E+02 -0.52256982897E+03  0.23259464751E+03  0.58106831201E+03  0.91715118746E+02 0.  0.
         23    2    4    4    0    0 -0.65962059924E+03 -0.47934928096E+03 -0.42413204206E+03  0.92351650881E+03  0.90109293911E+02 0.  0.
          2    1    3    3  502    0  0.57256084156E+03  0.92368300292E+03 -0.73607897956E+03  0.13125656065E+04  0.00000000000E+00 0. -1.
         -1    1    3    3    0  502  0.41791402202E+02  0.78236107014E+02 -0.34874908365E+02  0.95308283859E+02  0.00000000000E+00 0.  1.
         13    1    5    5    0    0  0.43523755429E+01  0.25640318198E+01  0.55151451857E+01  0.74789209421E+01  0.00000000000E+00 0.  1.
        -13    1    5    5    0    0  0.40915979936E+02 -0.52513386079E+03  0.22707950233E+03  0.57358939106E+03  0.00000000000E+00 0. -1.
          3    1    6    6  503    0 -0.48225533595E+03 -0.31992439261E+03 -0.33648984520E+03  0.66943800457E+03  0.00000000000E+00 0. -1.
         -3    1    6    6    0  503 -0.17736526329E+03 -0.15942488835E+03 -0.87642196852E+02  0.25407850424E+03  0.00000000000E+00 0.  1.
<mgrwt>
<rscale>  0 0.27488227E+04</rscale>
<asrwt>0</asrwt>
<pdfrwt beam="1">  1        2 0.29807307E+00 0.27488227E+04</pdfrwt>
<pdfrwt beam="2">  1       -1 0.14999750E+00 0.27488227E+04</pdfrwt>
<totfact> 0.25108702E+00</totfact>
</mgrwt>
</event>
<event>
12    7  0.1730932E-007  0.1087290E+04  0.7818608E-02  0.9217669E-01
         -1   -1    0    0    0  501 -0.00000000000E+00  0.00000000000E+00  0.13420416710E+04  0.13420416710E+04  0.00000000000E+00 0.  1.
          2   -1    0    0  501    0  0.00000000000E+00 -0.00000000000E+00 -0.22022418996E+03  0.22022418996E+03  0.00000000000E+00 0. -1.
         24    2    1    2    0    0 -0.34707918253E+01 -0.60032215919E+02  0.43305484107E+03  0.44092994404E+03  0.57155986866E+02 0.  0.
        254    2    1    2    0    0  0.34707918253E+01  0.60032215919E+02  0.68876263998E+03  0.11213359169E+04  0.88282747524E+03 0.  0.
         23    2    4    4    0    0  0.28794355612E+03  0.16268069587E+03  0.72571783227E+03  0.80333633375E+03  0.96469646674E+02 0.  0.
         23    2    4    4    0    0 -0.28447276430E+03 -0.10264847995E+03 -0.36955192288E+02  0.31799958319E+03  0.91085589459E+02 0.  0.
          2    1    3    3  502    0  0.62430671609E+00 -0.90445816413E+01  0.61123311361E+01  0.10934112120E+02  0.00000000000E+00 0. -1.
         -1    1    3    3    0  502 -0.40950985413E+01 -0.50987634277E+02  0.42694250994E+03  0.42999583192E+03  0.00000000000E+00 0.  1.
         13    1    5    5    0    0  0.20197262672E+03  0.89107969338E+02  0.37881186639E+03  0.43844224507E+03  0.00000000000E+00 0.  1.
        -13    1    5    5    0    0  0.85970929400E+02  0.73572726530E+02  0.34690596588E+03  0.36489408868E+03  0.00000000000E+00 0. -1.
          4    1    6    6  503    0 -0.56588787889E+02 -0.16334298580E+02  0.28854061376E+02  0.65587019163E+02  0.00000000000E+00 0. -1.
         -4    1    6    6    0  503 -0.22788397641E+03 -0.86314181370E+02 -0.65809253664E+02  0.25241256402E+03  0.00000000000E+00 0.  1.
<mgrwt>
<rscale>  0 0.10872903E+04</rscale>
<asrwt>0</asrwt>
<pdfrwt beam="1">  1        2 0.33880645E-01 0.10872903E+04</pdfrwt>
<pdfrwt beam="2">  1       -1 0.20646794E+00 0.10872903E+04</pdfrwt>
<totfact> 0.24070294E+01</totfact>
</mgrwt>
</event>
<event>
12    7  0.1730932E-007  0.1831352E+04  0.7818608E-02  0.8689802E-01
         -1   -1    0    0    0  501 -0.00000000000E+00  0.00000000000E+00  0.61730131824E+03  0.61730131824E+03  0.00000000000E+00 0.  1.
          2   -1    0    0  501    0  0.00000000000E+00 -0.00000000000E+00 -0.13582704594E+04  0.13582704594E+04  0.00000000000E+00 0. -1.
         24    2    1    2    0    0 -0.29204994536E+03 -0.26166709151E+03  0.33313098667E+03  0.52069243121E+03  0.79884393184E+02 0.  0.
        254    2    1    2    0    0  0.29204994536E+03  0.26166709151E+03 -0.10741001278E+04  0.14548793464E+04  0.89956655710E+03 0.  0.
         23    2    4    4    0    0  0.11101204696E+03  0.19872058703E+03 -0.11894777660E+04  0.12145324275E+04  0.91750287670E+02 0.  0.
         23    2    4    4    0    0  0.18103789840E+03  0.62946504478E+02  0.11537763822E+03  0.24034691890E+03  0.87850207396E+02 0.  0.
          2    1    3    3  502    0 -0.69343825984E+02 -0.43211597178E+02  0.34028986988E+02  0.88508645274E+02  0.00000000000E+00 0. -1.
         -1    1    3    3    0  502 -0.22270611938E+03 -0.21845549433E+03  0.29910199969E+03  0.43218378594E+03  0.00000000000E+00 0.  1.
         13    1    5    5    0    0  0.59408382373E+02  0.17153003556E+03 -0.99773741138E+03  0.10141162907E+04  0.00000000000E+00 0. -1.
        -13    1    5    5    0    0  0.51603664591E+02  0.27190551476E+02 -0.19174035465E+03  0.20041613680E+03  0.00000000000E+00 0.  1.
          2    1    6    6  503    0  0.11998107352E+03  0.13395992770E+02  0.30248502085E+02  0.12445835650E+03  0.00000000000E+00 0. -1.
         -2    1    6    6    0  503  0.61056824882E+02  0.49550511708E+02  0.85129136136E+02  0.11588856240E+03  0.00000000000E+00 0.  1.
<mgrwt>
<rscale>  0 0.18313516E+04</rscale>
<asrwt>0</asrwt>
<pdfrwt beam="1">  1        2 0.20896468E+00 0.18313516E+04</pdfrwt>
<pdfrwt beam="2">  1       -1 0.94969435E-01 0.18313516E+04</pdfrwt>
<totfact> 0.17589741E+01</totfact>
</mgrwt>
</event>
<event>
12    7  0.1730932E-007  0.1992746E+04  0.7818608E-02  0.8610020E-01
          2   -1    0    0  501    0  0.00000000000E+00  0.00000000000E+00  0.22226309761E+04  0.22226309761E+04  0.00000000000E+00 0. -1.
         -1   -1    0    0    0  501 -0.00000000000E+00 -0.00000000000E+00 -0.44665929519E+03  0.44665929519E+03  0.00000000000E+00 0.  1.
         24    2    1    2    0    0 -0.54806268760E+03 -0.54945012694E+03  0.59812007400E+03  0.98302372822E+03  0.79497646372E+02 0.  0.
        254    2    1    2    0    0  0.54806268760E+03  0.54945012694E+03  0.11778516070E+04  0.16862665431E+04  0.92406292800E+03 0.  0.
         23    2    4    4    0    0 -0.23516071333E+03  0.45788271678E+02  0.15253841562E+03  0.29815252832E+03  0.90718437947E+02 0.  0.
         23    2    4    4    0    0  0.78322340093E+03  0.50366185526E+03  0.10253131913E+04  0.13881140148E+04  0.92082666928E+02 0.  0.
          4    1    3    3  502    0 -0.46448557706E+03 -0.42108221468E+03  0.48058554710E+03  0.78994908121E+03  0.00000000000E+00 0. -1.
         -3    1    3    3    0  502 -0.83577110536E+02 -0.12836791226E+03  0.11753452691E+03  0.19307464701E+03  0.00000000000E+00 0.  1.
         13    1    5    5    0    0 -0.41339749687E+02  0.40092422077E+02  0.60455660825E+02  0.83494096426E+02  0.00000000000E+00 0.  1.
        -13    1    5    5    0    0 -0.19382096365E+03  0.56958496007E+01  0.92082754797E+02  0.21465843189E+03  0.00000000000E+00 0. -1.
          2    1    6    6  503    0  0.63335262641E+03  0.40825050227E+03  0.88044360766E+03  0.11588722830E+04  0.00000000000E+00 0. -1.
         -2    1    6    6    0  503  0.14987077452E+03  0.95411352988E+02  0.14486958367E+03  0.22924173182E+03  0.00000000000E+00 0.  1.
<mgrwt>
<rscale>  0 0.19927456E+04</rscale>
<asrwt>0</asrwt>
<pdfrwt beam="1">  1        2 0.34194322E+00 0.19927456E+04</pdfrwt>
<pdfrwt beam="2">  1       -1 0.68716816E-01 0.19927456E+04</pdfrwt>
<totfact> 0.11373709E+01</totfact>
</mgrwt>
</event>
<event>
12    7  0.1730932E-007  0.1597004E+04  0.7818608E-02  0.8822391E-01
         -1   -1    0    0    0  501 -0.00000000000E+00  0.00000000000E+00  0.36951053475E+03  0.36951053475E+03  0.00000000000E+00 0.  1.
          2   -1    0    0  501    0  0.00000000000E+00 -0.00000000000E+00 -0.17255406065E+04  0.17255406065E+04  0.00000000000E+00 0. -1.
         24    2    1    2    0    0  0.23848843997E+02  0.72103507896E+02 -0.11442754261E+04  0.11495891746E+04  0.80133240930E+02 0.  0.
        254    2    1    2    0    0 -0.23848843997E+02 -0.72103507896E+02 -0.21175464562E+03  0.94546196664E+03  0.91830856318E+03 0.  0.
         23    2    4    4    0    0  0.15057959756E+03 -0.19686415178E+03 -0.50596393177E+03  0.57102556867E+03  0.92956927463E+02 0.  0.
         23    2    4    4    0    0 -0.17442844156E+03  0.12476064388E+03  0.29420928616E+03  0.37443639797E+03  0.87481498463E+02 0.  0.
          4    1    3    3  502    0  0.32494027824E+02  0.72376151626E+02 -0.11307808450E+04  0.11335605359E+04  0.00000000000E+00 0. -1.
         -1    1    3    3    0  502 -0.86451838266E+01 -0.27264373026E+00 -0.13494581094E+02  0.16028638648E+02  0.00000000000E+00 0.  1.
         13    1    5    5    0    0  0.48380668400E+02 -0.10984863188E+03 -0.16062558747E+03  0.20051930170E+03  0.00000000000E+00 0. -1.
        -13    1    5    5    0    0  0.10219892916E+03 -0.87015519895E+02 -0.34533834430E+03  0.37050626698E+03  0.00000000000E+00 0.  1.
          2    1    6    6  503    0 -0.11323414358E+03  0.48301161380E+02  0.21795091181E+03  0.25031494846E+03  0.00000000000E+00 0.  1.
         -2    1    6    6    0  503 -0.61194297986E+02  0.76459482501E+02  0.76258374349E+02  0.12412144951E+03  0.00000000000E+00 0. -1.
<mgrwt>
<rscale>  0 0.15970040E+04</rscale>
<asrwt>0</asrwt>
<pdfrwt beam="1">  1        2 0.26546779E+00 0.15970040E+04</pdfrwt>
<pdfrwt beam="2">  1       -1 0.56847774E-01 0.15970040E+04</pdfrwt>
<totfact> 0.32485413E+01</totfact>
</mgrwt>
</event>
<event>
12    7  0.1730932E-007  0.1727701E+04  0.7818608E-02  0.8745721E-01
         -1   -1    0    0    0  501 -0.00000000000E+00  0.00000000000E+00  0.47630222808E+03  0.47630222808E+03  0.00000000000E+00 0.  1.
          2   -1    0    0  501    0  0.00000000000E+00 -0.00000000000E+00 -0.15667315989E+04  0.15667315989E+04  0.00000000000E+00 0. -1.
         24    2    1    2    0    0 -0.51496338988E+02 -0.26432907839E+03  0.28118961117E+03  0.39743538584E+03  0.79784421274E+02 0.  0.
        254    2    1    2    0    0  0.51496338988E+02  0.26432907839E+03 -0.13716189820E+04  0.16455984411E+04  0.86840881103E+03 0.  0.
         23    2    4    4    0    0 -0.17147271138E+03 -0.14904302449E+03 -0.62792916043E+02  0.25210672376E+03  0.89432298191E+02 0.  0.
         23    2    4    4    0    0  0.22296905037E+03  0.41337210288E+03 -0.13088260659E+04  0.13934917174E+04  0.90563804170E+02 0.  0.
          4    1    3    3  502    0 -0.82319652919E+01 -0.12329182699E+03  0.77230830422E+02  0.14571630322E+03  0.00000000000E+00 0. -1.
         -3    1    3    3    0  502 -0.43264373696E+02 -0.14103725140E+03  0.20395878075E+03  0.25171908262E+03  0.00000000000E+00 0.  1.
         13    1    5    5    0    0 -0.16364636554E+03 -0.11268897222E+03 -0.75872588940E+02  0.21268659377E+03  0.00000000000E+00 0. -1.
        -13    1    5    5    0    0 -0.78263458437E+01 -0.36354052265E+02  0.13079672896E+02  0.39420129990E+02  0.00000000000E+00 0.  1.
          2    1    6    6  503    0  0.18974992464E+03  0.26636532982E+03 -0.86376249035E+03  0.92360227510E+03  0.00000000000E+00 0. -1.
         -2    1    6    6    0  503  0.33219125734E+02  0.14700677306E+03 -0.44506357557E+03  0.46988944225E+03  0.00000000000E+00 0.  1.
<mgrwt>
<rscale>  0 0.17277011E+04</rscale>
<asrwt>0</asrwt>
<pdfrwt beam="1">  1        2 0.24103563E+00 0.17277011E+04</pdfrwt>
<pdfrwt beam="2">  1       -1 0.73277266E-01 0.17277011E+04</pdfrwt>
<totfact> 0.23635476E+01</totfact>
</mgrwt>
</event>
<event>
12    7  0.1730932E-007  0.1937794E+04  0.7818608E-02  0.8636269E-01
         -3   -1    0    0    0  501 -0.00000000000E+00  0.00000000000E+00  0.45688967918E+03  0.45688967918E+03  0.00000000000E+00 0.  1.
          2   -1    0    0  501    0  0.00000000000E+00 -0.00000000000E+00 -0.20546782368E+04  0.20546782368E+04  0.00000000000E+00 0. -1.
         24    2    1    2    0    0  0.17518154531E+03 -0.56818609033E+03 -0.11982648433E+04  0.13400467386E+04  0.79766032644E+02 0.  0.
        254    2    1    2    0    0 -0.17518154531E+03  0.56818609033E+03 -0.39952371432E+03  0.11715211773E+04  0.92699442480E+03 0.  0.
         23    2    4    4    0    0 -0.28729688090E+03 -0.16882261052E+03 -0.79152639824E+02  0.35488012820E+03  0.92920360543E+02 0.  0.
         23    2    4    4    0    0  0.11211533559E+03  0.73700870084E+03 -0.32037107450E+03  0.81664104915E+03  0.92267568437E+02 0.  0.
          4    1    3    3  502    0  0.70819275626E+02 -0.34643459335E+03 -0.74936883001E+03  0.82860481573E+03  0.00000000000E+00 0. -1.
         -3    1    3    3    0  502  0.10436226969E+03 -0.22175149698E+03 -0.44889601329E+03  0.51144192290E+03  0.00000000000E+00 0.  1.
         13    1    5    5    0    0 -0.23547577463E+03 -0.11900847678E+03 -0.96502017654E+02  0.28093504124E+03  0.00000000000E+00 0.  1.
        -13    1    5    5    0    0 -0.51821106267E+02 -0.49814133734E+02  0.17349377830E+02  0.73945086960E+02  0.00000000000E+00 0. -1.
          4    1    6    6  503    0  0.61560772167E+02  0.29582329863E+03 -0.17604349056E+03  0.34970339325E+03  0.00000000000E+00 0. -1.
         -4    1    6    6    0  503  0.50554563420E+02  0.44118540221E+03 -0.14432758393E+03  0.46693765590E+03  0.00000000000E+00 0.  1.
<mgrwt>
<rscale>  0 0.19377939E+04</rscale>
<asrwt>0</asrwt>
<pdfrwt beam="1">  1        2 0.31610434E+00 0.19377939E+04</pdfrwt>
<pdfrwt beam="2">  1       -3 0.70290720E-01 0.19377939E+04</pdfrwt>
<totfact> 0.72017488E+00</totfact>
</mgrwt>
</event>
<event>
12    7  0.1730932E-007  0.1627416E+04  0.7818608E-02  0.8803880E-01
         -1   -1    0    0    0  501 -0.00000000000E+00  0.00000000000E+00  0.43884082611E+03  0.43884082611E+03  0.00000000000E+00 0.  1.
          2   -1    0    0  501    0  0.00000000000E+00 -0.00000000000E+00 -0.15087950913E+04  0.15087950913E+04  0.00000000000E+00 0. -1.
         24    2    1    2    0    0  0.21701548982E+03 -0.40948364563E+03 -0.75016048617E+03  0.88526226956E+03  0.78587225671E+02 0.  0.
        254    2    1    2    0    0 -0.21701548982E+03  0.40948364563E+03 -0.31979377899E+03  0.10623736478E+04  0.90088685618E+03 0.  0.
         23    2    4    4    0    0 -0.41201885381E+03 -0.45152296863E+02 -0.36224135611E+03  0.55776863507E+03  0.89937669413E+02 0.  0.
         23    2    4    4    0    0  0.19500336400E+03  0.45463594250E+03  0.42447577127E+02  0.50460501275E+03  0.90023718599E+02 0.  0.
          2    1    3    3  502    0  0.10336729183E+03 -0.19038809265E+03 -0.42507312507E+03  0.47709494285E+03  0.00000000000E+00 0. -1.
         -3    1    3    3    0  502  0.11364819799E+03 -0.21909555299E+03 -0.32508736110E+03  0.40816732671E+03  0.00000000000E+00 0.  1.
         13    1    5    5    0    0 -0.14736491906E+02 -0.81430514945E+01 -0.44911115970E+02  0.47963338280E+02  0.00000000000E+00 0.  1.
        -13    1    5    5    0    0 -0.39728236191E+03 -0.37009245369E+02 -0.31733024014E+03  0.50980529679E+03  0.00000000000E+00 0. -1.
          4    1    6    6  503    0  0.33478016714E+02  0.64980512557E+02 -0.25380865216E+02  0.77378504343E+02  0.00000000000E+00 0.  1.
         -4    1    6    6    0  503  0.16152534728E+03  0.38965542994E+03  0.67828442343E+02  0.42722650841E+03  0.00000000000E+00 0. -1.
<mgrwt>
<rscale>  0 0.16274162E+04</rscale>
<asrwt>0</asrwt>
<pdfrwt beam="1">  1        2 0.23212232E+00 0.16274162E+04</pdfrwt>
<pdfrwt beam="2">  1       -1 0.67513974E-01 0.16274162E+04</pdfrwt>
<totfact> 0.30402677E+01</totfact>
</mgrwt>
</event>
<event>
12    7  0.1730932E-007  0.1365167E+04  0.7818608E-02  0.8979426E-01
         -1   -1    0    0    0  501 -0.00000000000E+00  0.00000000000E+00  0.36644196173E+03  0.36644196173E+03  0.00000000000E+00 0.  1.
          2   -1    0    0  501    0  0.00000000000E+00 -0.00000000000E+00 -0.12714708558E+04  0.12714708558E+04  0.00000000000E+00 0. -1.
         24    2    1    2    0    0  0.11176644558E+03 -0.20184741409E+03  0.10476240619E+03  0.26714702847E+03  0.84606478095E+02 0.  0.
        254    2    1    2    0    0 -0.11176644558E+03  0.20184741409E+03 -0.10097913003E+04  0.13707657891E+04  0.89782306801E+03 0.  0.
         23    2    4    4    0    0 -0.29687658438E+03 -0.75137131992E+02 -0.97034003536E+03  0.10215802468E+04  0.91022642901E+02 0.  0.
         23    2    4    4    0    0  0.18511013880E+03  0.27698454608E+03 -0.39451264918E+02  0.34918554225E+03  0.96891374029E+02 0.  0.
          2    1    3    3  502    0  0.17950627896E+02 -0.41474135342E+02 -0.13180994408E+02  0.47075126742E+02  0.00000000000E+00 0. -1.
         -1    1    3    3    0  502  0.93815817685E+02 -0.16037327875E+03  0.11794340060E+03  0.22007190173E+03  0.00000000000E+00 0.  1.
         13    1    5    5    0    0 -0.26173236353E+02  0.16183696789E+02 -0.14388535620E+03  0.14713920644E+03  0.00000000000E+00 0.  1.
        -13    1    5    5    0    0 -0.27070334803E+03 -0.91320828780E+02 -0.82645467916E+03  0.87444104038E+03  0.00000000000E+00 0. -1.
          4    1    6    6  503    0  0.14569114438E+03  0.15456852300E+03 -0.55612427547E+02  0.21956793926E+03  0.00000000000E+00 0.  1.
         -4    1    6    6    0  503  0.39418994417E+02  0.12241602308E+03  0.16161162629E+02  0.12961760299E+03  0.00000000000E+00 0. -1.
<mgrwt>
<rscale>  0 0.13651671E+04</rscale>
<asrwt>0</asrwt>
<pdfrwt beam="1">  1        2 0.19561090E+00 0.13651671E+04</pdfrwt>
<pdfrwt beam="2">  1       -1 0.56375687E-01 0.13651671E+04</pdfrwt>
<totfact> 0.60839494E+01</totfact>
</mgrwt>
</event>
<event>
12    7  0.1730932E-007  0.1732059E+04  0.7818608E-02  0.8743288E-01
          2   -1    0    0  501    0  0.00000000000E+00  0.00000000000E+00  0.14706073972E+04  0.14706073972E+04  0.00000000000E+00 0. -1.
         -1   -1    0    0    0  501 -0.00000000000E+00 -0.00000000000E+00 -0.50999840426E+03  0.50999840426E+03  0.00000000000E+00 0.  1.
         24    2    1    2    0    0 -0.30963545916E+02 -0.34560376236E+03 -0.24182394884E+03  0.43007332856E+03  0.77997076700E+02 0.  0.
        254    2    1    2    0    0  0.30963545916E+02  0.34560376236E+03  0.12024329418E+04  0.15505324729E+04  0.91537165581E+03 0.  0.
         23    2    4    4    0    0 -0.37306004240E+03  0.11291348673E+03  0.21479638853E+03  0.45457363508E+03  0.92609127330E+02 0.  0.
         23    2    4    4    0    0  0.40402358831E+03  0.23269027563E+03  0.98763655325E+03  0.10959588378E+04  0.91213971303E+02 0.  0.
          4    1    3    3  502    0 -0.55897606638E+01 -0.96887816834E+02 -0.27755231959E+02  0.10093982057E+03  0.00000000000E+00 0. -1.
         -3    1    3    3    0  502 -0.25373785252E+02 -0.24871594553E+03 -0.21406871688E+03  0.32913350800E+03  0.00000000000E+00 0.  1.
         13    1    5    5    0    0 -0.26665396598E+03  0.42163532070E+02  0.17066124621E+03  0.31938591385E+03  0.00000000000E+00 0.  1.
        -13    1    5    5    0    0 -0.10640607642E+03  0.70749954659E+02  0.44135142318E+02  0.13518772123E+03  0.00000000000E+00 0. -1.
          2    1    6    6  503    0  0.70190861076E+02  0.70391392661E+01  0.18150266147E+03  0.19472935727E+03  0.00000000000E+00 0. -1.
         -2    1    6    6    0  503  0.33383272724E+03  0.22565113637E+03  0.80613389178E+03  0.90122948054E+03  0.00000000000E+00 0.  1.
<mgrwt>
<rscale>  0 0.17320594E+04</rscale>
<asrwt>0</asrwt>
<pdfrwt beam="1">  1        2 0.22624729E+00 0.17320594E+04</pdfrwt>
<pdfrwt beam="2">  1       -1 0.78461294E-01 0.17320594E+04</pdfrwt>
<totfact> 0.23192713E+01</totfact>
</mgrwt>
</event>
<event>
12    7  0.1730932E-007  0.1613447E+04  0.7818608E-02  0.8812330E-01
          2   -1    0    0  501    0  0.00000000000E+00  0.00000000000E+00  0.94868760505E+03  0.94868760505E+03  0.00000000000E+00 0. -1.
         -1   -1    0    0    0  501 -0.00000000000E+00 -0.00000000000E+00 -0.68600295928E+03  0.68600295928E+03  0.00000000000E+00 0.  1.
         24    2    1    2    0    0  0.17155680652E+03 -0.38616726985E+03 -0.27039372636E+03  0.50822855413E+03  0.81403917670E+02 0.  0.
        254    2    1    2    0    0 -0.17155680652E+03  0.38616726985E+03  0.53307837213E+03  0.11264620102E+04  0.89787928555E+03 0.  0.
         23    2    4    4    0    0  0.31299941259E+03  0.35900925613E+03  0.35333241786E+03  0.60082553258E+03  0.96391103426E+02 0.  0.
         23    2    4    4    0    0 -0.48455621911E+03  0.27158013719E+02  0.17974595427E+03  0.52563647762E+03  0.91939171904E+02 0.  0.
          2    1    3    3  502    0 -0.88808248874E+00 -0.45270428586E+02 -0.48849396097E+02  0.66606785644E+02  0.00000000000E+00 0. -1.
         -1    1    3    3    0  502  0.17244488901E+03 -0.34089684126E+03 -0.22154433027E+03  0.44162176849E+03  0.00000000000E+00 0.  1.
         13    1    5    5    0    0  0.24307971767E+03  0.22147940065E+03  0.26991735278E+03  0.42543654214E+03  0.00000000000E+00 0.  1.
        -13    1    5    5    0    0  0.69919694922E+02  0.13752985548E+03  0.83415065083E+02  0.17538899044E+03  0.00000000000E+00 0. -1.
          4    1    6    6  503    0 -0.41763215216E+02  0.29031060568E+02  0.13129700606E+02  0.52529588433E+02  0.00000000000E+00 0. -1.
         -4    1    6    6    0  503 -0.44279300390E+03 -0.18730468492E+01  0.16661625367E+03  0.47310688918E+03  0.00000000000E+00 0.  1.
<mgrwt>
<rscale>  0 0.16134466E+04</rscale>
<asrwt>0</asrwt>
<pdfrwt beam="1">  1        2 0.14595194E+00 0.16134466E+04</pdfrwt>
<pdfrwt beam="2">  1       -1 0.10553892E+00 0.16134466E+04</pdfrwt>
<totfact> 0.25022307E+01</totfact>
</mgrwt>
</event>
<event>
12    7  0.1730932E-007  0.1555235E+04  0.7818608E-02  0.8848531E-01
         -1   -1    0    0    0  501 -0.00000000000E+00  0.00000000000E+00  0.67162393537E+03  0.67162393537E+03  0.00000000000E+00 0.  1.
          2   -1    0    0  501    0  0.00000000000E+00 -0.00000000000E+00 -0.90033885246E+03  0.90033885246E+03  0.00000000000E+00 0. -1.
         24    2    1    2    0    0 -0.30600494463E+03  0.34926347052E+03  0.13818747859E+03  0.49115721210E+03  0.80719451017E+02 0.  0.
        254    2    1    2    0    0  0.30600494463E+03 -0.34926347052E+03 -0.36690239568E+03  0.10808055757E+04  0.90437786716E+03 0.  0.
         23    2    4    4    0    0  0.52107878247E+03 -0.38978455805E+03 -0.18667071370E+02  0.65802895163E+03  0.95909031877E+02 0.  0.
         23    2    4    4    0    0 -0.21507383783E+03  0.40521087532E+02 -0.34823532431E+03  0.42277662410E+03  0.97844358734E+02 0.  0.
          2    1    3    3  502    0 -0.17976201821E+03  0.23637236927E+03  0.53263202848E+02  0.30170059483E+03  0.00000000000E+00 0. -1.
         -1    1    3    3    0  502 -0.12624292643E+03  0.11289110125E+03  0.84924275743E+02  0.18945661727E+03  0.00000000000E+00 0.  1.
         13    1    5    5    0    0  0.17764131464E+03 -0.87340487052E+02 -0.30288102942E+02  0.20025525342E+03  0.00000000000E+00 0.  1.
        -13    1    5    5    0    0  0.34343746783E+03 -0.30244407100E+03  0.11621031572E+02  0.45777369821E+03  0.00000000000E+00 0. -1.
          2    1    6    6  503    0 -0.22205639261E+03  0.49481828746E+02 -0.33831823315E+03  0.40769684786E+03  0.00000000000E+00 0. -1.
         -2    1    6    6    0  503  0.69825547801E+01 -0.89607412142E+01 -0.99170911602E+01  0.15079776240E+02  0.00000000000E+00 0.  1.
<mgrwt>
<rscale>  0 0.15552352E+04</rscale>
<asrwt>0</asrwt>
<pdfrwt beam="1">  1        2 0.13851367E+00 0.15552352E+04</pdfrwt>
<pdfrwt beam="2">  1       -1 0.10332676E+00 0.15552352E+04</pdfrwt>
<totfact> 0.28450319E+01</totfact>
</mgrwt>
</event>
<event>
12    7  0.1730932E-007  0.1804497E+04  0.7818608E-02  0.8703912E-01
         -1   -1    0    0    0  501 -0.00000000000E+00  0.00000000000E+00  0.44202002221E+03  0.44202002221E+03  0.00000000000E+00 0.  1.
          2   -1    0    0  501    0  0.00000000000E+00 -0.00000000000E+00 -0.18416637698E+04  0.18416637698E+04  0.00000000000E+00 0. -1.
         24    2    1    2    0    0 -0.22921634042E+03 -0.53049019533E+03 -0.11386521122E+04  0.12793602243E+04  0.79208413598E+02 0.  0.
        254    2    1    2    0    0  0.22921634042E+03  0.53049019533E+03 -0.26099163545E+03  0.10043235678E+04  0.77883837667E+03 0.  0.
         23    2    4    4    0    0  0.14402525392E+03  0.79336574438E+02 -0.45898754261E+03  0.49616553965E+03  0.92049511938E+02 0.  0.
         23    2    4    4    0    0  0.85191086504E+02  0.45115362089E+03  0.19799590716E+03  0.50815802814E+03  0.90692289903E+02 0.  0.
          2    1    3    3  502    0 -0.18245399968E+03 -0.43647274690E+03 -0.85913552108E+03  0.98077100506E+03  0.00000000000E+00 0. -1.
         -1    1    3    3    0  502 -0.46762340742E+02 -0.94017448428E+02 -0.27951659110E+03  0.29858921920E+03  0.00000000000E+00 0.  1.
         13    1    5    5    0    0  0.13126345187E+03  0.38244633954E+02 -0.40295651270E+03  0.42551932618E+03  0.00000000000E+00 0. -1.
        -13    1    5    5    0    0  0.12761802046E+02  0.41091940484E+02 -0.56031029914E+02  0.70646213468E+02  0.00000000000E+00 0.  1.
          2    1    6    6  503    0  0.63968183962E+02  0.13598853440E+03  0.85139924202E+02  0.17272410585E+03  0.00000000000E+00 0.  1.
         -2    1    6    6    0  503  0.21222902542E+02  0.31516508649E+03  0.11285598296E+03  0.33543392229E+03  0.00000000000E+00 0. -1.
<mgrwt>
<rscale>  0 0.18044969E+04</rscale>
<asrwt>0</asrwt>
<pdfrwt beam="1">  1        2 0.28333289E+00 0.18044969E+04</pdfrwt>
<pdfrwt beam="2">  1       -1 0.68003080E-01 0.18044969E+04</pdfrwt>
<totfact> 0.19251344E+01</totfact>
</mgrwt>
</event>
<event>
12    7  0.1730932E-007  0.2396312E+04  0.7818608E-02  0.8440886E-01
         -1   -1    0    0    0  501 -0.00000000000E+00  0.00000000000E+00  0.73343448459E+03  0.73343448459E+03  0.00000000000E+00 0.  1.
          2   -1    0    0  501    0  0.00000000000E+00 -0.00000000000E+00 -0.19573364141E+04  0.19573364141E+04  0.00000000000E+00 0. -1.
         24    2    1    2    0    0  0.65128007452E+03  0.76929193417E+03 -0.49919417987E+03  0.11275894804E+04  0.79293074215E+02 0.  0.
        254    2    1    2    0    0 -0.65128007452E+03 -0.76929193417E+03 -0.72470774960E+03  0.15631814183E+04  0.94992579111E+03 0.  0.
         23    2    4    4    0    0 -0.28316571456E+03 -0.21084368568E+03 -0.80478627099E+03  0.88360464729E+03  0.91860486943E+02 0.  0.
         23    2    4    4    0    0 -0.36811435996E+03 -0.55844824850E+03  0.80078521389E+02  0.67957677097E+03  0.89662644361E+02 0.  0.
          4    1    3    3  502    0  0.57632859478E+02  0.57257945462E+02 -0.64291981316E+02  0.10360249838E+03  0.00000000000E+00 0. -1.
         -3    1    3    3    0  502  0.59364721504E+03  0.71203398871E+03 -0.43490219855E+03  0.10239869820E+04  0.00000000000E+00 0.  1.
         13    1    5    5    0    0 -0.10817193869E+03 -0.28239563109E+02 -0.23814345213E+03  0.26307973133E+03  0.00000000000E+00 0. -1.
        -13    1    5    5    0    0 -0.17499377587E+03 -0.18260412257E+03 -0.56664281885E+03  0.62052491596E+03  0.00000000000E+00 0.  1.
          3    1    6    6  503    0 -0.29738184235E+03 -0.50478352110E+03  0.64112359643E+02  0.58936640385E+03  0.00000000000E+00 0. -1.
         -3    1    6    6    0  503 -0.70732517610E+02 -0.53664727401E+02  0.15966161747E+02  0.90210367117E+02  0.00000000000E+00 0.  1.
<mgrwt>
<rscale>  0 0.23963122E+04</rscale>
<asrwt>0</asrwt>
<pdfrwt beam="1">  1        2 0.30112868E+00 0.23963122E+04</pdfrwt>
<pdfrwt beam="2">  1       -1 0.11283608E+00 0.23963122E+04</pdfrwt>
<totfact> 0.51888744E+00</totfact>
</mgrwt>
</event>
<event>
12    7  0.1730932E-007  0.2095157E+04  0.7818608E-02  0.8563380E-01
         -3   -1    0    0    0  501 -0.00000000000E+00  0.00000000000E+00  0.10291246726E+04  0.10291246726E+04  0.00000000000E+00 0.  1.
          2   -1    0    0  501    0  0.00000000000E+00 -0.00000000000E+00 -0.10663631860E+04  0.10663631860E+04  0.00000000000E+00 0. -1.
         24    2    1    2    0    0 -0.35936246831E+02 -0.40607781340E+03 -0.76159800687E+03  0.86759190711E+03  0.80582807360E+02 0.  0.
        254    2    1    2    0    0  0.35936246831E+02  0.40607781340E+03  0.72435949344E+03  0.12278959515E+04  0.90379266851E+03 0.  0.
         23    2    4    4    0    0  0.25981451028E+03 -0.13897784490E+03  0.25512088299E+02  0.30967069209E+03  0.91796785148E+02 0.  0.
         23    2    4    4    0    0 -0.22387826345E+03  0.54505565830E+03  0.69884740514E+03  0.91822525943E+03  0.86849202076E+02 0.  0.
          2    1    3    3  502    0  0.11108539243E+02 -0.18409998823E+03 -0.40353999020E+03  0.44368990184E+03  0.00000000000E+00 0. -1.
         -1    1    3    3    0  502 -0.47044786074E+02 -0.22197782517E+03 -0.35805801667E+03  0.42390200526E+03  0.00000000000E+00 0.  1.
         13    1    5    5    0    0  0.28427060484E+01 -0.20043998001E+01  0.18044859819E+02  0.18377038992E+02  0.00000000000E+00 0. -1.
        -13    1    5    5    0    0  0.25697180423E+03 -0.13697344510E+03  0.74672284803E+01  0.29129365310E+03  0.00000000000E+00 0.  1.
          1    1    6    6  503    0 -0.10591801023E+03  0.18196380638E+03  0.29568537595E+03  0.36298662960E+03  0.00000000000E+00 0. -1.
         -1    1    6    6    0  503 -0.11796025322E+03  0.36309185192E+03  0.40316202919E+03  0.55523862983E+03  0.00000000000E+00 0.  1.
<mgrwt>
<rscale>  0 0.20951570E+04</rscale>
<asrwt>0</asrwt>
<pdfrwt beam="1">  1        2 0.16405588E+00 0.20951570E+04</pdfrwt>
<pdfrwt beam="2">  1       -3 0.15832687E+00 0.20951570E+04</pdfrwt>
<totfact> 0.37255985E+00</totfact>
</mgrwt>
</event>
<event>
12    7  0.1730932E-007  0.1508011E+04  0.7818608E-02  0.8879143E-01
         -1   -1    0    0    0  501 -0.00000000000E+00  0.00000000000E+00  0.52271494913E+03  0.52271494913E+03  0.00000000000E+00 0.  1.
          2   -1    0    0  501    0  0.00000000000E+00 -0.00000000000E+00 -0.10876369847E+04  0.10876369847E+04  0.00000000000E+00 0. -1.
         24    2    1    2    0    0  0.27746896317E+02 -0.35954471752E+03  0.15806201058E+03  0.40188573868E+03  0.80537280900E+02 0.  0.
        254    2    1    2    0    0 -0.27746896317E+02  0.35954471752E+03 -0.72298404619E+03  0.12084661952E+04  0.89868922310E+03 0.  0.
         23    2    4    4    0    0  0.16738313521E+03  0.60535735650E+02 -0.80447759658E+03  0.82994560777E+03  0.99718700382E+02 0.  0.
         23    2    4    4    0    0 -0.19513003152E+03  0.29900898187E+03  0.81493550400E+02  0.37852058741E+03  0.95679338935E+02 0.  0.
          4    1    3    3  502    0  0.35293980289E+02 -0.22974008547E+03  0.13802321028E+03  0.27032679943E+03  0.00000000000E+00 0. -1.
         -3    1    3    3    0  502 -0.75470839726E+01 -0.12980463205E+03  0.20038800298E+02  0.13155893924E+03  0.00000000000E+00 0.  1.
         13    1    5    5    0    0  0.35126082370E+02  0.42949341961E+02 -0.11509451226E+03  0.12777024063E+03  0.00000000000E+00 0. -1.
        -13    1    5    5    0    0  0.13225705284E+03  0.17586393689E+02 -0.68938308432E+03  0.70217536714E+03  0.00000000000E+00 0.  1.
          2    1    6    6  503    0 -0.12138305128E+02  0.19920262873E+02  0.34283141102E+02  0.41466722660E+02  0.00000000000E+00 0. -1.
         -2    1    6    6    0  503 -0.18299172639E+03  0.27908871899E+03  0.47210409298E+02  0.33705386475E+03  0.00000000000E+00 0.  1.
<mgrwt>
<rscale>  0 0.15080108E+04</rscale>
<asrwt>0</asrwt>
<pdfrwt beam="1">  1        2 0.16732877E+00 0.15080108E+04</pdfrwt>
<pdfrwt beam="2">  1       -1 0.80417685E-01 0.15080108E+04</pdfrwt>
<totfact> 0.37681311E+01</totfact>
</mgrwt>
</event>
<event>
12    7  0.1730932E-007  0.1477055E+04  0.7818608E-02  0.8899856E-01
          2   -1    0    0  501    0  0.00000000000E+00  0.00000000000E+00  0.17036827210E+04  0.17036827210E+04  0.00000000000E+00 0. -1.
         -1   -1    0    0    0  501 -0.00000000000E+00 -0.00000000000E+00 -0.32014324280E+03  0.32014324280E+03  0.00000000000E+00 0.  1.
         24    2    1    2    0    0  0.29658223074E+03 -0.21438073320E+03  0.51112683468E+02  0.37750535044E+03  0.77315359674E+02 0.  0.
        254    2    1    2    0    0 -0.29658223074E+03  0.21438073320E+03  0.13324267947E+04  0.16463206133E+04  0.89503646870E+03 0.  0.
         23    2    4    4    0    0  0.18413246633E+03  0.14115280395E+02  0.10013814440E+04  0.10223937417E+04  0.91761431200E+02 0.  0.
         23    2    4    4    0    0 -0.48071469706E+03  0.20026545281E+03  0.33104535065E+03  0.62392687165E+03  0.92200029385E+02 0.  0.
          4    1    3    3  502    0  0.34298391381E+02  0.12881762121E+01  0.76848248618E+01  0.35172369588E+02  0.00000000000E+00 0. -1.
         -3    1    3    3    0  502  0.26228383936E+03 -0.21566890941E+03  0.43427858606E+02  0.34233298085E+03  0.00000000000E+00 0.  1.
         13    1    5    5    0    0  0.13795409160E+03  0.50201633351E+02  0.67325354212E+03  0.68907319449E+03  0.00000000000E+00 0. -1.
        -13    1    5    5    0    0  0.46178374729E+02 -0.36086352956E+02  0.32812790191E+03  0.33332054719E+03  0.00000000000E+00 0.  1.
          3    1    6    6  503    0 -0.17983772342E+03  0.56928287968E+02  0.72352606286E+02  0.20203300813E+03  0.00000000000E+00 0. -1.
         -3    1    6    6    0  503 -0.30087697364E+03  0.14333716484E+03  0.25869274436E+03  0.42189386352E+03  0.00000000000E+00 0.  1.
<mgrwt>
<rscale>  0 0.14770545E+04</rscale>
<asrwt>0</asrwt>
<pdfrwt beam="1">  1        2 0.26210503E+00 0.14770545E+04</pdfrwt>
<pdfrwt beam="2">  1       -1 0.49252807E-01 0.14770545E+04</pdfrwt>
<totfact> 0.44453460E+01</totfact>
</mgrwt>
</event>
<event>
12    7  0.1730932E-007  0.4208157E+04  0.7818608E-02  0.7963822E-01
          2   -1    0    0  501    0  0.00000000000E+00  0.00000000000E+00  0.15203048444E+04  0.15203048444E+04  0.00000000000E+00 0. -1.
         -1   -1    0    0    0  501 -0.00000000000E+00 -0.00000000000E+00 -0.29120117758E+04  0.29120117758E+04  0.00000000000E+00 0.  1.
         24    2    1    2    0    0  0.47998385781E+03  0.17981154093E+04 -0.14510157706E+04  0.23612134545E+04  0.79238135607E+02 0.  0.
        254    2    1    2    0    0 -0.47998385781E+03 -0.17981154093E+04  0.59308839193E+02  0.20711031657E+04  0.90683364278E+03 0.  0.
         23    2    4    4    0    0  0.45011778611E+01  0.83126959073E+02 -0.15894085064E+02  0.12511748476E+03  0.92040269044E+02 0.  0.
         23    2    4    4    0    0 -0.48448503567E+03 -0.18812423684E+04  0.75202924257E+02  0.19459856809E+04  0.86059237072E+02 0.  0.
          4    1    3    3  502    0  0.31341544881E+03  0.11001564496E+04 -0.93394524445E+03  0.14767623969E+04  0.00000000000E+00 0. -1.
         -3    1    3    3    0  502  0.16656840900E+03  0.69795895969E+03 -0.51707052618E+03  0.88445105763E+03  0.00000000000E+00 0.  1.
         13    1    5    5    0    0  0.24701529206E+02  0.51733131831E+02  0.31004600840E+02  0.65174901207E+02  0.00000000000E+00 0. -1.
        -13    1    5    5    0    0 -0.20200351345E+02  0.31393827243E+02 -0.46898685904E+02  0.59942583553E+02  0.00000000000E+00 0.  1.
          1    1    6    6  503    0 -0.17867681734E+03 -0.55701223926E+03  0.27735444134E+01  0.58497498433E+03  0.00000000000E+00 0. -1.
         -1    1    6    6    0  503 -0.30580821833E+03 -0.13242301291E+04  0.72429379844E+02  0.13610106966E+04  0.00000000000E+00 0.  1.
<mgrwt>
<rscale>  0 0.42081567E+04</rscale>
<asrwt>0</asrwt>
<pdfrwt beam="1">  1        2 0.23389306E+00 0.42081567E+04</pdfrwt>
<pdfrwt beam="2">  1       -1 0.44800181E+00 0.42081567E+04</pdfrwt>
<totfact> 0.36502383E-02</totfact>
</mgrwt>
</event>
<event>
12    7  0.1730932E-007  0.1248994E+04  0.7818608E-02  0.9071021E-01
         -1   -1    0    0    0  501 -0.00000000000E+00  0.00000000000E+00  0.55855952459E+03  0.55855952459E+03  0.00000000000E+00 0.  1.
          2   -1    0    0  501    0  0.00000000000E+00 -0.00000000000E+00 -0.69821829549E+03  0.69821829549E+03  0.00000000000E+00 0. -1.
         24    2    1    2    0    0 -0.38035203284E+02 -0.20056209414E+03  0.18623474761E+03  0.28739493502E+03  0.78997703518E+02 0.  0.
        254    2    1    2    0    0  0.38035203284E+02  0.20056209414E+03 -0.32589351851E+03  0.96938288505E+03  0.88984535855E+03 0.  0.
         23    2    4    4    0    0  0.33410570924E+03  0.39269382074E+03 -0.80295846401E+02  0.52979330106E+03  0.91643096322E+02 0.  0.
         23    2    4    4    0    0 -0.29607050596E+03 -0.19213172660E+03 -0.24559767211E+03  0.43958958399E+03  0.91369803265E+02 0.  0.
          2    1    3    3  502    0 -0.47334175360E+02 -0.73125129690E+02  0.49246142171E+02  0.10006493526E+03  0.00000000000E+00 0. -1.
         -1    1    3    3    0  502  0.92989720760E+01 -0.12743696445E+03  0.13698860544E+03  0.18732999976E+03  0.00000000000E+00 0.  1.
         13    1    5    5    0    0  0.26255135995E+03  0.35741975568E+03 -0.60488200269E+02  0.44759459417E+03  0.00000000000E+00 0. -1.
        -13    1    5    5    0    0  0.71554349296E+02  0.35274065063E+02 -0.19807646132E+02  0.82198706891E+02  0.00000000000E+00 0.  1.
          2    1    6    6  503    0 -0.58174152593E+02 -0.84108671296E+02 -0.84346451462E+02  0.13256253050E+03  0.00000000000E+00 0. -1.
         -2    1    6    6    0  503 -0.23789635336E+03 -0.10802305530E+03 -0.16125122064E+03  0.30702705350E+03  0.00000000000E+00 0.  1.
<mgrwt>
<rscale>  0 0.12489940E+04</rscale>
<asrwt>0</asrwt>
<pdfrwt beam="1">  1        2 0.10741820E+00 0.12489940E+04</pdfrwt>
<pdfrwt beam="2">  1       -1 0.85932235E-01 0.12489940E+04</pdfrwt>
<totfact> 0.61773640E+01</totfact>
</mgrwt>
</event>
<event>
12    7  0.1730932E-007  0.1367416E+04  0.7818608E-02  0.8977748E-01
          2   -1    0    0  501    0  0.00000000000E+00  0.00000000000E+00  0.22342671903E+03  0.22342671903E+03  0.00000000000E+00 0. -1.
         -1   -1    0    0    0  501 -0.00000000000E+00 -0.00000000000E+00 -0.20922154694E+04  0.20922154694E+04  0.00000000000E+00 0.  1.
         24    2    1    2    0    0  0.12188417864E+01  0.18821121590E+03  0.30841150731E+02  0.20631114811E+03  0.78664896194E+02 0.  0.
        254    2    1    2    0    0 -0.12188417864E+01 -0.18821121590E+03 -0.18996299011E+04  0.21093310403E+04  0.89736209477E+03 0.  0.
         23    2    4    4    0    0  0.39522828001E+03  0.64883182424E+02 -0.63033334208E+03  0.75275524902E+03  0.94366954533E+02 0.  0.
         23    2    4    4    0    0 -0.39644712179E+03 -0.25309439832E+03 -0.12692965590E+04  0.13565757913E+04  0.89202174616E+02 0.  0.
          2    1    3    3  502    0  0.20301449928E+02  0.17399986723E+03  0.11338901119E+02  0.17554678392E+03  0.00000000000E+00 0. -1.
         -1    1    3    3    0  502 -0.19082608142E+02  0.14211348664E+02  0.19502249612E+02  0.30764364194E+02  0.00000000000E+00 0.  1.
         13    1    5    5    0    0  0.20080378942E+03  0.60825764252E+02 -0.25664172111E+03  0.33149194327E+03  0.00000000000E+00 0. -1.
        -13    1    5    5    0    0  0.19442449059E+03  0.40574181715E+01 -0.37369162097E+03  0.42126330574E+03  0.00000000000E+00 0.  1.
          1    1    6    6  503    0 -0.13892807258E+03 -0.13258030298E+03 -0.57906670723E+03  0.61007933706E+03  0.00000000000E+00 0. -1.
         -1    1    6    6    0  503 -0.25751904921E+03 -0.12051409534E+03 -0.69022985179E+03  0.74649645423E+03  0.00000000000E+00 0.  1.
<mgrwt>
<rscale>  0 0.13674163E+04</rscale>
<asrwt>0</asrwt>
<pdfrwt beam="1">  1        2 0.34373342E-01 0.13674163E+04</pdfrwt>
<pdfrwt beam="2">  1       -1 0.32187930E+00 0.13674163E+04</pdfrwt>
<totfact> 0.40851584E+00</totfact>
</mgrwt>
</event>
<event>
12    7  0.1730932E-007  0.1439908E+04  0.7818608E-02  0.8925427E-01
          2   -1    0    0  501    0  0.00000000000E+00  0.00000000000E+00  0.94661801508E+03  0.94661801508E+03  0.00000000000E+00 0. -1.
         -1   -1    0    0    0  501 -0.00000000000E+00 -0.00000000000E+00 -0.54756376991E+03  0.54756376991E+03  0.00000000000E+00 0.  1.
         24    2    1    2    0    0  0.33430643255E+03  0.27077533392E+03  0.59233292978E+02  0.44151849699E+03  0.79686434735E+02 0.  0.
        254    2    1    2    0    0 -0.33430643255E+03 -0.27077533392E+03  0.33982095219E+03  0.10526632880E+04  0.89863320996E+03 0.  0.
         23    2    4    4    0    0  0.22281289310E+03  0.15419712945E+03  0.15490991281E+03  0.32234749732E+03  0.80551150691E+02 0.  0.
         23    2    4    4    0    0 -0.55711932566E+03 -0.42497246336E+03  0.18491103938E+03  0.73031579068E+03  0.90473885723E+02 0.  0.
          4    1    3    3  502    0  0.13862032333E+03  0.69122688321E+02  0.28491578281E+01  0.15492468422E+03  0.00000000000E+00 0. -1.
         -3    1    3    3    0  502  0.19568610922E+03  0.20165264560E+03  0.56384135150E+02  0.28659381276E+03  0.00000000000E+00 0.  1.
         13    1    5    5    0    0  0.94830672018E+02  0.82874070833E+02  0.29168247805E+02  0.12927395195E+03  0.00000000000E+00 0. -1.
        -13    1    5    5    0    0  0.12798222108E+03  0.71323058612E+02  0.12574166501E+03  0.19307354537E+03  0.00000000000E+00 0.  1.
          2    1    6    6  503    0 -0.14764535306E+03 -0.15119342148E+03  0.84634897834E+02  0.22764372803E+03  0.00000000000E+00 0. -1.
         -2    1    6    6    0  503 -0.40947397260E+03 -0.27377904188E+03  0.10027614154E+03  0.50267206265E+03  0.00000000000E+00 0.  1.
<mgrwt>
<rscale>  0 0.14399080E+04</rscale>
<asrwt>0</asrwt>
<pdfrwt beam="1">  1        2 0.14563354E+00 0.14399080E+04</pdfrwt>
<pdfrwt beam="2">  1       -1 0.84240581E-01 0.14399080E+04</pdfrwt>
<totfact> 0.42201953E+01</totfact>
</mgrwt>
</event>
<event>
12    7  0.1730932E-007  0.1767882E+04  0.7818608E-02  0.8723568E-01
          2   -1    0    0  501    0  0.00000000000E+00  0.00000000000E+00  0.37283702055E+03  0.37283702055E+03  0.00000000000E+00 0. -1.
         -1   -1    0    0    0  501 -0.00000000000E+00 -0.00000000000E+00 -0.20956926783E+04  0.20956926783E+04  0.00000000000E+00 0.  1.
         24    2    1    2    0    0  0.61514417048E+03 -0.11964506400E+03 -0.88581543828E+03  0.10878845909E+04  0.78144740824E+02 0.  0.
        254    2    1    2    0    0 -0.61514417048E+03  0.11964506400E+03 -0.83704021945E+03  0.13806451080E+04  0.90156935028E+03 0.  0.
         23    2    4    4    0    0 -0.68458495535E+03  0.35426358847E+03 -0.40348521942E+03  0.87484032389E+03  0.91575208474E+02 0.  0.
         23    2    4    4    0    0  0.69440784872E+02 -0.23461852447E+03 -0.43355500003E+03  0.50580478407E+03  0.89446447183E+02 0.  0.
          2    1    3    3  502    0  0.73546221003E+02 -0.26825815663E+02 -0.15377666057E+03  0.17255704085E+03  0.00000000000E+00 0. -1.
         -1    1    3    3    0  502  0.54159794948E+03 -0.92819248333E+02 -0.73203877770E+03  0.91532755001E+03  0.00000000000E+00 0.  1.
         13    1    5    5    0    0 -0.64934850307E+02  0.18772200921E+02 -0.62374368074E+02  0.91975497305E+02  0.00000000000E+00 0.  1.
        -13    1    5    5    0    0 -0.61965010505E+03  0.33549138754E+03 -0.34111085135E+03  0.78286482659E+03  0.00000000000E+00 0. -1.
          4    1    6    6  503    0  0.38143902636E+02 -0.12222427386E+03 -0.31233488725E+03  0.33756008683E+03  0.00000000000E+00 0. -1.
         -4    1    6    6    0  503  0.31296882236E+02 -0.11239425061E+03 -0.12122011278E+03  0.16824469724E+03  0.00000000000E+00 0.  1.
<mgrwt>
<rscale>  0 0.17678821E+04</rscale>
<asrwt>0</asrwt>
<pdfrwt beam="1">  1        2 0.57359542E-01 0.17678821E+04</pdfrwt>
<pdfrwt beam="2">  1       -1 0.32241426E+00 0.17678821E+04</pdfrwt>
<totfact> 0.22033784E+00</totfact>
</mgrwt>
</event>
<event>
12    7  0.1730932E-007  0.1635016E+04  0.7818608E-02  0.8799320E-01
         -1   -1    0    0    0  501 -0.00000000000E+00  0.00000000000E+00  0.47264514587E+03  0.47264514587E+03  0.00000000000E+00 0.  1.
          2   -1    0    0  501    0  0.00000000000E+00 -0.00000000000E+00 -0.14139987931E+04  0.14139987931E+04  0.00000000000E+00 0. -1.
         24    2    1    2    0    0  0.68523591053E+01 -0.42946295832E+03 -0.75105616033E+03  0.86813969528E+03  0.71384782362E+02 0.  0.
        254    2    1    2    0    0 -0.68523591053E+01  0.42946295832E+03 -0.19029748691E+03  0.10185042437E+04  0.90368820593E+03 0.  0.
         23    2    4    4    0    0 -0.31947739481E+03  0.45037385281E+03 -0.34493179083E+03  0.65749394915E+03  0.91749331048E+02 0.  0.
         23    2    4    4    0    0  0.31262503571E+03 -0.20910894494E+02  0.15463430392E+03  0.36101029456E+03  0.90801907298E+02 0.  0.
          2    1    3    3  502    0 -0.29035612419E+02 -0.16641156237E+03 -0.32103923579E+03  0.36276999021E+03  0.00000000000E+00 0. -1.
         -1    1    3    3    0  502  0.35887971524E+02 -0.26305139595E+03 -0.43001692454E+03  0.50536970507E+03  0.00000000000E+00 0.  1.
         13    1    5    5    0    0  0.39798549053E+01  0.57239174141E+01 -0.14250913618E+02  0.15864772755E+02  0.00000000000E+00 0.  1.
        -13    1    5    5    0    0 -0.32345724972E+03  0.44464993540E+03 -0.33068087721E+03  0.64162917639E+03  0.00000000000E+00 0. -1.
          1    1    6    6  503    0  0.30873801582E+03 -0.26779252111E+02  0.16294051939E+03  0.35012269794E+03  0.00000000000E+00 0. -1.
         -1    1    6    6    0  503  0.38870198922E+01  0.58683576166E+01 -0.83062154684E+01  0.10887596620E+02  0.00000000000E+00 0.  1.
<mgrwt>
<rscale>  0 0.16350164E+04</rscale>
<asrwt>0</asrwt>
<pdfrwt beam="1">  1        2 0.21753827E+00 0.16350164E+04</pdfrwt>
<pdfrwt beam="2">  1       -1 0.72714640E-01 0.16350164E+04</pdfrwt>
<totfact> 0.29530769E+01</totfact>
</mgrwt>
</event>
<event>
12    7  0.1730932E-007  0.1520603E+04  0.7818608E-02  0.8870866E-01
          2   -1    0    0  501    0  0.00000000000E+00  0.00000000000E+00  0.58435082942E+03  0.58435082942E+03  0.00000000000E+00 0. -1.
         -1   -1    0    0    0  501 -0.00000000000E+00 -0.00000000000E+00 -0.98923229004E+03  0.98923229004E+03  0.00000000000E+00 0.  1.
         24    2    1    2    0    0  0.35067580235E+03  0.23746703409E+03 -0.30019195145E+03  0.52502039119E+03  0.78530839903E+02 0.  0.
        254    2    1    2    0    0 -0.35067580235E+03 -0.23746703409E+03 -0.10468950917E+03  0.10485627283E+04  0.95349871062E+03 0.  0.
         23    2    4    4    0    0 -0.39532616569E+03 -0.18466607969E+03  0.35808834921E+03  0.57185451219E+03  0.91684126220E+02 0.  0.
         23    2    4    4    0    0  0.44650363339E+02 -0.52800954400E+02 -0.46277785838E+03  0.47670821608E+03  0.91136059489E+02 0.  0.
          4    1    3    3  502    0  0.37470524050E+01  0.18277826879E+02 -0.44320035789E+01  0.19177122122E+02  0.00000000000E+00 0. -1.
         -3    1    3    3    0  502  0.34692874994E+03  0.21918920721E+03 -0.29575994787E+03  0.50584326907E+03  0.00000000000E+00 0.  1.
         13    1    5    5    0    0 -0.31085188566E+03 -0.11429706204E+03  0.30296388137E+03  0.44886504277E+03  0.00000000000E+00 0.  1.
        -13    1    5    5    0    0 -0.84474280032E+02 -0.70369017654E+02  0.55124467841E+02  0.12298946942E+03  0.00000000000E+00 0. -1.
          3    1    6    6  503    0  0.63621507080E+02 -0.37519715402E+02 -0.20718154617E+03  0.21995367304E+03  0.00000000000E+00 0. -1.
         -3    1    6    6    0  503 -0.18971143742E+02 -0.15281238999E+02 -0.25559631221E+03  0.25675454305E+03  0.00000000000E+00 0.  1.
<mgrwt>
<rscale>  0 0.15206034E+04</rscale>
<asrwt>0</asrwt>
<pdfrwt beam="1">  1        2 0.89900127E-01 0.15206034E+04</pdfrwt>
<pdfrwt beam="2">  1       -1 0.15218958E+00 0.15206034E+04</pdfrwt>
<totfact> 0.18937801E+01</totfact>
</mgrwt>
</event>
<event>
12    7  0.1730932E-007  0.1241377E+04  0.7818608E-02  0.9077391E-01
          2   -1    0    0  501    0  0.00000000000E+00  0.00000000000E+00  0.23548728943E+04  0.23548728943E+04  0.00000000000E+00 0. -1.
         -1   -1    0    0    0  501 -0.00000000000E+00 -0.00000000000E+00 -0.16359866377E+03  0.16359866377E+03  0.00000000000E+00 0.  1.
         24    2    1    2    0    0  0.10948375987E+03 -0.21959355460E+03  0.26135307102E+03  0.36720139536E+03  0.79519897674E+02 0.  0.
        254    2    1    2    0    0 -0.10948375987E+03  0.21959355460E+03  0.19299211595E+04  0.21512701627E+04  0.91823722868E+03 0.  0.
         23    2    4    4    0    0  0.14422050174E+03 -0.30158007697E+03  0.92509236491E+03  0.98767580010E+03  0.89204857187E+02 0.  0.
         23    2    4    4    0    0 -0.25370426161E+03  0.52117363157E+03  0.10048287946E+04  0.11635943626E+04  0.91011689523E+02 0.  0.
          2    1    3    3  502    0  0.80646375524E+02 -0.76598819371E+02  0.98532038320E+02  0.14859266331E+03  0.00000000000E+00 0. -1.
         -1    1    3    3    0  502  0.28837384345E+02 -0.14299473523E+03  0.16282103270E+03  0.21860873205E+03  0.00000000000E+00 0.  1.
         13    1    5    5    0    0  0.15096943977E+03 -0.29997652851E+03  0.91902349835E+03  0.97845893114E+03  0.00000000000E+00 0.  1.
        -13    1    5    5    0    0 -0.67489380283E+01 -0.16035484621E+01  0.60688665509E+01  0.92168689582E+01  0.00000000000E+00 0. -1.
          1    1    6    6  503    0 -0.58454761936E+02  0.22133783403E+03  0.38797728073E+03  0.45048170477E+03  0.00000000000E+00 0. -1.
         -1    1    6    6    0  503 -0.19524949967E+03  0.29983579754E+03  0.61685151387E+03  0.71311265784E+03  0.00000000000E+00 0.  1.
<mgrwt>
<rscale>  0 0.12413767E+04</rscale>
<asrwt>0</asrwt>
<pdfrwt beam="1">  1        2 0.36228811E+00 0.12413767E+04</pdfrwt>
<pdfrwt beam="2">  1       -1 0.25169027E-01 0.12413767E+04</pdfrwt>
<totfact> 0.65740523E+01</totfact>
</mgrwt>
</event>
<event>
12    7  0.1730932E-007  0.1976748E+04  0.7818608E-02  0.8617570E-01
          2   -1    0    0  501    0  0.00000000000E+00  0.00000000000E+00  0.25351960881E+04  0.25351960881E+04  0.00000000000E+00 0. -1.
         -1   -1    0    0    0  501 -0.00000000000E+00 -0.00000000000E+00 -0.38532829145E+03  0.38532829145E+03  0.00000000000E+00 0.  1.
         24    2    1    2    0    0 -0.49680564708E+03 -0.18141696181E+03  0.57324950054E+01  0.53517227664E+03  0.81538574780E+02 0.  0.
        254    2    1    2    0    0  0.49680564708E+03  0.18141696181E+03  0.21441353016E+04  0.23853521029E+04  0.90158776502E+03 0.  0.
         23    2    4    4    0    0 -0.22005557924E+03 -0.74356403450E+02  0.79311406703E+03  0.83151770280E+03  0.91860949572E+02 0.  0.
         23    2    4    4    0    0  0.71686122632E+03  0.25577336526E+03  0.13510212346E+04  0.15538344001E+04  0.99161153525E+02 0.  0.
          4    1    3    3  502    0 -0.16884952885E+03 -0.57349782218E+02  0.40340714417E+02  0.18282924863E+03  0.00000000000E+00 0. -1.
         -3    1    3    3    0  502 -0.32795611823E+03 -0.12406717959E+03 -0.34608219411E+02  0.35234302801E+03  0.00000000000E+00 0.  1.
         13    1    5    5    0    0 -0.21587680002E+03 -0.80112495357E+02  0.79137711625E+03  0.82419569571E+03  0.00000000000E+00 0. -1.
        -13    1    5    5    0    0 -0.41787792234E+01  0.57560919075E+01  0.17369507823E+01  0.73220070927E+01  0.00000000000E+00 0.  1.
          2    1    6    6  503    0  0.61104462556E+03  0.17975527518E+03  0.11041243587E+04  0.12746678363E+04  0.00000000000E+00 0. -1.
         -2    1    6    6    0  503  0.10581660076E+03  0.76018090084E+02  0.24689687584E+03  0.27916656375E+03  0.00000000000E+00 0.  1.
<mgrwt>
<rscale>  0 0.19767476E+04</rscale>
<asrwt>0</asrwt>
<pdfrwt beam="1">  1        2 0.39003016E+00 0.19767476E+04</pdfrwt>
<pdfrwt beam="2">  1       -1 0.59281277E-01 0.19767476E+04</pdfrwt>
<totfact> 0.10157222E+01</totfact>
</mgrwt>
</event>
<event>
12    7  0.1730932E-007  0.1127412E+04  0.7818608E-02  0.9178879E-01
          2   -1    0    0  501    0  0.00000000000E+00  0.00000000000E+00  0.23260910134E+04  0.23260910134E+04  0.00000000000E+00 0. -1.
         -1   -1    0    0    0  501 -0.00000000000E+00 -0.00000000000E+00 -0.13660870009E+03  0.13660870009E+03  0.00000000000E+00 0.  1.
         24    2    1    2    0    0 -0.21881458838E+02  0.25096200213E+03  0.47954329809E+03  0.54754288758E+03  0.79879373120E+02 0.  0.
        254    2    1    2    0    0  0.21881458838E+02 -0.25096200213E+03  0.17099390152E+04  0.19151568259E+04  0.82490818113E+03 0.  0.
         23    2    4    4    0    0  0.16269843072E+03  0.98426569809E+02  0.14106808236E+04  0.14260103948E+04  0.85596091750E+02 0.  0.
         23    2    4    4    0    0 -0.14081697188E+03 -0.34938857194E+03  0.29925819155E+03  0.48914643107E+03  0.88357071286E+02 0.  0.
          4    1    3    3  502    0 -0.43162302639E+02  0.22259527359E+03  0.38834545740E+03  0.44969304473E+03  0.00000000000E+00 0. -1.
         -3    1    3    3    0  502  0.21280843801E+02  0.28366728537E+02  0.91197840685E+02  0.97849842853E+02  0.00000000000E+00 0.  1.
         13    1    5    5    0    0  0.16783959228E+03  0.76533396639E+02  0.11939475562E+04  0.12081135114E+04  0.00000000000E+00 0. -1.
        -13    1    5    5    0    0 -0.51411615552E+01  0.21893173170E+02  0.21673326747E+03  0.21789688341E+03  0.00000000000E+00 0.  1.
          1    1    6    6  503    0 -0.14645283779E+03 -0.32511952902E+03  0.29710933077E+03  0.46413909152E+03  0.00000000000E+00 0. -1.
         -1    1    6    6    0  503  0.56358659057E+01 -0.24269042921E+02  0.21488607825E+01  0.25007339552E+02  0.00000000000E+00 0.  1.
<mgrwt>
<rscale>  0 0.11274117E+04</rscale>
<asrwt>0</asrwt>
<pdfrwt beam="1">  1        2 0.35786013E+00 0.11274117E+04</pdfrwt>
<pdfrwt beam="2">  1       -1 0.21016725E-01 0.11274117E+04</pdfrwt>
<totfact> 0.93613531E+01</totfact>
</mgrwt>
</event>
<event>
12    7  0.1730932E-007  0.3752738E+04  0.7818608E-02  0.8056374E-01
         -1   -1    0    0    0  501 -0.00000000000E+00  0.00000000000E+00  0.12598732499E+04  0.12598732499E+04  0.00000000000E+00 0.  1.
          2   -1    0    0  501    0  0.00000000000E+00 -0.00000000000E+00 -0.27945350866E+04  0.27945350866E+04  0.00000000000E+00 0. -1.
         24    2    1    2    0    0 -0.14488919880E+04 -0.79459197166E+03 -0.45150042301E+02  0.16554607213E+04  0.88584869853E+02 0.  0.
        254    2    1    2    0    0  0.14488919880E+04  0.79459197166E+03 -0.14895117945E+04  0.23989476152E+04  0.89757444269E+03 0.  0.
         23    2    4    4    0    0  0.93230044345E+03  0.48208643390E+03 -0.14427538146E+04  0.17864379739E+04  0.90722756981E+02 0.  0.
         23    2    4    4    0    0  0.51659154455E+03  0.31250553776E+03 -0.46757979933E+02  0.61250964127E+03  0.91952253516E+02 0.  0.
          4    1    3    3  502    0 -0.27889498079E+03 -0.13499754674E+03 -0.39308916762E+02  0.31233305760E+03  0.00000000000E+00 0. -1.
         -3    1    3    3    0  502 -0.11699970072E+04 -0.65959442492E+03 -0.58411255382E+01  0.13431276637E+04  0.00000000000E+00 0.  1.
         13    1    5    5    0    0  0.55030738699E+03  0.28727609080E+03 -0.92787067914E+03  0.11163824478E+04  0.00000000000E+00 0.  1.
        -13    1    5    5    0    0  0.38199305646E+03  0.19481034310E+03 -0.51488313542E+03  0.67005552613E+03  0.00000000000E+00 0. -1.
          3    1    6    6  503    0  0.84368606081E+02  0.16862773462E+02  0.57081934800E+01  0.86226436165E+02  0.00000000000E+00 0. -1.
         -3    1    6    6    0  503  0.43222293847E+03  0.29564276430E+03 -0.52466173413E+02  0.52628320510E+03  0.00000000000E+00 0.  1.
<mgrwt>
<rscale>  0 0.37527377E+04</rscale>
<asrwt>0</asrwt>
<pdfrwt beam="1">  1        2 0.42992847E+00 0.37527377E+04</pdfrwt>
<pdfrwt beam="2">  1       -1 0.19382666E+00 0.37527377E+04</pdfrwt>
<totfact> 0.35379185E-01</totfact>
</mgrwt>
</event>
<event>
12    7  0.2503518E-007  0.2286760E+04  0.7818608E-02  0.8483160E-01
         -1   -1    0    0    0  501 -0.00000000000E+00  0.00000000000E+00  0.92493347690E+03  0.92493347690E+03  0.00000000000E+00 0.  1.
          2   -1    0    0  501    0  0.00000000000E+00 -0.00000000000E+00 -0.14134185319E+04  0.14134185319E+04  0.00000000000E+00 0. -1.
         24    2    1    2    0    0 -0.49299933255E+03 -0.70181593072E+03  0.17789002805E+03  0.88017785718E+03  0.86453777734E+02 0.  0.
        254    2    1    2    0    0  0.49299933255E+03  0.70181593072E+03 -0.66637508301E+03  0.14581741516E+04  0.97294509743E+03 0.  0.
         23    2    4    4    0    0  0.25842580525E+03 -0.14651557580E+03  0.56301463562E+02  0.31570982615E+03  0.90841228267E+02 0.  0.
         23    2    4    4    0    0  0.23457352730E+03  0.84833150652E+03 -0.72267654658E+03  0.11424643254E+04  0.90951961396E+02 0.  0.
          2    1    3    3  502    0 -0.11837791758E+03 -0.13695778303E+03  0.68800618031E+02  0.19366024565E+03  0.00000000000E+00 0. -1.
         -1    1    3    3    0  502 -0.37462141497E+03 -0.56485814769E+03  0.10908941002E+03  0.68651761153E+03  0.00000000000E+00 0.  1.
         13    1    5    5    0    0  0.74608715048E+02 -0.54355090027E+02  0.59919813911E+02  0.11005144375E+03  0.00000000000E+00 0. -1.
        -13    1    5    5    0    0  0.18381709021E+03 -0.92160485777E+02 -0.36183503481E+01  0.20565838240E+03  0.00000000000E+00 0.  1.
          1    1    6    6  503    0  0.50159270263E+02  0.89010371737E+02 -0.10411525397E+03  0.14587249494E+03  0.00000000000E+00 0. -1.
         -1    1    6    6    0  503  0.18441425704E+03  0.75932113478E+03 -0.61856129261E+03  0.99659183051E+03  0.00000000000E+00 0.  1.
<mgrwt>
<rscale>  0 0.22867603E+04</rscale>
<asrwt>0</asrwt>
<pdfrwt beam="1">  1        2 0.21744900E+00 0.22867603E+04</pdfrwt>
<pdfrwt beam="2">  1       -1 0.14229746E+00 0.22867603E+04</pdfrwt>
<totfact> 0.59045040E+00</totfact>
</mgrwt>
</event>
<event>
12    7  0.1730932E-007  0.1997178E+04  0.7818608E-02  0.8607941E-01
          2   -1    0    0  501    0  0.00000000000E+00  0.00000000000E+00  0.12046250561E+04  0.12046250561E+04  0.00000000000E+00 0. -1.
         -1   -1    0    0    0  501 -0.00000000000E+00 -0.00000000000E+00 -0.82779324367E+03  0.82779324367E+03  0.00000000000E+00 0.  1.
         24    2    1    2    0    0 -0.72250175955E+03 -0.33421232249E+03  0.19457834468E+03  0.82276001812E+03  0.73257396491E+02 0.  0.
        254    2    1    2    0    0  0.72250175955E+03  0.33421232249E+03  0.18225346772E+03  0.12096582816E+04  0.89238453748E+03 0.  0.
         23    2    4    4    0    0  0.85353505953E+03  0.42976116927E+03  0.14473221484E+02  0.96001358013E+03  0.90552964799E+02 0.  0.
         23    2    4    4    0    0 -0.13103329999E+03 -0.95548846776E+02  0.16778024623E+03  0.24964470148E+03  0.88729691346E+02 0.  0.
          2    1    3    3  502    0 -0.12160433629E+03 -0.64485069643E+02  0.65981007742E+01  0.13780229949E+03  0.00000000000E+00 0. -1.
         -1    1    3    3    0  502 -0.60089742326E+03 -0.26972725285E+03  0.18798024390E+03  0.68495771863E+03  0.00000000000E+00 0.  1.
         13    1    5    5    0    0  0.43384557595E+03  0.26346095631E+03 -0.12988971854E+02  0.50774242748E+03  0.00000000000E+00 0. -1.
        -13    1    5    5    0    0  0.41968948358E+03  0.16630021296E+03  0.27462193339E+02  0.45227115265E+03  0.00000000000E+00 0.  1.
          1    1    6    6  503    0 -0.50944507430E+01 -0.47406441448E+02  0.27343630196E+02  0.54963608246E+02  0.00000000000E+00 0. -1.
         -1    1    6    6    0  503 -0.12593884924E+03 -0.48142405328E+02  0.14043661604E+03  0.19468109324E+03  0.00000000000E+00 0.  1.
<mgrwt>
<rscale>  0 0.19971785E+04</rscale>
<asrwt>0</asrwt>
<pdfrwt beam="1">  1        2 0.18532693E+00 0.19971785E+04</pdfrwt>
<pdfrwt beam="2">  1       -1 0.12735281E+00 0.19971785E+04</pdfrwt>
<totfact> 0.10651699E+01</totfact>
</mgrwt>
</event>
<event>
12    7  0.1730932E-007  0.2318515E+04  0.7818608E-02  0.8470657E-01
         -1   -1    0    0    0  501 -0.00000000000E+00  0.00000000000E+00  0.52996538717E+03  0.52996538717E+03  0.00000000000E+00 0.  1.
          2   -1    0    0  501    0  0.00000000000E+00 -0.00000000000E+00 -0.25357833238E+04  0.25357833238E+04  0.00000000000E+00 0. -1.
         24    2    1    2    0    0  0.58532255458E+03  0.77677453093E+03 -0.68693214047E+03  0.11935161750E+04  0.81387526437E+02 0.  0.
        254    2    1    2    0    0 -0.58532255458E+03 -0.77677453093E+03 -0.13188857962E+04  0.18722325360E+04  0.90543567458E+03 0.  0.
         23    2    4    4    0    0 -0.63236963944E+03 -0.67108963704E+03 -0.14182042628E+04  0.16940656680E+04  0.91118024757E+02 0.  0.
         23    2    4    4    0    0  0.47047084860E+02 -0.10568489390E+03  0.99318466675E+02  0.17816686805E+03  0.92176732728E+02 0.  0.
          4    1    3    3  502    0  0.21645411833E+03  0.28926338342E+03 -0.30385591023E+03  0.47207425741E+03  0.00000000000E+00 0. -1.
         -1    1    3    3    0  502  0.36886843626E+03  0.48751114751E+03 -0.38307623024E+03  0.72144191755E+03  0.00000000000E+00 0.  1.
         13    1    5    5    0    0 -0.46550299919E+03 -0.44948169020E+03 -0.10434510090E+04  0.12278097736E+04  0.00000000000E+00 0. -1.
        -13    1    5    5    0    0 -0.16686664025E+03 -0.22160794684E+03 -0.37475325388E+03  0.46625589436E+03  0.00000000000E+00 0.  1.
          1    1    6    6  503    0  0.74476474505E+02 -0.77700480513E+02  0.82086313858E+02  0.13535979037E+03  0.00000000000E+00 0. -1.
         -1    1    6    6    0  503 -0.27429389645E+02 -0.27984413383E+02  0.17232152817E+02  0.42807077679E+02  0.00000000000E+00 0.  1.
<mgrwt>
<rscale>  0 0.23185145E+04</rscale>
<asrwt>0</asrwt>
<pdfrwt beam="1">  1        2 0.39012051E+00 0.23185145E+04</pdfrwt>
<pdfrwt beam="2">  1       -1 0.81533138E-01 0.23185145E+04</pdfrwt>
<totfact> 0.51188485E+00</totfact>
</mgrwt>
</event>
<event>
12    7  0.1730932E-007  0.1367465E+04  0.7818608E-02  0.8977712E-01
          2   -1    0    0  501    0  0.00000000000E+00  0.00000000000E+00  0.44241563091E+04  0.44241563091E+04  0.00000000000E+00 0. -1.
         -1   -1    0    0    0  501 -0.00000000000E+00 -0.00000000000E+00 -0.10566758998E+03  0.10566758998E+03  0.00000000000E+00 0.  1.
         24    2    1    2    0    0  0.65704927267E+02 -0.33385341890E+03  0.67016257989E+03  0.75572755921E+03  0.78936794287E+02 0.  0.
        254    2    1    2    0    0 -0.65704927267E+02  0.33385341890E+03  0.36483261392E+04  0.37740963399E+04  0.90429216611E+03 0.  0.
         23    2    4    4    0    0 -0.20244795387E+02  0.36046049100E+02  0.33115533125E+04  0.33131368035E+04  0.93706820684E+02 0.  0.
         23    2    4    4    0    0 -0.45460131880E+02  0.29780736980E+03  0.33677282676E+03  0.46095953634E+03  0.91169645154E+02 0.  0.
          4    1    3    3  502    0  0.12210433040E+02 -0.45981732062E+01  0.11406582535E+02  0.17330550972E+02  0.00000000000E+00 0. -1.
         -3    1    3    3    0  502  0.53494494227E+02 -0.32925524569E+03  0.65875599736E+03  0.73839700824E+03  0.00000000000E+00 0.  1.
         13    1    5    5    0    0 -0.36627580187E+02 -0.43785875324E+00  0.27137444768E+04  0.27139916833E+04  0.00000000000E+00 0. -1.
        -13    1    5    5    0    0  0.16382784800E+02  0.36483907853E+02  0.59780883563E+03  0.59914512026E+03  0.00000000000E+00 0.  1.
          1    1    6    6  503    0 -0.55384991022E+02  0.26703437869E+03  0.25637489541E+03  0.37430327761E+03  0.00000000000E+00 0. -1.
         -1    1    6    6    0  503  0.99248591424E+01  0.30772991108E+02  0.80397931353E+02  0.86656258728E+02  0.00000000000E+00 0.  1.
<mgrwt>
<rscale>  0 0.13674647E+04</rscale>
<asrwt>0</asrwt>
<pdfrwt beam="1">  1        2 0.68063929E+00 0.13674647E+04</pdfrwt>
<pdfrwt beam="2">  1       -1 0.16256556E-01 0.13674647E+04</pdfrwt>
<totfact> 0.48658755E+00</totfact>
</mgrwt>
</event>
<event>
12    7  0.1730932E-007  0.1931785E+04  0.7818608E-02  0.8639195E-01
         -1   -1    0    0    0  501 -0.00000000000E+00  0.00000000000E+00  0.82183133921E+03  0.82183133921E+03  0.00000000000E+00 0.  1.
          2   -1    0    0  501    0  0.00000000000E+00 -0.00000000000E+00 -0.11352067679E+04  0.11352067679E+04  0.00000000000E+00 0. -1.
         24    2    1    2    0    0 -0.35077815455E+03 -0.47438771043E+03  0.35582358655E+03  0.69342568430E+03  0.78356501892E+02 0.  0.
        254    2    1    2    0    0  0.35077815455E+03  0.47438771043E+03 -0.66919901524E+03  0.12636124228E+04  0.89487430379E+03 0.  0.
         23    2    4    4    0    0  0.48088125136E+03  0.65664934731E+03 -0.59049592662E+03  0.10092327289E+04  0.86198135394E+02 0.  0.
         23    2    4    4    0    0 -0.13010309681E+03 -0.18226163688E+03 -0.78703088625E+02  0.25437969390E+03  0.91480776299E+02 0.  0.
          2    1    3    3  502    0 -0.27587473474E+02 -0.53267426327E+02  0.63752779212E+02  0.87538016069E+02  0.00000000000E+00 0. -1.
         -1    1    3    3    0  502 -0.32319068108E+03 -0.42112028410E+03  0.29207080734E+03  0.60588766823E+03  0.00000000000E+00 0.  1.
         13    1    5    5    0    0  0.13974119715E+02  0.49570190716E+02 -0.50580099170E+02  0.72186053095E+02  0.00000000000E+00 0. -1.
        -13    1    5    5    0    0  0.46690713164E+03  0.60707915659E+03 -0.53991582745E+03  0.93704667583E+03  0.00000000000E+00 0.  1.
          2    1    6    6  503    0 -0.10471509711E+03 -0.18609963924E+03 -0.81477109639E+02  0.22855381572E+03  0.00000000000E+00 0.  1.
         -2    1    6    6    0  503 -0.25387999701E+02  0.38380023595E+01  0.27740210138E+01  0.25825878176E+02  0.00000000000E+00 0. -1.
<mgrwt>
<rscale>  0 0.19317852E+04</rscale>
<asrwt>0</asrwt>
<pdfrwt beam="1">  1        2 0.17464720E+00 0.19317852E+04</pdfrwt>
<pdfrwt beam="2">  1       -1 0.12643559E+00 0.19317852E+04</pdfrwt>
<totfact> 0.12011423E+01</totfact>
</mgrwt>
</event>
<event>
12    7  0.1730932E-007  0.1214129E+04  0.7818608E-02  0.9100579E-01
         -1   -1    0    0    0  501 -0.00000000000E+00  0.00000000000E+00  0.16908230417E+03  0.16908230417E+03  0.00000000000E+00 0.  1.
          2   -1    0    0  501    0  0.00000000000E+00 -0.00000000000E+00 -0.21795735956E+04  0.21795735956E+04  0.00000000000E+00 0. -1.
         24    2    1    2    0    0  0.21634290519E+03  0.15877197186E+02 -0.16281558625E+03  0.28320267745E+03  0.81477011301E+02 0.  0.
        254    2    1    2    0    0 -0.21634290519E+03 -0.15877197186E+02 -0.18476757052E+04  0.20654532224E+04  0.89729324310E+03 0.  0.
         23    2    4    4    0    0 -0.41057457097E+03 -0.22955646140E+03 -0.16170750990E+04  0.16863421401E+04  0.86892408129E+02 0.  0.
         23    2    4    4    0    0  0.19423166578E+03  0.21367926421E+03 -0.23060060626E+03  0.37911108224E+03  0.84639264675E+02 0.  0.
          2    1    3    3  502    0  0.18657375612E+03  0.87724020307E+01 -0.16910398350E+03  0.25195808927E+03  0.00000000000E+00 0. -1.
         -1    1    3    3    0  502  0.29769149068E+02  0.71047951550E+01  0.62883972536E+01  0.31244588179E+02  0.00000000000E+00 0.  1.
         13    1    5    5    0    0 -0.35845050609E+03 -0.18399181986E+03 -0.14622147671E+04  0.15167108427E+04  0.00000000000E+00 0. -1.
        -13    1    5    5    0    0 -0.52124064873E+02 -0.45564641541E+02 -0.15486033181E+03  0.16963129742E+03  0.00000000000E+00 0.  1.
          2    1    6    6  503    0  0.43087956724E+02  0.69270415460E+02 -0.23603921780E+02  0.84924128468E+02  0.00000000000E+00 0. -1.
         -2    1    6    6    0  503  0.15114370905E+03  0.14440884876E+03 -0.20699668448E+03  0.29418695377E+03  0.00000000000E+00 0.  1.
<mgrwt>
<rscale>  0 0.12141290E+04</rscale>
<asrwt>0</asrwt>
<pdfrwt beam="1">  1        2 0.33531901E+00 0.12141290E+04</pdfrwt>
<pdfrwt beam="2">  1       -1 0.26012662E-01 0.12141290E+04</pdfrwt>
<totfact> 0.78096008E+01</totfact>
</mgrwt>
</event>
<event>
12    7  0.1730932E-007  0.2179995E+04  0.7818608E-02  0.8526801E-01
         -1   -1    0    0    0  501 -0.00000000000E+00  0.00000000000E+00  0.52702064578E+03  0.52702064578E+03  0.00000000000E+00 0.  1.
          2   -1    0    0  501    0  0.00000000000E+00 -0.00000000000E+00 -0.22543614277E+04  0.22543614277E+04  0.00000000000E+00 0. -1.
         24    2    1    2    0    0 -0.29464187658E+03  0.71832460953E+02  0.36744590245E+03  0.48253743064E+03  0.76499299757E+02 0.  0.
        254    2    1    2    0    0  0.29464187658E+03 -0.71832460953E+02 -0.20947866844E+04  0.22988446429E+04  0.89698478309E+03 0.  0.
         23    2    4    4    0    0  0.15670077573E+03 -0.57262137532E+02 -0.21212790317E+04  0.21301065451E+04  0.98463584901E+02 0.  0.
         23    2    4    4    0    0  0.13794110085E+03 -0.14570323421E+02  0.26492347293E+02  0.16873809781E+03  0.92361569714E+02 0.  0.
          4    1    3    3  502    0 -0.16730424457E+03  0.79194188976E+02  0.22408149746E+03  0.29064574196E+03  0.00000000000E+00 0. -1.
         -3    1    3    3    0  502 -0.12733763201E+03 -0.73617280235E+01  0.14336440499E+03  0.19189168868E+03  0.00000000000E+00 0.  1.
         13    1    5    5    0    0  0.14639112219E+03 -0.45268151053E+02 -0.13504763666E+04  0.13591416346E+04  0.00000000000E+00 0. -1.
        -13    1    5    5    0    0  0.10309653544E+02 -0.11993986479E+02 -0.77080266505E+03  0.77096491043E+03  0.00000000000E+00 0.  1.
          3    1    6    6  503    0  0.11596211470E+03 -0.45802102296E+02  0.35228834168E+02  0.12956124180E+03  0.00000000000E+00 0. -1.
         -3    1    6    6    0  503  0.21978986145E+02  0.31231778875E+02 -0.87364868749E+01  0.39176856007E+02  0.00000000000E+00 0.  1.
<mgrwt>
<rscale>  0 0.21799954E+04</rscale>
<asrwt>0</asrwt>
<pdfrwt beam="1">  1        2 0.34682484E+00 0.21799954E+04</pdfrwt>
<pdfrwt beam="2">  1       -1 0.81080098E-01 0.21799954E+04</pdfrwt>
<totfact> 0.75993705E+00</totfact>
</mgrwt>
</event>
<event>
12    7  0.1730932E-007  0.3082698E+04  0.7818608E-02  0.8220502E-01
          2   -1    0    0  501    0  0.00000000000E+00  0.00000000000E+00  0.25280762513E+04  0.25280762513E+04  0.00000000000E+00 0. -1.
         -1   -1    0    0    0  501 -0.00000000000E+00 -0.00000000000E+00 -0.93974886431E+03  0.93974886431E+03  0.00000000000E+00 0.  1.
         24    2    1    2    0    0  0.37162580912E+03  0.11274046838E+04 -0.12729549243E+03  0.11967266539E+04  0.82483203031E+02 0.  0.
        254    2    1    2    0    0 -0.37162580912E+03 -0.11274046838E+04  0.17156228794E+04  0.22710984617E+04  0.89742927025E+03 0.  0.
         23    2    4    4    0    0  0.19524149041E+03 -0.71225656226E+03  0.11241370754E+04  0.13481630487E+04  0.91819342687E+02 0.  0.
         23    2    4    4    0    0 -0.56686729953E+03 -0.41514812154E+03  0.59148580403E+03  0.92293541291E+03  0.90927564242E+02 0.  0.
          2    1    3    3  502    0  0.70270327913E+02  0.12782941790E+03 -0.19284376134E+02  0.14713995456E+03  0.00000000000E+00 0. -1.
         -1    1    3    3    0  502  0.30135548121E+03  0.99957526591E+03 -0.10801111630E+03  0.10495866994E+04  0.00000000000E+00 0.  1.
         13    1    5    5    0    0  0.10369940475E+03 -0.24199410202E+03  0.35401099358E+03  0.44117853023E+03  0.00000000000E+00 0.  1.
        -13    1    5    5    0    0  0.91542085658E+02 -0.47026246025E+03  0.77012608180E+03  0.90698451852E+03  0.00000000000E+00 0. -1.
          1    1    6    6  503    0 -0.54897286235E+03 -0.38324980309E+03  0.57609735575E+03  0.88325521706E+03  0.00000000000E+00 0. -1.
         -1    1    6    6    0  503 -0.17894437185E+02 -0.31898318453E+02  0.15388448277E+02  0.39680195850E+02  0.00000000000E+00 0.  1.
<mgrwt>
<rscale>  0 0.30826980E+04</rscale>
<asrwt>0</asrwt>
<pdfrwt beam="1">  1        2 0.38893480E+00 0.30826980E+04</pdfrwt>
<pdfrwt beam="2">  1       -1 0.14457675E+00 0.30826980E+04</pdfrwt>
<totfact> 0.12471927E+00</totfact>
</mgrwt>
</event>
<event>
12    7  0.1730932E-007  0.2426458E+04  0.7818608E-02  0.8429664E-01
          2   -1    0    0  501    0  0.00000000000E+00  0.00000000000E+00  0.19184885427E+04  0.19184885427E+04  0.00000000000E+00 0. -1.
         -1   -1    0    0    0  501 -0.00000000000E+00 -0.00000000000E+00 -0.76723118159E+03  0.76723118159E+03  0.00000000000E+00 0.  1.
         24    2    1    2    0    0  0.58342613527E+03  0.66065382085E+02 -0.44413213090E+03  0.74062276888E+03  0.80734416830E+02 0.  0.
        254    2    1    2    0    0 -0.58342613527E+03 -0.66065382085E+02  0.15953894920E+04  0.19450969554E+04  0.94518984586E+03 0.  0.
         23    2    4    4    0    0 -0.56195706693E+03  0.34902061134E+03  0.11449105510E+04  0.13254543203E+04  0.91639801491E+02 0.  0.
         23    2    4    4    0    0 -0.21469068337E+02 -0.41508599342E+03  0.45047894102E+03  0.61964263511E+03  0.90930831492E+02 0.  0.
          2    1    3    3  502    0  0.28140047306E+03  0.17568581461E+02 -0.26033993989E+03  0.38376003648E+03  0.00000000000E+00 0. -1.
         -1    1    3    3    0  502  0.30202566221E+03  0.48496800623E+02 -0.18379219101E+03  0.35686273240E+03  0.00000000000E+00 0.  1.
         13    1    5    5    0    0 -0.29997434157E+03  0.23620742577E+03  0.68701390637E+03  0.78598133638E+03  0.00000000000E+00 0.  1.
        -13    1    5    5    0    0 -0.26198272536E+03  0.11281318557E+03  0.45789664459E+03  0.53947298390E+03  0.00000000000E+00 0. -1.
          2    1    6    6  503    0  0.13968982866E+02 -0.83117054158E+02  0.49009645562E+02  0.97496269326E+02  0.00000000000E+00 0. -1.
         -2    1    6    6    0  503 -0.35438051203E+02 -0.33196893927E+03  0.40146929546E+03  0.52214636579E+03  0.00000000000E+00 0.  1.
<mgrwt>
<rscale>  0 0.24264577E+04</rscale>
<asrwt>0</asrwt>
<pdfrwt beam="1">  1        2 0.29515208E+00 0.24264577E+04</pdfrwt>
<pdfrwt beam="2">  1       -1 0.11803557E+00 0.24264577E+04</pdfrwt>
<totfact> 0.48813331E+00</totfact>
</mgrwt>
</event>
<event>
12    7  0.1730932E-007  0.1459692E+04  0.7818608E-02  0.8911709E-01
          2   -1    0    0  501    0  0.00000000000E+00  0.00000000000E+00  0.96451815145E+03  0.96451815145E+03  0.00000000000E+00 0. -1.
         -1   -1    0    0    0  501 -0.00000000000E+00 -0.00000000000E+00 -0.55227093666E+03  0.55227093666E+03  0.00000000000E+00 0.  1.
         24    2    1    2    0    0  0.67763974412E+02 -0.10298710168E+02 -0.33053716305E+03  0.34680650615E+03  0.79510482883E+02 0.  0.
        254    2    1    2    0    0 -0.67763974412E+02  0.10298710168E+02  0.74278437784E+03  0.11699825820E+04  0.90135042602E+03 0.  0.
         23    2    4    4    0    0  0.23130110937E+03 -0.22630980370E+03  0.69965947916E+03  0.77620893394E+03  0.90887798446E+02 0.  0.
         23    2    4    4    0    0 -0.29906508378E+03  0.23660851386E+03  0.43124898672E+02  0.39377364802E+03  0.88172647810E+02 0.  0.
          4    1    3    3  502    0 -0.11059819580E+02 -0.21761348212E+01 -0.60679770303E+01  0.12801387313E+02  0.00000000000E+00 0. -1.
         -3    1    3    3    0  502  0.78823793992E+02 -0.81225753466E+01 -0.32446918602E+03  0.33400511883E+03  0.00000000000E+00 0.  1.
         13    1    5    5    0    0  0.19156892251E+03 -0.13221843371E+03  0.51570205478E+03  0.56579941286E+03  0.00000000000E+00 0.  1.
        -13    1    5    5    0    0  0.39732186862E+02 -0.94091369987E+02  0.18395742438E+03  0.21040952109E+03  0.00000000000E+00 0. -1.
          2    1    6    6  503    0 -0.52157491625E+02  0.73638034095E+02 -0.17149600876E+02  0.91853539987E+02  0.00000000000E+00 0. -1.
         -2    1    6    6    0  503 -0.24690759215E+03  0.16297047977E+03  0.60274499548E+02  0.30192010803E+03  0.00000000000E+00 0.  1.
<mgrwt>
<rscale>  0 0.14596922E+04</rscale>
<asrwt>0</asrwt>
<pdfrwt beam="1">  1        2 0.14838741E+00 0.14596922E+04</pdfrwt>
<pdfrwt beam="2">  1       -1 0.84964760E-01 0.14596922E+04</pdfrwt>
<totfact> 0.40256680E+01</totfact>
</mgrwt>
</event>
<event>
12    7  0.1730932E-007  0.2073878E+04  0.7818608E-02  0.8572838E-01
          2   -1    0    0  501    0  0.00000000000E+00  0.00000000000E+00  0.73969520204E+03  0.73969520204E+03  0.00000000000E+00 0. -1.
         -1   -1    0    0    0  501 -0.00000000000E+00 -0.00000000000E+00 -0.14536292299E+04  0.14536292299E+04  0.00000000000E+00 0.  1.
         24    2    1    2    0    0  0.67380330207E+03  0.18891646181E+02 -0.82287388552E+03  0.10663526990E+04  0.74959076191E+02 0.  0.
        254    2    1    2    0    0 -0.67380330207E+03 -0.18891646181E+02  0.10893985762E+03  0.11269717329E+04  0.89656545222E+03 0.  0.
         23    2    4    4    0    0 -0.83034300120E+03 -0.11622776151E+03  0.24772703482E+03  0.87892344773E+03  0.90329125915E+02 0.  0.
         23    2    4    4    0    0  0.15653969913E+03  0.97336115324E+02 -0.13878717720E+03  0.24804828522E+03  0.91033370217E+02 0.  0.
          4    1    3    3  502    0  0.63707071362E+03  0.23232292505E+02 -0.74772524783E+03  0.98259446355E+03  0.00000000000E+00 0. -1.
         -3    1    3    3    0  502  0.36732588451E+02 -0.43406463242E+01 -0.75148637696E+02  0.83758235490E+02  0.00000000000E+00 0.  1.
         13    1    5    5    0    0 -0.70541734953E+03 -0.67886828889E+02  0.19548334713E+03  0.73514352174E+03  0.00000000000E+00 0. -1.
        -13    1    5    5    0    0 -0.12492565167E+03 -0.48340932616E+02  0.52243687691E+02  0.14377992598E+03  0.00000000000E+00 0.  1.
          4    1    6    6  503    0  0.12295208462E+03  0.50064247289E+02 -0.13591055796E+03  0.18998769364E+03  0.00000000000E+00 0. -1.
         -4    1    6    6    0  503  0.33587614512E+02  0.47271868035E+02 -0.28766192402E+01  0.58060591578E+02  0.00000000000E+00 0.  1.
<mgrwt>
<rscale>  0 0.20738781E+04</rscale>
<asrwt>0</asrwt>
<pdfrwt beam="1">  1        2 0.11379926E+00 0.20738781E+04</pdfrwt>
<pdfrwt beam="2">  1       -1 0.22363526E+00 0.20738781E+04</pdfrwt>
<totfact> 0.41869905E+00</totfact>
</mgrwt>
</event>
<event>
12    7  0.1730932E-007  0.2119928E+04  0.7818608E-02  0.8552515E-01
          4   -1    0    0  501    0  0.00000000000E+00  0.00000000000E+00  0.17266147938E+04  0.17266147938E+04  0.00000000000E+00 0. -1.
         -3   -1    0    0    0  501 -0.00000000000E+00 -0.00000000000E+00 -0.65070920174E+03  0.65070920174E+03  0.00000000000E+00 0.  1.
         24    2    1    2    0    0 -0.13778076374E+03  0.36689947089E+03  0.13036474860E+04  0.13635869892E+04  0.79208261474E+02 0.  0.
        254    2    1    2    0    0  0.13778076374E+03 -0.36689947089E+03 -0.22774189390E+03  0.10137370064E+04  0.90675111653E+03 0.  0.
         23    2    4    4    0    0 -0.36943670609E+03 -0.14332645764E+03  0.22632638808E+01  0.40666529338E+03  0.91354174573E+02 0.  0.
         23    2    4    4    0    0  0.50721746983E+03 -0.22357301325E+03 -0.23000515778E+03  0.60707171303E+03  0.91538178936E+02 0.  0.
          4    1    3    3  502    0 -0.11274643100E+03  0.33683561042E+03  0.12291051856E+04  0.12794020257E+04  0.00000000000E+00 0. -1.
         -3    1    3    3    0  502 -0.25034332747E+02  0.30063860468E+02  0.74542300414E+02  0.84184963464E+02  0.00000000000E+00 0.  1.
         13    1    5    5    0    0 -0.35768997813E+03 -0.14803106783E+03 -0.12383469935E+02  0.38730952457E+03  0.00000000000E+00 0. -1.
        -13    1    5    5    0    0 -0.11746727957E+02  0.47046101851E+01  0.14646733815E+02  0.19355768808E+02  0.00000000000E+00 0.  1.
          3    1    6    6  503    0  0.29808449670E+03 -0.84548925334E+02 -0.11046840709E+03  0.32894704272E+03  0.00000000000E+00 0. -1.
         -3    1    6    6    0  503  0.20913297313E+03 -0.13902408791E+03 -0.11953675069E+03  0.27812467031E+03  0.00000000000E+00 0.  1.
<mgrwt>
<rscale>  0 0.21199284E+04</rscale>
<asrwt>0</asrwt>
<pdfrwt beam="1">  1        4 0.26563304E+00 0.21199284E+04</pdfrwt>
<pdfrwt beam="2">  1       -3 0.10010911E+00 0.21199284E+04</pdfrwt>
<totfact> 0.92377803E-02</totfact>
</mgrwt>
</event>
<event>
12    7  0.1730932E-007  0.1605714E+04  0.7818608E-02  0.8817045E-01
         -1   -1    0    0    0  501 -0.00000000000E+00  0.00000000000E+00  0.54026320914E+03  0.54026320914E+03  0.00000000000E+00 0.  1.
          2   -1    0    0  501    0  0.00000000000E+00 -0.00000000000E+00 -0.11930838177E+04  0.11930838177E+04  0.00000000000E+00 0. -1.
         24    2    1    2    0    0  0.43866721174E+02  0.41148558657E+02  0.36608143275E+03  0.37863004113E+03  0.75680905973E+02 0.  0.
        254    2    1    2    0    0 -0.43866721174E+02 -0.41148558657E+02 -0.10189020414E+04  0.13547169858E+04  0.89077452171E+03 0.  0.
         23    2    4    4    0    0  0.11626573788E+03  0.15941689111E+03  0.71996290239E+02  0.23033177667E+03  0.94539909869E+02 0.  0.
         23    2    4    4    0    0 -0.16013245906E+03 -0.20056544977E+03 -0.10908983316E+04  0.11243852091E+04  0.91181272569E+02 0.  0.
          2    1    3    3  502    0  0.26095672039E+02  0.14551611725E+01  0.30176468823E+02  0.39921433639E+02  0.00000000000E+00 0. -1.
         -1    1    3    3    0  502  0.17771049135E+02  0.39693397484E+02  0.33590496393E+03  0.33870860749E+03  0.00000000000E+00 0.  1.
         13    1    5    5    0    0 -0.59660895151E+01 -0.88472279423E+01  0.17452270084E+01  0.10812653868E+02  0.00000000000E+00 0.  1.
        -13    1    5    5    0    0  0.12223182740E+03  0.16826411905E+03  0.70251063231E+02  0.21951912280E+03  0.00000000000E+00 0. -1.
          4    1    6    6  503    0 -0.13575161805E+03 -0.13757291450E+03 -0.93022420828E+03  0.95009046215E+03  0.00000000000E+00 0. -1.
         -4    1    6    6    0  503 -0.24380841001E+02 -0.62992535266E+02 -0.16067412332E+03  0.17429474694E+03  0.00000000000E+00 0.  1.
<mgrwt>
<rscale>  0 0.16057139E+04</rscale>
<asrwt>0</asrwt>
<pdfrwt beam="1">  1        2 0.18355135E+00 0.16057139E+04</pdfrwt>
<pdfrwt beam="2">  1       -1 0.83117418E-01 0.16057139E+04</pdfrwt>
<totfact> 0.30039881E+01</totfact>
</mgrwt>
</event>
<event>
12    7  0.1730932E-007  0.1563326E+04  0.7818608E-02  0.8843400E-01
         -1   -1    0    0    0  501 -0.00000000000E+00  0.00000000000E+00  0.57309272994E+03  0.57309272994E+03  0.00000000000E+00 0.  1.
          2   -1    0    0  501    0  0.00000000000E+00 -0.00000000000E+00 -0.10661404805E+04  0.10661404805E+04  0.00000000000E+00 0. -1.
         24    2    1    2    0    0  0.34155550153E+03  0.34748953722E+03 -0.33016765917E+03  0.59372356702E+03  0.78024686848E+02 0.  0.
        254    2    1    2    0    0 -0.34155550153E+03 -0.34748953722E+03 -0.16288009138E+03  0.10455096434E+04  0.91057748227E+03 0.  0.
         23    2    4    4    0    0 -0.64880629555E+02 -0.10543795769E+03 -0.50951074843E+03  0.53197294847E+03  0.89818462050E+02 0.  0.
         23    2    4    4    0    0 -0.27667487198E+03 -0.24205157953E+03  0.34663065705E+03  0.51353669495E+03  0.91810526198E+02 0.  0.
          2    1    3    3  502    0  0.16173546777E+03  0.14075167981E+03 -0.10329941348E+03  0.23799194467E+03  0.00000000000E+00 0. -1.
         -1    1    3    3    0  502  0.17982003376E+03  0.20673785742E+03 -0.22686824569E+03  0.35573162234E+03  0.00000000000E+00 0.  1.
         13    1    5    5    0    0 -0.51482853379E+02 -0.11908215662E+03 -0.39183994070E+03  0.41275850487E+03  0.00000000000E+00 0. -1.
        -13    1    5    5    0    0 -0.13397776176E+02  0.13644198923E+02 -0.11767080773E+03  0.11921444360E+03  0.00000000000E+00 0.  1.
          1    1    6    6  503    0 -0.20900796707E+03 -0.22861674199E+03  0.27769575654E+03  0.41601067080E+03  0.00000000000E+00 0. -1.
         -1    1    6    6    0  503 -0.67666904911E+02 -0.13434837541E+02  0.68934900504E+02  0.97526024155E+02  0.00000000000E+00 0.  1.
<mgrwt>
<rscale>  0 0.15633264E+04</rscale>
<asrwt>0</asrwt>
<pdfrwt beam="1">  1        2 0.16402161E+00 0.15633264E+04</pdfrwt>
<pdfrwt beam="2">  1       -1 0.88168113E-01 0.15633264E+04</pdfrwt>
<totfact> 0.31711327E+01</totfact>
</mgrwt>
</event>
<event>
12    7  0.1730932E-007  0.2437005E+04  0.7818608E-02  0.8425778E-01
          2   -1    0    0  501    0  0.00000000000E+00  0.00000000000E+00  0.20873470144E+04  0.20873470144E+04  0.00000000000E+00 0. -1.
         -1   -1    0    0    0  501 -0.00000000000E+00 -0.00000000000E+00 -0.71130906137E+03  0.71130906137E+03  0.00000000000E+00 0.  1.
         24    2    1    2    0    0 -0.64998376881E+03 -0.53828640719E+03 -0.12253833259E+03  0.85608638416E+03  0.75080612041E+02 0.  0.
        254    2    1    2    0    0  0.64998376881E+03  0.53828640719E+03  0.14985762856E+04  0.19425696916E+04  0.90311403878E+03 0.  0.
         23    2    4    4    0    0  0.74168560904E+03  0.32532652341E+03  0.14842065752E+04  0.16932344609E+04  0.90768344934E+02 0.  0.
         23    2    4    4    0    0 -0.91701840223E+02  0.21295988378E+03  0.14369710460E+02  0.24933523068E+03  0.90556220536E+02 0.  0.
          2    1    3    3  502    0 -0.49330380426E+02 -0.18052357674E+02 -0.41819217060E+01  0.52695944054E+02  0.00000000000E+00 0. -1.
         -1    1    3    3    0  502 -0.60065338839E+03 -0.52023404952E+03 -0.11835641089E+03  0.80339044011E+03  0.00000000000E+00 0.  1.
         13    1    5    5    0    0  0.32809053990E+03  0.18669575977E+03  0.73580851812E+03  0.82699025655E+03  0.00000000000E+00 0.  1.
        -13    1    5    5    0    0  0.41359506913E+03  0.13863076364E+03  0.74839805703E+03  0.86624420437E+03  0.00000000000E+00 0. -1.
          4    1    6    6  503    0 -0.81650441594E+02  0.21361232427E+03  0.30098551941E+02  0.23065763053E+03  0.00000000000E+00 0. -1.
         -4    1    6    6    0  503 -0.10051398628E+02 -0.65244048757E+00 -0.15728841481E+02  0.18677600149E+02  0.00000000000E+00 0.  1.
<mgrwt>
<rscale>  0 0.24370054E+04</rscale>
<asrwt>0</asrwt>
<pdfrwt beam="1">  1        2 0.32113031E+00 0.24370054E+04</pdfrwt>
<pdfrwt beam="2">  1       -1 0.10943216E+00 0.24370054E+04</pdfrwt>
<totfact> 0.47062705E+00</totfact>
</mgrwt>
</event>
<event>
12    7  0.1730932E-007  0.1963324E+04  0.7818608E-02  0.8623963E-01
         -1   -1    0    0    0  501 -0.00000000000E+00  0.00000000000E+00  0.35192765608E+03  0.35192765608E+03  0.00000000000E+00 0.  1.
          2   -1    0    0  501    0  0.00000000000E+00 -0.00000000000E+00 -0.27382335941E+04  0.27382335941E+04  0.00000000000E+00 0. -1.
         24    2    1    2    0    0 -0.11263354867E+03 -0.24716956168E+03  0.19352362258E+03  0.34323803283E+03  0.81128578078E+02 0.  0.
        254    2    1    2    0    0  0.11263354867E+03  0.24716956168E+03 -0.25798295606E+04  0.27469232174E+04  0.90348629861E+03 0.  0.
         23    2    4    4    0    0 -0.54626929451E+02  0.32321682893E+03 -0.28736093201E+03  0.44530737341E+03  0.90934765852E+02 0.  0.
         23    2    4    4    0    0  0.16726047812E+03 -0.76047267247E+02 -0.22924686286E+04  0.23016158440E+04  0.90905586422E+02 0.  0.
          2    1    3    3  502    0 -0.56223456476E+02 -0.80207227229E+02  0.11280968251E+03  0.14939980196E+03  0.00000000000E+00 0. -1.
         -1    1    3    3    0  502 -0.56410092194E+02 -0.16696233445E+03  0.80713940068E+02  0.19383823087E+03  0.00000000000E+00 0.  1.
         13    1    5    5    0    0  0.16721520106E+01  0.23486881609E+03 -0.18692177665E+03  0.30017646052E+03  0.00000000000E+00 0. -1.
        -13    1    5    5    0    0 -0.56299081462E+02  0.88348012836E+02 -0.10043915536E+03  0.14513091289E+03  0.00000000000E+00 0.  1.
          3    1    6    6  503    0  0.74218340433E+02 -0.80000833247E+02 -0.14215638801E+04  0.14257462469E+04  0.00000000000E+00 0. -1.
         -3    1    6    6    0  503  0.93042137688E+02  0.39535660003E+01 -0.87090474857E+03  0.87586959711E+03  0.00000000000E+00 0.  1.
<mgrwt>
<rscale>  0 0.19633238E+04</rscale>
<asrwt>0</asrwt>
<pdfrwt beam="1">  1        2 0.42126670E+00 0.19633238E+04</pdfrwt>
<pdfrwt beam="2">  1       -1 0.54142717E-01 0.19633238E+04</pdfrwt>
<totfact> 0.92177984E+00</totfact>
</mgrwt>
</event>
<event>
12    7  0.1730932E-007  0.2448579E+04  0.7818608E-02  0.8421537E-01
          2   -1    0    0  501    0  0.00000000000E+00  0.00000000000E+00  0.14307064871E+04  0.14307064871E+04  0.00000000000E+00 0. -1.
         -1   -1    0    0    0  501 -0.00000000000E+00 -0.00000000000E+00 -0.10476537496E+04  0.10476537496E+04  0.00000000000E+00 0.  1.
         24    2    1    2    0    0  0.93704302557E+03  0.40264380150E+03 -0.11616814926E+03  0.10295684246E+04  0.79651989620E+02 0.  0.
        254    2    1    2    0    0 -0.93704302557E+03 -0.40264380150E+03  0.49922088674E+03  0.14487918121E+04  0.89978028333E+03 0.  0.
         23    2    4    4    0    0 -0.10262832207E+04 -0.32408770874E+03  0.62943920410E+03  0.12503420058E+04  0.94187725064E+02 0.  0.
         23    2    4    4    0    0  0.89240195177E+02 -0.78556092758E+02 -0.13021831736E+03  0.19844980630E+03  0.91052969749E+02 0.  0.
          4    1    3    3  502    0  0.41889651962E+01  0.85342007101E+01  0.28117532614E+01  0.99139279591E+01  0.00000000000E+00 0. -1.
         -3    1    3    3    0  502  0.93285406037E+03  0.39410960079E+03 -0.11897990253E+03  0.10196544967E+04  0.00000000000E+00 0.  1.
         13    1    5    5    0    0 -0.67271055792E+03 -0.25752642998E+03  0.43240658506E+03  0.84013975723E+03  0.00000000000E+00 0. -1.
        -13    1    5    5    0    0 -0.35357266282E+03 -0.66561278760E+02  0.19703261904E+03  0.41020224852E+03  0.00000000000E+00 0.  1.
          2    1    6    6  503    0  0.95652824094E+02 -0.59820870070E+02 -0.13704058173E+03  0.17750526835E+03  0.00000000000E+00 0. -1.
         -2    1    6    6    0  503 -0.64126289175E+01 -0.18735222688E+02  0.68222643652E+01  0.20944537949E+02  0.00000000000E+00 0.  1.
<mgrwt>
<rscale>  0 0.24485792E+04</rscale>
<asrwt>0</asrwt>
<pdfrwt beam="1">  1        2 0.22010869E+00 0.24485792E+04</pdfrwt>
<pdfrwt beam="2">  1       -1 0.16117750E+00 0.24485792E+04</pdfrwt>
<totfact> 0.40599518E+00</totfact>
</mgrwt>
</event>
<event>
12    7  0.1730932E-007  0.1446704E+04  0.7818608E-02  0.8920688E-01
         -1   -1    0    0    0  501 -0.00000000000E+00  0.00000000000E+00  0.58067592585E+03  0.58067592585E+03  0.00000000000E+00 0.  1.
          2   -1    0    0  501    0  0.00000000000E+00 -0.00000000000E+00 -0.90108502747E+03  0.90108502747E+03  0.00000000000E+00 0. -1.
         24    2    1    2    0    0  0.26407649362E+03  0.14595224438E+03 -0.42794246983E+03  0.52962430965E+03  0.79553125454E+02 0.  0.
        254    2    1    2    0    0 -0.26407649362E+03 -0.14595224438E+03  0.10753336820E+03  0.95213664367E+03  0.89663945420E+03 0.  0.
         23    2    4    4    0    0 -0.94828616273E+01 -0.40830977330E+03  0.31452757091E+03  0.52268071301E+03  0.86375570949E+02 0.  0.
         23    2    4    4    0    0 -0.25459363199E+03  0.26235752892E+03 -0.20699420270E+03  0.42945593066E+03  0.89086508499E+02 0.  0.
          4    1    3    3  502    0  0.18815571278E+03  0.12104639727E+03 -0.36412065577E+03  0.42736243927E+03  0.00000000000E+00 0. -1.
         -3    1    3    3    0  502  0.75920780840E+02  0.24905847114E+02 -0.63821814061E+02  0.10226187038E+03  0.00000000000E+00 0.  1.
         13    1    5    5    0    0  0.28803028602E+02 -0.29540723911E+03  0.24348392349E+03  0.38390034172E+03  0.00000000000E+00 0.  1.
        -13    1    5    5    0    0 -0.38285890230E+02 -0.11290253419E+03  0.71043647414E+02  0.13878037129E+03  0.00000000000E+00 0. -1.
          4    1    6    6  503    0 -0.49514924013E+02  0.53678612277E+02 -0.86051458803E+02  0.11286263632E+03  0.00000000000E+00 0. -1.
         -4    1    6    6    0  503 -0.20507870798E+03  0.20867891664E+03 -0.12094274390E+03  0.31659329433E+03  0.00000000000E+00 0.  1.
<mgrwt>
<rscale>  0 0.14467044E+04</rscale>
<asrwt>0</asrwt>
<pdfrwt beam="1">  1        2 0.13862846E+00 0.14467044E+04</pdfrwt>
<pdfrwt beam="2">  1       -1 0.89334759E-01 0.14467044E+04</pdfrwt>
<totfact> 0.39804172E+01</totfact>
</mgrwt>
</event>
<event>
12    7  0.1730932E-007  0.2340130E+04  0.7818608E-02  0.8462264E-01
         -1   -1    0    0    0  501 -0.00000000000E+00  0.00000000000E+00  0.20565661836E+04  0.20565661836E+04  0.00000000000E+00 0.  1.
          2   -1    0    0  501    0  0.00000000000E+00 -0.00000000000E+00 -0.66569803104E+03  0.66569803104E+03  0.00000000000E+00 0. -1.
         24    2    1    2    0    0  0.44283104759E+03 -0.62312912528E+03 -0.14859089274E+03  0.78283207135E+03  0.79734277702E+02 0.  0.
        254    2    1    2    0    0 -0.44283104759E+03  0.62312912528E+03  0.15394590453E+04  0.19394321433E+04  0.89837277495E+03 0.  0.
         23    2    4    4    0    0  0.13652085312E+03  0.40516854486E+03  0.24312025080E+03  0.49986230763E+03  0.89192921005E+02 0.  0.
         23    2    4    4    0    0 -0.57935190071E+03  0.21796058042E+03  0.12963387945E+04  0.14395698356E+04  0.93335963845E+02 0.  0.
          2    1    3    3  502    0  0.26853811961E+02 -0.48716289000E+02 -0.31766670151E+02  0.64058764922E+02  0.00000000000E+00 0. -1.
         -1    1    3    3    0  502  0.41597723563E+03 -0.57441283628E+03 -0.11682422258E+03  0.71877330643E+03  0.00000000000E+00 0.  1.
         13    1    5    5    0    0  0.90056923640E+02  0.18784768630E+03  0.15969457410E+03  0.26248687536E+03  0.00000000000E+00 0. -1.
        -13    1    5    5    0    0  0.46463929481E+02  0.21732085856E+03  0.83425676708E+02  0.23737543227E+03  0.00000000000E+00 0.  1.
          3    1    6    6  503    0 -0.50457913170E+03  0.15389509613E+03  0.10911914353E+04  0.12120159031E+04  0.00000000000E+00 0. -1.
         -3    1    6    6    0  503 -0.74772769006E+02  0.64065484289E+02  0.20514735914E+03  0.22755393256E+03  0.00000000000E+00 0.  1.
<mgrwt>
<rscale>  0 0.23401300E+04</rscale>
<asrwt>0</asrwt>
<pdfrwt beam="1">  1        2 0.10241508E+00 0.23401300E+04</pdfrwt>
<pdfrwt beam="2">  1       -1 0.31639479E+00 0.23401300E+04</pdfrwt>
<totfact> 0.11632830E+00</totfact>
</mgrwt>
</event>
<event>
12    7  0.1730932E-007  0.1814458E+04  0.7818608E-02  0.8698649E-01
          2   -1    0    0  501    0  0.00000000000E+00  0.00000000000E+00  0.16663804340E+04  0.16663804340E+04  0.00000000000E+00 0. -1.
         -1   -1    0    0    0  501 -0.00000000000E+00 -0.00000000000E+00 -0.49392328624E+03  0.49392328624E+03  0.00000000000E+00 0.  1.
         24    2    1    2    0    0  0.15115548093E+03 -0.35946976440E+03 -0.22518299136E+03  0.45717024643E+03  0.78935186623E+02 0.  0.
        254    2    1    2    0    0 -0.15115548093E+03  0.35946976440E+03  0.13976401391E+04  0.17031334738E+04  0.89173941272E+03 0.  0.
         23    2    4    4    0    0 -0.77538632180E+02 -0.17727809049E+03  0.10048857035E+04  0.10275968658E+04  0.93382442159E+02 0.  0.
         23    2    4    4    0    0 -0.73616848749E+02  0.53674785490E+03  0.39275443559E+03  0.67553660805E+03  0.92606489972E+02 0.  0.
          4    1    3    3  502    0 -0.35861444982E+00  0.24809196151E+01  0.24778778777E+01  0.35246908002E+01  0.00000000000E+00 0. -1.
         -3    1    3    3    0  502  0.15151409538E+03 -0.36195068402E+03 -0.22766086924E+03  0.45364555563E+03  0.00000000000E+00 0.  1.
         13    1    5    5    0    0 -0.52028389268E+02 -0.69982758797E+02  0.65397581050E+03  0.65976427649E+03  0.00000000000E+00 0. -1.
        -13    1    5    5    0    0 -0.25510242912E+02 -0.10729533170E+03  0.35090989305E+03  0.36783258928E+03  0.00000000000E+00 0.  1.
          1    1    6    6  503    0 -0.85101978683E+02  0.30094771972E+03  0.20566970930E+03  0.37431524962E+03  0.00000000000E+00 0. -1.
         -1    1    6    6    0  503  0.11485129934E+02  0.23580013518E+03  0.18708472629E+03  0.30122135842E+03  0.00000000000E+00 0.  1.
<mgrwt>
<rscale>  0 0.18144576E+04</rscale>
<asrwt>0</asrwt>
<pdfrwt beam="1">  1        2 0.25636622E+00 0.18144576E+04</pdfrwt>
<pdfrwt beam="2">  1       -1 0.75988199E-01 0.18144576E+04</pdfrwt>
<totfact> 0.19130993E+01</totfact>
</mgrwt>
</event>
<event>
12    7  0.1730932E-007  0.3275960E+04  0.7818608E-02  0.8169039E-01
         -1   -1    0    0    0  501 -0.00000000000E+00  0.00000000000E+00  0.15224099088E+04  0.15224099088E+04  0.00000000000E+00 0.  1.
          2   -1    0    0  501    0  0.00000000000E+00 -0.00000000000E+00 -0.17623236496E+04  0.17623236496E+04  0.00000000000E+00 0. -1.
         24    2    1    2    0    0  0.13021500968E+04 -0.64242972862E+03 -0.57333201791E+03  0.15631794716E+04  0.80682258844E+02 0.  0.
        254    2    1    2    0    0 -0.13021500968E+04  0.64242972862E+03  0.33341827709E+03  0.17215540868E+04  0.86271078322E+03 0.  0.
         23    2    4    4    0    0 -0.12035751981E+04  0.20725298308E+03  0.31962309105E+03  0.12660368540E+04  0.95620808161E+02 0.  0.
         23    2    4    4    0    0 -0.98574898689E+02  0.43517674553E+03  0.13795186046E+02  0.45551723277E+03  0.90608121523E+02 0.  0.
          4    1    3    3  502    0  0.11189068928E+04 -0.52619080798E+03 -0.50580007188E+03  0.13359128392E+04  0.00000000000E+00 0. -1.
         -3    1    3    3    0  502  0.18324320398E+03 -0.11623892064E+03 -0.67531946026E+02  0.22726663242E+03  0.00000000000E+00 0.  1.
         13    1    5    5    0    0 -0.17638940495E+03  0.49301961892E+02  0.18781642376E+02  0.18411044434E+03  0.00000000000E+00 0. -1.
        -13    1    5    5    0    0 -0.10271857931E+04  0.15795102119E+03  0.30084144867E+03  0.10819264097E+04  0.00000000000E+00 0.  1.
          2    1    6    6  503    0 -0.44404880442E+02  0.77367951335E+02  0.27571458102E+02  0.93369045206E+02  0.00000000000E+00 0. -1.
         -2    1    6    6    0  503 -0.54170018247E+02  0.35780879420E+03 -0.13776272056E+02  0.36214818756E+03  0.00000000000E+00 0.  1.
<mgrwt>
<rscale>  0 0.32759603E+04</rscale>
<asrwt>0</asrwt>
<pdfrwt beam="1">  1        2 0.27112672E+00 0.32759603E+04</pdfrwt>
<pdfrwt beam="2">  1       -1 0.23421691E+00 0.32759603E+04</pdfrwt>
<totfact> 0.76324838E-01</totfact>
</mgrwt>
</event>
<event>
12    7  0.1730932E-007  0.1704512E+04  0.7818608E-02  0.8758795E-01
         -1   -1    0    0    0  501 -0.00000000000E+00  0.00000000000E+00  0.53385858254E+03  0.53385858254E+03  0.00000000000E+00 0.  1.
          2   -1    0    0  501    0  0.00000000000E+00 -0.00000000000E+00 -0.13605480512E+04  0.13605480512E+04  0.00000000000E+00 0. -1.
         24    2    1    2    0    0 -0.54265387280E+03  0.67204640678E+02 -0.59815249134E+03  0.81417005470E+03  0.78081916466E+02 0.  0.
        254    2    1    2    0    0  0.54265387280E+03 -0.67204640678E+02 -0.22853697734E+03  0.10802365791E+04  0.90315681216E+03 0.  0.
         23    2    4    4    0    0 -0.12603971984E+02  0.29691269188E+03  0.10812926840E+03  0.33051839580E+03  0.96096121514E+02 0.  0.
         23    2    4    4    0    0  0.55525784478E+03 -0.36411733256E+03 -0.33666624574E+03  0.74971818326E+03  0.88546525783E+02 0.  0.
          4    1    3    3  502    0 -0.13278133118E+03  0.22522663838E+02 -0.10127080866E+03  0.16850498207E+03  0.00000000000E+00 0. -1.
         -1    1    3    3    0  502 -0.40987254162E+03  0.44681976841E+02 -0.49688168268E+03  0.64566507263E+03  0.00000000000E+00 0.  1.
         13    1    5    5    0    0 -0.13959526946E+01  0.27635098871E+03  0.12330281287E+03  0.30261427809E+03  0.00000000000E+00 0.  1.
        -13    1    5    5    0    0 -0.11208019290E+02  0.20561703173E+02 -0.15173544464E+02  0.27904117714E+02  0.00000000000E+00 0. -1.
          3    1    6    6  503    0  0.38711073672E+02 -0.52032905840E+02 -0.18288686742E+02  0.67382835928E+02  0.00000000000E+00 0. -1.
         -3    1    6    6    0  503  0.51654677111E+03 -0.31208442672E+03 -0.31837755900E+03  0.68233534733E+03  0.00000000000E+00 0.  1.
<mgrwt>
<rscale>  0 0.17045120E+04</rscale>
<asrwt>0</asrwt>
<pdfrwt beam="1">  1        2 0.20931508E+00 0.17045120E+04</pdfrwt>
<pdfrwt beam="2">  1       -1 0.82132091E-01 0.17045120E+04</pdfrwt>
<totfact> 0.24375097E+01</totfact>
</mgrwt>
</event>
<event>
12    7  0.1730932E-007  0.1603376E+04  0.7818608E-02  0.8818477E-01
          2   -1    0    0  501    0  0.00000000000E+00  0.00000000000E+00  0.25602681578E+04  0.25602681578E+04  0.00000000000E+00 0. -1.
         -1   -1    0    0    0  501 -0.00000000000E+00 -0.00000000000E+00 -0.25102981593E+03  0.25102981593E+03  0.00000000000E+00 0.  1.
         24    2    1    2    0    0 -0.48213133728E+03  0.26001642190E+03  0.79557944377E+03  0.96925259057E+03  0.80279305851E+02 0.  0.
        254    2    1    2    0    0  0.48213133728E+03 -0.26001642190E+03  0.15136588981E+04  0.18420453832E+04  0.89549358891E+03 0.  0.
         23    2    4    4    0    0 -0.14610196166E+03  0.95818588023E+01 -0.68260381806E+01  0.17262071513E+03  0.91179609979E+02 0.  0.
         23    2    4    4    0    0  0.62823329894E+03 -0.26959828070E+03  0.15204849363E+04  0.16694246680E+04  0.87999829106E+02 0.  0.
          2    1    3    3  502    0 -0.40003009553E+03  0.21327025489E+03  0.59954550412E+03  0.75164026665E+03  0.00000000000E+00 0. -1.
         -1    1    3    3    0  502 -0.82101241744E+02  0.46746167011E+02  0.19603393965E+03  0.21761232392E+03  0.00000000000E+00 0.  1.
         13    1    5    5    0    0 -0.13818196019E+03 -0.56748428657E+01  0.21029433883E+02  0.13988815194E+03  0.00000000000E+00 0. -1.
        -13    1    5    5    0    0 -0.79200014680E+01  0.15256701668E+02 -0.27855472064E+02  0.32732563189E+02  0.00000000000E+00 0.  1.
          1    1    6    6  503    0  0.21826066994E+03 -0.54518303739E+02  0.44931869853E+03  0.50249105299E+03  0.00000000000E+00 0. -1.
         -1    1    6    6    0  503  0.40997262899E+03 -0.21507997696E+03  0.10711662377E+04  0.11669336150E+04  0.00000000000E+00 0.  1.
<mgrwt>
<rscale>  0 0.16033760E+04</rscale>
<asrwt>0</asrwt>
<pdfrwt beam="1">  1        2 0.39388739E+00 0.16033760E+04</pdfrwt>
<pdfrwt beam="2">  1       -1 0.38619973E-01 0.16033760E+04</pdfrwt>
<totfact> 0.22822716E+01</totfact>
</mgrwt>
</event>
<event>
12    7  0.1730932E-007  0.1545552E+04  0.7818608E-02  0.8854714E-01
          2   -1    0    0  501    0  0.00000000000E+00  0.00000000000E+00  0.24572862293E+04  0.24572862293E+04  0.00000000000E+00 0. -1.
         -1   -1    0    0    0  501 -0.00000000000E+00 -0.00000000000E+00 -0.24302527853E+03  0.24302527853E+03  0.00000000000E+00 0.  1.
         24    2    1    2    0    0 -0.26312413402E+03 -0.49026429646E+02 -0.20997958378E+02  0.28007578457E+03  0.79772364517E+02 0.  0.
        254    2    1    2    0    0  0.26312413402E+03  0.49026429646E+02  0.22352589092E+04  0.24202357233E+04  0.88854975352E+03 0.  0.
         23    2    4    4    0    0 -0.80226067330E+02 -0.22288661173E+03  0.17153993303E+04  0.17343858343E+04  0.96874641369E+02 0.  0.
         23    2    4    4    0    0  0.34335020135E+03  0.27191304137E+03  0.51985957890E+03  0.68584988903E+03  0.91159342261E+02 0.  0.
          2    1    3    3  502    0 -0.68040089005E+02 -0.28406569315E+02  0.26302856384E+02  0.78282993977E+02  0.00000000000E+00 0. -1.
         -1    1    3    3    0  502 -0.19508404501E+03 -0.20619860332E+02 -0.47300814762E+02  0.20179279060E+03  0.00000000000E+00 0.  1.
         13    1    5    5    0    0  0.19791409617E+01 -0.40578066246E+02  0.12437344723E+03  0.13084055501E+03  0.00000000000E+00 0. -1.
        -13    1    5    5    0    0 -0.82205208292E+02 -0.18230854548E+03  0.15910258831E+04  0.16035452793E+04  0.00000000000E+00 0.  1.
          3    1    6    6  503    0  0.29280683673E+02  0.52123176075E+02  0.41177476097E+02  0.72593170879E+02  0.00000000000E+00 0. -1.
         -3    1    6    6    0  503  0.31406951768E+03  0.21978986530E+03  0.47868210280E+03  0.61325671816E+03  0.00000000000E+00 0.  1.
<mgrwt>
<rscale>  0 0.15455519E+04</rscale>
<asrwt>0</asrwt>
<pdfrwt beam="1">  1        2 0.37804402E+00 0.15455519E+04</pdfrwt>
<pdfrwt beam="2">  1       -1 0.37388506E-01 0.15455519E+04</pdfrwt>
<totfact> 0.27897475E+01</totfact>
</mgrwt>
</event>
<event>
12    7  0.1730932E-007  0.2016514E+04  0.7818608E-02  0.8598939E-01
         -1   -1    0    0    0  501 -0.00000000000E+00  0.00000000000E+00  0.30265392315E+03  0.30265392315E+03  0.00000000000E+00 0.  1.
          2   -1    0    0  501    0  0.00000000000E+00 -0.00000000000E+00 -0.33588930007E+04  0.33588930007E+04  0.00000000000E+00 0. -1.
         24    2    1    2    0    0  0.47765567518E+03 -0.28952037220E+03 -0.17448688719E+03  0.59072173159E+03  0.80805324227E+02 0.  0.
        254    2    1    2    0    0 -0.47765567518E+03  0.28952037220E+03 -0.28817521904E+04  0.30708251923E+04  0.90193940200E+03 0.  0.
         23    2    4    4    0    0  0.25183352228E+03  0.46984554708E+02 -0.99569948859E+03  0.10321142434E+04  0.90634808560E+02 0.  0.
         23    2    4    4    0    0 -0.72948919746E+03  0.24253581749E+03 -0.18860527018E+04  0.20387109489E+04  0.90384883782E+02 0.  0.
          2    1    3    3  502    0  0.66030167824E+02 -0.63604787428E+02 -0.52250818412E+02  0.10552582656E+03  0.00000000000E+00 0. -1.
         -1    1    3    3    0  502  0.41162550735E+03 -0.22591558477E+03 -0.12223606878E+03  0.48519590503E+03  0.00000000000E+00 0.  1.
         13    1    5    5    0    0  0.11430156679E+03  0.33746521726E+02 -0.29958729561E+03  0.32242243035E+03  0.00000000000E+00 0.  1.
        -13    1    5    5    0    0  0.13753195549E+03  0.13238032982E+02 -0.69611219298E+03  0.70969181305E+03  0.00000000000E+00 0. -1.
          4    1    6    6  503    0 -0.23012181565E+03  0.87780417560E+02 -0.71585841389E+03  0.75704340726E+03  0.00000000000E+00 0.  1.
         -4    1    6    6    0  503 -0.49936738181E+03  0.15475539993E+03 -0.11701942879E+04  0.12816675416E+04  0.00000000000E+00 0. -1.
<mgrwt>
<rscale>  0 0.20165140E+04</rscale>
<asrwt>0</asrwt>
<pdfrwt beam="1">  1        2 0.51675274E+00 0.20165140E+04</pdfrwt>
<pdfrwt beam="2">  1       -1 0.46562145E-01 0.20165140E+04</pdfrwt>
<totfact> 0.49543298E+00</totfact>
</mgrwt>
</event>
<event>
12    7  0.1730932E-007  0.2719122E+04  0.7818608E-02  0.8328827E-01
          2   -1    0    0  501    0  0.00000000000E+00  0.00000000000E+00  0.26443693664E+04  0.26443693664E+04  0.00000000000E+00 0. -1.
         -1   -1    0    0    0  501 -0.00000000000E+00 -0.00000000000E+00 -0.69899672433E+03  0.69899672433E+03  0.00000000000E+00 0.  1.
         24    2    1    2    0    0  0.95548800017E+03 -0.25175921107E+03  0.17355736075E+04  0.19987843579E+04  0.81136572407E+02 0.  0.
        254    2    1    2    0    0 -0.95548800017E+03  0.25175921107E+03  0.20979903456E+03  0.13445817329E+04  0.88743697388E+03 0.  0.
         23    2    4    4    0    0 -0.18796321121E+03 -0.24717674120E+03 -0.14814633413E+03  0.35657391533E+03  0.93654207704E+02 0.  0.
         23    2    4    4    0    0 -0.76752478895E+03  0.49893595226E+03  0.35794536870E+03  0.98800781752E+03  0.10001587073E+03 0.  0.
          2    1    3    3  502    0  0.67668107730E+03 -0.19879514550E+03  0.11735353061E+04  0.13691610222E+04  0.00000000000E+00 0. -1.
         -1    1    3    3    0  502  0.27880692287E+03 -0.52964065563E+02  0.56203830146E+03  0.62962333565E+03  0.00000000000E+00 0.  1.
         13    1    5    5    0    0 -0.97620130918E+02 -0.73175387395E+02 -0.23486825441E+02  0.12424153191E+03  0.00000000000E+00 0. -1.
        -13    1    5    5    0    0 -0.90343080297E+02 -0.17400135380E+03 -0.12465950869E+03  0.23233238343E+03  0.00000000000E+00 0.  1.
          2    1    6    6  503    0 -0.61867092711E+03  0.35704562561E+03  0.25918520242E+03  0.75987647942E+03  0.00000000000E+00 0.  1.
         -2    1    6    6    0  503 -0.14885386185E+03  0.14189032665E+03  0.98760166275E+02  0.22813133811E+03  0.00000000000E+00 0. -1.
<mgrwt>
<rscale>  0 0.27191216E+04</rscale>
<asrwt>0</asrwt>
<pdfrwt beam="1">  1        2 0.40682605E+00 0.27191216E+04</pdfrwt>
<pdfrwt beam="2">  1       -1 0.10753796E+00 0.27191216E+04</pdfrwt>
<totfact> 0.22964001E+00</totfact>
</mgrwt>
</event>
<event>
12    7  0.1730932E-007  0.4465290E+04  0.7818608E-02  0.7916742E-01
         -1   -1    0    0    0  501 -0.00000000000E+00  0.00000000000E+00  0.33278538958E+04  0.33278538958E+04  0.00000000000E+00 0.  1.
          2   -1    0    0  501    0  0.00000000000E+00 -0.00000000000E+00 -0.14978735101E+04  0.14978735101E+04  0.00000000000E+00 0. -1.
         24    2    1    2    0    0 -0.27017100448E+02 -0.55558951312E+03 -0.13588745186E+04  0.14704981840E+04  0.80095699301E+02 0.  0.
        254    2    1    2    0    0  0.27017100448E+02  0.55558951312E+03  0.31888549042E+04  0.33552292219E+04  0.88281249468E+03 0.  0.
         23    2    4    4    0    0  0.35429871775E+03 -0.22055867213E+02  0.94737777916E+03  0.10157948709E+04  0.91107193141E+02 0.  0.
         23    2    4    4    0    0 -0.32728161730E+03  0.57764538033E+03  0.22414771251E+04  0.23394343510E+04  0.89139991886E+02 0.  0.
          2    1    3    3  502    0 -0.10308806671E+02 -0.47841480899E+03 -0.10933864306E+04  0.11935161865E+04  0.00000000000E+00 0. -1.
         -1    1    3    3    0  502 -0.16708293777E+02 -0.77174704130E+02 -0.26548808797E+03  0.27698199742E+03  0.00000000000E+00 0.  1.
         13    1    5    5    0    0  0.24207295433E+03 -0.32646900124E+02  0.74653743824E+03  0.78548283368E+03  0.00000000000E+00 0.  1.
        -13    1    5    5    0    0  0.11222576343E+03  0.10591032911E+02  0.20084034092E+03  0.23031203723E+03  0.00000000000E+00 0. -1.
          1    1    6    6  503    0 -0.84221540637E+01  0.11138922289E+02  0.17469868341E+02  0.22365253602E+02  0.00000000000E+00 0. -1.
         -1    1    6    6    0  503 -0.31885946324E+03  0.56650645804E+03  0.22240072567E+04  0.23170690974E+04  0.00000000000E+00 0.  1.
<mgrwt>
<rscale>  0 0.44652902E+04</rscale>
<asrwt>0</asrwt>
<pdfrwt beam="1">  1        2 0.23044208E+00 0.44652902E+04</pdfrwt>
<pdfrwt beam="2">  1       -1 0.51197752E+00 0.44652902E+04</pdfrwt>
<totfact> 0.13832895E-02</totfact>
</mgrwt>
</event>
<event>
12    7  0.1730932E-007  0.1389024E+04  0.7818608E-02  0.8961802E-01
          2   -1    0    0  501    0  0.00000000000E+00  0.00000000000E+00  0.23413921140E+04  0.23413921140E+04  0.00000000000E+00 0. -1.
         -1   -1    0    0    0  501 -0.00000000000E+00 -0.00000000000E+00 -0.20600861398E+03  0.20600861398E+03  0.00000000000E+00 0.  1.
         24    2    1    2    0    0  0.25957793131E+03 -0.23605107849E+03  0.38559463027E+03  0.52728814328E+03  0.79049054827E+02 0.  0.
        254    2    1    2    0    0 -0.25957793131E+03  0.23605107849E+03  0.17497888697E+04  0.20201125847E+04  0.94656904243E+03 0.  0.
         23    2    4    4    0    0 -0.16659507270E+03  0.50480626131E+03  0.15922003099E+04  0.16811615974E+04  0.92839700448E+02 0.  0.
         23    2    4    4    0    0 -0.92982858614E+02 -0.26875518282E+03  0.15758855980E+03  0.33895098727E+03  0.95804265580E+02 0.  0.
          2    1    3    3  502    0  0.51183525408E+02 -0.35289157395E+02  0.11692186388E+03  0.13242280830E+03  0.00000000000E+00 0. -1.
         -1    1    3    3    0  502  0.20839440591E+03 -0.20076192110E+03  0.26867276639E+03  0.39486533499E+03  0.00000000000E+00 0.  1.
         13    1    5    5    0    0 -0.45331806284E+02  0.16339752017E+03  0.38319881654E+03  0.41904063676E+03  0.00000000000E+00 0.  1.
        -13    1    5    5    0    0 -0.12126326642E+03  0.34140874114E+03  0.12090014934E+04  0.12621209606E+04  0.00000000000E+00 0. -1.
          4    1    6    6  503    0 -0.53813305721E+02 -0.17903051760E+03  0.50058945675E+02  0.19352957435E+03  0.00000000000E+00 0. -1.
         -4    1    6    6    0  503 -0.39169552893E+02 -0.89724665216E+02  0.10752961412E+03  0.14542141292E+03  0.00000000000E+00 0.  1.
<mgrwt>
<rscale>  0 0.13890240E+04</rscale>
<asrwt>0</asrwt>
<pdfrwt beam="1">  1        2 0.36021415E+00 0.13890240E+04</pdfrwt>
<pdfrwt beam="2">  1       -1 0.31693635E-01 0.13890240E+04</pdfrwt>
<totfact> 0.44236217E+01</totfact>
</mgrwt>
</event>
<event>
12    7  0.1730932E-007  0.1142763E+04  0.7818608E-02  0.9164486E-01
          2   -1    0    0  501    0  0.00000000000E+00  0.00000000000E+00  0.82244113688E+03  0.82244113688E+03  0.00000000000E+00 0. -1.
         -1   -1    0    0    0  501 -0.00000000000E+00 -0.00000000000E+00 -0.39696098821E+03  0.39696098821E+03  0.00000000000E+00 0.  1.
         24    2    1    2    0    0  0.49430061596E+02 -0.91193498750E+02 -0.10736728792E+03  0.17191509849E+03  0.85249524166E+02 0.  0.
        254    2    1    2    0    0 -0.49430061596E+02  0.91193498750E+02  0.53284743659E+03  0.10474870266E+04  0.89584769633E+03 0.  0.
         23    2    4    4    0    0  0.22347928596E+01  0.31989842008E+03  0.68089823211E+03  0.75781387615E+03  0.91211155746E+02 0.  0.
         23    2    4    4    0    0 -0.51664854456E+02 -0.22870492133E+03 -0.14805079552E+03  0.28967315045E+03  0.83763344087E+02 0.  0.
          4    1    3    3  502    0 -0.17185717278E+02  0.27860462938E+01 -0.58352602615E+01  0.18361949641E+02  0.00000000000E+00 0. -1.
         -3    1    3    3    0  502  0.66615778874E+02 -0.93979545044E+02 -0.10153202766E+03  0.15355314885E+03  0.00000000000E+00 0.  1.
         13    1    5    5    0    0 -0.35963377586E+01 -0.13259499187E+01 -0.10510007736E+01  0.39744673967E+01  0.00000000000E+00 0. -1.
        -13    1    5    5    0    0  0.58311306182E+01  0.32122437000E+03  0.68194923288E+03  0.75383940875E+03  0.00000000000E+00 0.  1.
          3    1    6    6  503    0  0.42195921968E+01 -0.78036597459E+01 -0.33469909352E+02  0.34625668163E+02  0.00000000000E+00 0. -1.
         -3    1    6    6    0  503 -0.55884446653E+02 -0.22090126158E+03 -0.11458088617E+03  0.25504748229E+03  0.00000000000E+00 0.  1.
<mgrwt>
<rscale>  0 0.11427634E+04</rscale>
<asrwt>0</asrwt>
<pdfrwt beam="1">  1        2 0.12652941E+00 0.11427634E+04</pdfrwt>
<pdfrwt beam="2">  1       -1 0.61070921E-01 0.11427634E+04</pdfrwt>
<totfact> 0.10203512E+02</totfact>
</mgrwt>
</event>
<event>
12    7  0.1730932E-007  0.1259107E+04  0.7818608E-02  0.9062638E-01
         -1   -1    0    0    0  501 -0.00000000000E+00  0.00000000000E+00  0.23374004965E+03  0.23374004965E+03  0.00000000000E+00 0.  1.
          2   -1    0    0  501    0  0.00000000000E+00 -0.00000000000E+00 -0.16956330246E+04  0.16956330246E+04  0.00000000000E+00 0. -1.
         24    2    1    2    0    0 -0.43262103372E+02 -0.29351561782E+03 -0.32438448083E+03  0.44668284903E+03  0.79229090157E+02 0.  0.
        254    2    1    2    0    0  0.43262103372E+02  0.29351561782E+03 -0.11375084941E+04  0.14826902252E+04  0.90356056924E+03 0.  0.
         23    2    4    4    0    0 -0.32334066783E+03  0.24901056815E+03 -0.18426443489E+03  0.45718994316E+03  0.92270318289E+02 0.  0.
         23    2    4    4    0    0  0.36660277121E+03  0.44505049669E+02 -0.95324405923E+03  0.10255002821E+04  0.81229925161E+02 0.  0.
          2    1    3    3  502    0 -0.12634150333E+02 -0.18998071193E+03 -0.25538019273E+03  0.31854565685E+03  0.00000000000E+00 0. -1.
         -1    1    3    3    0  502 -0.30627953040E+02 -0.10353490589E+03 -0.69004288100E+02  0.12813719218E+03  0.00000000000E+00 0.  1.
         13    1    5    5    0    0 -0.91879405614E+02  0.12541452155E+03 -0.57287652507E+02  0.16568796734E+03  0.00000000000E+00 0. -1.
        -13    1    5    5    0    0 -0.23146126222E+03  0.12359604660E+03 -0.12697678238E+03  0.29150197582E+03  0.00000000000E+00 0.  1.
          4    1    6    6  503    0  0.12053673495E+03 -0.15694008595E+02 -0.37478880396E+03  0.39400768260E+03  0.00000000000E+00 0. -1.
         -4    1    6    6    0  503  0.24606603625E+03  0.60199058264E+02 -0.57845525527E+03  0.63149259945E+03  0.00000000000E+00 0.  1.
<mgrwt>
<rscale>  0 0.12591066E+04</rscale>
<asrwt>0</asrwt>
<pdfrwt beam="1">  1        2 0.26086662E+00 0.12591066E+04</pdfrwt>
<pdfrwt beam="2">  1       -1 0.35960008E-01 0.12591066E+04</pdfrwt>
<totfact> 0.81612489E+01</totfact>
</mgrwt>
</event>
<event>
12    7  0.1730932E-007  0.1153648E+04  0.7818608E-02  0.9154425E-01
         -1   -1    0    0    0  501 -0.00000000000E+00  0.00000000000E+00  0.20901848156E+03  0.20901848156E+03  0.00000000000E+00 0.  1.
          2   -1    0    0  501    0  0.00000000000E+00 -0.00000000000E+00 -0.15918497986E+04  0.15918497986E+04  0.00000000000E+00 0. -1.
         24    2    1    2    0    0 -0.16558203478E+03  0.13548730104E+03 -0.25184034866E+03  0.34106933755E+03  0.84442363900E+02 0.  0.
        254    2    1    2    0    0  0.16558203478E+03 -0.13548730104E+03 -0.11309909684E+04  0.14597989426E+04  0.89782969615E+03 0.  0.
         23    2    4    4    0    0 -0.96903925161E+02 -0.37381687781E+03 -0.16947908938E+03  0.43100111142E+03  0.88934624634E+02 0.  0.
         23    2    4    4    0    0  0.26248595994E+03  0.23832957677E+03 -0.96151187902E+03  0.10287978312E+04  0.90664313118E+02 0.  0.
          2    1    3    3  502    0 -0.16457235075E+03  0.12359796384E+03 -0.19684866178E+03  0.28479801780E+03  0.00000000000E+00 0. -1.
         -1    1    3    3    0  502 -0.10096840247E+01  0.11889337205E+02 -0.54991686883E+02  0.56271319757E+02  0.00000000000E+00 0.  1.
         13    1    5    5    0    0 -0.22112092362E+01 -0.93719571983E+01 -0.26548203673E+02  0.28240576238E+02  0.00000000000E+00 0. -1.
        -13    1    5    5    0    0 -0.94692715925E+02 -0.36444492061E+03 -0.14293088571E+03  0.40276053518E+03  0.00000000000E+00 0.  1.
          2    1    6    6  503    0  0.52590378332E+01 -0.33922686094E+01 -0.64986214320E+02  0.65286851792E+02  0.00000000000E+00 0. -1.
         -2    1    6    6    0  503  0.25722692211E+03  0.24172184538E+03 -0.89652566470E+03  0.96351097942E+03  0.00000000000E+00 0.  1.
<mgrwt>
<rscale>  0 0.11536482E+04</rscale>
<asrwt>0</asrwt>
<pdfrwt beam="1">  1        2 0.24489997E+00 0.11536482E+04</pdfrwt>
<pdfrwt beam="2">  1       -1 0.32156690E-01 0.11536482E+04</pdfrwt>
<totfact> 0.11465200E+02</totfact>
</mgrwt>
</event>
<event>
12    7  0.1730932E-007  0.1655856E+04  0.7818608E-02  0.8786950E-01
         -1   -1    0    0    0  501 -0.00000000000E+00  0.00000000000E+00  0.77432884941E+03  0.77432884941E+03  0.00000000000E+00 0.  1.
          2   -1    0    0  501    0  0.00000000000E+00 -0.00000000000E+00 -0.88523685580E+03  0.88523685580E+03  0.00000000000E+00 0. -1.
         24    2    1    2    0    0  0.28226579195E+03  0.44182967827E+03 -0.27070494771E+03  0.59577608537E+03  0.82343993576E+02 0.  0.
        254    2    1    2    0    0 -0.28226579195E+03 -0.44182967827E+03  0.15979694132E+03  0.10637896198E+04  0.91171588279E+03 0.  0.
         23    2    4    4    0    0 -0.33108189833E+03 -0.13448720707E+03 -0.31766866409E+03  0.48707255598E+03  0.92866906834E+02 0.  0.
         23    2    4    4    0    0  0.48816106381E+02 -0.30734247121E+03  0.47746560540E+03  0.57671706387E+03  0.88242623276E+02 0.  0.
          4    1    3    3  502    0  0.38273927200E+01  0.40770506437E+01  0.56592100183E+01  0.79559999381E+01  0.00000000000E+00 0. -1.
         -3    1    3    3    0  502  0.27843839923E+03  0.43775262763E+03 -0.27636415772E+03  0.58782008543E+03  0.00000000000E+00 0.  1.
         13    1    5    5    0    0 -0.22644066307E+03 -0.74173810621E+02 -0.26179253984E+03  0.35399500278E+03  0.00000000000E+00 0. -1.
        -13    1    5    5    0    0 -0.10464123525E+03 -0.60313396447E+02 -0.55876124244E+02  0.13307755320E+03  0.00000000000E+00 0.  1.
          3    1    6    6  503    0  0.41068877070E+02 -0.31182222672E+03  0.46421127098E+03  0.56072440454E+03  0.00000000000E+00 0. -1.
         -3    1    6    6    0  503  0.77472293110E+01  0.44797555108E+01  0.13254334420E+02  0.15992659327E+02  0.00000000000E+00 0.  1.
<mgrwt>
<rscale>  0 0.16558556E+04</rscale>
<asrwt>0</asrwt>
<pdfrwt beam="1">  1        2 0.13619029E+00 0.16558556E+04</pdfrwt>
<pdfrwt beam="2">  1       -1 0.11912751E+00 0.16558556E+04</pdfrwt>
<totfact> 0.20614453E+01</totfact>
</mgrwt>
</event>
<event>
12    7  0.2110513E-007  0.1765101E+04  0.7818608E-02  0.8725081E-01
         -1   -1    0    0    0  501 -0.00000000000E+00  0.00000000000E+00  0.21530574211E+03  0.21530574211E+03  0.00000000000E+00 0.  1.
          2   -1    0    0  501    0  0.00000000000E+00 -0.00000000000E+00 -0.36176263405E+04  0.36176263405E+04  0.00000000000E+00 0. -1.
         24    2    1    2    0    0  0.10358455604E+03 -0.34364436053E+03 -0.24277114113E+04  0.24554120120E+04  0.80276058168E+02 0.  0.
        254    2    1    2    0    0 -0.10358455604E+03  0.34364436053E+03 -0.97460918713E+03  0.13775200706E+04  0.90491837783E+03 0.  0.
         23    2    4    4    0    0 -0.23307176823E+03 -0.93406119911E+02 -0.85724525879E+03  0.89768861795E+03  0.89040826017E+02 0.  0.
         23    2    4    4    0    0  0.12948721219E+03  0.43705048044E+03 -0.11736392834E+03  0.47983145267E+03  0.93187288382E+02 0.  0.
          4    1    3    3  502    0  0.11167774224E+03 -0.33106901048E+03 -0.22377466809E+04  0.22648595576E+04  0.00000000000E+00 0. -1.
         -3    1    3    3    0  502 -0.80931862022E+01 -0.12575350051E+02 -0.18996473044E+03  0.19055245447E+03  0.00000000000E+00 0.  1.
         13    1    5    5    0    0 -0.23611603954E+03 -0.99854613755E+02 -0.80180247931E+03  0.84178913265E+03  0.00000000000E+00 0. -1.
        -13    1    5    5    0    0  0.30442713107E+01  0.64484938434E+01 -0.55442779477E+02  0.55899485300E+02  0.00000000000E+00 0.  1.
          2    1    6    6  503    0  0.12574641375E+03  0.40797104397E+03 -0.13228216783E+03  0.44693523605E+03  0.00000000000E+00 0. -1.
         -2    1    6    6    0  503  0.37407984415E+01  0.29079436470E+02  0.14918239495E+02  0.32896216621E+02  0.00000000000E+00 0.  1.
<mgrwt>
<rscale>  0 0.17651014E+04</rscale>
<asrwt>0</asrwt>
<pdfrwt beam="1">  1        2 0.55655788E+00 0.17651014E+04</pdfrwt>
<pdfrwt beam="2">  1       -1 0.33123961E-01 0.17651014E+04</pdfrwt>
<totfact> 0.62515645E+00</totfact>
</mgrwt>
</event>
<event>
12    7  0.1730932E-007  0.2448777E+04  0.7818608E-02  0.8421465E-01
         -1   -1    0    0    0  501 -0.00000000000E+00  0.00000000000E+00  0.28114015019E+04  0.28114015019E+04  0.00000000000E+00 0.  1.
          2   -1    0    0  501    0  0.00000000000E+00 -0.00000000000E+00 -0.53323123202E+03  0.53323123202E+03  0.00000000000E+00 0. -1.
         24    2    1    2    0    0  0.71131091255E+03 -0.37716374694E+03  0.19265577456E+04  0.20895276164E+04  0.79279294389E+02 0.  0.
        254    2    1    2    0    0 -0.71131091255E+03  0.37716374694E+03  0.35161252431E+03  0.12551051175E+04  0.89634914089E+03 0.  0.
         23    2    4    4    0    0 -0.21220056681E+03  0.58470777421E+03  0.50825095713E+02  0.63064123636E+03  0.90625144776E+02 0.  0.
         23    2    4    4    0    0 -0.49911034575E+03 -0.20754402727E+03  0.30078742860E+03  0.62446388113E+03  0.85418974204E+02 0.  0.
          2    1    3    3  502    0  0.30748936384E+03 -0.16027118586E+03  0.93220412646E+03  0.99460600002E+03  0.00000000000E+00 0. -1.
         -1    1    3    3    0  502  0.40382154872E+03 -0.21689256108E+03  0.99435361912E+03  0.10949216164E+04  0.00000000000E+00 0.  1.
         13    1    5    5    0    0 -0.52455344754E+02  0.13549512322E+03 -0.26349875894E+02  0.14766451019E+03  0.00000000000E+00 0.  1.
        -13    1    5    5    0    0 -0.15974522205E+03  0.44921265099E+03  0.77174971607E+02  0.48297672617E+03  0.00000000000E+00 0. -1.
          2    1    6    6  503    0 -0.42396118070E+03 -0.19667078705E+03  0.23097962091E+03  0.52131954356E+03  0.00000000000E+00 0. -1.
         -2    1    6    6    0  503 -0.75149165046E+02 -0.10873240214E+02  0.69807807685E+02  0.10314433757E+03  0.00000000000E+00 0.  1.
<mgrwt>
<rscale>  0 0.24487769E+04</rscale>
<asrwt>0</asrwt>
<pdfrwt beam="1">  1        2 0.82035576E-01 0.24487769E+04</pdfrwt>
<pdfrwt beam="2">  1       -1 0.43252330E+00 0.24487769E+04</pdfrwt>
<totfact> 0.24934496E-01</totfact>
</mgrwt>
</event>
<event>
12    7  0.1730932E-007  0.1084238E+04  0.7818608E-02  0.9220692E-01
          2   -1    0    0  501    0  0.00000000000E+00  0.00000000000E+00  0.18837667565E+04  0.18837667565E+04  0.00000000000E+00 0. -1.
         -1   -1    0    0    0  501 -0.00000000000E+00 -0.00000000000E+00 -0.15601348172E+03  0.15601348172E+03  0.00000000000E+00 0.  1.
         24    2    1    2    0    0 -0.86151579059E+02 -0.85086301279E+02  0.73770462023E+02  0.16281288651E+03  0.80026131398E+02 0.  0.
        254    2    1    2    0    0  0.86151579059E+02  0.85086301279E+02  0.16539828128E+04  0.18769673517E+04  0.87902532459E+03 0.  0.
         23    2    4    4    0    0  0.18400068756E+02 -0.36695114538E+03  0.46183803051E+03  0.59698593279E+03  0.90034059655E+02 0.  0.
         23    2    4    4    0    0  0.67751510303E+02  0.45203744666E+03  0.11921447823E+04  0.12799814189E+04  0.90637357703E+02 0.  0.
          2    1    3    3  502    0 -0.20116022253E+01 -0.21480429834E+02  0.50336013346E+02  0.54764675193E+02  0.00000000000E+00 0. -1.
         -3    1    3    3    0  502 -0.84139976834E+02 -0.63605871445E+02  0.23434448677E+02  0.10804821132E+03  0.00000000000E+00 0.  1.
         13    1    5    5    0    0 -0.51349625610E+01 -0.83848121044E+02  0.17050267560E+03  0.19007376892E+03  0.00000000000E+00 0.  1.
        -13    1    5    5    0    0  0.23535031317E+02 -0.28310302434E+03  0.29133535490E+03  0.40691216387E+03  0.00000000000E+00 0. -1.
          3    1    6    6  503    0  0.10869439400E+02  0.31526688116E+03  0.74840377960E+03  0.81216966724E+03  0.00000000000E+00 0. -1.
         -3    1    6    6    0  503  0.56882070903E+02  0.13677056550E+03  0.44374100266E+03  0.46781175169E+03  0.00000000000E+00 0.  1.
<mgrwt>
<rscale>  0 0.10842380E+04</rscale>
<asrwt>0</asrwt>
<pdfrwt beam="1">  1        2 0.28981025E+00 0.10842380E+04</pdfrwt>
<pdfrwt beam="2">  1       -1 0.24002075E-01 0.10842380E+04</pdfrwt>
<totfact> 0.13200145E+02</totfact>
</mgrwt>
</event>
<event>
12    7  0.1730932E-007  0.4116922E+04  0.7818608E-02  0.7981366E-01
         -1   -1    0    0    0  501 -0.00000000000E+00  0.00000000000E+00  0.19303939646E+04  0.19303939646E+04  0.00000000000E+00 0.  1.
          2   -1    0    0  501    0  0.00000000000E+00 -0.00000000000E+00 -0.21950242763E+04  0.21950242763E+04  0.00000000000E+00 0. -1.
         24    2    1    2    0    0 -0.18022840667E+04  0.72795602066E+03 -0.36351419331E+03  0.19790487458E+04  0.79646372717E+02 0.  0.
        254    2    1    2    0    0  0.18022840667E+04 -0.72795602066E+03  0.98883881618E+02  0.21463694950E+04  0.90497301733E+03 0.  0.
         23    2    4    4    0    0  0.13271110985E+04 -0.83225003637E+03 -0.17901631452E+03  0.15792534970E+04  0.90170816377E+02 0.  0.
         23    2    4    4    0    0  0.47517296815E+03  0.10429401571E+03  0.27790019614E+03  0.56711599800E+03  0.87894509473E+02 0.  0.
          4    1    3    3  502    0 -0.12986256013E+04  0.48903600773E+03 -0.27418956889E+03  0.14144838595E+04  0.00000000000E+00 0. -1.
         -3    1    3    3    0  502 -0.50365846540E+03  0.23892001293E+03 -0.89324624417E+02  0.56456488632E+03  0.00000000000E+00 0.  1.
         13    1    5    5    0    0  0.12075473126E+04 -0.74636276402E+03 -0.18684670153E+03  0.14318308481E+04  0.00000000000E+00 0. -1.
        -13    1    5    5    0    0  0.11956378596E+03 -0.85887272347E+02  0.78303870094E+01  0.14742264896E+03  0.00000000000E+00 0.  1.
          4    1    6    6  503    0  0.46712915520E+03  0.89780298179E+02  0.27709802205E+03  0.55050291862E+03  0.00000000000E+00 0. -1.
         -4    1    6    6    0  503  0.80438129521E+01  0.14513717530E+02  0.80217409110E+00  0.16613079384E+02  0.00000000000E+00 0.  1.
<mgrwt>
<rscale>  0 0.41169220E+04</rscale>
<asrwt>0</asrwt>
<pdfrwt beam="1">  1        2 0.33769604E+00 0.41169220E+04</pdfrwt>
<pdfrwt beam="2">  1       -1 0.29698369E+00 0.41169220E+04</pdfrwt>
<totfact> 0.15958899E-01</totfact>
</mgrwt>
</event>
<event>
12    7  0.1730932E-007  0.2004176E+04  0.7818608E-02  0.8604671E-01
          2   -1    0    0  501    0  0.00000000000E+00  0.00000000000E+00  0.12340845029E+04  0.12340845029E+04  0.00000000000E+00 0. -1.
         -1   -1    0    0    0  501 -0.00000000000E+00 -0.00000000000E+00 -0.81370496337E+03  0.81370496337E+03  0.00000000000E+00 0.  1.
         24    2    1    2    0    0 -0.43734846679E+03 -0.32207806317E+03 -0.42390138429E+03  0.69361083628E+03  0.79972798029E+02 0.  0.
        254    2    1    2    0    0  0.43734846679E+03  0.32207806317E+03  0.84428092377E+03  0.13541786299E+04  0.90883525646E+03 0.  0.
         23    2    4    4    0    0  0.46619534235E+03  0.59920177788E+03  0.59605738634E+03  0.96964017305E+03  0.92394748484E+02 0.  0.
         23    2    4    4    0    0 -0.28846875562E+02 -0.27712371471E+03  0.24822353743E+03  0.38453845689E+03  0.92871980743E+02 0.  0.
          2    1    3    3  502    0 -0.81174483997E+01 -0.11124130570E+02 -0.30731461926E+02  0.33675837058E+02  0.00000000000E+00 0. -1.
         -1    1    3    3    0  502 -0.42923101839E+03 -0.31095393260E+03 -0.39316992237E+03  0.65993499922E+03  0.00000000000E+00 0.  1.
         13    1    5    5    0    0  0.38323902503E+03  0.53995924402E+03  0.50178783042E+03  0.83079429600E+03  0.00000000000E+00 0. -1.
        -13    1    5    5    0    0  0.82956317321E+02  0.59242533855E+02  0.94269555917E+02  0.13884587705E+03  0.00000000000E+00 0.  1.
          1    1    6    6  503    0 -0.11180341530E+02 -0.21076127811E+03  0.23265208502E+03  0.31412148772E+03  0.00000000000E+00 0. -1.
         -1    1    6    6    0  503 -0.17666534032E+02 -0.66362436605E+02  0.15571452419E+02  0.70416969171E+02  0.00000000000E+00 0.  1.
<mgrwt>
<rscale>  0 0.20041763E+04</rscale>
<asrwt>0</asrwt>
<pdfrwt beam="1">  1        2 0.18985915E+00 0.20041763E+04</pdfrwt>
<pdfrwt beam="2">  1       -1 0.12518538E+00 0.20041763E+04</pdfrwt>
<totfact> 0.10672091E+01</totfact>
</mgrwt>
</event>
<event>
12    7  0.1730932E-007  0.2101481E+04  0.7818608E-02  0.8560591E-01
         -1   -1    0    0    0  501 -0.00000000000E+00  0.00000000000E+00  0.45821036861E+03  0.45821036861E+03  0.00000000000E+00 0.  1.
          2   -1    0    0  501    0  0.00000000000E+00 -0.00000000000E+00 -0.24094939230E+04  0.24094939230E+04  0.00000000000E+00 0. -1.
         24    2    1    2    0    0  0.40740630218E+03  0.56394969891E+03 -0.13133052298E+03  0.71236111737E+03  0.78686068168E+02 0.  0.
        254    2    1    2    0    0 -0.40740630218E+03 -0.56394969891E+03 -0.18199530314E+04  0.21553431742E+04  0.92155086904E+03 0.  0.
         23    2    4    4    0    0  0.50657736744E+02 -0.69266673429E+02 -0.12807476988E+04  0.12873035813E+04  0.97322988504E+02 0.  0.
         23    2    4    4    0    0 -0.45806403892E+03 -0.49468302548E+03 -0.53920533261E+03  0.86803959295E+03  0.90644275899E+02 0.  0.
          2    1    3    3  502    0  0.14410995044E+02  0.34867893199E+02  0.83754664473E+01  0.38647059300E+02  0.00000000000E+00 0. -1.
         -1    1    3    3    0  502  0.39299530713E+03  0.52908180571E+03 -0.13970598943E+03  0.67371405807E+03  0.00000000000E+00 0.  1.
         13    1    5    5    0    0  0.50238588618E+02  0.60566905677E+01 -0.67427055172E+03  0.67616667782E+03  0.00000000000E+00 0. -1.
        -13    1    5    5    0    0  0.41914812601E+00 -0.75323363997E+02 -0.60647714706E+03  0.61113690345E+03  0.00000000000E+00 0.  1.
          3    1    6    6  503    0 -0.79481531293E+02 -0.12378109594E+03 -0.15310745943E+03  0.21232279120E+03  0.00000000000E+00 0. -1.
         -3    1    6    6    0  503 -0.37858250763E+03 -0.37090192954E+03 -0.38609787318E+03  0.65571680174E+03  0.00000000000E+00 0.  1.
<mgrwt>
<rscale>  0 0.21014805E+04</rscale>
<asrwt>0</asrwt>
<pdfrwt beam="1">  1        2 0.37069137E+00 0.21014805E+04</pdfrwt>
<pdfrwt beam="2">  1       -1 0.70493903E-01 0.21014805E+04</pdfrwt>
<totfact> 0.83743532E+00</totfact>
</mgrwt>
</event>
<event>
12    7  0.1730932E-007  0.2174033E+04  0.7818608E-02  0.8529314E-01
          2   -1    0    0  501    0  0.00000000000E+00  0.00000000000E+00  0.11021283214E+04  0.11021283214E+04  0.00000000000E+00 0. -1.
         -1   -1    0    0    0  501 -0.00000000000E+00 -0.00000000000E+00 -0.10721120853E+04  0.10721120853E+04  0.00000000000E+00 0.  1.
         24    2    1    2    0    0  0.72037450176E+03  0.43694591236E+03  0.32769810979E+03  0.90757121344E+03  0.80239037785E+02 0.  0.
        254    2    1    2    0    0 -0.72037450176E+03 -0.43694591236E+03 -0.29768187372E+03  0.12666691933E+04  0.89776121226E+03 0.  0.
         23    2    4    4    0    0 -0.44833268343E+03 -0.43294621867E+03  0.22641594544E+03  0.66933667569E+03  0.91119601543E+02 0.  0.
         23    2    4    4    0    0 -0.27204181833E+03 -0.39996936928E+01 -0.52409781916E+03  0.59733251762E+03  0.90027018675E+02 0.  0.
          2    1    3    3  502    0  0.50310200307E+03  0.34230353591E+03  0.25391804085E+03  0.65936159098E+03  0.00000000000E+00 0. -1.
         -1    1    3    3    0  502  0.21727249869E+03  0.94642376447E+02  0.73780068939E+02  0.24820962246E+03  0.00000000000E+00 0.  1.
         13    1    5    5    0    0 -0.38193408071E+03 -0.32842904898E+03  0.15830257846E+03  0.52801419353E+03  0.00000000000E+00 0. -1.
        -13    1    5    5    0    0 -0.66398602718E+02 -0.10451716968E+03  0.68113366984E+02  0.14132248216E+03  0.00000000000E+00 0.  1.
          2    1    6    6  503    0 -0.21130244950E+03  0.33700635251E+02 -0.41469412185E+03  0.46664298203E+03  0.00000000000E+00 0. -1.
         -2    1    6    6    0  503 -0.60739368835E+02 -0.37700328944E+02 -0.10940369731E+03  0.13068953560E+03  0.00000000000E+00 0.  1.
<mgrwt>
<rscale>  0 0.21740332E+04</rscale>
<asrwt>0</asrwt>
<pdfrwt beam="1">  1        2 0.16955820E+00 0.21740332E+04</pdfrwt>
<pdfrwt beam="2">  1       -1 0.16494032E+00 0.21740332E+04</pdfrwt>
<totfact> 0.60860024E+00</totfact>
</mgrwt>
</event>
<event>
12    7  0.1730932E-007  0.1813685E+04  0.7818608E-02  0.8699056E-01
         -1   -1    0    0    0  501 -0.00000000000E+00  0.00000000000E+00  0.56838987658E+03  0.56838987658E+03  0.00000000000E+00 0.  1.
          2   -1    0    0  501    0  0.00000000000E+00 -0.00000000000E+00 -0.14468296561E+04  0.14468296561E+04  0.00000000000E+00 0. -1.
         24    2    1    2    0    0 -0.54314911245E+03 -0.37701127700E+03 -0.51644720154E+03  0.84283895748E+03  0.80692843166E+02 0.  0.
        254    2    1    2    0    0  0.54314911245E+03  0.37701127700E+03 -0.36199257799E+03  0.11723805752E+04  0.89793603628E+03 0.  0.
         23    2    4    4    0    0 -0.76016431959E+02  0.32460845478E+03  0.13267700031E+03  0.37313941426E+03  0.10237523735E+03 0.  0.
         23    2    4    4    0    0  0.61916554441E+03  0.52402822228E+02 -0.49466957831E+03  0.79924116094E+03  0.89310774748E+02 0.  0.
          2    1    3    3  502    0 -0.29167799692E+03 -0.19429182588E+03 -0.32372421373E+03  0.47709824360E+03  0.00000000000E+00 0. -1.
         -1    1    3    3    0  502 -0.25147111553E+03 -0.18271945113E+03 -0.19272298781E+03  0.36574071389E+03  0.00000000000E+00 0.  1.
         13    1    5    5    0    0 -0.75286753904E+02  0.31868550741E+03  0.10359840998E+03  0.34345476922E+03  0.00000000000E+00 0.  1.
        -13    1    5    5    0    0 -0.72967805520E+00  0.59229473605E+01  0.29078590330E+02  0.29684645039E+02  0.00000000000E+00 0. -1.
          1    1    6    6  503    0  0.27459808060E+01 -0.60161927272E+01 -0.13662423944E+02  0.15178827805E+02  0.00000000000E+00 0. -1.
         -1    1    6    6    0  503  0.61641956360E+03  0.58419014956E+02 -0.48100715436E+03  0.78406233314E+03  0.00000000000E+00 0.  1.
<mgrwt>
<rscale>  0 0.18136850E+04</rscale>
<asrwt>0</asrwt>
<pdfrwt beam="1">  1        2 0.22258917E+00 0.18136850E+04</pdfrwt>
<pdfrwt beam="2">  1       -1 0.87444598E-01 0.18136850E+04</pdfrwt>
<totfact> 0.18819302E+01</totfact>
</mgrwt>
</event>
<event>
12    7  0.1730932E-007  0.1528422E+04  0.7818608E-02  0.8865770E-01
         -1   -1    0    0    0  501 -0.00000000000E+00  0.00000000000E+00  0.27687286322E+03  0.27687286322E+03  0.00000000000E+00 0.  1.
          2   -1    0    0  501    0  0.00000000000E+00 -0.00000000000E+00 -0.21093375708E+04  0.21093375708E+04  0.00000000000E+00 0. -1.
         24    2    1    2    0    0 -0.21437944766E+03  0.39594622760E+03 -0.27926661837E+03  0.53579382251E+03  0.79707047223E+02 0.  0.
        254    2    1    2    0    0  0.21437944766E+03 -0.39594622760E+03 -0.15531980892E+04  0.18504166115E+04  0.89938054741E+03 0.  0.
         23    2    4    4    0    0  0.15357152496E+03 -0.45324313278E+03 -0.26059516469E+03  0.55220944414E+03  0.89509103736E+02 0.  0.
         23    2    4    4    0    0  0.60807922696E+02  0.57296905177E+02 -0.12926029245E+04  0.12982071674E+04  0.86827357979E+02 0.  0.
          2    1    3    3  502    0 -0.19062011326E+02  0.68524094784E+02 -0.17258690168E+02  0.73189987212E+02  0.00000000000E+00 0. -1.
         -1    1    3    3    0  502 -0.19531743633E+03  0.32742213282E+03 -0.26200792821E+03  0.46260383530E+03  0.00000000000E+00 0.  1.
         13    1    5    5    0    0  0.52583622584E+02 -0.56200710885E+02 -0.47117097175E+02  0.90241775882E+02  0.00000000000E+00 0. -1.
        -13    1    5    5    0    0  0.10098790238E+03 -0.39704242189E+03 -0.21347806751E+03  0.46196766826E+03  0.00000000000E+00 0.  1.
          3    1    6    6  503    0 -0.14901356180E+02 -0.11475019039E+01 -0.57637257688E+02  0.59543434990E+02  0.00000000000E+00 0. -1.
         -3    1    6    6    0  503  0.75709278876E+02  0.58444407081E+02 -0.12349656668E+04  0.12386637324E+04  0.00000000000E+00 0.  1.
<mgrwt>
<rscale>  0 0.15284218E+04</rscale>
<asrwt>0</asrwt>
<pdfrwt beam="1">  1        2 0.32451348E+00 0.15284218E+04</pdfrwt>
<pdfrwt beam="2">  1       -1 0.42595824E-01 0.15284218E+04</pdfrwt>
<totfact> 0.34605500E+01</totfact>
</mgrwt>
</event>
<event>
12    7  0.1730932E-007  0.1514771E+04  0.7818608E-02  0.8874689E-01
         -3   -1    0    0    0  501 -0.00000000000E+00  0.00000000000E+00  0.65219447816E+03  0.65219447816E+03  0.00000000000E+00 0.  1.
          2   -1    0    0  501    0  0.00000000000E+00 -0.00000000000E+00 -0.87954254953E+03  0.87954254953E+03  0.00000000000E+00 0. -1.
         24    2    1    2    0    0  0.19774280994E+03  0.28649054994E+03 -0.41805627210E+03  0.54806083047E+03  0.66487390990E+02 0.  0.
        254    2    1    2    0    0 -0.19774280994E+03 -0.28649054994E+03  0.19070820072E+03  0.98367619723E+03  0.90003899309E+03 0.  0.
         23    2    4    4    0    0 -0.54587800446E+03 -0.19920849596E+03  0.58798742366E+02  0.59106174277E+03  0.90718636707E+02 0.  0.
         23    2    4    4    0    0  0.34813519452E+03 -0.87282053979E+02  0.13190945836E+03  0.39261445446E+03  0.89049054074E+02 0.  0.
          4    1    3    3  502    0  0.19517268693E+03  0.25070275500E+03 -0.36370242950E+03  0.48293240346E+03  0.00000000000E+00 0. -1.
         -3    1    3    3    0  502  0.25701230146E+01  0.35787794942E+02 -0.54353842602E+02  0.65128427009E+02  0.00000000000E+00 0.  1.
         13    1    5    5    0    0 -0.27174490934E+03 -0.55326111959E+02  0.88566903355E+01  0.27746119617E+03  0.00000000000E+00 0.  1.
        -13    1    5    5    0    0 -0.27413309512E+03 -0.14388238400E+03  0.49942052030E+02  0.31360054660E+03  0.00000000000E+00 0. -1.
          1    1    6    6  503    0  0.25626569089E+03 -0.61376883467E+02  0.13705460528E+03  0.29702388958E+03  0.00000000000E+00 0. -1.
         -1    1    6    6    0  503  0.91869503631E+02 -0.25905170511E+02 -0.51451469221E+01  0.95590564876E+02  0.00000000000E+00 0.  1.
<mgrwt>
<rscale>  0 0.15147710E+04</rscale>
<asrwt>0</asrwt>
<pdfrwt beam="1">  1        2 0.13531424E+00 0.15147710E+04</pdfrwt>
<pdfrwt beam="2">  1       -3 0.10033761E+00 0.15147710E+04</pdfrwt>
<totfact> 0.16041334E+01</totfact>
</mgrwt>
</event>
<event>
12    7  0.1730932E-007  0.1430940E+04  0.7818608E-02  0.8931722E-01
          2   -1    0    0  501    0  0.00000000000E+00  0.00000000000E+00  0.62477012792E+03  0.62477012792E+03  0.00000000000E+00 0. -1.
         -1   -1    0    0    0  501 -0.00000000000E+00 -0.00000000000E+00 -0.81933656418E+03  0.81933656418E+03  0.00000000000E+00 0.  1.
         24    2    1    2    0    0 -0.81288804232E+02 -0.38626615752E+03  0.81244088765E+02  0.41075048100E+03  0.79409958718E+02 0.  0.
        254    2    1    2    0    0  0.81288804232E+02  0.38626615752E+03 -0.27581052502E+03  0.10333562111E+04  0.91429984095E+03 0.  0.
         23    2    4    4    0    0  0.47838315723E+02  0.42978095460E+03  0.24254278102E+03  0.50429393384E+03  0.92115132816E+02 0.  0.
         23    2    4    4    0    0  0.33450488509E+02 -0.43514797085E+02 -0.51835330604E+03  0.52906227725E+03  0.90577428638E+02 0.  0.
          4    1    3    3  502    0 -0.47831803051E+02 -0.18569789617E+03 -0.58922664177E-01  0.19175920707E+03  0.00000000000E+00 0. -1.
         -3    1    3    3    0  502 -0.33457001181E+02 -0.20056826135E+03  0.81303011429E+02  0.21899127393E+03  0.00000000000E+00 0.  1.
         13    1    5    5    0    0  0.52092444945E+02  0.23972905957E+03  0.17962135302E+03  0.30405176415E+03  0.00000000000E+00 0. -1.
        -13    1    5    5    0    0 -0.42541292224E+01  0.19005189504E+03  0.62921428006E+02  0.20024216970E+03  0.00000000000E+00 0.  1.
          1    1    6    6  503    0  0.21402585501E+02 -0.42997005859E+02 -0.51400370842E+03  0.51624279699E+03  0.00000000000E+00 0. -1.
         -1    1    6    6    0  503  0.12047903008E+02 -0.51779122514E+00 -0.43495976261E+01  0.12819480261E+02  0.00000000000E+00 0.  1.
<mgrwt>
<rscale>  0 0.14309396E+04</rscale>
<asrwt>0</asrwt>
<pdfrwt beam="1">  1        2 0.96118482E-01 0.14309396E+04</pdfrwt>
<pdfrwt beam="2">  1       -1 0.12605178E+00 0.14309396E+04</pdfrwt>
<totfact> 0.28718152E+01</totfact>
</mgrwt>
</event>
<event>
12    7  0.1730932E-007  0.2215170E+04  0.7818608E-02  0.8512141E-01
         -1   -1    0    0    0  501 -0.00000000000E+00  0.00000000000E+00  0.12017555394E+04  0.12017555394E+04  0.00000000000E+00 0.  1.
          2   -1    0    0  501    0  0.00000000000E+00 -0.00000000000E+00 -0.10207933169E+04  0.10207933169E+04  0.00000000000E+00 0. -1.
         24    2    1    2    0    0 -0.18934405453E+03 -0.37348246304E+03 -0.74494836489E+03  0.85821433576E+03  0.79015559091E+02 0.  0.
        254    2    1    2    0    0  0.18934405453E+03  0.37348246304E+03  0.92591058734E+03  0.13643345206E+04  0.91036143764E+03 0.  0.
         23    2    4    4    0    0 -0.63288082973E+02 -0.24816777801E+03  0.48099694743E+03  0.55357701882E+03  0.97451653884E+02 0.  0.
         23    2    4    4    0    0  0.25263213750E+03  0.62165024105E+03  0.44491363991E+03  0.81075750177E+03  0.95433540190E+02 0.  0.
          2    1    3    3  502    0 -0.15989365183E+03 -0.26973697481E+03 -0.60605390448E+03  0.68236746010E+03  0.00000000000E+00 0. -1.
         -1    1    3    3    0  502 -0.29450402699E+02 -0.10374548823E+03 -0.13889446041E+03  0.17584687566E+03  0.00000000000E+00 0.  1.
         13    1    5    5    0    0 -0.23473146527E+02 -0.22273422797E+03  0.36378201206E+03  0.42719887314E+03  0.00000000000E+00 0. -1.
        -13    1    5    5    0    0 -0.39814936446E+02 -0.25433550041E+02  0.11721493537E+03  0.12637814568E+03  0.00000000000E+00 0.  1.
          2    1    6    6  503    0  0.93147175885E+01  0.16115912630E+02 -0.35205241872E+01  0.18944146700E+02  0.00000000000E+00 0.  1.
         -2    1    6    6    0  503  0.24331741991E+03  0.60553432842E+03  0.44843416410E+03  0.79181335507E+03  0.00000000000E+00 0. -1.
<mgrwt>
<rscale>  0 0.22151695E+04</rscale>
<asrwt>0</asrwt>
<pdfrwt beam="1">  1        2 0.15704513E+00 0.22151695E+04</pdfrwt>
<pdfrwt beam="2">  1       -1 0.18488547E+00 0.22151695E+04</pdfrwt>
<totfact> 0.48834795E+00</totfact>
</mgrwt>
</event>
<event>
12    7  0.1730932E-007  0.1652570E+04  0.7818608E-02  0.8788888E-01
         -1   -1    0    0    0  501 -0.00000000000E+00  0.00000000000E+00  0.15932107575E+03  0.15932107575E+03  0.00000000000E+00 0.  1.
          2   -1    0    0  501    0  0.00000000000E+00 -0.00000000000E+00 -0.42853503318E+04  0.42853503318E+04  0.00000000000E+00 0. -1.
         24    2    1    2    0    0  0.45820443941E+03  0.21890160090E+03 -0.71033649543E+03  0.87717610032E+03  0.83610735257E+02 0.  0.
        254    2    1    2    0    0 -0.45820443941E+03 -0.21890160090E+03 -0.34156927607E+04  0.35674953073E+04  0.89565423745E+03 0.  0.
         23    2    4    4    0    0  0.11461463989E+03 -0.41183655093E+02 -0.22326148174E+04  0.22378006971E+04  0.91380676420E+02 0.  0.
         23    2    4    4    0    0 -0.57281907930E+03 -0.17771794581E+03 -0.11830779433E+04  0.13296946102E+04  0.93321865576E+02 0.  0.
          2    1    3    3  502    0  0.43325358380E+03  0.18186764673E+03 -0.65374677497E+03  0.80508965624E+03  0.00000000000E+00 0. -1.
         -1    1    3    3    0  502  0.24950855609E+02  0.37033954174E+02 -0.56589720464E+02  0.72086444077E+02  0.00000000000E+00 0.  1.
         13    1    5    5    0    0  0.12038034871E+03 -0.58608024239E+02 -0.19741634394E+04  0.19786984647E+04  0.00000000000E+00 0.  1.
        -13    1    5    5    0    0 -0.57657088193E+01  0.17424369146E+02 -0.25845137795E+03  0.25910223234E+03  0.00000000000E+00 0. -1.
          4    1    6    6  503    0 -0.34904312070E+02 -0.36469188958E+02 -0.86694913050E+02  0.10032108798E+03  0.00000000000E+00 0. -1.
         -4    1    6    6    0  503 -0.53791476723E+03 -0.14124875685E+03 -0.10963830302E+04  0.12293735222E+04  0.00000000000E+00 0.  1.
<mgrwt>
<rscale>  0 0.16525697E+04</rscale>
<asrwt>0</asrwt>
<pdfrwt beam="1">  1        2 0.65928474E+00 0.16525697E+04</pdfrwt>
<pdfrwt beam="2">  1       -1 0.24510932E-01 0.16525697E+04</pdfrwt>
<totfact> 0.31553168E+00</totfact>
</mgrwt>
</event>
<event>
12    7  0.1730932E-007  0.2823438E+04  0.7818608E-02  0.8296029E-01
          2   -1    0    0  501    0  0.00000000000E+00  0.00000000000E+00  0.24412139261E+04  0.24412139261E+04  0.00000000000E+00 0. -1.
         -1   -1    0    0    0  501 -0.00000000000E+00 -0.00000000000E+00 -0.81637678752E+03  0.81637678752E+03  0.00000000000E+00 0.  1.
         24    2    1    2    0    0 -0.29804258281E+03 -0.93115761197E+03 -0.20003966715E+03  0.10010644538E+04  0.78932202796E+02 0.  0.
        254    2    1    2    0    0  0.29804258281E+03  0.93115761197E+03  0.18248768057E+04  0.22565262599E+04  0.89769233364E+03 0.  0.
         23    2    4    4    0    0 -0.73247004401E+02  0.93218214215E+03  0.13861540872E+04  0.16744829475E+04  0.90229253577E+02 0.  0.
         23    2    4    4    0    0  0.37128958721E+03 -0.10245301854E+01  0.43872271858E+03  0.58204331241E+03  0.91868310555E+02 0.  0.
          2    1    3    3  502    0 -0.11328538283E+03 -0.42504401305E+03 -0.12336930630E+03  0.45685443714E+03  0.00000000000E+00 0. -1.
         -1    1    3    3    0  502 -0.18475719998E+03 -0.50611359892E+03 -0.76670360850E+02  0.54421001661E+03  0.00000000000E+00 0.  1.
         13    1    5    5    0    0 -0.41603471618E+02  0.49473032942E+03  0.65546721983E+03  0.82226894868E+03  0.00000000000E+00 0.  1.
        -13    1    5    5    0    0 -0.31643532783E+02  0.43745181273E+03  0.73068686733E+03  0.85221399878E+03  0.00000000000E+00 0. -1.
          1    1    6    6  503    0  0.21578023088E+03 -0.22833827243E+02  0.19282657835E+03  0.29028362169E+03  0.00000000000E+00 0. -1.
         -1    1    6    6    0  503  0.15550935633E+03  0.21809297058E+02  0.24589614023E+03  0.29175969071E+03  0.00000000000E+00 0.  1.
<mgrwt>
<rscale>  0 0.28234379E+04</rscale>
<asrwt>0</asrwt>
<pdfrwt beam="1">  1        2 0.37557137E+00 0.28234379E+04</pdfrwt>
<pdfrwt beam="2">  1       -1 0.12559643E+00 0.28234379E+04</pdfrwt>
<totfact> 0.20551112E+00</totfact>
</mgrwt>
</event>
<event>
12    7  0.1730932E-007  0.1631664E+04  0.7818608E-02  0.8801328E-01
          2   -1    0    0  501    0  0.00000000000E+00  0.00000000000E+00  0.38546557484E+03  0.38546557484E+03  0.00000000000E+00 0. -1.
         -1   -1    0    0    0  501 -0.00000000000E+00 -0.00000000000E+00 -0.17266958550E+04  0.17266958550E+04  0.00000000000E+00 0.  1.
         24    2    1    2    0    0  0.17559155121E+03  0.24994213342E+03 -0.10920444121E+04  0.11368167660E+04  0.80547492221E+02 0.  0.
        254    2    1    2    0    0 -0.17559155121E+03 -0.24994213342E+03 -0.24918586806E+03  0.97534466387E+03  0.89213236326E+03 0.  0.
         23    2    4    4    0    0  0.28863816763E+03  0.12955783667E+03 -0.28731459626E+02  0.33003806295E+03  0.89456142163E+02 0.  0.
         23    2    4    4    0    0 -0.46422971884E+03 -0.37949997009E+03 -0.22045440844E+03  0.64530660091E+03  0.91054949537E+02 0.  0.
          2    1    3    3  502    0 -0.26217248232E+01  0.28462409224E+02 -0.62130347560E+02  0.68389781896E+02  0.00000000000E+00 0. -1.
         -1    1    3    3    0  502  0.17821327603E+03  0.22147972420E+03 -0.10299140646E+04  0.10684269841E+04  0.00000000000E+00 0.  1.
         13    1    5    5    0    0  0.40216187597E+02  0.51905586920E+02  0.11530256214E+02  0.66666922133E+02  0.00000000000E+00 0. -1.
        -13    1    5    5    0    0  0.24842198003E+03  0.77652249746E+02 -0.40261715839E+02  0.26337114082E+03  0.00000000000E+00 0.  1.
          1    1    6    6  503    0 -0.35201705976E+03 -0.28285654965E+03 -0.20650955242E+03  0.49655818720E+03  0.00000000000E+00 0. -1.
         -1    1    6    6    0  503 -0.11221265908E+03 -0.96643420439E+02 -0.13944856021E+02  0.14874841371E+03  0.00000000000E+00 0.  1.
<mgrwt>
<rscale>  0 0.16316639E+04</rscale>
<asrwt>0</asrwt>
<pdfrwt beam="1">  1        2 0.59302395E-01 0.16316639E+04</pdfrwt>
<pdfrwt beam="2">  1       -1 0.26564552E+00 0.16316639E+04</pdfrwt>
<totfact> 0.50064965E+00</totfact>
</mgrwt>
</event>
<event>
12    7  0.1730932E-007  0.1721296E+04  0.7818608E-02  0.8749311E-01
          2   -1    0    0  501    0  0.00000000000E+00  0.00000000000E+00  0.79128077618E+03  0.79128077618E+03  0.00000000000E+00 0. -1.
         -1   -1    0    0    0  501 -0.00000000000E+00 -0.00000000000E+00 -0.93609632151E+03  0.93609632151E+03  0.00000000000E+00 0.  1.
         24    2    1    2    0    0  0.18671502798E+02  0.60367910396E+03  0.87566586443E+02  0.61537965448E+03  0.79038765850E+02 0.  0.
        254    2    1    2    0    0 -0.18671502798E+02 -0.60367910396E+03 -0.23238213177E+03  0.11119974432E+04  0.90430070938E+03 0.  0.
         23    2    4    4    0    0 -0.41834688422E+03 -0.48467124548E+03 -0.22855884210E+03  0.68559481105E+03  0.88773694882E+02 0.  0.
         23    2    4    4    0    0  0.39967538142E+03 -0.11900785848E+03 -0.38232896718E+01  0.42640263217E+03  0.88889292263E+02 0.  0.
          4    1    3    3  502    0  0.11251857574E+02  0.57678501734E+03  0.98818912982E+02  0.58529713658E+03  0.00000000000E+00 0. -1.
         -3    1    3    3    0  502  0.74196452248E+01  0.26894086622E+02 -0.11252326539E+02  0.30082517897E+02  0.00000000000E+00 0.  1.
         13    1    5    5    0    0 -0.84367593793E+02 -0.15838722748E+03 -0.65260179136E+02  0.19095364802E+03  0.00000000000E+00 0.  1.
        -13    1    5    5    0    0 -0.33397929043E+03 -0.32628401800E+03 -0.16329866297E+03  0.49464116303E+03  0.00000000000E+00 0. -1.
          2    1    6    6  503    0  0.30377188343E+03 -0.10982936052E+03 -0.35559891414E+02  0.32496823148E+03  0.00000000000E+00 0. -1.
         -2    1    6    6    0  503  0.95903497995E+02 -0.91784979574E+01  0.31736601742E+02  0.10143440069E+03  0.00000000000E+00 0.  1.
<mgrwt>
<rscale>  0 0.17212961E+04</rscale>
<asrwt>0</asrwt>
<pdfrwt beam="1">  1        2 0.12173550E+00 0.17212961E+04</pdfrwt>
<pdfrwt beam="2">  1       -1 0.14401482E+00 0.17212961E+04</pdfrwt>
<totfact> 0.14748813E+01</totfact>
</mgrwt>
</event>
<event>
12    7  0.1730932E-007  0.1241684E+04  0.7818608E-02  0.9077133E-01
          2   -1    0    0  501    0  0.00000000000E+00  0.00000000000E+00  0.11963515954E+04  0.11963515954E+04  0.00000000000E+00 0. -1.
         -1   -1    0    0    0  501 -0.00000000000E+00 -0.00000000000E+00 -0.32218378863E+03  0.32218378863E+03  0.00000000000E+00 0.  1.
         24    2    1    2    0    0  0.17302615868E+02  0.29168468001E+03  0.17886061157E+03  0.35201178330E+03  0.80881667537E+02 0.  0.
        254    2    1    2    0    0 -0.17302615868E+02 -0.29168468001E+03  0.69530719525E+03  0.11665236008E+04  0.88991341284E+03 0.  0.
         23    2    4    4    0    0 -0.34546206378E+03  0.14181528215E+03  0.30870090022E+03  0.49325855630E+03  0.92477812498E+02 0.  0.
         23    2    4    4    0    0  0.32815944791E+03 -0.43349996215E+03  0.38660629503E+03  0.67326504448E+03  0.90612098081E+02 0.  0.
          4    1    3    3  502    0  0.59317929719E+01 -0.39573489708E+01  0.23988411092E+01  0.75233780581E+01  0.00000000000E+00 0. -1.
         -3    1    3    3    0  502  0.11370822896E+02  0.29564202898E+03  0.17646177046E+03  0.34448840524E+03  0.00000000000E+00 0.  1.
         13    1    5    5    0    0 -0.81520041844E+02  0.44560037100E+02  0.13078961168E+03  0.16042766797E+03  0.00000000000E+00 0. -1.
        -13    1    5    5    0    0 -0.26394202194E+03  0.97255245047E+02  0.17791128854E+03  0.33283088833E+03  0.00000000000E+00 0.  1.
          3    1    6    6  503    0  0.81461358978E+00 -0.35935431269E+02  0.30576013104E+02  0.47190162038E+02  0.00000000000E+00 0. -1.
         -3    1    6    6    0  503  0.32734483432E+03 -0.39756453088E+03  0.35603028192E+03  0.62607488244E+03  0.00000000000E+00 0.  1.
<mgrwt>
<rscale>  0 0.12416845E+04</rscale>
<asrwt>0</asrwt>
<pdfrwt beam="1">  1        2 0.18405409E+00 0.12416845E+04</pdfrwt>
<pdfrwt beam="2">  1       -1 0.49566737E-01 0.12416845E+04</pdfrwt>
<totfact> 0.87130132E+01</totfact>
</mgrwt>
</event>
<event>
12    7  0.1730932E-007  0.1433303E+04  0.7818608E-02  0.8930058E-01
          2   -1    0    0  501    0  0.00000000000E+00  0.00000000000E+00  0.20529831542E+04  0.20529831542E+04  0.00000000000E+00 0. -1.
         -1   -1    0    0    0  501 -0.00000000000E+00 -0.00000000000E+00 -0.25016749046E+03  0.25016749046E+03  0.00000000000E+00 0.  1.
         24    2    1    2    0    0 -0.92334505783E+02 -0.33117300780E+03  0.13058808757E+03  0.37625417602E+03  0.79452717421E+02 0.  0.
        254    2    1    2    0    0  0.92334505783E+02  0.33117300780E+03  0.16722275762E+04  0.19268964687E+04  0.89352320191E+03 0.  0.
         23    2    4    4    0    0 -0.31309488534E+03 -0.51703820201E+02  0.31611756054E+03  0.45778162425E+03  0.94509317877E+02 0.  0.
         23    2    4    4    0    0  0.40542939113E+03  0.38287682800E+03  0.13561100156E+04  0.14691148444E+04  0.91084548362E+02 0.  0.
          4    1    3    3  502    0 -0.53540922314E+01 -0.12982320555E+02  0.27124004691E+02  0.30543715902E+02  0.00000000000E+00 0. -1.
         -3    1    3    3    0  502 -0.86980413552E+02 -0.31819068724E+03  0.10346408288E+03  0.34571046012E+03  0.00000000000E+00 0.  1.
         13    1    5    5    0    0 -0.46111614212E+02  0.25626920597E+02  0.42456048270E+02  0.67716586294E+02  0.00000000000E+00 0. -1.
        -13    1    5    5    0    0 -0.26698327113E+03 -0.77330740798E+02  0.27366151227E+03  0.39006503796E+03  0.00000000000E+00 0.  1.
          3    1    6    6  503    0  0.29669445258E+02  0.78134933618E+01  0.11906011389E+03  0.12294973518E+03  0.00000000000E+00 0. -1.
         -3    1    6    6    0  503  0.37575994587E+03  0.37506333464E+03  0.12370499018E+04  0.13461651092E+04  0.00000000000E+00 0.  1.
<mgrwt>
<rscale>  0 0.14333034E+04</rscale>
<asrwt>0</asrwt>
<pdfrwt beam="1">  1        2 0.31584355E+00 0.14333034E+04</pdfrwt>
<pdfrwt beam="2">  1       -1 0.38487308E-01 0.14333034E+04</pdfrwt>
<totfact> 0.45151731E+01</totfact>
</mgrwt>
</event>
<event>
12    7  0.1730932E-007  0.1243922E+04  0.7818608E-02  0.9075257E-01
         -1   -1    0    0    0  501 -0.00000000000E+00  0.00000000000E+00  0.35296838483E+03  0.35296838483E+03  0.00000000000E+00 0.  1.
          2   -1    0    0  501    0  0.00000000000E+00 -0.00000000000E+00 -0.10959497270E+04  0.10959497270E+04  0.00000000000E+00 0. -1.
         24    2    1    2    0    0  0.60853101105E+02  0.24464134693E+03 -0.35542701922E+03  0.44294492848E+03  0.79494371738E+02 0.  0.
        254    2    1    2    0    0 -0.60853101105E+02 -0.24464134693E+03 -0.38755432299E+03  0.10059731834E+04  0.89343785676E+03 0.  0.
         23    2    4    4    0    0  0.22862126330E+03 -0.41656936336E+03 -0.43900121542E+03  0.65347735845E+03  0.92265239079E+02 0.  0.
         23    2    4    4    0    0 -0.28947436441E+03  0.17192801643E+03  0.51446892429E+02  0.35249582494E+03  0.90839822647E+02 0.  0.
          4    1    3    3  502    0  0.46562503370E+02  0.20638291325E+03 -0.23711384598E+03  0.31778129202E+03  0.00000000000E+00 0. -1.
         -3    1    3    3    0  502  0.14290597735E+02  0.38258433671E+02 -0.11831317323E+03  0.12516363646E+03  0.00000000000E+00 0.  1.
         13    1    5    5    0    0  0.17989738604E+03 -0.37321724868E+03 -0.34543887340E+03  0.53942765916E+03  0.00000000000E+00 0.  1.
        -13    1    5    5    0    0  0.48723877260E+02 -0.43352114681E+02 -0.93562342023E+02  0.11404969929E+03  0.00000000000E+00 0. -1.
          4    1    6    6  503    0 -0.19945082684E+03  0.16166124860E+03  0.24182207333E+02  0.25787549472E+03  0.00000000000E+00 0.  1.
         -4    1    6    6    0  503 -0.90023537568E+02  0.10266767831E+02  0.27264685097E+02  0.94620330222E+02  0.00000000000E+00 0. -1.
<mgrwt>
<rscale>  0 0.12439222E+04</rscale>
<asrwt>0</asrwt>
<pdfrwt beam="1">  1        2 0.16860765E+00 0.12439222E+04</pdfrwt>
<pdfrwt beam="2">  1       -1 0.54302829E-01 0.12439222E+04</pdfrwt>
<totfact> 0.84190464E+01</totfact>
</mgrwt>
</event>
<event>
12    7  0.1730932E-007  0.1768828E+04  0.7818608E-02  0.8723055E-01
          2   -1    0    0  501    0  0.00000000000E+00  0.00000000000E+00  0.23840627284E+03  0.23840627284E+03  0.00000000000E+00 0. -1.
         -1   -1    0    0    0  501 -0.00000000000E+00 -0.00000000000E+00 -0.32809025271E+04  0.32809025271E+04  0.00000000000E+00 0.  1.
         24    2    1    2    0    0  0.14828896365E+02 -0.55694483455E+03 -0.17990587730E+04  0.18850479027E+04  0.79910460942E+02 0.  0.
        254    2    1    2    0    0 -0.14828896365E+02  0.55694483455E+03 -0.12434374812E+04  0.16342608972E+04  0.90236603747E+03 0.  0.
         23    2    4    4    0    0 -0.36307641003E+03  0.55959410088E+03 -0.62333086215E+03  0.91744654892E+03  0.90536010291E+02 0.  0.
         23    2    4    4    0    0  0.34824751366E+03 -0.26492663268E+01 -0.62010661907E+03  0.71681434830E+03  0.89483191344E+02 0.  0.
          2    1    3    3  502    0 -0.74170960533E+01 -0.56884419522E+02 -0.12075070423E+03  0.13368464037E+03  0.00000000000E+00 0. -1.
         -1    1    3    3    0  502  0.22245992419E+02 -0.50006041503E+03 -0.16783080688E+04  0.17513632623E+04  0.00000000000E+00 0.  1.
         13    1    5    5    0    0 -0.25137027716E+02  0.75128565020E+02 -0.46664329717E+02  0.91944173890E+02  0.00000000000E+00 0. -1.
        -13    1    5    5    0    0 -0.33793938231E+03  0.48446553586E+03 -0.57666653243E+03  0.82550237503E+03  0.00000000000E+00 0.  1.
          2    1    6    6  503    0  0.93608612213E+02  0.24346550210E+02 -0.11314075507E+03  0.14884944490E+03  0.00000000000E+00 0. -1.
         -2    1    6    6    0  503  0.25463890145E+03 -0.26995816537E+02 -0.50696586400E+03  0.56796490341E+03  0.00000000000E+00 0.  1.
<mgrwt>
<rscale>  0 0.17688276E+04</rscale>
<asrwt>0</asrwt>
<pdfrwt beam="1">  1        2 0.36677888E-01 0.17688276E+04</pdfrwt>
<pdfrwt beam="2">  1       -1 0.50475423E+00 0.17688276E+04</pdfrwt>
<totfact> 0.21280420E-01</totfact>
</mgrwt>
</event>
<event>
12    7  0.1730932E-007  0.3161520E+04  0.7818608E-02  0.8199054E-01
          2   -1    0    0  501    0  0.00000000000E+00  0.00000000000E+00  0.29151691361E+04  0.29151691361E+04  0.00000000000E+00 0. -1.
         -1   -1    0    0    0  501 -0.00000000000E+00 -0.00000000000E+00 -0.85717234260E+03  0.85717234260E+03  0.00000000000E+00 0.  1.
         24    2    1    2    0    0  0.27399557820E+03  0.87175635046E+03 -0.39928235584E+03  0.10003627237E+04  0.79161024279E+02 0.  0.
        254    2    1    2    0    0 -0.27399557820E+03 -0.87175635046E+03  0.24572791493E+04  0.27719787550E+04  0.90034031851E+03 0.  0.
         23    2    4    4    0    0 -0.35026508643E+03 -0.95909711579E+03  0.24132942970E+04  0.26219707052E+04  0.90488156613E+02 0.  0.
         23    2    4    4    0    0  0.76269508225E+02  0.87340765330E+02  0.43984852312E+02  0.15000804985E+03  0.84393723782E+02 0.  0.
          4    1    3    3  502    0  0.76887838887E+02  0.36612838102E+03 -0.14808481288E+03  0.40235661168E+03  0.00000000000E+00 0. -1.
         -3    1    3    3    0  502  0.19710773932E+03  0.50562796944E+03 -0.25119754296E+03  0.59800611198E+03  0.00000000000E+00 0.  1.
         13    1    5    5    0    0 -0.99543186117E+02 -0.40172738620E+03  0.98143028801E+03  0.10651287006E+04  0.00000000000E+00 0. -1.
        -13    1    5    5    0    0 -0.25072190031E+03 -0.55736972959E+03  0.14318640090E+04  0.15568420045E+04  0.00000000000E+00 0.  1.
          3    1    6    6  503    0  0.21981911338E+02  0.86364377798E+02  0.27191617287E+02  0.93173999749E+02  0.00000000000E+00 0. -1.
         -3    1    6    6    0  503  0.54287596887E+02  0.97638753148E+00  0.16793235025E+02  0.56834050101E+02  0.00000000000E+00 0.  1.
<mgrwt>
<rscale>  0 0.31615201E+04</rscale>
<asrwt>0</asrwt>
<pdfrwt beam="1">  1        2 0.44848755E+00 0.31615201E+04</pdfrwt>
<pdfrwt beam="2">  1       -1 0.13187267E+00 0.31615201E+04</pdfrwt>
<totfact> 0.92224233E-01</totfact>
</mgrwt>
</event>
<event>
12    7  0.1730932E-007  0.1377503E+04  0.7818608E-02  0.8970266E-01
          2   -1    0    0  501    0  0.00000000000E+00  0.00000000000E+00  0.18660324358E+04  0.18660324358E+04  0.00000000000E+00 0. -1.
         -1   -1    0    0    0  501 -0.00000000000E+00 -0.00000000000E+00 -0.25421795885E+03  0.25421795885E+03  0.00000000000E+00 0.  1.
         24    2    1    2    0    0  0.11453478017E+03  0.23785672507E+03  0.37739723410E+02  0.27808237250E+03  0.78812953531E+02 0.  0.
        254    2    1    2    0    0 -0.11453478017E+03 -0.23785672507E+03  0.15740747535E+04  0.18421680221E+04  0.91987915214E+03 0.  0.
         23    2    4    4    0    0 -0.20393509658E+03 -0.47537317878E+03  0.46825137457E+03  0.70389947709E+03  0.92983554132E+02 0.  0.
         23    2    4    4    0    0  0.89400316417E+02  0.23751645371E+03  0.11058233789E+04  0.11382685450E+04  0.91670348635E+02 0.  0.
          2    1    3    3  502    0  0.74823842171E+01 -0.45816896844E+01 -0.42598426885E+01  0.97531642900E+01  0.00000000000E+00 0. -1.
         -1    1    3    3    0  502  0.10705239595E+03  0.24243841475E+03  0.41999566099E+02  0.26832920821E+03  0.00000000000E+00 0.  1.
         13    1    5    5    0    0 -0.64176382535E+02 -0.62125100810E+02  0.79628859684E+02  0.11966157078E+03  0.00000000000E+00 0. -1.
        -13    1    5    5    0    0 -0.13975871405E+03 -0.41324807797E+03  0.38862251488E+03  0.58423790632E+03  0.00000000000E+00 0.  1.
          4    1    6    6  503    0  0.66392323733E+02  0.11087397815E+03  0.72097600945E+03  0.73246664490E+03  0.00000000000E+00 0.  1.
         -4    1    6    6    0  503  0.23007992684E+02  0.12664247556E+03  0.38484736947E+03  0.40580190011E+03  0.00000000000E+00 0. -1.
<mgrwt>
<rscale>  0 0.13775035E+04</rscale>
<asrwt>0</asrwt>
<pdfrwt beam="1">  1        2 0.28708190E+00 0.13775035E+04</pdfrwt>
<pdfrwt beam="2">  1       -1 0.39110456E-01 0.13775035E+04</pdfrwt>
<totfact> 0.55911007E+01</totfact>
</mgrwt>
</event>
<event>
12    7  0.1730932E-007  0.1593754E+04  0.7818608E-02  0.8824394E-01
         -1   -1    0    0    0  501 -0.00000000000E+00  0.00000000000E+00  0.94895054775E+03  0.94895054775E+03  0.00000000000E+00 0.  1.
          2   -1    0    0  501    0  0.00000000000E+00 -0.00000000000E+00 -0.66917431537E+03  0.66917431537E+03  0.00000000000E+00 0. -1.
         24    2    1    2    0    0  0.37972046911E+03  0.30054258382E+03  0.33655183673E+03  0.59533370979E+03  0.81496060385E+02 0.  0.
        254    2    1    2    0    0 -0.37972046911E+03 -0.30054258382E+03 -0.56775604351E+02  0.10227911533E+04  0.89909109368E+03 0.  0.
         23    2    4    4    0    0 -0.23803757084E+02 -0.43911160683E+03 -0.31866545226E+03  0.55052923871E+03  0.90272643162E+02 0.  0.
         23    2    4    4    0    0 -0.35591671202E+03  0.13856902301E+03  0.26188984791E+03  0.47226191462E+03  0.92557784819E+02 0.  0.
          2    1    3    3  502    0  0.15523699079E+03  0.12241920439E+03  0.89664322805E+02  0.21708218650E+03  0.00000000000E+00 0. -1.
         -1    1    3    3    0  502  0.22448347832E+03  0.17812337943E+03  0.24688751393E+03  0.37825152329E+03  0.00000000000E+00 0.  1.
         13    1    5    5    0    0 -0.38419547002E+02 -0.31587391524E+03 -0.26968411939E+03  0.41711139540E+03  0.00000000000E+00 0. -1.
        -13    1    5    5    0    0  0.14615789918E+02 -0.12323769159E+03 -0.48981332871E+02  0.13341784331E+03  0.00000000000E+00 0.  1.
          4    1    6    6  503    0 -0.17776592994E+03  0.34561540069E+02  0.16234805121E+03  0.24321207953E+03  0.00000000000E+00 0.  1.
         -4    1    6    6    0  503 -0.17815078209E+03  0.10400748294E+03  0.99541796700E+02  0.22904983509E+03  0.00000000000E+00 0. -1.
<mgrwt>
<rscale>  0 0.15937545E+04</rscale>
<asrwt>0</asrwt>
<pdfrwt beam="1">  1        2 0.10294989E+00 0.15937545E+04</pdfrwt>
<pdfrwt beam="2">  1       -1 0.14599239E+00 0.15937545E+04</pdfrwt>
<totfact> 0.17831458E+01</totfact>
</mgrwt>
</event>
<event>
12    7  0.1730932E-007  0.2076316E+04  0.7818608E-02  0.8571749E-01
         -1   -1    0    0    0  501 -0.00000000000E+00  0.00000000000E+00  0.85290447621E+03  0.85290447621E+03  0.00000000000E+00 0.  1.
          2   -1    0    0  501    0  0.00000000000E+00 -0.00000000000E+00 -0.12636494152E+04  0.12636494152E+04  0.00000000000E+00 0. -1.
         24    2    1    2    0    0  0.78399355654E+03 -0.31688917080E+02  0.13332640359E+03  0.79991349977E+03  0.80222148157E+02 0.  0.
        254    2    1    2    0    0 -0.78399355654E+03  0.31688917080E+02 -0.54407134255E+03  0.13166403916E+04  0.90657498909E+03 0.  0.
         23    2    4    4    0    0 -0.57613687508E+02 -0.31217860485E+03  0.18785542678E+02  0.33129777449E+03  0.92900486808E+02 0.  0.
         23    2    4    4    0    0 -0.72637986904E+03  0.34386752193E+03 -0.56285688523E+03  0.98534261711E+03  0.90662081761E+02 0.  0.
          4    1    3    3  502    0  0.78541323949E+03 -0.30098170257E+02  0.13113129656E+03  0.79685335762E+03  0.00000000000E+00 0. -1.
         -3    1    3    3    0  502 -0.14196829435E+01 -0.15907468229E+01  0.21951070282E+01  0.30601421503E+01  0.00000000000E+00 0.  1.
         13    1    5    5    0    0 -0.50120659974E+01 -0.68584673801E+01  0.19726918439E+02  0.21478144507E+02  0.00000000000E+00 0.  1.
        -13    1    5    5    0    0 -0.52601621511E+02 -0.30532013747E+03 -0.94137576028E+00  0.30981962998E+03  0.00000000000E+00 0. -1.
          1    1    6    6  503    0 -0.53650467665E+03  0.29633677576E+03 -0.41928372749E+03  0.74259787023E+03  0.00000000000E+00 0. -1.
         -1    1    6    6    0  503 -0.18987519239E+03  0.47530746173E+02 -0.14357315774E+03  0.24274474688E+03  0.00000000000E+00 0.  1.
<mgrwt>
<rscale>  0 0.20763162E+04</rscale>
<asrwt>0</asrwt>
<pdfrwt beam="1">  1        2 0.19440760E+00 0.20763162E+04</pdfrwt>
<pdfrwt beam="2">  1       -1 0.13121607E+00 0.20763162E+04</pdfrwt>
<totfact> 0.90525867E+00</totfact>
</mgrwt>
</event>
<event>
12    7  0.1730932E-007  0.2426250E+04  0.7818608E-02  0.8429741E-01
         -1   -1    0    0    0  501 -0.00000000000E+00  0.00000000000E+00  0.15540049547E+04  0.15540049547E+04  0.00000000000E+00 0.  1.
          2   -1    0    0  501    0  0.00000000000E+00 -0.00000000000E+00 -0.94701928304E+03  0.94701928304E+03  0.00000000000E+00 0. -1.
         24    2    1    2    0    0 -0.52267328594E+03 -0.82131305207E+03 -0.12562296960E+03  0.98379850845E+03  0.65847410103E+02 0.  0.
        254    2    1    2    0    0  0.52267328594E+03  0.82131305207E+03  0.73260864128E+03  0.15172257293E+04  0.90416591347E+03 0.  0.
         23    2    4    4    0    0  0.64068236274E+03  0.34136798738E+03  0.14816022581E+03  0.74642364634E+03  0.90503119060E+02 0.  0.
         23    2    4    4    0    0 -0.11800907680E+03  0.47994506469E+03  0.58444841546E+03  0.77080208297E+03  0.91008205410E+02 0.  0.
          2    1    3    3  502    0 -0.39623797594E+03 -0.56853827793E+03 -0.82252205086E+02  0.69785795997E+03  0.00000000000E+00 0. -1.
         -1    1    3    3    0  502 -0.12643531000E+03 -0.25277477414E+03 -0.43370764512E+02  0.28594054848E+03  0.00000000000E+00 0.  1.
         13    1    5    5    0    0  0.20988513181E+03  0.75756035258E+02  0.72990139331E+02  0.23477288147E+03  0.00000000000E+00 0.  1.
        -13    1    5    5    0    0  0.43079723093E+03  0.26561195212E+03  0.75170086483E+02  0.51165076487E+03  0.00000000000E+00 0. -1.
          2    1    6    6  503    0 -0.12051281459E+03  0.47595747231E+03  0.58714628538E+03  0.76537547280E+03  0.00000000000E+00 0. -1.
         -2    1    6    6    0  503  0.25037377887E+01  0.39875923821E+01 -0.26978699159E+01  0.54266101761E+01  0.00000000000E+00 0.  1.
<mgrwt>
<rscale>  0 0.24262503E+04</rscale>
<asrwt>0</asrwt>
<pdfrwt beam="1">  1        2 0.14569528E+00 0.24262503E+04</pdfrwt>
<pdfrwt beam="2">  1       -1 0.23907768E+00 0.24262503E+04</pdfrwt>
<totfact> 0.22941442E+00</totfact>
</mgrwt>
</event>
<event>
12    7  0.1730932E-007  0.2111302E+04  0.7818608E-02  0.8556281E-01
          2   -1    0    0  501    0  0.00000000000E+00  0.00000000000E+00  0.24184292610E+04  0.24184292610E+04  0.00000000000E+00 0. -1.
         -1   -1    0    0    0  501 -0.00000000000E+00 -0.00000000000E+00 -0.46079447201E+03  0.46079447201E+03  0.00000000000E+00 0.  1.
         24    2    1    2    0    0  0.35502225981E+03  0.76269525207E+03  0.94464255251E+03  0.12676137927E+04  0.82160349163E+02 0.  0.
        254    2    1    2    0    0 -0.35502225981E+03 -0.76269525207E+03  0.10129922364E+04  0.16116099403E+04  0.92918699731E+03 0.  0.
         23    2    4    4    0    0 -0.27410376556E+03 -0.51848683524E+03  0.11593703810E+04  0.13024089452E+04  0.90376476626E+02 0.  0.
         23    2    4    4    0    0 -0.80918494249E+02 -0.24420841683E+03 -0.14637814456E+03  0.30920099508E+03  0.89404365634E+02 0.  0.
          4    1    3    3  502    0  0.18595349165E+03  0.44484549503E+03  0.59408817839E+03  0.76511893141E+03  0.00000000000E+00 0. -1.
         -3    1    3    3    0  502  0.16906876816E+03  0.31784975704E+03  0.35055437412E+03  0.50249486130E+03  0.00000000000E+00 0.  1.
         13    1    5    5    0    0 -0.27543946417E+03 -0.52135473682E+03  0.11475680268E+04  0.12901899226E+04  0.00000000000E+00 0.  1.
        -13    1    5    5    0    0  0.13356986120E+01  0.28679015786E+01  0.11802354153E+02  0.12219022620E+02  0.00000000000E+00 0. -1.
          3    1    6    6  503    0  0.56366962457E+01 -0.11614399226E+03 -0.46883987161E+02  0.12537666264E+03  0.00000000000E+00 0. -1.
         -3    1    6    6    0  503 -0.86555190494E+02 -0.12806442456E+03 -0.99494157399E+02  0.18382433244E+03  0.00000000000E+00 0.  1.
<mgrwt>
<rscale>  0 0.21113018E+04</rscale>
<asrwt>0</asrwt>
<pdfrwt beam="1">  1        2 0.37206603E+00 0.21113018E+04</pdfrwt>
<pdfrwt beam="2">  1       -1 0.70891458E-01 0.21113018E+04</pdfrwt>
<totfact> 0.81737962E+00</totfact>
</mgrwt>
</event>
<event>
12    7  0.1730932E-007  0.1071926E+04  0.7818608E-02  0.9232995E-01
          2   -1    0    0  501    0  0.00000000000E+00  0.00000000000E+00  0.15139203987E+04  0.15139203987E+04  0.00000000000E+00 0. -1.
         -1   -1    0    0    0  501 -0.00000000000E+00 -0.00000000000E+00 -0.18974339697E+03  0.18974339697E+03  0.00000000000E+00 0.  1.
         24    2    1    2    0    0 -0.19338165944E+02  0.71315588960E+02  0.19391052530E+02  0.11201949504E+03  0.81929704376E+02 0.  0.
        254    2    1    2    0    0  0.19338165944E+02 -0.71315588960E+02  0.13047859492E+04  0.15916443006E+04  0.90851820489E+03 0.  0.
         23    2    4    4    0    0  0.31161181066E+03 -0.32813963093E+03  0.95857520286E+03  0.10639372332E+04  0.91205694714E+02 0.  0.
         23    2    4    4    0    0 -0.29227364471E+03  0.25682404197E+03  0.34621074629E+03  0.52770706738E+03  0.85031736353E+02 0.  0.
          2    1    3    3  502    0  0.17252195370E+02 -0.94201294918E+01  0.12094603310E+02  0.23079352546E+02  0.00000000000E+00 0. -1.
         -1    1    3    3    0  502 -0.36590361313E+02  0.80735718452E+02  0.72964492200E+01  0.88940142491E+02  0.00000000000E+00 0.  1.
         13    1    5    5    0    0  0.17926286622E+03 -0.24642841836E+03  0.59527088591E+03  0.66873729386E+03  0.00000000000E+00 0.  1.
        -13    1    5    5    0    0  0.13234894443E+03 -0.81711212572E+02  0.36330431695E+03  0.39519993936E+03  0.00000000000E+00 0. -1.
          1    1    6    6  503    0 -0.45422712346E+02  0.71892484737E+02  0.43419342123E+02  0.95482937894E+02  0.00000000000E+00 0. -1.
         -1    1    6    6    0  503 -0.24685093237E+03  0.18493155723E+03  0.30279140417E+03  0.43222412948E+03  0.00000000000E+00 0.  1.
<mgrwt>
<rscale>  0 0.10719261E+04</rscale>
<asrwt>0</asrwt>
<pdfrwt beam="1">  1        2 0.23291082E+00 0.10719261E+04</pdfrwt>
<pdfrwt beam="2">  1       -1 0.29191293E-01 0.10719261E+04</pdfrwt>
<totfact> 0.15110047E+02</totfact>
</mgrwt>
</event>
<event>
12    7  0.1730932E-007  0.3239128E+04  0.7818608E-02  0.8178559E-01
          2   -1    0    0  501    0  0.00000000000E+00  0.00000000000E+00  0.13835630192E+04  0.13835630192E+04  0.00000000000E+00 0. -1.
         -1   -1    0    0    0  501 -0.00000000000E+00 -0.00000000000E+00 -0.18958210070E+04  0.18958210070E+04  0.00000000000E+00 0.  1.
         24    2    1    2    0    0 -0.52234898718E+03  0.12701338880E+03  0.11738118610E+04  0.12934364695E+04  0.78503186691E+02 0.  0.
        254    2    1    2    0    0  0.52234898718E+03 -0.12701338880E+03 -0.16860698488E+04  0.19859475566E+04  0.90120768821E+03 0.  0.
         23    2    4    4    0    0  0.69117860046E+03 -0.11455904663E+03 -0.75039009761E+03  0.10306550628E+04  0.91175254796E+02 0.  0.
         23    2    4    4    0    0 -0.16882961328E+03 -0.12454342167E+02 -0.93567975119E+03  0.95529249378E+03  0.91807422963E+02 0.  0.
          4    1    3    3  502    0 -0.20719159932E+03  0.88853574726E+02  0.46398968844E+03  0.51585826304E+03  0.00000000000E+00 0. -1.
         -3    1    3    3    0  502 -0.31515738786E+03  0.38159814072E+02  0.70982217257E+03  0.77757820648E+03  0.00000000000E+00 0.  1.
         13    1    5    5    0    0  0.38203328618E+03 -0.73348767278E+02 -0.35131940142E+03  0.52417057837E+03  0.00000000000E+00 0. -1.
        -13    1    5    5    0    0  0.30914531428E+03 -0.41210279353E+02 -0.39907069618E+03  0.50648448448E+03  0.00000000000E+00 0.  1.
          4    1    6    6  503    0 -0.42418678210E+02  0.23094523451E+01 -0.83744055793E+02  0.93902847198E+02  0.00000000000E+00 0.  1.
         -4    1    6    6    0  503 -0.12641093507E+03 -0.14763794512E+02 -0.85193569540E+03  0.86138964658E+03  0.00000000000E+00 0. -1.
<mgrwt>
<rscale>  0 0.32391282E+04</rscale>
<asrwt>0</asrwt>
<pdfrwt beam="1">  1        2 0.21285585E+00 0.32391282E+04</pdfrwt>
<pdfrwt beam="2">  1       -1 0.29166477E+00 0.32391282E+04</pdfrwt>
<totfact> 0.52859842E-01</totfact>
</mgrwt>
</event>
<event>
12    7  0.1730932E-007  0.3213160E+04  0.7818608E-02  0.8185350E-01
         -1   -1    0    0    0  501 -0.00000000000E+00  0.00000000000E+00  0.10106510417E+04  0.10106510417E+04  0.00000000000E+00 0.  1.
          2   -1    0    0  501    0  0.00000000000E+00 -0.00000000000E+00 -0.25538968871E+04  0.25538968871E+04  0.00000000000E+00 0. -1.
         24    2    1    2    0    0  0.14078707866E+04 -0.44971044269E+03 -0.69952273815E+03  0.16370060419E+04  0.78211801444E+02 0.  0.
        254    2    1    2    0    0 -0.14078707866E+04  0.44971044269E+03 -0.84372310729E+03  0.19275418869E+04  0.90510187825E+03 0.  0.
         23    2    4    4    0    0 -0.70585599258E+03  0.19642792433E+03  0.73157323911E+02  0.74181108323E+03  0.90083724700E+02 0.  0.
         23    2    4    4    0    0 -0.70201479402E+03  0.25328251837E+03 -0.91688043120E+03  0.11857308037E+04  0.91164733004E+02 0.  0.
          2    1    3    3  502    0  0.58703395084E+03 -0.15349256327E+03 -0.26402975016E+03  0.66172542296E+03  0.00000000000E+00 0. -1.
         -1    1    3    3    0  502  0.82083683576E+03 -0.29621787942E+03 -0.43549298799E+03  0.97528061891E+03  0.00000000000E+00 0.  1.
         13    1    5    5    0    0 -0.88403635810E+02  0.24449213524E+01  0.29117486074E+02  0.93107510224E+02  0.00000000000E+00 0. -1.
        -13    1    5    5    0    0 -0.61745235677E+03  0.19398300297E+03  0.44039837837E+02  0.64870357301E+03  0.00000000000E+00 0.  1.
          4    1    6    6  503    0 -0.38792193687E+03  0.16271415096E+03 -0.45246229119E+03  0.61780373014E+03  0.00000000000E+00 0. -1.
         -4    1    6    6    0  503 -0.31409285715E+03  0.90568367411E+02 -0.46441814001E+03  0.56792707354E+03  0.00000000000E+00 0.  1.
<mgrwt>
<rscale>  0 0.32131595E+04</rscale>
<asrwt>0</asrwt>
<pdfrwt beam="1">  1        2 0.39290722E+00 0.32131595E+04</pdfrwt>
<pdfrwt beam="2">  1       -1 0.15548477E+00 0.32131595E+04</pdfrwt>
<totfact> 0.97918934E-01</totfact>
</mgrwt>
</event>
<event>
12    7  0.1730932E-007  0.1469684E+04  0.7818608E-02  0.8904867E-01
         -1   -1    0    0    0  501 -0.00000000000E+00  0.00000000000E+00  0.11633064153E+04  0.11633064153E+04  0.00000000000E+00 0.  1.
          2   -1    0    0  501    0  0.00000000000E+00 -0.00000000000E+00 -0.46418813148E+03  0.46418813148E+03  0.00000000000E+00 0. -1.
         24    2    1    2    0    0 -0.27696358218E+03  0.32079909093E+03  0.10136703340E+03  0.44393708313E+03  0.84758337180E+02 0.  0.
        254    2    1    2    0    0  0.27696358218E+03 -0.32079909093E+03  0.59775125041E+03  0.11835574636E+04  0.92945189750E+03 0.  0.
         23    2    4    4    0    0  0.46335230820E+03 -0.25125566127E+02 -0.14277467348E+02  0.47322614406E+03  0.91719582211E+02 0.  0.
         23    2    4    4    0    0 -0.18638872602E+03 -0.29567352480E+03  0.61202871776E+03  0.71033131957E+03  0.88475091119E+02 0.  0.
          2    1    3    3  502    0 -0.14114494211E+03  0.17000235920E+03  0.94847553612E+01  0.22116206140E+03  0.00000000000E+00 0. -1.
         -1    1    3    3    0  502 -0.13581864007E+03  0.15079673173E+03  0.91882278034E+02  0.22277502173E+03  0.00000000000E+00 0.  1.
         13    1    5    5    0    0  0.37529028146E+03 -0.56501879356E+02 -0.10489161446E+02  0.37966469449E+03  0.00000000000E+00 0.  1.
        -13    1    5    5    0    0  0.88062026736E+02  0.31376313229E+02 -0.37883059023E+01  0.93561449573E+02  0.00000000000E+00 0. -1.
          2    1    6    6  503    0 -0.19225278237E+03 -0.26617530918E+03  0.57930301677E+03  0.66588468430E+03  0.00000000000E+00 0.  1.
         -2    1    6    6    0  503  0.58640563525E+01 -0.29498215626E+02  0.32725700990E+02  0.44446635275E+02  0.00000000000E+00 0. -1.
<mgrwt>
<rscale>  0 0.14696844E+04</rscale>
<asrwt>0</asrwt>
<pdfrwt beam="1">  1        2 0.71413559E-01 0.14696844E+04</pdfrwt>
<pdfrwt beam="2">  1       -1 0.17897022E+00 0.14696844E+04</pdfrwt>
<totfact> 0.15731386E+01</totfact>
</mgrwt>
</event>
<event>
12    7  0.1730932E-007  0.1349448E+04  0.7818608E-02  0.8991246E-01
          2   -1    0    0  501    0  0.00000000000E+00  0.00000000000E+00  0.46567684542E+03  0.46567684542E+03  0.00000000000E+00 0. -1.
         -1   -1    0    0    0  501 -0.00000000000E+00 -0.00000000000E+00 -0.97761451681E+03  0.97761451681E+03  0.00000000000E+00 0.  1.
         24    2    1    2    0    0 -0.34322890363E+03  0.11719464764E+03 -0.62939779268E+02  0.37681920628E+03  0.80564462917E+02 0.  0.
        254    2    1    2    0    0  0.34322890363E+03 -0.11719464764E+03 -0.44899789212E+03  0.10664721559E+04  0.89678486079E+03 0.  0.
         23    2    4    4    0    0  0.42189729789E+03 -0.34792843945E+03 -0.10324504796E+02  0.55455465289E+03  0.91502670446E+02 0.  0.
         23    2    4    4    0    0 -0.78668394260E+02  0.23073379181E+03 -0.43867338733E+03  0.51191750306E+03  0.10098707961E+03 0.  0.
          2    1    3    3  502    0 -0.17923024704E+03  0.62500875131E+02  0.79241224406E+01  0.18998061101E+03  0.00000000000E+00 0. -1.
         -1    1    3    3    0  502 -0.16399865659E+03  0.54693772511E+02 -0.70863901708E+02  0.18683859526E+03  0.00000000000E+00 0.  1.
         13    1    5    5    0    0  0.38481225420E+03 -0.29351054979E+03 -0.32516135431E+02  0.48506310196E+03  0.00000000000E+00 0.  1.
        -13    1    5    5    0    0  0.37085043689E+02 -0.54417889654E+02  0.22191630635E+02  0.69491550926E+02  0.00000000000E+00 0. -1.
          1    1    6    6  503    0  0.12886634930E+01  0.13368752610E+02 -0.10433223032E+03  0.10519314846E+03  0.00000000000E+00 0. -1.
         -1    1    6    6    0  503 -0.79957057753E+02  0.21736503920E+03 -0.33434115701E+03  0.40672435459E+03  0.00000000000E+00 0.  1.
<mgrwt>
<rscale>  0 0.13494480E+04</rscale>
<asrwt>0</asrwt>
<pdfrwt beam="1">  1        2 0.71642593E-01 0.13494480E+04</pdfrwt>
<pdfrwt beam="2">  1       -1 0.15040223E+00 0.13494480E+04</pdfrwt>
<totfact> 0.25878569E+01</totfact>
</mgrwt>
</event>
<event>
12    7  0.1730932E-007  0.1814294E+04  0.7818608E-02  0.8698735E-01
          2   -1    0    0  501    0  0.00000000000E+00  0.00000000000E+00  0.21318273327E+04  0.21318273327E+04  0.00000000000E+00 0. -1.
         -1   -1    0    0    0  501 -0.00000000000E+00 -0.00000000000E+00 -0.38601439540E+03  0.38601439540E+03  0.00000000000E+00 0.  1.
         24    2    1    2    0    0  0.27753688827E+03  0.18793010562E+03  0.14382596215E+04  0.14789346992E+04  0.79452230127E+02 0.  0.
        254    2    1    2    0    0 -0.27753688827E+03 -0.18793010562E+03  0.30755331589E+03  0.10389070289E+04  0.93402051567E+03 0.  0.
         23    2    4    4    0    0 -0.20576410111E+03  0.28892467286E+03 -0.12192900823E+03  0.38638357883E+03  0.92786071380E+02 0.  0.
         23    2    4    4    0    0 -0.71772787160E+02 -0.47685477848E+03  0.42948232412E+03  0.65252345011E+03  0.93754858381E+02 0.  0.
          2    1    3    3  502    0  0.21438920757E+03  0.16942894932E+03  0.10412296260E+04  0.10764887530E+04  0.00000000000E+00 0. -1.
         -1    1    3    3    0  502  0.63147680706E+02  0.18501156300E+02  0.39702999546E+03  0.40244594626E+03  0.00000000000E+00 0.  1.
         13    1    5    5    0    0 -0.19994966340E+03  0.22483128553E+03 -0.87236459264E+02  0.31327172658E+03  0.00000000000E+00 0.  1.
        -13    1    5    5    0    0 -0.58144377142E+01  0.64093387328E+02 -0.34692548968E+02  0.73111852247E+02  0.00000000000E+00 0. -1.
          3    1    6    6  503    0  0.14135574747E+02 -0.38755297516E+02  0.16737894255E+02  0.44519037086E+02  0.00000000000E+00 0. -1.
         -3    1    6    6    0  503 -0.85908361906E+02 -0.43809948097E+03  0.41274442986E+03  0.60800441302E+03  0.00000000000E+00 0.  1.
<mgrwt>
<rscale>  0 0.18142944E+04</rscale>
<asrwt>0</asrwt>
<pdfrwt beam="1">  1        2 0.32797343E+00 0.18142944E+04</pdfrwt>
<pdfrwt beam="2">  1       -1 0.59386831E-01 0.18142944E+04</pdfrwt>
<totfact> 0.17410246E+01</totfact>
</mgrwt>
</event>
<event>
12    7  0.1730932E-007  0.1379586E+04  0.7818608E-02  0.8968729E-01
          2   -1    0    0  501    0  0.00000000000E+00  0.00000000000E+00  0.87095512842E+03  0.87095512842E+03  0.00000000000E+00 0. -1.
         -1   -1    0    0    0  501 -0.00000000000E+00 -0.00000000000E+00 -0.54631347154E+03  0.54631347154E+03  0.00000000000E+00 0.  1.
         24    2    1    2    0    0 -0.48395377018E+02  0.16515768349E+03 -0.25900677532E+03  0.32153566480E+03  0.81740449878E+02 0.  0.
        254    2    1    2    0    0  0.48395377018E+02 -0.16515768349E+03  0.58364843220E+03  0.10957329352E+04  0.91124420428E+03 0.  0.
         23    2    4    4    0    0 -0.34717005136E+03  0.17141002507E+03  0.28898401365E+03  0.49166083733E+03  0.91160175292E+02 0.  0.
         23    2    4    4    0    0  0.39556542838E+03 -0.33656770856E+03  0.29466441854E+03  0.60407209782E+03  0.91247735528E+02 0.  0.
          2    1    3    3  502    0  0.20635096766E+02  0.23962949575E+02 -0.61246488608E+02  0.68928677179E+02  0.00000000000E+00 0. -1.
         -1    1    3    3    0  502 -0.69030473784E+02  0.14119473391E+03 -0.19776028671E+03  0.25260698762E+03  0.00000000000E+00 0.  1.
         13    1    5    5    0    0 -0.19593959816E+03  0.12846251421E+03  0.12943578229E+03  0.26767249657E+03  0.00000000000E+00 0. -1.
        -13    1    5    5    0    0 -0.15123045320E+03  0.42947510868E+02  0.15954823136E+03  0.22398834076E+03  0.00000000000E+00 0.  1.
          3    1    6    6  503    0  0.23668266143E+03 -0.23161187697E+03  0.22911467023E+03  0.40268632443E+03  0.00000000000E+00 0. -1.
         -3    1    6    6    0  503  0.15888276695E+03 -0.10495583160E+03  0.65549748317E+02  0.20138577339E+03  0.00000000000E+00 0.  1.
<mgrwt>
<rscale>  0 0.13795862E+04</rscale>
<asrwt>0</asrwt>
<pdfrwt beam="1">  1        2 0.13399310E+00 0.13795862E+04</pdfrwt>
<pdfrwt beam="2">  1       -1 0.84048226E-01 0.13795862E+04</pdfrwt>
<totfact> 0.47924358E+01</totfact>
</mgrwt>
</event>
<event>
12    7  0.1730932E-007  0.3520039E+04  0.7818608E-02  0.8109057E-01
         -1   -1    0    0    0  501 -0.00000000000E+00  0.00000000000E+00  0.27464563856E+04  0.27464563856E+04  0.00000000000E+00 0.  1.
          2   -1    0    0  501    0  0.00000000000E+00 -0.00000000000E+00 -0.11278786073E+04  0.11278786073E+04  0.00000000000E+00 0. -1.
         24    2    1    2    0    0 -0.17514325306E+03  0.19865328739E+01  0.25574059447E+04  0.25645416758E+04  0.76614201438E+02 0.  0.
        254    2    1    2    0    0  0.17514325306E+03 -0.19865328739E+01 -0.93882816633E+03  0.13097933171E+04  0.89637107402E+03 0.  0.
         23    2    4    4    0    0 -0.12721038274E+03 -0.20621332860E+03 -0.89428740540E+03  0.93112529310E+03  0.92400917891E+02 0.  0.
         23    2    4    4    0    0  0.30235363580E+03  0.20422679573E+03 -0.44540760925E+02  0.37866802404E+03  0.90990592229E+02 0.  0.
          4    1    3    3  502    0 -0.98477775534E+02 -0.85015582836E+01  0.91703000845E+03  0.92234168569E+03  0.00000000000E+00 0. -1.
         -3    1    3    3    0  502 -0.76665477530E+02  0.10488091157E+02  0.16403759362E+04  0.16421999901E+04  0.00000000000E+00 0.  1.
         13    1    5    5    0    0 -0.61141295380E+02 -0.16212200484E+03 -0.70223987119E+03  0.72329982659E+03  0.00000000000E+00 0.  1.
        -13    1    5    5    0    0 -0.66069087356E+02 -0.44091323763E+02 -0.19204753421E+03  0.20782546651E+03  0.00000000000E+00 0. -1.
          4    1    6    6  503    0  0.18825794923E+03  0.76597546148E+02 -0.41555210575E+02  0.20744896975E+03  0.00000000000E+00 0. -1.
         -4    1    6    6    0  503  0.11409568657E+03  0.12762924958E+03 -0.29855503492E+01  0.17121905429E+03  0.00000000000E+00 0.  1.
<mgrwt>
<rscale>  0 0.35200394E+04</rscale>
<asrwt>0</asrwt>
<pdfrwt beam="1">  1        2 0.17351979E+00 0.35200394E+04</pdfrwt>
<pdfrwt beam="2">  1       -1 0.42253175E+00 0.35200394E+04</pdfrwt>
<totfact> 0.97946536E-02</totfact>
</mgrwt>
</event>
<event>
12    7  0.1730932E-007  0.2114558E+04  0.7818608E-02  0.8554857E-01
         -3   -1    0    0    0  501 -0.00000000000E+00  0.00000000000E+00  0.14040531228E+04  0.14040531228E+04  0.00000000000E+00 0.  1.
          2   -1    0    0  501    0  0.00000000000E+00 -0.00000000000E+00 -0.79615174090E+03  0.79615174090E+03  0.00000000000E+00 0. -1.
         24    2    1    2    0    0 -0.41771440437E+03  0.14400151048E+03  0.10196899121E+04  0.11143052450E+04  0.81773489723E+02 0.  0.
        254    2    1    2    0    0  0.41771440437E+03 -0.14400151048E+03 -0.41178853019E+03  0.10858996187E+04  0.90243361507E+03 0.  0.
         23    2    4    4    0    0 -0.26892397978E+03 -0.99018572872E+02 -0.56235499162E+02  0.30602194033E+03  0.91445130667E+02 0.  0.
         23    2    4    4    0    0  0.68663838415E+03 -0.44982937609E+02 -0.35555303102E+03  0.77987767835E+03  0.91079635736E+02 0.  0.
          2    1    3    3  502    0 -0.51144958742E+01 -0.63952258385E+01  0.37878024976E+02  0.38753087073E+02  0.00000000000E+00 0. -1.
         -1    1    3    3    0  502 -0.41259990849E+03  0.15039673632E+03  0.98181188709E+03  0.10755521579E+04  0.00000000000E+00 0.  1.
         13    1    5    5    0    0 -0.28951684629E+02 -0.45996889950E+02 -0.18319032284E+02  0.57354170483E+02  0.00000000000E+00 0. -1.
        -13    1    5    5    0    0 -0.23997229515E+03 -0.53021682921E+02 -0.37916466878E+02  0.24866776985E+03  0.00000000000E+00 0.  1.
          3    1    6    6  503    0  0.28833502591E+03  0.21506529428E+02 -0.12621961598E+03  0.31548535534E+03  0.00000000000E+00 0. -1.
         -3    1    6    6    0  503  0.39830335824E+03 -0.66489467036E+02 -0.22933341504E+03  0.46439232301E+03  0.00000000000E+00 0.  1.
<mgrwt>
<rscale>  0 0.21145584E+04</rscale>
<asrwt>0</asrwt>
<pdfrwt beam="1">  1        2 0.12248488E+00 0.21145584E+04</pdfrwt>
<pdfrwt beam="2">  1       -3 0.21600817E+00 0.21145584E+04</pdfrwt>
<totfact> 0.23318275E+00</totfact>
</mgrwt>
</event>
<event>
12    7  0.1730932E-007  0.1567404E+04  0.7818608E-02  0.8840827E-01
          2   -1    0    0  501    0  0.00000000000E+00  0.00000000000E+00  0.60185455957E+03  0.60185455957E+03  0.00000000000E+00 0. -1.
         -1   -1    0    0    0  501 -0.00000000000E+00 -0.00000000000E+00 -0.10204939940E+04  0.10204939940E+04  0.00000000000E+00 0.  1.
         24    2    1    2    0    0  0.28839365889E+02  0.28701611614E+03 -0.58435347128E+03  0.65655219070E+03  0.79886417928E+02 0.  0.
        254    2    1    2    0    0 -0.28839365889E+02 -0.28701611614E+03  0.16571403683E+03  0.96579636289E+03  0.90669262301E+03 0.  0.
         23    2    4    4    0    0 -0.35603179405E+03  0.14652332610E+03  0.21327581700E+02  0.39647900919E+03  0.92266004150E+02 0.  0.
         23    2    4    4    0    0  0.32719242816E+03 -0.43353944224E+03  0.14438645513E+03  0.56931735371E+03  0.90903618111E+02 0.  0.
          2    1    3    3  502    0  0.40168838152E+02  0.61337246736E+02 -0.13881294737E+03  0.15698671203E+03  0.00000000000E+00 0. -1.
         -1    1    3    3    0  502 -0.11329472263E+02  0.22567886940E+03 -0.44554052391E+03  0.49956547867E+03  0.00000000000E+00 0.  1.
         13    1    5    5    0    0 -0.97305907483E+02 -0.21205409116E+01  0.10543147988E+02  0.97898387598E+02  0.00000000000E+00 0.  1.
        -13    1    5    5    0    0 -0.25872588656E+03  0.14864386701E+03  0.10784433712E+02  0.29858062159E+03  0.00000000000E+00 0. -1.
          4    1    6    6  503    0  0.24085939312E+03 -0.26491251016E+03  0.64892280856E+02  0.36387208385E+03  0.00000000000E+00 0.  1.
         -4    1    6    6    0  503  0.86333035037E+02 -0.16862693208E+03  0.79494174277E+02  0.20544526985E+03  0.00000000000E+00 0. -1.
<mgrwt>
<rscale>  0 0.15674042E+04</rscale>
<asrwt>0</asrwt>
<pdfrwt beam="1">  1        2 0.92593009E-01 0.15674042E+04</pdfrwt>
<pdfrwt beam="2">  1       -1 0.15699908E+00 0.15674042E+04</pdfrwt>
<totfact> 0.16718217E+01</totfact>
</mgrwt>
</event>
<event>
12    7  0.1730932E-007  0.1430165E+04  0.7818608E-02  0.8932269E-01
          2   -1    0    0  501    0  0.00000000000E+00  0.00000000000E+00  0.14921429878E+04  0.14921429878E+04  0.00000000000E+00 0. -1.
         -1   -1    0    0    0  501 -0.00000000000E+00 -0.00000000000E+00 -0.34269014226E+03  0.34269014226E+03  0.00000000000E+00 0.  1.
         24    2    1    2    0    0  0.91925833075E+02 -0.38910878421E+03  0.50090940982E+03  0.64557730124E+03  0.77484258358E+02 0.  0.
        254    2    1    2    0    0 -0.91925833075E+02  0.38910878421E+03  0.64854343570E+03  0.11892558288E+04  0.91316199746E+03 0.  0.
         23    2    4    4    0    0  0.35662996270E+03  0.30725212455E+03  0.13852803076E+03  0.49869045303E+03  0.88957036244E+02 0.  0.
         23    2    4    4    0    0 -0.44855579578E+03  0.81856659656E+02  0.51001540494E+03  0.69056537577E+03  0.94138250852E+02 0.  0.
          2    1    3    3  502    0  0.97247136801E+02 -0.30315506722E+03  0.42318494240E+03  0.52957104894E+03  0.00000000000E+00 0. -1.
         -1    1    3    3    0  502 -0.53213037261E+01 -0.85953716984E+02  0.77724467413E+02  0.11600625229E+03  0.00000000000E+00 0.  1.
         13    1    5    5    0    0  0.13196963213E+03  0.16741679520E+03  0.79830115257E+02  0.22763394831E+03  0.00000000000E+00 0.  1.
        -13    1    5    5    0    0  0.22466033057E+03  0.13983532935E+03  0.58697915502E+02  0.27105650472E+03  0.00000000000E+00 0. -1.
          3    1    6    6  503    0 -0.53710386998E+02 -0.48620262272E+00  0.11045631735E+03  0.12282361380E+03  0.00000000000E+00 0. -1.
         -3    1    6    6    0  503 -0.39484540878E+03  0.82342862279E+02  0.39955908759E+03  0.56774176197E+03  0.00000000000E+00 0.  1.
<mgrwt>
<rscale>  0 0.14301646E+04</rscale>
<asrwt>0</asrwt>
<pdfrwt beam="1">  1        2 0.22956046E+00 0.14301646E+04</pdfrwt>
<pdfrwt beam="2">  1       -1 0.52721561E-01 0.14301646E+04</pdfrwt>
<totfact> 0.51458130E+01</totfact>
</mgrwt>
</event>
<event>
12    7  0.1730932E-007  0.1281712E+04  0.7818608E-02  0.9044195E-01
         -1   -1    0    0    0  501 -0.00000000000E+00  0.00000000000E+00  0.59737774115E+03  0.59737774115E+03  0.00000000000E+00 0.  1.
          2   -1    0    0  501    0  0.00000000000E+00 -0.00000000000E+00 -0.68749817185E+03  0.68749817185E+03  0.00000000000E+00 0. -1.
         24    2    1    2    0    0 -0.10225298219E+03 -0.28715092745E+03  0.47294742373E+02  0.31870183588E+03  0.80141999209E+02 0.  0.
        254    2    1    2    0    0  0.10225298219E+03  0.28715092745E+03 -0.13741517308E+03  0.96617407712E+03  0.90647564225E+03 0.  0.
         23    2    4    4    0    0  0.45872587145E+03  0.18128874722E+02  0.54498476492E+02  0.47114222029E+03  0.90812039755E+02 0.  0.
         23    2    4    4    0    0 -0.35647288926E+03  0.26902205272E+03 -0.19191364957E+03  0.49503185682E+03  0.93701145930E+02 0.  0.
          4    1    3    3  502    0 -0.37475029257E+02 -0.97083992372E+02  0.55090304301E+02  0.11774812534E+03  0.00000000000E+00 0. -1.
         -3    1    3    3    0  502 -0.64777952932E+02 -0.19006693507E+03 -0.77955619279E+01  0.20095371054E+03  0.00000000000E+00 0.  1.
         13    1    5    5    0    0  0.22066738555E+03 -0.27073683481E+02  0.54185697333E+02  0.22883000061E+03  0.00000000000E+00 0. -1.
        -13    1    5    5    0    0  0.23805848590E+03  0.45202558202E+02  0.31277915991E+00  0.24231221968E+03  0.00000000000E+00 0.  1.
          1    1    6    6  503    0 -0.47429400668E+02  0.81655931264E+02 -0.49088361731E+02  0.10642794001E+03  0.00000000000E+00 0. -1.
         -1    1    6    6    0  503 -0.30904348859E+03  0.18736612146E+03 -0.14282528784E+03  0.38860391681E+03  0.00000000000E+00 0.  1.
<mgrwt>
<rscale>  0 0.12817115E+04</rscale>
<asrwt>0</asrwt>
<pdfrwt beam="1">  1        2 0.10576895E+00 0.12817115E+04</pdfrwt>
<pdfrwt beam="2">  1       -1 0.91904267E-01 0.12817115E+04</pdfrwt>
<totfact> 0.54215458E+01</totfact>
</mgrwt>
</event>
<event>
12    7  0.1730932E-007  0.1704563E+04  0.7818608E-02  0.8758766E-01
          2   -1    0    0  501    0  0.00000000000E+00  0.00000000000E+00  0.70963280738E+03  0.70963280738E+03  0.00000000000E+00 0. -1.
         -1   -1    0    0    0  501 -0.00000000000E+00 -0.00000000000E+00 -0.10236045482E+04  0.10236045482E+04  0.00000000000E+00 0.  1.
         24    2    1    2    0    0  0.17947671966E+03 -0.18503839320E+02 -0.71904778895E+03  0.74523968432E+03  0.76145776832E+02 0.  0.
        254    2    1    2    0    0 -0.17947671966E+03  0.18503839320E+02  0.40507604809E+03  0.98799767129E+03  0.88289212748E+03 0.  0.
         23    2    4    4    0    0  0.16141701155E+03  0.30034482924E+03  0.40350651091E+03  0.53614237306E+03  0.91480444761E+02 0.  0.
         23    2    4    4    0    0 -0.34089373121E+03 -0.28184098992E+03  0.15695371824E+01  0.45185529823E+03  0.92346453691E+02 0.  0.
          2    1    3    3  502    0  0.83800464988E+01  0.14073009340E+02 -0.12861130641E+03  0.12965007871E+03  0.00000000000E+00 0. -1.
         -3    1    3    3    0  502  0.17109667316E+03 -0.32576848660E+02 -0.59043648254E+03  0.61558960562E+03  0.00000000000E+00 0.  1.
         13    1    5    5    0    0  0.11123121133E+03  0.26462832285E+03  0.29661250518E+03  0.41277052929E+03  0.00000000000E+00 0.  1.
        -13    1    5    5    0    0  0.50185800223E+02  0.35716506398E+02  0.10689400573E+03  0.12337184376E+03  0.00000000000E+00 0. -1.
          1    1    6    6  503    0 -0.10948749765E+03 -0.39155400071E+02 -0.61124647633E+01  0.11643890983E+03  0.00000000000E+00 0. -1.
         -1    1    6    6    0  503 -0.23140623356E+03 -0.24268558985E+03  0.76820019457E+01  0.33541638840E+03  0.00000000000E+00 0.  1.
<mgrwt>
<rscale>  0 0.17045625E+04</rscale>
<asrwt>0</asrwt>
<pdfrwt beam="1">  1        2 0.10917428E+00 0.17045625E+04</pdfrwt>
<pdfrwt beam="2">  1       -1 0.15747762E+00 0.17045625E+04</pdfrwt>
<totfact> 0.13360503E+01</totfact>
</mgrwt>
</event>
<event>
12    7  0.1730932E-007  0.1523177E+04  0.7818608E-02  0.8869185E-01
          2   -1    0    0  501    0  0.00000000000E+00  0.00000000000E+00  0.18046413740E+04  0.18046413740E+04  0.00000000000E+00 0. -1.
         -1   -1    0    0    0  501 -0.00000000000E+00 -0.00000000000E+00 -0.32140314402E+03  0.32140314402E+03  0.00000000000E+00 0.  1.
         24    2    1    2    0    0  0.31353336112E+03  0.43437519163E+02  0.10167887692E+04  0.10677272756E+04  0.77408960963E+02 0.  0.
        254    2    1    2    0    0 -0.31353336112E+03 -0.43437519163E+02  0.46644946075E+03  0.10583172424E+04  0.89569542790E+03 0.  0.
         23    2    4    4    0    0 -0.28199572379E+02 -0.19617947913E+03  0.64222743441E+03  0.67845978061E+03  0.92574253906E+02 0.  0.
         23    2    4    4    0    0 -0.28533378874E+03  0.15274195996E+03 -0.17577797366E+03  0.37985746181E+03  0.92996332935E+02 0.  0.
          2    1    3    3  502    0  0.23118207691E+03  0.33962579333E+02  0.84916176199E+03  0.88072374074E+03  0.00000000000E+00 0. -1.
         -1    1    3    3    0  502  0.82351284209E+02  0.94749398298E+01  0.16762700722E+03  0.18700353485E+03  0.00000000000E+00 0.  1.
         13    1    5    5    0    0 -0.35474958344E+01 -0.12327153597E+02  0.17918392940E+03  0.17964248940E+03  0.00000000000E+00 0. -1.
        -13    1    5    5    0    0 -0.24652076544E+02 -0.18385232553E+03  0.46304350501E+03  0.49881729121E+03  0.00000000000E+00 0.  1.
          3    1    6    6  503    0  0.49860853620E+01  0.12997811742E+02 -0.29524607119E+01  0.14230993696E+02  0.00000000000E+00 0. -1.
         -3    1    6    6    0  503 -0.29031987410E+03  0.13974414822E+03 -0.17282551294E+03  0.36562646811E+03  0.00000000000E+00 0.  1.
<mgrwt>
<rscale>  0 0.15231775E+04</rscale>
<asrwt>0</asrwt>
<pdfrwt beam="1">  1        2 0.27763713E+00 0.15231775E+04</pdfrwt>
<pdfrwt beam="2">  1       -1 0.49446638E-01 0.15231775E+04</pdfrwt>
<totfact> 0.38640978E+01</totfact>
</mgrwt>
</event>
<event>
12    7  0.1730932E-007  0.1811367E+04  0.7818608E-02  0.8700278E-01
          2   -1    0    0  501    0  0.00000000000E+00  0.00000000000E+00  0.78499409351E+03  0.78499409351E+03  0.00000000000E+00 0. -1.
         -1   -1    0    0    0  501 -0.00000000000E+00 -0.00000000000E+00 -0.10449287195E+04  0.10449287195E+04  0.00000000000E+00 0.  1.
         24    2    1    2    0    0 -0.55691091730E+03 -0.24221336869E+03 -0.38996656231E+03  0.72682926085E+03  0.85963765189E+02 0.  0.
        254    2    1    2    0    0  0.55691091730E+03  0.24221336869E+03  0.13003193627E+03  0.11030935522E+04  0.91164137395E+03 0.  0.
         23    2    4    4    0    0  0.37125279730E+03 -0.31423709404E+03  0.12169038268E+03  0.50963765903E+03  0.91369598253E+02 0.  0.
         23    2    4    4    0    0  0.18565811999E+03  0.55645046273E+03  0.83415535828E+01  0.59345589318E+03  0.89522403010E+02 0.  0.
          2    1    3    3  502    0 -0.28898449922E+03 -0.89195980285E+02 -0.16108662506E+03  0.34266144291E+03  0.00000000000E+00 0. -1.
         -1    1    3    3    0  502 -0.26792641808E+03 -0.15301738841E+03 -0.22887993724E+03  0.38416781793E+03  0.00000000000E+00 0.  1.
         13    1    5    5    0    0  0.19911381763E+02 -0.53394337677E+02  0.19992800961E+02  0.60391477130E+02  0.00000000000E+00 0.  1.
        -13    1    5    5    0    0  0.35134141554E+03 -0.26084275636E+03  0.10169758172E+03  0.44924618190E+03  0.00000000000E+00 0. -1.
          3    1    6    6  503    0  0.10859695552E+03  0.32973511816E+03  0.48920629243E+02  0.35058775630E+03  0.00000000000E+00 0. -1.
         -3    1    6    6    0  503  0.77061164473E+02  0.22671534457E+03 -0.40579075660E+02  0.24286813688E+03  0.00000000000E+00 0.  1.
<mgrwt>
<rscale>  0 0.18113673E+04</rscale>
<asrwt>0</asrwt>
<pdfrwt beam="1">  1        2 0.12076832E+00 0.18113673E+04</pdfrwt>
<pdfrwt beam="2">  1       -1 0.16075826E+00 0.18113673E+04</pdfrwt>
<totfact> 0.10968840E+01</totfact>
</mgrwt>
</event>
<event>
12    7  0.1730932E-007  0.3943639E+04  0.7818608E-02  0.8016014E-01
         -1   -1    0    0    0  501 -0.00000000000E+00  0.00000000000E+00  0.13497124959E+04  0.13497124959E+04  0.00000000000E+00 0.  1.
          2   -1    0    0  501    0  0.00000000000E+00 -0.00000000000E+00 -0.28806666910E+04  0.28806666910E+04  0.00000000000E+00 0. -1.
         24    2    1    2    0    0  0.84816483701E+03 -0.16307075403E+04 -0.11038561670E+04  0.21455845817E+04  0.80275070781E+02 0.  0.
        254    2    1    2    0    0 -0.84816483701E+03  0.16307075403E+04 -0.42709802804E+03  0.20847946052E+04  0.88620829822E+03 0.  0.
         23    2    4    4    0    0 -0.63304729072E+03  0.15823355563E+04 -0.57871568995E+03  0.18022047802E+04  0.92171225989E+02 0.  0.
         23    2    4    4    0    0 -0.21511754629E+03  0.48371983996E+02  0.15161766191E+03  0.28258982507E+03  0.90849800629E+02 0.  0.
          4    1    3    3  502    0  0.20939864539E+03 -0.42283517217E+03 -0.32324438782E+03  0.57194782085E+03  0.00000000000E+00 0. -1.
         -3    1    3    3    0  502  0.63876619161E+03 -0.12078723681E+04 -0.78061177916E+03  0.15736367608E+04  0.00000000000E+00 0.  1.
         13    1    5    5    0    0 -0.60339728703E+03  0.14468772802E+04 -0.52037507974E+03  0.16517664404E+04  0.00000000000E+00 0.  1.
        -13    1    5    5    0    0 -0.29650003688E+02  0.13545827607E+03 -0.58340610212E+02  0.15043833978E+03  0.00000000000E+00 0. -1.
          3    1    6    6  503    0 -0.96710960657E+02 -0.18827373179E+01  0.20432144370E+02  0.98863679552E+02  0.00000000000E+00 0. -1.
         -3    1    6    6    0  503 -0.11840658563E+03  0.50254721314E+02  0.13118551754E+03  0.18372614552E+03  0.00000000000E+00 0.  1.
<mgrwt>
<rscale>  0 0.39436388E+04</rscale>
<asrwt>0</asrwt>
<pdfrwt beam="1">  1        2 0.44317949E+00 0.39436388E+04</pdfrwt>
<pdfrwt beam="2">  1       -1 0.20764808E+00 0.39436388E+04</pdfrwt>
<totfact> 0.24780100E-01</totfact>
</mgrwt>
</event>
<event>
12    7  0.1730932E-007  0.2341773E+04  0.7818608E-02  0.8461630E-01
         -1   -1    0    0    0  501 -0.00000000000E+00  0.00000000000E+00  0.10765485696E+04  0.10765485696E+04  0.00000000000E+00 0.  1.
          2   -1    0    0  501    0  0.00000000000E+00 -0.00000000000E+00 -0.12734917399E+04  0.12734917399E+04  0.00000000000E+00 0. -1.
         24    2    1    2    0    0 -0.83860644884E+02 -0.87026105999E+03 -0.55328716672E+03  0.10377952871E+04  0.80656361951E+02 0.  0.
        254    2    1    2    0    0  0.83860644884E+02  0.87026105999E+03  0.35634399633E+03  0.13122450224E+04  0.91138303409E+03 0.  0.
         23    2    4    4    0    0  0.23543577131E+03  0.58087275694E+03  0.61683869306E+03  0.88417831997E+03  0.91859490995E+02 0.  0.
         23    2    4    4    0    0 -0.15157512642E+03  0.28938830305E+03 -0.26049469674E+03  0.42806670244E+03  0.93075269617E+02 0.  0.
          2    1    3    3  502    0 -0.50826382814E+02 -0.77413438311E+03 -0.47706045466E+03  0.91074367508E+03  0.00000000000E+00 0. -1.
         -1    1    3    3    0  502 -0.33034262070E+02 -0.96126676886E+02 -0.76226712058E+02  0.12705161200E+03  0.00000000000E+00 0.  1.
         13    1    5    5    0    0  0.20922861391E+03  0.56037882892E+03  0.59858901225E+03  0.84623274007E+03  0.00000000000E+00 0.  1.
        -13    1    5    5    0    0  0.26207157395E+02  0.20493928023E+02  0.18249680813E+02  0.37945579905E+02  0.00000000000E+00 0. -1.
          1    1    6    6  503    0  0.99336282861E+01  0.33789705691E+01 -0.13515539040E+02  0.17110353841E+02  0.00000000000E+00 0. -1.
         -1    1    6    6    0  503 -0.16150875471E+03  0.28600933249E+03 -0.24697915770E+03  0.41095634860E+03  0.00000000000E+00 0.  1.
<mgrwt>
<rscale>  0 0.23417734E+04</rscale>
<asrwt>0</asrwt>
<pdfrwt beam="1">  1        2 0.19592181E+00 0.23417734E+04</pdfrwt>
<pdfrwt beam="2">  1       -1 0.16562286E+00 0.23417734E+04</pdfrwt>
<totfact> 0.46777952E+00</totfact>
</mgrwt>
</event>
<event>
12    7  0.1730932E-007  0.2826192E+04  0.7818608E-02  0.8295183E-01
          2   -1    0    0  501    0  0.00000000000E+00  0.00000000000E+00  0.30413852487E+04  0.30413852487E+04  0.00000000000E+00 0. -1.
         -1   -1    0    0    0  501 -0.00000000000E+00 -0.00000000000E+00 -0.65655638281E+03  0.65655638281E+03  0.00000000000E+00 0.  1.
         24    2    1    2    0    0 -0.69361957992E+03 -0.65475938088E+03  0.21624156044E+04  0.23648302815E+04  0.81012624709E+02 0.  0.
        254    2    1    2    0    0  0.69361957992E+03  0.65475938088E+03  0.22241326150E+03  0.13331113501E+04  0.90437837453E+03 0.  0.
         23    2    4    4    0    0  0.59263582433E+03  0.30391341561E+03 -0.26076189476E+03  0.72104264153E+03  0.91242208867E+02 0.  0.
         23    2    4    4    0    0  0.10098375559E+03  0.35084596528E+03  0.48317515626E+03  0.61206870855E+03  0.88765207789E+02 0.  0.
          4    1    3    3  502    0 -0.49810968590E+03 -0.47788308570E+03  0.16498930824E+04  0.17884721653E+04  0.00000000000E+00 0. -1.
         -3    1    3    3    0  502 -0.19550989403E+03 -0.17687629518E+03  0.51252252204E+03  0.57635811615E+03  0.00000000000E+00 0.  1.
         13    1    5    5    0    0  0.14737340142E+03  0.86355745872E+02 -0.10952565643E+03  0.20290910208E+03  0.00000000000E+00 0. -1.
        -13    1    5    5    0    0  0.44526242292E+03  0.21755766973E+03 -0.15123623833E+03  0.51813353945E+03  0.00000000000E+00 0.  1.
          4    1    6    6  503    0 -0.20755052656E+01  0.10579341723E+03  0.18045047622E+03  0.20918635046E+03  0.00000000000E+00 0.  1.
         -4    1    6    6    0  503  0.10305926085E+03  0.24505254805E+03  0.30272468004E+03  0.40288235809E+03  0.00000000000E+00 0. -1.
<mgrwt>
<rscale>  0 0.28261924E+04</rscale>
<asrwt>0</asrwt>
<pdfrwt beam="1">  1        2 0.46790541E+00 0.28261924E+04</pdfrwt>
<pdfrwt beam="2">  1       -1 0.10100868E+00 0.28261924E+04</pdfrwt>
<totfact> 0.15064034E+00</totfact>
</mgrwt>
</event>
<event>
12    7  0.1730932E-007  0.1324043E+04  0.7818608E-02  0.9010713E-01
          2   -1    0    0  501    0  0.00000000000E+00  0.00000000000E+00  0.14557993685E+04  0.14557993685E+04  0.00000000000E+00 0. -1.
         -1   -1    0    0    0  501 -0.00000000000E+00 -0.00000000000E+00 -0.30105292522E+03  0.30105292522E+03  0.00000000000E+00 0.  1.
         24    2    1    2    0    0  0.12826643224E+03  0.28312010641E+03  0.51834564688E+03  0.61098509932E+03  0.89505919692E+02 0.  0.
        254    2    1    2    0    0 -0.12826643224E+03 -0.28312010641E+03  0.63640079637E+03  0.11458671944E+04  0.90077543328E+03 0.  0.
         23    2    4    4    0    0 -0.42347886416E+03 -0.24502567784E+03  0.66671566217E+03  0.83308674478E+03  0.10075623530E+03 0.  0.
         23    2    4    4    0    0  0.29521243192E+03 -0.38094428572E+02 -0.30314865800E+02  0.31278044958E+03  0.91164977388E+02 0.  0.
          4    1    3    3  502    0  0.47217962205E+02  0.46414908327E+02  0.62810518985E+02  0.91263579619E+02  0.00000000000E+00 0. -1.
         -3    1    3    3    0  502  0.81048470035E+02  0.23670519808E+03  0.45553512790E+03  0.51972151970E+03  0.00000000000E+00 0.  1.
         13    1    5    5    0    0 -0.25964823132E+03 -0.19293994929E+03  0.48458869190E+03  0.58263987881E+03  0.00000000000E+00 0. -1.
        -13    1    5    5    0    0 -0.16383063284E+03 -0.52085728552E+02  0.18212697027E+03  0.25044686597E+03  0.00000000000E+00 0.  1.
          3    1    6    6  503    0  0.12784709350E+02 -0.66702377752E+00 -0.24708854874E+02  0.27828424732E+02  0.00000000000E+00 0. -1.
         -3    1    6    6    0  503  0.28242772257E+03 -0.37427404794E+02 -0.56060109255E+01  0.28495202485E+03  0.00000000000E+00 0.  1.
<mgrwt>
<rscale>  0 0.13240433E+04</rscale>
<asrwt>0</asrwt>
<pdfrwt beam="1">  1        2 0.22396913E+00 0.13240433E+04</pdfrwt>
<pdfrwt beam="2">  1       -1 0.46315836E-01 0.13240433E+04</pdfrwt>
<totfact> 0.69558281E+01</totfact>
</mgrwt>
</event>
<event>
12    7  0.1730932E-007  0.1131056E+04  0.7818608E-02  0.9175440E-01
          4   -1    0    0  501    0  0.00000000000E+00  0.00000000000E+00  0.97700384999E+03  0.97700384999E+03  0.00000000000E+00 0. -1.
         -3   -1    0    0    0  501 -0.00000000000E+00 -0.00000000000E+00 -0.32734985318E+03  0.32734985318E+03  0.00000000000E+00 0.  1.
         24    2    1    2    0    0  0.11909941795E+03  0.15828208726E+03  0.88451596684E+02  0.23114241253E+03  0.79782450508E+02 0.  0.
        254    2    1    2    0    0 -0.11909941795E+03 -0.15828208726E+03  0.56120240012E+03  0.10732112906E+04  0.89308255496E+03 0.  0.
         23    2    4    4    0    0 -0.26570014499E+03 -0.17629744645E+03 -0.13279234358E+03  0.35771921560E+03  0.93015450443E+02 0.  0.
         23    2    4    4    0    0  0.14660072704E+03  0.18015359183E+02  0.69399474371E+03  0.71549207505E+03  0.92107973785E+02 0.  0.
          2    1    3    3  502    0  0.49198824962E+02  0.24587666761E+02 -0.23652728639E+01  0.55051541760E+02  0.00000000000E+00 0. -1.
         -1    1    3    3    0  502  0.69900592983E+02  0.13369442050E+03  0.90816869547E+02  0.17609087077E+03  0.00000000000E+00 0.  1.
         13    1    5    5    0    0 -0.25552111617E+03 -0.16791168798E+03 -0.14620226115E+03  0.33891072118E+03  0.00000000000E+00 0.  1.
        -13    1    5    5    0    0 -0.10179028819E+02 -0.83857584691E+01  0.13409917568E+02  0.18808494411E+02  0.00000000000E+00 0. -1.
          3    1    6    6  503    0  0.20534574352E+02 -0.27101134606E+02  0.77604954493E+02  0.84727027580E+02  0.00000000000E+00 0. -1.
         -3    1    6    6    0  503  0.12606615269E+03  0.45116493789E+02  0.61638978921E+03  0.63076504747E+03  0.00000000000E+00 0.  1.
<mgrwt>
<rscale>  0 0.11310563E+04</rscale>
<asrwt>0</asrwt>
<pdfrwt beam="1">  1        4 0.15030828E+00 0.11310563E+04</pdfrwt>
<pdfrwt beam="2">  1       -3 0.50361516E-01 0.11310563E+04</pdfrwt>
<totfact> 0.26205739E+00</totfact>
</mgrwt>
</event>
<event>
12    7  0.1730932E-007  0.1431113E+04  0.7818608E-02  0.8931600E-01
         -1   -1    0    0    0  501 -0.00000000000E+00  0.00000000000E+00  0.41452016043E+03  0.41452016043E+03  0.00000000000E+00 0.  1.
          2   -1    0    0  501    0  0.00000000000E+00 -0.00000000000E+00 -0.12352134655E+04  0.12352134655E+04  0.00000000000E+00 0. -1.
         24    2    1    2    0    0  0.81489896542E+02 -0.22614394970E+03 -0.67909077500E+03  0.72491941609E+03  0.81007344800E+02 0.  0.
        254    2    1    2    0    0 -0.81489896542E+02  0.22614394970E+03 -0.14160253010E+03  0.92481420987E+03  0.88173031990E+03 0.  0.
         23    2    4    4    0    0  0.44580657369E+01  0.50258895027E+03  0.12031908240E+03  0.52500730307E+03  0.92414606013E+02 0.  0.
         23    2    4    4    0    0 -0.85947962279E+02 -0.27644500057E+03 -0.26192161250E+03  0.39980690681E+03  0.86219145647E+02 0.  0.
          4    1    3    3  502    0  0.62879591169E+02 -0.20145458118E+03 -0.64615501810E+03  0.67974561321E+03  0.00000000000E+00 0. -1.
         -3    1    3    3    0  502  0.18610305374E+02 -0.24689368522E+02 -0.32935756900E+02  0.45173802880E+02  0.00000000000E+00 0.  1.
         13    1    5    5    0    0  0.15378380920E+02  0.25376747624E+03  0.15246847254E+02  0.25468979750E+03  0.00000000000E+00 0. -1.
        -13    1    5    5    0    0 -0.10920315183E+02  0.24882147403E+03  0.10507223514E+03  0.27031750557E+03  0.00000000000E+00 0.  1.
          1    1    6    6  503    0 -0.13705907765E+02 -0.89075433940E+02 -0.34722091979E+02  0.96581098103E+02  0.00000000000E+00 0. -1.
         -1    1    6    6    0  503 -0.72242054515E+02 -0.18736956663E+03 -0.22719952052E+03  0.30322580870E+03  0.00000000000E+00 0.  1.
<mgrwt>
<rscale>  0 0.14311127E+04</rscale>
<asrwt>0</asrwt>
<pdfrwt beam="1">  1        2 0.19003284E+00 0.14311127E+04</pdfrwt>
<pdfrwt beam="2">  1       -1 0.63772333E-01 0.14311127E+04</pdfrwt>
<totfact> 0.49830199E+01</totfact>
</mgrwt>
</event>
<event>
12    7  0.1730932E-007  0.1312319E+04  0.7818608E-02  0.9019853E-01
         -1   -1    0    0    0  501 -0.00000000000E+00  0.00000000000E+00  0.11498384203E+03  0.11498384203E+03  0.00000000000E+00 0.  1.
          2   -1    0    0  501    0  0.00000000000E+00 -0.00000000000E+00 -0.37443969114E+04  0.37443969114E+04  0.00000000000E+00 0. -1.
         24    2    1    2    0    0  0.28657540189E+03 -0.42000712749E+02 -0.17409157136E+04  0.17668133237E+04  0.83380321142E+02 0.  0.
        254    2    1    2    0    0 -0.28657540189E+03  0.42000712749E+02 -0.18884973558E+04  0.20925674298E+04  0.85353773469E+03 0.  0.
         23    2    4    4    0    0  0.40218581431E+02  0.19328545182E+03 -0.60368685981E+02  0.22702033182E+03  0.94430146871E+02 0.  0.
         23    2    4    4    0    0 -0.32679398332E+03 -0.15128473907E+03 -0.18281286698E+04  0.18655470980E+04  0.92358873567E+02 0.  0.
          2    1    3    3  502    0  0.12895602065E+03 -0.29759839268E+02 -0.10340009658E+04  0.10424362334E+04  0.00000000000E+00 0. -1.
         -1    1    3    3    0  502  0.15761938124E+03 -0.12240873482E+02 -0.70691474780E+03  0.72437709032E+03  0.00000000000E+00 0.  1.
         13    1    5    5    0    0  0.15574680355E+02  0.10278699197E+03  0.17116555135E+02  0.10535992049E+03  0.00000000000E+00 0. -1.
        -13    1    5    5    0    0  0.24643901076E+02  0.90498459848E+02 -0.77485241115E+02  0.12166041133E+03  0.00000000000E+00 0.  1.
          3    1    6    6  503    0 -0.32617400164E+03 -0.15861815790E+03 -0.18099927187E+04  0.18459747672E+04  0.00000000000E+00 0. -1.
         -3    1    6    6    0  503 -0.61998168550E+00  0.73334188329E+01 -0.18135951058E+02  0.19572330721E+02  0.00000000000E+00 0.  1.
<mgrwt>
<rscale>  0 0.13123188E+04</rscale>
<asrwt>0</asrwt>
<pdfrwt beam="1">  1        2 0.57606093E+00 0.13123188E+04</pdfrwt>
<pdfrwt beam="2">  1       -1 0.17689826E-01 0.13123188E+04</pdfrwt>
<totfact> 0.15541252E+01</totfact>
</mgrwt>
</event>
<event>
12    7  0.1730932E-007  0.1334097E+04  0.7818608E-02  0.9002955E-01
         -1   -1    0    0    0  501 -0.00000000000E+00  0.00000000000E+00  0.22333812880E+03  0.22333812880E+03  0.00000000000E+00 0.  1.
          2   -1    0    0  501    0  0.00000000000E+00 -0.00000000000E+00 -0.19922864087E+04  0.19922864087E+04  0.00000000000E+00 0. -1.
         24    2    1    2    0    0  0.41445476732E+02  0.93687798543E+02 -0.11034165740E+04  0.11110504803E+04  0.80061868170E+02 0.  0.
        254    2    1    2    0    0 -0.41445476732E+02 -0.93687798543E+02 -0.66553170581E+03  0.11045740572E+04  0.87558909608E+03 0.  0.
         23    2    4    4    0    0 -0.68742447446E+02  0.36159761481E+03 -0.46093264677E+03  0.59641724272E+03  0.88183124492E+02 0.  0.
         23    2    4    4    0    0  0.27296970714E+02 -0.45528541335E+03 -0.20459905904E+03  0.50815681444E+03  0.91283300101E+02 0.  0.
          2    1    3    3  502    0  0.42778829926E+02  0.66393496170E+02 -0.10244337587E+04  0.10274739172E+04  0.00000000000E+00 0. -1.
         -1    1    3    3    0  502 -0.13333531939E+01  0.27294302372E+02 -0.78982815329E+02  0.83576563043E+02  0.00000000000E+00 0.  1.
         13    1    5    5    0    0 -0.43068660984E+02  0.24978305407E+03 -0.37692723141E+03  0.45422529811E+03  0.00000000000E+00 0.  1.
        -13    1    5    5    0    0 -0.25673786462E+02  0.11181456074E+03 -0.84005415353E+02  0.14219194462E+03  0.00000000000E+00 0. -1.
          4    1    6    6  503    0 -0.14584724312E+02 -0.52294401869E+02 -0.52102503140E+02  0.75246856969E+02  0.00000000000E+00 0. -1.
         -4    1    6    6    0  503  0.41881695027E+02 -0.40299101148E+03 -0.15249655590E+03  0.43290995747E+03  0.00000000000E+00 0.  1.
<mgrwt>
<rscale>  0 0.13340967E+04</rscale>
<asrwt>0</asrwt>
<pdfrwt beam="1">  1        2 0.30650562E+00 0.13340967E+04</pdfrwt>
<pdfrwt beam="2">  1       -1 0.34359710E-01 0.13340967E+04</pdfrwt>
<totfact> 0.60333231E+01</totfact>
</mgrwt>
</event>
<event>
12    7  0.1730932E-007  0.1505250E+04  0.7818608E-02  0.8880969E-01
          2   -1    0    0  501    0  0.00000000000E+00  0.00000000000E+00  0.43885047586E+03  0.43885047586E+03  0.00000000000E+00 0. -1.
         -3   -1    0    0    0  501 -0.00000000000E+00 -0.00000000000E+00 -0.12907457573E+04  0.12907457573E+04  0.00000000000E+00 0.  1.
         24    2    1    2    0    0  0.21804185026E+03 -0.41266165499E+03 -0.15164672550E+03  0.49805865897E+03  0.85051798687E+02 0.  0.
        254    2    1    2    0    0 -0.21804185026E+03  0.41266165499E+03 -0.70024855591E+03  0.12315375742E+04  0.89916898666E+03 0.  0.
         23    2    4    4    0    0  0.34449836866E+02  0.24118137629E+03 -0.84306017832E+03  0.88218424167E+03  0.90240370435E+02 0.  0.
         23    2    4    4    0    0 -0.25249168712E+03  0.17148027870E+03  0.14281162241E+03  0.34935333250E+03  0.92168613851E+02 0.  0.
          4    1    3    3  502    0  0.21320668100E+03 -0.37722458198E+03 -0.11831725830E+03  0.44917084465E+03  0.00000000000E+00 0. -1.
         -3    1    3    3    0  502  0.48351692572E+01 -0.35437073010E+02 -0.33329467200E+02  0.48887814321E+02  0.00000000000E+00 0.  1.
         13    1    5    5    0    0 -0.28351719150E+02  0.88496134125E+02 -0.25569894457E+03  0.27206127249E+03  0.00000000000E+00 0. -1.
        -13    1    5    5    0    0  0.62801556016E+02  0.15268524216E+03 -0.58736123375E+03  0.61012296918E+03  0.00000000000E+00 0.  1.
          1    1    6    6  503    0 -0.40870657250E+02  0.55511488478E+02 -0.26108938983E-01  0.68934292328E+02  0.00000000000E+00 0. -1.
         -1    1    6    6    0  503 -0.21162102987E+03  0.11596879023E+03  0.14283773135E+03  0.28041904017E+03  0.00000000000E+00 0.  1.
<mgrwt>
<rscale>  0 0.15052500E+04</rscale>
<asrwt>0</asrwt>
<pdfrwt beam="1">  1        2 0.67515458E-01 0.15052500E+04</pdfrwt>
<pdfrwt beam="2">  1       -3 0.19857627E+00 0.15052500E+04</pdfrwt>
<totfact> 0.64608436E+00</totfact>
</mgrwt>
</event>
<event>
12    7  0.1730932E-007  0.1069698E+04  0.7818608E-02  0.9235240E-01
         -1   -1    0    0    0  501 -0.00000000000E+00  0.00000000000E+00  0.12803577622E+03  0.12803577622E+03  0.00000000000E+00 0.  1.
          2   -1    0    0  501    0  0.00000000000E+00 -0.00000000000E+00 -0.22342476681E+04  0.22342476681E+04  0.00000000000E+00 0. -1.
         24    2    1    2    0    0 -0.26735182456E+02 -0.10048465306E+03 -0.55807633810E+03  0.57324676776E+03  0.79691418126E+02 0.  0.
        254    2    1    2    0    0  0.26735182456E+02  0.10048465306E+03 -0.15481355538E+04  0.17890366766E+04  0.89057094143E+03 0.  0.
         23    2    4    4    0    0  0.66096986725E+02  0.17693990549E+03 -0.16265247946E+04  0.16400718468E+04  0.92607847294E+02 0.  0.
         23    2    4    4    0    0 -0.39361804269E+02 -0.76455252430E+02  0.78389240783E+02  0.14896482980E+03  0.93010161746E+02 0.  0.
          2    1    3    3  502    0 -0.29356920504E+02 -0.10317528582E+03 -0.55914434973E+03  0.56934117383E+03  0.00000000000E+00 0. -1.
         -1    1    3    3    0  502  0.26217380484E+01  0.26906327663E+01  0.10680116331E+01  0.39055939274E+01  0.00000000000E+00 0.  1.
         13    1    5    5    0    0  0.29636712444E+02  0.31376118712E+02 -0.15440903162E+03  0.16032761645E+03  0.00000000000E+00 0.  1.
        -13    1    5    5    0    0  0.36460274282E+02  0.14556378677E+03 -0.14721157630E+04  0.14797442303E+04  0.00000000000E+00 0. -1.
          3    1    6    6  503    0 -0.39543568655E+02 -0.65099837906E+02  0.99312237353E+02  0.12515831257E+03  0.00000000000E+00 0. -1.
         -3    1    6    6    0  503  0.18176438625E+00 -0.11355414523E+02 -0.20922996569E+02  0.23806517232E+02  0.00000000000E+00 0.  1.
<mgrwt>
<rscale>  0 0.10696983E+04</rscale>
<asrwt>0</asrwt>
<pdfrwt beam="1">  1        2 0.34373039E+00 0.10696983E+04</pdfrwt>
<pdfrwt beam="2">  1       -1 0.19697813E-01 0.10696983E+04</pdfrwt>
<totfact> 0.11806425E+02</totfact>
</mgrwt>
</event>
<event>
12    7  0.1730932E-007  0.2318171E+04  0.7818608E-02  0.8470791E-01
          2   -1    0    0  501    0  0.00000000000E+00  0.00000000000E+00  0.33166148354E+04  0.33166148354E+04  0.00000000000E+00 0. -1.
         -1   -1    0    0    0  501 -0.00000000000E+00 -0.00000000000E+00 -0.40507539072E+03  0.40507539072E+03  0.00000000000E+00 0.  1.
         24    2    1    2    0    0 -0.17275963241E+03 -0.58961271561E+03  0.24744533054E+04  0.25508192858E+04  0.79188529580E+02 0.  0.
        254    2    1    2    0    0  0.17275963241E+03  0.58961271561E+03  0.43708613932E+03  0.11708709403E+04  0.89577085282E+03 0.  0.
         23    2    4    4    0    0  0.10733597914E+03  0.80872824675E+03  0.42686667240E+03  0.92542242974E+03  0.92893099554E+02 0.  0.
         23    2    4    4    0    0  0.65423653267E+02 -0.21911553114E+03  0.10219466912E+02  0.24544851061E+03  0.88592682893E+02 0.  0.
          2    1    3    3  502    0 -0.17194489313E+03 -0.57199321676E+03  0.24408871704E+04  0.25129010058E+04  0.00000000000E+00 0. -1.
         -1    1    3    3    0  502 -0.81473928129E+00 -0.17619498852E+02  0.33566134974E+02  0.37918279985E+02  0.00000000000E+00 0.  1.
         13    1    5    5    0    0  0.63514101771E+02  0.62741841309E+03  0.29025442573E+03  0.69421577184E+03  0.00000000000E+00 0.  1.
        -13    1    5    5    0    0  0.43821877370E+02  0.18130983366E+03  0.13661224667E+03  0.23120665790E+03  0.00000000000E+00 0. -1.
          4    1    6    6  503    0  0.14751152838E+02 -0.23895766559E+02 -0.28573037834E+02  0.40062734062E+02  0.00000000000E+00 0. -1.
         -4    1    6    6    0  503  0.50672500428E+02 -0.19521976458E+03  0.38792504746E+02  0.20538577654E+03  0.00000000000E+00 0.  1.
<mgrwt>
<rscale>  0 0.23181709E+04</rscale>
<asrwt>0</asrwt>
<pdfrwt beam="1">  1        2 0.51024842E+00 0.23181709E+04</pdfrwt>
<pdfrwt beam="2">  1       -1 0.62319293E-01 0.23181709E+04</pdfrwt>
<totfact> 0.29252866E+00</totfact>
</mgrwt>
</event>
<event>
12    7  0.1730932E-007  0.2669142E+04  0.7818608E-02  0.8345087E-01
          2   -1    0    0  501    0  0.00000000000E+00  0.00000000000E+00  0.23560617148E+04  0.23560617148E+04  0.00000000000E+00 0. -1.
         -1   -1    0    0    0  501 -0.00000000000E+00 -0.00000000000E+00 -0.75595612714E+03  0.75595612714E+03  0.00000000000E+00 0.  1.
         24    2    1    2    0    0 -0.10546084790E+04  0.52945950232E+03  0.80466689177E+03  0.14305424749E+04  0.80228155845E+02 0.  0.
        254    2    1    2    0    0  0.10546084790E+04 -0.52945950232E+03  0.79543869593E+03  0.16814753671E+04  0.89560609788E+03 0.  0.
         23    2    4    4    0    0  0.51265305419E+03 -0.14393473647E+03  0.85045250171E+03  0.10077727610E+04  0.93840917085E+02 0.  0.
         23    2    4    4    0    0  0.54195542485E+03 -0.38552476585E+03 -0.55013805781E+02  0.67370260616E+03  0.92215265064E+02 0.  0.
          2    1    3    3  502    0 -0.34628443408E+03  0.16224515694E+03  0.21765824665E+03  0.44001308227E+03  0.00000000000E+00 0. -1.
         -1    1    3    3    0  502 -0.70832404497E+03  0.36721434538E+03  0.58700864512E+03  0.99052939259E+03  0.00000000000E+00 0.  1.
         13    1    5    5    0    0  0.70289477347E+02 -0.30796466650E+02  0.18941320935E+03  0.20436828732E+03  0.00000000000E+00 0. -1.
        -13    1    5    5    0    0  0.44236357685E+03 -0.11313826982E+03  0.66103929235E+03  0.80340447363E+03  0.00000000000E+00 0.  1.
          3    1    6    6  503    0  0.21462881205E+03 -0.15631154298E+03  0.23167057913E+02  0.26652492942E+03  0.00000000000E+00 0. -1.
         -3    1    6    6    0  503  0.32732661280E+03 -0.22921322288E+03 -0.78180863694E+02  0.40717767674E+03  0.00000000000E+00 0.  1.
<mgrwt>
<rscale>  0 0.26691417E+04</rscale>
<asrwt>0</asrwt>
<pdfrwt beam="1">  1        2 0.36247103E+00 0.26691417E+04</pdfrwt>
<pdfrwt beam="2">  1       -1 0.11630094E+00 0.26691417E+04</pdfrwt>
<totfact> 0.28141284E+00</totfact>
</mgrwt>
</event>
<event>
12    7  0.1730932E-007  0.1601349E+04  0.7818608E-02  0.8819720E-01
          2   -1    0    0  501    0  0.00000000000E+00  0.00000000000E+00  0.89778835592E+03  0.89778835592E+03  0.00000000000E+00 0. -1.
         -1   -1    0    0    0  501 -0.00000000000E+00 -0.00000000000E+00 -0.71406529191E+03  0.71406529191E+03  0.00000000000E+00 0.  1.
         24    2    1    2    0    0  0.28039304038E+03 -0.31012338622E+03  0.37951889572E+03  0.57077853129E+03  0.83407240681E+02 0.  0.
        254    2    1    2    0    0 -0.28039304038E+03  0.31012338622E+03 -0.19579583171E+03  0.10410751165E+04  0.93311554419E+03 0.  0.
         23    2    4    4    0    0 -0.38072310258E+03  0.77370360327E+02  0.28473765521E+03  0.49001544973E+03  0.90018637923E+02 0.  0.
         23    2    4    4    0    0  0.10033006221E+03  0.23275302589E+03 -0.48053348693E+03  0.55105966682E+03  0.92272595569E+02 0.  0.
          4    1    3    3  502    0  0.19286791468E+03 -0.23983767716E+03  0.31895544969E+03  0.44322987578E+03  0.00000000000E+00 0. -1.
         -3    1    3    3    0  502  0.87525125702E+02 -0.70285709054E+02  0.60563446034E+02  0.12754865551E+03  0.00000000000E+00 0.  1.
         13    1    5    5    0    0 -0.17953362426E+03  0.50425454773E+02  0.18925978084E+03  0.26569590395E+03  0.00000000000E+00 0. -1.
        -13    1    5    5    0    0 -0.20118947833E+03  0.26944905554E+02  0.95477874371E+02  0.22431954578E+03  0.00000000000E+00 0.  1.
          1    1    6    6  503    0  0.28853612458E+02  0.17584185604E+03 -0.30828445013E+03  0.35607891187E+03  0.00000000000E+00 0. -1.
         -1    1    6    6    0  503  0.71476449750E+02  0.56911169849E+02 -0.17224903680E+03  0.19498075495E+03  0.00000000000E+00 0.  1.
<mgrwt>
<rscale>  0 0.16013488E+04</rscale>
<asrwt>0</asrwt>
<pdfrwt beam="1">  1        2 0.13812129E+00 0.16013488E+04</pdfrwt>
<pdfrwt beam="2">  1       -1 0.10985620E+00 0.16013488E+04</pdfrwt>
<totfact> 0.24655302E+01</totfact>
</mgrwt>
</event>
<event>
12    7  0.1730932E-007  0.1991416E+04  0.7818608E-02  0.8610645E-01
          2   -1    0    0  501    0  0.00000000000E+00  0.00000000000E+00  0.10579138679E+04  0.10579138679E+04  0.00000000000E+00 0. -1.
         -1   -1    0    0    0  501 -0.00000000000E+00 -0.00000000000E+00 -0.93715957797E+03  0.93715957797E+03  0.00000000000E+00 0.  1.
         24    2    1    2    0    0  0.74065683784E+03 -0.84334072898E+02 -0.21155558362E+03  0.77881524600E+03  0.78183343180E+02 0.  0.
        254    2    1    2    0    0 -0.74065683784E+03  0.84334072898E+02  0.33230987353E+03  0.12162581998E+04  0.90175904175E+03 0.  0.
         23    2    4    4    0    0  0.18690566298E+03  0.11033212345E+03  0.45395914571E+02  0.24082294846E+03  0.93957432525E+02 0.  0.
         23    2    4    4    0    0 -0.92756250082E+03 -0.25998050549E+02  0.28691395895E+03  0.97543525139E+03  0.90034539251E+02 0.  0.
          2    1    3    3  502    0  0.17566566890E+02  0.96848943527E+01 -0.92815989465E+01  0.22102704131E+02  0.00000000000E+00 0. -1.
         -1    1    3    3    0  502  0.72309027095E+03 -0.94018967251E+02 -0.20227398467E+03  0.75671254187E+03  0.00000000000E+00 0.  1.
         13    1    5    5    0    0  0.11973849113E+03  0.29266793323E+02 -0.65328755005E+01  0.12343633951E+03  0.00000000000E+00 0.  1.
        -13    1    5    5    0    0  0.67167171852E+02  0.81065330124E+02  0.51928790071E+02  0.11738660895E+03  0.00000000000E+00 0. -1.
          2    1    6    6  503    0 -0.11870108178E+03  0.26380725138E+02  0.42978840933E+02  0.12896926084E+03  0.00000000000E+00 0.  1.
         -2    1    6    6    0  503 -0.80886141904E+03 -0.52378775686E+02  0.24393511802E+03  0.84646599055E+03  0.00000000000E+00 0. -1.
<mgrwt>
<rscale>  0 0.19914157E+04</rscale>
<asrwt>0</asrwt>
<pdfrwt beam="1">  1        2 0.16275598E+00 0.19914157E+04</pdfrwt>
<pdfrwt beam="2">  1       -1 0.14417840E+00 0.19914157E+04</pdfrwt>
<totfact> 0.95191194E+00</totfact>
</mgrwt>
</event>
<event>
12    7  0.1730932E-007  0.1375291E+04  0.7818608E-02  0.8971901E-01
          2   -1    0    0  501    0  0.00000000000E+00  0.00000000000E+00  0.20897038466E+04  0.20897038466E+04  0.00000000000E+00 0. -1.
         -1   -1    0    0    0  501 -0.00000000000E+00 -0.00000000000E+00 -0.22627895946E+03  0.22627895946E+03  0.00000000000E+00 0.  1.
         24    2    1    2    0    0  0.75254488075E+02 -0.25563348356E+02  0.11747152614E+04  0.11800531638E+04  0.79074655393E+02 0.  0.
        254    2    1    2    0    0 -0.75254488075E+02  0.25563348356E+02  0.68870962568E+03  0.11359296423E+04  0.89983247380E+03 0.  0.
         23    2    4    4    0    0  0.22248813841E+03 -0.34342344636E+03  0.28656476711E+03  0.50748729408E+03  0.89349609174E+02 0.  0.
         23    2    4    4    0    0 -0.29774262648E+03  0.36898679472E+03  0.40214485858E+03  0.62844234819E+03  0.91746233772E+02 0.  0.
          2    1    3    3  502    0  0.36335257627E+02 -0.38020739917E+02  0.96271476679E+03  0.96415016973E+03  0.00000000000E+00 0. -1.
         -1    1    3    3    0  502  0.38919230447E+02  0.12457391562E+02  0.21200049466E+03  0.21590299405E+03  0.00000000000E+00 0.  1.
         13    1    5    5    0    0  0.16836187736E+02 -0.45158793077E+02  0.46221283957E+01  0.48416297675E+02  0.00000000000E+00 0.  1.
        -13    1    5    5    0    0  0.20565195067E+03 -0.29826465329E+03  0.28194263871E+03  0.45907099640E+03  0.00000000000E+00 0. -1.
          1    1    6    6  503    0 -0.17988670128E+03  0.28421380219E+03  0.30233925351E+03  0.45226732677E+03  0.00000000000E+00 0. -1.
         -1    1    6    6    0  503 -0.11785592520E+03  0.84772992530E+02  0.99805605069E+02  0.17617502141E+03  0.00000000000E+00 0.  1.
<mgrwt>
<rscale>  0 0.13752905E+04</rscale>
<asrwt>0</asrwt>
<pdfrwt beam="1">  1        2 0.32149289E+00 0.13752905E+04</pdfrwt>
<pdfrwt beam="2">  1       -1 0.34812149E-01 0.13752905E+04</pdfrwt>
<totfact> 0.51869110E+01</totfact>
</mgrwt>
</event>
<event>
12    7  0.1730932E-007  0.1506866E+04  0.7818608E-02  0.8879900E-01
         -1   -1    0    0    0  501 -0.00000000000E+00  0.00000000000E+00  0.12709380219E+04  0.12709380219E+04  0.00000000000E+00 0.  1.
          2   -1    0    0  501    0  0.00000000000E+00 -0.00000000000E+00 -0.44664770587E+03  0.44664770587E+03  0.00000000000E+00 0. -1.
         24    2    1    2    0    0  0.45747478384E+03  0.13386050014E+03  0.20306311110E+03  0.52390775908E+03  0.77736102216E+02 0.  0.
        254    2    1    2    0    0 -0.45747478384E+03 -0.13386050014E+03  0.62122720493E+03  0.11936779687E+04  0.90096728099E+03 0.  0.
         23    2    4    4    0    0  0.17413823014E+03  0.15490146790E+03 -0.86294361439E+01  0.25158410699E+03  0.94347802134E+02 0.  0.
         23    2    4    4    0    0 -0.63161301398E+03 -0.28876196804E+03  0.62985664107E+03  0.94209386169E+03  0.92211617021E+02 0.  0.
          4    1    3    3  502    0  0.32878513524E+03  0.64717649582E+02  0.12049013735E+03  0.35609817821E+03  0.00000000000E+00 0. -1.
         -3    1    3    3    0  502  0.12868964860E+03  0.69142850555E+02  0.82572973743E+02  0.16780958087E+03  0.00000000000E+00 0.  1.
         13    1    5    5    0    0  0.85563709049E+02  0.13237814565E+03  0.11353238310E+02  0.15803169863E+03  0.00000000000E+00 0. -1.
        -13    1    5    5    0    0  0.88574521092E+02  0.22523322253E+02 -0.19982674454E+02  0.93552408363E+02  0.00000000000E+00 0.  1.
          3    1    6    6  503    0 -0.30056948245E+03 -0.17879720780E+03  0.27951788072E+03  0.44770604300E+03  0.00000000000E+00 0. -1.
         -3    1    6    6    0  503 -0.33104353153E+03 -0.10996476024E+03  0.35033876035E+03  0.49438781869E+03  0.00000000000E+00 0.  1.
<mgrwt>
<rscale>  0 0.15068664E+04</rscale>
<asrwt>0</asrwt>
<pdfrwt beam="1">  1        2 0.68715032E-01 0.15068664E+04</pdfrwt>
<pdfrwt beam="2">  1       -1 0.19552892E+00 0.15068664E+04</pdfrwt>
<totfact> 0.12520363E+01</totfact>
</mgrwt>
</event>
<event>
12    7  0.1730932E-007  0.1227576E+04  0.7818608E-02  0.9089056E-01
         -1   -1    0    0    0  501 -0.00000000000E+00  0.00000000000E+00  0.86174375493E+03  0.86174375493E+03  0.00000000000E+00 0.  1.
          2   -1    0    0  501    0  0.00000000000E+00 -0.00000000000E+00 -0.43717813149E+03  0.43717813149E+03  0.00000000000E+00 0. -1.
         24    2    1    2    0    0  0.13620967926E+03 -0.22183579664E+03  0.18294851800E+03  0.32815684872E+03  0.80327826634E+02 0.  0.
        254    2    1    2    0    0 -0.13620967926E+03  0.22183579664E+03  0.24161710544E+03  0.97076503769E+03  0.90346097612E+03 0.  0.
         23    2    4    4    0    0 -0.40454956691E+03  0.21773534367E+03 -0.14589487289E+03  0.49076895212E+03  0.92194460023E+02 0.  0.
         23    2    4    4    0    0  0.26833988765E+03  0.41004529710E+01  0.38751197833E+03  0.47999608557E+03  0.90595804519E+02 0.  0.
          2    1    3    3  502    0  0.12966324810E+03 -0.16803021067E+03  0.11551888737E+03  0.24164296585E+03  0.00000000000E+00 0. -1.
         -1    1    3    3    0  502  0.65464311546E+01 -0.53805585972E+02  0.67429630636E+02  0.86513882876E+02  0.00000000000E+00 0.  1.
         13    1    5    5    0    0 -0.40971663082E+03  0.21497547506E+03 -0.14471512841E+03  0.48479340016E+03  0.00000000000E+00 0. -1.
        -13    1    5    5    0    0  0.51670639096E+01  0.27598686072E+01 -0.11797444784E+01  0.59755519585E+01  0.00000000000E+00 0.  1.
          3    1    6    6  503    0  0.23328571383E+03 -0.88247228498E+01  0.27124738291E+03  0.35787601588E+03  0.00000000000E+00 0. -1.
         -3    1    6    6    0  503  0.35054173823E+02  0.12925175821E+02  0.11626459542E+03  0.12212006969E+03  0.00000000000E+00 0.  1.
<mgrwt>
<rscale>  0 0.12275757E+04</rscale>
<asrwt>0</asrwt>
<pdfrwt beam="1">  1        2 0.67258174E-01 0.12275757E+04</pdfrwt>
<pdfrwt beam="2">  1       -1 0.13257596E+00 0.12275757E+04</pdfrwt>
<totfact> 0.39097313E+01</totfact>
</mgrwt>
</event>
<event>
12    7  0.1730932E-007  0.1432598E+04  0.7818608E-02  0.8930554E-01
         -1   -1    0    0    0  501 -0.00000000000E+00  0.00000000000E+00  0.26265915110E+03  0.26265915110E+03  0.00000000000E+00 0.  1.
          2   -1    0    0  501    0  0.00000000000E+00 -0.00000000000E+00 -0.19534231462E+04  0.19534231462E+04  0.00000000000E+00 0. -1.
         24    2    1    2    0    0 -0.10977038177E+03 -0.26991018464E+03 -0.26686764593E+02  0.30327630437E+03  0.79770225664E+02 0.  0.
        254    2    1    2    0    0  0.10977038177E+03  0.26991018464E+03 -0.16640772305E+04  0.19128059929E+04  0.89709124006E+03 0.  0.
         23    2    4    4    0    0  0.98848572095E+02  0.56038330497E+03 -0.72841644889E+03  0.92864865334E+03  0.89427678292E+02 0.  0.
         23    2    4    4    0    0  0.10921809671E+02 -0.29047312033E+03 -0.93566078159E+03  0.98415733955E+03  0.92793594802E+02 0.  0.
          4    1    3    3  502    0 -0.61162776567E+01 -0.10912368811E+03 -0.24278666813E+02  0.11195910781E+03  0.00000000000E+00 0. -1.
         -3    1    3    3    0  502 -0.10365410411E+03 -0.16078649653E+03 -0.24080977795E+01  0.19131719656E+03  0.00000000000E+00 0.  1.
         13    1    5    5    0    0  0.80021386592E+02  0.54538464500E+03 -0.70647964770E+03  0.89608109339E+03  0.00000000000E+00 0. -1.
        -13    1    5    5    0    0  0.18827185503E+02  0.14998659971E+02 -0.21936801190E+02  0.32567559954E+02  0.00000000000E+00 0.  1.
          3    1    6    6  503    0 -0.18571017535E+02 -0.25459358688E+03 -0.83794937629E+03  0.87596914009E+03  0.00000000000E+00 0. -1.
         -3    1    6    6    0  503  0.29492827206E+02 -0.35879533450E+02 -0.97711405300E+02  0.10818819946E+03  0.00000000000E+00 0.  1.
<mgrwt>
<rscale>  0 0.14325983E+04</rscale>
<asrwt>0</asrwt>
<pdfrwt beam="1">  1        2 0.30052663E+00 0.14325983E+04</pdfrwt>
<pdfrwt beam="2">  1       -1 0.40409102E-01 0.14325983E+04</pdfrwt>
<totfact> 0.46914149E+01</totfact>
</mgrwt>
</event>
<event>
12    7  0.1730932E-007  0.1720005E+04  0.7818608E-02  0.8750036E-01
         -1   -1    0    0    0  501 -0.00000000000E+00  0.00000000000E+00  0.56799362570E+03  0.56799362570E+03  0.00000000000E+00 0.  1.
          2   -1    0    0  501    0  0.00000000000E+00 -0.00000000000E+00 -0.13021344053E+04  0.13021344053E+04  0.00000000000E+00 0. -1.
         24    2    1    2    0    0  0.26995130155E+03  0.10217517618E+03 -0.86585166193E+03  0.91554980042E+03  0.72241710600E+02 0.  0.
        254    2    1    2    0    0 -0.26995130155E+03 -0.10217517618E+03  0.13171088232E+03  0.95457823058E+03  0.90031015208E+03 0.  0.
         23    2    4    4    0    0  0.31068844377E+03 -0.73402345358E+02  0.15112769335E+03  0.36481670917E+03  0.91304097376E+02 0.  0.
         23    2    4    4    0    0 -0.58063974532E+03 -0.28772830818E+02 -0.19416811031E+02  0.58976152140E+03  0.97320346980E+02 0.  0.
          4    1    3    3  502    0  0.25109970799E+03  0.95188091884E+02 -0.84474388828E+03  0.88639949965E+03  0.00000000000E+00 0. -1.
         -3    1    3    3    0  502  0.18851593566E+02  0.69870842916E+01 -0.21107773650E+02  0.29150300776E+02  0.00000000000E+00 0.  1.
         13    1    5    5    0    0  0.55208263251E+02 -0.18836036705E+02  0.70312620619E+02  0.91359800943E+02  0.00000000000E+00 0. -1.
        -13    1    5    5    0    0  0.25548018052E+03 -0.54566308653E+02  0.80815072733E+02  0.27345690823E+03  0.00000000000E+00 0.  1.
          3    1    6    6  503    0 -0.46117339420E+03 -0.22321328080E+02 -0.54910913310E+02  0.46496704142E+03  0.00000000000E+00 0. -1.
         -3    1    6    6    0  503 -0.11946635112E+03 -0.64515027377E+01  0.35494102279E+02  0.12479447998E+03  0.00000000000E+00 0.  1.
<mgrwt>
<rscale>  0 0.17200047E+04</rscale>
<asrwt>0</asrwt>
<pdfrwt beam="1">  1        2 0.20032837E+00 0.17200047E+04</pdfrwt>
<pdfrwt beam="2">  1       -1 0.87383636E-01 0.17200047E+04</pdfrwt>
<totfact> 0.23013408E+01</totfact>
</mgrwt>
</event>
<event>
12    7  0.1730932E-007  0.2799846E+04  0.7818608E-02  0.8303316E-01
          2   -1    0    0  501    0  0.00000000000E+00  0.00000000000E+00  0.83712076507E+03  0.83712076507E+03  0.00000000000E+00 0. -1.
         -1   -1    0    0    0  501 -0.00000000000E+00 -0.00000000000E+00 -0.23411009888E+04  0.23411009888E+04  0.00000000000E+00 0.  1.
         24    2    1    2    0    0 -0.23554317348E+02 -0.10880423039E+04 -0.13859174147E+04  0.17639588912E+04  0.79956414967E+02 0.  0.
        254    2    1    2    0    0  0.23554317348E+02  0.10880423039E+04 -0.11806280900E+03  0.14142628627E+04  0.89543830442E+03 0.  0.
         23    2    4    4    0    0 -0.12523973599E+03  0.10928306546E+04 -0.31829722687E+03  0.11487784324E+04  0.91732932256E+02 0.  0.
         23    2    4    4    0    0  0.14879405333E+03 -0.47883507200E+01  0.20023441787E+03  0.26548443035E+03  0.90694884364E+02 0.  0.
          4    1    3    3  502    0  0.16856342191E+02 -0.56835307379E+03 -0.76711712536E+03  0.95487069113E+03  0.00000000000E+00 0. -1.
         -3    1    3    3    0  502 -0.40410659539E+02 -0.51968923012E+03 -0.61880028938E+03  0.80908820004E+03  0.00000000000E+00 0.  1.
         13    1    5    5    0    0 -0.76170559444E+02  0.88932932689E+03 -0.28383223317E+03  0.93662657574E+03  0.00000000000E+00 0. -1.
        -13    1    5    5    0    0 -0.49069176542E+02  0.20350132774E+03 -0.34464993697E+02  0.21215185662E+03  0.00000000000E+00 0.  1.
          3    1    6    6  503    0  0.12220446895E+03  0.30223068043E+02  0.17232998577E+03  0.21341272237E+03  0.00000000000E+00 0. -1.
         -3    1    6    6    0  503  0.26589584383E+02 -0.35011418763E+02  0.27904432099E+02  0.52071707983E+02  0.00000000000E+00 0.  1.
<mgrwt>
<rscale>  0 0.27998459E+04</rscale>
<asrwt>0</asrwt>
<pdfrwt beam="1">  1        2 0.12878781E+00 0.27998459E+04</pdfrwt>
<pdfrwt beam="2">  1       -1 0.36016937E+00 0.27998459E+04</pdfrwt>
<totfact> 0.42740612E-01</totfact>
</mgrwt>
</event>
<event>
12    7  0.1730932E-007  0.1867979E+04  0.7818608E-02  0.8670962E-01
          2   -1    0    0  501    0  0.00000000000E+00  0.00000000000E+00  0.34539918823E+04  0.34539918823E+04  0.00000000000E+00 0. -1.
         -1   -1    0    0    0  501 -0.00000000000E+00 -0.00000000000E+00 -0.25255879363E+03  0.25255879363E+03  0.00000000000E+00 0.  1.
         24    2    1    2    0    0 -0.21313871261E+03 -0.31083897705E+03  0.29916089578E+02  0.38630541883E+03  0.79296429515E+02 0.  0.
        254    2    1    2    0    0  0.21313871261E+03  0.31083897705E+03  0.31715169991E+04  0.33202452571E+04  0.90744669883E+03 0.  0.
         23    2    4    4    0    0  0.68729548222E+02 -0.91087545695E+02  0.31520815112E+02  0.15003725151E+03  0.92178757179E+02 0.  0.
         23    2    4    4    0    0  0.14440916439E+03  0.40192652274E+03  0.31399961840E+04  0.31702080056E+04  0.90795521934E+02 0.  0.
          2    1    3    3  502    0 -0.58753414130E+02 -0.13712486661E+03 -0.13826514624E+02  0.14982111073E+03  0.00000000000E+00 0. -1.
         -1    1    3    3    0  502 -0.15438529848E+03 -0.17371411044E+03  0.43742604202E+02  0.23648430810E+03  0.00000000000E+00 0.  1.
         13    1    5    5    0    0  0.55344641127E+02 -0.63637272529E+02 -0.23113265883E+02  0.87446868533E+02  0.00000000000E+00 0.  1.
        -13    1    5    5    0    0  0.13384907095E+02 -0.27450273166E+02  0.54634080994E+02  0.62590382975E+02  0.00000000000E+00 0. -1.
          2    1    6    6  503    0  0.12072807421E+03  0.28803085748E+03  0.19921261050E+04  0.20164581476E+04  0.00000000000E+00 0. -1.
         -2    1    6    6    0  503  0.23681090183E+02  0.11389566527E+03  0.11478700790E+04  0.11537498580E+04  0.00000000000E+00 0.  1.
<mgrwt>
<rscale>  0 0.18679786E+04</rscale>
<asrwt>0</asrwt>
<pdfrwt beam="1">  1        2 0.53138333E+00 0.18679786E+04</pdfrwt>
<pdfrwt beam="2">  1       -1 0.38855202E-01 0.18679786E+04</pdfrwt>
<totfact> 0.60500502E+00</totfact>
</mgrwt>
</event>
<event>
12    7  0.1730932E-007  0.1685350E+04  0.7818608E-02  0.8769764E-01
          2   -1    0    0  501    0  0.00000000000E+00  0.00000000000E+00  0.14827745328E+04  0.14827745328E+04  0.00000000000E+00 0. -1.
         -1   -1    0    0    0  501 -0.00000000000E+00 -0.00000000000E+00 -0.47890027143E+03  0.47890027143E+03  0.00000000000E+00 0.  1.
         24    2    1    2    0    0  0.34006970057E+03 -0.37559684553E+03  0.69833143005E+03  0.86645320035E+03  0.79711796982E+02 0.  0.
        254    2    1    2    0    0 -0.34006970057E+03  0.37559684553E+03  0.30554283127E+03  0.10952216038E+04  0.92164719290E+03 0.  0.
         23    2    4    4    0    0 -0.21660574001E+03 -0.86362664332E+02 -0.25242328693E+03  0.35507736460E+03  0.89363654059E+02 0.  0.
         23    2    4    4    0    0 -0.12346396056E+03  0.46195950986E+03  0.55796611821E+03  0.74014423925E+03  0.88528907860E+02 0.  0.
          4    1    3    3  502    0  0.22743650858E+03 -0.19446209468E+03  0.39134989916E+03  0.49264349715E+03  0.00000000000E+00 0. -1.
         -3    1    3    3    0  502  0.11263319198E+03 -0.18113475085E+03  0.30698153089E+03  0.37380970320E+03  0.00000000000E+00 0.  1.
         13    1    5    5    0    0 -0.99066769230E+02 -0.24028385376E+02 -0.51792941096E+02  0.11434201685E+03  0.00000000000E+00 0.  1.
        -13    1    5    5    0    0 -0.11753897078E+03 -0.62334278956E+02 -0.20063034584E+03  0.24073534775E+03  0.00000000000E+00 0. -1.
          1    1    6    6  503    0 -0.64466477767E+02  0.10293611655E+03  0.16082638312E+03  0.20153634003E+03  0.00000000000E+00 0. -1.
         -1    1    6    6    0  503 -0.58997482790E+02  0.35902339331E+03  0.39713973509E+03  0.53860789922E+03  0.00000000000E+00 0.  1.
<mgrwt>
<rscale>  0 0.16853500E+04</rscale>
<asrwt>0</asrwt>
<pdfrwt beam="1">  1        2 0.22811916E+00 0.16853500E+04</pdfrwt>
<pdfrwt beam="2">  1       -1 0.73676966E-01 0.16853500E+04</pdfrwt>
<totfact> 0.26151328E+01</totfact>
</mgrwt>
</event>
<event>
12    7  0.1730932E-007  0.1420543E+04  0.7818608E-02  0.8939081E-01
          2   -1    0    0  501    0  0.00000000000E+00  0.00000000000E+00  0.10415375970E+04  0.10415375970E+04  0.00000000000E+00 0. -1.
         -1   -1    0    0    0  501 -0.00000000000E+00 -0.00000000000E+00 -0.48436611506E+03  0.48436611506E+03  0.00000000000E+00 0.  1.
         24    2    1    2    0    0 -0.31889325998E+03  0.15787600887E+03 -0.94652230725E+02  0.37691726281E+03  0.80559498416E+02 0.  0.
        254    2    1    2    0    0  0.31889325998E+03 -0.15787600887E+03  0.65182371265E+03  0.11489864492E+04  0.87674281447E+03 0.  0.
         23    2    4    4    0    0 -0.14139632218E+03  0.19429952269E+03 -0.19416160550E+02  0.25751015359E+03  0.90494571481E+02 0.  0.
         23    2    4    4    0    0  0.46028958216E+03 -0.35217553156E+03  0.67123987320E+03  0.89147629565E+03  0.90955559695E+02 0.  0.
          4    1    3    3  502    0 -0.81212689734E+01  0.22022323184E+02  0.37328688736E+01  0.23767036798E+02  0.00000000000E+00 0. -1.
         -3    1    3    3    0  502 -0.31077199101E+03  0.13585368569E+03 -0.98385099598E+02  0.35315022601E+03  0.00000000000E+00 0.  1.
         13    1    5    5    0    0 -0.13434136431E+03  0.11535873385E+03 -0.63738607931E+01  0.17718878560E+03  0.00000000000E+00 0. -1.
        -13    1    5    5    0    0 -0.70549578703E+01  0.78940788837E+02 -0.13042299757E+02  0.80321367989E+02  0.00000000000E+00 0.  1.
          2    1    6    6  503    0  0.36785649632E+03 -0.29773752262E+03  0.59305007859E+03  0.75873212004E+03  0.00000000000E+00 0. -1.
         -2    1    6    6    0  503  0.92433085844E+02 -0.54438008941E+02  0.78189794616E+02  0.13274417561E+03  0.00000000000E+00 0.  1.
<mgrwt>
<rscale>  0 0.14205429E+04</rscale>
<asrwt>0</asrwt>
<pdfrwt beam="1">  1        2 0.16023655E+00 0.14205429E+04</pdfrwt>
<pdfrwt beam="2">  1       -1 0.74517864E-01 0.14205429E+04</pdfrwt>
<totfact> 0.47620420E+01</totfact>
</mgrwt>
</event>
<event>
12    7  0.1730932E-007  0.1197132E+04  0.7818608E-02  0.9115370E-01
          2   -1    0    0  501    0  0.00000000000E+00  0.00000000000E+00  0.26602530046E+03  0.26602530046E+03  0.00000000000E+00 0. -1.
         -1   -1    0    0    0  501 -0.00000000000E+00 -0.00000000000E+00 -0.13467943732E+04  0.13467943732E+04  0.00000000000E+00 0.  1.
         24    2    1    2    0    0  0.23081173086E+03 -0.52183351021E+02 -0.31109291086E+03  0.39785058172E+03  0.74223506766E+02 0.  0.
        254    2    1    2    0    0 -0.23081173086E+03  0.52183351021E+02 -0.76967616189E+03  0.12149690920E+04  0.90980841006E+03 0.  0.
         23    2    4    4    0    0 -0.56739043954E+03 -0.12410191557E+02 -0.38663694677E+03  0.69302605286E+03  0.93333046695E+02 0.  0.
         23    2    4    4    0    0  0.33657870867E+03  0.64593542578E+02 -0.38303921512E+03  0.52194303910E+03  0.90818185780E+02 0.  0.
          2    1    3    3  502    0  0.28693307130E+02  0.64947661694E+01 -0.11207686337E+02  0.31481742243E+02  0.00000000000E+00 0. -1.
         -1    1    3    3    0  502  0.20211842373E+03 -0.58678117190E+02 -0.29988522453E+03  0.36636883947E+03  0.00000000000E+00 0.  1.
         13    1    5    5    0    0 -0.19410855404E+03 -0.19942790179E+02 -0.18410337754E+03  0.26827206201E+03  0.00000000000E+00 0. -1.
        -13    1    5    5    0    0 -0.37328188550E+03  0.75325986214E+01 -0.20253356923E+03  0.42475399086E+03  0.00000000000E+00 0.  1.
          3    1    6    6  503    0  0.51062633323E+02  0.89968364575E+01 -0.11606398041E+03  0.12711877571E+03  0.00000000000E+00 0. -1.
         -3    1    6    6    0  503  0.28551607535E+03  0.55596706121E+02 -0.26697523471E+03  0.39482426339E+03  0.00000000000E+00 0.  1.
<mgrwt>
<rscale>  0 0.11971322E+04</rscale>
<asrwt>0</asrwt>
<pdfrwt beam="1">  1        2 0.40926968E-01 0.11971322E+04</pdfrwt>
<pdfrwt beam="2">  1       -1 0.20719914E+00 0.11971322E+04</pdfrwt>
<totfact> 0.19090025E+01</totfact>
</mgrwt>
</event>
<event>
12    7  0.1730932E-007  0.1318752E+04  0.7818608E-02  0.9014825E-01
          2   -1    0    0  501    0  0.00000000000E+00  0.00000000000E+00  0.28052478861E+04  0.28052478861E+04  0.00000000000E+00 0. -1.
         -1   -1    0    0    0  501 -0.00000000000E+00 -0.00000000000E+00 -0.15498700912E+03  0.15498700912E+03  0.00000000000E+00 0.  1.
         24    2    1    2    0    0  0.20267937951E+03 -0.21987395832E+03  0.32594886461E+03  0.44913036734E+03  0.77794190642E+02 0.  0.
        254    2    1    2    0    0 -0.20267937951E+03  0.21987395832E+03  0.23243120124E+04  0.25111045279E+04  0.90210649633E+03 0.  0.
         23    2    4    4    0    0  0.10008260796E+02 -0.25004255192E+03  0.23139189974E+03  0.35366946097E+03  0.94437457086E+02 0.  0.
         23    2    4    4    0    0 -0.21268764031E+03  0.46991651024E+03  0.20929201126E+04  0.21574350669E+04  0.90299010017E+02 0.  0.
          2    1    3    3  502    0  0.10395157267E+03 -0.92600134849E+02  0.20454670421E+03  0.24742689554E+03  0.00000000000E+00 0. -1.
         -1    1    3    3    0  502  0.98727806842E+02 -0.12727382347E+03  0.12140216040E+03  0.20170347179E+03  0.00000000000E+00 0.  1.
         13    1    5    5    0    0  0.12357328034E+02 -0.25746059916E+03  0.23058958437E+03  0.34584710508E+03  0.00000000000E+00 0. -1.
        -13    1    5    5    0    0 -0.23490672381E+01  0.74180472359E+01  0.80231537472E+00  0.78223558883E+01  0.00000000000E+00 0.  1.
          3    1    6    6  503    0 -0.18217323031E+03  0.43214353458E+03  0.19748339971E+04  0.20297547725E+04  0.00000000000E+00 0. -1.
         -3    1    6    6    0  503 -0.30514409994E+02  0.37772975659E+02  0.11808611554E+03  0.12768029445E+03  0.00000000000E+00 0.  1.
<mgrwt>
<rscale>  0 0.13187524E+04</rscale>
<asrwt>0</asrwt>
<pdfrwt beam="1">  1        2 0.43157656E+00 0.13187524E+04</pdfrwt>
<pdfrwt beam="2">  1       -1 0.23844157E-01 0.13187524E+04</pdfrwt>
<totfact> 0.39194642E+01</totfact>
</mgrwt>
</event>
<event>
12    7  0.1730932E-007  0.1374657E+04  0.7818608E-02  0.8972370E-01
          2   -1    0    0  501    0  0.00000000000E+00  0.00000000000E+00  0.10059228551E+04  0.10059228551E+04  0.00000000000E+00 0. -1.
         -1   -1    0    0    0  501 -0.00000000000E+00 -0.00000000000E+00 -0.46963862041E+03  0.46963862041E+03  0.00000000000E+00 0.  1.
         24    2    1    2    0    0  0.19780358418E+03 -0.26756222104E+03 -0.55648352288E+02  0.34688005016E+03  0.80704585062E+02 0.  0.
        254    2    1    2    0    0 -0.19780358418E+03  0.26756222104E+03  0.59193258698E+03  0.11286814253E+04  0.90156628837E+03 0.  0.
         23    2    4    4    0    0 -0.38135261421E+03 -0.19204444388E+03  0.39367755827E+03  0.58785404749E+03  0.90991628608E+02 0.  0.
         23    2    4    4    0    0  0.18354903003E+03  0.45960666492E+03  0.19825502871E+03  0.54082737784E+03  0.90888191489E+02 0.  0.
          2    1    3    3  502    0  0.37401291933E+02 -0.16075176736E+02 -0.23142893117E+02  0.46827998539E+02  0.00000000000E+00 0. -1.
         -1    1    3    3    0  502  0.16040229224E+03 -0.25148704430E+03 -0.32505459171E+02  0.30005205162E+03  0.00000000000E+00 0.  1.
         13    1    5    5    0    0 -0.24056523653E+03 -0.16605530894E+03  0.28341729774E+03  0.40715029573E+03  0.00000000000E+00 0. -1.
        -13    1    5    5    0    0 -0.14078737768E+03 -0.25989134943E+02  0.11026026053E+03  0.18070375176E+03  0.00000000000E+00 0.  1.
          3    1    6    6  503    0  0.18910226296E+03  0.40462903658E+03  0.16389481929E+03  0.47575816849E+03  0.00000000000E+00 0. -1.
         -3    1    6    6    0  503 -0.55532329291E+01  0.54977628343E+02  0.34360209415E+02  0.65069209349E+02  0.00000000000E+00 0.  1.
<mgrwt>
<rscale>  0 0.13746566E+04</rscale>
<asrwt>0</asrwt>
<pdfrwt beam="1">  1        2 0.15475736E+00 0.13746566E+04</pdfrwt>
<pdfrwt beam="2">  1       -1 0.72252096E-01 0.13746566E+04</pdfrwt>
<totfact> 0.53688727E+01</totfact>
</mgrwt>
</event>
<event>
12    7  0.1730932E-007  0.1793429E+04  0.7818608E-02  0.8709802E-01
          2   -1    0    0  501    0  0.00000000000E+00  0.00000000000E+00  0.11687320607E+04  0.11687320607E+04  0.00000000000E+00 0. -1.
         -1   -1    0    0    0  501 -0.00000000000E+00 -0.00000000000E+00 -0.68800765683E+03  0.68800765683E+03  0.00000000000E+00 0.  1.
         24    2    1    2    0    0 -0.18927722597E+03 -0.15666591139E+03  0.85164265721E+03  0.88985803036E+03  0.78625838941E+02 0.  0.
        254    2    1    2    0    0  0.18927722597E+03  0.15666591139E+03 -0.37091825339E+03  0.96688168713E+03  0.85843448798E+03 0.  0.
         23    2    4    4    0    0  0.32206468825E+02  0.40643382079E+03  0.75051490437E+02  0.42432251147E+03  0.90505028622E+02 0.  0.
         23    2    4    4    0    0  0.15707075715E+03 -0.24976790940E+03 -0.44596974382E+03  0.54255917566E+03  0.91794419073E+02 0.  0.
          2    1    3    3  502    0 -0.16958932705E+03 -0.16073309660E+03  0.72761170854E+03  0.76420839212E+03  0.00000000000E+00 0. -1.
         -1    1    3    3    0  502 -0.19687898925E+02  0.40671852142E+01  0.12403094867E+03  0.12564963823E+03  0.00000000000E+00 0.  1.
         13    1    5    5    0    0  0.44940772970E+02  0.15166265573E+03  0.58658827678E+02  0.16870711984E+03  0.00000000000E+00 0. -1.
        -13    1    5    5    0    0 -0.12734304145E+02  0.25477116506E+03  0.16392662759E+02  0.25561539163E+03  0.00000000000E+00 0.  1.
          4    1    6    6  503    0  0.56173694801E+02 -0.10596604114E+03 -0.26223054976E+03  0.28835593819E+03  0.00000000000E+00 0. -1.
         -4    1    6    6    0  503  0.10089706235E+03 -0.14380186827E+03 -0.18373919406E+03  0.25420323747E+03  0.00000000000E+00 0.  1.
<mgrwt>
<rscale>  0 0.17934287E+04</rscale>
<asrwt>0</asrwt>
<pdfrwt beam="1">  1        2 0.17980493E+00 0.17934287E+04</pdfrwt>
<pdfrwt beam="2">  1       -1 0.10584733E+00 0.17934287E+04</pdfrwt>
<totfact> 0.17802448E+01</totfact>
</mgrwt>
</event>
<event>
12    7  0.1730932E-007  0.1811339E+04  0.7818608E-02  0.8700293E-01
          2   -1    0    0  501    0  0.00000000000E+00  0.00000000000E+00  0.11149771896E+04  0.11149771896E+04  0.00000000000E+00 0. -1.
         -1   -1    0    0    0  501 -0.00000000000E+00 -0.00000000000E+00 -0.73565368099E+03  0.73565368099E+03  0.00000000000E+00 0.  1.
         24    2    1    2    0    0  0.59169174404E+03 -0.19391755494E+02  0.48974671633E+03  0.77263275471E+03  0.81451625893E+02 0.  0.
        254    2    1    2    0    0 -0.59169174404E+03  0.19391755494E+02 -0.11042320774E+03  0.10779981159E+04  0.89409814497E+03 0.  0.
         23    2    4    4    0    0 -0.50966904312E+03 -0.11638457295E+03 -0.44755478342E+03  0.69434443460E+03  0.92200907551E+02 0.  0.
         23    2    4    4    0    0 -0.82022700915E+02  0.13577632844E+03  0.33713157569E+03  0.38365368126E+03  0.91485042430E+02 0.  0.
          4    1    3    3  502    0  0.55184377387E+03 -0.31298500846E+02  0.43228066738E+03  0.70169631772E+03  0.00000000000E+00 0. -1.
         -3    1    3    3    0  502  0.39847970162E+02  0.11906745352E+02  0.57466048948E+02  0.70936436989E+02  0.00000000000E+00 0.  1.
         13    1    5    5    0    0 -0.10294203556E+02 -0.16782393307E+02 -0.66608557496E+01  0.20784281351E+02  0.00000000000E+00 0. -1.
        -13    1    5    5    0    0 -0.49937483957E+03 -0.99602179641E+02 -0.44089392767E+03  0.67356015324E+03  0.00000000000E+00 0.  1.
          3    1    6    6  503    0 -0.56939355682E+02  0.38589374372E+02  0.69337392477E+02  0.97667313035E+02  0.00000000000E+00 0. -1.
         -3    1    6    6    0  503 -0.25083345233E+02  0.97186954070E+02  0.26779418321E+03  0.28598636822E+03  0.00000000000E+00 0.  1.
<mgrwt>
<rscale>  0 0.18113388E+04</rscale>
<asrwt>0</asrwt>
<pdfrwt beam="1">  1        2 0.17153495E+00 0.18113388E+04</pdfrwt>
<pdfrwt beam="2">  1       -1 0.11317749E+00 0.18113388E+04</pdfrwt>
<totfact> 0.16365038E+01</totfact>
</mgrwt>
</event>
<event>
12    7  0.1730932E-007  0.2061939E+04  0.7818608E-02  0.8578197E-01
          2   -1    0    0  501    0  0.00000000000E+00  0.00000000000E+00  0.13820222187E+04  0.13820222187E+04  0.00000000000E+00 0. -1.
         -1   -1    0    0    0  501 -0.00000000000E+00 -0.00000000000E+00 -0.76908923531E+03  0.76908923531E+03  0.00000000000E+00 0.  1.
         24    2    1    2    0    0  0.68247302092E+03  0.30549106263E+03 -0.56594518074E+02  0.75486682218E+03  0.86756937096E+02 0.  0.
        254    2    1    2    0    0 -0.68247302092E+03 -0.30549106263E+03  0.66952750149E+03  0.13962446318E+04  0.97063782281E+03 0.  0.
         23    2    4    4    0    0 -0.35686142646E+03 -0.33924326490E+03  0.86963974482E+03  0.10033510157E+04  0.89464542614E+02 0.  0.
         23    2    4    4    0    0 -0.32561159446E+03  0.33752202276E+02 -0.20011224333E+03  0.39289361618E+03  0.84607104315E+02 0.  0.
          2    1    3    3  502    0  0.56131564072E+03  0.22059191364E+03 -0.25209824358E+02  0.60363198732E+03  0.00000000000E+00 0. -1.
         -1    1    3    3    0  502  0.12115738020E+03  0.84899148986E+02 -0.31384693716E+02  0.15123483486E+03  0.00000000000E+00 0.  1.
         13    1    5    5    0    0 -0.24206482801E+03 -0.27492099506E+03  0.68238272320E+03  0.77448248231E+03  0.00000000000E+00 0.  1.
        -13    1    5    5    0    0 -0.11479659844E+03 -0.64322269841E+02  0.18725702162E+03  0.22886853335E+03  0.00000000000E+00 0. -1.
          2    1    6    6  503    0 -0.10903446197E+03 -0.27878902668E+02 -0.75718512118E+02  0.13564306170E+03  0.00000000000E+00 0. -1.
         -2    1    6    6    0  503 -0.21657713249E+03  0.61631104944E+02 -0.12439373121E+03  0.25725055448E+03  0.00000000000E+00 0.  1.
<mgrwt>
<rscale>  0 0.20619393E+04</rscale>
<asrwt>0</asrwt>
<pdfrwt beam="1">  1        2 0.21261880E+00 0.20619393E+04</pdfrwt>
<pdfrwt beam="2">  1       -1 0.11832142E+00 0.20619393E+04</pdfrwt>
<totfact> 0.10004079E+01</totfact>
</mgrwt>
</event>
<event>
12    7  0.1730932E-007  0.3385484E+04  0.7818608E-02  0.8141478E-01
         -1   -1    0    0    0  501 -0.00000000000E+00  0.00000000000E+00  0.17439230564E+04  0.17439230564E+04  0.00000000000E+00 0.  1.
          2   -1    0    0  501    0  0.00000000000E+00 -0.00000000000E+00 -0.16430632830E+04  0.16430632830E+04  0.00000000000E+00 0. -1.
         24    2    1    2    0    0 -0.49603985988E+03 -0.24381907416E+03 -0.14257537659E+04  0.15300549113E+04  0.52829417159E+02 0.  0.
        254    2    1    2    0    0  0.49603985988E+03  0.24381907416E+03  0.15266135393E+04  0.18569314281E+04  0.90118929583E+03 0.  0.
         23    2    4    4    0    0  0.44092026237E+03  0.53564582642E+03  0.12867594439E+04  0.14647889626E+04  0.92356425551E+02 0.  0.
         23    2    4    4    0    0  0.55119597509E+02 -0.29182675227E+03  0.23985409533E+03  0.39214246548E+03  0.89692267336E+02 0.  0.
          2    1    3    3  502    0 -0.32987502293E+03 -0.13455644097E+03 -0.92955014572E+03  0.99548301842E+03  0.00000000000E+00 0. -1.
         -1    1    3    3    0  502 -0.16616483696E+03 -0.10926263319E+03 -0.49620362013E+03  0.53457189291E+03  0.00000000000E+00 0.  1.
         13    1    5    5    0    0  0.18206187676E+03  0.15347695790E+03  0.45425402415E+03  0.51288246415E+03  0.00000000000E+00 0. -1.
        -13    1    5    5    0    0  0.25885838561E+03  0.38216886852E+03  0.83250541978E+03  0.95190649848E+03  0.00000000000E+00 0.  1.
          4    1    6    6  503    0  0.78155505257E+00  0.16944221714E+01 -0.54578181863E+01  0.57679870102E+01  0.00000000000E+00 0. -1.
         -4    1    6    6    0  503  0.54338042457E+02 -0.29352117444E+03  0.24531191351E+03  0.38637447847E+03  0.00000000000E+00 0.  1.
<mgrwt>
<rscale>  0 0.33854843E+04</rscale>
<asrwt>0</asrwt>
<pdfrwt beam="1">  1        2 0.25277897E+00 0.33854843E+04</pdfrwt>
<pdfrwt beam="2">  1       -1 0.26829585E+00 0.33854843E+04</pdfrwt>
<totfact> 0.52789601E-01</totfact>
</mgrwt>
</event>
<event>
12    7  0.1730932E-007  0.1338740E+04  0.7818608E-02  0.8999396E-01
         -1   -1    0    0    0  501 -0.00000000000E+00  0.00000000000E+00  0.14327391043E+04  0.14327391043E+04  0.00000000000E+00 0.  1.
          2   -1    0    0  501    0  0.00000000000E+00 -0.00000000000E+00 -0.31272692133E+03  0.31272692133E+03  0.00000000000E+00 0. -1.
         24    2    1    2    0    0 -0.66752782214E+02 -0.16544300111E+03 -0.95081209837E+02  0.21703949671E+03  0.78983454710E+02 0.  0.
        254    2    1    2    0    0  0.66752782214E+02  0.16544300111E+03  0.12150933928E+04  0.15284265289E+04  0.90983975540E+03 0.  0.
         23    2    4    4    0    0  0.16107167583E+03  0.37719884805E+03  0.16823117501E+03  0.45217982875E+03  0.89116853399E+02 0.  0.
         23    2    4    4    0    0 -0.94318893612E+02 -0.21175584694E+03  0.10468622178E+04  0.10762467002E+04  0.93004645945E+02 0.  0.
          2    1    3    3  502    0 -0.33692296326E+02 -0.13408943864E+03 -0.10082341916E+03  0.17111548801E+03  0.00000000000E+00 0. -1.
         -1    1    3    3    0  502 -0.33060485889E+02 -0.31353562468E+02  0.57422093242E+01  0.45924008695E+02  0.00000000000E+00 0.  1.
         13    1    5    5    0    0 -0.85764913583E+01  0.30867723845E+02  0.25565351909E+02  0.40987312642E+02  0.00000000000E+00 0.  1.
        -13    1    5    5    0    0  0.16964816718E+03  0.34633112421E+03  0.14266582310E+03  0.41119251611E+03  0.00000000000E+00 0. -1.
          2    1    6    6  503    0 -0.57520067942E+02 -0.15814014032E+03  0.90050597826E+03  0.91609381566E+03  0.00000000000E+00 0. -1.
         -2    1    6    6    0  503 -0.36798825670E+02 -0.53615706617E+02  0.14635623953E+03  0.16015288450E+03  0.00000000000E+00 0.  1.
<mgrwt>
<rscale>  0 0.13387398E+04</rscale>
<asrwt>0</asrwt>
<pdfrwt beam="1">  1        2 0.48111835E-01 0.13387398E+04</pdfrwt>
<pdfrwt beam="2">  1       -1 0.22042140E+00 0.13387398E+04</pdfrwt>
<totfact> 0.12835276E+01</totfact>
</mgrwt>
</event>
<event>
12    7  0.1730932E-007  0.2408443E+04  0.7818608E-02  0.8436349E-01
         -1   -1    0    0    0  501 -0.00000000000E+00  0.00000000000E+00  0.10721205094E+04  0.10721205094E+04  0.00000000000E+00 0.  1.
          2   -1    0    0  501    0  0.00000000000E+00 -0.00000000000E+00 -0.13525991948E+04  0.13525991948E+04  0.00000000000E+00 0. -1.
         24    2    1    2    0    0 -0.15585207394E+03 -0.65518389844E+02 -0.11472015635E+04  0.11623068698E+04  0.79393349412E+02 0.  0.
        254    2    1    2    0    0  0.15585207394E+03  0.65518389844E+02  0.86672287807E+03  0.12624128344E+04  0.90216134303E+03 0.  0.
         23    2    4    4    0    0  0.11676382703E+03  0.16392903088E+03  0.10267541227E+04  0.10499486245E+04  0.87530378342E+02 0.  0.
         23    2    4    4    0    0  0.39088246904E+02 -0.98410641032E+02 -0.16003124465E+03  0.21246420993E+03  0.91205788858E+02 0.  0.
          4    1    3    3  502    0 -0.52783394337E+02  0.93433083235E+01 -0.48589401938E+03  0.48884187852E+03  0.00000000000E+00 0. -1.
         -3    1    3    3    0  502 -0.10306867960E+03 -0.74861698167E+02 -0.66130754407E+03  0.67346499123E+03  0.00000000000E+00 0.  1.
         13    1    5    5    0    0  0.10997639872E+03  0.17045865096E+03  0.10140087874E+04  0.10341009530E+04  0.00000000000E+00 0.  1.
        -13    1    5    5    0    0  0.67874283103E+01 -0.65296200830E+01  0.12745335281E+02  0.15847671530E+02  0.00000000000E+00 0. -1.
          1    1    6    6  503    0  0.59883581789E+02 -0.28522839159E+02 -0.67218700740E+02  0.94434895302E+02  0.00000000000E+00 0. -1.
         -1    1    6    6    0  503 -0.20795334885E+02 -0.69887801873E+02 -0.92812543915E+02  0.11802931463E+03  0.00000000000E+00 0.  1.
<mgrwt>
<rscale>  0 0.24084429E+04</rscale>
<asrwt>0</asrwt>
<pdfrwt beam="1">  1        2 0.20809218E+00 0.24084429E+04</pdfrwt>
<pdfrwt beam="2">  1       -1 0.16494162E+00 0.24084429E+04</pdfrwt>
<totfact> 0.42323966E+00</totfact>
</mgrwt>
</event>
<event>
12    7  0.1730932E-007  0.1331191E+04  0.7818608E-02  0.9005190E-01
          2   -1    0    0  501    0  0.00000000000E+00  0.00000000000E+00  0.31671726212E+04  0.31671726212E+04  0.00000000000E+00 0. -1.
         -1   -1    0    0    0  501 -0.00000000000E+00 -0.00000000000E+00 -0.13987778481E+03  0.13987778481E+03  0.00000000000E+00 0.  1.
         24    2    1    2    0    0  0.21776141427E+03  0.24409279977E+03  0.45586204193E+03  0.56669198898E+03  0.79550491230E+02 0.  0.
        254    2    1    2    0    0 -0.21776141427E+03 -0.24409279977E+03  0.25714327945E+04  0.27403584171E+04  0.88898611289E+03 0.  0.
         23    2    4    4    0    0 -0.62048111240E+02 -0.12690943661E+03  0.25115582830E+04  0.25171177164E+04  0.89446162640E+02 0.  0.
         23    2    4    4    0    0 -0.15571330303E+03 -0.11718336316E+03  0.59874511500E+02  0.22324070068E+03  0.90955373519E+02 0.  0.
          2    1    3    3  502    0  0.21226441034E+03  0.24789591635E+03  0.45501689122E+03  0.55995440577E+03  0.00000000000E+00 0. -1.
         -1    1    3    3    0  502  0.54970039276E+01 -0.38031165756E+01  0.84515071242E+00  0.67375832162E+01  0.00000000000E+00 0.  1.
         13    1    5    5    0    0 -0.79514566644E+02 -0.12441391293E+03  0.21019518195E+04  0.21071314244E+04  0.00000000000E+00 0. -1.
        -13    1    5    5    0    0  0.17466455404E+02 -0.24955236818E+01  0.40960646347E+03  0.40998629199E+03  0.00000000000E+00 0.  1.
          3    1    6    6  503    0 -0.15393442590E+03 -0.12714730836E+03  0.44051308188E+02  0.20445724065E+03  0.00000000000E+00 0. -1.
         -3    1    6    6    0  503 -0.17788771316E+01  0.99639452019E+01  0.15823203311E+02  0.18783460035E+02  0.00000000000E+00 0.  1.
<mgrwt>
<rscale>  0 0.13311906E+04</rscale>
<asrwt>0</asrwt>
<pdfrwt beam="1">  1        2 0.48725727E+00 0.13311906E+04</pdfrwt>
<pdfrwt beam="2">  1       -1 0.21519662E-01 0.13311906E+04</pdfrwt>
<totfact> 0.27805595E+01</totfact>
</mgrwt>
</event>
<event>
12    7  0.1730932E-007  0.1199050E+04  0.7818608E-02  0.9113689E-01
          4   -1    0    0  501    0  0.00000000000E+00  0.00000000000E+00  0.17472250931E+03  0.17472250931E+03  0.00000000000E+00 0. -1.
         -3   -1    0    0    0  501 -0.00000000000E+00 -0.00000000000E+00 -0.20571482772E+04  0.20571482772E+04  0.00000000000E+00 0.  1.
         24    2    1    2    0    0  0.21241958153E+02 -0.95381536003E+01 -0.87350983675E+03  0.87740971340E+03  0.79285390263E+02 0.  0.
        254    2    1    2    0    0 -0.21241958153E+02  0.95381536003E+01 -0.10089159311E+04  0.13544610731E+04  0.90338875646E+03 0.  0.
         23    2    4    4    0    0 -0.59784309919E+02 -0.42189458336E+03 -0.34538937321E+03  0.55670269139E+03  0.95157050695E+02 0.  0.
         23    2    4    4    0    0  0.38542351767E+02  0.43143273696E+03 -0.66352655789E+03  0.79775838169E+03  0.92364620560E+02 0.  0.
          4    1    3    3  502    0  0.10706386240E+02 -0.29751253072E+02 -0.13919011077E+03  0.14273629777E+03  0.00000000000E+00 0. -1.
         -3    1    3    3    0  502  0.10535571913E+02  0.20213099472E+02 -0.73431972598E+03  0.73467341563E+03  0.00000000000E+00 0.  1.
         13    1    5    5    0    0 -0.45108385830E+02 -0.20928574909E+03 -0.11562877092E+03  0.24332140043E+03  0.00000000000E+00 0.  1.
        -13    1    5    5    0    0 -0.14675924089E+02 -0.21260883426E+03 -0.22976060230E+03  0.31338129096E+03  0.00000000000E+00 0. -1.
          4    1    6    6  503    0 -0.11447351129E+02  0.27171850221E+02 -0.18276091409E+02  0.34689577822E+02  0.00000000000E+00 0. -1.
         -4    1    6    6    0  503  0.49989702896E+02  0.40426088674E+03 -0.64525046648E+03  0.76306880387E+03  0.00000000000E+00 0.  1.
<mgrwt>
<rscale>  0 0.11990498E+04</rscale>
<asrwt>0</asrwt>
<pdfrwt beam="1">  1        4 0.26880385E-01 0.11990498E+04</pdfrwt>
<pdfrwt beam="2">  1       -3 0.31648436E+00 0.11990498E+04</pdfrwt>
<totfact> 0.93396807E-01</totfact>
</mgrwt>
</event>
<event>
12    7  0.1730932E-007  0.1356983E+04  0.7818608E-02  0.8985559E-01
          2   -1    0    0  501    0  0.00000000000E+00  0.00000000000E+00  0.23979209039E+04  0.23979209039E+04  0.00000000000E+00 0. -1.
         -1   -1    0    0    0  501 -0.00000000000E+00 -0.00000000000E+00 -0.19197905320E+03  0.19197905320E+03  0.00000000000E+00 0.  1.
         24    2    1    2    0    0  0.27524712526E+03  0.24194194310E+03  0.75722393053E+03  0.84497072649E+03  0.79313074966E+02 0.  0.
        254    2    1    2    0    0 -0.27524712526E+03 -0.24194194310E+03  0.14487179201E+04  0.17449292306E+04  0.90094257520E+03 0.  0.
         23    2    4    4    0    0  0.23808882648E+03  0.12381131715E+03  0.20481536425E+03  0.34752189380E+03  0.82502131415E+02 0.  0.
         23    2    4    4    0    0 -0.51333595174E+03 -0.36575326026E+03  0.12439025559E+04  0.13974073368E+04  0.90357343877E+02 0.  0.
          2    1    3    3  502    0  0.18992099310E+03  0.19817806059E+03  0.61454893734E+03  0.67306383330E+03  0.00000000000E+00 0. -1.
         -1    1    3    3    0  502  0.85326132165E+02  0.43763882514E+02  0.14267499320E+03  0.17190689319E+03  0.00000000000E+00 0.  1.
         13    1    5    5    0    0  0.19337522200E+03  0.78157748656E+02  0.11772866866E+03  0.23950500952E+03  0.00000000000E+00 0.  1.
        -13    1    5    5    0    0  0.44713604482E+02  0.45653568496E+02  0.87086695588E+02  0.10801688429E+03  0.00000000000E+00 0. -1.
          3    1    6    6  503    0 -0.29642210845E+03 -0.22571893899E+03  0.63861441699E+03  0.73935341981E+03  0.00000000000E+00 0. -1.
         -3    1    6    6    0  503 -0.21691384329E+03 -0.14003432126E+03  0.60528813889E+03  0.65805391696E+03  0.00000000000E+00 0.  1.
<mgrwt>
<rscale>  0 0.13569828E+04</rscale>
<asrwt>0</asrwt>
<pdfrwt beam="1">  1        2 0.36891089E+00 0.13569828E+04</pdfrwt>
<pdfrwt beam="2">  1       -1 0.29535241E-01 0.13569828E+04</pdfrwt>
<totfact> 0.46638265E+01</totfact>
</mgrwt>
</event>
<event>
12    7  0.1730932E-007  0.1219434E+04  0.7818608E-02  0.9096014E-01
         -1   -1    0    0    0  501 -0.00000000000E+00  0.00000000000E+00  0.11209791803E+04  0.11209791803E+04  0.00000000000E+00 0.  1.
          2   -1    0    0  501    0  0.00000000000E+00 -0.00000000000E+00 -0.33163415890E+03  0.33163415890E+03  0.00000000000E+00 0. -1.
         24    2    1    2    0    0  0.21235186612E+03  0.15833395574E+03  0.27642881398E+03  0.39097267182E+03  0.79270324390E+02 0.  0.
        254    2    1    2    0    0 -0.21235186612E+03 -0.15833395574E+03  0.51291620741E+03  0.10616406674E+04  0.89097413779E+03 0.  0.
         23    2    4    4    0    0  0.29412669321E+02 -0.29738627804E+03  0.66196523208E+03  0.73195735993E+03  0.90884018405E+02 0.  0.
         23    2    4    4    0    0 -0.24176453544E+03  0.13905232230E+03 -0.14904902466E+03  0.32968330744E+03  0.93219271172E+02 0.  0.
          4    1    3    3  502    0  0.21646955567E+02 -0.64796076789E+00  0.51846942418E+02  0.56188219197E+02  0.00000000000E+00 0. -1.
         -3    1    3    3    0  502  0.19070491055E+03  0.15898191651E+03  0.22458187156E+03  0.33478445262E+03  0.00000000000E+00 0.  1.
         13    1    5    5    0    0 -0.39632462174E+01 -0.20678741991E+03  0.36298316234E+03  0.41777209157E+03  0.00000000000E+00 0.  1.
        -13    1    5    5    0    0  0.33375915538E+02 -0.90598858126E+02  0.29898206973E+03  0.31418526836E+03  0.00000000000E+00 0. -1.
          2    1    6    6  503    0 -0.55860281327E+02  0.17714962963E+02 -0.76012161969E+02  0.95979371272E+02  0.00000000000E+00 0. -1.
         -2    1    6    6    0  503 -0.18590425411E+03  0.12133735933E+03 -0.73036862696E+02  0.23370393617E+03  0.00000000000E+00 0.  1.
<mgrwt>
<rscale>  0 0.12194343E+04</rscale>
<asrwt>0</asrwt>
<pdfrwt beam="1">  1        2 0.51020640E-01 0.12194343E+04</pdfrwt>
<pdfrwt beam="2">  1       -1 0.17245833E+00 0.12194343E+04</pdfrwt>
<totfact> 0.26152957E+01</totfact>
</mgrwt>
</event>
<event>
12    7  0.1730932E-007  0.1926268E+04  0.7818608E-02  0.8641890E-01
          2   -1    0    0  501    0  0.00000000000E+00  0.00000000000E+00  0.18308117583E+04  0.18308117583E+04  0.00000000000E+00 0. -1.
         -1   -1    0    0    0  501 -0.00000000000E+00 -0.00000000000E+00 -0.50667555738E+03  0.50667555738E+03  0.00000000000E+00 0.  1.
         24    2    1    2    0    0  0.57117970487E+03 -0.39808438963E+03  0.87244656605E+03  0.11190263279E+04  0.79620822632E+02 0.  0.
        254    2    1    2    0    0 -0.57117970487E+03  0.39808438963E+03  0.45168963484E+03  0.12184609878E+04  0.89213576094E+03 0.  0.
         23    2    4    4    0    0 -0.48664599779E+03  0.12410460010E+03  0.67309894801E+03  0.84468289516E+03  0.90557830245E+02 0.  0.
         23    2    4    4    0    0 -0.84533707076E+02  0.27397978953E+03 -0.22140931317E+03  0.37377809261E+03  0.92071199885E+02 0.  0.
          4    1    3    3  502    0 -0.14109044559E+01 -0.84250357106E+00  0.10358886414E+02  0.10488421778E+02  0.00000000000E+00 0. -1.
         -1    1    3    3    0  502  0.57259060933E+03 -0.39724188606E+03  0.86208767964E+03  0.11085379061E+04  0.00000000000E+00 0.  1.
         13    1    5    5    0    0 -0.55594719275E+02 -0.61624060512E+01  0.44719817163E+02  0.71614314957E+02  0.00000000000E+00 0. -1.
        -13    1    5    5    0    0 -0.43105127852E+03  0.13026700615E+03  0.62837913085E+03  0.77306858020E+03  0.00000000000E+00 0.  1.
          4    1    6    6  503    0 -0.54345366513E+02  0.12643024868E+03 -0.52024273495E+02  0.14712087437E+03  0.00000000000E+00 0. -1.
         -4    1    6    6    0  503 -0.30188340563E+02  0.14754954085E+03 -0.16938503968E+03  0.22665721824E+03  0.00000000000E+00 0.  1.
<mgrwt>
<rscale>  0 0.19262685E+04</rscale>
<asrwt>0</asrwt>
<pdfrwt beam="1">  1        2 0.28166334E+00 0.19262685E+04</pdfrwt>
<pdfrwt beam="2">  1       -1 0.77950086E-01 0.19262685E+04</pdfrwt>
<totfact> 0.14553077E+01</totfact>
</mgrwt>
</event>
<event>
12    7  0.1730932E-007  0.1249094E+04  0.7818608E-02  0.9070937E-01
          2   -1    0    0  501    0  0.00000000000E+00  0.00000000000E+00  0.10166555890E+04  0.10166555890E+04  0.00000000000E+00 0. -1.
         -1   -1    0    0    0  501 -0.00000000000E+00 -0.00000000000E+00 -0.38366895529E+03  0.38366895529E+03  0.00000000000E+00 0.  1.
         24    2    1    2    0    0 -0.51430054012E+01  0.96300149985E+02  0.45446604016E+03  0.47207456396E+03  0.83754658940E+02 0.  0.
        254    2    1    2    0    0  0.51430054012E+01 -0.96300149985E+02  0.17852059353E+03  0.92824998031E+03  0.90580254704E+03 0.  0.
         23    2    4    4    0    0  0.42784167700E+03 -0.16766658153E+03  0.44927043802E+02  0.47061467692E+03  0.91099680161E+02 0.  0.
         23    2    4    4    0    0 -0.42269867160E+03  0.71366431545E+02  0.13359354973E+03  0.45763530339E+03  0.88405315738E+02 0.  0.
          4    1    3    3  502    0  0.18720110787E+01  0.94416320403E+02  0.45508954549E+03  0.46478429449E+03  0.00000000000E+00 0. -1.
         -3    1    3    3    0  502 -0.70150164800E+01  0.18838295819E+01 -0.62350533913E+00  0.72902694748E+01  0.00000000000E+00 0.  1.
         13    1    5    5    0    0  0.31281117113E+03 -0.14647060566E+03  0.66301752619E+02  0.35171066163E+03  0.00000000000E+00 0.  1.
        -13    1    5    5    0    0  0.11503050588E+03 -0.21195975874E+02 -0.21374708818E+02  0.11890401529E+03  0.00000000000E+00 0. -1.
          3    1    6    6  503    0 -0.37233373962E+03  0.41225128252E+02  0.13691708040E+03  0.39884610034E+03  0.00000000000E+00 0. -1.
         -3    1    6    6    0  503 -0.50364931986E+02  0.30141303293E+02 -0.33235306680E+01  0.58789203042E+02  0.00000000000E+00 0.  1.
<mgrwt>
<rscale>  0 0.12490944E+04</rscale>
<asrwt>0</asrwt>
<pdfrwt beam="1">  1        2 0.15640855E+00 0.12490944E+04</pdfrwt>
<pdfrwt beam="2">  1       -1 0.59025993E-01 0.12490944E+04</pdfrwt>
<totfact> 0.80216320E+01</totfact>
</mgrwt>
</event>
<event>
12    7  0.1730932E-007  0.2033273E+04  0.7818608E-02  0.8591220E-01
         -1   -1    0    0    0  501 -0.00000000000E+00  0.00000000000E+00  0.31944341715E+03  0.31944341715E+03  0.00000000000E+00 0.  1.
          2   -1    0    0  501    0  0.00000000000E+00 -0.00000000000E+00 -0.32354713824E+04  0.32354713824E+04  0.00000000000E+00 0. -1.
         24    2    1    2    0    0  0.29649721920E+03 -0.51568683314E+03 -0.19684425501E+03  0.63165453137E+03  0.79976717889E+02 0.  0.
        254    2    1    2    0    0 -0.29649721920E+03  0.51568683314E+03 -0.27191837103E+04  0.29232602682E+04  0.89311087474E+03 0.  0.
         23    2    4    4    0    0  0.11777188955E+03  0.59864250569E+03 -0.12921703394E+04  0.14319306893E+04  0.92077387122E+02 0.  0.
         23    2    4    4    0    0 -0.41426910875E+03 -0.82955672548E+02 -0.14270133708E+04  0.14913295789E+04  0.95896894237E+02 0.  0.
          2    1    3    3  502    0  0.21425713587E+01 -0.17962050359E+02 -0.19996962514E+02  0.26964872982E+02  0.00000000000E+00 0. -1.
         -1    1    3    3    0  502  0.29435464784E+03 -0.49772478278E+03 -0.17684729249E+03  0.60468965839E+03  0.00000000000E+00 0.  1.
         13    1    5    5    0    0  0.90987303805E+02  0.30947004639E+03 -0.59777652078E+03  0.67925486222E+03  0.00000000000E+00 0. -1.
        -13    1    5    5    0    0  0.26784585750E+02  0.28917245930E+03 -0.69439381866E+03  0.75267582706E+03  0.00000000000E+00 0.  1.
          4    1    6    6  503    0 -0.43058641086E+02  0.16070940562E+02 -0.21597343203E+03  0.22080952209E+03  0.00000000000E+00 0.  1.
         -4    1    6    6    0  503 -0.37121046766E+03 -0.99026613110E+02 -0.12110399388E+04  0.12705200568E+04  0.00000000000E+00 0. -1.
<mgrwt>
<rscale>  0 0.20332733E+04</rscale>
<asrwt>0</asrwt>
<pdfrwt beam="1">  1        2 0.49776485E+00 0.20332733E+04</pdfrwt>
<pdfrwt beam="2">  1       -1 0.49145139E-01 0.20332733E+04</pdfrwt>
<totfact> 0.53950928E+00</totfact>
</mgrwt>
</event>
<event>
12    7  0.1730932E-007  0.3823810E+04  0.7818608E-02  0.8041065E-01
          2   -1    0    0  501    0  0.00000000000E+00  0.00000000000E+00  0.30112172399E+04  0.30112172399E+04  0.00000000000E+00 0. -1.
         -1   -1    0    0    0  501 -0.00000000000E+00 -0.00000000000E+00 -0.12139210482E+04  0.12139210482E+04  0.00000000000E+00 0.  1.
         24    2    1    2    0    0 -0.42994904295E+03 -0.17489856995E+04  0.73372887492E+03  0.19464148144E+04  0.79783526202E+02 0.  0.
        254    2    1    2    0    0  0.42994904295E+03  0.17489856995E+04  0.10635673168E+04  0.22787234737E+04  0.90421130023E+03 0.  0.
         23    2    4    4    0    0  0.53874805712E+03  0.17750787612E+04  0.10631209881E+04  0.21400302362E+04  0.91373404273E+02 0.  0.
         23    2    4    4    0    0 -0.10879901416E+03 -0.26093061639E+02  0.44632872834E+00  0.13869323753E+03  0.81960609916E+02 0.  0.
          4    1    3    3  502    0 -0.36826848899E+03 -0.14539172235E+04  0.64061314138E+03  0.16309145195E+04  0.00000000000E+00 0. -1.
         -3    1    3    3    0  502 -0.61680553965E+02 -0.29506847598E+03  0.93115733540E+02  0.31550029491E+03  0.00000000000E+00 0.  1.
         13    1    5    5    0    0  0.31311969260E+03  0.11768908380E+04  0.70896033604E+03  0.14091631362E+04  0.00000000000E+00 0. -1.
        -13    1    5    5    0    0  0.22562836451E+03  0.59818792315E+03  0.35416065205E+03  0.73086709991E+03  0.00000000000E+00 0.  1.
          2    1    6    6  503    0 -0.46148054126E+02  0.25537582409E+02 -0.17460090059E+02  0.55557769572E+02  0.00000000000E+00 0.  1.
         -2    1    6    6    0  503 -0.62650960035E+02 -0.51630644048E+02  0.17906418788E+02  0.83135467954E+02  0.00000000000E+00 0. -1.
<mgrwt>
<rscale>  0 0.38238096E+04</rscale>
<asrwt>0</asrwt>
<pdfrwt beam="1">  1        2 0.46326419E+00 0.38238096E+04</pdfrwt>
<pdfrwt beam="2">  1       -1 0.18675709E+00 0.38238096E+04</pdfrwt>
<totfact> 0.28976402E-01</totfact>
</mgrwt>
</event>
<event>
12    7  0.1730932E-007  0.2405842E+04  0.7818608E-02  0.8437320E-01
         -1   -1    0    0    0  501 -0.00000000000E+00  0.00000000000E+00  0.12588179496E+04  0.12588179496E+04  0.00000000000E+00 0.  1.
          2   -1    0    0  501    0  0.00000000000E+00 -0.00000000000E+00 -0.11495057697E+04  0.11495057697E+04  0.00000000000E+00 0. -1.
         24    2    1    2    0    0 -0.53299556168E+03 -0.20319509791E+03 -0.81476038675E+03  0.99759049699E+03  0.77329136120E+02 0.  0.
        254    2    1    2    0    0  0.53299556168E+03  0.20319509791E+03  0.92407256660E+03  0.14107332223E+04  0.90049186534E+03 0.  0.
         23    2    4    4    0    0  0.35719208758E+03 -0.31083770919E+03  0.60631119215E+03  0.77481944524E+03  0.92334403743E+02 0.  0.
         23    2    4    4    0    0  0.17580347410E+03  0.51403280710E+03  0.31776137445E+03  0.63591377705E+03  0.90980505996E+02 0.  0.
          2    1    3    3  502    0 -0.64079718326E+02 -0.37252548156E+02 -0.69680559718E+02  0.10173172095E+03  0.00000000000E+00 0. -1.
         -1    1    3    3    0  502 -0.46891584335E+03 -0.16594254975E+03 -0.74507982703E+03  0.89585877604E+03  0.00000000000E+00 0.  1.
         13    1    5    5    0    0  0.16747486539E+03 -0.18095086756E+03  0.37407639840E+03  0.44802254279E+03  0.00000000000E+00 0. -1.
        -13    1    5    5    0    0  0.18971722219E+03 -0.12988684163E+03  0.23223479375E+03  0.32679690245E+03  0.00000000000E+00 0.  1.
          3    1    6    6  503    0  0.18147558136E+03  0.50372660695E+03  0.29759147525E+03  0.61256392917E+03  0.00000000000E+00 0. -1.
         -3    1    6    6    0  503 -0.56721072607E+01  0.10306200151E+02  0.20169899202E+02  0.23349847883E+02  0.00000000000E+00 0.  1.
<mgrwt>
<rscale>  0 0.24058416E+04</rscale>
<asrwt>0</asrwt>
<pdfrwt beam="1">  1        2 0.17684704E+00 0.24058416E+04</pdfrwt>
<pdfrwt beam="2">  1       -1 0.19366430E+00 0.24058416E+04</pdfrwt>
<totfact> 0.34668585E+00</totfact>
</mgrwt>
</event>
<event>
12    7  0.1730932E-007  0.1148322E+04  0.7818608E-02  0.9159333E-01
         -3   -1    0    0    0  501 -0.00000000000E+00  0.00000000000E+00  0.60593913900E+03  0.60593913900E+03  0.00000000000E+00 0.  1.
          4   -1    0    0  501    0  0.00000000000E+00 -0.00000000000E+00 -0.54404959019E+03  0.54404959019E+03  0.00000000000E+00 0. -1.
         24    2    1    2    0    0  0.12492134403E+03 -0.12723382482E+03  0.12541993776E+03  0.23240417286E+03  0.80546572863E+02 0.  0.
        254    2    1    2    0    0 -0.12492134403E+03  0.12723382482E+03 -0.63530388951E+02  0.91758455633E+03  0.89784827188E+03 0.  0.
         23    2    4    4    0    0  0.50925272430E+02  0.20051538757E+03 -0.43507673434E+03  0.49034275168E+03  0.91347935578E+02 0.  0.
         23    2    4    4    0    0 -0.17584661646E+03 -0.73281562753E+02  0.37154634539E+03  0.42724180465E+03  0.90535368254E+02 0.  0.
          4    1    3    3  502    0  0.67706684703E+02 -0.42708289418E+02  0.13940298403E+02  0.81255923219E+02  0.00000000000E+00 0. -1.
         -3    1    3    3    0  502  0.57214659329E+02 -0.84525535399E+02  0.11147963936E+03  0.15114824964E+03  0.00000000000E+00 0.  1.
         13    1    5    5    0    0  0.57981020197E+02  0.20433998501E+03 -0.43261764730E+03  0.48194881153E+03  0.00000000000E+00 0. -1.
        -13    1    5    5    0    0 -0.70557477679E+01 -0.38245974412E+01 -0.24590870381E+01  0.83939401482E+01  0.00000000000E+00 0.  1.
          4    1    6    6  503    0 -0.16055198628E+03 -0.92963268493E+02  0.33618426603E+03  0.38397782529E+03  0.00000000000E+00 0. -1.
         -4    1    6    6    0  503 -0.15294630180E+02  0.19681705740E+02  0.35362079358E+02  0.43263979356E+02  0.00000000000E+00 0.  1.
<mgrwt>
<rscale>  0 0.11483222E+04</rscale>
<asrwt>0</asrwt>
<pdfrwt beam="1">  1        4 0.83699937E-01 0.11483222E+04</pdfrwt>
<pdfrwt beam="2">  1       -3 0.93221406E-01 0.11483222E+04</pdfrwt>
<totfact> 0.29110421E+00</totfact>
</mgrwt>
</event>
<event>
12    7  0.1730932E-007  0.1832688E+04  0.7818608E-02  0.8689107E-01
          2   -1    0    0  501    0  0.00000000000E+00  0.00000000000E+00  0.29049455374E+04  0.29049455374E+04  0.00000000000E+00 0. -1.
         -1   -1    0    0    0  501 -0.00000000000E+00 -0.00000000000E+00 -0.28905420339E+03  0.28905420339E+03  0.00000000000E+00 0.  1.
         24    2    1    2    0    0  0.33611084609E+03  0.41167687883E+03  0.17546087063E+04  0.18350414684E+04  0.79228310377E+02 0.  0.
        254    2    1    2    0    0 -0.33611084609E+03 -0.41167687883E+03  0.86128262766E+03  0.13589582723E+04  0.90692417972E+03 0.  0.
         23    2    4    4    0    0 -0.43909532647E+03 -0.55708232741E+03  0.32265856686E+03  0.78453924101E+03  0.90817645188E+02 0.  0.
         23    2    4    4    0    0  0.10298448038E+03  0.14540544858E+03  0.53862406079E+03  0.57441903130E+03  0.89959974328E+02 0.  0.
          2    1    3    3  502    0  0.89538496835E+02  0.10313532285E+03  0.34221533741E+03  0.36846353198E+03  0.00000000000E+00 0. -1.
         -1    1    3    3    0  502  0.24657234925E+03  0.30854155598E+03  0.14123933689E+04  0.14665779365E+04  0.00000000000E+00 0.  1.
         13    1    5    5    0    0 -0.38891192689E+03 -0.46209260927E+03  0.30150210073E+03  0.67504487492E+03  0.00000000000E+00 0.  1.
        -13    1    5    5    0    0 -0.50183399584E+02 -0.94989718139E+02  0.21156466137E+02  0.10949436609E+03  0.00000000000E+00 0. -1.
          1    1    6    6  503    0  0.50988257632E+02  0.83501132651E+02  0.16229523337E+03  0.18950457605E+03  0.00000000000E+00 0. -1.
         -1    1    6    6    0  503  0.51996222752E+02  0.61904315930E+02  0.37632882742E+03  0.38491445525E+03  0.00000000000E+00 0.  1.
<mgrwt>
<rscale>  0 0.18326884E+04</rscale>
<asrwt>0</asrwt>
<pdfrwt beam="1">  1        2 0.44691468E+00 0.18326884E+04</pdfrwt>
<pdfrwt beam="2">  1       -1 0.44469879E-01 0.18326884E+04</pdfrwt>
<totfact> 0.10740056E+01</totfact>
</mgrwt>
</event>
<event>
12    7  0.1730932E-007  0.4715047E+04  0.7818608E-02  0.7874033E-01
         -1   -1    0    0    0  501 -0.00000000000E+00  0.00000000000E+00  0.12637395942E+04  0.12637395942E+04  0.00000000000E+00 0.  1.
          2   -1    0    0  501    0  0.00000000000E+00 -0.00000000000E+00 -0.43979919275E+04  0.43979919275E+04  0.00000000000E+00 0. -1.
         24    2    1    2    0    0  0.49599295262E+03 -0.18953576695E+04 -0.13107036068E+03  0.19652150965E+04  0.80630215157E+02 0.  0.
        254    2    1    2    0    0 -0.49599295262E+03  0.18953576695E+04 -0.30031819727E+04  0.36965164252E+04  0.89818818544E+03 0.  0.
         23    2    4    4    0    0 -0.36839121510E+03  0.16002022162E+03 -0.52666791855E+03  0.66853211714E+03  0.90760875589E+02 0.  0.
         23    2    4    4    0    0 -0.12760173752E+03  0.17353374479E+04 -0.24765140541E+04  0.30279843080E+04  0.88819188043E+02 0.  0.
          4    1    3    3  502    0  0.43826792541E+03 -0.17509558927E+04 -0.11054743629E+03  0.18083545140E+04  0.00000000000E+00 0. -1.
         -3    1    3    3    0  502  0.57725027215E+02 -0.14440177672E+03 -0.20522924394E+02  0.15686058241E+03  0.00000000000E+00 0.  1.
         13    1    5    5    0    0  0.33038267503E+01  0.47424779089E+01 -0.22336358206E+02  0.23072045116E+02  0.00000000000E+00 0. -1.
        -13    1    5    5    0    0 -0.37169504185E+03  0.15527774371E+03 -0.50433156034E+03  0.64546007203E+03  0.00000000000E+00 0.  1.
          1    1    6    6  503    0 -0.67863082815E+01  0.51729000979E+03 -0.69109233993E+03  0.86327494491E+03  0.00000000000E+00 0. -1.
         -1    1    6    6    0  503 -0.12081542924E+03  0.12180474381E+04 -0.17854217142E+04  0.21647093631E+04  0.00000000000E+00 0.  1.
<mgrwt>
<rscale>  0 0.47150468E+04</rscale>
<asrwt>0</asrwt>
<pdfrwt beam="1">  1        2 0.67661416E+00 0.47150468E+04</pdfrwt>
<pdfrwt beam="2">  1       -1 0.19442147E+00 0.47150468E+04</pdfrwt>
<totfact> 0.21246384E-02</totfact>
</mgrwt>
</event>
<event>
12    7  0.1730932E-007  0.2306444E+04  0.7818608E-02  0.8475385E-01
          2   -1    0    0  501    0  0.00000000000E+00  0.00000000000E+00  0.12647891655E+04  0.12647891655E+04  0.00000000000E+00 0. -1.
         -1   -1    0    0    0  501 -0.00000000000E+00 -0.00000000000E+00 -0.10514962422E+04  0.10514962422E+04  0.00000000000E+00 0.  1.
         24    2    1    2    0    0 -0.38500417964E+03 -0.81549561314E+03  0.45775662588E+03  0.10145531096E+04  0.80719082984E+02 0.  0.
        254    2    1    2    0    0  0.38500417964E+03  0.81549561314E+03 -0.24446370255E+03  0.13017322980E+04  0.90635708218E+03 0.  0.
         23    2    4    4    0    0  0.33930217407E+03  0.96710699503E+03 -0.35559008212E+03  0.10890396411E+04  0.95609247238E+02 0.  0.
         23    2    4    4    0    0  0.45702005570E+02 -0.15161138189E+03  0.11112637957E+03  0.21269265693E+03  0.88399149568E+02 0.  0.
          2    1    3    3  502    0 -0.22696705387E+03 -0.47052256674E+03  0.30926151549E+03  0.60708171964E+03  0.00000000000E+00 0. -1.
         -1    1    3    3    0  502 -0.15803712577E+03 -0.34497304640E+03  0.14849511039E+03  0.40747139001E+03  0.00000000000E+00 0.  1.
         13    1    5    5    0    0  0.11515794893E+03  0.30952594613E+03 -0.16195058120E+03  0.36782557725E+03  0.00000000000E+00 0.  1.
        -13    1    5    5    0    0  0.22414422514E+03  0.65758104890E+03 -0.19363950093E+03  0.72121406382E+03  0.00000000000E+00 0. -1.
          4    1    6    6  503    0  0.49844674602E+02 -0.97950375593E+02  0.27579876764E+02  0.11331115244E+03  0.00000000000E+00 0. -1.
         -4    1    6    6    0  503 -0.41426690319E+01 -0.53661006299E+02  0.83546502811E+02  0.99381504495E+02  0.00000000000E+00 0.  1.
<mgrwt>
<rscale>  0 0.23064441E+04</rscale>
<asrwt>0</asrwt>
<pdfrwt beam="1">  1        2 0.19458295E+00 0.23064441E+04</pdfrwt>
<pdfrwt beam="2">  1       -1 0.16176865E+00 0.23064441E+04</pdfrwt>
<totfact> 0.50737713E+00</totfact>
</mgrwt>
</event>
<event>
12    7  0.1730932E-007  0.1787218E+04  0.7818608E-02  0.8713126E-01
          2   -1    0    0  501    0  0.00000000000E+00  0.00000000000E+00  0.12608898722E+04  0.12608898722E+04  0.00000000000E+00 0. -1.
         -1   -1    0    0    0  501 -0.00000000000E+00 -0.00000000000E+00 -0.63331225917E+03  0.63331225917E+03  0.00000000000E+00 0.  1.
         24    2    1    2    0    0  0.52145787032E+03  0.12313799538E+03 -0.17943955463E+03  0.57088068367E+03  0.81393640964E+02 0.  0.
        254    2    1    2    0    0 -0.52145787032E+03 -0.12313799538E+03  0.80701716765E+03  0.13233214477E+04  0.90156623086E+03 0.  0.
         23    2    4    4    0    0 -0.47961377151E+03 -0.12894014413E+03  0.99153661154E+03  0.11127509645E+04  0.91732907960E+02 0.  0.
         23    2    4    4    0    0 -0.41844098815E+02  0.58021487501E+01 -0.18451944389E+03  0.21057048318E+03  0.92238330856E+02 0.  0.
          4    1    3    3  502    0  0.27566370480E+03  0.90005911272E+02 -0.13088826142E+03  0.31815606105E+03  0.00000000000E+00 0. -1.
         -3    1    3    3    0  502  0.24579416553E+03  0.33132084111E+02 -0.48551293214E+02  0.25272462262E+03  0.00000000000E+00 0.  1.
         13    1    5    5    0    0 -0.29132415188E+03 -0.11981833283E+03  0.57763604275E+03  0.65794345671E+03  0.00000000000E+00 0. -1.
        -13    1    5    5    0    0 -0.18828961963E+03 -0.91218113052E+01  0.41390056880E+03  0.45480750780E+03  0.00000000000E+00 0.  1.
          3    1    6    6  503    0 -0.34088812964E+02 -0.15401370938E+02 -0.18423220942E+03  0.18799137316E+03  0.00000000000E+00 0. -1.
         -3    1    6    6    0  503 -0.77552858514E+01  0.21203519688E+02 -0.28723447214E+00  0.22579110023E+02  0.00000000000E+00 0.  1.
<mgrwt>
<rscale>  0 0.17872180E+04</rscale>
<asrwt>0</asrwt>
<pdfrwt beam="1">  1        2 0.19398306E+00 0.17872180E+04</pdfrwt>
<pdfrwt beam="2">  1       -1 0.97432655E-01 0.17872180E+04</pdfrwt>
<totfact> 0.18991352E+01</totfact>
</mgrwt>
</event>
<event>
12    7  0.1730932E-007  0.1408956E+04  0.7818608E-02  0.8947361E-01
         -1   -1    0    0    0  501 -0.00000000000E+00  0.00000000000E+00  0.46078225938E+03  0.46078225938E+03  0.00000000000E+00 0.  1.
          2   -1    0    0  501    0  0.00000000000E+00 -0.00000000000E+00 -0.10770583409E+04  0.10770583409E+04  0.00000000000E+00 0. -1.
         24    2    1    2    0    0 -0.32308929690E+03 -0.19381617721E+03 -0.64990788272E+02  0.39055938177E+03  0.79758534416E+02 0.  0.
        254    2    1    2    0    0  0.32308929690E+03  0.19381617721E+03 -0.55128529326E+03  0.11472812185E+04  0.93294550510E+03 0.  0.
         23    2    4    4    0    0  0.59620112183E+03  0.33190700155E+03 -0.37565578281E+03  0.78415237039E+03  0.90330711741E+02 0.  0.
         23    2    4    4    0    0 -0.27311182493E+03 -0.13809082434E+03 -0.17562951044E+03  0.36312884813E+03  0.85776982466E+02 0.  0.
          2    1    3    3  502    0 -0.76610806612E+02 -0.22257166448E+02 -0.39917768875E+02  0.89207765469E+02  0.00000000000E+00 0. -1.
         -1    1    3    3    0  502 -0.24647849029E+03 -0.17155901076E+03 -0.25073019397E+02  0.30135161630E+03  0.00000000000E+00 0.  1.
         13    1    5    5    0    0  0.28654719344E+03  0.14546489362E+03 -0.12755033354E+03  0.34574328183E+03  0.00000000000E+00 0. -1.
        -13    1    5    5    0    0  0.30965392839E+03  0.18644210792E+03 -0.24810544927E+03  0.43840908856E+03  0.00000000000E+00 0.  1.
          1    1    6    6  503    0 -0.15439535429E+02 -0.23061934999E+01 -0.37812894733E+02  0.40908590672E+02  0.00000000000E+00 0. -1.
         -1    1    6    6    0  503 -0.25767228950E+03 -0.13578463084E+03 -0.13781661571E+03  0.32222025746E+03  0.00000000000E+00 0.  1.
<mgrwt>
<rscale>  0 0.14089562E+04</rscale>
<asrwt>0</asrwt>
<pdfrwt beam="1">  1        2 0.16570128E+00 0.14089562E+04</pdfrwt>
<pdfrwt beam="2">  1       -1 0.70889579E-01 0.14089562E+04</pdfrwt>
<totfact> 0.50214985E+01</totfact>
</mgrwt>
</event>
<event>
12    7  0.1730932E-007  0.1045910E+04  0.7818608E-02  0.9259577E-01
         -1   -1    0    0    0  501 -0.00000000000E+00  0.00000000000E+00  0.10044621771E+04  0.10044621771E+04  0.00000000000E+00 0.  1.
          2   -1    0    0  501    0  0.00000000000E+00 -0.00000000000E+00 -0.27226707156E+03  0.27226707156E+03  0.00000000000E+00 0. -1.
         24    2    1    2    0    0 -0.94163947383E+02  0.18904318730E+02  0.17188080298E+03  0.21263396114E+03  0.80286790582E+02 0.  0.
        254    2    1    2    0    0  0.94163947383E+02 -0.18904318730E+02  0.56031430258E+03  0.10640952876E+04  0.89951233514E+03 0.  0.
         23    2    4    4    0    0 -0.37999124342E+01 -0.33468886319E+02 -0.23682178683E+03  0.25572153000E+03  0.90412037378E+02 0.  0.
         23    2    4    4    0    0  0.97963859817E+02  0.14564567589E+02  0.79713608941E+03  0.80837375755E+03  0.90736665165E+02 0.  0.
          4    1    3    3  502    0  0.12938509209E+01  0.69259568572E+01  0.77644161812E+02  0.77963188699E+02  0.00000000000E+00 0. -1.
         -3    1    3    3    0  502 -0.95457798304E+02  0.11978361873E+02  0.94236641167E+02  0.13467077244E+03  0.00000000000E+00 0.  1.
         13    1    5    5    0    0  0.41191045731E+00 -0.14791706516E+02 -0.23609842317E+03  0.23656168260E+03  0.00000000000E+00 0. -1.
        -13    1    5    5    0    0 -0.42118228915E+01 -0.18677179803E+02 -0.72336366168E+00  0.19159847401E+02  0.00000000000E+00 0.  1.
          3    1    6    6  503    0  0.48828557599E+02  0.49889125793E+02  0.32767740495E+03  0.33503079653E+03  0.00000000000E+00 0. -1.
         -3    1    6    6    0  503  0.49135302218E+02 -0.35324558204E+02  0.46945868446E+03  0.47334296102E+03  0.00000000000E+00 0.  1.
<mgrwt>
<rscale>  0 0.10459101E+04</rscale>
<asrwt>0</asrwt>
<pdfrwt beam="1">  1        2 0.41887242E-01 0.10459101E+04</pdfrwt>
<pdfrwt beam="2">  1       -1 0.15453264E+00 0.10459101E+04</pdfrwt>
<totfact> 0.44961271E+01</totfact>
</mgrwt>
</event>
<event>
12    7  0.1730932E-007  0.1560897E+04  0.7818608E-02  0.8844937E-01
         -1   -1    0    0    0  501 -0.00000000000E+00  0.00000000000E+00  0.27159892101E+03  0.27159892101E+03  0.00000000000E+00 0.  1.
          2   -1    0    0  501    0  0.00000000000E+00 -0.00000000000E+00 -0.22426452291E+04  0.22426452291E+04  0.00000000000E+00 0. -1.
         24    2    1    2    0    0  0.28865331684E+03 -0.40763364165E+03 -0.86859645415E+03  0.10047122042E+04  0.74167984410E+02 0.  0.
        254    2    1    2    0    0 -0.28865331684E+03  0.40763364165E+03 -0.11024498540E+04  0.15095319460E+04  0.90211146334E+03 0.  0.
         23    2    4    4    0    0  0.86833040404E+02  0.41569964827E+03 -0.11561175392E+03  0.44976589374E+03  0.92612672163E+02 0.  0.
         23    2    4    4    0    0 -0.37548635725E+03 -0.80660066201E+01 -0.98683810006E+03  0.10597660523E+04  0.90551558996E+02 0.  0.
          2    1    3    3  502    0  0.26909008948E+03 -0.38526979595E+03 -0.77334133240E+03  0.90493044392E+03  0.00000000000E+00 0. -1.
         -1    1    3    3    0  502  0.19563227360E+02 -0.22363845705E+02 -0.95255121751E+02  0.99781760254E+02  0.00000000000E+00 0.  1.
         13    1    5    5    0    0  0.76716716643E+01  0.19330111993E+03 -0.86497454305E+02  0.21191032800E+03  0.00000000000E+00 0.  1.
        -13    1    5    5    0    0  0.79161368740E+02  0.22239852834E+03 -0.29114299616E+02  0.23785556574E+03  0.00000000000E+00 0. -1.
          3    1    6    6  503    0 -0.36714985286E+03 -0.24195391277E+02 -0.93209530972E+03  0.10020908631E+04  0.00000000000E+00 0. -1.
         -3    1    6    6    0  503 -0.83365043823E+01  0.16129384657E+02 -0.54742790342E+02  0.57675189199E+02  0.00000000000E+00 0.  1.
<mgrwt>
<rscale>  0 0.15608972E+04</rscale>
<asrwt>0</asrwt>
<pdfrwt beam="1">  1        2 0.34502235E+00 0.15608972E+04</pdfrwt>
<pdfrwt beam="2">  1       -1 0.41784449E-01 0.15608972E+04</pdfrwt>
<totfact> 0.30112977E+01</totfact>
</mgrwt>
</event>
<event>
12    7  0.1730932E-007  0.1424115E+04  0.7818608E-02  0.8936546E-01
          2   -1    0    0  501    0  0.00000000000E+00  0.00000000000E+00  0.23455422644E+04  0.23455422644E+04  0.00000000000E+00 0. -1.
         -1   -1    0    0    0  501 -0.00000000000E+00 -0.00000000000E+00 -0.21616559068E+03  0.21616559068E+03  0.00000000000E+00 0.  1.
         24    2    1    2    0    0 -0.15287778291E+03  0.27797681645E+03  0.11069439455E+04  0.11543943603E+04  0.81600941159E+02 0.  0.
        254    2    1    2    0    0  0.15287778291E+03 -0.27797681645E+03  0.10224327282E+04  0.14073134948E+04  0.91352058648E+03 0.  0.
         23    2    4    4    0    0  0.20555080918E+03  0.29965245194E+03  0.46077068563E+03  0.59449412245E+03  0.95241323913E+02 0.  0.
         23    2    4    4    0    0 -0.52673026268E+02 -0.57762926839E+03  0.56166204261E+03  0.81281937237E+03  0.93707324101E+02 0.  0.
          4    1    3    3  502    0 -0.80165159977E+02  0.22123675500E+03  0.80163514103E+03  0.83545858902E+03  0.00000000000E+00 0. -1.
         -3    1    3    3    0  502 -0.72712622937E+02  0.56740061459E+02  0.30530880448E+03  0.31893577128E+03  0.00000000000E+00 0.  1.
         13    1    5    5    0    0  0.21216748856E+03  0.26176137544E+03  0.41975615051E+03  0.53826507110E+03  0.00000000000E+00 0. -1.
        -13    1    5    5    0    0 -0.66166793833E+01  0.37891076498E+02  0.41014535123E+02  0.56229051348E+02  0.00000000000E+00 0.  1.
          2    1    6    6  503    0 -0.28247653461E+02 -0.38144783761E+02  0.48131427041E+02  0.67598733148E+02  0.00000000000E+00 0.  1.
         -2    1    6    6    0  503 -0.24425372807E+02 -0.53948448463E+03  0.51353061557E+03  0.74522063922E+03  0.00000000000E+00 0. -1.
<mgrwt>
<rscale>  0 0.14241145E+04</rscale>
<asrwt>0</asrwt>
<pdfrwt beam="1">  1        2 0.36085264E+00 0.14241145E+04</pdfrwt>
<pdfrwt beam="2">  1       -1 0.33256246E-01 0.14241145E+04</pdfrwt>
<totfact> 0.40279142E+01</totfact>
</mgrwt>
</event>
<event>
12    7  0.1730932E-007  0.2694435E+04  0.7818608E-02  0.8336813E-01
          2   -1    0    0  501    0  0.00000000000E+00  0.00000000000E+00  0.21530636640E+04  0.21530636640E+04  0.00000000000E+00 0. -1.
         -1   -1    0    0    0  501 -0.00000000000E+00 -0.00000000000E+00 -0.84298240958E+03  0.84298240958E+03  0.00000000000E+00 0.  1.
         24    2    1    2    0    0 -0.16319450764E+03 -0.11756661755E+04  0.46847001600E+03  0.12789044674E+04  0.85493142159E+02 0.  0.
        254    2    1    2    0    0  0.16319450764E+03  0.11756661755E+04  0.84161123839E+03  0.17171416061E+04  0.91183464254E+03 0.  0.
         23    2    4    4    0    0 -0.29458985338E+03  0.17147244605E+03  0.50034694378E+02  0.35614832588E+03  0.90289411982E+02 0.  0.
         23    2    4    4    0    0  0.45778436102E+03  0.10041937295E+04  0.79157654401E+03  0.13609932802E+04  0.87964290197E+02 0.  0.
          4    1    3    3  502    0 -0.21307762980E+02 -0.28550937986E+03  0.14753839926E+03  0.32208260742E+03  0.00000000000E+00 0. -1.
         -3    1    3    3    0  502 -0.14188674466E+03 -0.89015679565E+03  0.32093161674E+03  0.95682186000E+03  0.00000000000E+00 0.  1.
         13    1    5    5    0    0 -0.74815204284E+02  0.78300930860E+02  0.45307066288E+02  0.11739284825E+03  0.00000000000E+00 0. -1.
        -13    1    5    5    0    0 -0.21977464910E+03  0.93171515186E+02  0.47276280893E+01  0.23875547763E+03  0.00000000000E+00 0.  1.
          3    1    6    6  503    0  0.72343865523E+02  0.10964448660E+03  0.70527202224E+02  0.14909605821E+03  0.00000000000E+00 0. -1.
         -3    1    6    6    0  503  0.38544049550E+03  0.89454924286E+03  0.72104934179E+03  0.12118972220E+04  0.00000000000E+00 0.  1.
<mgrwt>
<rscale>  0 0.26944349E+04</rscale>
<asrwt>0</asrwt>
<pdfrwt beam="1">  1        2 0.33124056E+00 0.26944349E+04</pdfrwt>
<pdfrwt beam="2">  1       -1 0.12968960E+00 0.26944349E+04</pdfrwt>
<totfact> 0.27946689E+00</totfact>
</mgrwt>
</event>
<event>
12    7  0.1730932E-007  0.1642291E+04  0.7818608E-02  0.8794980E-01
          2   -1    0    0  501    0  0.00000000000E+00  0.00000000000E+00  0.15203634205E+04  0.15203634205E+04  0.00000000000E+00 0. -1.
         -1   -1    0    0    0  501 -0.00000000000E+00 -0.00000000000E+00 -0.44349893781E+03  0.44349893781E+03  0.00000000000E+00 0.  1.
         24    2    1    2    0    0  0.29047066537E+03  0.16929707008E+03  0.92628285641E+03  0.98862517564E+03  0.79656151468E+02 0.  0.
        254    2    1    2    0    0 -0.29047066537E+03 -0.16929707008E+03  0.15058162624E+03  0.97523718262E+03  0.90298285190E+03 0.  0.
         23    2    4    4    0    0 -0.44648220777E+03  0.22464846205E+03 -0.15863101011E+02  0.51021880426E+03  0.10128325079E+03 0.  0.
         23    2    4    4    0    0  0.15601154240E+03 -0.39394553213E+03  0.16644472725E+03  0.46501837836E+03  0.94897636083E+02 0.  0.
          4    1    3    3  502    0  0.29022765403E+03  0.17360009601E+03  0.92355202554E+03  0.98352296790E+03  0.00000000000E+00 0. -1.
         -3    1    3    3    0  502  0.24301133975E+00 -0.43030259321E+01  0.27308308657E+01  0.51022077477E+01  0.00000000000E+00 0.  1.
         13    1    5    5    0    0 -0.63136748333E+02  0.81347125375E+01 -0.28561185092E+02  0.69772228229E+02  0.00000000000E+00 0. -1.
        -13    1    5    5    0    0 -0.38334545944E+03  0.21651374951E+03  0.12698084081E+02  0.44044657603E+03  0.00000000000E+00 0.  1.
          2    1    6    6  503    0  0.15975773351E+03 -0.37152474622E+03  0.17509800280E+03  0.44069545159E+03  0.00000000000E+00 0.  1.
         -2    1    6    6    0  503 -0.37461911088E+01 -0.22420785909E+02 -0.86532755514E+01  0.24322926764E+02  0.00000000000E+00 0. -1.
<mgrwt>
<rscale>  0 0.16422905E+04</rscale>
<asrwt>0</asrwt>
<pdfrwt beam="1">  1        2 0.23390206E+00 0.16422905E+04</pdfrwt>
<pdfrwt beam="2">  1       -1 0.68230606E-01 0.16422905E+04</pdfrwt>
<totfact> 0.29276254E+01</totfact>
</mgrwt>
</event>
<event>
12    7  0.1730932E-007  0.1109458E+04  0.7818608E-02  0.9196022E-01
          2   -1    0    0  501    0  0.00000000000E+00  0.00000000000E+00  0.21305264478E+03  0.21305264478E+03  0.00000000000E+00 0. -1.
         -1   -1    0    0    0  501 -0.00000000000E+00 -0.00000000000E+00 -0.14443572698E+04  0.14443572698E+04  0.00000000000E+00 0.  1.
         24    2    1    2    0    0  0.15013085317E+03 -0.26197544558E+02 -0.74807669367E+02  0.18716299389E+03  0.78792223425E+02 0.  0.
        254    2    1    2    0    0 -0.15013085317E+03  0.26197544558E+02 -0.11564969557E+04  0.14702469207E+04  0.89493866546E+03 0.  0.
         23    2    4    4    0    0 -0.49299156536E+03  0.15512805367E+03 -0.59082687871E+03  0.79009194222E+03  0.89796881910E+02 0.  0.
         23    2    4    4    0    0  0.34286071220E+03 -0.12893050911E+03 -0.56567007694E+03  0.68015497847E+03  0.91932663603E+02 0.  0.
          2    1    3    3  502    0  0.14608111019E+03 -0.43699844684E+02 -0.59910128657E+02  0.16382487813E+03  0.00000000000E+00 0. -1.
         -1    1    3    3    0  502  0.40497429767E+01  0.17502300126E+02 -0.14897540710E+02  0.23338115757E+02  0.00000000000E+00 0.  1.
         13    1    5    5    0    0 -0.31522637295E+03  0.10986081579E+03 -0.31598179901E+03  0.45965374181E+03  0.00000000000E+00 0.  1.
        -13    1    5    5    0    0 -0.17776519241E+03  0.45267237872E+02 -0.27484507969E+03  0.33043820041E+03  0.00000000000E+00 0. -1.
          4    1    6    6  503    0  0.27980321650E+02  0.86624683254E+00 -0.12757654252E+02  0.30763720926E+02  0.00000000000E+00 0. -1.
         -4    1    6    6    0  503  0.31488039055E+03 -0.12979675594E+03 -0.55291242269E+03  0.64939125754E+03  0.00000000000E+00 0.  1.
<mgrwt>
<rscale>  0 0.11094578E+04</rscale>
<asrwt>0</asrwt>
<pdfrwt beam="1">  1        2 0.32777329E-01 0.11094578E+04</pdfrwt>
<pdfrwt beam="2">  1       -1 0.22220882E+00 0.11094578E+04</pdfrwt>
<totfact> 0.19546561E+01</totfact>
</mgrwt>
</event>
<event>
12    7  0.1730932E-007  0.2676929E+04  0.7818608E-02  0.8342530E-01
          2   -1    0    0  501    0  0.00000000000E+00  0.00000000000E+00  0.23482049998E+04  0.23482049998E+04  0.00000000000E+00 0. -1.
         -1   -1    0    0    0  501 -0.00000000000E+00 -0.00000000000E+00 -0.76291762806E+03  0.76291762806E+03  0.00000000000E+00 0.  1.
         24    2    1    2    0    0  0.70918098095E+03 -0.27086521484E+03  0.17622863369E+04  0.19204843348E+04  0.79380844966E+02 0.  0.
        254    2    1    2    0    0 -0.70918098095E+03  0.27086521484E+03 -0.17699896515E+03  0.11906382931E+04  0.89999182383E+03 0.  0.
         23    2    4    4    0    0 -0.43487491317E+03 -0.28738728811E+03  0.26299559356E+02  0.52986190847E+03  0.91402033640E+02 0.  0.
         23    2    4    4    0    0 -0.27430606777E+03  0.55825250295E+03 -0.20329852451E+03  0.66077638462E+03  0.91681320539E+02 0.  0.
          4    1    3    3  502    0  0.54380770202E+03 -0.21640868934E+03  0.14349855643E+04  0.15497558219E+04  0.00000000000E+00 0. -1.
         -3    1    3    3    0  502  0.16537327892E+03 -0.54456525502E+02  0.32730077254E+03  0.37072851287E+03  0.00000000000E+00 0.  1.
         13    1    5    5    0    0 -0.25932118935E+03 -0.13524081915E+03  0.48623391322E+02  0.29648236473E+03  0.00000000000E+00 0. -1.
        -13    1    5    5    0    0 -0.17555372382E+03 -0.15214646896E+03 -0.22323831967E+02  0.23337954374E+03  0.00000000000E+00 0.  1.
          2    1    6    6  503    0 -0.21107615818E+03  0.47482893362E+03 -0.19763425344E+03  0.55594510420E+03  0.00000000000E+00 0. -1.
         -2    1    6    6    0  503 -0.63229909590E+02  0.83423569330E+02 -0.56642710664E+01  0.10483128041E+03  0.00000000000E+00 0.  1.
<mgrwt>
<rscale>  0 0.26769288E+04</rscale>
<asrwt>0</asrwt>
<pdfrwt beam="1">  1        2 0.36126230E+00 0.26769288E+04</pdfrwt>
<pdfrwt beam="2">  1       -1 0.11737194E+00 0.26769288E+04</pdfrwt>
<totfact> 0.27792673E+00</totfact>
</mgrwt>
</event>
<event>
12    7  0.1730932E-007  0.3236352E+04  0.7818608E-02  0.8179282E-01
         -1   -1    0    0    0  501 -0.00000000000E+00  0.00000000000E+00  0.12793288863E+04  0.12793288863E+04  0.00000000000E+00 0.  1.
          2   -1    0    0  501    0  0.00000000000E+00 -0.00000000000E+00 -0.20467711240E+04  0.20467711240E+04  0.00000000000E+00 0. -1.
         24    2    1    2    0    0 -0.96859031981E+03  0.90592775636E+03  0.34492737300E+03  0.13726564439E+04  0.79614778749E+02 0.  0.
        254    2    1    2    0    0  0.96859031981E+03 -0.90592775636E+03 -0.11123696107E+04  0.19534435664E+04  0.90537467879E+03 0.  0.
         23    2    4    4    0    0  0.73199576302E+03 -0.22350648452E+03 -0.21961006638E+03  0.80144861584E+03  0.91205026622E+02 0.  0.
         23    2    4    4    0    0  0.23659455679E+03 -0.68242127185E+03 -0.89275954433E+03  0.11519949506E+04  0.91635067488E+02 0.  0.
          4    1    3    3  502    0 -0.57461327111E+01  0.17474858941E+02  0.28711499558E+01  0.18618062149E+02  0.00000000000E+00 0. -1.
         -3    1    3    3    0  502 -0.96284418710E+03  0.88845289742E+03  0.34205622305E+03  0.13540383818E+04  0.00000000000E+00 0.  1.
         13    1    5    5    0    0  0.60803769813E+03 -0.20218615775E+03 -0.15160332372E+03  0.65846233947E+03  0.00000000000E+00 0.  1.
        -13    1    5    5    0    0  0.12395806489E+03 -0.21320326763E+02 -0.68006742659E+02  0.14298627637E+03  0.00000000000E+00 0. -1.
          3    1    6    6  503    0  0.16035424092E+03 -0.46243097292E+03 -0.53461931474E+03  0.72482666824E+03  0.00000000000E+00 0. -1.
         -3    1    6    6    0  503  0.76240315871E+02 -0.21999029893E+03 -0.35814022959E+03  0.42716828234E+03  0.00000000000E+00 0.  1.
<mgrwt>
<rscale>  0 0.32363519E+04</rscale>
<asrwt>0</asrwt>
<pdfrwt beam="1">  1        2 0.31488786E+00 0.32363519E+04</pdfrwt>
<pdfrwt beam="2">  1       -1 0.19681983E+00 0.32363519E+04</pdfrwt>
<totfact> 0.95128476E-01</totfact>
</mgrwt>
</event>
<event>
12    7  0.1730932E-007  0.1514490E+04  0.7818608E-02  0.8874874E-01
          2   -1    0    0  501    0  0.00000000000E+00  0.00000000000E+00  0.19745857958E+04  0.19745857958E+04  0.00000000000E+00 0. -1.
         -1   -1    0    0    0  501 -0.00000000000E+00 -0.00000000000E+00 -0.29040001066E+03  0.29040001066E+03  0.00000000000E+00 0.  1.
         24    2    1    2    0    0  0.53265373709E+02 -0.22449458591E+03 -0.10407648492E+03  0.26450464743E+03  0.76783947921E+02 0.  0.
        254    2    1    2    0    0 -0.53265373709E+02  0.22449458591E+03  0.17882622701E+04  0.20004811590E+04  0.86649172065E+03 0.  0.
         23    2    4    4    0    0  0.33375953291E+03  0.26749022470E+03  0.57915864583E+03  0.72686066799E+03  0.99775986672E+02 0.  0.
         23    2    4    4    0    0 -0.38702490661E+03 -0.42995638788E+02  0.12091036242E+04  0.12736204910E+04  0.92415787411E+02 0.  0.
          2    1    3    3  502    0  0.41509062506E+02 -0.47171754305E+02 -0.10649317701E+02  0.63730562855E+02  0.00000000000E+00 0. -1.
         -1    1    3    3    0  502  0.11756311203E+02 -0.17732283160E+03 -0.93427167221E+02  0.20077408457E+03  0.00000000000E+00 0.  1.
         13    1    5    5    0    0  0.85090238491E+02  0.12434537943E+03  0.22959982384E+03  0.27462374475E+03  0.00000000000E+00 0.  1.
        -13    1    5    5    0    0  0.24866929441E+03  0.14314484526E+03  0.34955882199E+03  0.45223692324E+03  0.00000000000E+00 0. -1.
          2    1    6    6  503    0 -0.19158049969E+03  0.24873539953E+02  0.60071334757E+03  0.63101371364E+03  0.00000000000E+00 0. -1.
         -2    1    6    6    0  503 -0.19544440693E+03 -0.67869178741E+02  0.60839027667E+03  0.64260677741E+03  0.00000000000E+00 0.  1.
<mgrwt>
<rscale>  0 0.15144897E+04</rscale>
<asrwt>0</asrwt>
<pdfrwt beam="1">  1        2 0.30378242E+00 0.15144897E+04</pdfrwt>
<pdfrwt beam="2">  1       -1 0.44676926E-01 0.15144897E+04</pdfrwt>
<totfact> 0.37678082E+01</totfact>
</mgrwt>
</event>
<event>
12    7  0.1730932E-007  0.1773502E+04  0.7818608E-02  0.8720519E-01
         -1   -1    0    0    0  501 -0.00000000000E+00  0.00000000000E+00  0.67373887621E+03  0.67373887621E+03  0.00000000000E+00 0.  1.
          2   -1    0    0  501    0  0.00000000000E+00 -0.00000000000E+00 -0.11671094873E+04  0.11671094873E+04  0.00000000000E+00 0. -1.
         24    2    1    2    0    0  0.16567428230E+03 -0.60402483576E+03  0.35067047661E+02  0.63249078934E+03  0.80752280135E+02 0.  0.
        254    2    1    2    0    0 -0.16567428230E+03  0.60402483576E+03 -0.52843765871E+03  0.12083575741E+04  0.88802460428E+03 0.  0.
         23    2    4    4    0    0 -0.32231295523E+03  0.60460682089E+03 -0.68184751863E+03  0.97091503130E+03  0.91240946831E+02 0.  0.
         23    2    4    4    0    0  0.15663867293E+03 -0.58198513606E+00  0.15340985992E+03  0.23744254283E+03  0.91150224690E+02 0.  0.
          4    1    3    3  502    0  0.12309108177E+03 -0.37806562794E+03  0.56345034697E+02  0.40157165783E+03  0.00000000000E+00 0. -1.
         -3    1    3    3    0  502  0.42583200522E+02 -0.22595920782E+03 -0.21277987036E+02  0.23091913151E+03  0.00000000000E+00 0.  1.
         13    1    5    5    0    0 -0.11728028427E+03  0.22219810925E+03 -0.18983264455E+03  0.31490172716E+03  0.00000000000E+00 0.  1.
        -13    1    5    5    0    0 -0.20503267095E+03  0.38240871164E+03 -0.49201487407E+03  0.65601330414E+03  0.00000000000E+00 0. -1.
          2    1    6    6  503    0  0.86637954059E+02  0.36545422158E+02  0.11737899195E+03  0.15039790795E+03  0.00000000000E+00 0. -1.
         -2    1    6    6    0  503  0.70000718874E+02 -0.37127407294E+02  0.36030867967E+02  0.87044634881E+02  0.00000000000E+00 0.  1.
<mgrwt>
<rscale>  0 0.17735017E+04</rscale>
<asrwt>0</asrwt>
<pdfrwt beam="1">  1        2 0.17955531E+00 0.17735017E+04</pdfrwt>
<pdfrwt beam="2">  1       -1 0.10365213E+00 0.17735017E+04</pdfrwt>
<totfact> 0.18765902E+01</totfact>
</mgrwt>
</event>
<event>
12    7  0.1730932E-007  0.1156112E+04  0.7818608E-02  0.9152164E-01
          2   -1    0    0  501    0  0.00000000000E+00  0.00000000000E+00  0.94909502326E+03  0.94909502326E+03  0.00000000000E+00 0. -1.
         -3   -1    0    0    0  501 -0.00000000000E+00 -0.00000000000E+00 -0.35207069614E+03  0.35207069614E+03  0.00000000000E+00 0.  1.
         24    2    1    2    0    0  0.61990663637E+02 -0.44092880256E+02 -0.10672091273E+03  0.15330840444E+03  0.79543002144E+02 0.  0.
        254    2    1    2    0    0 -0.61990663637E+02  0.44092880256E+02  0.70374523985E+03  0.11478573150E+04  0.90362161795E+03 0.  0.
         23    2    4    4    0    0 -0.29939581882E+03  0.26518594567E+03  0.69990741774E+03  0.81128051444E+03  0.91346798463E+02 0.  0.
         23    2    4    4    0    0  0.23740515518E+03 -0.22109306541E+03  0.38378221047E+01  0.33657680052E+03  0.89587178161E+02 0.  0.
          2    1    3    3  502    0  0.34310568395E+01  0.17952526516E+02 -0.43307322998E+02  0.47006271758E+02  0.00000000000E+00 0. -1.
         -1    1    3    3    0  502  0.58559606797E+02 -0.62045406772E+02 -0.63413589735E+02  0.10630213268E+03  0.00000000000E+00 0.  1.
         13    1    5    5    0    0 -0.65799774507E+02  0.86537738673E+02  0.12601275457E+03  0.16642597410E+03  0.00000000000E+00 0. -1.
        -13    1    5    5    0    0 -0.23359604431E+03  0.17864820699E+03  0.57389466317E+03  0.64485454034E+03  0.00000000000E+00 0.  1.
          1    1    6    6  503    0  0.55326373258E+02 -0.57307098879E+02  0.39799323315E+02  0.89045478808E+02  0.00000000000E+00 0. -1.
         -1    1    6    6    0  503  0.18207878192E+03 -0.16378596653E+03 -0.35961501211E+02  0.24753132171E+03  0.00000000000E+00 0.  1.
<mgrwt>
<rscale>  0 0.11561117E+04</rscale>
<asrwt>0</asrwt>
<pdfrwt beam="1">  1        2 0.14601462E+00 0.11561117E+04</pdfrwt>
<pdfrwt beam="2">  1       -3 0.54164723E-01 0.11561117E+04</pdfrwt>
<totfact> 0.57617272E+01</totfact>
</mgrwt>
</event>
<event>
12    7  0.1730932E-007  0.1325790E+04  0.7818608E-02  0.9009360E-01
         -1   -1    0    0    0  501 -0.00000000000E+00  0.00000000000E+00  0.27526453100E+03  0.27526453100E+03  0.00000000000E+00 0.  1.
          2   -1    0    0  501    0  0.00000000000E+00 -0.00000000000E+00 -0.15963899426E+04  0.15963899426E+04  0.00000000000E+00 0. -1.
         24    2    1    2    0    0 -0.18914042338E+03  0.14041812795E+02  0.66674181082E+02  0.20814792392E+03  0.53933658741E+02 0.  0.
        254    2    1    2    0    0  0.18914042338E+03 -0.14041812795E+02 -0.13877995926E+04  0.16635065496E+04  0.89738233719E+03 0.  0.
         23    2    4    4    0    0 -0.12802095011E+03 -0.27691862637E+03 -0.11184591318E+04  0.11628219266E+04  0.90170473820E+02 0.  0.
         23    2    4    4    0    0  0.31716137349E+03  0.26287681357E+03 -0.26934046087E+03  0.50068462300E+03  0.91898051642E+02 0.  0.
          4    1    3    3  502    0 -0.61512770585E+01  0.11635861005E+02 -0.58453822160E+00  0.13174716533E+02  0.00000000000E+00 0. -1.
         -3    1    3    3    0  502 -0.18298914632E+03  0.24059517902E+01  0.67258719303E+02  0.19497320739E+03  0.00000000000E+00 0.  1.
         13    1    5    5    0    0 -0.22101428817E+02 -0.19759452979E+02 -0.22857612927E+03  0.23049068530E+03  0.00000000000E+00 0.  1.
        -13    1    5    5    0    0 -0.10591952129E+03 -0.25715917339E+03 -0.88988300250E+03  0.93233124134E+03  0.00000000000E+00 0. -1.
          1    1    6    6  503    0  0.30576297408E+03  0.26569015443E+03 -0.24432396240E+03  0.47305015916E+03  0.00000000000E+00 0. -1.
         -1    1    6    6    0  503  0.11398399416E+02 -0.28133408547E+01 -0.25016498474E+02  0.27634463844E+02  0.00000000000E+00 0.  1.
<mgrwt>
<rscale>  0 0.13257896E+04</rscale>
<asrwt>0</asrwt>
<pdfrwt beam="1">  1        2 0.24559845E+00 0.13257896E+04</pdfrwt>
<pdfrwt beam="2">  1       -1 0.42348389E-01 0.13257896E+04</pdfrwt>
<totfact> 0.68472517E+01</totfact>
</mgrwt>
</event>
<event>
12    7  0.1730932E-007  0.1388087E+04  0.7818608E-02  0.8962488E-01
         -1   -1    0    0    0  501 -0.00000000000E+00  0.00000000000E+00  0.25769582199E+03  0.25769582199E+03  0.00000000000E+00 0.  1.
          2   -1    0    0  501    0  0.00000000000E+00 -0.00000000000E+00 -0.18692429087E+04  0.18692429087E+04  0.00000000000E+00 0. -1.
         24    2    1    2    0    0 -0.31840002270E+03  0.23253380598E+03 -0.57604206791E+03  0.70271629327E+03  0.80840456769E+02 0.  0.
        254    2    1    2    0    0  0.31840002270E+03 -0.23253380598E+03 -0.10355050188E+04  0.14242224374E+04  0.89481191424E+03 0.  0.
         23    2    4    4    0    0 -0.28385484758E+03 -0.21734969445E+03 -0.40811978933E+03  0.54977435812E+03  0.88744680050E+02 0.  0.
         23    2    4    4    0    0  0.60225487027E+03 -0.15184111535E+02 -0.62738522944E+03  0.87444807926E+03  0.90031834304E+02 0.  0.
          2    1    3    3  502    0 -0.28893927492E+03  0.19424202951E+03 -0.45908049426E+03  0.57616904709E+03  0.00000000000E+00 0. -1.
         -1    1    3    3    0  502 -0.29460747780E+02  0.38291776473E+02 -0.11696157365E+03  0.12654724618E+03  0.00000000000E+00 0.  1.
         13    1    5    5    0    0 -0.51888698340E+02 -0.21654661707E+01 -0.59642432470E+02  0.79084423309E+02  0.00000000000E+00 0. -1.
        -13    1    5    5    0    0 -0.23196614924E+03 -0.21518422828E+03 -0.34847735686E+03  0.47068993481E+03  0.00000000000E+00 0.  1.
          1    1    6    6  503    0  0.22756259578E+02 -0.17643077790E+02 -0.20680711601E+02  0.35451620220E+02  0.00000000000E+00 0. -1.
         -1    1    6    6    0  503  0.57949861069E+03  0.24589662550E+01 -0.60670451784E+03  0.83899645904E+03  0.00000000000E+00 0.  1.
<mgrwt>
<rscale>  0 0.13880866E+04</rscale>
<asrwt>0</asrwt>
<pdfrwt beam="1">  1        2 0.28757582E+00 0.13880866E+04</pdfrwt>
<pdfrwt beam="2">  1       -1 0.39645513E-01 0.13880866E+04</pdfrwt>
<totfact> 0.54274582E+01</totfact>
</mgrwt>
</event>
<event>
12    7  0.1730932E-007  0.2598381E+04  0.7818608E-02  0.8368751E-01
          2   -1    0    0  501    0  0.00000000000E+00  0.00000000000E+00  0.12193809672E+04  0.12193809672E+04  0.00000000000E+00 0. -1.
         -1   -1    0    0    0  501 -0.00000000000E+00 -0.00000000000E+00 -0.13842234430E+04  0.13842234430E+04  0.00000000000E+00 0.  1.
         24    2    1    2    0    0  0.29904483419E+03  0.92223645199E+03 -0.67610049231E+03  0.11846859207E+04  0.80130947173E+02 0.  0.
        254    2    1    2    0    0 -0.29904483419E+03 -0.92223645199E+03  0.51125801658E+03  0.14189184895E+04  0.90110878047E+03 0.  0.
         23    2    4    4    0    0 -0.36553490166E+03 -0.88988491934E+03  0.70223094506E+03  0.11943832184E+04  0.88949639138E+02 0.  0.
         23    2    4    4    0    0  0.66490067469E+02 -0.32351532643E+02 -0.19097292848E+03  0.22453527110E+03  0.92075392025E+02 0.  0.
          2    1    3    3  502    0  0.13996623062E+02  0.87124590946E+02 -0.39936296395E+02  0.96858182795E+02  0.00000000000E+00 0. -1.
         -1    1    3    3    0  502  0.28504821112E+03  0.83511186104E+03 -0.63616419592E+03  0.10878277379E+04  0.00000000000E+00 0.  1.
         13    1    5    5    0    0 -0.20774887160E+01  0.40952822382E+00 -0.16402856528E+01  0.26784715332E+01  0.00000000000E+00 0.  1.
        -13    1    5    5    0    0 -0.36345741294E+03 -0.89029444757E+03  0.70387123072E+03  0.11917047469E+04  0.00000000000E+00 0. -1.
          1    1    6    6  503    0  0.56803556642E+02  0.32525498741E+01 -0.17555602811E+03  0.18454577246E+03  0.00000000000E+00 0. -1.
         -1    1    6    6    0  503  0.96865108270E+01 -0.35604082517E+02 -0.15416900372E+02  0.39989498633E+02  0.00000000000E+00 0.  1.
<mgrwt>
<rscale>  0 0.25983808E+04</rscale>
<asrwt>0</asrwt>
<pdfrwt beam="1">  1        2 0.18759707E+00 0.25983808E+04</pdfrwt>
<pdfrwt beam="2">  1       -1 0.21295745E+00 0.25983808E+04</pdfrwt>
<totfact> 0.22823806E+00</totfact>
</mgrwt>
</event>
<event>
12    7  0.1730932E-007  0.1731969E+04  0.7818608E-02  0.8743339E-01
          2   -1    0    0  501    0  0.00000000000E+00  0.00000000000E+00  0.17544525101E+04  0.17544525101E+04  0.00000000000E+00 0. -1.
         -1   -1    0    0    0  501 -0.00000000000E+00 -0.00000000000E+00 -0.42744329326E+03  0.42744329326E+03  0.00000000000E+00 0.  1.
         24    2    1    2    0    0  0.22836639776E+02 -0.52969447783E+03  0.59289576334E+02  0.53955608401E+03  0.80670700824E+02 0.  0.
        254    2    1    2    0    0 -0.22836639776E+02  0.52969447783E+03  0.12677196405E+04  0.16423397194E+04  0.89948258177E+03 0.  0.
         23    2    4    4    0    0  0.40431517154E+03  0.98283772911E+02  0.60004924091E+03  0.73558846112E+03  0.88886639313E+02 0.  0.
         23    2    4    4    0    0 -0.42715181132E+03  0.43141070492E+03  0.66767039961E+03  0.90675125826E+03  0.88544991962E+02 0.  0.
          2    1    3    3  502    0  0.28217126889E+01 -0.49184647377E+01  0.10757863897E+02  0.12160797404E+02  0.00000000000E+00 0. -1.
         -1    1    3    3    0  502  0.20014927088E+02 -0.52477601309E+03  0.48531712437E+02  0.52739528660E+03  0.00000000000E+00 0.  1.
         13    1    5    5    0    0  0.34955240940E+03  0.93090587416E+02  0.46049309558E+03  0.58558230460E+03  0.00000000000E+00 0.  1.
        -13    1    5    5    0    0  0.54762762150E+02  0.51931854955E+01  0.13955614533E+03  0.15000615652E+03  0.00000000000E+00 0. -1.
          4    1    6    6  503    0 -0.55825221655E+02  0.83480566395E+02  0.15283296873E+03  0.18287530360E+03  0.00000000000E+00 0. -1.
         -4    1    6    6    0  503 -0.37132658967E+03  0.34793013852E+03  0.51483743089E+03  0.72387595465E+03  0.00000000000E+00 0.  1.
<mgrwt>
<rscale>  0 0.17319688E+04</rscale>
<asrwt>0</asrwt>
<pdfrwt beam="1">  1        2 0.26991577E+00 0.17319688E+04</pdfrwt>
<pdfrwt beam="2">  1       -1 0.65760508E-01 0.17319688E+04</pdfrwt>
<totfact> 0.23177409E+01</totfact>
</mgrwt>
</event>
<event>
12    7  0.1730932E-007  0.2203172E+04  0.7818608E-02  0.8517109E-01
          2   -1    0    0  501    0  0.00000000000E+00  0.00000000000E+00  0.23102201149E+04  0.23102201149E+04  0.00000000000E+00 0. -1.
         -1   -1    0    0    0  501 -0.00000000000E+00 -0.00000000000E+00 -0.52527127240E+03  0.52527127240E+03  0.00000000000E+00 0.  1.
         24    2    1    2    0    0  0.57062037099E+03  0.65857797631E+03  0.11024142064E+04  0.14074651493E+04  0.79426099668E+02 0.  0.
        254    2    1    2    0    0 -0.57062037099E+03 -0.65857797631E+03  0.68253463608E+03  0.14280262380E+04  0.90225985629E+03 0.  0.
         23    2    4    4    0    0 -0.52272765303E+02 -0.55948594608E+03  0.11806529047E+02  0.56965519368E+03  0.92793748203E+02 0.  0.
         23    2    4    4    0    0 -0.51834760569E+03 -0.99092030235E+02  0.67072810704E+03  0.85837104431E+03  0.91767016792E+02 0.  0.
          4    1    3    3  502    0  0.37903948590E+03  0.40788169377E+03  0.75564353982E+03  0.93863494887E+03  0.00000000000E+00 0. -1.
         -3    1    3    3    0  502  0.19158088509E+03  0.25069628255E+03  0.34677066656E+03  0.46883020039E+03  0.00000000000E+00 0.  1.
         13    1    5    5    0    0 -0.15516427533E+01 -0.85427079309E+02 -0.31189258444E+02  0.90955831680E+02  0.00000000000E+00 0. -1.
        -13    1    5    5    0    0 -0.50721122549E+02 -0.47405886677E+03  0.42995787490E+02  0.47869936200E+03  0.00000000000E+00 0.  1.
          2    1    6    6  503    0 -0.29431341386E+03 -0.10181654027E+03  0.40088587211E+03  0.50763813481E+03  0.00000000000E+00 0. -1.
         -2    1    6    6    0  503 -0.22403419182E+03  0.27245100404E+01  0.26984223493E+03  0.35073290951E+03  0.00000000000E+00 0.  1.
<mgrwt>
<rscale>  0 0.22031725E+04</rscale>
<asrwt>0</asrwt>
<pdfrwt beam="1">  1        2 0.35541847E+00 0.22031725E+04</pdfrwt>
<pdfrwt beam="2">  1       -1 0.80810966E-01 0.22031725E+04</pdfrwt>
<totfact> 0.71015740E+00</totfact>
</mgrwt>
</event>
<event>
12    7  0.1730932E-007  0.1528894E+04  0.7818608E-02  0.8865463E-01
         -1   -1    0    0    0  501 -0.00000000000E+00  0.00000000000E+00  0.27334430734E+03  0.27334430734E+03  0.00000000000E+00 0.  1.
          2   -1    0    0  501    0  0.00000000000E+00 -0.00000000000E+00 -0.21378865782E+04  0.21378865782E+04  0.00000000000E+00 0. -1.
         24    2    1    2    0    0  0.45794476558E+03 -0.14029553843E+03 -0.77970871499E+03  0.91861470466E+03  0.80691071249E+02 0.  0.
        254    2    1    2    0    0 -0.45794476558E+03  0.14029553843E+03 -0.10848335558E+04  0.14926161808E+04  0.90644523993E+03 0.  0.
         23    2    4    4    0    0 -0.23503705960E+03  0.16708810681E+02  0.10450256314E+03  0.27287690393E+03  0.89551187911E+02 0.  0.
         23    2    4    4    0    0 -0.22290770597E+03  0.12358672775E+03 -0.11893361190E+04  0.12197392769E+04  0.91005357242E+02 0.  0.
          4    1    3    3  502    0  0.30018568499E+03 -0.10320803131E+03 -0.58233981301E+03  0.66323676090E+03  0.00000000000E+00 0. -1.
         -3    1    3    3    0  502  0.15775908059E+03 -0.37087507116E+02 -0.19736890198E+03  0.25537794376E+03  0.00000000000E+00 0.  1.
         13    1    5    5    0    0 -0.12769304212E+03  0.31813186952E+02  0.98375221635E+02  0.16430239226E+03  0.00000000000E+00 0. -1.
        -13    1    5    5    0    0 -0.10734401748E+03 -0.15104376272E+02  0.61273415078E+01  0.10857451168E+03  0.00000000000E+00 0.  1.
          3    1    6    6  503    0 -0.28777628764E+02  0.24973972550E+02 -0.72786171878E+02  0.82156424209E+02  0.00000000000E+00 0. -1.
         -3    1    6    6    0  503 -0.19413007721E+03  0.98612755199E+02 -0.11165499471E+04  0.11375828527E+04  0.00000000000E+00 0.  1.
<mgrwt>
<rscale>  0 0.15288939E+04</rscale>
<asrwt>0</asrwt>
<pdfrwt beam="1">  1        2 0.32890563E+00 0.15288939E+04</pdfrwt>
<pdfrwt beam="2">  1       -1 0.42052970E-01 0.15288939E+04</pdfrwt>
<totfact> 0.34157599E+01</totfact>
</mgrwt>
</event>
<event>
12    7  0.1730932E-007  0.1563382E+04  0.7818608E-02  0.8843365E-01
          2   -1    0    0  501    0  0.00000000000E+00  0.00000000000E+00  0.23084889021E+04  0.23084889021E+04  0.00000000000E+00 0. -1.
         -1   -1    0    0    0  501 -0.00000000000E+00 -0.00000000000E+00 -0.26469307485E+03  0.26469307485E+03  0.00000000000E+00 0.  1.
         24    2    1    2    0    0 -0.28909666038E+03  0.35054862169E+03  0.10657626373E+04  0.11617017828E+04  0.85087118175E+02 0.  0.
        254    2    1    2    0    0  0.28909666038E+03 -0.35054862169E+03  0.97803318990E+03  0.14114801942E+04  0.91064054536E+03 0.  0.
         23    2    4    4    0    0 -0.53940160194E+02 -0.22663489315E+03 -0.10044435962E+03  0.26943669517E+03  0.90742204344E+02 0.  0.
         23    2    4    4    0    0  0.34303682057E+03 -0.12391372853E+03  0.10784775495E+04  0.11420434990E+04  0.90114685045E+02 0.  0.
          4    1    3    3  502    0 -0.23574894246E+03  0.27067318645E+03  0.91561419192E+03  0.98345863471E+03  0.00000000000E+00 0. -1.
         -3    1    3    3    0  502 -0.53347717915E+02  0.79875435239E+02  0.15014844543E+03  0.17824314805E+03  0.00000000000E+00 0.  1.
         13    1    5    5    0    0 -0.41525570716E+02 -0.73560794494E+02 -0.76578273616E+02  0.11401664571E+03  0.00000000000E+00 0.  1.
        -13    1    5    5    0    0 -0.12414589477E+02 -0.15307409866E+03 -0.23866086006E+02  0.15542004946E+03  0.00000000000E+00 0. -1.
          3    1    6    6  503    0  0.15091905358E+03 -0.84186122444E+01  0.40925272623E+03  0.43627425742E+03  0.00000000000E+00 0. -1.
         -3    1    6    6    0  503  0.19211776699E+03 -0.11549511629E+03  0.66922482329E+03  0.70576924160E+03  0.00000000000E+00 0.  1.
<mgrwt>
<rscale>  0 0.15633823E+04</rscale>
<asrwt>0</asrwt>
<pdfrwt beam="1">  1        2 0.35515213E+00 0.15633823E+04</pdfrwt>
<pdfrwt beam="2">  1       -1 0.40722013E-01 0.15633823E+04</pdfrwt>
<totfact> 0.28979698E+01</totfact>
</mgrwt>
</event>
<event>
12    7  0.1730932E-007  0.1370751E+04  0.7818608E-02  0.8975267E-01
          2   -1    0    0  501    0  0.00000000000E+00  0.00000000000E+00  0.25999102522E+04  0.25999102522E+04  0.00000000000E+00 0. -1.
         -1   -1    0    0    0  501 -0.00000000000E+00 -0.00000000000E+00 -0.18067537410E+03  0.18067537410E+03  0.00000000000E+00 0.  1.
         24    2    1    2    0    0 -0.20034971709E+03 -0.30293632558E+03  0.96360907189E+03  0.10330699207E+04  0.82344344377E+02 0.  0.
        254    2    1    2    0    0  0.20034971709E+03  0.30293632558E+03  0.14556258062E+04  0.17475157056E+04  0.89613292944E+03 0.  0.
         23    2    4    4    0    0  0.33037334521E+03  0.20817170626E+02  0.10633410064E+03  0.36023561981E+03  0.94248920450E+02 0.  0.
         23    2    4    4    0    0 -0.13002362812E+03  0.28211915496E+03  0.13492917055E+04  0.13872800858E+04  0.86374581520E+02 0.  0.
          2    1    3    3  502    0 -0.17065870867E+03 -0.28279875968E+03  0.91397144243E+03  0.97182474289E+03  0.00000000000E+00 0. -1.
         -1    1    3    3    0  502 -0.29691008421E+02 -0.20137565903E+02  0.49637629464E+02  0.61245177772E+02  0.00000000000E+00 0.  1.
         13    1    5    5    0    0  0.20719287131E+03  0.54724452952E+02  0.47113787663E+02  0.21941595353E+03  0.00000000000E+00 0.  1.
        -13    1    5    5    0    0  0.12318047390E+03 -0.33907282327E+02  0.59220312981E+02  0.14081966629E+03  0.00000000000E+00 0. -1.
          2    1    6    6  503    0 -0.13283308881E+03  0.28651338015E+03  0.13043643222E+04  0.13420509795E+04  0.00000000000E+00 0. -1.
         -2    1    6    6    0  503  0.28094606877E+01 -0.43942251877E+01  0.44927383343E+02  0.45229106319E+02  0.00000000000E+00 0.  1.
<mgrwt>
<rscale>  0 0.13707513E+04</rscale>
<asrwt>0</asrwt>
<pdfrwt beam="1">  1        2 0.39998617E+00 0.13707513E+04</pdfrwt>
<pdfrwt beam="2">  1       -1 0.27796213E-01 0.13707513E+04</pdfrwt>
<totfact> 0.39619201E+01</totfact>
</mgrwt>
</event>
<event>
12    7  0.1730932E-007  0.1524627E+04  0.7818608E-02  0.8868240E-01
         -1   -1    0    0    0  501 -0.00000000000E+00  0.00000000000E+00  0.12713813556E+04  0.12713813556E+04  0.00000000000E+00 0.  1.
          2   -1    0    0  501    0  0.00000000000E+00 -0.00000000000E+00 -0.45707886864E+03  0.45707886864E+03  0.00000000000E+00 0. -1.
         24    2    1    2    0    0 -0.23625934884E+03 -0.42504475522E+03  0.36173980312E+03  0.61134021492E+03  0.79997808475E+02 0.  0.
        254    2    1    2    0    0  0.23625934884E+03  0.42504475522E+03  0.45256268380E+03  0.11171200093E+04  0.89814397984E+03 0.  0.
         23    2    4    4    0    0  0.45549543837E+03  0.16418693275E+03 -0.58344408039E+02  0.49639341989E+03  0.92568429274E+02 0.  0.
         23    2    4    4    0    0 -0.21923608953E+03  0.26085782248E+03  0.51090709184E+03  0.62072658940E+03  0.90355828782E+02 0.  0.
          2    1    3    3  502    0 -0.85884419274E+02 -0.20100003379E+03  0.20285034003E+03  0.29820363430E+03  0.00000000000E+00 0. -1.
         -3    1    3    3    0  502 -0.15037492956E+03 -0.22404472143E+03  0.15888946309E+03  0.31313658062E+03  0.00000000000E+00 0.  1.
         13    1    5    5    0    0  0.10384583888E+03  0.78965836755E+02 -0.41198848310E+01  0.13052407854E+03  0.00000000000E+00 0. -1.
        -13    1    5    5    0    0  0.35164959949E+03  0.85221095991E+02 -0.54224523208E+02  0.36586934135E+03  0.00000000000E+00 0.  1.
          1    1    6    6  503    0 -0.50544738692E+02  0.21332968592E+02  0.12246086979E+03  0.13418841526E+03  0.00000000000E+00 0. -1.
         -1    1    6    6    0  503 -0.16869135084E+03  0.23952485388E+03  0.38844622205E+03  0.48653817414E+03  0.00000000000E+00 0.  1.
<mgrwt>
<rscale>  0 0.15246266E+04</rscale>
<asrwt>0</asrwt>
<pdfrwt beam="1">  1        2 0.70319827E-01 0.15246266E+04</pdfrwt>
<pdfrwt beam="2">  1       -1 0.19559713E+00 0.15246266E+04</pdfrwt>
<totfact> 0.12162500E+01</totfact>
</mgrwt>
</event>
<event>
12    7  0.1730932E-007  0.1969895E+04  0.7818608E-02  0.8620826E-01
         -1   -1    0    0    0  501 -0.00000000000E+00  0.00000000000E+00  0.65892635799E+03  0.65892635799E+03  0.00000000000E+00 0.  1.
          2   -1    0    0  501    0  0.00000000000E+00 -0.00000000000E+00 -0.14722767677E+04  0.14722767677E+04  0.00000000000E+00 0. -1.
         24    2    1    2    0    0  0.47310536370E+03  0.58133967346E+03 -0.11105695314E+03  0.76413782660E+03  0.98936697407E+02 0.  0.
        254    2    1    2    0    0 -0.47310536370E+03 -0.58133967346E+03 -0.70229345657E+03  0.13670652991E+04  0.90214573752E+03 0.  0.
         23    2    4    4    0    0 -0.67047570493E+03 -0.63044144843E+03 -0.67288469666E+03  0.11433787436E+04  0.86873733206E+02 0.  0.
         23    2    4    4    0    0  0.19737034123E+03  0.49101774970E+02 -0.29408759911E+02  0.22368655548E+03  0.88344575624E+02 0.  0.
          2    1    3    3  502    0  0.69889123800E+02  0.38551262157E+02 -0.93060983381E+01  0.80357282842E+02  0.00000000000E+00 0. -1.
         -3    1    3    3    0  502  0.40321623990E+03  0.54278841131E+03 -0.10175085480E+03  0.68378054376E+03  0.00000000000E+00 0.  1.
         13    1    5    5    0    0 -0.66680361538E+03 -0.61134218309E+03 -0.65409869413E+03  0.11163384021E+04  0.00000000000E+00 0.  1.
        -13    1    5    5    0    0 -0.36720895507E+01 -0.19099265346E+02 -0.18786002533E+02  0.27040341521E+02  0.00000000000E+00 0. -1.
          3    1    6    6  503    0  0.96814689992E+01 -0.35462390197E+01 -0.26822876244E+02  0.28736272256E+02  0.00000000000E+00 0. -1.
         -3    1    6    6    0  503  0.18768887223E+03  0.52648013990E+02 -0.25858836670E+01  0.19495028323E+03  0.00000000000E+00 0.  1.
<mgrwt>
<rscale>  0 0.19698954E+04</rscale>
<asrwt>0</asrwt>
<pdfrwt beam="1">  1        2 0.22650412E+00 0.19698954E+04</pdfrwt>
<pdfrwt beam="2">  1       -1 0.10137329E+00 0.19698954E+04</pdfrwt>
<totfact> 0.12900900E+01</totfact>
</mgrwt>
</event>
<event>
12    7  0.1730932E-007  0.1249960E+04  0.7818608E-02  0.9070217E-01
          2   -1    0    0  501    0  0.00000000000E+00  0.00000000000E+00  0.30872536946E+04  0.30872536946E+04  0.00000000000E+00 0. -1.
         -1   -1    0    0    0  501 -0.00000000000E+00 -0.00000000000E+00 -0.12652011562E+03  0.12652011562E+03  0.00000000000E+00 0.  1.
         24    2    1    2    0    0  0.16467526403E+03  0.99412861539E+02  0.15833577505E+03  0.26134197875E+03  0.78921179513E+02 0.  0.
        254    2    1    2    0    0 -0.16467526403E+03 -0.99412861539E+02  0.28023978039E+04  0.29524318314E+04  0.90907612899E+03 0.  0.
         23    2    4    4    0    0 -0.41386275058E+03  0.26573258556E+02  0.24838308614E+04  0.25198141902E+04  0.89773551580E+02 0.  0.
         23    2    4    4    0    0  0.24918748656E+03 -0.12598612010E+03  0.31856694246E+03  0.43261764122E+03  0.87785082728E+02 0.  0.
          2    1    3    3  502    0  0.10533197019E+02 -0.11900613840E+02  0.23021911835E+02  0.27974654131E+02  0.00000000000E+00 0. -1.
         -1    1    3    3    0  502  0.15414206701E+03  0.11131347538E+03  0.13531386321E+03  0.23336732462E+03  0.00000000000E+00 0.  1.
         13    1    5    5    0    0 -0.25856470053E+02  0.10303496261E+01  0.65587830376E+02  0.70508029027E+02  0.00000000000E+00 0.  1.
        -13    1    5    5    0    0 -0.38800628053E+03  0.25542908930E+02  0.24182430311E+04  0.24493061612E+04  0.00000000000E+00 0. -1.
          3    1    6    6  503    0  0.58696148687E+02 -0.22197592472E+02  0.24892930616E+02  0.67510213871E+02  0.00000000000E+00 0. -1.
         -3    1    6    6    0  503  0.19049133787E+03 -0.10378852762E+03  0.29367401185E+03  0.36510742735E+03  0.00000000000E+00 0.  1.
<mgrwt>
<rscale>  0 0.12499595E+04</rscale>
<asrwt>0</asrwt>
<pdfrwt beam="1">  1        2 0.47496205E+00 0.12499595E+04</pdfrwt>
<pdfrwt beam="2">  1       -1 0.19464636E-01 0.12499595E+04</pdfrwt>
<totfact> 0.37298680E+01</totfact>
</mgrwt>
</event>
<event>
12    7  0.1730932E-007  0.1692293E+04  0.7818608E-02  0.8765772E-01
         -1   -1    0    0    0  501 -0.00000000000E+00  0.00000000000E+00  0.16982149275E+03  0.16982149275E+03  0.00000000000E+00 0.  1.
          2   -1    0    0  501    0  0.00000000000E+00 -0.00000000000E+00 -0.42159810349E+04  0.42159810349E+04  0.00000000000E+00 0. -1.
         24    2    1    2    0    0  0.40655520589E+03 -0.16869576952E+03 -0.38921157284E+03  0.59337594422E+03  0.82849047456E+02 0.  0.
        254    2    1    2    0    0 -0.40655520589E+03  0.16869576952E+03 -0.36569479693E+04  0.37924265834E+04  0.90304238125E+03 0.  0.
         23    2    4    4    0    0 -0.61768118778E+03  0.34160287759E+03 -0.24218950136E+04  0.25243186376E+04  0.91578115000E+02 0.  0.
         23    2    4    4    0    0  0.21112598189E+03 -0.17290710808E+03 -0.12350529556E+04  0.12681079458E+04  0.90944547932E+02 0.  0.
          2    1    3    3  502    0  0.80940217653E+02 -0.56895130137E+02 -0.12492902133E+03  0.15936007981E+03  0.00000000000E+00 0. -1.
         -1    1    3    3    0  502  0.32561498824E+03 -0.11180063938E+03 -0.26428255151E+03  0.43401586441E+03  0.00000000000E+00 0.  1.
         13    1    5    5    0    0 -0.32104361261E+03  0.12851714972E+03 -0.12344434532E+04  0.12819657945E+04  0.00000000000E+00 0.  1.
        -13    1    5    5    0    0 -0.29663757517E+03  0.21308572787E+03 -0.11874515604E+04  0.12423528431E+04  0.00000000000E+00 0. -1.
          3    1    6    6  503    0  0.14282586637E+03 -0.14822983037E+03 -0.75352455419E+03  0.78113415268E+03  0.00000000000E+00 0. -1.
         -3    1    6    6    0  503  0.68300115516E+02 -0.24677277705E+02 -0.48152840145E+03  0.48697379316E+03  0.00000000000E+00 0.  1.
<mgrwt>
<rscale>  0 0.16922933E+04</rscale>
<asrwt>0</asrwt>
<pdfrwt beam="1">  1        2 0.64861246E+00 0.16922933E+04</pdfrwt>
<pdfrwt beam="2">  1       -1 0.26126384E-01 0.16922933E+04</pdfrwt>
<totfact> 0.32375088E+00</totfact>
</mgrwt>
</event>
<event>
12    7  0.1730932E-007  0.1854884E+04  0.7818608E-02  0.8677645E-01
          2   -1    0    0  501    0  0.00000000000E+00  0.00000000000E+00  0.20942065206E+04  0.20942065206E+04  0.00000000000E+00 0. -1.
         -1   -1    0    0    0  501 -0.00000000000E+00 -0.00000000000E+00 -0.41072785261E+03  0.41072785261E+03  0.00000000000E+00 0.  1.
         24    2    1    2    0    0  0.25335618574E+03  0.50638454058E+03  0.74949160354E+02  0.57665584049E+03  0.79372047617E+02 0.  0.
        254    2    1    2    0    0 -0.25335618574E+03 -0.50638454058E+03  0.16085295076E+04  0.19282785327E+04  0.90015346637E+03 0.  0.
         23    2    4    4    0    0 -0.13989964932E+03 -0.92306517803E+02  0.14493507518E+04  0.14615686859E+04  0.86446610876E+02 0.  0.
         23    2    4    4    0    0 -0.11345653642E+03 -0.41407802278E+03  0.15917875576E+03  0.46670984683E+03  0.90261898033E+02 0.  0.
          4    1    3    3  502    0  0.14639923909E+03  0.20457065028E+03  0.33250144426E+02  0.25374684287E+03  0.00000000000E+00 0. -1.
         -3    1    3    3    0  502  0.10695694665E+03  0.30181389030E+03  0.41699015928E+02  0.32290899762E+03  0.00000000000E+00 0.  1.
         13    1    5    5    0    0 -0.79390255764E+02 -0.50719435118E+02  0.46290495158E+03  0.47239418710E+03  0.00000000000E+00 0.  1.
        -13    1    5    5    0    0 -0.60509393557E+02 -0.41587082685E+02  0.98644580027E+03  0.98917449877E+03  0.00000000000E+00 0. -1.
          2    1    6    6  503    0  0.95608257311E+01 -0.69781557008E+02  0.45415303234E+02  0.83805876017E+02  0.00000000000E+00 0. -1.
         -2    1    6    6    0  503 -0.12301736215E+03 -0.34429646577E+03  0.11376345253E+03  0.38290397081E+03  0.00000000000E+00 0.  1.
<mgrwt>
<rscale>  0 0.18548843E+04</rscale>
<asrwt>0</asrwt>
<pdfrwt beam="1">  1        2 0.32218561E+00 0.18548843E+04</pdfrwt>
<pdfrwt beam="2">  1       -1 0.63188902E-01 0.18548843E+04</pdfrwt>
<totfact> 0.16095692E+01</totfact>
</mgrwt>
</event>
<event>
12    7  0.1730932E-007  0.1498465E+04  0.7818608E-02  0.8885474E-01
         -1   -1    0    0    0  501 -0.00000000000E+00  0.00000000000E+00  0.51116375324E+03  0.51116375324E+03  0.00000000000E+00 0.  1.
          2   -1    0    0  501    0  0.00000000000E+00 -0.00000000000E+00 -0.10981795433E+04  0.10981795433E+04  0.00000000000E+00 0. -1.
         24    2    1    2    0    0  0.31095614447E+03 -0.29194681048E+03 -0.55162732822E+03  0.70161535898E+03  0.77747918196E+02 0.  0.
        254    2    1    2    0    0 -0.31095614447E+03  0.29194681048E+03 -0.35388461869E+02  0.90772793758E+03  0.80049422327E+03 0.  0.
         23    2    4    4    0    0 -0.34276555642E+03 -0.18221264045E+03 -0.11982880545E+03  0.41646191022E+03  0.91607352552E+02 0.  0.
         23    2    4    4    0    0  0.31809411942E+02  0.47415945093E+03  0.84440343580E+02  0.49126602736E+03  0.91504723479E+02 0.  0.
          4    1    3    3  502    0  0.27566547562E+03 -0.25018489678E+03 -0.51632069464E+03  0.63653043662E+03  0.00000000000E+00 0. -1.
         -3    1    3    3    0  502  0.35290668852E+02 -0.41761913707E+02 -0.35306633572E+02  0.65084922360E+02  0.00000000000E+00 0.  1.
         13    1    5    5    0    0 -0.16810633392E+03 -0.12635100616E+03 -0.30532694249E+02  0.21250073336E+03  0.00000000000E+00 0.  1.
        -13    1    5    5    0    0 -0.17465922250E+03 -0.55861634291E+02 -0.89296111200E+02  0.20396117686E+03  0.00000000000E+00 0. -1.
          3    1    6    6  503    0  0.43026962008E+01  0.24937739496E+02  0.27897078673E+02  0.37664984326E+02  0.00000000000E+00 0. -1.
         -3    1    6    6    0  503  0.27506715741E+02  0.44922171144E+03  0.56543264907E+02  0.45360104304E+03  0.00000000000E+00 0.  1.
<mgrwt>
<rscale>  0 0.14984653E+04</rscale>
<asrwt>0</asrwt>
<pdfrwt beam="1">  1        2 0.16895070E+00 0.14984653E+04</pdfrwt>
<pdfrwt beam="2">  1       -1 0.78640577E-01 0.14984653E+04</pdfrwt>
<totfact> 0.38953899E+01</totfact>
</mgrwt>
</event>
<event>
12    7  0.1730932E-007  0.1504728E+04  0.7818608E-02  0.8881315E-01
          2   -1    0    0  501    0  0.00000000000E+00  0.00000000000E+00  0.96776795322E+03  0.96776795322E+03  0.00000000000E+00 0. -1.
         -1   -1    0    0    0  501 -0.00000000000E+00 -0.00000000000E+00 -0.58490422114E+03  0.58490422114E+03  0.00000000000E+00 0.  1.
         24    2    1    2    0    0 -0.26827210958E+03 -0.20997124183E+03  0.45259315282E+03  0.57388522407E+03  0.91901258139E+02 0.  0.
        254    2    1    2    0    0  0.26827210958E+03  0.20997124183E+03 -0.69729420743E+02  0.97878695030E+03  0.91493379803E+03 0.  0.
         23    2    4    4    0    0 -0.54987108606E+02  0.46376472558E+03  0.15495756229E+03  0.50006746449E+03  0.89186995243E+02 0.  0.
         23    2    4    4    0    0  0.32325921818E+03 -0.25379348375E+03 -0.22468698304E+03  0.47871948581E+03  0.98896163786E+02 0.  0.
          2    1    3    3  502    0 -0.25622726626E+03 -0.21846392277E+03  0.44240538891E+03  0.55596890710E+03  0.00000000000E+00 0. -1.
         -3    1    3    3    0  502 -0.12044843313E+02  0.84926809411E+01  0.10187763917E+02  0.17916316966E+02  0.00000000000E+00 0.  1.
         13    1    5    5    0    0 -0.36522107087E+02  0.39112986746E+03  0.95167877166E+02  0.40419470849E+03  0.00000000000E+00 0. -1.
        -13    1    5    5    0    0 -0.18465001519E+02  0.72634858124E+02  0.59789685127E+02  0.95872756001E+02  0.00000000000E+00 0.  1.
          4    1    6    6  503    0  0.25452834495E+03 -0.21652254003E+03 -0.13678654204E+03  0.36107789576E+03  0.00000000000E+00 0. -1.
         -4    1    6    6    0  503  0.68730873230E+02 -0.37270943722E+02 -0.87900440998E+02  0.11764159005E+03  0.00000000000E+00 0.  1.
<mgrwt>
<rscale>  0 0.15047280E+04</rscale>
<asrwt>0</asrwt>
<pdfrwt beam="1">  1        2 0.14888738E+00 0.15047280E+04</pdfrwt>
<pdfrwt beam="2">  1       -1 0.89985265E-01 0.15047280E+04</pdfrwt>
<totfact> 0.35207517E+01</totfact>
</mgrwt>
</event>
<event>
12    7  0.1730932E-007  0.2989495E+04  0.7818608E-02  0.8246737E-01
          2   -1    0    0  501    0  0.00000000000E+00  0.00000000000E+00  0.36987772003E+04  0.36987772003E+04  0.00000000000E+00 0. -1.
         -1   -1    0    0    0  501 -0.00000000000E+00 -0.00000000000E+00 -0.60405627305E+03  0.60405627305E+03  0.00000000000E+00 0.  1.
         24    2    1    2    0    0  0.87855905270E+03  0.95141728618E+03  0.85280387798E+03  0.15526249359E+04  0.79428431481E+02 0.  0.
        254    2    1    2    0    0 -0.87855905270E+03 -0.95141728618E+03  0.22419170493E+04  0.27502085375E+04  0.92757430012E+03 0.  0.
         23    2    4    4    0    0 -0.87843898144E+03 -0.31421937949E+03  0.14918136869E+04  0.17618915088E+04  0.91459007398E+02 0.  0.
         23    2    4    4    0    0 -0.12007126083E+00 -0.63719790669E+03  0.75010336243E+03  0.98831702866E+03  0.89968372756E+02 0.  0.
          2    1    3    3  502    0  0.33687352220E+03  0.30898297233E+03  0.29787752194E+03  0.54560541166E+03  0.00000000000E+00 0. -1.
         -1    1    3    3    0  502  0.54168553050E+03  0.64243431385E+03  0.55492635604E+03  0.10070195242E+04  0.00000000000E+00 0.  1.
         13    1    5    5    0    0 -0.17412065136E+03 -0.46546841410E+02  0.22958526027E+03  0.29188011478E+03  0.00000000000E+00 0.  1.
        -13    1    5    5    0    0 -0.70431833008E+03 -0.26767253808E+03  0.12622284266E+04  0.14700113941E+04  0.00000000000E+00 0. -1.
          2    1    6    6  503    0  0.41314652315E+02 -0.42613043829E+03  0.48507285675E+03  0.64698510592E+03  0.00000000000E+00 0. -1.
         -2    1    6    6    0  503 -0.41434723576E+02 -0.21106746840E+03  0.26503050568E+03  0.34133192273E+03  0.00000000000E+00 0.  1.
<mgrwt>
<rscale>  0 0.29894947E+04</rscale>
<asrwt>0</asrwt>
<pdfrwt beam="1">  1        2 0.56904263E+00 0.29894947E+04</pdfrwt>
<pdfrwt beam="2">  1       -1 0.92931736E-01 0.29894947E+04</pdfrwt>
<totfact> 0.63995990E-01</totfact>
</mgrwt>
</event>
<event>
12    7  0.1730932E-007  0.2933242E+04  0.7818608E-02  0.8263055E-01
          2   -1    0    0  501    0  0.00000000000E+00  0.00000000000E+00  0.18116130725E+04  0.18116130725E+04  0.00000000000E+00 0. -1.
         -1   -1    0    0    0  501 -0.00000000000E+00 -0.00000000000E+00 -0.11873271592E+04  0.11873271592E+04  0.00000000000E+00 0.  1.
         24    2    1    2    0    0  0.51958598487E+03  0.12105955758E+04  0.12636126010E+03  0.13257712992E+04  0.78683708839E+02 0.  0.
        254    2    1    2    0    0 -0.51958598487E+03 -0.12105955758E+04  0.49792465325E+03  0.16731689325E+04  0.90335711238E+03 0.  0.
         23    2    4    4    0    0 -0.64054944059E+03 -0.37531571203E+03  0.21916552514E+03  0.77963859888E+03  0.92937333297E+02 0.  0.
         23    2    4    4    0    0  0.12096345572E+03 -0.83527986377E+03  0.27875912811E+03  0.89353033360E+03  0.91461451557E+02 0.  0.
          4    1    3    3  502    0  0.49064536175E+02  0.17504655524E+03  0.30164801005E+02  0.18427843182E+03  0.00000000000E+00 0. -1.
         -3    1    3    3    0  502  0.47052144870E+03  0.10355490206E+04  0.96196459099E+02  0.11414928674E+04  0.00000000000E+00 0.  1.
         13    1    5    5    0    0 -0.31237987287E+02 -0.12096622611E+02  0.31252025659E+02  0.45812981087E+02  0.00000000000E+00 0. -1.
        -13    1    5    5    0    0 -0.60931145330E+03 -0.36321908942E+03  0.18791349948E+03  0.73382561779E+03  0.00000000000E+00 0.  1.
          2    1    6    6  503    0 -0.95030199267E+01 -0.24421905627E+02 -0.59512797353E-01  0.26205732272E+02  0.00000000000E+00 0. -1.
         -2    1    6    6    0  503  0.13046647564E+03 -0.81085795815E+03  0.27881864091E+03  0.86732460133E+03  0.00000000000E+00 0.  1.
<mgrwt>
<rscale>  0 0.29332422E+04</rscale>
<asrwt>0</asrwt>
<pdfrwt beam="1">  1        2 0.27870970E+00 0.29332422E+04</pdfrwt>
<pdfrwt beam="2">  1       -1 0.18266572E+00 0.29332422E+04</pdfrwt>
<totfact> 0.16584483E+00</totfact>
</mgrwt>
</event>
<event>
12    7  0.1730932E-007  0.1731803E+04  0.7818608E-02  0.8743431E-01
         -1   -1    0    0    0  501 -0.00000000000E+00  0.00000000000E+00  0.32988712172E+03  0.32988712172E+03  0.00000000000E+00 0.  1.
          2   -1    0    0  501    0  0.00000000000E+00 -0.00000000000E+00 -0.22728545991E+04  0.22728545991E+04  0.00000000000E+00 0. -1.
         24    2    1    2    0    0  0.53069429718E+03 -0.29419931767E+03 -0.93034009023E+03  0.11135405616E+04  0.79058353150E+02 0.  0.
        254    2    1    2    0    0 -0.53069429718E+03  0.29419931767E+03 -0.10126273871E+04  0.14892011592E+04  0.90780845548E+03 0.  0.
         23    2    4    4    0    0 -0.59514656308E+03  0.42941163357E+03 -0.37893345336E+03  0.83151571230E+03  0.96093887092E+02 0.  0.
         23    2    4    4    0    0  0.64452265899E+02 -0.13521231590E+03 -0.63369393374E+03  0.65768544689E+03  0.92442849587E+02 0.  0.
          2    1    3    3  502    0  0.48866046766E+03 -0.25479322159E+03 -0.80471820737E+03  0.97533585584E+03  0.00000000000E+00 0. -1.
         -1    1    3    3    0  502  0.42033829523E+02 -0.39406096079E+02 -0.12562188287E+03  0.13820470574E+03  0.00000000000E+00 0.  1.
         13    1    5    5    0    0 -0.50029488056E+03  0.39944118467E+03 -0.33807803420E+03  0.72397858030E+03  0.00000000000E+00 0. -1.
        -13    1    5    5    0    0 -0.94851682520E+02  0.29970448899E+02 -0.40855419161E+02  0.10753713200E+03  0.00000000000E+00 0.  1.
          2    1    6    6  503    0  0.85983330824E+02 -0.97980136150E+02 -0.52106644143E+03  0.53712519644E+03  0.00000000000E+00 0. -1.
         -2    1    6    6    0  503 -0.21531064925E+02 -0.37232179746E+02 -0.11262749231E+03  0.12056025045E+03  0.00000000000E+00 0.  1.
<mgrwt>
<rscale>  0 0.17318031E+04</rscale>
<asrwt>0</asrwt>
<pdfrwt beam="1">  1        2 0.34966994E+00 0.17318031E+04</pdfrwt>
<pdfrwt beam="2">  1       -1 0.50751864E-01 0.17318031E+04</pdfrwt>
<totfact> 0.19819136E+01</totfact>
</mgrwt>
</event>
<event>
12    7  0.1730932E-007  0.1542500E+04  0.7818608E-02  0.8856672E-01
          2   -1    0    0  501    0  0.00000000000E+00  0.00000000000E+00  0.86121319322E+03  0.86121319322E+03  0.00000000000E+00 0. -1.
         -1   -1    0    0    0  501 -0.00000000000E+00 -0.00000000000E+00 -0.69068488880E+03  0.69068488880E+03  0.00000000000E+00 0.  1.
         24    2    1    2    0    0  0.11653108258E+02 -0.48632630358E+03 -0.99536815821E+02  0.50295823904E+03  0.80064624098E+02 0.  0.
        254    2    1    2    0    0 -0.11653108258E+02  0.48632630358E+03  0.27006512024E+03  0.10489398430E+04  0.88920782527E+03 0.  0.
         23    2    4    4    0    0  0.18609063591E+03  0.68258060935E+03  0.13644354843E+03  0.72639359691E+03  0.92112988700E+02 0.  0.
         23    2    4    4    0    0 -0.19774374416E+03 -0.19625430577E+03  0.13362157180E+03  0.32254624607E+03  0.92536563107E+02 0.  0.
          2    1    3    3  502    0 -0.68380116026E+01 -0.52405050142E+01  0.54616633951E+01  0.10200542266E+02  0.00000000000E+00 0. -1.
         -1    1    3    3    0  502  0.18491119861E+02 -0.48108579857E+03 -0.10499847922E+03  0.49275769678E+03  0.00000000000E+00 0.  1.
         13    1    5    5    0    0  0.92072861515E+02  0.18221705029E+03  0.31568681472E+02  0.20658423680E+03  0.00000000000E+00 0.  1.
        -13    1    5    5    0    0  0.94017774392E+02  0.50036355906E+03  0.10487486696E+03  0.51980936011E+03  0.00000000000E+00 0. -1.
          2    1    6    6  503    0 -0.11402710047E+03 -0.17207733186E+03  0.93822579711E+02  0.22674978334E+03  0.00000000000E+00 0. -1.
         -2    1    6    6    0  503 -0.83716643699E+02 -0.24176973908E+02  0.39798992092E+02  0.95796462727E+02  0.00000000000E+00 0.  1.
<mgrwt>
<rscale>  0 0.15425005E+04</rscale>
<asrwt>0</asrwt>
<pdfrwt beam="1">  1        2 0.13249434E+00 0.15425005E+04</pdfrwt>
<pdfrwt beam="2">  1       -1 0.10625921E+00 0.15425005E+04</pdfrwt>
<totfact> 0.28383084E+01</totfact>
</mgrwt>
</event>
<event>
12    7  0.1730932E-007  0.2840615E+04  0.7818608E-02  0.8290769E-01
          2   -1    0    0  501    0  0.00000000000E+00  0.00000000000E+00  0.20036136994E+04  0.20036136994E+04  0.00000000000E+00 0. -1.
         -1   -1    0    0    0  501 -0.00000000000E+00 -0.00000000000E+00 -0.10068173591E+04  0.10068173591E+04  0.00000000000E+00 0.  1.
         24    2    1    2    0    0  0.57526526148E+03  0.25237387691E+03  0.16264900087E+04  0.17455909338E+04  0.83637700186E+02 0.  0.
        254    2    1    2    0    0 -0.57526526148E+03 -0.25237387691E+03 -0.62969366841E+03  0.12648401247E+04  0.89926844167E+03 0.  0.
         23    2    4    4    0    0 -0.29775199494E+03 -0.36750073296E+03 -0.78018798756E+03  0.91707204774E+03  0.92815977050E+02 0.  0.
         23    2    4    4    0    0 -0.27751326654E+03  0.11512685606E+03  0.15049431915E+03  0.34776807695E+03  0.89589559426E+02 0.  0.
          4    1    3    3  502    0  0.56564698136E+03  0.24094473715E+03  0.15467867855E+04  0.16644999951E+04  0.00000000000E+00 0. -1.
         -3    1    3    3    0  502  0.96182801210E+01  0.11429139761E+02  0.79703223241E+02  0.81090938724E+02  0.00000000000E+00 0.  1.
         13    1    5    5    0    0 -0.30261957339E+03 -0.34868607071E+03 -0.73637862487E+03  0.86914559268E+03  0.00000000000E+00 0. -1.
        -13    1    5    5    0    0  0.48675784482E+01 -0.18814662249E+02 -0.43809362691E+02  0.47926455063E+02  0.00000000000E+00 0.  1.
          4    1    6    6  503    0 -0.14673059677E+03  0.55896337540E+02  0.28961309407E+02  0.15966535636E+03  0.00000000000E+00 0.  1.
         -4    1    6    6    0  503 -0.13078266976E+03  0.59230518515E+02  0.12153300974E+03  0.18810272059E+03  0.00000000000E+00 0. -1.
<mgrwt>
<rscale>  0 0.28406148E+04</rscale>
<asrwt>0</asrwt>
<pdfrwt beam="1">  1        2 0.30824826E+00 0.28406148E+04</pdfrwt>
<pdfrwt beam="2">  1       -1 0.15489498E+00 0.28406148E+04</pdfrwt>
<totfact> 0.20977499E+00</totfact>
</mgrwt>
</event>
<event>
12    7  0.1730932E-007  0.2260338E+04  0.7818608E-02  0.8493726E-01
         -1   -1    0    0    0  501 -0.00000000000E+00  0.00000000000E+00  0.17296432531E+04  0.17296432531E+04  0.00000000000E+00 0.  1.
          2   -1    0    0  501    0  0.00000000000E+00 -0.00000000000E+00 -0.73846542335E+03  0.73846542335E+03  0.00000000000E+00 0. -1.
         24    2    1    2    0    0  0.88734511334E+03 -0.21386260437E+03  0.12469901563E+03  0.92466030066E+03  0.79550382841E+02 0.  0.
        254    2    1    2    0    0 -0.88734511334E+03  0.21386260437E+03  0.86647881408E+03  0.15434483758E+04  0.89349246760E+03 0.  0.
         23    2    4    4    0    0 -0.88478524195E+03 -0.14912231663E+03  0.60189154578E+03  0.10853064122E+04  0.10263618191E+03 0.  0.
         23    2    4    4    0    0 -0.25598713881E+01  0.36298492101E+03  0.26458726831E+03  0.45814196354E+03  0.90127855754E+02 0.  0.
          4    1    3    3  502    0  0.82484685026E+03 -0.19774860503E+03  0.13624869886E+03  0.85909286175E+03  0.00000000000E+00 0. -1.
         -3    1    3    3    0  502  0.62498263079E+02 -0.16113999342E+02 -0.11549683227E+02  0.65567438911E+02  0.00000000000E+00 0.  1.
         13    1    5    5    0    0 -0.71650710353E+03 -0.15943010696E+03  0.47531127424E+03  0.87448338797E+03  0.00000000000E+00 0.  1.
        -13    1    5    5    0    0 -0.16827813842E+03  0.10307790330E+02  0.12658027153E+03  0.21082302425E+03  0.00000000000E+00 0. -1.
          3    1    6    6  503    0 -0.39999825198E+02  0.95232524925E+02  0.64190307377E+02  0.12161256259E+03  0.00000000000E+00 0. -1.
         -3    1    6    6    0  503  0.37439953810E+02  0.26775239608E+03  0.20039696093E+03  0.33652940094E+03  0.00000000000E+00 0.  1.
<mgrwt>
<rscale>  0 0.22603378E+04</rscale>
<asrwt>0</asrwt>
<pdfrwt beam="1">  1        2 0.11361007E+00 0.22603378E+04</pdfrwt>
<pdfrwt beam="2">  1       -1 0.26609896E+00 0.22603378E+04</pdfrwt>
<totfact> 0.21749334E+00</totfact>
</mgrwt>
</event>
<event>
12    7  0.1730932E-007  0.1572714E+04  0.7818608E-02  0.8837488E-01
          2   -1    0    0  501    0  0.00000000000E+00  0.00000000000E+00  0.82820625236E+03  0.82820625236E+03  0.00000000000E+00 0. -1.
         -1   -1    0    0    0  501 -0.00000000000E+00 -0.00000000000E+00 -0.74662245811E+03  0.74662245811E+03  0.00000000000E+00 0.  1.
         24    2    1    2    0    0 -0.21725746955E+03 -0.36704340084E+03 -0.27729604489E+03  0.51500042950E+03  0.80066720244E+02 0.  0.
        254    2    1    2    0    0  0.21725746955E+03  0.36704340084E+03  0.35887983915E+03  0.10598282810E+04  0.90139867984E+03 0.  0.
         23    2    4    4    0    0  0.22299413166E+03  0.61023933843E+03  0.43822065304E+03  0.78857837324E+03  0.87750083029E+02 0.  0.
         23    2    4    4    0    0 -0.57366621071E+01 -0.24319593758E+03 -0.79340813894E+02  0.27124990773E+03  0.90024298632E+02 0.  0.
          2    1    3    3  502    0 -0.17109432989E+03 -0.23575699967E+03 -0.21746310838E+03  0.36351731199E+03  0.00000000000E+00 0. -1.
         -1    1    3    3    0  502 -0.46163139664E+02 -0.13128640118E+03 -0.59832936517E+02  0.15148311751E+03  0.00000000000E+00 0.  1.
         13    1    5    5    0    0  0.27416624345E+02  0.78418574276E+02  0.94555430337E+02  0.12586450448E+03  0.00000000000E+00 0. -1.
        -13    1    5    5    0    0  0.19557750732E+03  0.53182076415E+03  0.34366522270E+03  0.66271386876E+03  0.00000000000E+00 0.  1.
          1    1    6    6  503    0  0.33646908653E+02 -0.68580109951E+02 -0.24404683879E+01  0.76428409828E+02  0.00000000000E+00 0. -1.
         -1    1    6    6    0  503 -0.39383570760E+02 -0.17461582763E+03 -0.76900345506E+02  0.19482149790E+03  0.00000000000E+00 0.  1.
<mgrwt>
<rscale>  0 0.15727141E+04</rscale>
<asrwt>0</asrwt>
<pdfrwt beam="1">  1        2 0.12741635E+00 0.15727141E+04</pdfrwt>
<pdfrwt beam="2">  1       -1 0.11486499E+00 0.15727141E+04</pdfrwt>
<totfact> 0.24834114E+01</totfact>
</mgrwt>
</event>
<event>
12    7  0.1730932E-007  0.3153131E+04  0.7818608E-02  0.8201306E-01
         -1   -1    0    0    0  501 -0.00000000000E+00  0.00000000000E+00  0.90351985915E+03  0.90351985915E+03  0.00000000000E+00 0.  1.
          2   -1    0    0  501    0  0.00000000000E+00 -0.00000000000E+00 -0.27509735278E+04  0.27509735278E+04  0.00000000000E+00 0. -1.
         24    2    1    2    0    0 -0.35985044784E+03  0.12666551824E+04 -0.15447709378E+04  0.20310050931E+04  0.68969139218E+02 0.  0.
        254    2    1    2    0    0  0.35985044784E+03 -0.12666551824E+04 -0.30268273082E+03  0.16234882938E+04  0.90010538748E+03 0.  0.
         23    2    4    4    0    0  0.28777804437E+03  0.15932333662E+02 -0.10573933755E+03  0.32057085042E+03  0.92275785301E+02 0.  0.
         23    2    4    4    0    0  0.72072403473E+02 -0.12825875161E+04 -0.19694339327E+03  0.13029174434E+04  0.92639064883E+02 0.  0.
          2    1    3    3  502    0 -0.27590029442E+03  0.85368897410E+03 -0.10481972387E+04  0.13797185540E+04  0.00000000000E+00 0. -1.
         -1    1    3    3    0  502 -0.83950153418E+02  0.41296620831E+03 -0.49657369905E+03  0.65128653914E+03  0.00000000000E+00 0.  1.
         13    1    5    5    0    0  0.27861298623E+03  0.31487691320E+02 -0.84814726270E+02  0.29293379558E+03  0.00000000000E+00 0. -1.
        -13    1    5    5    0    0  0.91650581365E+01 -0.15555357658E+02 -0.20924611282E+02  0.27637054832E+02  0.00000000000E+00 0.  1.
          4    1    6    6  503    0  0.76582220054E+02 -0.12126023190E+04 -0.16615549122E+03  0.12263265747E+04  0.00000000000E+00 0. -1.
         -4    1    6    6    0  503 -0.45098165814E+01 -0.69985197063E+02 -0.30787902053E+02  0.76590868688E+02  0.00000000000E+00 0.  1.
<mgrwt>
<rscale>  0 0.31531313E+04</rscale>
<asrwt>0</asrwt>
<pdfrwt beam="1">  1        2 0.42322669E+00 0.31531313E+04</pdfrwt>
<pdfrwt beam="2">  1       -1 0.13900306E+00 0.31531313E+04</pdfrwt>
<totfact> 0.10148719E+00</totfact>
</mgrwt>
</event>
<event>
12    7  0.1730932E-007  0.1788603E+04  0.7818608E-02  0.8712384E-01
         -1   -1    0    0    0  501 -0.00000000000E+00  0.00000000000E+00  0.36372341748E+03  0.36372341748E+03  0.00000000000E+00 0.  1.
          2   -1    0    0  501    0  0.00000000000E+00 -0.00000000000E+00 -0.21988547180E+04  0.21988547180E+04  0.00000000000E+00 0. -1.
         24    2    1    2    0    0 -0.17646728899E+03 -0.43371965780E+03 -0.14305136976E+02  0.47528713652E+03  0.80248237091E+02 0.  0.
        254    2    1    2    0    0  0.17646728899E+03  0.43371965780E+03 -0.18208261635E+04  0.20872909989E+04  0.90670962873E+03 0.  0.
         23    2    4    4    0    0 -0.27877389445E+03 -0.59880561698E+02 -0.86961202370E+03  0.91955280623E+03  0.89731409105E+02 0.  0.
         23    2    4    4    0    0  0.45524118344E+03  0.49360021950E+03 -0.95121413982E+03  0.11677381927E+04  0.88985589433E+02 0.  0.
          4    1    3    3  502    0 -0.13135719857E+03 -0.31972939019E+03 -0.45885060681E+02  0.34869332566E+03  0.00000000000E+00 0. -1.
         -3    1    3    3    0  502 -0.45110090425E+02 -0.11399026761E+03  0.31579923706E+02  0.12659381087E+03  0.00000000000E+00 0.  1.
         13    1    5    5    0    0 -0.18065741067E+03  0.57503577878E+01 -0.51291926291E+03  0.54383484341E+03  0.00000000000E+00 0. -1.
        -13    1    5    5    0    0 -0.98116483779E+02 -0.65630919486E+02 -0.35669276079E+03  0.37571796281E+03  0.00000000000E+00 0.  1.
          4    1    6    6  503    0  0.30729071422E+03  0.27578230083E+03 -0.61349886967E+03  0.73950275428E+03  0.00000000000E+00 0. -1.
         -4    1    6    6    0  503  0.14795046922E+03  0.21781791867E+03 -0.33771527015E+03  0.42823543843E+03  0.00000000000E+00 0.  1.
<mgrwt>
<rscale>  0 0.17886028E+04</rscale>
<asrwt>0</asrwt>
<pdfrwt beam="1">  1        2 0.33828534E+00 0.17886028E+04</pdfrwt>
<pdfrwt beam="2">  1       -1 0.55957448E-01 0.17886028E+04</pdfrwt>
<totfact> 0.17983254E+01</totfact>
</mgrwt>
</event>
